Title t= 205.00000 step= 102500
44389
    1GLY      N    1   6.292   3.628   0.793
    1GLY    HT1    2   6.229   3.554   0.832
    1GLY    HT2    3   6.378   3.642   0.849
    1GLY    HT3    4   6.319   3.604   0.696
    1GLY     CA    5   6.206   3.750   0.782
    1GLY    HA1    6   6.127   3.711   0.721
    1GLY    HA2    7   6.269   3.820   0.729
    1GLY      C    8   6.156   3.799   0.917
    1GLY      O    9   6.185   3.739   1.023
    2PRO      N   10   6.087   3.914   0.910
    2PRO     CD   11   6.092   4.003   0.794
    2PRO    HD1   12   6.033   3.963   0.708
    2PRO    HD2   13   6.191   4.036   0.759
    2PRO     CA   14   6.023   3.973   1.021
    2PRO     HA   15   6.101   4.007   1.087
    2PRO     CB   16   5.938   4.078   0.956
    2PRO    HB1   17   5.909   4.161   1.024
    2PRO    HB2   18   5.849   4.034   0.907
    2PRO     CG   19   6.030   4.130   0.849
    2PRO    HG1   20   5.984   4.171   0.756
    2PRO    HG2   21   6.102   4.208   0.881
    2PRO      C   22   5.942   3.884   1.116
    2PRO      O   23   5.847   3.819   1.074
    3GLY      N   24   5.975   3.900   1.247
    3GLY     HN   25   6.062   3.940   1.273
    3GLY     CA   26   5.899   3.842   1.360
    3GLY    HA1   27   5.811   3.794   1.319
    3GLY    HA2   28   5.896   3.909   1.444
    3GLY      C   29   5.965   3.717   1.406
    3GLY      O   30   6.052   3.666   1.338
    4ASP      N   31   5.903   3.649   1.506
    4ASP     HN   32   5.824   3.691   1.549
    4ASP     CA   33   5.909   3.507   1.523
    4ASP     HA   34   6.010   3.475   1.504
    4ASP     CB   35   5.876   3.468   1.670
    4ASP    HB1   36   5.867   3.358   1.676
    4ASP    HB2   37   5.780   3.520   1.691
    4ASP     CG   38   5.976   3.508   1.772
    4ASP    OD1   39   6.084   3.557   1.727
    4ASP    OD2   40   5.947   3.492   1.892
    4ASP      C   41   5.810   3.432   1.428
    4ASP      O   42   5.705   3.489   1.389
    5PRO      N   43   5.836   3.307   1.391
    5PRO     CD   44   5.954   3.228   1.429
    5PRO    HD1   45   5.924   3.165   1.515
    5PRO    HD2   46   6.049   3.285   1.437
    5PRO     CA   47   5.751   3.237   1.291
    5PRO     HA   48   5.767   3.290   1.199
    5PRO     CB   49   5.821   3.098   1.285
    5PRO    HB1   50   5.787   3.056   1.188
    5PRO    HB2   51   5.784   3.042   1.374
    5PRO     CG   52   5.966   3.130   1.312
    5PRO    HG1   53   6.035   3.043   1.318
    5PRO    HG2   54   5.993   3.193   1.225
    5PRO      C   55   5.601   3.232   1.310
    5PRO      O   56   5.556   3.234   1.425
    6GLY      N   57   5.526   3.214   1.193
    6GLY     HN   58   5.571   3.194   1.106
    6GLY     CA   59   5.376   3.229   1.174
    6GLY    HA1   60   5.340   3.134   1.211
    6GLY    HA2   61   5.364   3.243   1.068
    6GLY      C   62   5.307   3.345   1.237
    6GLY      O   63   5.358   3.413   1.327
    7SER      N   64   5.172   3.356   1.221
    7SER     HN   65   5.131   3.289   1.160
    7SER     CA   66   5.092   3.462   1.283
    7SER     HA   67   5.145   3.513   1.362
    7SER     CB   68   5.031   3.570   1.187
    7SER    HB1   69   4.953   3.641   1.224
    7SER    HB2   70   4.977   3.513   1.108
    7SER     OG   71   5.132   3.649   1.129
    7SER    HG1   72   5.169   3.708   1.194
    7SER      C   73   4.974   3.405   1.359
    7SER      O   74   4.918   3.301   1.323
    8GLY      N   75   4.923   3.475   1.465
    8GLY     HN   76   4.965   3.559   1.500
    8GLY     CA   77   4.798   3.442   1.532
    8GLY    HA1   78   4.781   3.513   1.612
    8GLY    HA2   79   4.808   3.344   1.576
    8GLY      C   80   4.675   3.439   1.447
    8GLY      O   81   4.674   3.486   1.331
    9ASN      N   82   4.572   3.367   1.492
    9ASN     HN   83   4.582   3.318   1.578
    9ASN     CA   84   4.446   3.372   1.427
    9ASN     HA   85   4.446   3.445   1.348
    9ASN     CB   86   4.410   3.231   1.372
    9ASN    HB1   87   4.408   3.156   1.454
    9ASN    HB2   88   4.484   3.195   1.298
    9ASN     CG   89   4.268   3.235   1.307
    9ASN    OD1   90   4.237   3.336   1.240
    9ASN    ND2   91   4.190   3.126   1.320
    9ASN   HD21   92   4.103   3.116   1.271
    9ASN   HD22   93   4.221   3.044   1.368
    9ASN      C   94   4.356   3.422   1.538
    9ASN      O   95   4.357   3.351   1.640
   10PRO      N   96   4.281   3.534   1.537
   10PRO     CD   97   4.269   3.616   1.412
   10PRO    HD1   98   4.210   3.549   1.347
   10PRO    HD2   99   4.367   3.640   1.365
   10PRO     CA  100   4.179   3.572   1.628
   10PRO     HA  101   4.218   3.620   1.717
   10PRO     CB  102   4.099   3.685   1.557
   10PRO    HB1  103   4.073   3.756   1.639
   10PRO    HB2  104   4.006   3.648   1.511
   10PRO     CG  105   4.194   3.740   1.445
   10PRO    HG1  106   4.134   3.777   1.359
   10PRO    HG2  107   4.261   3.817   1.488
   10PRO      C  108   4.098   3.450   1.676
   10PRO      O  109   4.049   3.364   1.595
   11GLY      N  110   4.085   3.433   1.809
   11GLY     HN  111   4.120   3.506   1.866
   11GLY     CA  112   4.005   3.333   1.876
   11GLY    HA1  113   4.057   3.300   1.965
   11GLY    HA2  114   3.997   3.244   1.816
   11GLY      C  115   3.865   3.388   1.931
   11GLY      O  116   3.845   3.505   1.956
   12SER      N  117   3.776   3.288   1.949
   12SER     HN  118   3.791   3.192   1.925
   12SER     CA  119   3.654   3.316   2.021
   12SER     HA  120   3.632   3.421   2.011
   12SER     CB  121   3.524   3.260   1.959
   12SER    HB1  122   3.523   3.297   1.854
   12SER    HB2  123   3.434   3.283   2.020
   12SER     OG  124   3.528   3.117   1.936
   12SER    HG1  125   3.488   3.104   1.850
   12SER      C  126   3.674   3.294   2.166
   12SER      O  127   3.596   3.335   2.245
   13GLY      N  128   3.781   3.223   2.209
   13GLY     HN  129   3.831   3.174   2.139
   13GLY     CA  130   3.815   3.182   2.346
   13GLY    HA1  131   3.841   3.270   2.402
   13GLY    HA2  132   3.899   3.114   2.348
   13GLY      C  133   3.704   3.102   2.420
   13GLY      O  134   3.619   3.029   2.367
   14ASP      N  135   3.692   3.120   2.551
   14ASP     HN  136   3.765   3.162   2.604
   14ASP     CA  137   3.594   3.050   2.635
   14ASP     HA  138   3.613   2.947   2.609
   14ASP     CB  139   3.638   3.062   2.782
   14ASP    HB1  140   3.556   3.022   2.847
   14ASP    HB2  141   3.662   3.167   2.806
   14ASP     CG  142   3.761   2.984   2.825
   14ASP    OD1  143   3.861   3.042   2.869
   14ASP    OD2  144   3.756   2.860   2.809
   14ASP      C  145   3.444   3.079   2.606
   14ASP      O  146   3.414   3.194   2.568
   15PRO      N  147   3.354   2.987   2.625
   15PRO     CD  148   3.369   2.844   2.646
   15PRO    HD1  149   3.434   2.826   2.734
   15PRO    HD2  150   3.428   2.803   2.561
   15PRO     CA  151   3.221   3.032   2.635
   15PRO     HA  152   3.198   3.117   2.571
   15PRO     CB  153   3.142   2.908   2.596
   15PRO    HB1  154   3.130   2.900   2.486
   15PRO    HB2  155   3.043   2.905   2.647
   15PRO     CG  156   3.230   2.792   2.651
   15PRO    HG1  157   3.202   2.763   2.755
   15PRO    HG2  158   3.207   2.705   2.586
   15PRO      C  159   3.190   3.091   2.774
   15PRO    OT1  160   3.265   3.050   2.874
   15PRO    OT2  161   3.100   3.177   2.786
   16SOD    SOD  162   4.961   4.601   1.080
   17SOD    SOD  163   1.099   2.663   1.273
   18SOD    SOD  164   2.686   6.227   3.290
   19SOD    SOD  165   7.380   5.087   5.187
   20SOD    SOD  166   3.285   2.199   2.469
   21SOD    SOD  167   6.374   1.120   6.203
   22SOD    SOD  168   4.510   5.144   4.537
   23SOD    SOD  169   0.705   7.472   3.541
   24SOD    SOD  170   0.498   6.888   1.289
   25SOD    SOD  171   5.638   6.352   5.639
   26SOD    SOD  172   2.234   4.372   4.632
   27SOD    SOD  173   0.637   3.709   4.995
   28SOD    SOD  174   7.987   1.899   4.840
   29SOD    SOD  175   5.472   2.914   6.585
   30SOD    SOD  176   8.080   7.245   5.206
   31SOD    SOD  177   2.536   2.639   1.497
   32SOD    SOD  178   6.246   1.355   4.523
   33SOD    SOD  179   6.294   5.278   2.242
   34SOD    SOD  180   4.332   1.628   0.098
   35SOD    SOD  181   6.762   4.840   0.798
   36SOD    SOD  182   1.625   4.044   0.541
   37SOD    SOD  183   7.856   4.493   4.893
   38SOD    SOD  184   6.563   1.869   5.689
   39SOD    SOD  185   2.717   3.200   3.440
   40SOD    SOD  186   4.129   3.962   6.494
   41SOD    SOD  187   6.635   1.428   1.454
   42SOD    SOD  188   6.732   5.671   3.859
   43SOD    SOD  189   6.400   2.918   5.204
   44SOD    SOD  190   0.511   1.821   6.338
   45SOD    SOD  191   3.185   2.777   0.261
   46SOD    SOD  192   2.967   4.039   5.225
   47SOD    SOD  193   4.557   6.408   3.270
   48SOD    SOD  194   3.558   0.192   3.251
   49SOD    SOD  195   7.798   1.287   3.084
   50SOD    SOD  196   4.259   3.770   5.206
   51SOD    SOD  197   5.386   3.972   0.064
   52SOD    SOD  198   4.345   4.948   5.949
   53SOD    SOD  199   4.869   0.811   0.258
   54SOD    SOD  200   0.695   5.247   3.116
   55SOD    SOD  201   0.598   6.210   3.355
   56SOD    SOD  202   1.699   3.407   4.861
   57SOD    SOD  203   7.469   0.177   5.722
   58SOD    SOD  204   7.370   6.782   1.672
   59SOD    SOD  205   2.353   4.594   3.413
   60CLA    CLA  206   1.389   7.234   2.579
   61CLA    CLA  207   5.491   0.312   4.102
   62CLA    CLA  208   1.614   1.133   6.290
   63CLA    CLA  209   2.802   2.038   0.398
   64CLA    CLA  210   0.988   6.308   0.535
   65CLA    CLA  211   7.683   5.012   5.790
   66CLA    CLA  212   7.848   2.831   6.674
   67CLA    CLA  213   6.490   0.266   4.863
   68CLA    CLA  214   3.636   3.530   4.354
   69CLA    CLA  215   2.478   4.785   1.231
   70CLA    CLA  216   7.932   1.947   3.873
   71CLA    CLA  217   5.699   0.086   5.067
   72CLA    CLA  218   1.412   3.655   0.510
   73CLA    CLA  219   0.289   4.360   3.954
   74CLA    CLA  220   6.801   5.531   5.610
   75CLA    CLA  221   2.021   6.391   6.148
   76CLA    CLA  222   0.900   6.284   5.826
   77CLA    CLA  223   6.331   7.049   1.639
   78CLA    CLA  224   3.035   1.726   5.443
   79CLA    CLA  225   4.719   4.168   1.939
   80CLA    CLA  226   8.023   0.429   0.530
   81CLA    CLA  227   4.040   1.822   4.028
   82CLA    CLA  228   1.638   2.658   4.946
   83CLA    CLA  229   7.660   6.176   5.811
   84CLA    CLA  230   7.258   4.979   4.964
   85CLA    CLA  231   5.222   4.149   1.151
   86CLA    CLA  232   7.048   7.630   3.273
   87CLA    CLA  233   2.943   5.283   0.591
   88CLA    CLA  234   7.912   5.633   3.189
   89CLA    CLA  235   3.259   0.075   3.645
   90CLA    CLA  236   4.820   5.940   2.601
   91CLA    CLA  237   5.557   5.625   1.025
   92CLA    CLA  238   0.302   1.441   2.528
   93CLA    CLA  239   6.381   5.569   2.622
   94CLA    CLA  240   3.207   4.549   4.363
   95CLA    CLA  241   2.052   5.198   4.460
   96CLA    CLA  242   2.643   6.958   3.318
   97CLA    CLA  243   0.696   1.482   3.800
   98CLA    CLA  244   6.772   5.407   3.847
   99CLA    CLA  245   2.795   4.832   4.962
  100CLA    CLA  246   5.112   6.669   5.551
  101CLA    CLA  247   6.123   1.576   4.969
  102TIP3   OH2  248   5.644   7.751   3.709
  102TIP3    H1  249   5.556   7.730   3.678
  102TIP3    H2  250   5.699   7.681   3.674
  103TIP3   OH2  251   3.729   2.975   4.998
  103TIP3    H1  252   3.786   2.916   5.048
  103TIP3    H2  253   3.641   2.939   5.012
  104TIP3   OH2  254   0.633   3.883   0.417
  104TIP3    H1  255   0.594   3.953   0.470
  104TIP3    H2  256   0.674   3.929   0.344
  105TIP3   OH2  257   3.203   3.122   4.705
  105TIP3    H1  258   3.190   3.118   4.611
  105TIP3    H2  259   3.296   3.102   4.717
  106TIP3   OH2  260   6.353   3.589   1.708
  106TIP3    H1  261   6.354   3.618   1.799
  106TIP3    H2  262   6.269   3.546   1.697
  107TIP3   OH2  263   6.042   1.035   5.522
  107TIP3    H1  264   6.075   1.092   5.453
  107TIP3    H2  265   5.950   1.057   5.530
  108TIP3   OH2  266   6.056   1.237   4.576
  108TIP3    H1  267   5.965   1.240   4.603
  108TIP3    H2  268   6.084   1.147   4.593
  109TIP3   OH2  269   3.083   1.608   1.392
  109TIP3    H1  270   3.068   1.632   1.300
  109TIP3    H2  271   3.040   1.678   1.442
  110TIP3   OH2  272   0.836   0.128   3.108
  110TIP3    H1  273   0.892   0.181   3.165
  110TIP3    H2  274   0.752   0.174   3.110
  111TIP3   OH2  275   2.979   3.582   1.438
  111TIP3    H1  276   2.984   3.668   1.397
  111TIP3    H2  277   2.891   3.551   1.419
  112TIP3   OH2  278   0.254   7.422   2.514
  112TIP3    H1  279   0.205   7.479   2.573
  112TIP3    H2  280   0.333   7.471   2.493
  113TIP3   OH2  281   2.167   3.292   1.319
  113TIP3    H1  282   2.087   3.264   1.274
  113TIP3    H2  283   2.223   3.324   1.248
  114TIP3   OH2  284   4.965   0.521   0.757
  114TIP3    H1  285   5.060   0.532   0.757
  114TIP3    H2  286   4.934   0.575   0.830
  115TIP3   OH2  287   0.321   1.891   6.177
  115TIP3    H1  288   0.262   1.940   6.233
  115TIP3    H2  289   0.264   1.831   6.129
  116TIP3   OH2  290   6.429   5.277   5.505
  116TIP3    H1  291   6.467   5.346   5.560
  116TIP3    H2  292   6.365   5.234   5.563
  117TIP3   OH2  293   3.163   6.976   2.613
  117TIP3    H1  294   3.078   6.986   2.656
  117TIP3    H2  295   3.222   6.947   2.682
  118TIP3   OH2  296   4.856   0.432   3.825
  118TIP3    H1  297   4.766   0.418   3.854
  118TIP3    H2  298   4.877   0.356   3.771
  119TIP3   OH2  299   4.739   0.816   5.099
  119TIP3    H1  300   4.739   0.860   5.013
  119TIP3    H2  301   4.693   0.877   5.156
  120TIP3   OH2  302   4.285   3.493   3.616
  120TIP3    H1  303   4.321   3.582   3.607
  120TIP3    H2  304   4.284   3.459   3.527
  121TIP3   OH2  305   1.818   6.014   0.734
  121TIP3    H1  306   1.907   6.051   0.732
  121TIP3    H2  307   1.829   5.927   0.773
  122TIP3   OH2  308   2.843   0.412   0.649
  122TIP3    H1  309   2.916   0.448   0.598
  122TIP3    H2  310   2.766   0.459   0.615
  123TIP3   OH2  311   1.880   7.434   1.297
  123TIP3    H1  312   1.866   7.349   1.337
  123TIP3    H2  313   1.794   7.460   1.264
  124TIP3   OH2  314   5.704   0.851   6.635
  124TIP3    H1  315   5.655   0.932   6.644
  124TIP3    H2  316   5.774   0.857   6.700
  125TIP3   OH2  317   1.426   5.387   3.138
  125TIP3    H1  318   1.452   5.420   3.052
  125TIP3    H2  319   1.345   5.433   3.158
  126TIP3   OH2  320   6.916   6.271   5.887
  126TIP3    H1  321   6.876   6.189   5.916
  126TIP3    H2  322   6.848   6.314   5.835
  127TIP3   OH2  323   7.552   4.917   2.233
  127TIP3    H1  324   7.623   4.963   2.277
  127TIP3    H2  325   7.507   4.985   2.182
  128TIP3   OH2  326   0.288   7.153   3.042
  128TIP3    H1  327   0.266   7.216   2.973
  128TIP3    H2  328   0.346   7.090   2.998
  129TIP3   OH2  329   4.896   2.141   1.076
  129TIP3    H1  330   4.918   2.235   1.077
  129TIP3    H2  331   4.901   2.116   0.984
  130TIP3   OH2  332   7.563   7.233   0.137
  130TIP3    H1  333   7.561   7.140   0.158
  130TIP3    H2  334   7.583   7.236   0.044
  131TIP3   OH2  335   2.986   4.909   0.165
  131TIP3    H1  336   2.981   4.835   0.226
  131TIP3    H2  337   2.895   4.936   0.152
  132TIP3   OH2  338   1.226   5.577   0.662
  132TIP3    H1  339   1.238   5.543   0.751
  132TIP3    H2  340   1.207   5.670   0.674
  133TIP3   OH2  341   1.277   5.288   1.580
  133TIP3    H1  342   1.236   5.266   1.496
  133TIP3    H2  343   1.370   5.270   1.567
  134TIP3   OH2  344   5.423   3.725   3.221
  134TIP3    H1  345   5.375   3.653   3.179
  134TIP3    H2  346   5.355   3.789   3.242
  135TIP3   OH2  347   3.089   3.331   4.834
  135TIP3    H1  348   3.126   3.273   4.767
  135TIP3    H2  349   3.159   3.342   4.899
  136TIP3   OH2  350   0.795   5.534   0.687
  136TIP3    H1  351   0.716   5.526   0.633
  136TIP3    H2  352   0.857   5.583   0.633
  137TIP3   OH2  353   8.218   6.017   0.032
  137TIP3    H1  354   8.168   6.086  -0.012
  137TIP3    H2  355   8.182   5.935  -0.004
  138TIP3   OH2  356   6.171   0.950   5.748
  138TIP3    H1  357   6.119   0.981   5.822
  138TIP3    H2  358   6.125   0.984   5.671
  139TIP3   OH2  359   5.627   4.635   3.597
  139TIP3    H1  360   5.643   4.716   3.548
  139TIP3    H2  361   5.710   4.589   3.596
  140TIP3   OH2  362   0.879   3.724   0.929
  140TIP3    H1  363   0.876   3.811   0.969
  140TIP3    H2  364   0.851   3.664   0.998
  141TIP3   OH2  365   2.027   3.026   4.769
  141TIP3    H1  366   2.055   3.027   4.861
  141TIP3    H2  367   1.983   2.942   4.758
  142TIP3   OH2  368   0.728   4.501   3.700
  142TIP3    H1  369   0.708   4.429   3.641
  142TIP3    H2  370   0.677   4.481   3.779
  143TIP3   OH2  371   7.152   1.687   4.564
  143TIP3    H1  372   7.239   1.691   4.525
  143TIP3    H2  373   7.149   1.602   4.608
  144TIP3   OH2  374   3.364   0.021   3.942
  144TIP3    H1  375   3.324   0.024   3.855
  144TIP3    H2  376   3.291   0.005   4.001
  145TIP3   OH2  377   6.712   3.495   0.554
  145TIP3    H1  378   6.702   3.498   0.459
  145TIP3    H2  379   6.801   3.461   0.567
  146TIP3   OH2  380   5.995   7.258   3.539
  146TIP3    H1  381   6.009   7.323   3.607
  146TIP3    H2  382   6.080   7.214   3.530
  147TIP3   OH2  383   7.263   1.099   6.586
  147TIP3    H1  384   7.341   1.147   6.560
  147TIP3    H2  385   7.190   1.149   6.549
  148TIP3   OH2  386   0.779   3.135   2.229
  148TIP3    H1  387   0.857   3.187   2.251
  148TIP3    H2  388   0.797   3.049   2.268
  149TIP3   OH2  389   1.905   7.409   0.398
  149TIP3    H1  390   1.860   7.420   0.315
  149TIP3    H2  391   1.848   7.352   0.449
  150TIP3   OH2  392   1.216   2.585   4.173
  150TIP3    H1  393   1.158   2.602   4.098
  150TIP3    H2  394   1.184   2.503   4.210
  151TIP3   OH2  395   6.770   2.600   1.202
  151TIP3    H1  396   6.733   2.685   1.178
  151TIP3    H2  397   6.865   2.614   1.202
  152TIP3   OH2  398   0.367   1.914   3.377
  152TIP3    H1  399   0.300   1.977   3.403
  152TIP3    H2  400   0.326   1.862   3.308
  153TIP3   OH2  401   2.539   5.326   4.700
  153TIP3    H1  402   2.497   5.411   4.706
  153TIP3    H2  403   2.508   5.279   4.777
  154TIP3   OH2  404   3.954   7.275   5.451
  154TIP3    H1  405   3.919   7.359   5.423
  154TIP3    H2  406   3.968   7.285   5.545
  155TIP3   OH2  407   2.496   4.801   3.385
  155TIP3    H1  408   2.484   4.865   3.314
  155TIP3    H2  409   2.585   4.767   3.371
  156TIP3   OH2  410   4.542   4.006   0.873
  156TIP3    H1  411   4.632   3.983   0.851
  156TIP3    H2  412   4.492   3.926   0.853
  157TIP3   OH2  413   6.898   5.359   2.703
  157TIP3    H1  414   6.978   5.312   2.676
  157TIP3    H2  415   6.846   5.294   2.749
  158TIP3   OH2  416   7.464   5.325   5.558
  158TIP3    H1  417   7.394   5.382   5.589
  158TIP3    H2  418   7.541   5.382   5.555
  159TIP3   OH2  419   6.612   2.000   0.597
  159TIP3    H1  420   6.636   1.921   0.645
  159TIP3    H2  421   6.562   1.969   0.522
  160TIP3   OH2  422   4.774   5.399   0.441
  160TIP3    H1  423   4.813   5.321   0.480
  160TIP3    H2  424   4.840   5.468   0.455
  161TIP3   OH2  425   4.758   2.423   0.257
  161TIP3    H1  426   4.740   2.517   0.265
  161TIP3    H2  427   4.753   2.390   0.347
  162TIP3   OH2  428   8.168   7.019   0.445
  162TIP3    H1  429   8.203   7.108   0.445
  162TIP3    H2  430   8.188   6.985   0.358
  163TIP3   OH2  431   6.863   6.670   3.239
  163TIP3    H1  432   6.872   6.624   3.156
  163TIP3    H2  433   6.953   6.686   3.267
  164TIP3   OH2  434   1.429   4.538   2.966
  164TIP3    H1  435   1.424   4.623   2.922
  164TIP3    H2  436   1.394   4.554   3.054
  165TIP3   OH2  437   7.446   5.499   1.674
  165TIP3    H1  438   7.454   5.413   1.633
  165TIP3    H2  439   7.456   5.561   1.601
  166TIP3   OH2  440   2.686   0.181   3.777
  166TIP3    H1  441   2.667   0.106   3.834
  166TIP3    H2  442   2.713   0.250   3.838
  167TIP3   OH2  443   4.653   3.273   3.963
  167TIP3    H1  444   4.609   3.276   3.878
  167TIP3    H2  445   4.590   3.314   4.024
  168TIP3   OH2  446   3.536   1.513   2.223
  168TIP3    H1  447   3.615   1.558   2.195
  168TIP3    H2  448   3.554   1.487   2.314
  169TIP3   OH2  449   5.961   6.939   1.129
  169TIP3    H1  450   6.044   6.950   1.175
  169TIP3    H2  451   5.898   6.917   1.198
  170TIP3   OH2  452   3.281   3.457   3.998
  170TIP3    H1  453   3.232   3.536   3.977
  170TIP3    H2  454   3.225   3.385   3.969
  171TIP3   OH2  455   4.133   7.540   5.971
  171TIP3    H1  456   4.165   7.471   6.028
  171TIP3    H2  457   4.062   7.499   5.921
  172TIP3   OH2  458   5.027   1.916   3.865
  172TIP3    H1  459   5.001   1.997   3.821
  172TIP3    H2  460   4.945   1.866   3.874
  173TIP3   OH2  461   0.663   6.053   6.112
  173TIP3    H1  462   0.755   6.073   6.094
  173TIP3    H2  463   0.628   6.025   6.028
  174TIP3   OH2  464   5.873   1.841   5.807
  174TIP3    H1  465   5.914   1.877   5.729
  174TIP3    H2  466   5.842   1.918   5.856
  175TIP3   OH2  467   5.788   7.503   4.527
  175TIP3    H1  468   5.763   7.540   4.611
  175TIP3    H2  469   5.715   7.446   4.504
  176TIP3   OH2  470   1.650   4.588   6.673
  176TIP3    H1  471   1.585   4.589   6.743
  176TIP3    H2  472   1.635   4.505   6.628
  177TIP3   OH2  473   2.840   1.644   4.402
  177TIP3    H1  474   2.871   1.714   4.345
  177TIP3    H2  475   2.745   1.644   4.392
  178TIP3   OH2  476   6.672   2.668   0.766
  178TIP3    H1  477   6.647   2.597   0.825
  178TIP3    H2  478   6.676   2.627   0.680
  179TIP3   OH2  479   5.442   6.626   1.269
  179TIP3    H1  480   5.444   6.653   1.360
  179TIP3    H2  481   5.440   6.530   1.272
  180TIP3   OH2  482   6.098   4.951   6.508
  180TIP3    H1  483   6.076   4.943   6.416
  180TIP3    H2  484   6.034   4.895   6.553
  181TIP3   OH2  485   6.516   0.551   0.632
  181TIP3    H1  486   6.503   0.575   0.540
  181TIP3    H2  487   6.430   0.561   0.672
  182TIP3   OH2  488   4.777   0.904   1.038
  182TIP3    H1  489   4.697   0.865   1.001
  182TIP3    H2  490   4.762   0.998   1.033
  183TIP3   OH2  491   0.036   2.031   0.675
  183TIP3    H1  492   0.097   2.071   0.737
  183TIP3    H2  493  -0.027   2.100   0.655
  184TIP3   OH2  494   3.921   4.976   2.404
  184TIP3    H1  495   3.854   5.032   2.444
  184TIP3    H2  496   3.878   4.892   2.392
  185TIP3   OH2  497   4.588   1.228   3.376
  185TIP3    H1  498   4.620   1.151   3.423
  185TIP3    H2  499   4.591   1.204   3.284
  186TIP3   OH2  500   4.526   5.343   2.009
  186TIP3    H1  501   4.548   5.257   2.044
  186TIP3    H2  502   4.437   5.359   2.038
  187TIP3   OH2  503   3.784   1.612   2.254
  187TIP3    H1  504   3.851   1.546   2.272
  187TIP3    H2  505   3.834   1.688   2.223
  188TIP3   OH2  506   4.454   3.054   5.294
  188TIP3    H1  507   4.435   2.963   5.271
  188TIP3    H2  508   4.433   3.060   5.387
  189TIP3   OH2  509   3.200   4.730   3.950
  189TIP3    H1  510   3.212   4.812   3.902
  189TIP3    H2  511   3.270   4.730   4.015
  190TIP3   OH2  512   4.457   5.902   6.267
  190TIP3    H1  513   4.528   5.842   6.244
  190TIP3    H2  514   4.502   5.981   6.298
  191TIP3   OH2  515   2.974   6.967   0.510
  191TIP3    H1  516   2.989   6.872   0.505
  191TIP3    H2  517   2.909   6.985   0.442
  192TIP3   OH2  518   0.301   4.712   2.726
  192TIP3    H1  519   0.223   4.661   2.747
  192TIP3    H2  520   0.283   4.800   2.759
  193TIP3   OH2  521   5.058   5.217   4.462
  193TIP3    H1  522   5.066   5.236   4.556
  193TIP3    H2  523   5.049   5.122   4.458
  194TIP3   OH2  524   6.234   4.730   2.825
  194TIP3    H1  525   6.294   4.658   2.843
  194TIP3    H2  526   6.189   4.705   2.744
  195TIP3   OH2  527   8.159   3.183   0.259
  195TIP3    H1  528   8.126   3.213   0.175
  195TIP3    H2  529   8.115   3.237   0.324
  196TIP3   OH2  530   5.050   5.057   2.360
  196TIP3    H1  531   4.972   5.038   2.308
  196TIP3    H2  532   5.102   4.976   2.355
  197TIP3   OH2  533   7.300   1.449   2.598
  197TIP3    H1  534   7.358   1.384   2.638
  197TIP3    H2  535   7.214   1.430   2.636
  198TIP3   OH2  536   6.759   0.844   2.969
  198TIP3    H1  537   6.787   0.934   2.988
  198TIP3    H2  538   6.748   0.842   2.874
  199TIP3   OH2  539   8.027   5.319   0.911
  199TIP3    H1  540   8.026   5.224   0.898
  199TIP3    H2  541   8.074   5.354   0.835
  200TIP3   OH2  542   7.516   1.654   0.798
  200TIP3    H1  543   7.489   1.704   0.875
  200TIP3    H2  544   7.442   1.596   0.779
  201TIP3   OH2  545   6.215   6.196   1.349
  201TIP3    H1  546   6.214   6.191   1.253
  201TIP3    H2  547   6.203   6.289   1.368
  202TIP3   OH2  548   5.773   2.195   6.228
  202TIP3    H1  549   5.775   2.244   6.311
  202TIP3    H2  550   5.782   2.104   6.254
  203TIP3   OH2  551   6.453   4.721   3.874
  203TIP3    H1  552   6.367   4.697   3.910
  203TIP3    H2  553   6.474   4.804   3.916
  204TIP3   OH2  554   7.815   6.599   4.904
  204TIP3    H1  555   7.779   6.682   4.873
  204TIP3    H2  556   7.779   6.590   4.993
  205TIP3   OH2  557   2.443   6.199   2.326
  205TIP3    H1  558   2.509   6.235   2.268
  205TIP3    H2  559   2.459   6.241   2.410
  206TIP3   OH2  560   7.903   7.774   6.198
  206TIP3    H1  561   7.924   7.689   6.237
  206TIP3    H2  562   7.982   7.826   6.210
  207TIP3   OH2  563   1.718   7.766   0.110
  207TIP3    H1  564   1.809   7.753   0.136
  207TIP3    H2  565   1.682   7.678   0.102
  208TIP3   OH2  566   6.896   6.825   1.248
  208TIP3    H1  567   6.946   6.749   1.277
  208TIP3    H2  568   6.813   6.819   1.295
  209TIP3   OH2  569   0.998   3.831   4.127
  209TIP3    H1  570   1.042   3.765   4.074
  209TIP3    H2  571   0.909   3.797   4.140
  210TIP3   OH2  572   1.000   1.424   6.169
  210TIP3    H1  573   1.033   1.392   6.253
  210TIP3    H2  574   1.066   1.397   6.105
  211TIP3   OH2  575   5.914   0.215   2.817
  211TIP3    H1  576   5.901   0.243   2.726
  211TIP3    H2  577   5.924   0.296   2.866
  212TIP3   OH2  578   4.891   5.455   3.948
  212TIP3    H1  579   4.940   5.535   3.928
  212TIP3    H2  580   4.822   5.452   3.881
  213TIP3   OH2  581   5.148   0.075   1.998
  213TIP3    H1  582   5.111   0.159   2.025
  213TIP3    H2  583   5.240   0.094   1.978
  214TIP3   OH2  584   3.793   6.328   0.285
  214TIP3    H1  585   3.797   6.413   0.330
  214TIP3    H2  586   3.705   6.294   0.305
  215TIP3   OH2  587   0.273   1.375   0.141
  215TIP3    H1  588   0.308   1.331   0.063
  215TIP3    H2  589   0.313   1.328   0.215
  216TIP3   OH2  590   5.852   2.427   2.462
  216TIP3    H1  591   5.871   2.426   2.556
  216TIP3    H2  592   5.771   2.478   2.455
  217TIP3   OH2  593   0.442   6.978   2.687
  217TIP3    H1  594   0.452   7.066   2.722
  217TIP3    H2  595   0.394   6.990   2.605
  218TIP3   OH2  596   2.183   1.065   0.211
  218TIP3    H1  597   2.218   1.065   0.122
  218TIP3    H2  598   2.104   1.011   0.206
  219TIP3   OH2  599   1.564   7.543   2.193
  219TIP3    H1  600   1.540   7.566   2.282
  219TIP3    H2  601   1.480   7.534   2.147
  220TIP3   OH2  602   7.747   2.883   3.677
  220TIP3    H1  603   7.786   2.802   3.710
  220TIP3    H2  604   7.822   2.941   3.662
  221TIP3   OH2  605   2.117   3.692   3.529
  221TIP3    H1  606   2.068   3.611   3.512
  221TIP3    H2  607   2.209   3.668   3.511
  222TIP3   OH2  608   2.048   2.687   1.207
  222TIP3    H1  609   2.119   2.654   1.152
  222TIP3    H2  610   2.035   2.777   1.178
  223TIP3   OH2  611   5.763   4.149   4.923
  223TIP3    H1  612   5.847   4.162   4.967
  223TIP3    H2  613   5.699   4.188   4.983
  224TIP3   OH2  614   2.818   5.181   1.965
  224TIP3    H1  615   2.878   5.163   1.893
  224TIP3    H2  616   2.754   5.243   1.928
  225TIP3   OH2  617   2.301   4.944   5.350
  225TIP3    H1  618   2.272   5.016   5.406
  225TIP3    H2  619   2.303   4.981   5.262
  226TIP3   OH2  620   7.736   6.646   6.730
  226TIP3    H1  621   7.688   6.563   6.723
  226TIP3    H2  622   7.767   6.664   6.641
  227TIP3   OH2  623   0.821   6.698   6.236
  227TIP3    H1  624   0.913   6.717   6.257
  227TIP3    H2  625   0.771   6.749   6.299
  228TIP3   OH2  626   0.477   3.679   0.542
  228TIP3    H1  627   0.484   3.601   0.487
  228TIP3    H2  628   0.543   3.739   0.509
  229TIP3   OH2  629   4.617   4.674   6.723
  229TIP3    H1  630   4.529   4.674   6.685
  229TIP3    H2  631   4.666   4.739   6.671
  230TIP3   OH2  632   0.833   6.023   2.994
  230TIP3    H1  633   0.746   6.052   2.967
  230TIP3    H2  634   0.859   6.083   3.063
  231TIP3   OH2  635   4.291   4.933   5.549
  231TIP3    H1  636   4.340   5.010   5.521
  231TIP3    H2  637   4.204   4.966   5.571
  232TIP3   OH2  638   3.659   2.269   4.772
  232TIP3    H1  639   3.736   2.325   4.758
  232TIP3    H2  640   3.688   2.182   4.745
  233TIP3   OH2  641   1.823   3.882   2.220
  233TIP3    H1  642   1.867   3.816   2.273
  233TIP3    H2  643   1.777   3.937   2.284
  234TIP3   OH2  644   0.960   5.940   6.584
  234TIP3    H1  645   0.949   6.031   6.557
  234TIP3    H2  646   1.006   5.899   6.511
  235TIP3   OH2  647   1.529   4.454   4.037
  235TIP3    H1  648   1.445   4.499   4.046
  235TIP3    H2  649   1.576   4.503   3.969
  236TIP3   OH2  650   5.493   1.378   5.692
  236TIP3    H1  651   5.431   1.436   5.735
  236TIP3    H2  652   5.497   1.409   5.602
  237TIP3   OH2  653   3.785   6.633   4.410
  237TIP3    H1  654   3.773   6.538   4.416
  237TIP3    H2  655   3.698   6.669   4.426
  238TIP3   OH2  656   7.559   3.306   5.310
  238TIP3    H1  657   7.593   3.350   5.388
  238TIP3    H2  658   7.592   3.217   5.316
  239TIP3   OH2  659   0.225   5.802   1.717
  239TIP3    H1  660   0.203   5.813   1.624
  239TIP3    H2  661   0.142   5.778   1.758
  240TIP3   OH2  662   7.912   0.922   0.395
  240TIP3    H1  663   7.998   0.894   0.426
  240TIP3    H2  664   7.929   0.961   0.309
  241TIP3   OH2  665   7.315   6.481   6.335
  241TIP3    H1  666   7.270   6.558   6.300
  241TIP3    H2  667   7.402   6.512   6.357
  242TIP3   OH2  668   2.895   6.922   2.766
  242TIP3    H1  669   2.898   6.837   2.721
  242TIP3    H2  670   2.886   6.899   2.859
  243TIP3   OH2  671   1.606   2.367   0.563
  243TIP3    H1  672   1.566   2.343   0.479
  243TIP3    H2  673   1.585   2.460   0.574
  244TIP3   OH2  674   0.988   1.767   2.166
  244TIP3    H1  675   0.994   1.795   2.258
  244TIP3    H2  676   0.894   1.766   2.148
  245TIP3   OH2  677   6.310   4.774   1.447
  245TIP3    H1  678   6.301   4.730   1.531
  245TIP3    H2  679   6.320   4.704   1.384
  246TIP3   OH2  680   2.848   0.819   1.193
  246TIP3    H1  681   2.827   0.801   1.285
  246TIP3    H2  682   2.902   0.745   1.166
  247TIP3   OH2  683   7.230   4.446   4.830
  247TIP3    H1  684   7.191   4.359   4.823
  247TIP3    H2  685   7.228   4.465   4.924
  248TIP3   OH2  686   6.530   6.794   0.772
  248TIP3    H1  687   6.472   6.771   0.700
  248TIP3    H2  688   6.584   6.865   0.738
  249TIP3   OH2  689   5.883   1.918   3.022
  249TIP3    H1  690   5.899   1.826   3.003
  249TIP3    H2  691   5.872   1.959   2.936
  250TIP3   OH2  692   5.836   7.628   3.909
  250TIP3    H1  693   5.876   7.601   3.826
  250TIP3    H2  694   5.826   7.723   3.901
  251TIP3   OH2  695   6.978   0.127   4.912
  251TIP3    H1  696   7.043   0.074   4.958
  251TIP3    H2  697   6.896   0.110   4.958
  252TIP3   OH2  698   2.629   2.429   6.685
  252TIP3    H1  699   2.707   2.373   6.693
  252TIP3    H2  700   2.556   2.368   6.688
  253TIP3   OH2  701   6.748   2.650   2.950
  253TIP3    H1  702   6.806   2.726   2.960
  253TIP3    H2  703   6.729   2.646   2.856
  254TIP3   OH2  704   3.346   6.966   3.974
  254TIP3    H1  705   3.315   6.910   3.902
  254TIP3    H2  706   3.272   6.969   4.034
  255TIP3   OH2  707   8.095   2.617   6.596
  255TIP3    H1  708   8.035   2.691   6.585
  255TIP3    H2  709   8.085   2.591   6.687
  256TIP3   OH2  710   7.115   4.207   3.608
  256TIP3    H1  711   7.172   4.179   3.679
  256TIP3    H2  712   7.053   4.135   3.597
  257TIP3   OH2  713   6.141   2.604   6.347
  257TIP3    H1  714   6.201   2.657   6.294
  257TIP3    H2  715   6.185   2.595   6.432
  258TIP3   OH2  716   6.616   7.729   1.827
  258TIP3    H1  717   6.596   7.644   1.865
  258TIP3    H2  718   6.611   7.790   1.900
  259TIP3   OH2  719   5.281   2.022   3.872
  259TIP3    H1  720   5.216   1.951   3.872
  259TIP3    H2  721   5.321   2.017   3.959
  260TIP3   OH2  722   4.510   3.837   3.735
  260TIP3    H1  723   4.575   3.906   3.720
  260TIP3    H2  724   4.469   3.861   3.818
  261TIP3   OH2  725   1.417   1.771   2.517
  261TIP3    H1  726   1.414   1.843   2.580
  261TIP3    H2  727   1.432   1.693   2.570
  262TIP3   OH2  728   7.575   6.529   2.423
  262TIP3    H1  729   7.544   6.459   2.366
  262TIP3    H2  730   7.632   6.582   2.366
  263TIP3   OH2  731   6.697   4.893   4.150
  263TIP3    H1  732   6.613   4.939   4.148
  263TIP3    H2  733   6.717   4.876   4.058
  264TIP3   OH2  734   6.880  -0.012   1.079
  264TIP3    H1  735   6.878   0.070   1.129
  264TIP3    H2  736   6.972  -0.028   1.063
  265TIP3   OH2  737   2.937   6.069   3.983
  265TIP3    H1  738   3.029   6.045   3.968
  265TIP3    H2  739   2.928   6.155   3.943
  266TIP3   OH2  740   0.466   6.876   0.346
  266TIP3    H1  741   0.538   6.814   0.334
  266TIP3    H2  742   0.463   6.892   0.440
  267TIP3   OH2  743   2.297   6.618   2.076
  267TIP3    H1  744   2.243   6.633   2.153
  267TIP3    H2  745   2.289   6.524   2.058
  268TIP3   OH2  746   0.673   4.937   2.913
  268TIP3    H1  747   0.657   4.843   2.919
  268TIP3    H2  748   0.586   4.977   2.922
  269TIP3   OH2  749   0.498   3.331   5.844
  269TIP3    H1  750   0.536   3.259   5.895
  269TIP3    H2  751   0.460   3.389   5.910
  270TIP3   OH2  752   1.210   5.672   4.819
  270TIP3    H1  753   1.290   5.659   4.767
  270TIP3    H2  754   1.220   5.613   4.894
  271TIP3   OH2  755   2.303   2.323   4.274
  271TIP3    H1  756   2.287   2.306   4.181
  271TIP3    H2  757   2.386   2.370   4.276
  272TIP3   OH2  758   7.882   0.030   6.490
  272TIP3    H1  759   7.818   0.091   6.454
  272TIP3    H2  760   7.850  -0.056   6.463
  273TIP3   OH2  761   0.732   0.374   3.358
  273TIP3    H1  762   0.801   0.366   3.423
  273TIP3    H2  763   0.688   0.288   3.358
  274TIP3   OH2  764   2.371   7.772   5.945
  274TIP3    H1  765   2.370   7.681   5.976
  274TIP3    H2  766   2.461   7.800   5.960
  275TIP3   OH2  767   2.560   4.205   5.497
  275TIP3    H1  768   2.577   4.222   5.590
  275TIP3    H2  769   2.538   4.291   5.461
  276TIP3   OH2  770   1.811   5.819   2.357
  276TIP3    H1  771   1.842   5.907   2.333
  276TIP3    H2  772   1.718   5.830   2.375
  277TIP3   OH2  773   4.817   0.599   5.648
  277TIP3    H1  774   4.871   0.631   5.576
  277TIP3    H2  775   4.867   0.527   5.686
  278TIP3   OH2  776   0.730   5.433   1.797
  278TIP3    H1  777   0.677   5.448   1.875
  278TIP3    H2  778   0.669   5.399   1.732
  279TIP3   OH2  779   1.134   3.944   5.882
  279TIP3    H1  780   1.164   3.915   5.969
  279TIP3    H2  781   1.207   3.925   5.824
  280TIP3   OH2  782   8.089   7.465   5.204
  280TIP3    H1  783   8.090   7.535   5.270
  280TIP3    H2  784   8.098   7.511   5.120
  281TIP3   OH2  785   0.133   2.492   3.474
  281TIP3    H1  786   0.224   2.507   3.449
  281TIP3    H2  787   0.083   2.543   3.411
  282TIP3   OH2  788   1.043   0.807   5.918
  282TIP3    H1  789   1.012   0.731   5.869
  282TIP3    H2  790   0.973   0.871   5.911
  283TIP3   OH2  791   5.588   3.931   5.142
  283TIP3    H1  792   5.546   4.013   5.119
  283TIP3    H2  793   5.610   3.940   5.234
  284TIP3   OH2  794   7.949   4.313   4.755
  284TIP3    H1  795   7.951   4.233   4.808
  284TIP3    H2  796   7.986   4.287   4.671
  285TIP3   OH2  797   1.148   7.789   1.326
  285TIP3    H1  798   1.159   7.736   1.405
  285TIP3    H2  799   1.231   7.837   1.318
  286TIP3   OH2  800   1.368   3.250   5.034
  286TIP3    H1  801   1.355   3.174   5.090
  286TIP3    H2  802   1.313   3.233   4.957
  287TIP3   OH2  803   3.182   7.431   5.081
  287TIP3    H1  804   3.108   7.437   5.141
  287TIP3    H2  805   3.189   7.518   5.042
  288TIP3   OH2  806   2.144   3.940   0.279
  288TIP3    H1  807   2.165   3.859   0.232
  288TIP3    H2  808   2.136   3.913   0.370
  289TIP3   OH2  809   1.032   0.451   3.449
  289TIP3    H1  810   1.037   0.386   3.379
  289TIP3    H2  811   1.068   0.531   3.411
  290TIP3   OH2  812   7.926   4.331   5.117
  290TIP3    H1  813   8.004   4.287   5.084
  290TIP3    H2  814   7.959   4.410   5.159
  291TIP3   OH2  815   5.043   6.636   2.681
  291TIP3    H1  816   5.099   6.655   2.756
  291TIP3    H2  817   5.096   6.579   2.625
  292TIP3   OH2  818   1.283   7.826   3.304
  292TIP3    H1  819   1.340   7.778   3.365
  292TIP3    H2  820   1.277   7.769   3.227
  293TIP3   OH2  821   1.167   5.267   2.303
  293TIP3    H1  822   1.230   5.195   2.310
  293TIP3    H2  823   1.152   5.276   2.209
  294TIP3   OH2  824   7.470   5.253   5.878
  294TIP3    H1  825   7.539   5.194   5.850
  294TIP3    H2  826   7.468   5.322   5.812
  295TIP3   OH2  827   2.206   6.062   2.219
  295TIP3    H1  828   2.295   6.097   2.230
  295TIP3    H2  829   2.217   5.984   2.164
  296TIP3   OH2  830   0.333   4.780   4.742
  296TIP3    H1  831   0.310   4.868   4.771
  296TIP3    H2  832   0.383   4.793   4.662
  297TIP3   OH2  833   3.792   0.959   1.515
  297TIP3    H1  834   3.717   0.914   1.476
  297TIP3    H2  835   3.819   0.901   1.587
  298TIP3   OH2  836   4.730   3.265   0.674
  298TIP3    H1  837   4.706   3.354   0.647
  298TIP3    H2  838   4.691   3.254   0.760
  299TIP3   OH2  839   3.634   1.481   4.175
  299TIP3    H1  840   3.630   1.552   4.110
  299TIP3    H2  841   3.565   1.503   4.238
  300TIP3   OH2  842   0.069   2.101   1.832
  300TIP3    H1  843   0.142   2.041   1.852
  300TIP3    H2  844   0.078   2.171   1.896
  301TIP3   OH2  845   1.771   2.307   5.297
  301TIP3    H1  846   1.866   2.306   5.308
  301TIP3    H2  847   1.757   2.303   5.202
  302TIP3   OH2  848   7.738   3.861   3.411
  302TIP3    H1  849   7.804   3.866   3.480
  302TIP3    H2  850   7.773   3.915   3.340
  303TIP3   OH2  851   7.646   4.425   4.836
  303TIP3    H1  852   7.575   4.444   4.773
  303TIP3    H2  853   7.602   4.382   4.909
  304TIP3   OH2  854   3.439   4.049   5.588
  304TIP3    H1  855   3.401   3.961   5.600
  304TIP3    H2  856   3.397   4.082   5.509
  305TIP3   OH2  857   2.071   6.243   0.496
  305TIP3    H1  858   2.058   6.317   0.555
  305TIP3    H2  859   1.982   6.211   0.477
  306TIP3   OH2  860   2.671   4.135   0.688
  306TIP3    H1  861   2.613   4.147   0.763
  306TIP3    H2  862   2.688   4.223   0.656
  307TIP3   OH2  863   3.825   1.658   1.867
  307TIP3    H1  864   3.904   1.694   1.828
  307TIP3    H2  865   3.780   1.734   1.903
  308TIP3   OH2  866   0.492  -0.004   1.120
  308TIP3    H1  867   0.565  -0.017   1.180
  308TIP3    H2  868   0.414  -0.007   1.175
  309TIP3   OH2  869   3.614   6.399   5.832
  309TIP3    H1  870   3.656   6.340   5.894
  309TIP3    H2  871   3.605   6.348   5.752
  310TIP3   OH2  872   5.648   2.526   1.535
  310TIP3    H1  873   5.622   2.450   1.482
  310TIP3    H2  874   5.630   2.500   1.625
  311TIP3   OH2  875   6.254   6.254   0.771
  311TIP3    H1  876   6.173   6.217   0.804
  311TIP3    H2  877   6.323   6.199   0.807
  312TIP3   OH2  878   3.951   7.662   3.689
  312TIP3    H1  879   3.868   7.694   3.654
  312TIP3    H2  880   4.013   7.733   3.673
  313TIP3   OH2  881   6.844   6.613   4.251
  313TIP3    H1  882   6.860   6.527   4.289
  313TIP3    H2  883   6.772   6.600   4.190
  314TIP3   OH2  884   1.067   6.691   3.793
  314TIP3    H1  885   1.080   6.637   3.715
  314TIP3    H2  886   1.117   6.771   3.775
  315TIP3   OH2  887   2.090   1.389   3.443
  315TIP3    H1  888   2.057   1.478   3.430
  315TIP3    H2  889   2.144   1.395   3.521
  316TIP3   OH2  890   3.087   0.401   0.966
  316TIP3    H1  891   3.151   0.433   0.903
  316TIP3    H2  892   3.011   0.459   0.955
  317TIP3   OH2  893   2.645   6.636   2.400
  317TIP3    H1  894   2.588   6.566   2.432
  317TIP3    H2  895   2.610   6.658   2.314
  318TIP3   OH2  896   8.257   2.959   2.033
  318TIP3    H1  897   8.318   2.941   1.962
  318TIP3    H2  898   8.218   3.043   2.010
  319TIP3   OH2  899   7.137   1.923   4.126
  319TIP3    H1  900   7.151   1.857   4.059
  319TIP3    H2  901   7.053   1.963   4.104
  320TIP3   OH2  902   5.275   7.543   5.773
  320TIP3    H1  903   5.207   7.552   5.705
  320TIP3    H2  904   5.266   7.622   5.825
  321TIP3   OH2  905   5.716   4.332   0.132
  321TIP3    H1  906   5.774   4.270   0.176
  321TIP3    H2  907   5.725   4.312   0.039
  322TIP3   OH2  908   4.477   0.810   4.654
  322TIP3    H1  909   4.477   0.789   4.561
  322TIP3    H2  910   4.483   0.906   4.657
  323TIP3   OH2  911   8.176   4.135   4.142
  323TIP3    H1  912   8.232   4.179   4.078
  323TIP3    H2  913   8.087   4.157   4.115
  324TIP3   OH2  914   6.897   5.110   3.835
  324TIP3    H1  915   6.858   5.198   3.836
  324TIP3    H2  916   6.921   5.093   3.926
  325TIP3   OH2  917   4.325   5.486   3.361
  325TIP3    H1  918   4.375   5.558   3.398
  325TIP3    H2  919   4.360   5.474   3.273
  326TIP3   OH2  920   7.856   2.809   2.545
  326TIP3    H1  921   7.842   2.899   2.514
  326TIP3    H2  922   7.788   2.758   2.501
  327TIP3   OH2  923   2.435   4.201   4.291
  327TIP3    H1  924   2.528   4.225   4.300
  327TIP3    H2  925   2.395   4.236   4.370
  328TIP3   OH2  926   2.922   1.814   3.667
  328TIP3    H1  927   2.993   1.832   3.729
  328TIP3    H2  928   2.879   1.736   3.702
  329TIP3   OH2  929   1.310   4.838   0.895
  329TIP3    H1  930   1.282   4.875   0.812
  329TIP3    H2  931   1.229   4.825   0.945
  330TIP3   OH2  932   2.435   1.753   4.201
  330TIP3    H1  933   2.486   1.745   4.282
  330TIP3    H2  934   2.393   1.667   4.191
  331TIP3   OH2  935   4.736   2.642   1.061
  331TIP3    H1  936   4.769   2.598   0.983
  331TIP3    H2  937   4.752   2.735   1.046
  332TIP3   OH2  938   0.465   4.411   1.092
  332TIP3    H1  939   0.435   4.481   1.034
  332TIP3    H2  940   0.559   4.426   1.100
  333TIP3   OH2  941   6.905   7.221   3.135
  333TIP3    H1  942   6.930   7.215   3.042
  333TIP3    H2  943   6.911   7.314   3.156
  334TIP3   OH2  944   2.952   2.211   4.141
  334TIP3    H1  945   2.872   2.178   4.099
  334TIP3    H2  946   3.021   2.152   4.112
  335TIP3   OH2  947   1.722   6.955   5.951
  335TIP3    H1  948   1.636   6.971   5.912
  335TIP3    H2  949   1.721   6.862   5.974
  336TIP3   OH2  950   7.621   7.800   6.149
  336TIP3    H1  951   7.717   7.799   6.145
  336TIP3    H2  952   7.594   7.750   6.072
  337TIP3   OH2  953   1.812   4.001   2.936
  337TIP3    H1  954   1.821   3.908   2.954
  337TIP3    H2  955   1.752   4.033   3.003
  338TIP3   OH2  956   6.058   2.676   2.317
  338TIP3    H1  957   6.060   2.763   2.358
  338TIP3    H2  958   5.976   2.637   2.347
  339TIP3   OH2  959   5.956   5.647   2.711
  339TIP3    H1  960   6.010   5.569   2.710
  339TIP3    H2  961   5.867   5.615   2.719
  340TIP3   OH2  962   0.052   1.691   2.520
  340TIP3    H1  963   0.088   1.772   2.485
  340TIP3    H2  964   0.127   1.632   2.528
  341TIP3   OH2  965   2.877   5.200   3.189
  341TIP3    H1  966   2.878   5.115   3.233
  341TIP3    H2  967   2.968   5.215   3.164
  342TIP3   OH2  968   7.107   7.009   2.112
  342TIP3    H1  969   7.168   6.976   2.177
  342TIP3    H2  970   7.020   6.998   2.152
  343TIP3   OH2  971   2.821   3.079   3.267
  343TIP3    H1  972   2.856   3.110   3.183
  343TIP3    H2  973   2.802   2.987   3.252
  344TIP3   OH2  974   6.515   6.402   0.053
  344TIP3    H1  975   6.447   6.391   0.119
  344TIP3    H2  976   6.481   6.358  -0.024
  345TIP3   OH2  977   5.923   4.404   5.411
  345TIP3    H1  978   5.992   4.348   5.375
  345TIP3    H2  979   5.855   4.343   5.441
  346TIP3   OH2  980   6.201   1.256   6.211
  346TIP3    H1  981   6.121   1.207   6.233
  346TIP3    H2  982   6.196   1.335   6.266
  347TIP3   OH2  983   7.188   3.731   1.113
  347TIP3    H1  984   7.272   3.726   1.069
  347TIP3    H2  985   7.206   3.703   1.203
  348TIP3   OH2  986   1.252   5.078   6.705
  348TIP3    H1  987   1.160   5.078   6.678
  348TIP3    H2  988   1.300   5.107   6.628
  349TIP3   OH2  989   1.330   4.373   2.512
  349TIP3    H1  990   1.287   4.300   2.468
  349TIP3    H2  991   1.296   4.371   2.601
  350TIP3   OH2  992   7.971   4.389   2.360
  350TIP3    H1  993   7.900   4.400   2.297
  350TIP3    H2  994   8.038   4.451   2.332
  351TIP3   OH2  995   2.245   0.181   0.171
  351TIP3    H1  996   2.239   0.266   0.129
  351TIP3    H2  997   2.154   0.153   0.183
  352TIP3   OH2  998   7.878   7.141   1.253
  352TIP3    H1  999   7.814   7.143   1.181
  352TIP3    H2 1000   7.943   7.207   1.228
  353TIP3   OH2 1001   7.541   4.078   0.708
  353TIP3    H1 1002   7.621   4.035   0.738
  353TIP3    H2 1003   7.472   4.012   0.721
  354TIP3   OH2 1004   3.639   0.472   2.345
  354TIP3    H1 1005   3.621   0.498   2.255
  354TIP3    H2 1006   3.582   0.529   2.398
  355TIP3   OH2 1007   2.755   0.778   0.920
  355TIP3    H1 1008   2.768   0.796   1.013
  355TIP3    H2 1009   2.685   0.837   0.894
  356TIP3   OH2 1010   7.356   2.342   3.786
  356TIP3    H1 1011   7.296   2.288   3.838
  356TIP3    H2 1012   7.321   2.338   3.697
  357TIP3   OH2 1013   4.444   1.080   4.621
  357TIP3    H1 1014   4.403   1.118   4.544
  357TIP3    H2 1015   4.430   1.145   4.690
  358TIP3   OH2 1016   5.505   0.532   6.114
  358TIP3    H1 1017   5.523   0.457   6.058
  358TIP3    H2 1018   5.434   0.579   6.069
  359TIP3   OH2 1019   1.285   4.280   0.634
  359TIP3    H1 1020   1.270   4.292   0.541
  359TIP3    H2 1021   1.369   4.323   0.650
  360TIP3   OH2 1022   6.969   1.877   3.609
  360TIP3    H1 1023   6.875   1.865   3.617
  360TIP3    H2 1024   7.001   1.795   3.570
  361TIP3   OH2 1025   2.438   7.117   1.300
  361TIP3    H1 1026   2.425   7.209   1.322
  361TIP3    H2 1027   2.468   7.118   1.209
  362TIP3   OH2 1028   1.759   0.549   1.678
  362TIP3    H1 1029   1.690   0.614   1.692
  362TIP3    H2 1030   1.727   0.495   1.606
  363TIP3   OH2 1031   0.296   6.411   2.608
  363TIP3    H1 1032   0.356   6.476   2.644
  363TIP3    H2 1033   0.218   6.462   2.585
  364TIP3   OH2 1034   6.694   2.706   4.722
  364TIP3    H1 1035   6.730   2.794   4.711
  364TIP3    H2 1036   6.762   2.647   4.689
  365TIP3   OH2 1037   0.690   3.437   1.685
  365TIP3    H1 1038   0.653   3.405   1.768
  365TIP3    H2 1039   0.616   3.480   1.641
  366TIP3   OH2 1040   2.133   5.668   3.566
  366TIP3    H1 1041   2.188   5.744   3.550
  366TIP3    H2 1042   2.191   5.605   3.608
  367TIP3   OH2 1043   7.831   7.579   2.897
  367TIP3    H1 1044   7.754   7.632   2.877
  367TIP3    H2 1045   7.841   7.522   2.820
  368TIP3   OH2 1046   6.266   3.050   2.344
  368TIP3    H1 1047   6.321   2.975   2.322
  368TIP3    H2 1048   6.179   3.012   2.359
  369TIP3   OH2 1049   7.847   2.930   5.128
  369TIP3    H1 1050   7.889   2.850   5.096
  369TIP3    H2 1051   7.785   2.954   5.059
  370TIP3   OH2 1052   5.978   7.690   2.523
  370TIP3    H1 1053   6.020   7.710   2.439
  370TIP3    H2 1054   5.893   7.653   2.500
  371TIP3   OH2 1055   3.927   7.248   1.180
  371TIP3    H1 1056   3.919   7.156   1.207
  371TIP3    H2 1057   3.953   7.244   1.088
  372TIP3   OH2 1058   0.399   1.214   3.018
  372TIP3    H1 1059   0.373   1.203   2.926
  372TIP3    H2 1060   0.380   1.306   3.037
  373TIP3   OH2 1061   5.220   3.047   2.758
  373TIP3    H1 1062   5.238   3.064   2.850
  373TIP3    H2 1063   5.126   3.026   2.756
  374TIP3   OH2 1064   4.073   4.736   4.920
  374TIP3    H1 1065   4.113   4.822   4.908
  374TIP3    H2 1066   4.135   4.689   4.976
  375TIP3   OH2 1067   6.742   3.367   5.415
  375TIP3    H1 1068   6.671   3.429   5.431
  375TIP3    H2 1069   6.810   3.393   5.477
  376TIP3   OH2 1070   5.536   2.353   0.106
  376TIP3    H1 1071   5.493   2.346   0.021
  376TIP3    H2 1072   5.472   2.398   0.162
  377TIP3   OH2 1073   7.773   1.422   2.636
  377TIP3    H1 1074   7.730   1.339   2.617
  377TIP3    H2 1075   7.790   1.461   2.551
  378TIP3   OH2 1076   3.623   6.234   0.980
  378TIP3    H1 1077   3.673   6.157   0.952
  378TIP3    H2 1078   3.554   6.244   0.914
  379TIP3   OH2 1079   1.366   5.670   6.601
  379TIP3    H1 1080   1.387   5.701   6.513
  379TIP3    H2 1081   1.400   5.739   6.659
  380TIP3   OH2 1082   1.173   6.340   3.347
  380TIP3    H1 1083   1.244   6.290   3.307
  380TIP3    H2 1084   1.139   6.395   3.277
  381TIP3   OH2 1085   7.182   0.836   1.858
  381TIP3    H1 1086   7.176   0.744   1.882
  381TIP3    H2 1087   7.268   0.863   1.889
  382TIP3   OH2 1088   4.003   5.274   0.717
  382TIP3    H1 1089   4.006   5.213   0.791
  382TIP3    H2 1090   4.094   5.298   0.702
  383TIP3   OH2 1091   0.686   0.060   3.648
  383TIP3    H1 1092   0.614   0.093   3.701
  383TIP3    H2 1093   0.763   0.067   3.705
  384TIP3   OH2 1094   8.174   5.248   3.413
  384TIP3    H1 1095   8.254   5.296   3.396
  384TIP3    H2 1096   8.103   5.307   3.388
  385TIP3   OH2 1097   1.849   4.604   1.948
  385TIP3    H1 1098   1.833   4.516   1.915
  385TIP3    H2 1099   1.864   4.657   1.869
  386TIP3   OH2 1100   0.137   0.766   5.096
  386TIP3    H1 1101   0.160   0.851   5.059
  386TIP3    H2 1102   0.121   0.783   5.189
  387TIP3   OH2 1103   6.431   6.602   5.919
  387TIP3    H1 1104   6.359   6.540   5.928
  387TIP3    H2 1105   6.390   6.688   5.931
  388TIP3   OH2 1106   1.550   7.368   3.054
  388TIP3    H1 1107   1.539   7.393   2.962
  388TIP3    H2 1108   1.644   7.381   3.071
  389TIP3   OH2 1109   1.495   2.109   5.745
  389TIP3    H1 1110   1.514   2.028   5.698
  389TIP3    H2 1111   1.531   2.096   5.832
  390TIP3   OH2 1112   7.762   7.304   3.233
  390TIP3    H1 1113   7.711   7.265   3.305
  390TIP3    H2 1114   7.776   7.395   3.259
  391TIP3   OH2 1115   4.809   6.198   0.812
  391TIP3    H1 1116   4.822   6.287   0.847
  391TIP3    H2 1117   4.745   6.210   0.742
  392TIP3   OH2 1118   0.983   5.682   0.551
  392TIP3    H1 1119   1.041   5.607   0.564
  392TIP3    H2 1120   1.021   5.751   0.605
  393TIP3   OH2 1121   7.350   7.569   3.292
  393TIP3    H1 1122   7.328   7.498   3.353
  393TIP3    H2 1123   7.267   7.612   3.273
  394TIP3   OH2 1124   7.402   7.807   6.761
  394TIP3    H1 1125   7.317   7.832   6.799
  394TIP3    H2 1126   7.380   7.738   6.698
  395TIP3   OH2 1127   4.577   5.473   4.385
  395TIP3    H1 1128   4.629   5.504   4.459
  395TIP3    H2 1129   4.639   5.422   4.333
  396TIP3   OH2 1130   6.661   4.849   6.712
  396TIP3    H1 1131   6.665   4.792   6.635
  396TIP3    H2 1132   6.638   4.790   6.784
  397TIP3   OH2 1133   8.177   6.734   3.036
  397TIP3    H1 1134   8.258   6.776   3.006
  397TIP3    H2 1135   8.195   6.712   3.128
  398TIP3   OH2 1136   5.043   6.539   5.106
  398TIP3    H1 1137   5.015   6.518   5.195
  398TIP3    H2 1138   5.063   6.455   5.066
  399TIP3   OH2 1139   0.712   1.467   2.150
  399TIP3    H1 1140   0.716   1.389   2.093
  399TIP3    H2 1141   0.627   1.507   2.129
  400TIP3   OH2 1142   7.474   6.923   0.438
  400TIP3    H1 1143   7.471   6.851   0.375
  400TIP3    H2 1144   7.470   7.002   0.385
  401TIP3   OH2 1145   0.898   2.140   3.958
  401TIP3    H1 1146   0.946   2.223   3.953
  401TIP3    H2 1147   0.833   2.146   3.888
  402TIP3   OH2 1148   4.570   5.917   1.616
  402TIP3    H1 1149   4.568   5.915   1.520
  402TIP3    H2 1150   4.661   5.900   1.638
  403TIP3   OH2 1151   7.748   5.228   2.434
  403TIP3    H1 1152   7.840   5.239   2.458
  403TIP3    H2 1153   7.711   5.316   2.439
  404TIP3   OH2 1154   1.800   5.812   3.334
  404TIP3    H1 1155   1.869   5.774   3.279
  404TIP3    H2 1156   1.732   5.745   3.337
  405TIP3   OH2 1157   2.034   2.347   5.448
  405TIP3    H1 1158   1.965   2.376   5.507
  405TIP3    H2 1159   2.108   2.329   5.506
  406TIP3   OH2 1160   7.333   0.936   0.906
  406TIP3    H1 1161   7.260   0.961   0.849
  406TIP3    H2 1162   7.347   1.013   0.962
  407TIP3   OH2 1163   1.545   7.458   2.786
  407TIP3    H1 1164   1.509   7.435   2.700
  407TIP3    H2 1165   1.637   7.433   2.782
  408TIP3   OH2 1166   1.993   6.522   2.184
  408TIP3    H1 1167   2.059   6.493   2.247
  408TIP3    H2 1168   2.025   6.489   2.100
  409TIP3   OH2 1169   2.093   0.851   5.604
  409TIP3    H1 1170   2.011   0.872   5.560
  409TIP3    H2 1171   2.093   0.756   5.612
  410TIP3   OH2 1172   6.151   3.588   5.257
  410TIP3    H1 1173   6.102   3.562   5.179
  410TIP3    H2 1174   6.124   3.678   5.274
  411TIP3   OH2 1175   4.754   0.918   3.894
  411TIP3    H1 1176   4.799   0.946   3.973
  411TIP3    H2 1177   4.786   0.977   3.826
  412TIP3   OH2 1178   1.384   2.378   6.613
  412TIP3    H1 1179   1.467   2.333   6.598
  412TIP3    H2 1180   1.409   2.469   6.630
  413TIP3   OH2 1181   0.919   2.570   2.945
  413TIP3    H1 1182   1.010   2.540   2.954
  413TIP3    H2 1183   0.895   2.600   3.032
  414TIP3   OH2 1184   5.771   1.503   6.396
  414TIP3    H1 1185   5.730   1.543   6.319
  414TIP3    H2 1186   5.759   1.409   6.383
  415TIP3   OH2 1187   3.770   6.318   2.740
  415TIP3    H1 1188   3.800   6.384   2.678
  415TIP3    H2 1189   3.799   6.350   2.825
  416TIP3   OH2 1190   2.371   3.570   0.635
  416TIP3    H1 1191   2.327   3.525   0.562
  416TIP3    H2 1192   2.462   3.540   0.629
  417TIP3   OH2 1193   4.259   4.848   1.067
  417TIP3    H1 1194   4.287   4.938   1.051
  417TIP3    H2 1195   4.211   4.851   1.150
  418TIP3   OH2 1196   3.312   2.941   6.149
  418TIP3    H1 1197   3.268   2.879   6.090
  418TIP3    H2 1198   3.368   2.993   6.091
  419TIP3   OH2 1199   0.272   6.524   6.038
  419TIP3    H1 1200   0.199   6.464   6.025
  419TIP3    H2 1201   0.350   6.468   6.039
  420TIP3   OH2 1202   5.322   1.596   2.817
  420TIP3    H1 1203   5.254   1.547   2.770
  420TIP3    H2 1204   5.330   1.550   2.900
  421TIP3   OH2 1205   4.278   1.838   1.243
  421TIP3    H1 1206   4.222   1.794   1.307
  421TIP3    H2 1207   4.233   1.826   1.160
  422TIP3   OH2 1208   3.180   2.433   2.899
  422TIP3    H1 1209   3.140   2.358   2.943
  422TIP3    H2 1210   3.178   2.503   2.965
  423TIP3   OH2 1211   4.463   6.789   6.616
  423TIP3    H1 1212   4.448   6.878   6.648
  423TIP3    H2 1213   4.383   6.766   6.569
  424TIP3   OH2 1214   8.041   3.400   5.331
  424TIP3    H1 1215   8.086   3.448   5.261
  424TIP3    H2 1216   8.006   3.469   5.388
  425TIP3   OH2 1217   3.227   7.277   4.337
  425TIP3    H1 1218   3.314   7.313   4.354
  425TIP3    H2 1219   3.213   7.293   4.243
  426TIP3   OH2 1220   8.000   4.859   0.360
  426TIP3    H1 1221   7.960   4.925   0.303
  426TIP3    H2 1222   8.094   4.874   0.349
  427TIP3   OH2 1223   1.896   3.913   4.810
  427TIP3    H1 1224   1.806   3.942   4.793
  427TIP3    H2 1225   1.891   3.863   4.892
  428TIP3   OH2 1226   2.538   2.462   4.026
  428TIP3    H1 1227   2.442   2.466   4.035
  428TIP3    H2 1228   2.562   2.380   4.067
  429TIP3   OH2 1229   5.195   7.577   2.568
  429TIP3    H1 1230   5.248   7.651   2.540
  429TIP3    H2 1231   5.173   7.530   2.487
  430TIP3   OH2 1232   2.896   2.888   4.098
  430TIP3    H1 1233   2.844   2.943   4.157
  430TIP3    H2 1234   2.958   2.843   4.156
  431TIP3   OH2 1235   2.333   7.632   0.891
  431TIP3    H1 1236   2.409   7.586   0.858
  431TIP3    H2 1237   2.262   7.609   0.830
  432TIP3   OH2 1238   0.397   6.278   4.414
  432TIP3    H1 1239   0.401   6.372   4.428
  432TIP3    H2 1240   0.476   6.243   4.455
  433TIP3   OH2 1241   2.617   2.196   4.093
  433TIP3    H1 1242   2.577   2.132   4.152
  433TIP3    H2 1243   2.689   2.148   4.052
  434TIP3   OH2 1244   4.882   3.102   2.467
  434TIP3    H1 1245   4.897   3.155   2.389
  434TIP3    H2 1246   4.818   3.036   2.440
  435TIP3   OH2 1247   5.788   5.569   4.900
  435TIP3    H1 1248   5.693   5.584   4.904
  435TIP3    H2 1249   5.797   5.477   4.874
  436TIP3   OH2 1250   6.521   5.494   4.466
  436TIP3    H1 1251   6.505   5.445   4.385
  436TIP3    H2 1252   6.506   5.430   4.535
  437TIP3   OH2 1253   1.959   5.669   1.986
  437TIP3    H1 1254   1.963   5.586   1.937
  437TIP3    H2 1255   2.031   5.664   2.048
  438TIP3   OH2 1256   1.180   3.285   6.310
  438TIP3    H1 1257   1.190   3.305   6.217
  438TIP3    H2 1258   1.206   3.365   6.355
  439TIP3   OH2 1259   1.298   7.529   6.254
  439TIP3    H1 1260   1.330   7.585   6.183
  439TIP3    H2 1261   1.230   7.581   6.297
  440TIP3   OH2 1262   4.303   1.579   0.322
  440TIP3    H1 1263   4.260   1.509   0.371
  440TIP3    H2 1264   4.393   1.579   0.355
  441TIP3   OH2 1265   2.543   0.855   0.243
  441TIP3    H1 1266   2.611   0.859   0.176
  441TIP3    H2 1267   2.576   0.908   0.315
  442TIP3   OH2 1268   2.150   6.130   1.853
  442TIP3    H1 1269   2.086   6.074   1.809
  442TIP3    H2 1270   2.109   6.216   1.856
  443TIP3   OH2 1271   0.771   0.989   2.597
  443TIP3    H1 1272   0.795   0.911   2.648
  443TIP3    H2 1273   0.802   1.063   2.651
  444TIP3   OH2 1274   2.574   4.431   2.380
  444TIP3    H1 1275   2.634   4.401   2.312
  444TIP3    H2 1276   2.590   4.371   2.453
  445TIP3   OH2 1277   6.852   5.473   3.553
  445TIP3    H1 1278   6.847   5.417   3.630
  445TIP3    H2 1279   6.810   5.554   3.580
  446TIP3   OH2 1280   1.855   1.069   5.632
  446TIP3    H1 1281   1.814   1.130   5.570
  446TIP3    H2 1282   1.834   0.982   5.599
  447TIP3   OH2 1283   7.453   7.129   5.317
  447TIP3    H1 1284   7.508   7.087   5.383
  447TIP3    H2 1285   7.445   7.064   5.247
  448TIP3   OH2 1286   2.608   3.897   5.456
  448TIP3    H1 1287   2.549   3.892   5.531
  448TIP3    H2 1288   2.645   3.985   5.461
  449TIP3   OH2 1289   0.180   0.071   3.971
  449TIP3    H1 1290   0.168   0.159   3.933
  449TIP3    H2 1291   0.100   0.024   3.948
  450TIP3   OH2 1292   6.757   4.040   3.834
  450TIP3    H1 1293   6.755   4.112   3.897
  450TIP3    H2 1294   6.719   3.966   3.881
  451TIP3   OH2 1295   6.992   3.069   2.319
  451TIP3    H1 1296   7.056   2.999   2.310
  451TIP3    H2 1297   7.019   3.134   2.253
  452TIP3   OH2 1298   2.601   4.572   1.735
  452TIP3    H1 1299   2.570   4.626   1.662
  452TIP3    H2 1300   2.521   4.551   1.784
  453TIP3   OH2 1301   7.230   7.175   6.363
  453TIP3    H1 1302   7.312   7.225   6.360
  453TIP3    H2 1303   7.169   7.234   6.408
  454TIP3   OH2 1304   0.034   7.103   3.709
  454TIP3    H1 1305   0.034   7.187   3.663
  454TIP3    H2 1306   0.051   7.125   3.800
  455TIP3   OH2 1307   0.597   3.483   2.682
  455TIP3    H1 1308   0.605   3.394   2.715
  455TIP3    H2 1309   0.624   3.539   2.755
  456TIP3   OH2 1310   5.162   3.911   4.460
  456TIP3    H1 1311   5.224   3.845   4.490
  456TIP3    H2 1312   5.097   3.861   4.410
  457TIP3   OH2 1313   7.006   5.997   6.785
  457TIP3    H1 1314   7.102   5.994   6.786
  457TIP3    H2 1315   6.980   5.928   6.725
  458TIP3   OH2 1316   2.597   7.067   6.548
  458TIP3    H1 1317   2.597   7.004   6.477
  458TIP3    H2 1318   2.626   7.149   6.507
  459TIP3   OH2 1319   1.427   6.878   0.524
  459TIP3    H1 1320   1.515   6.916   0.522
  459TIP3    H2 1321   1.369   6.952   0.541
  460TIP3   OH2 1322   6.713   5.483   6.145
  460TIP3    H1 1323   6.632   5.435   6.160
  460TIP3    H2 1324   6.744   5.505   6.233
  461TIP3   OH2 1325   0.603   1.109   5.990
  461TIP3    H1 1326   0.528   1.074   5.943
  461TIP3    H2 1327   0.598   1.204   5.976
  462TIP3   OH2 1328   0.602   0.602   4.959
  462TIP3    H1 1329   0.542   0.580   5.030
  462TIP3    H2 1330   0.641   0.685   4.985
  463TIP3   OH2 1331   5.389   3.216   4.472
  463TIP3    H1 1332   5.337   3.270   4.532
  463TIP3    H2 1333   5.333   3.139   4.456
  464TIP3   OH2 1334   3.739   5.304   1.887
  464TIP3    H1 1335   3.773   5.366   1.823
  464TIP3    H2 1336   3.789   5.224   1.871
  465TIP3   OH2 1337   2.116   0.088   1.456
  465TIP3    H1 1338   2.136   0.096   1.362
  465TIP3    H2 1339   2.195   0.050   1.494
  466TIP3   OH2 1340   0.338   3.754   5.696
  466TIP3    H1 1341   0.319   3.781   5.785
  466TIP3    H2 1342   0.275   3.684   5.678
  467TIP3   OH2 1343   0.535   0.023   0.001
  467TIP3    H1 1344   0.508   0.041  -0.089
  467TIP3    H2 1345   0.496   0.093   0.053
  468TIP3   OH2 1346   5.523   7.437   3.495
  468TIP3    H1 1347   5.478   7.368   3.447
  468TIP3    H2 1348   5.459   7.507   3.503
  469TIP3   OH2 1349   3.422   4.290   4.993
  469TIP3    H1 1350   3.344   4.310   4.940
  469TIP3    H2 1351   3.423   4.357   5.061
  470TIP3   OH2 1352   2.860   1.308   3.791
  470TIP3    H1 1353   2.928   1.288   3.855
  470TIP3    H2 1354   2.879   1.250   3.716
  471TIP3   OH2 1355   4.357   7.759   0.970
  471TIP3    H1 1356   4.428   7.763   1.035
  471TIP3    H2 1357   4.399   7.725   0.891
  472TIP3   OH2 1358   3.608   4.456   1.617
  472TIP3    H1 1359   3.673   4.409   1.563
  472TIP3    H2 1360   3.660   4.518   1.668
  473TIP3   OH2 1361   4.284   0.892   4.880
  473TIP3    H1 1362   4.318   0.861   4.796
  473TIP3    H2 1363   4.230   0.967   4.858
  474TIP3   OH2 1364   7.694   4.692   0.843
  474TIP3    H1 1365   7.720   4.768   0.791
  474TIP3    H2 1366   7.758   4.624   0.820
  475TIP3   OH2 1367   7.623   0.447   2.734
  475TIP3    H1 1368   7.604   0.481   2.646
  475TIP3    H2 1369   7.550   0.388   2.752
  476TIP3   OH2 1370   3.130   2.417   2.433
  476TIP3    H1 1371   3.215   2.438   2.394
  476TIP3    H2 1372   3.076   2.494   2.416
  477TIP3   OH2 1373   3.479   5.165   5.235
  477TIP3    H1 1374   3.519   5.077   5.236
  477TIP3    H2 1375   3.551   5.223   5.207
  478TIP3   OH2 1376   1.223   6.009   4.292
  478TIP3    H1 1377   1.289   6.057   4.243
  478TIP3    H2 1378   1.223   5.921   4.254
  479TIP3   OH2 1379   5.227   0.812   0.797
  479TIP3    H1 1380   5.264   0.886   0.844
  479TIP3    H2 1381   5.301   0.773   0.751
  480TIP3   OH2 1382   7.080   1.399   3.777
  480TIP3    H1 1383   7.135   1.358   3.844
  480TIP3    H2 1384   7.117   1.369   3.694
  481TIP3   OH2 1385   4.795   3.420   4.992
  481TIP3    H1 1386   4.854   3.345   4.987
  481TIP3    H2 1387   4.851   3.493   5.019
  482TIP3   OH2 1388   3.966   5.335   1.293
  482TIP3    H1 1389   3.978   5.248   1.255
  482TIP3    H2 1390   4.055   5.365   1.311
  483TIP3   OH2 1391   2.718   4.220   4.407
  483TIP3    H1 1392   2.685   4.130   4.412
  483TIP3    H2 1393   2.789   4.215   4.343
  484TIP3   OH2 1394   7.998   5.901   0.407
  484TIP3    H1 1395   7.983   5.984   0.452
  484TIP3    H2 1396   7.924   5.846   0.433
  485TIP3   OH2 1397   1.699   5.868   1.228
  485TIP3    H1 1398   1.770   5.808   1.203
  485TIP3    H2 1399   1.660   5.827   1.305
  486TIP3   OH2 1400   3.920   4.352   4.257
  486TIP3    H1 1401   3.911   4.256   4.264
  486TIP3    H2 1402   3.848   4.378   4.200
  487TIP3   OH2 1403   1.388   3.827   3.429
  487TIP3    H1 1404   1.446   3.821   3.353
  487TIP3    H2 1405   1.397   3.916   3.461
  488TIP3   OH2 1406   6.679   6.784   1.422
  488TIP3    H1 1407   6.628   6.815   1.497
  488TIP3    H2 1408   6.678   6.688   1.431
  489TIP3   OH2 1409   0.619   5.981   3.327
  489TIP3    H1 1410   0.616   5.946   3.416
  489TIP3    H2 1411   0.709   5.967   3.298
  490TIP3   OH2 1412   4.845   6.357   2.427
  490TIP3    H1 1413   4.864   6.311   2.345
  490TIP3    H2 1414   4.782   6.424   2.402
  491TIP3   OH2 1415   6.778   3.669   0.990
  491TIP3    H1 1416   6.762   3.715   1.072
  491TIP3    H2 1417   6.872   3.682   0.973
  492TIP3   OH2 1418   7.263   5.532   5.045
  492TIP3    H1 1419   7.195   5.532   4.977
  492TIP3    H2 1420   7.345   5.525   4.998
  493TIP3   OH2 1421   1.981   4.043   6.741
  493TIP3    H1 1422   1.907   4.080   6.791
  493TIP3    H2 1423   1.942   3.971   6.692
  494TIP3   OH2 1424   7.468   5.998   5.947
  494TIP3    H1 1425   7.529   5.936   5.988
  494TIP3    H2 1426   7.524   6.057   5.897
  495TIP3   OH2 1427   2.092   6.017   0.748
  495TIP3    H1 1428   2.116   5.925   0.757
  495TIP3    H2 1429   2.153   6.063   0.805
  496TIP3   OH2 1430   1.184   3.869   4.727
  496TIP3    H1 1431   1.150   3.783   4.750
  496TIP3    H2 1432   1.116   3.930   4.755
  497TIP3   OH2 1433   5.303   0.364   6.316
  497TIP3    H1 1434   5.307   0.274   6.284
  497TIP3    H2 1435   5.299   0.417   6.236
  498TIP3   OH2 1436   6.554   4.284   1.491
  498TIP3    H1 1437   6.528   4.217   1.554
  498TIP3    H2 1438   6.640   4.312   1.521
  499TIP3   OH2 1439   2.259   4.732   2.220
  499TIP3    H1 1440   2.173   4.737   2.179
  499TIP3    H2 1441   2.320   4.720   2.147
  500TIP3   OH2 1442   4.229   7.653   1.601
  500TIP3    H1 1443   4.179   7.730   1.572
  500TIP3    H2 1444   4.319   7.684   1.607
  501TIP3   OH2 1445   7.271   1.939   1.206
  501TIP3    H1 1446   7.243   2.021   1.164
  501TIP3    H2 1447   7.193   1.883   1.203
  502TIP3   OH2 1448   7.036   7.815   1.040
  502TIP3    H1 1449   6.959   7.758   1.038
  502TIP3    H2 1450   7.008   7.894   0.995
  503TIP3   OH2 1451   1.840   1.776   5.305
  503TIP3    H1 1452   1.844   1.867   5.274
  503TIP3    H2 1453   1.872   1.779   5.395
  504TIP3   OH2 1454   6.732   0.451   6.069
  504TIP3    H1 1455   6.784   0.495   6.135
  504TIP3    H2 1456   6.645   0.489   6.078
  505TIP3   OH2 1457   0.038   0.337   4.270
  505TIP3    H1 1458  -0.041   0.286   4.251
  505TIP3    H2 1459   0.011   0.429   4.259
  506TIP3   OH2 1460   0.384   1.479   4.328
  506TIP3    H1 1461   0.402   1.395   4.285
  506TIP3    H2 1462   0.329   1.456   4.403
  507TIP3   OH2 1463   0.911   7.489   3.412
  507TIP3    H1 1464   0.994   7.462   3.452
  507TIP3    H2 1465   0.929   7.575   3.375
  508TIP3   OH2 1466   6.409   2.470   6.285
  508TIP3    H1 1467   6.475   2.505   6.225
  508TIP3    H2 1468   6.457   2.456   6.367
  509TIP3   OH2 1469   1.609   1.000   3.284
  509TIP3    H1 1470   1.516   1.003   3.304
  509TIP3    H2 1471   1.619   0.924   3.227
  510TIP3   OH2 1472   5.220   7.767   5.208
  510TIP3    H1 1473   5.237   7.738   5.118
  510TIP3    H2 1474   5.230   7.862   5.206
  511TIP3   OH2 1475   5.568   7.537   2.303
  511TIP3    H1 1476   5.587   7.619   2.258
  511TIP3    H2 1477   5.629   7.535   2.376
  512TIP3   OH2 1478   3.212   4.015   0.403
  512TIP3    H1 1479   3.229   4.029   0.496
  512TIP3    H2 1480   3.298   4.006   0.363
  513TIP3   OH2 1481   7.333   6.275   4.495
  513TIP3    H1 1482   7.358   6.185   4.516
  513TIP3    H2 1483   7.250   6.288   4.540
  514TIP3   OH2 1484   4.037   2.434   5.372
  514TIP3    H1 1485   4.079   2.360   5.330
  514TIP3    H2 1486   4.060   2.509   5.318
  515TIP3   OH2 1487   0.503   0.545   3.374
  515TIP3    H1 1488   0.472   0.549   3.465
  515TIP3    H2 1489   0.558   0.467   3.371
  516TIP3   OH2 1490   3.563   5.828   4.354
  516TIP3    H1 1491   3.620   5.752   4.370
  516TIP3    H2 1492   3.478   5.800   4.387
  517TIP3   OH2 1493   4.352   4.534   3.632
  517TIP3    H1 1494   4.333   4.626   3.617
  517TIP3    H2 1495   4.365   4.498   3.544
  518TIP3   OH2 1496   5.265   0.731   3.836
  518TIP3    H1 1497   5.270   0.638   3.812
  518TIP3    H2 1498   5.193   0.735   3.899
  519TIP3   OH2 1499   1.026   3.536   1.478
  519TIP3    H1 1500   1.080   3.572   1.547
  519TIP3    H2 1501   0.953   3.598   1.469
  520TIP3   OH2 1502   7.877   3.544   0.504
  520TIP3    H1 1503   7.831   3.499   0.575
  520TIP3    H2 1504   7.837   3.631   0.501
  521TIP3   OH2 1505   0.932   1.133   0.503
  521TIP3    H1 1506   1.015   1.125   0.455
  521TIP3    H2 1507   0.950   1.093   0.588
  522TIP3   OH2 1508   4.062   5.801   3.492
  522TIP3    H1 1509   4.105   5.764   3.569
  522TIP3    H2 1510   3.982   5.749   3.482
  523TIP3   OH2 1511   3.367   0.258   1.525
  523TIP3    H1 1512   3.284   0.238   1.568
  523TIP3    H2 1513   3.399   0.336   1.569
  524TIP3   OH2 1514   4.662   4.693   2.668
  524TIP3    H1 1515   4.574   4.696   2.706
  524TIP3    H2 1516   4.655   4.631   2.595
  525TIP3   OH2 1517   1.908   0.117   5.113
  525TIP3    H1 1518   1.815   0.117   5.138
  525TIP3    H2 1519   1.918   0.197   5.061
  526TIP3   OH2 1520   7.022   0.000   6.005
  526TIP3    H1 1521   6.938   0.031   6.040
  526TIP3    H2 1522   7.005  -0.090   5.979
  527TIP3   OH2 1523   8.115   1.559   2.605
  527TIP3    H1 1524   8.181   1.599   2.549
  527TIP3    H2 1525   8.154   1.477   2.635
  528TIP3   OH2 1526   3.395   3.970   5.178
  528TIP3    H1 1527   3.413   3.987   5.086
  528TIP3    H2 1528   3.479   3.941   5.214
  529TIP3   OH2 1529   0.919   5.749   3.925
  529TIP3    H1 1530   0.965   5.791   3.998
  529TIP3    H2 1531   0.837   5.718   3.963
  530TIP3   OH2 1532   2.501   0.471   4.531
  530TIP3    H1 1533   2.468   0.554   4.495
  530TIP3    H2 1534   2.472   0.472   4.622
  531TIP3   OH2 1535   5.175   1.562   4.133
  531TIP3    H1 1536   5.215   1.649   4.125
  531TIP3    H2 1537   5.178   1.543   4.227
  532TIP3   OH2 1538   7.249   3.824   3.431
  532TIP3    H1 1539   7.193   3.861   3.362
  532TIP3    H2 1540   7.300   3.898   3.463
  533TIP3   OH2 1541   6.710   5.086   5.285
  533TIP3    H1 1542   6.695   5.180   5.292
  533TIP3    H2 1543   6.766   5.065   5.359
  534TIP3   OH2 1544   6.599   2.869   6.182
  534TIP3    H1 1545   6.673   2.895   6.126
  534TIP3    H2 1546   6.605   2.926   6.258
  535TIP3   OH2 1547   7.622   3.922   2.932
  535TIP3    H1 1548   7.647   3.830   2.939
  535TIP3    H2 1549   7.610   3.936   2.839
  536TIP3   OH2 1550   1.037   4.550   5.890
  536TIP3    H1 1551   1.115   4.574   5.840
  536TIP3    H2 1552   1.039   4.608   5.967
  537TIP3   OH2 1553   4.256   5.015   1.921
  537TIP3    H1 1554   4.312   5.005   1.998
  537TIP3    H2 1555   4.173   4.973   1.946
  538TIP3   OH2 1556   1.735   6.918   5.305
  538TIP3    H1 1557   1.655   6.884   5.344
  538TIP3    H2 1558   1.716   7.010   5.285
  539TIP3   OH2 1559   4.761   6.727   0.402
  539TIP3    H1 1560   4.748   6.771   0.486
  539TIP3    H2 1561   4.745   6.635   0.421
  540TIP3   OH2 1562   2.421   2.530   6.305
  540TIP3    H1 1563   2.430   2.566   6.217
  540TIP3    H2 1564   2.368   2.594   6.352
  541TIP3   OH2 1565   3.019   7.366   0.819
  541TIP3    H1 1566   2.954   7.435   0.807
  541TIP3    H2 1567   3.014   7.314   0.738
  542TIP3   OH2 1568   6.193   6.131   3.849
  542TIP3    H1 1569   6.185   6.035   3.843
  542TIP3    H2 1570   6.124   6.157   3.910
  543TIP3   OH2 1571   3.750   1.883   3.096
  543TIP3    H1 1572   3.723   1.968   3.130
  543TIP3    H2 1573   3.753   1.826   3.173
  544TIP3   OH2 1574   6.499   5.473   5.654
  544TIP3    H1 1575   6.594   5.482   5.646
  544TIP3    H2 1576   6.474   5.548   5.708
  545TIP3   OH2 1577   3.027   4.721   3.733
  545TIP3    H1 1578   3.082   4.691   3.806
  545TIP3    H2 1579   3.081   4.709   3.655
  546TIP3   OH2 1580   0.103   2.546   4.013
  546TIP3    H1 1581   0.089   2.510   3.925
  546TIP3    H2 1582   0.179   2.498   4.046
  547TIP3   OH2 1583   6.546   6.289   2.284
  547TIP3    H1 1584   6.525   6.237   2.361
  547TIP3    H2 1585   6.544   6.227   2.211
  548TIP3   OH2 1586   1.990   1.171   0.792
  548TIP3    H1 1587   2.071   1.200   0.834
  548TIP3    H2 1588   2.011   1.087   0.753
  549TIP3   OH2 1589   1.822   2.762   3.704
  549TIP3    H1 1590   1.816   2.748   3.798
  549TIP3    H2 1591   1.732   2.774   3.675
  550TIP3   OH2 1592   5.364   6.111   4.447
  550TIP3    H1 1593   5.403   6.049   4.508
  550TIP3    H2 1594   5.281   6.136   4.489
  551TIP3   OH2 1595   1.415   4.424   1.624
  551TIP3    H1 1596   1.412   4.357   1.556
  551TIP3    H2 1597   1.463   4.496   1.584
  552TIP3   OH2 1598   7.877   2.749   1.402
  552TIP3    H1 1599   7.837   2.830   1.432
  552TIP3    H2 1600   7.970   2.760   1.418
  553TIP3   OH2 1601   7.704   0.991   1.693
  553TIP3    H1 1602   7.755   1.038   1.627
  553TIP3    H2 1603   7.719   0.899   1.674
  554TIP3   OH2 1604   3.481   5.227   0.364
  554TIP3    H1 1605   3.501   5.313   0.399
  554TIP3    H2 1606   3.395   5.205   0.401
  555TIP3   OH2 1607   6.279   0.781   4.132
  555TIP3    H1 1608   6.252   0.689   4.133
  555TIP3    H2 1609   6.277   0.806   4.039
  556TIP3   OH2 1610   3.609   1.047   0.362
  556TIP3    H1 1611   3.555   1.126   0.368
  556TIP3    H2 1612   3.581   1.004   0.281
  557TIP3   OH2 1613   2.510   6.222   6.418
  557TIP3    H1 1614   2.523   6.224   6.513
  557TIP3    H2 1615   2.439   6.284   6.403
  558TIP3   OH2 1616   7.274   3.468   2.224
  558TIP3    H1 1617   7.229   3.508   2.299
  558TIP3    H2 1618   7.310   3.386   2.258
  559TIP3   OH2 1619   3.087   5.792   4.620
  559TIP3    H1 1620   3.014   5.796   4.558
  559TIP3    H2 1621   3.130   5.877   4.612
  560TIP3   OH2 1622   1.685   7.130   4.527
  560TIP3    H1 1623   1.728   7.210   4.559
  560TIP3    H2 1624   1.746   7.060   4.550
  561TIP3   OH2 1625   2.140   5.432   6.377
  561TIP3    H1 1626   2.148   5.524   6.353
  561TIP3    H2 1627   2.219   5.391   6.340
  562TIP3   OH2 1628   2.161   0.848   3.149
  562TIP3    H1 1629   2.179   0.938   3.122
  562TIP3    H2 1630   2.066   0.843   3.155
  563TIP3   OH2 1631   6.640   0.451   5.633
  563TIP3    H1 1632   6.726   0.479   5.664
  563TIP3    H2 1633   6.659   0.389   5.562
  564TIP3   OH2 1634   7.643   3.382   3.702
  564TIP3    H1 1635   7.711   3.421   3.647
  564TIP3    H2 1636   7.661   3.417   3.790
  565TIP3   OH2 1637   5.703   4.966   0.923
  565TIP3    H1 1638   5.671   4.917   0.847
  565TIP3    H2 1639   5.759   5.035   0.885
  566TIP3   OH2 1640   5.444   4.593   1.166
  566TIP3    H1 1641   5.431   4.505   1.204
  566TIP3    H2 1642   5.426   4.582   1.073
  567TIP3   OH2 1643   0.089   2.670   4.530
  567TIP3    H1 1644   0.065   2.712   4.447
  567TIP3    H2 1645   0.136   2.737   4.579
  568TIP3   OH2 1646   3.378   5.660   1.277
  568TIP3    H1 1647   3.428   5.583   1.304
  568TIP3    H2 1648   3.299   5.624   1.237
  569TIP3   OH2 1649   5.575   0.299   2.337
  569TIP3    H1 1650   5.532   0.372   2.291
  569TIP3    H2 1651   5.528   0.221   2.307
  570TIP3   OH2 1652   7.707   1.732   0.403
  570TIP3    H1 1653   7.649   1.709   0.331
  570TIP3    H2 1654   7.737   1.647   0.437
  571TIP3   OH2 1655   0.469   5.830   2.670
  571TIP3    H1 1656   0.486   5.808   2.579
  571TIP3    H2 1657   0.556   5.845   2.708
  572TIP3   OH2 1658   1.170   1.897   3.821
  572TIP3    H1 1659   1.255   1.895   3.864
  572TIP3    H2 1660   1.123   1.968   3.864
  573TIP3   OH2 1661   4.797   1.728   3.916
  573TIP3    H1 1662   4.743   1.686   3.850
  573TIP3    H2 1663   4.787   1.673   3.994
  574TIP3   OH2 1664   1.789   6.358   3.746
  574TIP3    H1 1665   1.729   6.301   3.794
  574TIP3    H2 1666   1.809   6.429   3.807
  575TIP3   OH2 1667   6.503   0.958   4.816
  575TIP3    H1 1668   6.448   1.033   4.837
  575TIP3    H2 1669   6.576   0.994   4.766
  576TIP3   OH2 1670   4.560   7.785   1.925
  576TIP3    H1 1671   4.591   7.833   2.002
  576TIP3    H2 1672   4.465   7.791   1.930
  577TIP3   OH2 1673   1.392   0.660   0.948
  577TIP3    H1 1674   1.457   0.729   0.961
  577TIP3    H2 1675   1.430   0.604   0.880
  578TIP3   OH2 1676   5.701   6.858   2.530
  578TIP3    H1 1677   5.687   6.839   2.623
  578TIP3    H2 1678   5.784   6.817   2.509
  579TIP3   OH2 1679   2.370   2.954   2.425
  579TIP3    H1 1680   2.420   3.027   2.388
  579TIP3    H2 1681   2.328   2.913   2.349
  580TIP3   OH2 1682   5.288   0.489   0.679
  580TIP3    H1 1683   5.316   0.405   0.640
  580TIP3    H2 1684   5.282   0.548   0.604
  581TIP3   OH2 1685   2.246   1.890   4.772
  581TIP3    H1 1686   2.172   1.891   4.712
  581TIP3    H2 1687   2.242   1.804   4.814
  582TIP3   OH2 1688   1.079   4.783   2.577
  582TIP3    H1 1689   1.124   4.849   2.629
  582TIP3    H2 1690   0.988   4.813   2.573
  583TIP3   OH2 1691   5.401   4.491   4.353
  583TIP3    H1 1692   5.396   4.586   4.368
  583TIP3    H2 1693   5.393   4.481   4.258
  584TIP3   OH2 1694   1.788   2.291   5.033
  584TIP3    H1 1695   1.861   2.251   4.985
  584TIP3    H2 1696   1.751   2.354   4.973
  585TIP3   OH2 1697   2.907   4.941   4.174
  585TIP3    H1 1698   2.879   4.889   4.099
  585TIP3    H2 1699   2.995   4.969   4.152
  586TIP3   OH2 1700   6.434   1.524   1.466
  586TIP3    H1 1701   6.342   1.529   1.441
  586TIP3    H2 1702   6.459   1.616   1.481
  587TIP3   OH2 1703   3.668   6.464   5.447
  587TIP3    H1 1704   3.580   6.497   5.428
  587TIP3    H2 1705   3.653   6.379   5.488
  588TIP3   OH2 1706   7.154   4.230   5.754
  588TIP3    H1 1707   7.160   4.273   5.839
  588TIP3    H2 1708   7.245   4.225   5.724
  589TIP3   OH2 1709   5.425   4.264   6.740
  589TIP3    H1 1710   5.420   4.308   6.655
  589TIP3    H2 1711   5.367   4.315   6.797
  590TIP3   OH2 1712   6.390   5.800   0.276
  590TIP3    H1 1713   6.485   5.806   0.265
  590TIP3    H2 1714   6.371   5.857   0.351
  591TIP3   OH2 1715   8.107   2.762   4.357
  591TIP3    H1 1716   8.184   2.740   4.305
  591TIP3    H2 1717   8.125   2.851   4.388
  592TIP3   OH2 1718   5.821   0.079   0.437
  592TIP3    H1 1719   5.797  -0.013   0.428
  592TIP3    H2 1720   5.874   0.083   0.516
  593TIP3   OH2 1721   5.895   1.475   3.668
  593TIP3    H1 1722   5.816   1.444   3.713
  593TIP3    H2 1723   5.932   1.540   3.728
  594TIP3   OH2 1724   2.507   2.963   5.775
  594TIP3    H1 1725   2.543   2.898   5.835
  594TIP3    H2 1726   2.421   2.983   5.811
  595TIP3   OH2 1727   6.369   1.257   1.728
  595TIP3    H1 1728   6.382   1.198   1.802
  595TIP3    H2 1729   6.410   1.339   1.756
  596TIP3   OH2 1730   6.723   5.386   0.608
  596TIP3    H1 1731   6.737   5.344   0.693
  596TIP3    H2 1732   6.718   5.313   0.546
  597TIP3   OH2 1733   5.917   0.107   2.261
  597TIP3    H1 1734   5.890   0.046   2.330
  597TIP3    H2 1735   5.964   0.176   2.308
  598TIP3   OH2 1736   6.542   0.256   5.803
  598TIP3    H1 1737   6.447   0.263   5.810
  598TIP3    H2 1738   6.569   0.337   5.759
  599TIP3   OH2 1739   2.636   5.558   5.258
  599TIP3    H1 1740   2.718   5.569   5.307
  599TIP3    H2 1741   2.584   5.499   5.312
  600TIP3   OH2 1742   5.226   3.923   2.231
  600TIP3    H1 1743   5.157   3.965   2.180
  600TIP3    H2 1744   5.219   3.964   2.318
  601TIP3   OH2 1745   4.369   2.763   4.617
  601TIP3    H1 1746   4.312   2.836   4.592
  601TIP3    H2 1747   4.315   2.685   4.603
  602TIP3   OH2 1748   3.526   2.721   6.645
  602TIP3    H1 1749   3.588   2.659   6.608
  602TIP3    H2 1750   3.442   2.675   6.643
  603TIP3   OH2 1751   7.078   5.570   5.707
  603TIP3    H1 1752   7.092   5.657   5.745
  603TIP3    H2 1753   6.990   5.574   5.671
  604TIP3   OH2 1754   1.520   2.976   1.720
  604TIP3    H1 1755   1.459   3.046   1.694
  604TIP3    H2 1756   1.579   3.018   1.783
  605TIP3   OH2 1757   7.904   5.124   1.235
  605TIP3    H1 1758   7.994   5.136   1.265
  605TIP3    H2 1759   7.889   5.030   1.241
  606TIP3   OH2 1760   1.656   5.969   3.137
  606TIP3    H1 1761   1.697   5.934   3.216
  606TIP3    H2 1762   1.679   6.062   3.137
  607TIP3   OH2 1763   4.055   6.042   3.619
  607TIP3    H1 1764   3.966   6.066   3.595
  607TIP3    H2 1765   4.067   5.954   3.584
  608TIP3   OH2 1766   7.703   7.287   5.357
  608TIP3    H1 1767   7.683   7.378   5.338
  608TIP3    H2 1768   7.638   7.237   5.308
  609TIP3   OH2 1769   3.431   6.424   0.101
  609TIP3    H1 1770   3.373   6.475   0.044
  609TIP3    H2 1771   3.373   6.391   0.170
  610TIP3   OH2 1772   6.969   1.295   5.724
  610TIP3    H1 1773   6.887   1.259   5.690
  610TIP3    H2 1774   7.027   1.219   5.732
  611TIP3   OH2 1775   0.559   7.136   3.854
  611TIP3    H1 1776   0.540   7.202   3.921
  611TIP3    H2 1777   0.490   7.071   3.863
  612TIP3   OH2 1778   3.158   7.460   2.302
  612TIP3    H1 1779   3.130   7.465   2.393
  612TIP3    H2 1780   3.210   7.380   2.297
  613TIP3   OH2 1781   8.216   1.594   4.925
  613TIP3    H1 1782   8.185   1.685   4.933
  613TIP3    H2 1783   8.140   1.541   4.946
  614TIP3   OH2 1784   3.792   3.435   1.073
  614TIP3    H1 1785   3.827   3.460   0.988
  614TIP3    H2 1786   3.868   3.434   1.131
  615TIP3   OH2 1787   3.122   4.787   0.462
  615TIP3    H1 1788   3.096   4.863   0.514
  615TIP3    H2 1789   3.040   4.752   0.427
  616TIP3   OH2 1790   7.855   2.546   5.434
  616TIP3    H1 1791   7.925   2.558   5.370
  616TIP3    H2 1792   7.896   2.568   5.518
  617TIP3   OH2 1793   7.537   0.524   3.803
  617TIP3    H1 1794   7.455   0.537   3.755
  617TIP3    H2 1795   7.536   0.592   3.870
  618TIP3   OH2 1796   5.961   5.038   3.111
  618TIP3    H1 1797   5.894   5.018   3.046
  618TIP3    H2 1798   5.964   5.133   3.115
  619TIP3   OH2 1799   6.239   0.718   1.429
  619TIP3    H1 1800   6.295   0.782   1.472
  619TIP3    H2 1801   6.152   0.733   1.466
  620TIP3   OH2 1802   1.987   2.172   6.747
  620TIP3    H1 1803   1.935   2.195   6.670
  620TIP3    H2 1804   2.074   2.151   6.712
  621TIP3   OH2 1805   5.459   4.541   1.641
  621TIP3    H1 1806   5.522   4.606   1.671
  621TIP3    H2 1807   5.382   4.592   1.616
  622TIP3   OH2 1808   6.798   5.886   4.968
  622TIP3    H1 1809   6.759   5.969   4.997
  622TIP3    H2 1810   6.886   5.909   4.940
  623TIP3   OH2 1811   5.720   2.137  -0.018
  623TIP3    H1 1812   5.632   2.175  -0.013
  623TIP3    H2 1813   5.769   2.185   0.049
  624TIP3   OH2 1814   5.674   2.831   6.177
  624TIP3    H1 1815   5.632   2.746   6.163
  624TIP3    H2 1816   5.668   2.875   6.092
  625TIP3   OH2 1817   0.998   6.430   1.539
  625TIP3    H1 1818   1.092   6.427   1.523
  625TIP3    H2 1819   0.987   6.390   1.625
  626TIP3   OH2 1820   5.313   1.416   0.226
  626TIP3    H1 1821   5.396   1.369   0.231
  626TIP3    H2 1822   5.314   1.457   0.139
  627TIP3   OH2 1823   0.820   0.709   4.824
  627TIP3    H1 1824   0.757   0.781   4.812
  627TIP3    H2 1825   0.766   0.634   4.850
  628TIP3   OH2 1826   2.935   5.845   5.999
  628TIP3    H1 1827   2.870   5.800   5.945
  628TIP3    H2 1828   2.944   5.931   5.958
  629TIP3   OH2 1829   2.610   5.603   6.162
  629TIP3    H1 1830   2.523   5.568   6.143
  629TIP3    H2 1831   2.606   5.625   6.256
  630TIP3   OH2 1832   3.379   7.055   6.024
  630TIP3    H1 1833   3.418   7.123   5.970
  630TIP3    H2 1834   3.421   6.974   5.996
  631TIP3   OH2 1835   4.872   4.749   0.167
  631TIP3    H1 1836   4.927   4.826   0.182
  631TIP3    H2 1837   4.797   4.783   0.118
  632TIP3   OH2 1838   5.635   4.485   5.794
  632TIP3    H1 1839   5.639   4.575   5.827
  632TIP3    H2 1840   5.711   4.478   5.737
  633TIP3   OH2 1841   1.200   5.889   5.600
  633TIP3    H1 1842   1.200   5.972   5.648
  633TIP3    H2 1843   1.222   5.914   5.510
  634TIP3   OH2 1844   3.198   3.573   3.015
  634TIP3    H1 1845   3.132   3.535   2.957
  634TIP3    H2 1846   3.216   3.659   2.977
  635TIP3   OH2 1847   1.944   3.852   0.792
  635TIP3    H1 1848   1.966   3.763   0.819
  635TIP3    H2 1849   1.855   3.846   0.757
  636TIP3   OH2 1850   1.775   2.700   6.169
  636TIP3    H1 1851   1.751   2.634   6.104
  636TIP3    H2 1852   1.766   2.655   6.253
  637TIP3   OH2 1853   1.366   7.453   3.267
  637TIP3    H1 1854   1.304   7.519   3.237
  637TIP3    H2 1855   1.434   7.451   3.199
  638TIP3   OH2 1856   2.242   3.177   3.568
  638TIP3    H1 1857   2.291   3.099   3.543
  638TIP3    H2 1858   2.201   3.207   3.487
  639TIP3   OH2 1859   6.363   1.672   0.062
  639TIP3    H1 1860   6.302   1.742   0.037
  639TIP3    H2 1861   6.431   1.675  -0.006
  640TIP3   OH2 1862   4.707   0.233   0.380
  640TIP3    H1 1863   4.652   0.258   0.306
  640TIP3    H2 1864   4.647   0.198   0.445
  641TIP3   OH2 1865   6.077   7.452   2.225
  641TIP3    H1 1866   6.026   7.531   2.208
  641TIP3    H2 1867   6.012   7.382   2.231
  642TIP3   OH2 1868   5.299   1.686   5.697
  642TIP3    H1 1869   5.271   1.768   5.737
  642TIP3    H2 1870   5.325   1.710   5.608
  643TIP3   OH2 1871   6.607   5.645   5.364
  643TIP3    H1 1872   6.536   5.586   5.388
  643TIP3    H2 1873   6.665   5.644   5.441
  644TIP3   OH2 1874   7.178   7.564   0.428
  644TIP3    H1 1875   7.178   7.488   0.371
  644TIP3    H2 1876   7.168   7.638   0.368
  645TIP3   OH2 1877   5.144   7.679   0.773
  645TIP3    H1 1878   5.089   7.757   0.765
  645TIP3    H2 1879   5.218   7.706   0.828
  646TIP3   OH2 1880   3.535   7.548   2.335
  646TIP3    H1 1881   3.533   7.606   2.411
  646TIP3    H2 1882   3.469   7.584   2.276
  647TIP3   OH2 1883   1.313   7.058   3.478
  647TIP3    H1 1884   1.350   7.037   3.392
  647TIP3    H2 1885   1.384   7.101   3.525
  648TIP3   OH2 1886   6.832   1.780   6.355
  648TIP3    H1 1887   6.795   1.804   6.440
  648TIP3    H2 1888   6.924   1.760   6.374
  649TIP3   OH2 1889   5.572   3.485   3.861
  649TIP3    H1 1890   5.634   3.432   3.811
  649TIP3    H2 1891   5.496   3.429   3.872
  650TIP3   OH2 1892   4.681   5.097   1.813
  650TIP3    H1 1893   4.762   5.147   1.801
  650TIP3    H2 1894   4.612   5.157   1.782
  651TIP3   OH2 1895   0.481   1.572   5.747
  651TIP3    H1 1896   0.535   1.549   5.671
  651TIP3    H2 1897   0.529   1.643   5.790
  652TIP3   OH2 1898   6.658  -0.018   4.468
  652TIP3    H1 1899   6.696   0.067   4.489
  652TIP3    H2 1900   6.622  -0.050   4.550
  653TIP3   OH2 1901   3.984   4.542   1.513
  653TIP3    H1 1902   3.971   4.630   1.478
  653TIP3    H2 1903   3.916   4.489   1.471
  654TIP3   OH2 1904   5.189   0.541   5.504
  654TIP3    H1 1905   5.256   0.474   5.512
  654TIP3    H2 1906   5.160   0.536   5.413
  655TIP3   OH2 1907   2.908   0.498   5.543
  655TIP3    H1 1908   2.878   0.525   5.456
  655TIP3    H2 1909   2.975   0.562   5.567
  656TIP3   OH2 1910   1.392   4.873   6.455
  656TIP3    H1 1911   1.343   4.946   6.419
  656TIP3    H2 1912   1.472   4.870   6.402
  657TIP3   OH2 1913   3.606   0.130   0.726
  657TIP3    H1 1914   3.617   0.198   0.660
  657TIP3    H2 1915   3.620   0.176   0.809
  658TIP3   OH2 1916   3.560   7.803   3.119
  658TIP3    H1 1917   3.536   7.859   3.045
  658TIP3    H2 1918   3.570   7.716   3.080
  659TIP3   OH2 1919   8.162   5.211   2.518
  659TIP3    H1 1920   8.256   5.228   2.513
  659TIP3    H2 1921   8.154   5.116   2.515
  660TIP3   OH2 1922   6.080   3.430   0.874
  660TIP3    H1 1923   5.997   3.391   0.845
  660TIP3    H2 1924   6.061   3.460   0.963
  661TIP3   OH2 1925   7.545   2.551   0.675
  661TIP3    H1 1926   7.610   2.544   0.604
  661TIP3    H2 1927   7.556   2.470   0.725
  662TIP3   OH2 1928   3.030   3.831   5.128
  662TIP3    H1 1929   3.106   3.773   5.127
  662TIP3    H2 1930   2.964   3.784   5.178
  663TIP3   OH2 1931   6.628   2.587   6.161
  663TIP3    H1 1932   6.646   2.675   6.195
  663TIP3    H2 1933   6.654   2.591   6.069
  664TIP3   OH2 1934   0.745   6.048   1.539
  664TIP3    H1 1935   0.786   6.121   1.494
  664TIP3    H2 1936   0.810   6.019   1.603
  665TIP3   OH2 1937   2.650   6.170   6.681
  665TIP3    H1 1938   2.663   6.251   6.731
  665TIP3    H2 1939   2.648   6.101   6.748
  666TIP3   OH2 1940   0.999   3.098   4.585
  666TIP3    H1 1941   1.065   3.167   4.586
  666TIP3    H2 1942   1.050   3.017   4.585
  667TIP3   OH2 1943   5.307   4.738   0.679
  667TIP3    H1 1944   5.245   4.792   0.630
  667TIP3    H2 1945   5.255   4.701   0.750
  668TIP3   OH2 1946   6.544   0.827   5.665
  668TIP3    H1 1947   6.533   0.861   5.576
  668TIP3    H2 1948   6.456   0.801   5.692
  669TIP3   OH2 1949   5.276   2.733   4.042
  669TIP3    H1 1950   5.213   2.804   4.031
  669TIP3    H2 1951   5.268   2.681   3.962
  670TIP3   OH2 1952   6.705   3.807   1.198
  670TIP3    H1 1953   6.677   3.802   1.289
  670TIP3    H2 1954   6.740   3.896   1.188
  671TIP3   OH2 1955   1.036   4.539   0.795
  671TIP3    H1 1956   1.065   4.451   0.822
  671TIP3    H2 1957   1.118   4.585   0.774
  672TIP3   OH2 1958   3.829   6.268   6.686
  672TIP3    H1 1959   3.784   6.191   6.650
  672TIP3    H2 1960   3.791   6.342   6.638
  673TIP3   OH2 1961   2.394   3.013   6.363
  673TIP3    H1 1962   2.463   3.033   6.427
  673TIP3    H2 1963   2.435   3.027   6.278
  674TIP3   OH2 1964   5.626   6.530   6.631
  674TIP3    H1 1965   5.629   6.437   6.611
  674TIP3    H2 1966   5.533   6.551   6.635
  675TIP3   OH2 1967   1.772   4.640   5.112
  675TIP3    H1 1968   1.756   4.638   5.206
  675TIP3    H2 1969   1.819   4.559   5.094
  676TIP3   OH2 1970   5.233   6.451   5.741
  676TIP3    H1 1971   5.179   6.380   5.706
  676TIP3    H2 1972   5.218   6.524   5.680
  677TIP3   OH2 1973   6.076   7.485   1.193
  677TIP3    H1 1974   5.997   7.461   1.145
  677TIP3    H2 1975   6.141   7.421   1.164
  678TIP3   OH2 1976   0.831   1.841   3.473
  678TIP3    H1 1977   0.904   1.820   3.532
  678TIP3    H2 1978   0.761   1.781   3.499
  679TIP3   OH2 1979   5.841   0.710   6.001
  679TIP3    H1 1980   5.883   0.698   5.916
  679TIP3    H2 1981   5.748   0.720   5.981
  680TIP3   OH2 1982   5.570   0.671   2.743
  680TIP3    H1 1983   5.665   0.673   2.756
  680TIP3    H2 1984   5.537   0.625   2.820
  681TIP3   OH2 1985   5.427   0.164   3.272
  681TIP3    H1 1986   5.367   0.201   3.337
  681TIP3    H2 1987   5.390   0.078   3.251
  682TIP3   OH2 1988   3.482   6.920   2.841
  682TIP3    H1 1989   3.553   6.980   2.863
  682TIP3    H2 1990   3.520   6.861   2.776
  683TIP3   OH2 1991   0.651   2.335   0.312
  683TIP3    H1 1992   0.678   2.307   0.399
  683TIP3    H2 1993   0.634   2.429   0.321
  684TIP3   OH2 1994   4.570   4.504   6.314
  684TIP3    H1 1995   4.487   4.489   6.269
  684TIP3    H2 1996   4.629   4.535   6.245
  685TIP3   OH2 1997   2.741   5.640   2.671
  685TIP3    H1 1998   2.810   5.657   2.606
  685TIP3    H2 1999   2.784   5.586   2.737
  686TIP3   OH2 2000   5.981   1.644   3.144
  686TIP3    H1 2001   5.954   1.580   3.209
  686TIP3    H2 2002   5.901   1.663   3.094
  687TIP3   OH2 2003   0.094   3.079   0.394
  687TIP3    H1 2004   0.104   3.130   0.475
  687TIP3    H2 2005   0.018   3.117   0.351
  688TIP3   OH2 2006   2.834   0.983   2.393
  688TIP3    H1 2007   2.763   1.044   2.415
  688TIP3    H2 2008   2.790   0.911   2.347
  689TIP3   OH2 2009   5.066   2.183   4.518
  689TIP3    H1 2010   5.146   2.173   4.570
  689TIP3    H2 2011   5.082   2.130   4.440
  690TIP3   OH2 2012   1.330   1.628   6.028
  690TIP3    H1 2013   1.344   1.569   5.954
  690TIP3    H2 2014   1.339   1.572   6.105
  691TIP3   OH2 2015   1.047   1.029   2.454
  691TIP3    H1 2016   0.958   1.017   2.421
  691TIP3    H2 2017   1.100   0.971   2.400
  692TIP3   OH2 2018   8.200   4.658   0.071
  692TIP3    H1 2019   8.214   4.696  -0.016
  692TIP3    H2 2020   8.274   4.690   0.123
  693TIP3   OH2 2021   1.728   7.285   0.584
  693TIP3    H1 2022   1.709   7.216   0.521
  693TIP3    H2 2023   1.750   7.239   0.665
  694TIP3   OH2 2024   2.861   3.638   0.268
  694TIP3    H1 2025   2.908   3.634   0.185
  694TIP3    H2 2026   2.909   3.702   0.320
  695TIP3   OH2 2027   5.172   0.827   6.549
  695TIP3    H1 2028   5.081   0.805   6.534
  695TIP3    H2 2029   5.183   0.823   6.644
  696TIP3   OH2 2030   4.450   3.297   5.533
  696TIP3    H1 2031   4.369   3.267   5.575
  696TIP3    H2 2032   4.515   3.296   5.603
  697TIP3   OH2 2033   6.150   7.140   3.274
  697TIP3    H1 2034   6.114   7.226   3.252
  697TIP3    H2 2035   6.168   7.100   3.188
  698TIP3   OH2 2036   2.137   2.428   3.716
  698TIP3    H1 2037   2.198   2.499   3.739
  698TIP3    H2 2038   2.193   2.351   3.706
  699TIP3   OH2 2039   6.456   6.380   0.623
  699TIP3    H1 2040   6.379   6.352   0.673
  699TIP3    H2 2041   6.519   6.409   0.690
  700TIP3   OH2 2042   4.494   0.154   2.314
  700TIP3    H1 2043   4.572   0.209   2.323
  700TIP3    H2 2044   4.496   0.098   2.391
  701TIP3   OH2 2045   2.009   3.338   4.868
  701TIP3    H1 2046   2.001   3.296   4.954
  701TIP3    H2 2047   2.036   3.428   4.887
  702TIP3   OH2 2048   6.230   5.826   5.116
  702TIP3    H1 2049   6.292   5.755   5.102
  702TIP3    H2 2050   6.244   5.885   5.042
  703TIP3   OH2 2051   2.419   4.867   5.816
  703TIP3    H1 2052   2.411   4.793   5.757
  703TIP3    H2 2053   2.507   4.902   5.798
  704TIP3   OH2 2054   4.531   2.350   5.687
  704TIP3    H1 2055   4.494   2.297   5.616
  704TIP3    H2 2056   4.477   2.429   5.689
  705TIP3   OH2 2057   2.125   6.628   5.776
  705TIP3    H1 2058   2.216   6.645   5.802
  705TIP3    H2 2059   2.132   6.587   5.690
  706TIP3   OH2 2060   3.268   4.331   0.626
  706TIP3    H1 2061   3.245   4.424   0.622
  706TIP3    H2 2062   3.358   4.330   0.661
  707TIP3   OH2 2063   5.627   3.687   0.345
  707TIP3    H1 2064   5.658   3.601   0.375
  707TIP3    H2 2065   5.532   3.676   0.334
  708TIP3   OH2 2066   4.288   3.176   5.110
  708TIP3    H1 2067   4.370   3.130   5.128
  708TIP3    H2 2068   4.286   3.248   5.173
  709TIP3   OH2 2069   2.842   6.746   4.801
  709TIP3    H1 2070   2.810   6.831   4.771
  709TIP3    H2 2071   2.763   6.702   4.833
  710TIP3   OH2 2072   6.880   3.139   1.817
  710TIP3    H1 2073   6.849   3.205   1.755
  710TIP3    H2 2074   6.844   3.057   1.784
  711TIP3   OH2 2075   7.116   4.584   6.151
  711TIP3    H1 2076   7.156   4.503   6.120
  711TIP3    H2 2077   7.136   4.648   6.082
  712TIP3   OH2 2078   7.376   2.848   6.342
  712TIP3    H1 2079   7.460   2.829   6.301
  712TIP3    H2 2080   7.388   2.825   6.434
  713TIP3   OH2 2081   7.890   0.782   2.620
  713TIP3    H1 2082   7.811   0.789   2.566
  713TIP3    H2 2083   7.868   0.718   2.687
  714TIP3   OH2 2084   0.692   1.324   4.640
  714TIP3    H1 2085   0.659   1.235   4.632
  714TIP3    H2 2086   0.719   1.348   4.551
  715TIP3   OH2 2087   3.970   6.533   1.413
  715TIP3    H1 2088   4.034   6.565   1.477
  715TIP3    H2 2089   3.976   6.438   1.418
  716TIP3   OH2 2090   4.219   2.873   0.345
  716TIP3    H1 2091   4.271   2.840   0.272
  716TIP3    H2 2092   4.284   2.900   0.410
  717TIP3   OH2 2093   1.628   1.096   1.810
  717TIP3    H1 2094   1.623   1.188   1.838
  717TIP3    H2 2095   1.721   1.077   1.807
  718TIP3   OH2 2096   1.888   0.087   5.428
  718TIP3    H1 2097   1.980   0.107   5.445
  718TIP3    H2 2098   1.870   0.127   5.343
  719TIP3   OH2 2099   4.461   7.005   5.687
  719TIP3    H1 2100   4.517   7.004   5.609
  719TIP3    H2 2101   4.486   6.926   5.736
  720TIP3   OH2 2102   3.653   1.215   4.230
  720TIP3    H1 2103   3.634   1.308   4.214
  720TIP3    H2 2104   3.577   1.184   4.280
  721TIP3   OH2 2105   1.286   7.203   1.842
  721TIP3    H1 2106   1.217   7.138   1.849
  721TIP3    H2 2107   1.243   7.287   1.859
  722TIP3   OH2 2108   4.934   0.433   4.361
  722TIP3    H1 2109   4.916   0.433   4.267
  722TIP3    H2 2110   4.982   0.514   4.376
  723TIP3   OH2 2111   1.681   2.176   2.742
  723TIP3    H1 2112   1.603   2.228   2.721
  723TIP3    H2 2113   1.752   2.218   2.694
  724TIP3   OH2 2114   3.161   2.352   5.844
  724TIP3    H1 2115   3.199   2.364   5.931
  724TIP3    H2 2116   3.232   2.372   5.783
  725TIP3   OH2 2117   7.712   4.872   3.799
  725TIP3    H1 2118   7.685   4.930   3.728
  725TIP3    H2 2119   7.807   4.878   3.800
  726TIP3   OH2 2120   3.769   2.981   4.708
  726TIP3    H1 2121   3.675   2.996   4.699
  726TIP3    H2 2122   3.781   2.959   4.800
  727TIP3   OH2 2123   4.840   2.344   2.415
  727TIP3    H1 2124   4.790   2.262   2.406
  727TIP3    H2 2125   4.775   2.408   2.445
  728TIP3   OH2 2126   6.860   6.442   1.138
  728TIP3    H1 2127   6.795   6.392   1.187
  728TIP3    H2 2128   6.810   6.509   1.091
  729TIP3   OH2 2129   1.869   1.914   6.642
  729TIP3    H1 2130   1.913   1.980   6.695
  729TIP3    H2 2131   1.860   1.838   6.700
  730TIP3   OH2 2132   0.099   4.236   5.882
  730TIP3    H1 2133   0.073   4.328   5.881
  730TIP3    H2 2134   0.193   4.237   5.863
  731TIP3   OH2 2135   2.531   3.044   6.095
  731TIP3    H1 2136   2.550   2.953   6.072
  731TIP3    H2 2137   2.493   3.082   6.016
  732TIP3   OH2 2138   5.936   6.840   3.273
  732TIP3    H1 2139   5.953   6.883   3.357
  732TIP3    H2 2140   6.003   6.874   3.214
  733TIP3   OH2 2141   1.267   7.063   4.230
  733TIP3    H1 2142   1.330   7.004   4.190
  733TIP3    H2 2143   1.271   7.044   4.323
  734TIP3   OH2 2144   0.554   2.225   1.202
  734TIP3    H1 2145   0.551   2.216   1.297
  734TIP3    H2 2146   0.557   2.135   1.169
  735TIP3   OH2 2147   2.862   0.781   5.094
  735TIP3    H1 2148   2.788   0.834   5.124
  735TIP3    H2 2149   2.844   0.766   5.001
  736TIP3   OH2 2150   5.051   5.993   5.462
  736TIP3    H1 2151   5.131   5.952   5.495
  736TIP3    H2 2152   5.028   5.941   5.384
  737TIP3   OH2 2153   2.227   5.830   6.480
  737TIP3    H1 2154   2.240   5.788   6.565
  737TIP3    H2 2155   2.177   5.909   6.499
  738TIP3   OH2 2156   7.924   0.129   5.569
  738TIP3    H1 2157   7.939   0.164   5.657
  738TIP3    H2 2158   7.997   0.162   5.517
  739TIP3   OH2 2159   1.121   3.168   1.016
  739TIP3    H1 2160   1.074   3.251   1.006
  739TIP3    H2 2161   1.144   3.142   0.927
  740TIP3   OH2 2162   5.932   6.661   1.429
  740TIP3    H1 2163   5.856   6.720   1.420
  740TIP3    H2 2164   5.906   6.581   1.384
  741TIP3   OH2 2165   0.673   6.793   6.454
  741TIP3    H1 2166   0.590   6.830   6.424
  741TIP3    H2 2167   0.648   6.716   6.505
  742TIP3   OH2 2168   3.153   6.438   5.409
  742TIP3    H1 2169   3.144   6.482   5.325
  742TIP3    H2 2170   3.065   6.439   5.447
  743TIP3   OH2 2171   3.722   6.643   5.129
  743TIP3    H1 2172   3.693   6.724   5.170
  743TIP3    H2 2173   3.677   6.574   5.179
  744TIP3   OH2 2174   5.562   5.070   2.038
  744TIP3    H1 2175   5.633   5.030   1.989
  744TIP3    H2 2176   5.516   5.125   1.974
  745TIP3   OH2 2177   1.545   2.153   6.587
  745TIP3    H1 2178   1.490   2.077   6.569
  745TIP3    H2 2179   1.568   2.144   6.679
  746TIP3   OH2 2180   0.357   6.241   0.552
  746TIP3    H1 2181   0.367   6.147   0.567
  746TIP3    H2 2182   0.445   6.272   0.532
  747TIP3   OH2 2183   1.304   1.169   1.538
  747TIP3    H1 2184   1.337   1.250   1.578
  747TIP3    H2 2185   1.244   1.133   1.603
  748TIP3   OH2 2186   6.655   4.358   0.626
  748TIP3    H1 2187   6.684   4.437   0.581
  748TIP3    H2 2188   6.585   4.387   0.685
  749TIP3   OH2 2189   6.346   0.198   1.704
  749TIP3    H1 2190   6.319   0.252   1.630
  749TIP3    H2 2191   6.374   0.260   1.771
  750TIP3   OH2 2192   2.978   3.713   4.396
  750TIP3    H1 2193   3.009   3.773   4.464
  750TIP3    H2 2194   2.965   3.630   4.442
  751TIP3   OH2 2195   6.515   4.311   6.661
  751TIP3    H1 2196   6.448   4.359   6.611
  751TIP3    H2 2197   6.598   4.351   6.634
  752TIP3   OH2 2198   4.327   1.079   5.661
  752TIP3    H1 2199   4.264   1.067   5.590
  752TIP3    H2 2200   4.314   1.169   5.690
  753TIP3   OH2 2201   3.861   1.237   6.494
  753TIP3    H1 2202   3.931   1.274   6.440
  753TIP3    H2 2203   3.902   1.219   6.578
  754TIP3   OH2 2204   0.705   6.735   0.668
  754TIP3    H1 2205   0.638   6.755   0.734
  754TIP3    H2 2206   0.657   6.700   0.594
  755TIP3   OH2 2207   7.772   2.240   5.073
  755TIP3    H1 2208   7.690   2.256   5.026
  755TIP3    H2 2209   7.756   2.278   5.160
  756TIP3   OH2 2210   2.310   2.110   3.068
  756TIP3    H1 2211   2.233   2.164   3.083
  756TIP3    H2 2212   2.353   2.150   2.993
  757TIP3   OH2 2213   6.887   3.731   4.276
  757TIP3    H1 2214   6.883   3.824   4.253
  757TIP3    H2 2215   6.875   3.729   4.371
  758TIP3   OH2 2216   4.475   3.940   4.786
  758TIP3    H1 2217   4.540   3.975   4.726
  758TIP3    H2 2218   4.521   3.872   4.834
  759TIP3   OH2 2219   4.336   4.491   6.159
  759TIP3    H1 2220   4.285   4.511   6.080
  759TIP3    H2 2221   4.276   4.439   6.214
  760TIP3   OH2 2222   8.038   3.916   4.548
  760TIP3    H1 2223   7.957   3.959   4.576
  760TIP3    H2 2224   8.014   3.823   4.542
  761TIP3   OH2 2225   5.185   4.127   5.311
  761TIP3    H1 2226   5.207   4.034   5.313
  761TIP3    H2 2227   5.103   4.134   5.360
  762TIP3   OH2 2228   0.100   2.456   0.756
  762TIP3    H1 2229   0.119   2.407   0.676
  762TIP3    H2 2230   0.106   2.391   0.826
  763TIP3   OH2 2231   5.835   4.165   1.641
  763TIP3    H1 2232   5.830   4.139   1.733
  763TIP3    H2 2233   5.744   4.162   1.611
  764TIP3   OH2 2234   2.009   4.516   0.112
  764TIP3    H1 2235   1.966   4.450   0.058
  764TIP3    H2 2236   2.002   4.597   0.061
  765TIP3   OH2 2237   6.534   1.367   2.644
  765TIP3    H1 2238   6.486   1.288   2.670
  765TIP3    H2 2239   6.517   1.429   2.715
  766TIP3   OH2 2240   1.998   5.542   5.573
  766TIP3    H1 2241   1.913   5.575   5.544
  766TIP3    H2 2242   2.024   5.479   5.507
  767TIP3   OH2 2243   1.820   7.422   3.027
  767TIP3    H1 2244   1.844   7.491   3.089
  767TIP3    H2 2245   1.904   7.385   2.999
  768TIP3   OH2 2246   6.620   5.512   2.978
  768TIP3    H1 2247   6.629   5.418   2.960
  768TIP3    H2 2248   6.656   5.554   2.900
  769TIP3   OH2 2249   3.483   4.496   3.895
  769TIP3    H1 2250   3.486   4.563   3.827
  769TIP3    H2 2251   3.464   4.545   3.976
  770TIP3   OH2 2252   3.683   3.540   4.005
  770TIP3    H1 2253   3.609   3.479   4.010
  770TIP3    H2 2254   3.709   3.554   4.096
  771TIP3   OH2 2255   4.925   0.765   1.966
  771TIP3    H1 2256   4.842   0.813   1.960
  771TIP3    H2 2257   4.987   0.820   1.917
  772TIP3   OH2 2258   5.436   2.055   2.438
  772TIP3    H1 2259   5.380   2.003   2.496
  772TIP3    H2 2260   5.399   2.144   2.444
  773TIP3   OH2 2261   6.688   1.807   0.315
  773TIP3    H1 2262   6.692   1.890   0.266
  773TIP3    H2 2263   6.757   1.753   0.276
  774TIP3   OH2 2264   4.014   3.407   0.289
  774TIP3    H1 2265   3.921   3.405   0.312
  774TIP3    H2 2266   4.028   3.328   0.237
  775TIP3   OH2 2267   5.385   7.172   3.716
  775TIP3    H1 2268   5.449   7.101   3.727
  775TIP3    H2 2269   5.418   7.242   3.772
  776TIP3   OH2 2270   6.106   3.083   0.342
  776TIP3    H1 2271   6.199   3.064   0.330
  776TIP3    H2 2272   6.085   3.145   0.272
  777TIP3   OH2 2273   6.165   0.994   4.771
  777TIP3    H1 2274   6.190   1.076   4.814
  777TIP3    H2 2275   6.178   0.927   4.838
  778TIP3   OH2 2276   0.489   3.207   1.646
  778TIP3    H1 2277   0.484   3.268   1.572
  778TIP3    H2 2278   0.397   3.190   1.669
  779TIP3   OH2 2279   5.584   5.916   0.390
  779TIP3    H1 2280   5.597   5.969   0.469
  779TIP3    H2 2281   5.672   5.885   0.368
  780TIP3   OH2 2282   0.326   2.169   3.154
  780TIP3    H1 2283   0.289   2.128   3.233
  780TIP3    H2 2284   0.386   2.102   3.119
  781TIP3   OH2 2285   1.565   1.215   1.370
  781TIP3    H1 2286   1.571   1.120   1.371
  781TIP3    H2 2287   1.474   1.233   1.396
  782TIP3   OH2 2288   3.531   6.980   1.903
  782TIP3    H1 2289   3.447   7.023   1.923
  782TIP3    H2 2290   3.514   6.932   1.822
  783TIP3   OH2 2291   7.018   5.824   1.157
  783TIP3    H1 2292   7.102   5.859   1.185
  783TIP3    H2 2293   7.023   5.822   1.061
  784TIP3   OH2 2294   0.866   3.884   0.574
  784TIP3    H1 2295   0.794   3.879   0.512
  784TIP3    H2 2296   0.871   3.797   0.613
  785TIP3   OH2 2297   4.260   5.340   3.649
  785TIP3    H1 2298   4.268   5.382   3.563
  785TIP3    H2 2299   4.183   5.284   3.641
  786TIP3   OH2 2300   1.858   7.565   1.784
  786TIP3    H1 2301   1.939   7.593   1.742
  786TIP3    H2 2302   1.883   7.490   1.837
  787TIP3   OH2 2303   6.766   6.212   2.504
  787TIP3    H1 2304   6.671   6.207   2.517
  787TIP3    H2 2305   6.798   6.124   2.524
  788TIP3   OH2 2306   2.526   4.836   5.491
  788TIP3    H1 2307   2.535   4.929   5.512
  788TIP3    H2 2308   2.443   4.831   5.443
  789TIP3   OH2 2309   0.310   2.188   0.628
  789TIP3    H1 2310   0.346   2.106   0.592
  789TIP3    H2 2311   0.326   2.253   0.559
  790TIP3   OH2 2312   5.739   5.468   1.531
  790TIP3    H1 2313   5.728   5.528   1.458
  790TIP3    H2 2314   5.802   5.511   1.589
  791TIP3   OH2 2315   7.416   6.100   1.991
  791TIP3    H1 2316   7.336   6.151   2.002
  791TIP3    H2 2317   7.475   6.157   1.942
  792TIP3   OH2 2318   0.644   1.720   3.166
  792TIP3    H1 2319   0.638   1.809   3.201
  792TIP3    H2 2320   0.585   1.669   3.222
  793TIP3   OH2 2321   8.015   5.197   6.219
  793TIP3    H1 2322   8.080   5.157   6.161
  793TIP3    H2 2323   8.011   5.139   6.294
  794TIP3   OH2 2324   1.528   3.395   3.445
  794TIP3    H1 2325   1.529   3.469   3.506
  794TIP3    H2 2326   1.585   3.330   3.486
  795TIP3   OH2 2327   7.176   6.238   1.999
  795TIP3    H1 2328   7.149   6.305   2.062
  795TIP3    H2 2329   7.137   6.265   1.916
  796TIP3   OH2 2330   5.947   1.880   3.582
  796TIP3    H1 2331   5.955   1.967   3.544
  796TIP3    H2 2332   5.857   1.853   3.563
  797TIP3   OH2 2333   6.506   6.867   4.348
  797TIP3    H1 2334   6.439   6.900   4.408
  797TIP3    H2 2335   6.457   6.812   4.287
  798TIP3   OH2 2336   0.433   0.938   2.158
  798TIP3    H1 2337   0.417   0.943   2.252
  798TIP3    H2 2338   0.524   0.910   2.150
  799TIP3   OH2 2339   3.690   4.396   5.795
  799TIP3    H1 2340   3.642   4.367   5.718
  799TIP3    H2 2341   3.632   4.376   5.869
  800TIP3   OH2 2342   2.042   5.621   2.983
  800TIP3    H1 2343   2.126   5.667   2.977
  800TIP3    H2 2344   2.015   5.634   3.074
  801TIP3   OH2 2345   3.201   5.322   4.901
  801TIP3    H1 2346   3.294   5.341   4.890
  801TIP3    H2 2347   3.178   5.363   4.985
  802TIP3   OH2 2348   1.990   5.623   3.237
  802TIP3    H1 2349   2.052   5.644   3.306
  802TIP3    H2 2350   1.966   5.531   3.253
  803TIP3   OH2 2351   3.668   6.937   3.338
  803TIP3    H1 2352   3.760   6.911   3.334
  803TIP3    H2 2353   3.624   6.864   3.383
  804TIP3   OH2 2354   2.561   7.308   2.460
  804TIP3    H1 2355   2.491   7.270   2.406
  804TIP3    H2 2356   2.580   7.392   2.418
  805TIP3   OH2 2357   5.099   1.505   1.779
  805TIP3    H1 2358   5.152   1.509   1.700
  805TIP3    H2 2359   5.010   1.494   1.748
  806TIP3   OH2 2360   2.913   4.403   5.261
  806TIP3    H1 2361   2.984   4.465   5.250
  806TIP3    H2 2362   2.851   4.425   5.192
  807TIP3   OH2 2363   6.011   4.170   6.494
  807TIP3    H1 2364   5.968   4.206   6.571
  807TIP3    H2 2365   6.062   4.095   6.526
  808TIP3   OH2 2366   4.711   7.054   2.545
  808TIP3    H1 2367   4.748   7.112   2.611
  808TIP3    H2 2368   4.787   7.011   2.506
  809TIP3   OH2 2369   4.211   1.554   2.243
  809TIP3    H1 2370   4.201   1.583   2.333
  809TIP3    H2 2371   4.136   1.495   2.229
  810TIP3   OH2 2372   6.984   3.628   5.874
  810TIP3    H1 2373   7.017   3.598   5.789
  810TIP3    H2 2374   7.050   3.691   5.905
  811TIP3   OH2 2375   4.095   3.577   2.145
  811TIP3    H1 2376   4.025   3.594   2.207
  811TIP3    H2 2377   4.086   3.646   2.079
  812TIP3   OH2 2378  -0.008   0.245   2.344
  812TIP3    H1 2379   0.051   0.224   2.416
  812TIP3    H2 2380   0.043   0.224   2.265
  813TIP3   OH2 2381   3.657   2.103   2.780
  813TIP3    H1 2382   3.742   2.092   2.823
  813TIP3    H2 2383   3.594   2.091   2.850
  814TIP3   OH2 2384   8.075   3.728   5.361
  814TIP3    H1 2385   7.986   3.749   5.388
  814TIP3    H2 2386   8.119   3.703   5.442
  815TIP3   OH2 2387   2.054   6.952   3.154
  815TIP3    H1 2388   2.147   6.968   3.168
  815TIP3    H2 2389   2.038   6.866   3.193
  816TIP3   OH2 2390   0.386   1.575   4.078
  816TIP3    H1 2391   0.445   1.502   4.065
  816TIP3    H2 2392   0.347   1.560   4.164
  817TIP3   OH2 2393   6.848   7.534   1.369
  817TIP3    H1 2394   6.865   7.585   1.449
  817TIP3    H2 2395   6.916   7.467   1.369
  818TIP3   OH2 2396   5.810   2.994   2.443
  818TIP3    H1 2397   5.795   3.034   2.358
  818TIP3    H2 2398   5.787   3.063   2.506
  819TIP3   OH2 2399   3.099   2.858   3.287
  819TIP3    H1 2400   3.062   2.837   3.202
  819TIP3    H2 2401   3.024   2.872   3.344
  820TIP3   OH2 2402   6.185   0.281   3.517
  820TIP3    H1 2403   6.243   0.252   3.446
  820TIP3    H2 2404   6.175   0.375   3.503
  821TIP3   OH2 2405   7.331   3.236   4.715
  821TIP3    H1 2406   7.238   3.219   4.723
  821TIP3    H2 2407   7.361   3.252   4.804
  822TIP3   OH2 2408   7.968   1.566   2.863
  822TIP3    H1 2409   7.953   1.503   2.793
  822TIP3    H2 2410   8.059   1.593   2.852
  823TIP3   OH2 2411   7.210   6.934   2.562
  823TIP3    H1 2412   7.139   6.888   2.516
  823TIP3    H2 2413   7.281   6.937   2.499
  824TIP3   OH2 2414   1.100   6.764   6.274
  824TIP3    H1 2415   1.126   6.853   6.298
  824TIP3    H2 2416   1.181   6.713   6.276
  825TIP3   OH2 2417   5.515   1.914   4.531
  825TIP3    H1 2418   5.594   1.952   4.570
  825TIP3    H2 2419   5.548   1.844   4.476
  826TIP3   OH2 2420   0.835   5.177   2.947
  826TIP3    H1 2421   0.862   5.086   2.930
  826TIP3    H2 2422   0.871   5.227   2.874
  827TIP3   OH2 2423   0.188   5.957   4.050
  827TIP3    H1 2424   0.229   6.022   4.107
  827TIP3    H2 2425   0.143   5.898   4.111
  828TIP3   OH2 2426   4.428   6.570   4.766
  828TIP3    H1 2427   4.468   6.599   4.848
  828TIP3    H2 2428   4.385   6.648   4.731
  829TIP3   OH2 2429   1.485   0.068   5.788
  829TIP3    H1 2430   1.563   0.077   5.734
  829TIP3    H2 2431   1.513   0.094   5.876
  830TIP3   OH2 2432   0.401   1.606   6.338
  830TIP3    H1 2433   0.462   1.540   6.372
  830TIP3    H2 2434   0.330   1.608   6.402
  831TIP3   OH2 2435   2.677   1.488   5.704
  831TIP3    H1 2436   2.655   1.397   5.685
  831TIP3    H2 2437   2.770   1.495   5.685
  832TIP3   OH2 2438   2.819   4.375   4.889
  832TIP3    H1 2439   2.870   4.453   4.864
  832TIP3    H2 2440   2.783   4.343   4.806
  833TIP3   OH2 2441   1.008   1.181   4.893
  833TIP3    H1 2442   1.029   1.088   4.896
  833TIP3    H2 2443   1.018   1.212   4.983
  834TIP3   OH2 2444   4.392   2.949   5.571
  834TIP3    H1 2445   4.328   2.879   5.564
  834TIP3    H2 2446   4.340   3.028   5.581
  835TIP3   OH2 2447   0.682   5.517   2.087
  835TIP3    H1 2448   0.587   5.517   2.101
  835TIP3    H2 2449   0.697   5.589   2.026
  836TIP3   OH2 2450   2.911   7.226   4.821
  836TIP3    H1 2451   2.975   7.278   4.774
  836TIP3    H2 2452   2.836   7.285   4.834
  837TIP3   OH2 2453   3.005   0.415   4.592
  837TIP3    H1 2454   2.941   0.351   4.561
  837TIP3    H2 2455   2.980   0.497   4.548
  838TIP3   OH2 2456   6.327   5.802   1.576
  838TIP3    H1 2457   6.337   5.761   1.662
  838TIP3    H2 2458   6.348   5.733   1.513
  839TIP3   OH2 2459   2.315   7.630   4.416
  839TIP3    H1 2460   2.346   7.698   4.475
  839TIP3    H2 2461   2.222   7.648   4.406
  840TIP3   OH2 2462   4.833   2.925   1.042
  840TIP3    H1 2463   4.810   2.984   1.114
  840TIP3    H2 2464   4.918   2.888   1.068
  841TIP3   OH2 2465   0.009   2.894   0.150
  841TIP3    H1 2466   0.010   2.955   0.224
  841TIP3    H2 2467  -0.014   2.949   0.075
  842TIP3   OH2 2468   5.478   4.708   0.441
  842TIP3    H1 2469   5.460   4.777   0.378
  842TIP3    H2 2470   5.509   4.635   0.388
  843TIP3   OH2 2471   6.936   6.228   3.505
  843TIP3    H1 2472   6.940   6.298   3.439
  843TIP3    H2 2473   6.970   6.268   3.584
  844TIP3   OH2 2474   0.237   4.212   4.272
  844TIP3    H1 2475   0.217   4.258   4.353
  844TIP3    H2 2476   0.269   4.280   4.213
  845TIP3   OH2 2477   7.132   6.194   5.702
  845TIP3    H1 2478   7.211   6.244   5.724
  845TIP3    H2 2479   7.080   6.196   5.783
  846TIP3   OH2 2480   8.244   1.306   2.394
  846TIP3    H1 2481   8.311   1.240   2.375
  846TIP3    H2 2482   8.226   1.346   2.309
  847TIP3   OH2 2483   3.817   7.479   3.120
  847TIP3    H1 2484   3.808   7.398   3.170
  847TIP3    H2 2485   3.731   7.520   3.126
  848TIP3   OH2 2486   2.888   7.571   5.581
  848TIP3    H1 2487   2.841   7.617   5.650
  848TIP3    H2 2488   2.827   7.505   5.549
  849TIP3   OH2 2489   3.371   0.814   0.228
  849TIP3    H1 2490   3.367   0.901   0.187
  849TIP3    H2 2491   3.406   0.831   0.316
  850TIP3   OH2 2492   6.452   1.306   3.275
  850TIP3    H1 2493   6.464   1.217   3.240
  850TIP3    H2 2494   6.357   1.313   3.286
  851TIP3   OH2 2495   1.649   4.161   1.026
  851TIP3    H1 2496   1.624   4.250   1.003
  851TIP3    H2 2497   1.744   4.164   1.034
  852TIP3   OH2 2498   7.328   3.099   6.197
  852TIP3    H1 2499   7.396   3.127   6.136
  852TIP3    H2 2500   7.366   3.025   6.244
  853TIP3   OH2 2501   2.923   6.041   5.766
  853TIP3    H1 2502   2.874   5.993   5.699
  853TIP3    H2 2503   3.015   6.031   5.741
  854TIP3   OH2 2504   2.472   2.072   3.838
  854TIP3    H1 2505   2.464   2.026   3.921
  854TIP3    H2 2506   2.556   2.042   3.802
  855TIP3   OH2 2507   5.480   5.870   6.171
  855TIP3    H1 2508   5.402   5.897   6.219
  855TIP3    H2 2509   5.498   5.782   6.203
  856TIP3   OH2 2510   7.921   0.058   4.626
  856TIP3    H1 2511   7.931  -0.032   4.655
  856TIP3    H2 2512   7.970   0.063   4.544
  857TIP3   OH2 2513   5.747   2.840   1.000
  857TIP3    H1 2514   5.828   2.891   1.000
  857TIP3    H2 2515   5.774   2.751   0.980
  858TIP3   OH2 2516   5.460   3.529   2.664
  858TIP3    H1 2517   5.396   3.457   2.669
  858TIP3    H2 2518   5.453   3.561   2.574
  859TIP3   OH2 2519   6.746   1.264   1.910
  859TIP3    H1 2520   6.797   1.183   1.914
  859TIP3    H2 2521   6.755   1.302   1.998
  860TIP3   OH2 2522   5.039   6.819   0.401
  860TIP3    H1 2523   4.961   6.768   0.380
  860TIP3    H2 2524   5.101   6.755   0.436
  861TIP3   OH2 2525   4.451   2.572   4.866
  861TIP3    H1 2526   4.362   2.570   4.830
  861TIP3    H2 2527   4.438   2.562   4.960
  862TIP3   OH2 2528   5.455   1.090   3.642
  862TIP3    H1 2529   5.392   1.045   3.586
  862TIP3    H2 2530   5.448   1.045   3.727
  863TIP3   OH2 2531   0.917   3.378   0.976
  863TIP3    H1 2532   0.829   3.356   0.947
  863TIP3    H2 2533   0.906   3.405   1.068
  864TIP3   OH2 2534   6.737   4.347   6.488
  864TIP3    H1 2535   6.829   4.321   6.492
  864TIP3    H2 2536   6.715   4.343   6.395
  865TIP3   OH2 2537   5.122   2.676   4.531
  865TIP3    H1 2538   5.188   2.691   4.464
  865TIP3    H2 2539   5.057   2.745   4.517
  866TIP3   OH2 2540   0.204   2.766   1.384
  866TIP3    H1 2541   0.282   2.817   1.364
  866TIP3    H2 2542   0.189   2.714   1.305
  867TIP3   OH2 2543   8.158   3.059   2.536
  867TIP3    H1 2544   8.215   3.076   2.611
  867TIP3    H2 2545   8.208   2.997   2.482
  868TIP3   OH2 2546   1.276   5.333   2.826
  868TIP3    H1 2547   1.360   5.379   2.823
  868TIP3    H2 2548   1.282   5.268   2.756
  869TIP3   OH2 2549   6.889   5.050   2.151
  869TIP3    H1 2550   6.811   5.105   2.146
  869TIP3    H2 2551   6.863   4.977   2.208
  870TIP3   OH2 2552   8.168   2.690   3.794
  870TIP3    H1 2553   8.175   2.704   3.700
  870TIP3    H2 2554   8.200   2.771   3.833
  871TIP3   OH2 2555   4.131   0.323   4.853
  871TIP3    H1 2556   4.060   0.374   4.893
  871TIP3    H2 2557   4.198   0.388   4.833
  872TIP3   OH2 2558   5.925   4.761   2.112
  872TIP3    H1 2559   5.847   4.739   2.163
  872TIP3    H2 2560   5.892   4.815   2.040
  873TIP3   OH2 2561   4.949   1.937   5.219
  873TIP3    H1 2562   4.941   1.968   5.129
  873TIP3    H2 2563   5.033   1.971   5.249
  874TIP3   OH2 2564   4.854   2.136   2.740
  874TIP3    H1 2565   4.908   2.215   2.744
  874TIP3    H2 2566   4.873   2.098   2.655
  875TIP3   OH2 2567   7.881   6.834   3.253
  875TIP3    H1 2568   7.797   6.842   3.299
  875TIP3    H2 2569   7.873   6.753   3.203
  876TIP3   OH2 2570   4.267   2.889   3.448
  876TIP3    H1 2571   4.224   2.967   3.413
  876TIP3    H2 2572   4.235   2.817   3.395
  877TIP3   OH2 2573   2.973   3.606   4.660
  877TIP3    H1 2574   2.934   3.538   4.716
  877TIP3    H2 2575   2.914   3.681   4.670
  878TIP3   OH2 2576   2.553   4.780   2.020
  878TIP3    H1 2577   2.489   4.850   2.005
  878TIP3    H2 2578   2.635   4.814   1.986
  879TIP3   OH2 2579   4.046   2.174   1.467
  879TIP3    H1 2580   4.001   2.173   1.383
  879TIP3    H2 2581   4.106   2.249   1.461
  880TIP3   OH2 2582   2.353   3.315   1.106
  880TIP3    H1 2583   2.402   3.388   1.145
  880TIP3    H2 2584   2.419   3.264   1.059
  881TIP3   OH2 2585   5.317   1.375   0.785
  881TIP3    H1 2586   5.265   1.312   0.834
  881TIP3    H2 2587   5.328   1.449   0.845
  882TIP3   OH2 2588   0.465   1.109   4.561
  882TIP3    H1 2589   0.503   1.024   4.584
  882TIP3    H2 2590   0.430   1.142   4.644
  883TIP3   OH2 2591   3.966   1.558   6.184
  883TIP3    H1 2592   4.039   1.618   6.172
  883TIP3    H2 2593   3.924   1.553   6.098
  884TIP3   OH2 2594   2.860   4.105   5.022
  884TIP3    H1 2595   2.845   4.186   4.972
  884TIP3    H2 2596   2.777   4.057   5.015
  885TIP3   OH2 2597   1.339   6.804   3.965
  885TIP3    H1 2598   1.294   6.864   3.905
  885TIP3    H2 2599   1.269   6.765   4.017
  886TIP3   OH2 2600   2.112   4.835   0.222
  886TIP3    H1 2601   2.128   4.890   0.299
  886TIP3    H2 2602   2.198   4.827   0.180
  887TIP3   OH2 2603   7.503   7.201   1.604
  887TIP3    H1 2604   7.563   7.263   1.562
  887TIP3    H2 2605   7.558   7.155   1.667
  888TIP3   OH2 2606   6.830   4.572   2.713
  888TIP3    H1 2607   6.920   4.576   2.747
  888TIP3    H2 2608   6.818   4.480   2.689
  889TIP3   OH2 2609   5.018   0.213   1.652
  889TIP3    H1 2610   5.085   0.274   1.621
  889TIP3    H2 2611   4.936   0.262   1.644
  890TIP3   OH2 2612   3.623   2.360   4.044
  890TIP3    H1 2613   3.615   2.318   3.958
  890TIP3    H2 2614   3.539   2.403   4.058
  891TIP3   OH2 2615   4.632   2.647   6.798
  891TIP3    H1 2616   4.611   2.719   6.739
  891TIP3    H2 2617   4.569   2.579   6.776
  892TIP3   OH2 2618   7.343   3.487   3.809
  892TIP3    H1 2619   7.358   3.442   3.726
  892TIP3    H2 2620   7.414   3.551   3.815
  893TIP3   OH2 2621   1.341   1.820   3.481
  893TIP3    H1 2622   1.295   1.737   3.490
  893TIP3    H2 2623   1.418   1.799   3.428
  894TIP3   OH2 2624   0.611   4.736   1.647
  894TIP3    H1 2625   0.532   4.744   1.700
  894TIP3    H2 2626   0.682   4.765   1.704
  895TIP3   OH2 2627   8.047   6.069   0.819
  895TIP3    H1 2628   8.003   6.145   0.856
  895TIP3    H2 2629   8.099   6.105   0.747
  896TIP3   OH2 2630   5.337   3.220   6.245
  896TIP3    H1 2631   5.391   3.279   6.297
  896TIP3    H2 2632   5.396   3.149   6.218
  897TIP3   OH2 2633   2.748   2.552   4.589
  897TIP3    H1 2634   2.842   2.552   4.604
  897TIP3    H2 2635   2.723   2.460   4.588
  898TIP3   OH2 2636   0.381   4.750   0.363
  898TIP3    H1 2637   0.401   4.656   0.356
  898TIP3    H2 2638   0.436   4.780   0.435
  899TIP3   OH2 2639   6.649   0.179   2.612
  899TIP3    H1 2640   6.604   0.234   2.547
  899TIP3    H2 2641   6.587   0.107   2.629
  900TIP3   OH2 2642   4.747   0.601   5.268
  900TIP3    H1 2643   4.818   0.643   5.317
  900TIP3    H2 2644   4.721   0.667   5.204
  901TIP3   OH2 2645   3.669   2.750   2.411
  901TIP3    H1 2646   3.701   2.770   2.499
  901TIP3    H2 2647   3.660   2.836   2.369
  902TIP3   OH2 2648   7.743   3.655   4.372
  902TIP3    H1 2649   7.729   3.565   4.343
  902TIP3    H2 2650   7.836   3.659   4.393
  903TIP3   OH2 2651   6.227   4.529   0.545
  903TIP3    H1 2652   6.139   4.512   0.512
  903TIP3    H2 2653   6.259   4.602   0.492
  904TIP3   OH2 2654   0.383   0.953   3.550
  904TIP3    H1 2655   0.392   0.916   3.638
  904TIP3    H2 2656   0.309   1.013   3.557
  905TIP3   OH2 2657   2.263   6.618   4.230
  905TIP3    H1 2658   2.257   6.569   4.312
  905TIP3    H2 2659   2.352   6.602   4.199
  906TIP3   OH2 2660   4.044   2.988   5.775
  906TIP3    H1 2661   3.973   3.019   5.831
  906TIP3    H2 2662   4.031   2.893   5.770
  907TIP3   OH2 2663   4.667   4.006   5.557
  907TIP3    H1 2664   4.601   4.050   5.504
  907TIP3    H2 2665   4.670   3.917   5.522
  908TIP3   OH2 2666   7.988   2.544   1.650
  908TIP3    H1 2667   8.037   2.474   1.692
  908TIP3    H2 2668   7.963   2.509   1.564
  909TIP3   OH2 2669   5.482   2.935   0.963
  909TIP3    H1 2670   5.475   2.946   1.057
  909TIP3    H2 2671   5.550   2.870   0.951
  910TIP3   OH2 2672   1.308   1.807   1.987
  910TIP3    H1 2673   1.281   1.821   2.078
  910TIP3    H2 2674   1.227   1.813   1.937
  911TIP3   OH2 2675   5.816   1.268   5.068
  911TIP3    H1 2676   5.740   1.269   5.127
  911TIP3    H2 2677   5.823   1.177   5.039
  912TIP3   OH2 2678   2.341   1.311   3.125
  912TIP3    H1 2679   2.260   1.260   3.137
  912TIP3    H2 2680   2.322   1.369   3.051
  913TIP3   OH2 2681   0.986   2.589   0.912
  913TIP3    H1 2682   1.005   2.667   0.964
  913TIP3    H2 2683   0.891   2.579   0.917
  914TIP3   OH2 2684   6.723   1.380   3.283
  914TIP3    H1 2685   6.636   1.342   3.273
  914TIP3    H2 2686   6.776   1.308   3.318
  915TIP3   OH2 2687   7.084   5.380   6.124
  915TIP3    H1 2688   7.173   5.397   6.093
  915TIP3    H2 2689   7.028   5.418   6.057
  916TIP3   OH2 2690   5.635   6.234   3.884
  916TIP3    H1 2691   5.576   6.219   3.810
  916TIP3    H2 2692   5.586   6.294   3.942
  917TIP3   OH2 2693   5.285   3.053   3.043
  917TIP3    H1 2694   5.368   3.011   3.019
  917TIP3    H2 2695   5.255   3.005   3.121
  918TIP3   OH2 2696   1.646   4.413   3.456
  918TIP3    H1 2697   1.645   4.497   3.410
  918TIP3    H2 2698   1.703   4.357   3.404
  919TIP3   OH2 2699   3.982   3.486   5.894
  919TIP3    H1 2700   4.052   3.551   5.904
  919TIP3    H2 2701   3.906   3.526   5.936
  920TIP3   OH2 2702   4.137   3.659   4.785
  920TIP3    H1 2703   4.168   3.568   4.787
  920TIP3    H2 2704   4.134   3.682   4.692
  921TIP3   OH2 2705   1.175   1.614   6.515
  921TIP3    H1 2706   1.249   1.653   6.468
  921TIP3    H2 2707   1.115   1.687   6.530
  922TIP3   OH2 2708   2.144   2.881   1.043
  922TIP3    H1 2709   2.175   2.818   0.979
  922TIP3    H2 2710   2.223   2.915   1.084
  923TIP3   OH2 2711   6.825   2.176   4.970
  923TIP3    H1 2712   6.818   2.183   5.065
  923TIP3    H2 2713   6.735   2.174   4.938
  924TIP3   OH2 2714   0.490   0.014   3.061
  924TIP3    H1 2715   0.442   0.004   2.979
  924TIP3    H2 2716   0.519   0.105   3.061
  925TIP3   OH2 2717   4.569   6.567   5.510
  925TIP3    H1 2718   4.548   6.625   5.437
  925TIP3    H2 2719   4.516   6.488   5.495
  926TIP3   OH2 2720   1.436   7.660   6.568
  926TIP3    H1 2721   1.399   7.734   6.520
  926TIP3    H2 2722   1.509   7.697   6.618
  927TIP3   OH2 2723   5.701   2.746   4.574
  927TIP3    H1 2724   5.631   2.706   4.625
  927TIP3    H2 2725   5.781   2.718   4.618
  928TIP3   OH2 2726   7.825   5.875   4.225
  928TIP3    H1 2727   7.783   5.826   4.155
  928TIP3    H2 2728   7.895   5.924   4.181
  929TIP3   OH2 2729   3.105   4.270   2.153
  929TIP3    H1 2730   3.094   4.233   2.066
  929TIP3    H2 2731   3.055   4.351   2.152
  930TIP3   OH2 2732   0.757   5.704   6.143
  930TIP3    H1 2733   0.702   5.652   6.201
  930TIP3    H2 2734   0.695   5.758   6.094
  931TIP3   OH2 2735   0.153   0.594   3.899
  931TIP3    H1 2736   0.213   0.522   3.880
  931TIP3    H2 2737   0.191   0.637   3.975
  932TIP3   OH2 2738   2.490   5.929   6.399
  932TIP3    H1 2739   2.423   5.896   6.339
  932TIP3    H2 2740   2.492   6.023   6.383
  933TIP3   OH2 2741   3.420   2.400   2.439
  933TIP3    H1 2742   3.405   2.440   2.525
  933TIP3    H2 2743   3.505   2.357   2.448
  934TIP3   OH2 2744   0.800   7.724   4.243
  934TIP3    H1 2745   0.785   7.798   4.303
  934TIP3    H2 2746   0.720   7.672   4.249
  935TIP3   OH2 2747   7.225   7.515   4.840
  935TIP3    H1 2748   7.218   7.420   4.856
  935TIP3    H2 2749   7.312   7.538   4.873
  936TIP3   OH2 2750   5.300   1.235   3.891
  936TIP3    H1 2751   5.330   1.144   3.892
  936TIP3    H2 2752   5.354   1.277   3.824
  937TIP3   OH2 2753   4.202   2.854   2.804
  937TIP3    H1 2754   4.118   2.857   2.849
  937TIP3    H2 2755   4.263   2.898   2.863
  938TIP3   OH2 2756   3.659   0.336   4.933
  938TIP3    H1 2757   3.702   0.356   5.016
  938TIP3    H2 2758   3.621   0.249   4.945
  939TIP3   OH2 2759   5.600   3.604   2.898
  939TIP3    H1 2760   5.680   3.565   2.862
  939TIP3    H2 2761   5.556   3.642   2.822
  940TIP3   OH2 2762   4.932   6.428   2.936
  940TIP3    H1 2763   5.021   6.464   2.934
  940TIP3    H2 2764   4.944   6.334   2.922
  941TIP3   OH2 2765   1.216   7.409   5.825
  941TIP3    H1 2766   1.296   7.386   5.777
  941TIP3    H2 2767   1.238   7.490   5.871
  942TIP3   OH2 2768   8.002   4.154   2.765
  942TIP3    H1 2769   8.005   4.172   2.671
  942TIP3    H2 2770   7.970   4.236   2.804
  943TIP3   OH2 2771   2.041   5.355   6.091
  943TIP3    H1 2772   2.066   5.415   6.021
  943TIP3    H2 2773   1.985   5.408   6.148
  944TIP3   OH2 2774   1.838   0.601   4.453
  944TIP3    H1 2775   1.836   0.538   4.525
  944TIP3    H2 2776   1.822   0.686   4.494
  945TIP3   OH2 2777   6.095   0.933   0.265
  945TIP3    H1 2778   6.100   0.896   0.176
  945TIP3    H2 2779   6.123   1.024   0.254
  946TIP3   OH2 2780   6.993   1.386   2.522
  946TIP3    H1 2781   7.001   1.296   2.490
  946TIP3    H2 2782   6.900   1.397   2.542
  947TIP3   OH2 2783   7.189   3.400   6.724
  947TIP3    H1 2784   7.120   3.445   6.771
  947TIP3    H2 2785   7.152   3.383   6.637
  948TIP3   OH2 2786   1.911   6.994   3.590
  948TIP3    H1 2787   1.849   6.932   3.550
  948TIP3    H2 2788   1.872   7.080   3.573
  949TIP3   OH2 2789   4.433   4.155   5.074
  949TIP3    H1 2790   4.346   4.116   5.063
  949TIP3    H2 2791   4.492   4.080   5.082
  950TIP3   OH2 2792   2.789   5.021   2.797
  950TIP3    H1 2793   2.735   5.064   2.731
  950TIP3    H2 2794   2.761   5.058   2.880
  951TIP3   OH2 2795   0.270   0.504   5.787
  951TIP3    H1 2796   0.338   0.447   5.823
  951TIP3    H2 2797   0.303   0.593   5.802
  952TIP3   OH2 2798   5.274   7.350   1.831
  952TIP3    H1 2799   5.307   7.288   1.896
  952TIP3    H2 2800   5.275   7.435   1.876
  953TIP3   OH2 2801   3.501   2.964   6.509
  953TIP3    H1 2802   3.527   2.893   6.567
  953TIP3    H2 2803   3.537   2.940   6.423
  954TIP3   OH2 2804   2.006   5.035   6.601
  954TIP3    H1 2805   1.917   5.000   6.598
  954TIP3    H2 2806   2.004   5.110   6.542
  955TIP3   OH2 2807   1.363   0.888   4.510
  955TIP3    H1 2808   1.285   0.854   4.466
  955TIP3    H2 2809   1.335   0.902   4.601
  956TIP3   OH2 2810   8.158   1.474   6.129
  956TIP3    H1 2811   8.102   1.551   6.116
  956TIP3    H2 2812   8.131   1.439   6.214
  957TIP3   OH2 2813   1.524   0.377   0.143
  957TIP3    H1 2814   1.470   0.379   0.064
  957TIP3    H2 2815   1.476   0.322   0.204
  958TIP3   OH2 2816   2.367   6.960   3.858
  958TIP3    H1 2817   2.280   6.997   3.847
  958TIP3    H2 2818   2.422   7.009   3.797
  959TIP3   OH2 2819   6.830   7.093   5.261
  959TIP3    H1 2820   6.807   7.146   5.336
  959TIP3    H2 2821   6.786   7.009   5.276
  960TIP3   OH2 2822   0.877   2.380   5.061
  960TIP3    H1 2823   0.791   2.338   5.066
  960TIP3    H2 2824   0.938   2.311   5.088
  961TIP3   OH2 2825   4.008   7.355   5.775
  961TIP3    H1 2826   3.916   7.369   5.752
  961TIP3    H2 2827   4.006   7.284   5.839
  962TIP3   OH2 2828   2.481   6.709   3.840
  962TIP3    H1 2829   2.427   6.788   3.827
  962TIP3    H2 2830   2.556   6.740   3.892
  963TIP3   OH2 2831   7.059   3.150   5.239
  963TIP3    H1 2832   7.039   3.075   5.296
  963TIP3    H2 2833   6.976   3.198   5.234
  964TIP3   OH2 2834   5.907   3.511   5.665
  964TIP3    H1 2835   5.856   3.548   5.593
  964TIP3    H2 2836   5.984   3.473   5.622
  965TIP3   OH2 2837   7.708   2.661   0.101
  965TIP3    H1 2838   7.736   2.709   0.178
  965TIP3    H2 2839   7.662   2.584   0.135
  966TIP3   OH2 2840   8.266   5.048   5.265
  966TIP3    H1 2841   8.348   4.999   5.260
  966TIP3    H2 2842   8.259   5.073   5.357
  967TIP3   OH2 2843   3.026   4.967   0.636
  967TIP3    H1 2844   3.062   4.950   0.723
  967TIP3    H2 2845   3.003   5.060   0.638
  968TIP3   OH2 2846   3.843   1.149   3.182
  968TIP3    H1 2847   3.878   1.116   3.265
  968TIP3    H2 2848   3.816   1.239   3.202
  969TIP3   OH2 2849   6.453   4.066   5.110
  969TIP3    H1 2850   6.449   4.129   5.182
  969TIP3    H2 2851   6.403   4.107   5.040
  970TIP3   OH2 2852   5.561   0.108   5.529
  970TIP3    H1 2853   5.587   0.039   5.590
  970TIP3    H2 2854   5.642   0.136   5.488
  971TIP3   OH2 2855   5.479   6.355   1.316
  971TIP3    H1 2856   5.496   6.357   1.410
  971TIP3    H2 2857   5.398   6.305   1.307
  972TIP3   OH2 2858   2.483   6.090   2.670
  972TIP3    H1 2859   2.518   6.082   2.759
  972TIP3    H2 2860   2.524   6.018   2.622
  973TIP3   OH2 2861   7.821   4.950   6.430
  973TIP3    H1 2862   7.869   4.875   6.394
  973TIP3    H2 2863   7.789   4.997   6.353
  974TIP3   OH2 2864   0.650   1.391   1.499
  974TIP3    H1 2865   0.671   1.328   1.430
  974TIP3    H2 2866   0.663   1.476   1.458
  975TIP3   OH2 2867   7.919   1.150   0.220
  975TIP3    H1 2868   7.834   1.173   0.185
  975TIP3    H2 2869   7.957   1.090   0.156
  976TIP3   OH2 2870   5.501   2.838   3.953
  976TIP3    H1 2871   5.420   2.798   3.982
  976TIP3    H2 2872   5.531   2.891   4.027
  977TIP3   OH2 2873   2.117   2.548   4.557
  977TIP3    H1 2874   2.199   2.502   4.574
  977TIP3    H2 2875   2.061   2.484   4.512
  978TIP3   OH2 2876   3.530   6.051   1.687
  978TIP3    H1 2877   3.506   6.103   1.763
  978TIP3    H2 2878   3.453   6.054   1.630
  979TIP3   OH2 2879   3.065   5.534   0.818
  979TIP3    H1 2880   3.160   5.536   0.804
  979TIP3    H2 2881   3.029   5.496   0.738
  980TIP3   OH2 2882   6.100   6.023   6.473
  980TIP3    H1 2883   6.186   6.059   6.452
  980TIP3    H2 2884   6.112   5.928   6.469
  981TIP3   OH2 2885   0.945   0.478   5.016
  981TIP3    H1 2886   0.956   0.463   4.922
  981TIP3    H2 2887   0.977   0.397   5.056
  982TIP3   OH2 2888   6.391   2.766   4.312
  982TIP3    H1 2889   6.389   2.858   4.340
  982TIP3    H2 2890   6.320   2.759   4.249
  983TIP3   OH2 2891   4.826   5.315   3.320
  983TIP3    H1 2892   4.890   5.354   3.260
  983TIP3    H2 2893   4.761   5.274   3.263
  984TIP3   OH2 2894   7.614   4.032   5.280
  984TIP3    H1 2895   7.669   3.983   5.341
  984TIP3    H2 2896   7.604   4.118   5.320
  985TIP3   OH2 2897   2.435   4.725   0.358
  985TIP3    H1 2898   2.411   4.731   0.266
  985TIP3    H2 2899   2.479   4.640   0.366
  986TIP3   OH2 2900   3.070   2.769   0.481
  986TIP3    H1 2901   2.979   2.739   0.471
  986TIP3    H2 2902   3.096   2.736   0.567
  987TIP3   OH2 2903   6.900   6.098   5.418
  987TIP3    H1 2904   6.934   6.013   5.445
  987TIP3    H2 2905   6.842   6.124   5.488
  988TIP3   OH2 2906   1.201   2.323   3.477
  988TIP3    H1 2907   1.172   2.243   3.519
  988TIP3    H2 2908   1.293   2.332   3.505
  989TIP3   OH2 2909   0.653   1.115   2.973
  989TIP3    H1 2910   0.573   1.166   2.989
  989TIP3    H2 2911   0.703   1.168   2.911
  990TIP3   OH2 2912   5.862   6.789   0.059
  990TIP3    H1 2913   5.768   6.772   0.052
  990TIP3    H2 2914   5.885   6.829  -0.025
  991TIP3   OH2 2915   6.028   0.379   4.279
  991TIP3    H1 2916   6.062   0.459   4.239
  991TIP3    H2 2917   5.933   0.384   4.266
  992TIP3   OH2 2918   7.677   4.140   3.120
  992TIP3    H1 2919   7.747   4.113   3.179
  992TIP3    H2 2920   7.656   4.061   3.070
  993TIP3   OH2 2921   0.259   4.666   3.319
  993TIP3    H1 2922   0.342   4.623   3.339
  993TIP3    H2 2923   0.197   4.630   3.382
  994TIP3   OH2 2924   7.587   3.950   6.010
  994TIP3    H1 2925   7.539   3.918   6.086
  994TIP3    H2 2926   7.520   3.962   5.942
  995TIP3   OH2 2927   3.668   7.119   2.884
  995TIP3    H1 2928   3.637   7.206   2.859
  995TIP3    H2 2929   3.761   7.119   2.860
  996TIP3   OH2 2930   1.594   3.144   4.480
  996TIP3    H1 2931   1.654   3.215   4.503
  996TIP3    H2 2932   1.560   3.113   4.564
  997TIP3   OH2 2933   7.808   4.474   2.638
  997TIP3    H1 2934   7.842   4.419   2.567
  997TIP3    H2 2935   7.780   4.554   2.594
  998TIP3   OH2 2936   8.099   5.465   1.852
  998TIP3    H1 2937   8.048   5.540   1.819
  998TIP3    H2 2938   8.036   5.415   1.904
  999TIP3   OH2 2939   5.857   4.182   5.731
  999TIP3    H1 2940   5.797   4.117   5.695
  999TIP3    H2 2941   5.822   4.202   5.817
 1000TIP3   OH2 2942   8.226   4.460   4.671
 1000TIP3    H1 2943   8.206   4.412   4.751
 1000TIP3    H2 2944   8.286   4.530   4.698
 1001TIP3   OH2 2945   8.145   0.481   5.116
 1001TIP3    H1 2946   8.178   0.529   5.191
 1001TIP3    H2 2947   8.084   0.541   5.073
 1002TIP3   OH2 2948   3.197   1.613   5.196
 1002TIP3    H1 2949   3.239   1.698   5.186
 1002TIP3    H2 2950   3.154   1.616   5.281
 1003TIP3   OH2 2951   7.403   5.703   6.012
 1003TIP3    H1 2952   7.358   5.754   5.944
 1003TIP3    H2 2953   7.493   5.696   5.981
 1004TIP3   OH2 2954   3.064   6.589   2.353
 1004TIP3    H1 2955   2.992   6.528   2.366
 1004TIP3    H2 2956   3.024   6.665   2.310
 1005TIP3   OH2 2957   1.647   2.023   6.334
 1005TIP3    H1 2958   1.670   1.933   6.357
 1005TIP3    H2 2959   1.552   2.024   6.332
 1006TIP3   OH2 2960   1.113   1.847   1.043
 1006TIP3    H1 2961   1.044   1.911   1.062
 1006TIP3    H2 2962   1.068   1.777   0.997
 1007TIP3   OH2 2963   6.369   7.160   2.132
 1007TIP3    H1 2964   6.397   7.081   2.087
 1007TIP3    H2 2965   6.336   7.218   2.063
 1008TIP3   OH2 2966   7.559   3.306   3.430
 1008TIP3    H1 2967   7.507   3.355   3.366
 1008TIP3    H2 2968   7.534   3.342   3.515
 1009TIP3   OH2 2969   2.891   5.743   6.537
 1009TIP3    H1 2970   2.977   5.745   6.494
 1009TIP3    H2 2971   2.859   5.832   6.530
 1010TIP3   OH2 2972   6.545   6.159   4.262
 1010TIP3    H1 2973   6.608   6.165   4.334
 1010TIP3    H2 2974   6.544   6.065   4.240
 1011TIP3   OH2 2975   6.006   0.109   5.022
 1011TIP3    H1 2976   6.043   0.165   5.090
 1011TIP3    H2 2977   5.912   0.127   5.025
 1012TIP3   OH2 2978   2.811   0.680   2.364
 1012TIP3    H1 2979   2.720   0.708   2.367
 1012TIP3    H2 2980   2.815   0.619   2.291
 1013TIP3   OH2 2981   2.771   3.331   5.840
 1013TIP3    H1 2982   2.831   3.283   5.898
 1013TIP3    H2 2983   2.760   3.416   5.883
 1014TIP3   OH2 2984   5.834   6.478   3.053
 1014TIP3    H1 2985   5.762   6.418   3.032
 1014TIP3    H2 2986   5.820   6.500   3.146
 1015TIP3   OH2 2987   0.846   7.727   6.435
 1015TIP3    H1 2988   0.798   7.802   6.401
 1015TIP3    H2 2989   0.845   7.739   6.530
 1016TIP3   OH2 2990   4.123   6.121   2.786
 1016TIP3    H1 2991   4.203   6.077   2.757
 1016TIP3    H2 2992   4.155   6.198   2.834
 1017TIP3   OH2 2993   2.416   5.863   1.548
 1017TIP3    H1 2994   2.395   5.898   1.461
 1017TIP3    H2 2995   2.418   5.941   1.604
 1018TIP3   OH2 2996   3.516   7.123   0.186
 1018TIP3    H1 2997   3.444   7.152   0.241
 1018TIP3    H2 2998   3.473   7.080   0.112
 1019TIP3   OH2 2999   5.177   2.023   1.652
 1019TIP3    H1 3000   5.194   1.945   1.704
 1019TIP3    H2 3001   5.126   2.080   1.710
 1020TIP3   OH2 3002   2.446   0.000   0.153
 1020TIP3    H1 3003   2.480  -0.035   0.235
 1020TIP3    H2 3004   2.383   0.067   0.179
 1021TIP3   OH2 3005   6.546   1.578   2.819
 1021TIP3    H1 3006   6.453   1.579   2.843
 1021TIP3    H2 3007   6.592   1.593   2.902
 1022TIP3   OH2 3008   4.745   0.035   2.136
 1022TIP3    H1 3009   4.665  -0.016   2.123
 1022TIP3    H2 3010   4.789   0.033   2.051
 1023TIP3   OH2 3011   0.806   7.104   5.435
 1023TIP3    H1 3012   0.887   7.095   5.486
 1023TIP3    H2 3013   0.796   7.199   5.424
 1024TIP3   OH2 3014   7.681   3.609   2.310
 1024TIP3    H1 3015   7.761   3.585   2.264
 1024TIP3    H2 3016   7.633   3.527   2.321
 1025TIP3   OH2 3017   0.650   2.633   2.577
 1025TIP3    H1 3018   0.627   2.637   2.484
 1025TIP3    H2 3019   0.581   2.580   2.616
 1026TIP3   OH2 3020   2.515   6.225   0.368
 1026TIP3    H1 3021   2.443   6.183   0.415
 1026TIP3    H2 3022   2.594   6.194   0.412
 1027TIP3   OH2 3023   3.411   1.867   3.837
 1027TIP3    H1 3024   3.454   1.855   3.922
 1027TIP3    H2 3025   3.474   1.835   3.773
 1028TIP3   OH2 3026   2.963   0.122   4.896
 1028TIP3    H1 3027   3.026   0.078   4.953
 1028TIP3    H2 3028   2.992   0.213   4.895
 1029TIP3   OH2 3029   6.262   1.127   3.376
 1029TIP3    H1 3030   6.248   1.108   3.283
 1029TIP3    H2 3031   6.181   1.101   3.419
 1030TIP3   OH2 3032   6.382   3.027   3.908
 1030TIP3    H1 3033   6.351   3.101   3.856
 1030TIP3    H2 3034   6.449   2.986   3.854
 1031TIP3   OH2 3035   1.613   6.775   1.586
 1031TIP3    H1 3036   1.672   6.738   1.652
 1031TIP3    H2 3037   1.526   6.764   1.624
 1032TIP3   OH2 3038   0.893   2.807   3.372
 1032TIP3    H1 3039   0.957   2.806   3.301
 1032TIP3    H2 3040   0.844   2.889   3.358
 1033TIP3   OH2 3041   4.457   1.696   2.913
 1033TIP3    H1 3042   4.503   1.616   2.887
 1033TIP3    H2 3043   4.372   1.666   2.945
 1034TIP3   OH2 3044   5.954   7.600   6.596
 1034TIP3    H1 3045   6.035   7.614   6.548
 1034TIP3    H2 3046   5.885   7.607   6.530
 1035TIP3   OH2 3047   5.157   2.096   1.401
 1035TIP3    H1 3048   5.160   2.075   1.494
 1035TIP3    H2 3049   5.198   2.183   1.395
 1036TIP3   OH2 3050   7.763   3.262   2.942
 1036TIP3    H1 3051   7.708   3.185   2.927
 1036TIP3    H2 3052   7.701   3.330   2.969
 1037TIP3   OH2 3053   0.976   7.642   3.194
 1037TIP3    H1 3054   0.906   7.605   3.140
 1037TIP3    H2 3055   0.975   7.736   3.175
 1038TIP3   OH2 3056   3.825   2.442   1.106
 1038TIP3    H1 3057   3.769   2.449   1.029
 1038TIP3    H2 3058   3.889   2.374   1.084
 1039TIP3   OH2 3059   1.581   5.034   6.325
 1039TIP3    H1 3060   1.647   5.100   6.303
 1039TIP3    H2 3061   1.593   4.966   6.259
 1040TIP3   OH2 3062   1.293   2.692   5.173
 1040TIP3    H1 3063   1.259   2.671   5.086
 1040TIP3    H2 3064   1.219   2.727   5.221
 1041TIP3   OH2 3065   0.412   1.034   0.492
 1041TIP3    H1 3066   0.500   1.024   0.528
 1041TIP3    H2 3067   0.360   1.067   0.566
 1042TIP3   OH2 3068   7.211   5.939   4.188
 1042TIP3    H1 3069   7.270   5.939   4.264
 1042TIP3    H2 3070   7.123   5.934   4.226
 1043TIP3   OH2 3071   4.278   2.788   2.538
 1043TIP3    H1 3072   4.228   2.745   2.469
 1043TIP3    H2 3073   4.234   2.763   2.619
 1044TIP3   OH2 3074   2.409   2.200   3.491
 1044TIP3    H1 3075   2.408   2.110   3.522
 1044TIP3    H2 3076   2.406   2.254   3.570
 1045TIP3   OH2 3077   2.573   3.390   4.567
 1045TIP3    H1 3078   2.594   3.363   4.657
 1045TIP3    H2 3079   2.516   3.320   4.534
 1046TIP3   OH2 3080   2.859   3.180   2.681
 1046TIP3    H1 3081   2.932   3.154   2.738
 1046TIP3    H2 3082   2.897   3.185   2.594
 1047TIP3   OH2 3083   4.444   0.992   1.090
 1047TIP3    H1 3084   4.459   0.923   1.155
 1047TIP3    H2 3085   4.485   1.070   1.127
 1048TIP3   OH2 3086   6.217   4.303   3.004
 1048TIP3    H1 3087   6.310   4.301   2.981
 1048TIP3    H2 3088   6.197   4.213   3.032
 1049TIP3   OH2 3089   3.662   1.502   6.594
 1049TIP3    H1 3090   3.709   1.474   6.515
 1049TIP3    H2 3091   3.574   1.522   6.564
 1050TIP3   OH2 3092   4.271   3.184   3.915
 1050TIP3    H1 3093   4.183   3.210   3.943
 1050TIP3    H2 3094   4.317   3.267   3.901
 1051TIP3   OH2 3095   1.267   5.932   6.637
 1051TIP3    H1 3096   1.265   6.024   6.663
 1051TIP3    H2 3097   1.188   5.920   6.585
 1052TIP3   OH2 3098   5.545   4.257   4.430
 1052TIP3    H1 3099   5.601   4.234   4.503
 1052TIP3    H2 3100   5.535   4.352   4.437
 1053TIP3   OH2 3101   1.020   3.887   4.395
 1053TIP3    H1 3102   1.019   3.856   4.304
 1053TIP3    H2 3103   0.952   3.953   4.398
 1054TIP3   OH2 3104   5.245   7.509   3.112
 1054TIP3    H1 3105   5.218   7.551   3.031
 1054TIP3    H2 3106   5.233   7.575   3.179
 1055TIP3   OH2 3107   7.179   1.250   4.894
 1055TIP3    H1 3108   7.233   1.197   4.953
 1055TIP3    H2 3109   7.091   1.213   4.904
 1056TIP3   OH2 3110   2.865   0.597   0.337
 1056TIP3    H1 3111   2.960   0.596   0.341
 1056TIP3    H2 3112   2.842   0.514   0.295
 1057TIP3   OH2 3113   1.575   6.670   5.902
 1057TIP3    H1 3114   1.545   6.652   5.813
 1057TIP3    H2 3115   1.647   6.608   5.916
 1058TIP3   OH2 3116   3.776   2.294   6.385
 1058TIP3    H1 3117   3.850   2.245   6.420
 1058TIP3    H2 3118   3.700   2.239   6.405
 1059TIP3   OH2 3119   5.649   3.845   3.045
 1059TIP3    H1 3120   5.666   3.874   2.955
 1059TIP3    H2 3121   5.609   3.759   3.035
 1060TIP3   OH2 3122   0.144   2.625   6.500
 1060TIP3    H1 3123   0.179   2.703   6.456
 1060TIP3    H2 3124   0.186   2.551   6.455
 1061TIP3   OH2 3125   1.141   3.801   0.142
 1061TIP3    H1 3126   1.160   3.726   0.198
 1061TIP3    H2 3127   1.153   3.768   0.053
 1062TIP3   OH2 3128   3.351   1.928   6.417
 1062TIP3    H1 3129   3.282   1.894   6.474
 1062TIP3    H2 3130   3.396   1.850   6.385
 1063TIP3   OH2 3131   6.456   3.751   0.331
 1063TIP3    H1 3132   6.383   3.799   0.371
 1063TIP3    H2 3133   6.511   3.818   0.293
 1064TIP3   OH2 3134   7.409   3.312   0.496
 1064TIP3    H1 3135   7.440   3.239   0.443
 1064TIP3    H2 3136   7.368   3.271   0.572
 1065TIP3   OH2 3137   6.186   6.471   1.076
 1065TIP3    H1 3138   6.098   6.509   1.074
 1065TIP3    H2 3139   6.236   6.525   1.016
 1066TIP3   OH2 3140   3.688   2.740   1.794
 1066TIP3    H1 3141   3.736   2.752   1.712
 1066TIP3    H2 3142   3.739   2.676   1.843
 1067TIP3   OH2 3143   1.768   0.403   2.304
 1067TIP3    H1 3144   1.707   0.451   2.359
 1067TIP3    H2 3145   1.720   0.386   2.223
 1068TIP3   OH2 3146   7.355   6.808   4.181
 1068TIP3    H1 3147   7.260   6.802   4.188
 1068TIP3    H2 3148   7.384   6.834   4.268
 1069TIP3   OH2 3149   7.064   7.020   3.251
 1069TIP3    H1 3150   7.029   6.963   3.320
 1069TIP3    H2 3151   6.986   7.046   3.201
 1070TIP3   OH2 3152   4.917   1.713   4.233
 1070TIP3    H1 3153   4.856   1.700   4.305
 1070TIP3    H2 3154   5.004   1.712   4.274
 1071TIP3   OH2 3155   6.736   5.962   2.031
 1071TIP3    H1 3156   6.726   5.981   2.124
 1071TIP3    H2 3157   6.829   5.974   2.014
 1072TIP3   OH2 3158   8.221   1.871   3.746
 1072TIP3    H1 3159   8.215   1.900   3.655
 1072TIP3    H2 3160   8.131   1.879   3.779
 1073TIP3   OH2 3161   3.848   2.706   6.261
 1073TIP3    H1 3162   3.888   2.767   6.199
 1073TIP3    H2 3163   3.830   2.627   6.209
 1074TIP3   OH2 3164   3.545   7.545   3.058
 1074TIP3    H1 3165   3.521   7.494   3.135
 1074TIP3    H2 3166   3.506   7.497   2.985
 1075TIP3   OH2 3167   4.345   4.966   2.186
 1075TIP3    H1 3168   4.251   4.948   2.191
 1075TIP3    H2 3169   4.386   4.882   2.204
 1076TIP3   OH2 3170   0.306   5.972   1.154
 1076TIP3    H1 3171   0.369   6.016   1.211
 1076TIP3    H2 3172   0.347   5.974   1.068
 1077TIP3   OH2 3173   3.773   0.789   0.433
 1077TIP3    H1 3174   3.680   0.769   0.426
 1077TIP3    H2 3175   3.790   0.852   0.363
 1078TIP3   OH2 3176   3.772   1.951   3.690
 1078TIP3    H1 3177   3.864   1.956   3.715
 1078TIP3    H2 3178   3.769   1.983   3.600
 1079TIP3   OH2 3179   4.710   6.479   3.099
 1079TIP3    H1 3180   4.795   6.458   3.060
 1079TIP3    H2 3181   4.661   6.521   3.027
 1080TIP3   OH2 3182   0.395   1.008   5.823
 1080TIP3    H1 3183   0.317   1.062   5.836
 1080TIP3    H2 3184   0.426   1.031   5.735
 1081TIP3   OH2 3185   1.862   0.908   4.117
 1081TIP3    H1 3186   1.920   0.977   4.085
 1081TIP3    H2 3187   1.852   0.927   4.210
 1082TIP3   OH2 3188   4.005   0.193   2.425
 1082TIP3    H1 3189   4.021   0.159   2.513
 1082TIP3    H2 3190   4.090   0.226   2.396
 1083TIP3   OH2 3191   1.797   2.265   2.983
 1083TIP3    H1 3192   1.724   2.224   2.937
 1083TIP3    H2 3193   1.873   2.249   2.927
 1084TIP3   OH2 3194   6.259   1.570   2.872
 1084TIP3    H1 3195   6.202   1.645   2.889
 1084TIP3    H2 3196   6.282   1.537   2.959
 1085TIP3   OH2 3197   0.872   4.517   4.805
 1085TIP3    H1 3198   0.934   4.589   4.802
 1085TIP3    H2 3199   0.812   4.533   4.732
 1086TIP3   OH2 3200   4.173   7.592   4.754
 1086TIP3    H1 3201   4.184   7.686   4.747
 1086TIP3    H2 3202   4.089   7.580   4.798
 1087TIP3   OH2 3203   0.838   4.052   5.913
 1087TIP3    H1 3204   0.922   4.046   5.958
 1087TIP3    H2 3205   0.826   4.146   5.896
 1088TIP3   OH2 3206   1.440   6.727   0.731
 1088TIP3    H1 3207   1.532   6.709   0.749
 1088TIP3    H2 3208   1.440   6.779   0.651
 1089TIP3   OH2 3209   5.846   7.139   1.491
 1089TIP3    H1 3210   5.885   7.226   1.479
 1089TIP3    H2 3211   5.919   7.085   1.522
 1090TIP3   OH2 3212   7.426   2.859   6.618
 1090TIP3    H1 3213   7.512   2.892   6.644
 1090TIP3    H2 3214   7.365   2.927   6.648
 1091TIP3   OH2 3215   7.620   1.345   5.647
 1091TIP3    H1 3216   7.551   1.338   5.581
 1091TIP3    H2 3217   7.701   1.351   5.597
 1092TIP3   OH2 3218   0.953   3.404   4.137
 1092TIP3    H1 3219   0.883   3.345   4.108
 1092TIP3    H2 3220   0.928   3.429   4.227
 1093TIP3   OH2 3221   4.061   0.829   2.587
 1093TIP3    H1 3222   4.058   0.866   2.676
 1093TIP3    H2 3223   4.146   0.856   2.553
 1094TIP3   OH2 3224   6.660   7.612   2.503
 1094TIP3    H1 3225   6.639   7.553   2.575
 1094TIP3    H2 3226   6.595   7.683   2.510
 1095TIP3   OH2 3227   0.597   3.841   2.426
 1095TIP3    H1 3228   0.567   3.919   2.473
 1095TIP3    H2 3229   0.688   3.860   2.403
 1096TIP3   OH2 3230   1.888   1.963   4.058
 1096TIP3    H1 3231   1.953   2.005   4.115
 1096TIP3    H2 3232   1.876   1.876   4.098
 1097TIP3   OH2 3233   0.387   6.538   1.632
 1097TIP3    H1 3234   0.401   6.461   1.578
 1097TIP3    H2 3235   0.395   6.507   1.722
 1098TIP3   OH2 3236   0.071   7.756   0.637
 1098TIP3    H1 3237   0.089   7.788   0.548
 1098TIP3    H2 3238   0.074   7.835   0.692
 1099TIP3   OH2 3239   6.108   5.827   0.469
 1099TIP3    H1 3240   6.159   5.908   0.481
 1099TIP3    H2 3241   6.018   5.853   0.487
 1100TIP3   OH2 3242   0.575   5.347   6.056
 1100TIP3    H1 3243   0.538   5.435   6.057
 1100TIP3    H2 3244   0.647   5.352   5.994
 1101TIP3   OH2 3245   3.337   4.668   5.642
 1101TIP3    H1 3246   3.291   4.599   5.594
 1101TIP3    H2 3247   3.361   4.732   5.574
 1102TIP3   OH2 3248   0.116   1.361   6.100
 1102TIP3    H1 3249   0.032   1.402   6.122
 1102TIP3    H2 3250   0.137   1.395   6.013
 1103TIP3   OH2 3251   5.447   4.015   3.193
 1103TIP3    H1 3252   5.362   3.983   3.222
 1103TIP3    H2 3253   5.493   3.937   3.163
 1104TIP3   OH2 3254   6.506   4.118   3.380
 1104TIP3    H1 3255   6.446   4.043   3.383
 1104TIP3    H2 3256   6.451   4.192   3.357
 1105TIP3   OH2 3257   2.867   2.082   3.672
 1105TIP3    H1 3258   2.793   2.088   3.611
 1105TIP3    H2 3259   2.915   2.005   3.643
 1106TIP3   OH2 3260   5.181   6.319   0.945
 1106TIP3    H1 3261   5.175   6.226   0.924
 1106TIP3    H2 3262   5.227   6.322   1.029
 1107TIP3   OH2 3263   6.726   3.165   2.116
 1107TIP3    H1 3264   6.683   3.190   2.034
 1107TIP3    H2 3265   6.790   3.234   2.131
 1108TIP3   OH2 3266   3.010   4.851   2.111
 1108TIP3    H1 3267   3.090   4.899   2.128
 1108TIP3    H2 3268   3.037   4.760   2.102
 1109TIP3   OH2 3269   0.567   6.449   3.330
 1109TIP3    H1 3270   0.585   6.460   3.236
 1109TIP3    H2 3271   0.619   6.518   3.371
 1110TIP3   OH2 3272   5.031   4.992   0.318
 1110TIP3    H1 3273   5.091   5.029   0.383
 1110TIP3    H2 3274   5.057   5.032   0.235
 1111TIP3   OH2 3275   6.939   6.714   0.674
 1111TIP3    H1 3276   6.978   6.733   0.589
 1111TIP3    H2 3277   6.850   6.749   0.668
 1112TIP3   OH2 3278   0.511   4.770   6.755
 1112TIP3    H1 3279   0.421   4.777   6.788
 1112TIP3    H2 3280   0.506   4.804   6.666
 1113TIP3   OH2 3281   7.625   5.141   1.133
 1113TIP3    H1 3282   7.628   5.046   1.119
 1113TIP3    H2 3283   7.657   5.153   1.222
 1114TIP3   OH2 3284   6.955   7.581   0.014
 1114TIP3    H1 3285   6.895   7.612   0.081
 1114TIP3    H2 3286   7.017   7.524   0.060
 1115TIP3   OH2 3287   2.713   5.489   2.052
 1115TIP3    H1 3288   2.782   5.479   2.117
 1115TIP3    H2 3289   2.759   5.509   1.970
 1116TIP3   OH2 3290   0.161   3.954   4.213
 1116TIP3    H1 3291   0.067   3.956   4.197
 1116TIP3    H2 3292   0.180   4.040   4.251
 1117TIP3   OH2 3293   6.287   0.506   4.865
 1117TIP3    H1 3294   6.328   0.427   4.828
 1117TIP3    H2 3295   6.361   0.561   4.890
 1118TIP3   OH2 3296   6.039   3.618   4.868
 1118TIP3    H1 3297   6.085   3.699   4.890
 1118TIP3    H2 3298   6.040   3.615   4.773
 1119TIP3   OH2 3299   6.808   2.893   2.120
 1119TIP3    H1 3300   6.785   2.984   2.141
 1119TIP3    H2 3301   6.862   2.900   2.042
 1120TIP3   OH2 3302   3.809   3.519   0.070
 1120TIP3    H1 3303   3.850   3.586   0.124
 1120TIP3    H2 3304   3.755   3.469   0.132
 1121TIP3   OH2 3305   4.685   5.554   0.700
 1121TIP3    H1 3306   4.780   5.555   0.716
 1121TIP3    H2 3307   4.650   5.620   0.760
 1122TIP3   OH2 3308   4.612   1.535   2.221
 1122TIP3    H1 3309   4.652   1.557   2.305
 1122TIP3    H2 3310   4.548   1.467   2.242
 1123TIP3   OH2 3311   5.356   3.623   6.352
 1123TIP3    H1 3312   5.415   3.623   6.428
 1123TIP3    H2 3313   5.345   3.715   6.331
 1124TIP3   OH2 3314   2.675   6.157   4.009
 1124TIP3    H1 3315   2.624   6.128   4.085
 1124TIP3    H2 3316   2.761   6.115   4.021
 1125TIP3   OH2 3317   5.398   6.924   6.131
 1125TIP3    H1 3318   5.417   6.871   6.208
 1125TIP3    H2 3319   5.384   6.861   6.060
 1126TIP3   OH2 3320   3.740   6.061   4.474
 1126TIP3    H1 3321   3.790   5.993   4.519
 1126TIP3    H2 3322   3.651   6.026   4.469
 1127TIP3   OH2 3323   0.086   6.234   1.993
 1127TIP3    H1 3324   0.124   6.150   1.967
 1127TIP3    H2 3325  -0.004   6.212   2.019
 1128TIP3   OH2 3326   1.608   0.117   2.446
 1128TIP3    H1 3327   1.530   0.084   2.491
 1128TIP3    H2 3328   1.621   0.204   2.483
 1129TIP3   OH2 3329   6.936   6.854   4.619
 1129TIP3    H1 3330   6.922   6.946   4.641
 1129TIP3    H2 3331   6.866   6.833   4.557
 1130TIP3   OH2 3332   4.254   1.429   2.769
 1130TIP3    H1 3333   4.308   1.357   2.803
 1130TIP3    H2 3334   4.232   1.481   2.846
 1131TIP3   OH2 3335   7.156   3.421   5.061
 1131TIP3    H1 3336   7.167   3.328   5.080
 1131TIP3    H2 3337   7.193   3.433   4.974
 1132TIP3   OH2 3338   4.997   5.989   0.750
 1132TIP3    H1 3339   4.953   5.929   0.689
 1132TIP3    H2 3340   4.925   6.039   0.789
 1133TIP3   OH2 3341   0.313   0.980   0.955
 1133TIP3    H1 3342   0.324   0.891   0.989
 1133TIP3    H2 3343   0.330   1.037   1.030
 1134TIP3   OH2 3344   3.232   5.397   6.673
 1134TIP3    H1 3345   3.220   5.314   6.626
 1134TIP3    H2 3346   3.144   5.435   6.677
 1135TIP3   OH2 3347   7.747   2.172   5.841
 1135TIP3    H1 3348   7.797   2.253   5.834
 1135TIP3    H2 3349   7.801   2.106   5.797
 1136TIP3   OH2 3350   2.179   0.147   5.751
 1136TIP3    H1 3351   2.256   0.094   5.770
 1136TIP3    H2 3352   2.178   0.154   5.656
 1137TIP3   OH2 3353   2.817   0.539   1.695
 1137TIP3    H1 3354   2.792   0.550   1.787
 1137TIP3    H2 3355   2.817   0.628   1.660
 1138TIP3   OH2 3356   1.555   3.487   6.014
 1138TIP3    H1 3357   1.512   3.410   5.976
 1138TIP3    H2 3358   1.641   3.455   6.041
 1139TIP3   OH2 3359   4.015   6.327   0.602
 1139TIP3    H1 3360   4.023   6.264   0.530
 1139TIP3    H2 3361   4.081   6.394   0.582
 1140TIP3   OH2 3362   1.152   7.590   2.572
 1140TIP3    H1 3363   1.100   7.512   2.590
 1140TIP3    H2 3364   1.132   7.612   2.481
 1141TIP3   OH2 3365   5.669   4.797   5.160
 1141TIP3    H1 3366   5.705   4.721   5.205
 1141TIP3    H2 3367   5.730   4.813   5.088
 1142TIP3   OH2 3368   7.569   0.829   4.827
 1142TIP3    H1 3369   7.574   0.924   4.840
 1142TIP3    H2 3370   7.543   0.819   4.736
 1143TIP3   OH2 3371   4.095   5.508   0.149
 1143TIP3    H1 3372   4.083   5.451   0.072
 1143TIP3    H2 3373   4.006   5.533   0.174
 1144TIP3   OH2 3374   4.650   1.310   6.600
 1144TIP3    H1 3375   4.641   1.405   6.598
 1144TIP3    H2 3376   4.718   1.290   6.536
 1145TIP3   OH2 3377   3.222   6.325   2.341
 1145TIP3    H1 3378   3.297   6.379   2.315
 1145TIP3    H2 3379   3.180   6.301   2.259
 1146TIP3   OH2 3380   4.693   2.748   5.320
 1146TIP3    H1 3381   4.679   2.658   5.350
 1146TIP3    H2 3382   4.613   2.770   5.272
 1147TIP3   OH2 3383   2.435   2.473   1.364
 1147TIP3    H1 3384   2.436   2.473   1.268
 1147TIP3    H2 3385   2.367   2.409   1.387
 1148TIP3   OH2 3386   5.186   5.912   6.313
 1148TIP3    H1 3387   5.248   5.983   6.298
 1148TIP3    H2 3388   5.147   5.933   6.398
 1149TIP3   OH2 3389   3.914   4.250   5.109
 1149TIP3    H1 3390   3.937   4.333   5.069
 1149TIP3    H2 3391   3.825   4.232   5.079
 1150TIP3   OH2 3392   6.094   1.024   1.498
 1150TIP3    H1 3393   6.053   1.098   1.544
 1150TIP3    H2 3394   6.082   0.950   1.557
 1151TIP3   OH2 3395   4.960   4.982   4.402
 1151TIP3    H1 3396   4.866   4.971   4.420
 1151TIP3    H2 3397   4.977   4.924   4.328
 1152TIP3   OH2 3398   0.374   4.522   6.517
 1152TIP3    H1 3399   0.393   4.497   6.608
 1152TIP3    H2 3400   0.281   4.500   6.506
 1153TIP3   OH2 3401   4.947   5.298   3.582
 1153TIP3    H1 3402   5.033   5.341   3.584
 1153TIP3    H2 3403   4.918   5.307   3.491
 1154TIP3   OH2 3404   1.140   4.922   0.654
 1154TIP3    H1 3405   1.212   4.923   0.590
 1154TIP3    H2 3406   1.062   4.943   0.604
 1155TIP3   OH2 3407   1.844   7.722   0.500
 1155TIP3    H1 3408   1.853   7.689   0.589
 1155TIP3    H2 3409   1.762   7.684   0.468
 1156TIP3   OH2 3410   1.731   3.788   2.636
 1156TIP3    H1 3411   1.724   3.740   2.553
 1156TIP3    H2 3412   1.654   3.844   2.638
 1157TIP3   OH2 3413   7.679   2.369   5.326
 1157TIP3    H1 3414   7.642   2.431   5.264
 1157TIP3    H2 3415   7.748   2.418   5.371
 1158TIP3   OH2 3416   8.142   3.541   1.304
 1158TIP3    H1 3417   8.184   3.554   1.390
 1158TIP3    H2 3418   8.120   3.629   1.275
 1159TIP3   OH2 3419   3.668   2.560   6.459
 1159TIP3    H1 3420   3.662   2.473   6.497
 1159TIP3    H2 3421   3.602   2.561   6.390
 1160TIP3   OH2 3422   5.475   0.251   5.247
 1160TIP3    H1 3423   5.421   0.288   5.177
 1160TIP3    H2 3424   5.547   0.206   5.202
 1161TIP3   OH2 3425   7.132   1.874   4.760
 1161TIP3    H1 3426   7.045   1.914   4.751
 1161TIP3    H2 3427   7.136   1.810   4.689
 1162TIP3   OH2 3428   4.861   5.762   1.280
 1162TIP3    H1 3429   4.923   5.834   1.286
 1162TIP3    H2 3430   4.905   5.688   1.321
 1163TIP3   OH2 3431   5.204   3.632   4.301
 1163TIP3    H1 3432   5.109   3.636   4.312
 1163TIP3    H2 3433   5.222   3.692   4.228
 1164TIP3   OH2 3434   5.815   5.401   0.562
 1164TIP3    H1 3435   5.738   5.443   0.526
 1164TIP3    H2 3436   5.842   5.457   0.635
 1165TIP3   OH2 3437   6.612   7.314   2.933
 1165TIP3    H1 3438   6.639   7.236   2.982
 1165TIP3    H2 3439   6.646   7.388   2.982
 1166TIP3   OH2 3440   5.618   3.368   5.068
 1166TIP3    H1 3441   5.687   3.434   5.063
 1166TIP3    H2 3442   5.553   3.396   5.004
 1167TIP3   OH2 3443   3.766   5.762   5.865
 1167TIP3    H1 3444   3.756   5.670   5.841
 1167TIP3    H2 3445   3.860   5.775   5.873
 1168TIP3   OH2 3446   4.028   3.933   0.403
 1168TIP3    H1 3447   4.076   3.905   0.326
 1168TIP3    H2 3448   4.093   3.977   0.458
 1169TIP3   OH2 3449   6.330   5.674   4.430
 1169TIP3    H1 3450   6.397   5.606   4.436
 1169TIP3    H2 3451   6.248   5.627   4.444
 1170TIP3   OH2 3452   6.892   2.442   0.614
 1170TIP3    H1 3453   6.974   2.468   0.656
 1170TIP3    H2 3454   6.859   2.522   0.572
 1171TIP3   OH2 3455   1.407   2.688   2.002
 1171TIP3    H1 3456   1.445   2.709   1.917
 1171TIP3    H2 3457   1.404   2.772   2.048
 1172TIP3   OH2 3458   2.405   0.387   2.882
 1172TIP3    H1 3459   2.317   0.423   2.891
 1172TIP3    H2 3460   2.407   0.315   2.944
 1173TIP3   OH2 3461   4.941   3.467   3.820
 1173TIP3    H1 3462   4.983   3.553   3.811
 1173TIP3    H2 3463   4.848   3.487   3.825
 1174TIP3   OH2 3464   1.124   0.153   0.543
 1174TIP3    H1 3465   1.190   0.155   0.613
 1174TIP3    H2 3466   1.080   0.069   0.554
 1175TIP3   OH2 3467   5.492   0.863   3.118
 1175TIP3    H1 3468   5.476   0.776   3.155
 1175TIP3    H2 3469   5.571   0.853   3.065
 1176TIP3   OH2 3470   0.617   0.174   2.358
 1176TIP3    H1 3471   0.704   0.196   2.390
 1176TIP3    H2 3472   0.628   0.162   2.263
 1177TIP3   OH2 3473   5.832   4.722   6.215
 1177TIP3    H1 3474   5.788   4.805   6.228
 1177TIP3    H2 3475   5.761   4.658   6.203
 1178TIP3   OH2 3476   2.789   7.803   2.987
 1178TIP3    H1 3477   2.850   7.856   2.937
 1178TIP3    H2 3478   2.838   7.777   3.065
 1179TIP3   OH2 3479   3.790   2.585   3.960
 1179TIP3    H1 3480   3.884   2.570   3.971
 1179TIP3    H2 3481   3.749   2.537   4.031
 1180TIP3   OH2 3482   6.687   6.091   4.486
 1180TIP3    H1 3483   6.703   6.168   4.540
 1180TIP3    H2 3484   6.639   6.031   4.544
 1181TIP3   OH2 3485   7.678   5.136   4.789
 1181TIP3    H1 3486   7.695   5.184   4.871
 1181TIP3    H2 3487   7.638   5.201   4.731
 1182TIP3   OH2 3488   3.394   2.438   2.025
 1182TIP3    H1 3489   3.300   2.457   2.034
 1182TIP3    H2 3490   3.437   2.519   2.052
 1183TIP3   OH2 3491   4.798   3.055   6.367
 1183TIP3    H1 3492   4.874   3.093   6.410
 1183TIP3    H2 3493   4.810   3.077   6.274
 1184TIP3   OH2 3494   2.887   0.108   1.158
 1184TIP3    H1 3495   2.968   0.152   1.186
 1184TIP3    H2 3496   2.896   0.100   1.063
 1185TIP3   OH2 3497   2.500   0.032   2.694
 1185TIP3    H1 3498   2.502   0.037   2.790
 1185TIP3    H2 3499   2.517   0.121   2.665
 1186TIP3   OH2 3500   2.034   7.292   2.884
 1186TIP3    H1 3501   2.037   7.362   2.818
 1186TIP3    H2 3502   2.054   7.212   2.835
 1187TIP3   OH2 3503   5.915   1.105   0.862
 1187TIP3    H1 3504   5.973   1.030   0.873
 1187TIP3    H2 3505   5.889   1.129   0.950
 1188TIP3   OH2 3506   2.063   7.766   1.863
 1188TIP3    H1 3507   2.045   7.855   1.830
 1188TIP3    H2 3508   2.132   7.733   1.805
 1189TIP3   OH2 3509   6.422   2.879   2.129
 1189TIP3    H1 3510   6.491   2.872   2.063
 1189TIP3    H2 3511   6.385   2.966   2.118
 1190TIP3   OH2 3512   4.946   6.857   4.758
 1190TIP3    H1 3513   4.870   6.813   4.720
 1190TIP3    H2 3514   4.960   6.812   4.841
 1191TIP3   OH2 3515   1.786   4.219   4.309
 1191TIP3    H1 3516   1.789   4.242   4.216
 1191TIP3    H2 3517   1.796   4.124   4.310
 1192TIP3   OH2 3518   0.523   0.519   0.107
 1192TIP3    H1 3519   0.614   0.541   0.130
 1192TIP3    H2 3520   0.503   0.573   0.031
 1193TIP3   OH2 3521   4.606   0.311   4.315
 1193TIP3    H1 3522   4.671   0.242   4.328
 1193TIP3    H2 3523   4.587   0.308   4.221
 1194TIP3   OH2 3524   3.392   5.170   5.497
 1194TIP3    H1 3525   3.425   5.249   5.540
 1194TIP3    H2 3526   3.459   5.149   5.432
 1195TIP3   OH2 3527   4.621   1.542   4.087
 1195TIP3    H1 3528   4.533   1.566   4.116
 1195TIP3    H2 3529   4.672   1.533   4.167
 1196TIP3   OH2 3530   1.077   0.462   4.581
 1196TIP3    H1 3531   1.126   0.542   4.599
 1196TIP3    H2 3532   1.111   0.431   4.498
 1197TIP3   OH2 3533   1.145   6.180   5.649
 1197TIP3    H1 3534   1.082   6.226   5.705
 1197TIP3    H2 3535   1.229   6.223   5.667
 1198TIP3   OH2 3536   7.994   4.703   2.515
 1198TIP3    H1 3537   8.061   4.655   2.466
 1198TIP3    H2 3538   8.011   4.681   2.606
 1199TIP3   OH2 3539   6.537   3.570   5.476
 1199TIP3    H1 3540   6.463   3.630   5.469
 1199TIP3    H2 3541   6.565   3.576   5.567
 1200TIP3   OH2 3542   6.140   7.175   4.431
 1200TIP3    H1 3543   6.152   7.080   4.422
 1200TIP3    H2 3544   6.053   7.192   4.394
 1201TIP3   OH2 3545   6.154   2.921   1.924
 1201TIP3    H1 3546   6.117   2.844   1.967
 1201TIP3    H2 3547   6.221   2.884   1.865
 1202TIP3   OH2 3548   0.411   4.868   0.119
 1202TIP3    H1 3549   0.419   4.818   0.200
 1202TIP3    H2 3550   0.498   4.866   0.080
 1203TIP3   OH2 3551   3.428   3.810   0.935
 1203TIP3    H1 3552   3.370   3.737   0.912
 1203TIP3    H2 3553   3.516   3.777   0.918
 1204TIP3   OH2 3554   5.008   3.290   0.661
 1204TIP3    H1 3555   4.914   3.272   0.657
 1204TIP3    H2 3556   5.015   3.376   0.702
 1205TIP3   OH2 3557   2.154   0.437   3.554
 1205TIP3    H1 3558   2.176   0.443   3.461
 1205TIP3    H2 3559   2.059   0.444   3.557
 1206TIP3   OH2 3560   0.465   5.324   3.532
 1206TIP3    H1 3561   0.422   5.239   3.540
 1206TIP3    H2 3562   0.523   5.328   3.608
 1207TIP3   OH2 3563   3.706   7.282   5.051
 1207TIP3    H1 3564   3.678   7.289   5.143
 1207TIP3    H2 3565   3.626   7.293   5.001
 1208TIP3   OH2 3566   2.129   6.089   5.414
 1208TIP3    H1 3567   2.074   6.158   5.452
 1208TIP3    H2 3568   2.156   6.036   5.488
 1209TIP3   OH2 3569   7.412   7.363   3.093
 1209TIP3    H1 3570   7.448   7.447   3.121
 1209TIP3    H2 3571   7.485   7.320   3.047
 1210TIP3   OH2 3572   1.769   2.900   0.647
 1210TIP3    H1 3573   1.795   2.978   0.599
 1210TIP3    H2 3574   1.816   2.905   0.730
 1211TIP3   OH2 3575   2.855   3.933   3.334
 1211TIP3    H1 3576   2.793   3.919   3.262
 1211TIP3    H2 3577   2.912   4.003   3.302
 1212TIP3   OH2 3578   1.078   5.948   3.201
 1212TIP3    H1 3579   1.156   5.969   3.253
 1212TIP3    H2 3580   1.009   5.932   3.265
 1213TIP3   OH2 3581   3.930   6.268   1.529
 1213TIP3    H1 3582   3.846   6.226   1.511
 1213TIP3    H2 3583   3.954   6.236   1.617
 1214TIP3   OH2 3584   7.426   4.287   5.751
 1214TIP3    H1 3585   7.415   4.351   5.822
 1214TIP3    H2 3586   7.491   4.327   5.694
 1215TIP3   OH2 3587   1.746   3.554   3.298
 1215TIP3    H1 3588   1.742   3.465   3.332
 1215TIP3    H2 3589   1.655   3.578   3.281
 1216TIP3   OH2 3590   2.643   2.836   1.568
 1216TIP3    H1 3591   2.632   2.930   1.582
 1216TIP3    H2 3592   2.728   2.828   1.525
 1217TIP3   OH2 3593   3.448   7.677   4.300
 1217TIP3    H1 3594   3.363   7.664   4.260
 1217TIP3    H2 3595   3.457   7.772   4.306
 1218TIP3   OH2 3596   4.384   1.577   4.237
 1218TIP3    H1 3597   4.353   1.500   4.285
 1218TIP3    H2 3598   4.313   1.641   4.245
 1219TIP3   OH2 3599   3.935   1.927   5.944
 1219TIP3    H1 3600   3.922   1.982   5.867
 1219TIP3    H2 3601   3.905   1.981   6.017
 1220TIP3   OH2 3602   6.628  -0.029   6.202
 1220TIP3    H1 3603   6.638   0.034   6.131
 1220TIP3    H2 3604   6.553   0.002   6.252
 1221TIP3   OH2 3605   1.275   4.719   6.224
 1221TIP3    H1 3606   1.286   4.763   6.309
 1221TIP3    H2 3607   1.188   4.744   6.195
 1222TIP3   OH2 3608   8.235   2.216   5.125
 1222TIP3    H1 3609   8.239   2.253   5.213
 1222TIP3    H2 3610   8.151   2.246   5.090
 1223TIP3   OH2 3611   5.880   5.156   1.318
 1223TIP3    H1 3612   5.813   5.222   1.299
 1223TIP3    H2 3613   5.843   5.074   1.284
 1224TIP3   OH2 3614   1.701   1.476   0.333
 1224TIP3    H1 3615   1.739   1.389   0.344
 1224TIP3    H2 3616   1.709   1.494   0.239
 1225TIP3   OH2 3617   7.883   6.933   3.615
 1225TIP3    H1 3618   7.818   6.887   3.563
 1225TIP3    H2 3619   7.967   6.906   3.577
 1226TIP3   OH2 3620   3.515   5.427   6.165
 1226TIP3    H1 3621   3.559   5.511   6.180
 1226TIP3    H2 3622   3.484   5.433   6.074
 1227TIP3   OH2 3623   6.382   6.426   1.846
 1227TIP3    H1 3624   6.412   6.346   1.802
 1227TIP3    H2 3625   6.451   6.490   1.828
 1228TIP3   OH2 3626   2.916   6.737   6.027
 1228TIP3    H1 3627   2.954   6.824   6.015
 1228TIP3    H2 3628   2.954   6.684   5.957
 1229TIP3   OH2 3629   6.472   1.165   0.782
 1229TIP3    H1 3630   6.439   1.084   0.743
 1229TIP3    H2 3631   6.562   1.172   0.750
 1230TIP3   OH2 3632   8.252   1.625   4.147
 1230TIP3    H1 3633   8.228   1.711   4.110
 1230TIP3    H2 3634   8.287   1.645   4.233
 1231TIP3   OH2 3635   4.474   5.621   1.099
 1231TIP3    H1 3636   4.533   5.690   1.069
 1231TIP3    H2 3637   4.422   5.661   1.169
 1232TIP3   OH2 3638   3.055   1.511   0.257
 1232TIP3    H1 3639   3.088   1.469   0.337
 1232TIP3    H2 3640   3.048   1.604   0.280
 1233TIP3   OH2 3641   0.647   2.769   6.191
 1233TIP3    H1 3642   0.684   2.683   6.172
 1233TIP3    H2 3643   0.572   2.751   6.248
 1234TIP3   OH2 3644   6.748   6.169   0.253
 1234TIP3    H1 3645   6.738   6.245   0.196
 1234TIP3    H2 3646   6.665   6.163   0.300
 1235TIP3   OH2 3647   5.492   2.127   3.027
 1235TIP3    H1 3648   5.504   2.074   2.948
 1235TIP3    H2 3649   5.542   2.081   3.095
 1236TIP3   OH2 3650   3.578   0.603   1.116
 1236TIP3    H1 3651   3.546   0.523   1.157
 1236TIP3    H2 3652   3.641   0.639   1.179
 1237TIP3   OH2 3653   3.430   3.410   3.200
 1237TIP3    H1 3654   3.444   3.331   3.149
 1237TIP3    H2 3655   3.342   3.400   3.237
 1238TIP3   OH2 3656   4.290   5.262   4.586
 1238TIP3    H1 3657   4.198   5.249   4.608
 1238TIP3    H2 3658   4.305   5.355   4.601
 1239TIP3   OH2 3659   1.140   2.196   2.668
 1239TIP3    H1 3660   1.064   2.212   2.724
 1239TIP3    H2 3661   1.103   2.158   2.588
 1240TIP3   OH2 3662   5.552   4.191   1.078
 1240TIP3    H1 3663   5.459   4.197   1.058
 1240TIP3    H2 3664   5.580   4.109   1.038
 1241TIP3   OH2 3665   2.427   0.761   3.123
 1241TIP3    H1 3666   2.452   0.821   3.053
 1241TIP3    H2 3667   2.335   0.783   3.141
 1242TIP3   OH2 3668   0.228   5.694   4.815
 1242TIP3    H1 3669   0.320   5.700   4.789
 1242TIP3    H2 3670   0.180   5.742   4.748
 1243TIP3   OH2 3671   2.928   2.400   3.516
 1243TIP3    H1 3672   2.942   2.394   3.611
 1243TIP3    H2 3673   2.849   2.348   3.500
 1244TIP3   OH2 3674   0.222   6.317   6.473
 1244TIP3    H1 3675   0.244   6.350   6.386
 1244TIP3    H2 3676   0.153   6.376   6.505
 1245TIP3   OH2 3677   5.877   4.871   1.185
 1245TIP3    H1 3678   5.795   4.821   1.194
 1245TIP3    H2 3679   5.895   4.872   1.091
 1246TIP3   OH2 3680   5.350   1.773   0.614
 1246TIP3    H1 3681   5.433   1.769   0.566
 1246TIP3    H2 3682   5.373   1.810   0.699
 1247TIP3   OH2 3683   6.250   5.866   3.707
 1247TIP3    H1 3684   6.305   5.927   3.658
 1247TIP3    H2 3685   6.161   5.885   3.677
 1248TIP3   OH2 3686   3.754   2.211   1.590
 1248TIP3    H1 3687   3.807   2.291   1.590
 1248TIP3    H2 3688   3.689   2.225   1.658
 1249TIP3   OH2 3689   7.362   1.070   4.366
 1249TIP3    H1 3690   7.284   1.016   4.379
 1249TIP3    H2 3691   7.431   1.007   4.343
 1250TIP3   OH2 3692   4.718   7.479   6.125
 1250TIP3    H1 3693   4.652   7.519   6.069
 1250TIP3    H2 3694   4.755   7.552   6.176
 1251TIP3   OH2 3695   6.406   6.110   5.859
 1251TIP3    H1 3696   6.477   6.091   5.799
 1251TIP3    H2 3697   6.377   6.198   5.835
 1252TIP3   OH2 3698   7.890   6.700   2.988
 1252TIP3    H1 3699   7.981   6.723   2.970
 1252TIP3    H2 3700   7.895   6.616   3.034
 1253TIP3   OH2 3701   0.403   2.928   6.503
 1253TIP3    H1 3702   0.358   2.892   6.426
 1253TIP3    H2 3703   0.351   2.897   6.578
 1254TIP3   OH2 3704   5.359   5.981   4.914
 1254TIP3    H1 3705   5.318   6.064   4.937
 1254TIP3    H2 3706   5.439   5.978   4.967
 1255TIP3   OH2 3707   1.367   4.651   2.714
 1255TIP3    H1 3708   1.425   4.711   2.669
 1255TIP3    H2 3709   1.353   4.579   2.652
 1256TIP3   OH2 3710   3.383   3.148   0.194
 1256TIP3    H1 3711   3.417   3.182   0.111
 1256TIP3    H2 3712   3.301   3.104   0.171
 1257TIP3   OH2 3713   4.289   7.063   3.331
 1257TIP3    H1 3714   4.317   7.148   3.298
 1257TIP3    H2 3715   4.366   7.007   3.323
 1258TIP3   OH2 3716   1.417   3.998   0.677
 1258TIP3    H1 3717   1.354   4.065   0.647
 1258TIP3    H2 3718   1.382   3.916   0.643
 1259TIP3   OH2 3719   3.506   0.386   4.490
 1259TIP3    H1 3720   3.555   0.419   4.565
 1259TIP3    H2 3721   3.437   0.450   4.477
 1260TIP3   OH2 3722   1.543   5.366   4.120
 1260TIP3    H1 3723   1.499   5.320   4.192
 1260TIP3    H2 3724   1.533   5.459   4.142
 1261TIP3   OH2 3725   1.350   5.755   6.208
 1261TIP3    H1 3726   1.391   5.724   6.127
 1261TIP3    H2 3727   1.284   5.689   6.229
 1262TIP3   OH2 3728   7.710   6.345   0.392
 1262TIP3    H1 3729   7.697   6.406   0.465
 1262TIP3    H2 3730   7.666   6.387   0.318
 1263TIP3   OH2 3731   2.088   0.817   4.372
 1263TIP3    H1 3732   2.016   0.755   4.385
 1263TIP3    H2 3733   2.145   0.775   4.308
 1264TIP3   OH2 3734   7.570   4.851   1.464
 1264TIP3    H1 3735   7.531   4.764   1.453
 1264TIP3    H2 3736   7.541   4.901   1.387
 1265TIP3   OH2 3737   4.397   3.091   6.119
 1265TIP3    H1 3738   4.373   3.088   6.027
 1265TIP3    H2 3739   4.386   3.183   6.144
 1266TIP3   OH2 3740   7.814   3.051   2.394
 1266TIP3    H1 3741   7.761   3.129   2.411
 1266TIP3    H2 3742   7.896   3.085   2.357
 1267TIP3   OH2 3743   6.546   4.704   4.367
 1267TIP3    H1 3744   6.608   4.763   4.324
 1267TIP3    H2 3745   6.489   4.762   4.418
 1268TIP3   OH2 3746   0.931   4.547   5.515
 1268TIP3    H1 3747   0.853   4.527   5.567
 1268TIP3    H2 3748   0.929   4.642   5.505
 1269TIP3   OH2 3749   1.493   5.299   1.850
 1269TIP3    H1 3750   1.412   5.325   1.894
 1269TIP3    H2 3751   1.507   5.208   1.877
 1270TIP3   OH2 3752   4.405   1.205   2.816
 1270TIP3    H1 3753   4.337   1.147   2.851
 1270TIP3    H2 3754   4.471   1.145   2.780
 1271TIP3   OH2 3755   7.917   2.406   0.109
 1271TIP3    H1 3756   7.891   2.398   0.018
 1271TIP3    H2 3757   7.893   2.323   0.150
 1272TIP3   OH2 3758   5.135   0.789   5.257
 1272TIP3    H1 3759   5.118   0.828   5.171
 1272TIP3    H2 3760   5.164   0.700   5.237
 1273TIP3   OH2 3761   4.130   1.880   2.760
 1273TIP3    H1 3762   4.094   1.857   2.846
 1273TIP3    H2 3763   4.075   1.833   2.698
 1274TIP3   OH2 3764   6.721   6.272   0.654
 1274TIP3    H1 3765   6.656   6.324   0.702
 1274TIP3    H2 3766   6.792   6.259   0.717
 1275TIP3   OH2 3767   0.228   4.258   1.883
 1275TIP3    H1 3768   0.308   4.209   1.865
 1275TIP3    H2 3769   0.190   4.216   1.960
 1276TIP3   OH2 3770   1.862   2.023   5.173
 1276TIP3    H1 3771   1.951   2.028   5.207
 1276TIP3    H2 3772   1.845   2.110   5.137
 1277TIP3   OH2 3773   2.761   7.332   0.189
 1277TIP3    H1 3774   2.853   7.306   0.183
 1277TIP3    H2 3775   2.751   7.400   0.122
 1278TIP3   OH2 3776   3.794   5.811   1.139
 1278TIP3    H1 3777   3.773   5.731   1.188
 1278TIP3    H2 3778   3.709   5.843   1.108
 1279TIP3   OH2 3779   1.589   3.816   3.917
 1279TIP3    H1 3780   1.604   3.826   3.823
 1279TIP3    H2 3781   1.628   3.731   3.938
 1280TIP3   OH2 3782   8.041   6.295   3.273
 1280TIP3    H1 3783   8.076   6.208   3.290
 1280TIP3    H2 3784   8.029   6.334   3.360
 1281TIP3   OH2 3785   3.146   1.548   1.942
 1281TIP3    H1 3786   3.152   1.567   1.848
 1281TIP3    H2 3787   3.227   1.584   1.979
 1282TIP3   OH2 3788   4.676   4.641   1.524
 1282TIP3    H1 3789   4.584   4.666   1.521
 1282TIP3    H2 3790   4.721   4.719   1.556
 1283TIP3   OH2 3791   5.718   2.102   1.605
 1283TIP3    H1 3792   5.624   2.100   1.623
 1283TIP3    H2 3793   5.738   2.014   1.575
 1284TIP3   OH2 3794   0.916   2.337   1.980
 1284TIP3    H1 3795   1.006   2.364   1.997
 1284TIP3    H2 3796   0.891   2.387   1.902
 1285TIP3   OH2 3797   5.920   6.576   1.075
 1285TIP3    H1 3798   5.881   6.537   1.154
 1285TIP3    H2 3799   5.864   6.544   1.004
 1286TIP3   OH2 3800   3.062   0.407   2.082
 1286TIP3    H1 3801   3.115   0.478   2.119
 1286TIP3    H2 3802   2.974   0.443   2.074
 1287TIP3   OH2 3803   5.375   4.903   3.163
 1287TIP3    H1 3804   5.342   4.893   3.252
 1287TIP3    H2 3805   5.302   4.941   3.114
 1288TIP3   OH2 3806   2.700   4.668   0.509
 1288TIP3    H1 3807   2.631   4.728   0.536
 1288TIP3    H2 3808   2.772   4.685   0.570
 1289TIP3   OH2 3809   3.097   4.050   3.196
 1289TIP3    H1 3810   3.169   4.037   3.258
 1289TIP3    H2 3811   3.083   3.963   3.157
 1290TIP3   OH2 3812   7.645   7.776   5.105
 1290TIP3    H1 3813   7.553   7.804   5.112
 1290TIP3    H2 3814   7.662   7.775   5.010
 1291TIP3   OH2 3815   7.026   1.089   2.546
 1291TIP3    H1 3816   6.979   1.007   2.559
 1291TIP3    H2 3817   7.118   1.066   2.559
 1292TIP3   OH2 3818   5.790   4.733   0.201
 1292TIP3    H1 3819   5.798   4.815   0.249
 1292TIP3    H2 3820   5.837   4.747   0.119
 1293TIP3   OH2 3821   4.730   2.391   5.857
 1293TIP3    H1 3822   4.653   2.367   5.806
 1293TIP3    H2 3823   4.775   2.308   5.873
 1294TIP3   OH2 3824   3.014   1.324   1.020
 1294TIP3    H1 3825   3.021   1.260   1.091
 1294TIP3    H2 3826   2.924   1.356   1.025
 1295TIP3   OH2 3827   4.087   4.445   3.757
 1295TIP3    H1 3828   4.162   4.473   3.704
 1295TIP3    H2 3829   4.097   4.350   3.765
 1296TIP3   OH2 3830   0.446   5.611   4.973
 1296TIP3    H1 3831   0.350   5.616   4.970
 1296TIP3    H2 3832   0.473   5.634   4.884
 1297TIP3   OH2 3833   6.870   6.426   1.966
 1297TIP3    H1 3834   6.845   6.411   1.875
 1297TIP3    H2 3835   6.893   6.519   1.970
 1298TIP3   OH2 3836   5.758   5.227   3.685
 1298TIP3    H1 3837   5.686   5.287   3.667
 1298TIP3    H2 3838   5.723   5.164   3.747
 1299TIP3   OH2 3839   2.025   5.163   6.348
 1299TIP3    H1 3840   2.078   5.138   6.273
 1299TIP3    H2 3841   2.041   5.257   6.360
 1300TIP3   OH2 3842   0.779   6.472   0.716
 1300TIP3    H1 3843   0.775   6.546   0.655
 1300TIP3    H2 3844   0.815   6.400   0.664
 1301TIP3   OH2 3845   7.416   1.844   6.172
 1301TIP3    H1 3846   7.423   1.753   6.202
 1301TIP3    H2 3847   7.325   1.868   6.191
 1302TIP3   OH2 3848   0.789   6.646   5.219
 1302TIP3    H1 3849   0.807   6.641   5.125
 1302TIP3    H2 3850   0.703   6.605   5.229
 1303TIP3   OH2 3851   6.027   5.054   4.271
 1303TIP3    H1 3852   5.988   5.029   4.355
 1303TIP3    H2 3853   6.013   4.977   4.215
 1304TIP3   OH2 3854   2.773   0.499   2.891
 1304TIP3    H1 3855   2.802   0.591   2.888
 1304TIP3    H2 3856   2.733   0.483   2.806
 1305TIP3   OH2 3857   3.677   5.538   4.510
 1305TIP3    H1 3858   3.644   5.473   4.572
 1305TIP3    H2 3859   3.653   5.504   4.424
 1306TIP3   OH2 3860   5.708   5.563   5.725
 1306TIP3    H1 3861   5.666   5.649   5.734
 1306TIP3    H2 3862   5.748   5.565   5.638
 1307TIP3   OH2 3863   2.508   3.110   3.347
 1307TIP3    H1 3864   2.512   3.017   3.326
 1307TIP3    H2 3865   2.435   3.144   3.296
 1308TIP3   OH2 3866   7.951   1.346   1.701
 1308TIP3    H1 3867   8.040   1.314   1.684
 1308TIP3    H2 3868   7.924   1.301   1.781
 1309TIP3   OH2 3869   1.833   2.358   3.405
 1309TIP3    H1 3870   1.763   2.308   3.364
 1309TIP3    H2 3871   1.811   2.449   3.389
 1310TIP3   OH2 3872   3.906   5.291   2.678
 1310TIP3    H1 3873   3.911   5.368   2.622
 1310TIP3    H2 3874   3.867   5.323   2.759
 1311TIP3   OH2 3875   7.118   1.625   2.413
 1311TIP3    H1 3876   7.085   1.578   2.337
 1311TIP3    H2 3877   7.098   1.568   2.487
 1312TIP3   OH2 3878   4.164   4.641   1.703
 1312TIP3    H1 3879   4.153   4.734   1.685
 1312TIP3    H2 3880   4.102   4.597   1.646
 1313TIP3   OH2 3881   8.231   2.005   2.788
 1313TIP3    H1 3882   8.138   1.980   2.787
 1313TIP3    H2 3883   8.259   1.989   2.878
 1314TIP3   OH2 3884   0.626   4.988   0.790
 1314TIP3    H1 3885   0.687   5.061   0.779
 1314TIP3    H2 3886   0.640   4.959   0.880
 1315TIP3   OH2 3887   4.886   0.634   1.004
 1315TIP3    H1 3888   4.851   0.594   1.083
 1315TIP3    H2 3889   4.870   0.728   1.015
 1316TIP3   OH2 3890   1.460   5.773   1.088
 1316TIP3    H1 3891   1.498   5.691   1.055
 1316TIP3    H2 3892   1.531   5.814   1.138
 1317TIP3   OH2 3893   8.110   6.842   3.772
 1317TIP3    H1 3894   8.119   6.822   3.679
 1317TIP3    H2 3895   8.017   6.830   3.790
 1318TIP3   OH2 3896   0.644   1.794   4.849
 1318TIP3    H1 3897   0.724   1.817   4.802
 1318TIP3    H2 3898   0.613   1.714   4.805
 1319TIP3   OH2 3899   6.051   0.163   5.879
 1319TIP3    H1 3900   6.053   0.134   5.970
 1319TIP3    H2 3901   5.995   0.241   5.880
 1320TIP3   OH2 3902   2.012   3.644   0.313
 1320TIP3    H1 3903   2.064   3.648   0.233
 1320TIP3    H2 3904   1.924   3.669   0.286
 1321TIP3   OH2 3905   3.679   6.871   2.635
 1321TIP3    H1 3906   3.640   6.911   2.558
 1321TIP3    H2 3907   3.734   6.939   2.673
 1322TIP3   OH2 3908   7.576   4.063   4.827
 1322TIP3    H1 3909   7.544   4.070   4.917
 1322TIP3    H2 3910   7.668   4.090   4.832
 1323TIP3   OH2 3911   1.719   5.667   3.678
 1323TIP3    H1 3912   1.772   5.745   3.663
 1323TIP3    H2 3913   1.780   5.594   3.667
 1324TIP3   OH2 3914   2.349   6.908   1.115
 1324TIP3    H1 3915   2.324   6.815   1.114
 1324TIP3    H2 3916   2.440   6.907   1.145
 1325TIP3   OH2 3917   1.191   0.305   1.349
 1325TIP3    H1 3918   1.226   0.216   1.344
 1325TIP3    H2 3919   1.254   0.359   1.302
 1326TIP3   OH2 3920   6.967   1.953   3.032
 1326TIP3    H1 3921   7.006   2.037   3.008
 1326TIP3    H2 3922   7.002   1.934   3.119
 1327TIP3   OH2 3923   2.036   6.245   4.782
 1327TIP3    H1 3924   2.039   6.339   4.796
 1327TIP3    H2 3925   2.003   6.235   4.692
 1328TIP3   OH2 3926   5.027   0.327   4.663
 1328TIP3    H1 3927   5.064   0.365   4.583
 1328TIP3    H2 3928   4.949   0.280   4.633
 1329TIP3   OH2 3929   4.036   5.371   1.615
 1329TIP3    H1 3930   4.108   5.344   1.672
 1329TIP3    H2 3931   4.078   5.395   1.532
 1330TIP3   OH2 3932   4.969   4.814   5.931
 1330TIP3    H1 3933   5.022   4.739   5.905
 1330TIP3    H2 3934   4.922   4.839   5.852
 1331TIP3   OH2 3935   1.150   4.656   2.853
 1331TIP3    H1 3936   1.105   4.690   2.775
 1331TIP3    H2 3937   1.243   4.656   2.830
 1332TIP3   OH2 3938   1.882   4.941   1.094
 1332TIP3    H1 3939   1.900   4.975   1.006
 1332TIP3    H2 3940   1.963   4.899   1.120
 1333TIP3   OH2 3941   0.558   0.253   1.459
 1333TIP3    H1 3942   0.464   0.241   1.465
 1333TIP3    H2 3943   0.569   0.335   1.411
 1334TIP3   OH2 3944   2.377   1.615   3.521
 1334TIP3    H1 3945   2.389   1.590   3.429
 1334TIP3    H2 3946   2.460   1.591   3.563
 1335TIP3   OH2 3947   5.918   3.313   6.686
 1335TIP3    H1 3948   5.831   3.299   6.650
 1335TIP3    H2 3949   5.972   3.244   6.648
 1336TIP3   OH2 3950   4.238   2.466   3.806
 1336TIP3    H1 3951   4.309   2.525   3.780
 1336TIP3    H2 3952   4.282   2.385   3.832
 1337TIP3   OH2 3953   3.104   7.351   5.612
 1337TIP3    H1 3954   3.089   7.287   5.543
 1337TIP3    H2 3955   3.031   7.412   5.605
 1338TIP3   OH2 3956   4.589   4.770   3.867
 1338TIP3    H1 3957   4.596   4.698   3.931
 1338TIP3    H2 3958   4.495   4.789   3.864
 1339TIP3   OH2 3959   4.321   2.001   5.916
 1339TIP3    H1 3960   4.360   1.965   5.837
 1339TIP3    H2 3961   4.332   1.933   5.983
 1340TIP3   OH2 3962   1.837   5.122   2.408
 1340TIP3    H1 3963   1.853   5.210   2.442
 1340TIP3    H2 3964   1.793   5.076   2.480
 1341TIP3   OH2 3965   7.517   6.954   0.095
 1341TIP3    H1 3966   7.492   6.963   0.003
 1341TIP3    H2 3967   7.474   6.874   0.124
 1342TIP3   OH2 3968   4.679   7.759   5.115
 1342TIP3    H1 3969   4.670   7.734   5.023
 1342TIP3    H2 3970   4.770   7.741   5.136
 1343TIP3   OH2 3971   1.611   6.647   4.976
 1343TIP3    H1 3972   1.521   6.673   4.995
 1343TIP3    H2 3973   1.664   6.722   5.002
 1344TIP3   OH2 3974   0.843   5.990   1.263
 1344TIP3    H1 3975   0.909   5.987   1.194
 1344TIP3    H2 3976   0.847   6.080   1.295
 1345TIP3   OH2 3977   7.426   6.768   6.494
 1345TIP3    H1 3978   7.426   6.746   6.400
 1345TIP3    H2 3979   7.486   6.842   6.501
 1346TIP3   OH2 3980   1.298   5.361   1.254
 1346TIP3    H1 3981   1.208   5.383   1.227
 1346TIP3    H2 3982   1.317   5.422   1.325
 1347TIP3   OH2 3983   7.387   6.638   4.522
 1347TIP3    H1 3984   7.428   6.578   4.460
 1347TIP3    H2 3985   7.304   6.663   4.480
 1348TIP3   OH2 3986   4.600   3.889   2.052
 1348TIP3    H1 3987   4.508   3.916   2.052
 1348TIP3    H2 3988   4.647   3.966   2.019
 1349TIP3   OH2 3989   1.861   3.572   1.443
 1349TIP3    H1 3990   1.949   3.580   1.406
 1349TIP3    H2 3991   1.864   3.626   1.522
 1350TIP3   OH2 3992   3.808   1.517   5.617
 1350TIP3    H1 3993   3.849   1.478   5.695
 1350TIP3    H2 3994   3.862   1.594   5.597
 1351TIP3   OH2 3995   4.534   3.295   3.707
 1351TIP3    H1 3996   4.491   3.380   3.702
 1351TIP3    H2 3997   4.463   3.232   3.709
 1352TIP3   OH2 3998   6.014   4.016   2.843
 1352TIP3    H1 3999   6.077   4.007   2.771
 1352TIP3    H2 4000   6.069   4.031   2.920
 1353TIP3   OH2 4001   7.737   2.815   0.546
 1353TIP3    H1 4002   7.812   2.848   0.597
 1353TIP3    H2 4003   7.662   2.862   0.582
 1354TIP3   OH2 4004   4.425   5.849   0.287
 1354TIP3    H1 4005   4.480   5.771   0.291
 1354TIP3    H2 4006   4.418   5.879   0.377
 1355TIP3   OH2 4007   7.383   6.272   5.796
 1355TIP3    H1 4008   7.473   6.243   5.784
 1355TIP3    H2 4009   7.365   6.258   5.889
 1356TIP3   OH2 4010   3.335   4.424   6.471
 1356TIP3    H1 4011   3.275   4.396   6.402
 1356TIP3    H2 4012   3.318   4.363   6.543
 1357TIP3   OH2 4013   0.806   3.119   5.694
 1357TIP3    H1 4014   0.801   3.140   5.788
 1357TIP3    H2 4015   0.796   3.024   5.690
 1358TIP3   OH2 4016   0.027   1.027   3.978
 1358TIP3    H1 4017   0.013   1.023   4.072
 1358TIP3    H2 4018  -0.044   0.973   3.941
 1359TIP3   OH2 4019   6.426   5.334   5.129
 1359TIP3    H1 4020   6.502   5.335   5.187
 1359TIP3    H2 4021   6.440   5.259   5.072
 1360TIP3   OH2 4022   6.143   2.684   1.477
 1360TIP3    H1 4023   6.106   2.610   1.524
 1360TIP3    H2 4024   6.108   2.761   1.522
 1361TIP3   OH2 4025   2.600   2.696   2.153
 1361TIP3    H1 4026   2.632   2.779   2.189
 1361TIP3    H2 4027   2.619   2.702   2.059
 1362TIP3   OH2 4028   4.945   0.595   0.186
 1362TIP3    H1 4029   4.937   0.554   0.100
 1362TIP3    H2 4030   4.949   0.522   0.248
 1363TIP3   OH2 4031   4.369   5.153   5.822
 1363TIP3    H1 4032   4.377   5.159   5.727
 1363TIP3    H2 4033   4.412   5.232   5.855
 1364TIP3   OH2 4034   5.793   5.853   3.366
 1364TIP3    H1 4035   5.856   5.891   3.426
 1364TIP3    H2 4036   5.758   5.927   3.317
 1365TIP3   OH2 4037   5.955   3.112   1.835
 1365TIP3    H1 4038   5.987   3.198   1.863
 1365TIP3    H2 4039   6.024   3.051   1.861
 1366TIP3   OH2 4040   0.791   3.217   2.802
 1366TIP3    H1 4041   0.814   3.130   2.769
 1366TIP3    H2 4042   0.814   3.215   2.894
 1367TIP3   OH2 4043   4.394   6.123   6.648
 1367TIP3    H1 4044   4.458   6.090   6.712
 1367TIP3    H2 4045   4.309   6.107   6.689
 1368TIP3   OH2 4046   6.645   7.178   0.980
 1368TIP3    H1 4047   6.672   7.192   0.889
 1368TIP3    H2 4048   6.721   7.204   1.032
 1369TIP3   OH2 4049   0.846   2.605   3.572
 1369TIP3    H1 4050   0.857   2.680   3.513
 1369TIP3    H2 4051   0.935   2.579   3.595
 1370TIP3   OH2 4052   5.262   1.727   3.181
 1370TIP3    H1 4053   5.234   1.810   3.220
 1370TIP3    H2 4054   5.184   1.671   3.186
 1371TIP3   OH2 4055   1.137   4.471   3.617
 1371TIP3    H1 4056   1.078   4.398   3.598
 1371TIP3    H2 4057   1.223   4.441   3.586
 1372TIP3   OH2 4058   7.945   5.095   3.756
 1372TIP3    H1 4059   7.952   5.166   3.820
 1372TIP3    H2 4060   8.034   5.084   3.724
 1373TIP3   OH2 4061   3.285   0.816   1.416
 1373TIP3    H1 4062   3.286   0.798   1.322
 1373TIP3    H2 4063   3.322   0.737   1.456
 1374TIP3   OH2 4064   4.544   7.653   1.678
 1374TIP3    H1 4065   4.563   7.714   1.750
 1374TIP3    H2 4066   4.549   7.566   1.718
 1375TIP3   OH2 4067   2.276   5.821   0.595
 1375TIP3    H1 4068   2.234   5.776   0.669
 1375TIP3    H2 4069   2.367   5.790   0.597
 1376TIP3   OH2 4070   3.668   3.890   5.515
 1376TIP3    H1 4071   3.604   3.946   5.558
 1376TIP3    H2 4072   3.749   3.940   5.516
 1377TIP3   OH2 4073   5.806   2.573   1.171
 1377TIP3    H1 4074   5.850   2.493   1.198
 1377TIP3    H2 4075   5.871   2.642   1.182
 1378TIP3   OH2 4076   5.752   1.497   5.518
 1378TIP3    H1 4077   5.656   1.502   5.512
 1378TIP3    H2 4078   5.783   1.522   5.432
 1379TIP3   OH2 4079   0.406   1.636   0.833
 1379TIP3    H1 4080   0.316   1.602   0.831
 1379TIP3    H2 4081   0.396   1.731   0.822
 1380TIP3   OH2 4082   0.114   5.437   4.021
 1380TIP3    H1 4083   0.107   5.474   3.933
 1380TIP3    H2 4084   0.169   5.359   4.010
 1381TIP3   OH2 4085   1.915   7.395   6.217
 1381TIP3    H1 4086   1.993   7.383   6.272
 1381TIP3    H2 4087   1.949   7.428   6.134
 1382TIP3   OH2 4088   3.152   3.752   3.755
 1382TIP3    H1 4089   3.199   3.763   3.838
 1382TIP3    H2 4090   3.097   3.830   3.748
 1383TIP3   OH2 4091   6.041   4.340   3.795
 1383TIP3    H1 4092   6.101   4.307   3.729
 1383TIP3    H2 4093   6.005   4.421   3.758
 1384TIP3   OH2 4094   0.463   4.124   6.531
 1384TIP3    H1 4095   0.427   4.062   6.594
 1384TIP3    H2 4096   0.553   4.139   6.561
 1385TIP3   OH2 4097   6.839   0.956   5.446
 1385TIP3    H1 4098   6.890   0.884   5.483
 1385TIP3    H2 4099   6.852   0.949   5.352
 1386TIP3   OH2 4100   3.125   2.175   0.658
 1386TIP3    H1 4101   3.151   2.223   0.737
 1386TIP3    H2 4102   3.151   2.085   0.675
 1387TIP3   OH2 4103   4.759   4.882   6.587
 1387TIP3    H1 4104   4.852   4.903   6.595
 1387TIP3    H2 4105   4.740   4.886   6.494
 1388TIP3   OH2 4106   2.278   2.758   2.212
 1388TIP3    H1 4107   2.199   2.763   2.158
 1388TIP3    H2 4108   2.350   2.760   2.150
 1389TIP3   OH2 4109   5.919   2.782   4.940
 1389TIP3    H1 4110   5.908   2.874   4.913
 1389TIP3    H2 4111   5.932   2.735   4.858
 1390TIP3   OH2 4112   4.944   2.177   1.748
 1390TIP3    H1 4113   4.925   2.269   1.768
 1390TIP3    H2 4114   4.974   2.140   1.832
 1391TIP3   OH2 4115   7.409   6.515   6.670
 1391TIP3    H1 4116   7.417   6.600   6.715
 1391TIP3    H2 4117   7.327   6.522   6.621
 1392TIP3   OH2 4118   1.739   7.296   1.671
 1392TIP3    H1 4119   1.651   7.328   1.651
 1392TIP3    H2 4120   1.728   7.201   1.680
 1393TIP3   OH2 4121   6.357   0.203   3.320
 1393TIP3    H1 4122   6.324   0.125   3.275
 1393TIP3    H2 4123   6.449   0.183   3.337
 1394TIP3   OH2 4124   3.474   1.194   2.705
 1394TIP3    H1 4125   3.425   1.269   2.739
 1394TIP3    H2 4126   3.423   1.164   2.630
 1395TIP3   OH2 4127   4.100   4.358   0.279
 1395TIP3    H1 4128   4.012   4.334   0.250
 1395TIP3    H2 4129   4.114   4.445   0.243
 1396TIP3   OH2 4130   3.001   4.488   2.307
 1396TIP3    H1 4131   3.044   4.426   2.366
 1396TIP3    H2 4132   3.002   4.571   2.354
 1397TIP3   OH2 4133   3.885   5.989   5.538
 1397TIP3    H1 4134   3.945   6.061   5.558
 1397TIP3    H2 4135   3.801   6.017   5.574
 1398TIP3   OH2 4136   2.176   1.767   3.606
 1398TIP3    H1 4137   2.261   1.734   3.578
 1398TIP3    H2 4138   2.114   1.733   3.542
 1399TIP3   OH2 4139   4.284   2.541   6.262
 1399TIP3    H1 4140   4.245   2.610   6.315
 1399TIP3    H2 4141   4.351   2.584   6.211
 1400TIP3   OH2 4142  -0.022   2.425   4.495
 1400TIP3    H1 4143  -0.006   2.398   4.405
 1400TIP3    H2 4144  -0.008   2.520   4.494
 1401TIP3   OH2 4145   6.856   0.397   2.390
 1401TIP3    H1 4146   6.762   0.376   2.397
 1401TIP3    H2 4147   6.900   0.316   2.416
 1402TIP3   OH2 4148   7.852   5.595   1.892
 1402TIP3    H1 4149   7.827   5.667   1.950
 1402TIP3    H2 4150   7.825   5.623   1.805
 1403TIP3   OH2 4151   8.074   4.669   5.990
 1403TIP3    H1 4152   8.049   4.761   5.999
 1403TIP3    H2 4153   8.128   4.665   5.911
 1404TIP3   OH2 4154   6.888   4.121   0.151
 1404TIP3    H1 4155   6.901   4.193   0.212
 1404TIP3    H2 4156   6.813   4.148   0.098
 1405TIP3   OH2 4157   6.060   6.929   0.785
 1405TIP3    H1 4158   6.086   6.859   0.725
 1405TIP3    H2 4159   6.057   7.008   0.730
 1406TIP3   OH2 4160   4.214   4.003   6.270
 1406TIP3    H1 4161   4.284   3.941   6.251
 1406TIP3    H2 4162   4.182   4.030   6.184
 1407TIP3   OH2 4163   4.754   3.080   4.148
 1407TIP3    H1 4164   4.750   3.033   4.065
 1407TIP3    H2 4165   4.756   3.173   4.124
 1408TIP3   OH2 4166   7.448   5.949   4.331
 1408TIP3    H1 4167   7.524   5.993   4.369
 1408TIP3    H2 4168   7.483   5.899   4.258
 1409TIP3   OH2 4169   6.326   5.478   1.541
 1409TIP3    H1 4170   6.308   5.550   1.481
 1409TIP3    H2 4171   6.411   5.443   1.512
 1410TIP3   OH2 4172   6.123   2.883   6.043
 1410TIP3    H1 4173   6.182   2.872   5.968
 1410TIP3    H2 4174   6.046   2.831   6.022
 1411TIP3   OH2 4175   2.170   0.868   1.263
 1411TIP3    H1 4176   2.230   0.868   1.188
 1411TIP3    H2 4177   2.114   0.792   1.248
 1412TIP3   OH2 4178   0.101   1.997   6.596
 1412TIP3    H1 4179   0.119   1.992   6.690
 1412TIP3    H2 4180   0.022   1.944   6.584
 1413TIP3   OH2 4181   0.489   5.126   3.070
 1413TIP3    H1 4182   0.444   5.210   3.072
 1413TIP3    H2 4183   0.421   5.063   3.049
 1414TIP3   OH2 4184   6.250   5.799   0.851
 1414TIP3    H1 4185   6.286   5.751   0.926
 1414TIP3    H2 4186   6.235   5.732   0.785
 1415TIP3   OH2 4187   5.384   3.975   4.900
 1415TIP3    H1 4188   5.423   4.050   4.944
 1415TIP3    H2 4189   5.451   3.949   4.836
 1416TIP3   OH2 4190   1.207   1.157   2.643
 1416TIP3    H1 4191   1.176   1.245   2.665
 1416TIP3    H2 4192   1.137   1.121   2.588
 1417TIP3   OH2 4193   0.120   3.349   0.545
 1417TIP3    H1 4194   0.042   3.353   0.601
 1417TIP3    H2 4195   0.113   3.427   0.490
 1418TIP3   OH2 4196   0.725   0.315   5.851
 1418TIP3    H1 4197   0.702   0.230   5.889
 1418TIP3    H2 4198   0.791   0.350   5.911
 1419TIP3   OH2 4199   7.928   3.584   2.170
 1419TIP3    H1 4200   8.006   3.612   2.217
 1419TIP3    H2 4201   7.915   3.649   2.102
 1420TIP3   OH2 4202   5.679   4.843   3.434
 1420TIP3    H1 4203   5.711   4.933   3.433
 1420TIP3    H2 4204   5.714   4.804   3.355
 1421TIP3   OH2 4205   2.226   2.373   0.439
 1421TIP3    H1 4206   2.295   2.432   0.408
 1421TIP3    H2 4207   2.230   2.380   0.535
 1422TIP3   OH2 4208   1.335   6.240   1.300
 1422TIP3    H1 4209   1.294   6.154   1.285
 1422TIP3    H2 4210   1.418   6.235   1.252
 1423TIP3   OH2 4211   2.624   7.286   1.525
 1423TIP3    H1 4212   2.563   7.343   1.477
 1423TIP3    H2 4213   2.590   7.286   1.615
 1424TIP3   OH2 4214   0.659   1.550   5.525
 1424TIP3    H1 4215   0.747   1.514   5.523
 1424TIP3    H2 4216   0.662   1.626   5.467
 1425TIP3   OH2 4217   3.235   1.366   0.862
 1425TIP3    H1 4218   3.163   1.376   0.925
 1425TIP3    H2 4219   3.194   1.328   0.784
 1426TIP3   OH2 4220   6.397   2.339   3.420
 1426TIP3    H1 4221   6.393   2.342   3.515
 1426TIP3    H2 4222   6.306   2.327   3.392
 1427TIP3   OH2 4223   0.318   2.333   1.805
 1427TIP3    H1 4224   0.323   2.241   1.833
 1427TIP3    H2 4225   0.238   2.338   1.754
 1428TIP3   OH2 4226   2.203   1.135   5.528
 1428TIP3    H1 4227   2.142   1.186   5.474
 1428TIP3    H2 4228   2.157   1.052   5.543
 1429TIP3   OH2 4229   0.474   2.597   4.946
 1429TIP3    H1 4230   0.437   2.532   4.886
 1429TIP3    H2 4231   0.514   2.545   5.016
 1430TIP3   OH2 4232   2.525   3.772   0.817
 1430TIP3    H1 4233   2.464   3.719   0.765
 1430TIP3    H2 4234   2.470   3.836   0.860
 1431TIP3   OH2 4235   7.739   3.676   1.326
 1431TIP3    H1 4236   7.708   3.654   1.414
 1431TIP3    H2 4237   7.757   3.592   1.285
 1432TIP3   OH2 4238   2.144   7.692   5.787
 1432TIP3    H1 4239   2.185   7.722   5.706
 1432TIP3    H2 4240   2.195   7.732   5.857
 1433TIP3   OH2 4241   6.378   1.810   1.518
 1433TIP3    H1 4242   6.299   1.865   1.513
 1433TIP3    H2 4243   6.441   1.855   1.462
 1434TIP3   OH2 4244   3.495   6.592   2.769
 1434TIP3    H1 4245   3.456   6.541   2.698
 1434TIP3    H2 4246   3.583   6.614   2.736
 1435TIP3   OH2 4247   2.016   0.982   4.902
 1435TIP3    H1 4248   2.096   1.034   4.904
 1435TIP3    H2 4249   1.957   1.029   4.844
 1436TIP3   OH2 4250   0.679   0.472   1.592
 1436TIP3    H1 4251   0.695   0.390   1.545
 1436TIP3    H2 4252   0.615   0.449   1.660
 1437TIP3   OH2 4253   5.540   3.342   6.376
 1437TIP3    H1 4254   5.522   3.378   6.463
 1437TIP3    H2 4255   5.608   3.276   6.391
 1438TIP3   OH2 4256   0.534   5.996   4.314
 1438TIP3    H1 4257   0.518   5.956   4.400
 1438TIP3    H2 4258   0.459   6.054   4.301
 1439TIP3   OH2 4259   1.300   3.973   4.136
 1439TIP3    H1 4260   1.206   3.955   4.133
 1439TIP3    H2 4261   1.341   3.889   4.155
 1440TIP3   OH2 4262   5.793   4.428   0.761
 1440TIP3    H1 4263   5.707   4.461   0.738
 1440TIP3    H2 4264   5.779   4.334   0.777
 1441TIP3   OH2 4265   5.346   0.063   0.395
 1441TIP3    H1 4266   5.369  -0.013   0.342
 1441TIP3    H2 4267   5.265   0.095   0.357
 1442TIP3   OH2 4268   5.914   2.437   1.389
 1442TIP3    H1 4269   5.946   2.359   1.433
 1442TIP3    H2 4270   5.838   2.465   1.440
 1443TIP3   OH2 4271   4.250   3.066   0.088
 1443TIP3    H1 4272   4.345   3.062   0.102
 1443TIP3    H2 4273   4.232   2.993   0.030
 1444TIP3   OH2 4274   6.985   2.200   6.563
 1444TIP3    H1 4275   6.910   2.259   6.574
 1444TIP3    H2 4276   6.954   2.116   6.596
 1445TIP3   OH2 4277   8.081   6.122   2.727
 1445TIP3    H1 4278   8.017   6.103   2.659
 1445TIP3    H2 4279   8.150   6.057   2.714
 1446TIP3   OH2 4280   7.479   4.788   0.485
 1446TIP3    H1 4281   7.448   4.869   0.445
 1446TIP3    H2 4282   7.564   4.772   0.445
 1447TIP3   OH2 4283   5.004   7.109   6.397
 1447TIP3    H1 4284   4.935   7.043   6.401
 1447TIP3    H2 4285   4.959   7.192   6.412
 1448TIP3   OH2 4286   6.683   6.184   1.512
 1448TIP3    H1 4287   6.645   6.213   1.595
 1448TIP3    H2 4288   6.612   6.136   1.468
 1449TIP3   OH2 4289   2.114   3.781   1.962
 1449TIP3    H1 4290   2.055   3.708   1.944
 1449TIP3    H2 4291   2.201   3.742   1.961
 1450TIP3   OH2 4292   2.256   3.871   2.459
 1450TIP3    H1 4293   2.275   3.834   2.546
 1450TIP3    H2 4294   2.183   3.931   2.475
 1451TIP3   OH2 4295   1.029   0.332   4.016
 1451TIP3    H1 4296   1.076   0.413   4.039
 1451TIP3    H2 4297   1.092   0.283   3.964
 1452TIP3   OH2 4298   4.684   5.045   0.077
 1452TIP3    H1 4299   4.771   5.055   0.037
 1452TIP3    H2 4300   4.659   4.955   0.058
 1453TIP3   OH2 4301   2.687   4.386   0.051
 1453TIP3    H1 4302   2.721   4.389  -0.039
 1453TIP3    H2 4303   2.596   4.359   0.041
 1454TIP3   OH2 4304   4.138   0.646   0.027
 1454TIP3    H1 4305   4.162   0.590   0.101
 1454TIP3    H2 4306   4.046   0.668   0.043
 1455TIP3   OH2 4307   5.881   2.625   0.386
 1455TIP3    H1 4308   5.943   2.555   0.405
 1455TIP3    H2 4309   5.932   2.689   0.336
 1456TIP3   OH2 4310   1.795   2.285   1.652
 1456TIP3    H1 4311   1.805   2.211   1.592
 1456TIP3    H2 4312   1.885   2.311   1.673
 1457TIP3   OH2 4313   1.374   1.757   5.080
 1457TIP3    H1 4314   1.391   1.844   5.117
 1457TIP3    H2 4315   1.306   1.720   5.136
 1458TIP3   OH2 4316   7.708   3.664   2.991
 1458TIP3    H1 4317   7.668   3.586   3.027
 1458TIP3    H2 4318   7.768   3.632   2.923
 1459TIP3   OH2 4319   8.218   6.638   0.292
 1459TIP3    H1 4320   8.178   6.645   0.379
 1459TIP3    H2 4321   8.312   6.648   0.308
 1460TIP3   OH2 4322   1.248   5.684   2.443
 1460TIP3    H1 4323   1.322   5.633   2.410
 1460TIP3    H2 4324   1.175   5.623   2.446
 1461TIP3   OH2 4325   3.609   4.115   1.423
 1461TIP3    H1 4326   3.543   4.169   1.379
 1461TIP3    H2 4327   3.559   4.051   1.473
 1462TIP3   OH2 4328   6.137   5.542   3.269
 1462TIP3    H1 4329   6.094   5.537   3.355
 1462TIP3    H2 4330   6.231   5.541   3.289
 1463TIP3   OH2 4331   5.470   5.079   6.373
 1463TIP3    H1 4332   5.554   5.120   6.353
 1463TIP3    H2 4333   5.410   5.112   6.306
 1464TIP3   OH2 4334   6.002   4.041   2.510
 1464TIP3    H1 4335   5.954   4.111   2.466
 1464TIP3    H2 4336   5.933   3.986   2.548
 1465TIP3   OH2 4337   7.855   1.689   4.869
 1465TIP3    H1 4338   7.897   1.633   4.934
 1465TIP3    H2 4339   7.761   1.681   4.887
 1466TIP3   OH2 4340   0.564   3.577   5.708
 1466TIP3    H1 4341   0.499   3.646   5.725
 1466TIP3    H2 4342   0.515   3.495   5.718
 1467TIP3   OH2 4343   0.815   0.307   1.898
 1467TIP3    H1 4344   0.892   0.349   1.858
 1467TIP3    H2 4345   0.774   0.259   1.827
 1468TIP3   OH2 4346   7.674   5.792   6.136
 1468TIP3    H1 4347   7.751   5.822   6.088
 1468TIP3    H2 4348   7.659   5.703   6.104
 1469TIP3   OH2 4349   5.801   0.159   5.357
 1469TIP3    H1 4350   5.890   0.125   5.347
 1469TIP3    H2 4351   5.752   0.121   5.284
 1470TIP3   OH2 4352   4.407   5.035   1.413
 1470TIP3    H1 4353   4.422   5.026   1.507
 1470TIP3    H2 4354   4.348   4.962   1.392
 1471TIP3   OH2 4355   8.127   1.514   0.705
 1471TIP3    H1 4356   8.160   1.459   0.634
 1471TIP3    H2 4357   8.107   1.598   0.664
 1472TIP3   OH2 4358   1.920   5.298   0.023
 1472TIP3    H1 4359   1.984   5.341   0.079
 1472TIP3    H2 4360   1.836   5.337   0.047
 1473TIP3   OH2 4361   5.096   7.509   0.980
 1473TIP3    H1 4362   5.146   7.561   1.044
 1473TIP3    H2 4363   5.097   7.562   0.900
 1474TIP3   OH2 4364   6.244   7.501   6.007
 1474TIP3    H1 4365   6.218   7.450   6.084
 1474TIP3    H2 4366   6.273   7.585   6.042
 1475TIP3   OH2 4367   4.610   1.142   1.615
 1475TIP3    H1 4368   4.692   1.141   1.665
 1475TIP3    H2 4369   4.600   1.052   1.583
 1476TIP3   OH2 4370   2.978   0.002   3.705
 1476TIP3    H1 4371   3.054   0.050   3.670
 1476TIP3    H2 4372   2.923  -0.013   3.628
 1477TIP3   OH2 4373   5.458   0.584   4.701
 1477TIP3    H1 4374   5.548   0.584   4.667
 1477TIP3    H2 4375   5.407   0.540   4.633
 1478TIP3   OH2 4376   1.316   0.270   0.328
 1478TIP3    H1 4377   1.304   0.185   0.372
 1478TIP3    H2 4378   1.349   0.328   0.397
 1479TIP3   OH2 4379   6.854   5.857   0.836
 1479TIP3    H1 4380   6.786   5.818   0.781
 1479TIP3    H2 4381   6.932   5.861   0.779
 1480TIP3   OH2 4382   5.630   3.296   2.874
 1480TIP3    H1 4383   5.676   3.378   2.856
 1480TIP3    H2 4384   5.614   3.297   2.969
 1481TIP3   OH2 4385   4.557   2.050   5.778
 1481TIP3    H1 4386   4.552   2.140   5.745
 1481TIP3    H2 4387   4.587   2.060   5.869
 1482TIP3   OH2 4388   1.883   0.914   3.626
 1482TIP3    H1 4389   1.968   0.955   3.641
 1482TIP3    H2 4390   1.861   0.875   3.710
 1483TIP3   OH2 4391   2.586   4.199   1.702
 1483TIP3    H1 4392   2.574   4.292   1.681
 1483TIP3    H2 4393   2.653   4.198   1.770
 1484TIP3   OH2 4394   7.081   7.275   1.736
 1484TIP3    H1 4395   7.103   7.301   1.826
 1484TIP3    H2 4396   7.109   7.183   1.731
 1485TIP3   OH2 4397   5.999   7.453   6.229
 1485TIP3    H1 4398   5.955   7.464   6.145
 1485TIP3    H2 4399   5.948   7.386   6.274
 1486TIP3   OH2 4400   0.375   2.081   4.569
 1486TIP3    H1 4401   0.382   2.002   4.515
 1486TIP3    H2 4402   0.299   2.065   4.626
 1487TIP3   OH2 4403   3.819   4.885   1.082
 1487TIP3    H1 4404   3.723   4.887   1.076
 1487TIP3    H2 4405   3.838   4.915   1.171
 1488TIP3   OH2 4406   5.783   5.895   5.598
 1488TIP3    H1 4407   5.717   5.862   5.659
 1488TIP3    H2 4408   5.833   5.818   5.573
 1489TIP3   OH2 4409   5.765   2.121   0.502
 1489TIP3    H1 4410   5.774   2.214   0.523
 1489TIP3    H2 4411   5.682   2.095   0.544
 1490TIP3   OH2 4412   0.114   7.251   2.019
 1490TIP3    H1 4413   0.174   7.234   1.946
 1490TIP3    H2 4414   0.084   7.164   2.045
 1491TIP3   OH2 4415   7.963   7.480   0.444
 1491TIP3    H1 4416   7.915   7.441   0.371
 1491TIP3    H2 4417   7.896   7.522   0.497
 1492TIP3   OH2 4418   3.654   5.560   2.293
 1492TIP3    H1 4419   3.620   5.622   2.228
 1492TIP3    H2 4420   3.737   5.530   2.256
 1493TIP3   OH2 4421   7.225   5.460   1.409
 1493TIP3    H1 4422   7.316   5.439   1.430
 1493TIP3    H2 4423   7.229   5.498   1.322
 1494TIP3   OH2 4424   0.332   4.366   6.260
 1494TIP3    H1 4425   0.331   4.271   6.250
 1494TIP3    H2 4426   0.266   4.384   6.327
 1495TIP3   OH2 4427   0.095   1.789   6.325
 1495TIP3    H1 4428   0.137   1.753   6.404
 1495TIP3    H2 4429   0.003   1.801   6.350
 1496TIP3   OH2 4430   3.636   0.793   4.392
 1496TIP3    H1 4431   3.612   0.784   4.484
 1496TIP3    H2 4432   3.580   0.864   4.359
 1497TIP3   OH2 4433   0.801   1.985   2.745
 1497TIP3    H1 4434   0.863   1.924   2.785
 1497TIP3    H2 4435   0.823   1.984   2.652
 1498TIP3   OH2 4436   3.163   5.697   1.649
 1498TIP3    H1 4437   3.111   5.694   1.569
 1498TIP3    H2 4438   3.250   5.667   1.623
 1499TIP3   OH2 4439   7.166   5.643   6.648
 1499TIP3    H1 4440   7.186   5.594   6.569
 1499TIP3    H2 4441   7.083   5.686   6.629
 1500TIP3   OH2 4442   6.271   6.465   6.728
 1500TIP3    H1 4443   6.318   6.426   6.655
 1500TIP3    H2 4444   6.336   6.519   6.773
 1501TIP3   OH2 4445   0.778   5.951   0.031
 1501TIP3    H1 4446   0.723   5.961   0.109
 1501TIP3    H2 4447   0.717   5.959  -0.042
 1502TIP3   OH2 4448   0.194   3.953   1.803
 1502TIP3    H1 4449   0.153   3.872   1.833
 1502TIP3    H2 4450   0.145   3.977   1.724
 1503TIP3   OH2 4451   5.372   0.740   5.481
 1503TIP3    H1 4452   5.311   0.668   5.497
 1503TIP3    H2 4453   5.387   0.738   5.386
 1504TIP3   OH2 4454   1.873   7.719   1.343
 1504TIP3    H1 4455   1.885   7.625   1.335
 1504TIP3    H2 4456   1.953   7.757   1.306
 1505TIP3   OH2 4457   7.363   6.188   5.189
 1505TIP3    H1 4458   7.419   6.157   5.260
 1505TIP3    H2 4459   7.279   6.143   5.203
 1506TIP3   OH2 4460   2.042   6.222   1.540
 1506TIP3    H1 4461   2.048   6.135   1.501
 1506TIP3    H2 4462   2.079   6.280   1.474
 1507TIP3   OH2 4463   5.338   6.685   2.774
 1507TIP3    H1 4464   5.294   6.611   2.814
 1507TIP3    H2 4465   5.411   6.647   2.725
 1508TIP3   OH2 4466   2.471   1.456   1.994
 1508TIP3    H1 4467   2.400   1.392   2.001
 1508TIP3    H2 4468   2.534   1.415   1.934
 1509TIP3   OH2 4469   2.121   5.336   4.918
 1509TIP3    H1 4470   2.094   5.405   4.857
 1509TIP3    H2 4471   2.149   5.264   4.861
 1510TIP3   OH2 4472   7.995   1.618   1.892
 1510TIP3    H1 4473   8.008   1.564   1.814
 1510TIP3    H2 4474   7.937   1.688   1.863
 1511TIP3   OH2 4475   1.649   0.897   0.658
 1511TIP3    H1 4476   1.573   0.856   0.617
 1511TIP3    H2 4477   1.720   0.884   0.595
 1512TIP3   OH2 4478   5.569   2.232   0.936
 1512TIP3    H1 4479   5.479   2.206   0.914
 1512TIP3    H2 4480   5.569   2.327   0.927
 1513TIP3   OH2 4481   1.780   1.755   4.831
 1513TIP3    H1 4482   1.736   1.708   4.761
 1513TIP3    H2 4483   1.858   1.792   4.790
 1514TIP3   OH2 4484   8.077   4.333   4.472
 1514TIP3    H1 4485   8.105   4.405   4.529
 1514TIP3    H2 4486   8.153   4.275   4.468
 1515TIP3   OH2 4487   8.205   3.398   0.722
 1515TIP3    H1 4488   8.154   3.478   0.710
 1515TIP3    H2 4489   8.199   3.379   0.815
 1516TIP3   OH2 4490   2.463   0.333   2.611
 1516TIP3    H1 4491   2.456   0.350   2.705
 1516TIP3    H2 4492   2.551   0.362   2.588
 1517TIP3   OH2 4493   3.435   5.065   4.958
 1517TIP3    H1 4494   3.444   5.130   4.888
 1517TIP3    H2 4495   3.373   5.104   5.019
 1518TIP3   OH2 4496   2.271   6.219   5.827
 1518TIP3    H1 4497   2.316   6.229   5.743
 1518TIP3    H2 4498   2.182   6.251   5.811
 1519TIP3   OH2 4499   3.393   5.644   6.370
 1519TIP3    H1 4500   3.423   5.700   6.441
 1519TIP3    H2 4501   3.458   5.656   6.301
 1520TIP3   OH2 4502   5.172   4.804   4.788
 1520TIP3    H1 4503   5.262   4.771   4.782
 1520TIP3    H2 4504   5.143   4.778   4.875
 1521TIP3   OH2 4505   5.486   0.966   2.316
 1521TIP3    H1 4506   5.528   0.976   2.230
 1521TIP3    H2 4507   5.411   0.909   2.299
 1522TIP3   OH2 4508   5.153   3.430   6.273
 1522TIP3    H1 4509   5.210   3.359   6.243
 1522TIP3    H2 4510   5.212   3.499   6.301
 1523TIP3   OH2 4511   7.386   4.093   4.611
 1523TIP3    H1 4512   7.322   4.027   4.638
 1523TIP3    H2 4513   7.462   4.075   4.666
 1524TIP3   OH2 4514   4.297   0.491   5.635
 1524TIP3    H1 4515   4.381   0.535   5.620
 1524TIP3    H2 4516   4.268   0.465   5.548
 1525TIP3   OH2 4517   1.559   2.627   0.621
 1525TIP3    H1 4518   1.515   2.709   0.599
 1525TIP3    H2 4519   1.620   2.650   0.690
 1526TIP3   OH2 4520   6.501   7.549   3.734
 1526TIP3    H1 4521   6.580   7.602   3.724
 1526TIP3    H2 4522   6.441   7.604   3.785
 1527TIP3   OH2 4523   6.156   0.241   2.365
 1527TIP3    H1 4524   6.211   0.179   2.317
 1527TIP3    H2 4525   6.215   0.281   2.428
 1528TIP3   OH2 4526   0.600   2.947   4.935
 1528TIP3    H1 4527   0.652   3.025   4.917
 1528TIP3    H2 4528   0.583   2.952   5.030
 1529TIP3   OH2 4529   4.638   3.384   5.713
 1529TIP3    H1 4530   4.662   3.389   5.806
 1529TIP3    H2 4531   4.717   3.351   5.670
 1530TIP3   OH2 4532   8.065   7.048   0.693
 1530TIP3    H1 4533   8.080   7.043   0.599
 1530TIP3    H2 4534   8.023   6.965   0.715
 1531TIP3   OH2 4535   3.552   6.193   1.241
 1531TIP3    H1 4536   3.485   6.258   1.263
 1531TIP3    H2 4537   3.575   6.211   1.150
 1532TIP3   OH2 4538   5.808   5.067   3.358
 1532TIP3    H1 4539   5.772   5.146   3.398
 1532TIP3    H2 4540   5.864   5.099   3.287
 1533TIP3   OH2 4541   3.911   2.044   5.665
 1533TIP3    H1 4542   3.957   2.036   5.581
 1533TIP3    H2 4543   3.820   2.061   5.640
 1534TIP3   OH2 4544   2.434   2.115   0.659
 1534TIP3    H1 4545   2.481   2.152   0.585
 1534TIP3    H2 4546   2.362   2.177   0.675
 1535TIP3   OH2 4547   4.370   2.149   1.697
 1535TIP3    H1 4548   4.440   2.207   1.667
 1535TIP3    H2 4549   4.329   2.117   1.616
 1536TIP3   OH2 4550   2.338   2.665   4.817
 1536TIP3    H1 4551   2.389   2.619   4.750
 1536TIP3    H2 4552   2.382   2.643   4.899
 1537TIP3   OH2 4553   0.154   7.041   1.190
 1537TIP3    H1 4554   0.196   7.091   1.260
 1537TIP3    H2 4555   0.061   7.052   1.205
 1538TIP3   OH2 4556   4.734   3.637   0.955
 1538TIP3    H1 4557   4.800   3.691   0.911
 1538TIP3    H2 4558   4.785   3.578   1.010
 1539TIP3   OH2 4559   4.115   4.265   6.696
 1539TIP3    H1 4560   4.113   4.223   6.610
 1539TIP3    H2 4561   4.127   4.358   6.677
 1540TIP3   OH2 4562   7.971   3.297   2.247
 1540TIP3    H1 4563   8.008   3.217   2.209
 1540TIP3    H2 4564   7.973   3.360   2.175
 1541TIP3   OH2 4565   5.166   7.310   1.181
 1541TIP3    H1 4566   5.256   7.324   1.211
 1541TIP3    H2 4567   5.158   7.366   1.104
 1542TIP3   OH2 4568   2.925   1.417   5.004
 1542TIP3    H1 4569   2.909   1.460   5.088
 1542TIP3    H2 4570   2.841   1.377   4.982
 1543TIP3   OH2 4571   7.529   2.056   2.565
 1543TIP3    H1 4572   7.502   1.966   2.582
 1543TIP3    H2 4573   7.491   2.106   2.637
 1544TIP3   OH2 4574   0.222   6.653   3.376
 1544TIP3    H1 4575   0.220   6.633   3.469
 1544TIP3    H2 4576   0.278   6.731   3.370
 1545TIP3   OH2 4577   8.042   4.252   5.596
 1545TIP3    H1 4578   8.043   4.299   5.679
 1545TIP3    H2 4579   8.095   4.174   5.613
 1546TIP3   OH2 4580   4.605   7.275   1.515
 1546TIP3    H1 4581   4.661   7.332   1.567
 1546TIP3    H2 4582   4.548   7.335   1.467
 1547TIP3   OH2 4583   6.747   2.687   2.681
 1547TIP3    H1 4584   6.745   2.648   2.593
 1547TIP3    H2 4585   6.791   2.771   2.669
 1548TIP3   OH2 4586   5.858   2.664   6.344
 1548TIP3    H1 4587   5.953   2.666   6.352
 1548TIP3    H2 4588   5.841   2.694   6.254
 1549TIP3   OH2 4589   6.531  -0.008   4.711
 1549TIP3    H1 4590   6.440  -0.034   4.693
 1549TIP3    H2 4591   6.522   0.078   4.754
 1550TIP3   OH2 4592   3.726   3.165   5.509
 1550TIP3    H1 4593   3.672   3.189   5.434
 1550TIP3    H2 4594   3.735   3.070   5.503
 1551TIP3   OH2 4595   3.851   7.093   6.398
 1551TIP3    H1 4596   3.817   7.025   6.340
 1551TIP3    H2 4597   3.800   7.084   6.478
 1552TIP3   OH2 4598   1.985   3.383   5.805
 1552TIP3    H1 4599   1.948   3.389   5.717
 1552TIP3    H2 4600   2.001   3.474   5.830
 1553TIP3   OH2 4601   5.831   5.561   0.789
 1553TIP3    H1 4602   5.761   5.537   0.850
 1553TIP3    H2 4603   5.896   5.604   0.844
 1554TIP3   OH2 4604   5.845   5.672   2.153
 1554TIP3    H1 4605   5.833   5.659   2.247
 1554TIP3    H2 4606   5.756   5.672   2.117
 1555TIP3   OH2 4607   1.153   7.084   4.555
 1555TIP3    H1 4608   1.113   7.172   4.558
 1555TIP3    H2 4609   1.243   7.100   4.529
 1556TIP3   OH2 4610   0.032   4.447   2.197
 1556TIP3    H1 4611   0.007   4.506   2.126
 1556TIP3    H2 4612   0.127   4.437   2.188
 1557TIP3   OH2 4613   2.310   3.954   0.886
 1557TIP3    H1 4614   2.246   3.907   0.939
 1557TIP3    H2 4615   2.258   4.018   0.838
 1558TIP3   OH2 4616   4.705   3.134   5.216
 1558TIP3    H1 4617   4.626   3.111   5.264
 1558TIP3    H2 4618   4.735   3.216   5.256
 1559TIP3   OH2 4619   2.437   6.161   1.367
 1559TIP3    H1 4620   2.527   6.186   1.388
 1559TIP3    H2 4621   2.391   6.163   1.451
 1560TIP3   OH2 4622   7.160   4.721   1.290
 1560TIP3    H1 4623   7.133   4.637   1.328
 1560TIP3    H2 4624   7.078   4.769   1.278
 1561TIP3   OH2 4625   5.371   2.009   6.076
 1561TIP3    H1 4626   5.431   2.082   6.061
 1561TIP3    H2 4627   5.407   1.963   6.152
 1562TIP3   OH2 4628   5.219   4.871   4.146
 1562TIP3    H1 4629   5.256   4.784   4.161
 1562TIP3    H2 4630   5.127   4.855   4.125
 1563TIP3   OH2 4631   5.590   3.185   0.637
 1563TIP3    H1 4632   5.657   3.127   0.672
 1563TIP3    H2 4633   5.559   3.140   0.558
 1564TIP3   OH2 4634   6.822   3.089   1.001
 1564TIP3    H1 4635   6.796   3.180   1.013
 1564TIP3    H2 4636   6.763   3.056   0.933
 1565TIP3   OH2 4637   7.556   1.682   0.184
 1565TIP3    H1 4638   7.603   1.635   0.116
 1565TIP3    H2 4639   7.470   1.700   0.146
 1566TIP3   OH2 4640   4.076   7.293   6.384
 1566TIP3    H1 4641   4.012   7.221   6.388
 1566TIP3    H2 4642   4.040   7.360   6.443
 1567TIP3   OH2 4643   4.330   5.915   5.210
 1567TIP3    H1 4644   4.370   5.947   5.291
 1567TIP3    H2 4645   4.236   5.920   5.226
 1568TIP3   OH2 4646   5.938   7.704   2.230
 1568TIP3    H1 4647   5.969   7.704   2.140
 1568TIP3    H2 4648   5.857   7.756   2.228
 1569TIP3   OH2 4649   0.785   5.921   4.925
 1569TIP3    H1 4650   0.825   5.843   4.886
 1569TIP3    H2 4651   0.849   5.991   4.910
 1570TIP3   OH2 4652   0.772   5.752   1.970
 1570TIP3    H1 4653   0.864   5.735   1.953
 1570TIP3    H2 4654   0.728   5.733   1.887
 1571TIP3   OH2 4655   4.729   1.611   6.363
 1571TIP3    H1 4656   4.684   1.591   6.281
 1571TIP3    H2 4657   4.659   1.620   6.427
 1572TIP3   OH2 4658   7.507   6.701   3.980
 1572TIP3    H1 4659   7.447   6.734   4.046
 1572TIP3    H2 4660   7.586   6.676   4.029
 1573TIP3   OH2 4661   2.092   4.419   2.127
 1573TIP3    H1 4662   2.143   4.496   2.099
 1573TIP3    H2 4663   2.033   4.452   2.194
 1574TIP3   OH2 4664   4.811   0.097   4.301
 1574TIP3    H1 4665   4.785   0.005   4.297
 1574TIP3    H2 4666   4.856   0.106   4.385
 1575TIP3   OH2 4667   3.775   3.244   4.321
 1575TIP3    H1 4668   3.761   3.331   4.283
 1575TIP3    H2 4669   3.868   3.227   4.309
 1576TIP3   OH2 4670   0.734   3.061   3.368
 1576TIP3    H1 4671   0.814   3.111   3.350
 1576TIP3    H2 4672   0.713   3.083   3.458
 1577TIP3   OH2 4673   0.511   7.195   1.704
 1577TIP3    H1 4674   0.558   7.192   1.621
 1577TIP3    H2 4675   0.579   7.200   1.771
 1578TIP3   OH2 4676   1.202   5.142   4.072
 1578TIP3    H1 4677   1.138   5.187   4.127
 1578TIP3    H2 4678   1.149   5.100   4.004
 1579TIP3   OH2 4679   2.887   7.509   6.002
 1579TIP3    H1 4680   2.915   7.507   6.093
 1579TIP3    H2 4681   2.966   7.531   5.953
 1580TIP3   OH2 4682   1.844   4.735   0.526
 1580TIP3    H1 4683   1.835   4.688   0.443
 1580TIP3    H2 4684   1.873   4.823   0.500
 1581TIP3   OH2 4685   8.240   0.621   4.330
 1581TIP3    H1 4686   8.163   0.630   4.386
 1581TIP3    H2 4687   8.286   0.705   4.339
 1582TIP3   OH2 4688   4.132   1.179   2.667
 1582TIP3    H1 4689   4.160   1.264   2.702
 1582TIP3    H2 4690   4.037   1.188   2.654
 1583TIP3   OH2 4691   3.443   7.575   3.911
 1583TIP3    H1 4692   3.378   7.554   3.978
 1583TIP3    H2 4693   3.517   7.518   3.931
 1584TIP3   OH2 4694   3.700   6.131   1.464
 1584TIP3    H1 4695   3.635   6.116   1.532
 1584TIP3    H2 4696   3.651   6.165   1.390
 1585TIP3   OH2 4697   1.902   5.487   3.580
 1585TIP3    H1 4698   1.892   5.430   3.504
 1585TIP3    H2 4699   1.975   5.545   3.556
 1586TIP3   OH2 4700   1.680   2.020   0.973
 1586TIP3    H1 4701   1.616   2.029   1.044
 1586TIP3    H2 4702   1.708   1.929   0.977
 1587TIP3   OH2 4703   3.261   4.649   1.456
 1587TIP3    H1 4704   3.294   4.591   1.387
 1587TIP3    H2 4705   3.182   4.687   1.419
 1588TIP3   OH2 4706   7.453   6.351   4.748
 1588TIP3    H1 4707   7.454   6.335   4.653
 1588TIP3    H2 4708   7.463   6.264   4.787
 1589TIP3   OH2 4709   5.045   2.883   2.505
 1589TIP3    H1 4710   5.000   2.820   2.450
 1589TIP3    H2 4711   4.995   2.964   2.495
 1590TIP3   OH2 4712   4.995   6.782   3.010
 1590TIP3    H1 4713   4.973   6.692   2.990
 1590TIP3    H2 4714   4.953   6.799   3.094
 1591TIP3   OH2 4715   1.360   1.336   0.516
 1591TIP3    H1 4716   1.352   1.241   0.512
 1591TIP3    H2 4717   1.406   1.353   0.598
 1592TIP3   OH2 4718   1.782   1.440   2.102
 1592TIP3    H1 4719   1.792   1.510   2.167
 1592TIP3    H2 4720   1.867   1.435   2.059
 1593TIP3   OH2 4721   3.277   3.024   5.116
 1593TIP3    H1 4722   3.333   3.089   5.074
 1593TIP3    H2 4723   3.255   2.962   5.046
 1594TIP3   OH2 4724   6.056   0.564   2.377
 1594TIP3    H1 4725   6.090   0.516   2.302
 1594TIP3    H2 4726   5.970   0.524   2.394
 1595TIP3   OH2 4727   1.131   1.561   1.830
 1595TIP3    H1 4728   1.084   1.624   1.884
 1595TIP3    H2 4729   1.204   1.610   1.793
 1596TIP3   OH2 4730   7.771   2.388   2.450
 1596TIP3    H1 4731   7.803   2.477   2.459
 1596TIP3    H2 4732   7.676   2.397   2.442
 1597TIP3   OH2 4733   3.926   3.897   6.398
 1597TIP3    H1 4734   3.887   3.810   6.412
 1597TIP3    H2 4735   3.899   3.921   6.309
 1598TIP3   OH2 4736   1.963   2.774   5.377
 1598TIP3    H1 4737   2.055   2.750   5.365
 1598TIP3    H2 4738   1.924   2.761   5.290
 1599TIP3   OH2 4739   4.160   6.049   1.079
 1599TIP3    H1 4740   4.212   6.129   1.072
 1599TIP3    H2 4741   4.104   6.064   1.156
 1600TIP3   OH2 4742   1.025   7.718   2.337
 1600TIP3    H1 4743   0.942   7.712   2.289
 1600TIP3    H2 4744   1.049   7.810   2.331
 1601TIP3   OH2 4745   4.188   1.165   1.922
 1601TIP3    H1 4746   4.209   1.242   1.868
 1601TIP3    H2 4747   4.095   1.151   1.908
 1602TIP3   OH2 4748   5.498   5.412   6.630
 1602TIP3    H1 4749   5.500   5.484   6.692
 1602TIP3    H2 4750   5.514   5.334   6.683
 1603TIP3   OH2 4751   4.499   0.164   0.585
 1603TIP3    H1 4752   4.508   0.207   0.669
 1603TIP3    H2 4753   4.570   0.100   0.582
 1604TIP3   OH2 4754   7.669   4.699   6.404
 1604TIP3    H1 4755   7.726   4.763   6.447
 1604TIP3    H2 4756   7.727   4.649   6.347
 1605TIP3   OH2 4757   3.668   5.069   3.424
 1605TIP3    H1 4758   3.586   5.090   3.379
 1605TIP3    H2 4759   3.731   5.133   3.390
 1606TIP3   OH2 4760   5.965   5.645   1.003
 1606TIP3    H1 4761   6.021   5.693   1.064
 1606TIP3    H2 4762   5.918   5.582   1.057
 1607TIP3   OH2 4763   5.199   2.630   0.804
 1607TIP3    H1 4764   5.178   2.723   0.807
 1607TIP3    H2 4765   5.295   2.627   0.803
 1608TIP3   OH2 4766   3.016   4.244   0.670
 1608TIP3    H1 4767   3.105   4.264   0.642
 1608TIP3    H2 4768   2.960   4.291   0.608
 1609TIP3   OH2 4769   6.143   7.497   4.677
 1609TIP3    H1 4770   6.082   7.512   4.605
 1609TIP3    H2 4771   6.186   7.414   4.655
 1610TIP3   OH2 4772   5.803   6.688   1.698
 1610TIP3    H1 4773   5.841   6.677   1.611
 1610TIP3    H2 4774   5.875   6.666   1.758
 1611TIP3   OH2 4775   7.339   5.400   6.077
 1611TIP3    H1 4776   7.414   5.460   6.081
 1611TIP3    H2 4777   7.362   5.339   6.007
 1612TIP3   OH2 4778   2.119   3.475   2.515
 1612TIP3    H1 4779   2.113   3.384   2.542
 1612TIP3    H2 4780   2.212   3.489   2.497
 1613TIP3   OH2 4781   3.866   4.965   6.006
 1613TIP3    H1 4782   3.829   5.053   6.008
 1613TIP3    H2 4783   3.942   4.969   6.063
 1614TIP3   OH2 4784   1.598   7.460   4.669
 1614TIP3    H1 4785   1.537   7.418   4.729
 1614TIP3    H2 4786   1.549   7.533   4.631
 1615TIP3   OH2 4787   6.832   0.945   2.035
 1615TIP3    H1 4788   6.896   0.882   2.068
 1615TIP3    H2 4789   6.770   0.892   1.985
 1616TIP3   OH2 4790   5.300   5.197   4.342
 1616TIP3    H1 4791   5.280   5.268   4.281
 1616TIP3    H2 4792   5.226   5.196   4.402
 1617TIP3   OH2 4793   0.299   3.698   0.092
 1617TIP3    H1 4794   0.238   3.760   0.053
 1617TIP3    H2 4795   0.384   3.740   0.086
 1618TIP3   OH2 4796   4.912   6.748   0.723
 1618TIP3    H1 4797   5.000   6.756   0.685
 1618TIP3    H2 4798   4.918   6.794   0.807
 1619TIP3   OH2 4799   2.115   0.554   2.721
 1619TIP3    H1 4800   2.127   0.527   2.812
 1619TIP3    H2 4801   2.041   0.615   2.724
 1620TIP3   OH2 4802   2.377   0.399   1.995
 1620TIP3    H1 4803   2.288   0.370   2.018
 1620TIP3    H2 4804   2.429   0.375   2.072
 1621TIP3   OH2 4805   4.707   1.010   2.941
 1621TIP3    H1 4806   4.661   1.050   3.014
 1621TIP3    H2 4807   4.783   0.967   2.981
 1622TIP3   OH2 4808   1.631   0.108   0.074
 1622TIP3    H1 4809   1.616   0.202   0.082
 1622TIP3    H2 4810   1.647   0.094  -0.019
 1623TIP3   OH2 4811   0.667   2.451   5.878
 1623TIP3    H1 4812   0.746   2.460   5.826
 1623TIP3    H2 4813   0.691   2.482   5.965
 1624TIP3   OH2 4814   7.090   3.552   1.803
 1624TIP3    H1 4815   7.101   3.487   1.873
 1624TIP3    H2 4816   7.077   3.635   1.850
 1625TIP3   OH2 4817   3.156   3.365   3.215
 1625TIP3    H1 4818   3.160   3.432   3.147
 1625TIP3    H2 4819   3.143   3.283   3.167
 1626TIP3   OH2 4820   7.526   1.861   3.381
 1626TIP3    H1 4821   7.525   1.828   3.471
 1626TIP3    H2 4822   7.611   1.834   3.346
 1627TIP3   OH2 4823   7.304   2.400   3.506
 1627TIP3    H1 4824   7.236   2.432   3.448
 1627TIP3    H2 4825   7.382   2.395   3.451
 1628TIP3   OH2 4826   6.246   4.958   3.813
 1628TIP3    H1 4827   6.205   5.042   3.790
 1628TIP3    H2 4828   6.292   4.931   3.734
 1629TIP3   OH2 4829   8.240   2.039   4.267
 1629TIP3    H1 4830   8.313   2.090   4.231
 1629TIP3    H2 4831   8.163   2.071   4.220
 1630TIP3   OH2 4832   0.294   5.156   1.715
 1630TIP3    H1 4833   0.326   5.247   1.720
 1630TIP3    H2 4834   0.325   5.116   1.796
 1631TIP3   OH2 4835   6.993   2.963   4.148
 1631TIP3    H1 4836   6.999   2.974   4.053
 1631TIP3    H2 4837   7.043   3.036   4.184
 1632TIP3   OH2 4838   4.937   2.154   3.710
 1632TIP3    H1 4839   4.940   2.228   3.771
 1632TIP3    H2 4840   4.928   2.194   3.624
 1633TIP3   OH2 4841   1.193   3.994   1.138
 1633TIP3    H1 4842   1.281   4.028   1.155
 1633TIP3    H2 4843   1.183   3.922   1.201
 1634TIP3   OH2 4844   5.655   1.534   5.157
 1634TIP3    H1 4845   5.702   1.603   5.204
 1634TIP3    H2 4846   5.713   1.511   5.084
 1635TIP3   OH2 4847   1.030   3.673   5.938
 1635TIP3    H1 4848   1.000   3.764   5.932
 1635TIP3    H2 4849   1.115   3.679   5.982
 1636TIP3   OH2 4850   5.077   6.626   0.994
 1636TIP3    H1 4851   5.135   6.551   1.002
 1636TIP3    H2 4852   5.136   6.700   0.977
 1637TIP3   OH2 4853   0.789   4.882   3.531
 1637TIP3    H1 4854   0.804   4.808   3.472
 1637TIP3    H2 4855   0.835   4.858   3.612
 1638TIP3   OH2 4856   6.312   2.710   2.489
 1638TIP3    H1 4857   6.222   2.717   2.521
 1638TIP3    H2 4858   6.358   2.783   2.530
 1639TIP3   OH2 4859   0.043   1.596   3.086
 1639TIP3    H1 4860   0.040   1.655   3.162
 1639TIP3    H2 4861   0.069   1.652   3.013
 1640TIP3   OH2 4862   1.361   5.067   3.510
 1640TIP3    H1 4863   1.415   5.132   3.465
 1640TIP3    H2 4864   1.285   5.117   3.540
 1641TIP3   OH2 4865   4.521   3.400   4.961
 1641TIP3    H1 4866   4.604   3.422   5.004
 1641TIP3    H2 4867   4.519   3.305   4.959
 1642TIP3   OH2 4868   2.785   2.879   6.513
 1642TIP3    H1 4869   2.847   2.836   6.455
 1642TIP3    H2 4870   2.717   2.814   6.529
 1643TIP3   OH2 4871   1.735   7.128   0.818
 1643TIP3    H1 4872   1.780   7.144   0.902
 1643TIP3    H2 4873   1.661   7.071   0.841
 1644TIP3   OH2 4874   6.507   1.271   6.059
 1644TIP3    H1 4875   6.462   1.353   6.074
 1644TIP3    H2 4876   6.570   1.290   5.989
 1645TIP3   OH2 4877   7.537   6.292   1.778
 1645TIP3    H1 4878   7.509   6.365   1.833
 1645TIP3    H2 4879   7.470   6.286   1.711
 1646TIP3   OH2 4880   7.928   5.087   4.665
 1646TIP3    H1 4881   7.902   5.161   4.611
 1646TIP3    H2 4882   7.850   5.064   4.715
 1647TIP3   OH2 4883   6.340   2.169   3.844
 1647TIP3    H1 4884   6.257   2.129   3.818
 1647TIP3    H2 4885   6.350   2.244   3.786
 1648TIP3   OH2 4886   1.974   3.278   0.912
 1648TIP3    H1 4887   1.912   3.350   0.901
 1648TIP3    H2 4888   1.988   3.273   1.006
 1649TIP3   OH2 4889   5.594   1.280   5.216
 1649TIP3    H1 4890   5.562   1.263   5.305
 1649TIP3    H2 4891   5.581   1.374   5.204
 1650TIP3   OH2 4892   1.729   7.649   3.189
 1650TIP3    H1 4893   1.670   7.688   3.124
 1650TIP3    H2 4894   1.692   7.676   3.273
 1651TIP3   OH2 4895   0.975   0.837   4.606
 1651TIP3    H1 4896   0.904   0.881   4.561
 1651TIP3    H2 4897   0.932   0.777   4.667
 1652TIP3   OH2 4898   6.129   3.819   1.750
 1652TIP3    H1 4899   6.108   3.729   1.728
 1652TIP3    H2 4900   6.188   3.849   1.681
 1653TIP3   OH2 4901   4.515   7.108   1.779
 1653TIP3    H1 4902   4.530   7.122   1.686
 1653TIP3    H2 4903   4.482   7.019   1.785
 1654TIP3   OH2 4904   2.061   6.913   1.326
 1654TIP3    H1 4905   2.088   6.972   1.255
 1654TIP3    H2 4906   2.138   6.859   1.344
 1655TIP3   OH2 4907   4.494   3.559   3.340
 1655TIP3    H1 4908   4.533   3.507   3.270
 1655TIP3    H2 4909   4.409   3.518   3.356
 1656TIP3   OH2 4910   3.374   3.368   4.227
 1656TIP3    H1 4911   3.458   3.396   4.264
 1656TIP3    H2 4912   3.360   3.427   4.153
 1657TIP3   OH2 4913   8.146   6.513   1.971
 1657TIP3    H1 4914   8.215   6.456   2.005
 1657TIP3    H2 4915   8.173   6.601   1.998
 1658TIP3   OH2 4916   6.309   6.948   1.035
 1658TIP3    H1 4917   6.372   6.889   1.077
 1658TIP3    H2 4918   6.232   6.893   1.020
 1659TIP3   OH2 4919   7.842   5.357   0.508
 1659TIP3    H1 4920   7.775   5.372   0.441
 1659TIP3    H2 4921   7.818   5.274   0.547
 1660TIP3   OH2 4922   0.515   7.088   5.912
 1660TIP3    H1 4923   0.604   7.094   5.948
 1660TIP3    H2 4924   0.483   7.002   5.942
 1661TIP3   OH2 4925   5.934   2.360   2.072
 1661TIP3    H1 4926   5.877   2.435   2.056
 1661TIP3    H2 4927   6.010   2.396   2.118
 1662TIP3   OH2 4928   2.273   5.872   1.026
 1662TIP3    H1 4929   2.275   5.953   0.975
 1662TIP3    H2 4930   2.223   5.811   0.971
 1663TIP3   OH2 4931   3.185   2.405   0.546
 1663TIP3    H1 4932   3.196   2.323   0.594
 1663TIP3    H2 4933   3.144   2.464   0.609
 1664TIP3   OH2 4934   8.240   7.297   0.988
 1664TIP3    H1 4935   8.335   7.307   1.001
 1664TIP3    H2 4936   8.231   7.268   0.898
 1665TIP3   OH2 4937   0.242   0.060   1.270
 1665TIP3    H1 4938   0.172   0.095   1.215
 1665TIP3    H2 4939   0.266   0.132   1.328
 1666TIP3   OH2 4940   3.484   5.252   4.089
 1666TIP3    H1 4941   3.438   5.202   4.157
 1666TIP3    H2 4942   3.571   5.268   4.126
 1667TIP3   OH2 4943   1.493   2.204   1.474
 1667TIP3    H1 4944   1.475   2.287   1.518
 1667TIP3    H2 4945   1.445   2.210   1.391
 1668TIP3   OH2 4946   0.952   7.400   1.471
 1668TIP3    H1 4947   0.960   7.377   1.379
 1668TIP3    H2 4948   1.025   7.356   1.514
 1669TIP3   OH2 4949   1.493   3.172   0.582
 1669TIP3    H1 4950   1.426   3.231   0.616
 1669TIP3    H2 4951   1.573   3.199   0.626
 1670TIP3   OH2 4952   8.134   7.146   3.464
 1670TIP3    H1 4953   8.229   7.132   3.466
 1670TIP3    H2 4954   8.107   7.114   3.378
 1671TIP3   OH2 4955   2.622   0.999   0.456
 1671TIP3    H1 4956   2.701   0.948   0.472
 1671TIP3    H2 4957   2.631   1.076   0.512
 1672TIP3   OH2 4958   1.060   1.902   0.756
 1672TIP3    H1 4959   1.127   1.874   0.693
 1672TIP3    H2 4960   1.087   1.862   0.839
 1673TIP3   OH2 4961   6.155   7.044   0.028
 1673TIP3    H1 4962   6.082   7.023  -0.031
 1673TIP3    H2 4963   6.204   6.962   0.035
 1674TIP3   OH2 4964   5.227   2.636   0.043
 1674TIP3    H1 4965   5.144   2.683   0.042
 1674TIP3    H2 4966   5.291   2.699   0.011
 1675TIP3   OH2 4967   4.344   7.303   3.230
 1675TIP3    H1 4968   4.253   7.312   3.203
 1675TIP3    H2 4969   4.394   7.299   3.148
 1676TIP3   OH2 4970   3.130   3.639   1.055
 1676TIP3    H1 4971   3.219   3.603   1.048
 1676TIP3    H2 4972   3.080   3.590   0.989
 1677TIP3   OH2 4973   4.861   1.691   4.537
 1677TIP3    H1 4974   4.862   1.780   4.571
 1677TIP3    H2 4975   4.790   1.647   4.583
 1678TIP3   OH2 4976   0.072   7.325   3.515
 1678TIP3    H1 4977   0.002   7.381   3.480
 1678TIP3    H2 4978   0.105   7.278   3.439
 1679TIP3   OH2 4979   2.767   7.486   6.412
 1679TIP3    H1 4980   2.833   7.417   6.423
 1679TIP3    H2 4981   2.684   7.439   6.411
 1680TIP3   OH2 4982   7.448   0.754   2.665
 1680TIP3    H1 4983   7.397   0.681   2.629
 1680TIP3    H2 4984   7.457   0.734   2.758
 1681TIP3   OH2 4985   0.963   4.091   4.044
 1681TIP3    H1 4986   0.896   4.088   3.975
 1681TIP3    H2 4987   0.945   4.014   4.097
 1682TIP3   OH2 4988   0.111   4.771   0.823
 1682TIP3    H1 4989   0.069   4.856   0.811
 1682TIP3    H2 4990   0.129   4.741   0.734
 1683TIP3   OH2 4991   1.293   4.357   6.662
 1683TIP3    H1 4992   1.337   4.330   6.742
 1683TIP3    H2 4993   1.363   4.385   6.604
 1684TIP3   OH2 4994   2.778   2.569   6.120
 1684TIP3    H1 4995   2.746   2.484   6.150
 1684TIP3    H2 4996   2.826   2.604   6.194
 1685TIP3   OH2 4997   1.394   5.343   0.161
 1685TIP3    H1 4998   1.303   5.373   0.161
 1685TIP3    H2 4999   1.413   5.325   0.253
 1686TIP3   OH2 5000   4.694   6.244   1.266
 1686TIP3    H1 5001   4.690   6.330   1.224
 1686TIP3    H2 5002   4.776   6.206   1.234
 1687TIP3   OH2 5003   2.284   3.044   5.913
 1687TIP3    H1 5004   2.231   3.123   5.926
 1687TIP3    H2 5005   2.222   2.972   5.924
 1688TIP3   OH2 5006   0.051   4.412   0.363
 1688TIP3    H1 5007  -0.040   4.405   0.392
 1688TIP3    H2 5008   0.100   4.357   0.424
 1689TIP3   OH2 5009   1.881   6.239   3.020
 1689TIP3    H1 5010   1.873   6.307   2.953
 1689TIP3    H2 5011   1.807   6.254   3.079
 1690TIP3   OH2 5012   8.138   1.775   4.714
 1690TIP3    H1 5013   8.186   1.805   4.637
 1690TIP3    H2 5014   8.179   1.692   4.737
 1691TIP3   OH2 5015   7.921   2.390   5.912
 1691TIP3    H1 5016   8.015   2.386   5.899
 1691TIP3    H2 5017   7.911   2.431   5.998
 1692TIP3   OH2 5018   0.534   5.436   5.594
 1692TIP3    H1 5019   0.555   5.488   5.516
 1692TIP3    H2 5020   0.617   5.393   5.616
 1693TIP3   OH2 5021   3.788   0.409   5.177
 1693TIP3    H1 5022   3.723   0.465   5.220
 1693TIP3    H2 5023   3.776   0.323   5.218
 1694TIP3   OH2 5024   2.664   0.380   6.554
 1694TIP3    H1 5025   2.723   0.428   6.496
 1694TIP3    H2 5026   2.602   0.445   6.584
 1695TIP3   OH2 5027   2.061   2.997   4.281
 1695TIP3    H1 5028   2.067   3.093   4.288
 1695TIP3    H2 5029   2.020   2.970   4.363
 1696TIP3   OH2 5030   1.090   2.184   0.726
 1696TIP3    H1 5031   1.178   2.184   0.689
 1696TIP3    H2 5032   1.069   2.092   0.741
 1697TIP3   OH2 5033   2.378   7.558   1.580
 1697TIP3    H1 5034   2.374   7.647   1.615
 1697TIP3    H2 5035   2.446   7.561   1.513
 1698TIP3   OH2 5036   7.723   3.204   1.023
 1698TIP3    H1 5037   7.732   3.134   0.959
 1698TIP3    H2 5038   7.628   3.214   1.035
 1699TIP3   OH2 5039   6.755   1.437   1.664
 1699TIP3    H1 5040   6.809   1.515   1.674
 1699TIP3    H2 5041   6.771   1.386   1.744
 1700TIP3   OH2 5042   1.823   1.786   5.761
 1700TIP3    H1 5043   1.828   1.771   5.855
 1700TIP3    H2 5044   1.879   1.863   5.747
 1701TIP3   OH2 5045   1.285   0.105   3.180
 1701TIP3    H1 5046   1.358   0.049   3.155
 1701TIP3    H2 5047   1.212   0.074   3.127
 1702TIP3   OH2 5048   0.374   4.012   4.422
 1702TIP3    H1 5049   0.318   4.041   4.350
 1702TIP3    H2 5050   0.426   4.090   4.444
 1703TIP3   OH2 5051   2.027   7.109   0.620
 1703TIP3    H1 5052   2.005   7.035   0.677
 1703TIP3    H2 5053   2.023   7.186   0.677
 1704TIP3   OH2 5054   7.010   1.090   4.086
 1704TIP3    H1 5055   6.968   1.035   4.020
 1704TIP3    H2 5056   7.102   1.062   4.084
 1705TIP3   OH2 5057   3.653   4.873   1.811
 1705TIP3    H1 5058   3.718   4.889   1.878
 1705TIP3    H2 5059   3.652   4.777   1.801
 1706TIP3   OH2 5060   4.364   1.166   1.345
 1706TIP3    H1 5061   4.354   1.134   1.434
 1706TIP3    H2 5062   4.274   1.173   1.311
 1707TIP3   OH2 5063   8.076   6.979   2.617
 1707TIP3    H1 5064   8.072   6.886   2.595
 1707TIP3    H2 5065   8.098   7.021   2.534
 1708TIP3   OH2 5066   7.812   0.433   4.927
 1708TIP3    H1 5067   7.788   0.371   4.857
 1708TIP3    H2 5068   7.795   0.385   5.008
 1709TIP3   OH2 5069   1.356   1.902   3.119
 1709TIP3    H1 5070   1.285   1.965   3.106
 1709TIP3    H2 5071   1.434   1.945   3.082
 1710TIP3   OH2 5072   4.965   2.044   6.633
 1710TIP3    H1 5073   4.876   2.074   6.614
 1710TIP3    H2 5074   4.988   1.989   6.557
 1711TIP3   OH2 5075   1.230   3.129   0.754
 1711TIP3    H1 5076   1.166   3.076   0.705
 1711TIP3    H2 5077   1.249   3.203   0.695
 1712TIP3   OH2 5078   2.643   1.804   1.873
 1712TIP3    H1 5079   2.652   1.879   1.932
 1712TIP3    H2 5080   2.717   1.748   1.895
 1713TIP3   OH2 5081   5.951   3.645   2.421
 1713TIP3    H1 5082   6.041   3.665   2.444
 1713TIP3    H2 5083   5.951   3.637   2.326
 1714TIP3   OH2 5084   4.410   7.837   5.083
 1714TIP3    H1 5085   4.490   7.830   5.134
 1714TIP3    H2 5086   4.395   7.748   5.049
 1715TIP3   OH2 5087   7.763   4.288   1.788
 1715TIP3    H1 5088   7.797   4.375   1.805
 1715TIP3    H2 5089   7.742   4.288   1.694
 1716TIP3   OH2 5090   8.151   5.086   6.503
 1716TIP3    H1 5091   8.188   5.006   6.539
 1716TIP3    H2 5092   8.146   5.146   6.578
 1717TIP3   OH2 5093   1.340   7.514   2.066
 1717TIP3    H1 5094   1.260   7.467   2.089
 1717TIP3    H2 5095   1.313   7.605   2.056
 1718TIP3   OH2 5096   6.346   2.514   2.077
 1718TIP3    H1 5097   6.328   2.435   2.025
 1718TIP3    H2 5098   6.415   2.559   2.028
 1719TIP3   OH2 5099   1.877   1.755   1.457
 1719TIP3    H1 5100   1.823   1.728   1.531
 1719TIP3    H2 5101   1.814   1.778   1.389
 1720TIP3   OH2 5102   1.814   3.230   4.694
 1720TIP3    H1 5103   1.810   3.136   4.708
 1720TIP3    H2 5104   1.888   3.259   4.747
 1721TIP3   OH2 5105   3.815   0.119   4.203
 1721TIP3    H1 5106   3.869   0.120   4.282
 1721TIP3    H2 5107   3.742   0.061   4.224
 1722TIP3   OH2 5108   0.119   3.109   3.026
 1722TIP3    H1 5109   0.209   3.131   3.003
 1722TIP3    H2 5110   0.126   3.031   3.080
 1723TIP3   OH2 5111   2.538   3.364   6.528
 1723TIP3    H1 5112   2.564   3.456   6.529
 1723TIP3    H2 5113   2.548   3.336   6.437
 1724TIP3   OH2 5114   7.980   4.379   4.223
 1724TIP3    H1 5115   7.904   4.430   4.252
 1724TIP3    H2 5116   8.011   4.335   4.301
 1725TIP3   OH2 5117   6.355   3.663   3.881
 1725TIP3    H1 5118   6.286   3.724   3.856
 1725TIP3    H2 5119   6.399   3.641   3.799
 1726TIP3   OH2 5120   3.934   1.744   3.552
 1726TIP3    H1 5121   3.896   1.689   3.621
 1726TIP3    H2 5122   3.987   1.808   3.599
 1727TIP3   OH2 5123   6.944   0.915   0.915
 1727TIP3    H1 5124   6.925   0.836   0.864
 1727TIP3    H2 5125   6.998   0.969   0.857
 1728TIP3   OH2 5126   0.660   1.043   3.280
 1728TIP3    H1 5127   0.578   0.999   3.258
 1728TIP3    H2 5128   0.700   1.065   3.196
 1729TIP3   OH2 5129   8.168   3.663   4.106
 1729TIP3    H1 5130   8.255   3.634   4.133
 1729TIP3    H2 5131   8.127   3.586   4.067
 1730TIP3   OH2 5132   1.707   0.756   2.971
 1730TIP3    H1 5133   1.629   0.707   2.998
 1730TIP3    H2 5134   1.677   0.810   2.897
 1731TIP3   OH2 5135   0.608   6.779   4.287
 1731TIP3    H1 5136   0.559   6.844   4.237
 1731TIP3    H2 5137   0.676   6.748   4.227
 1732TIP3   OH2 5138   4.601   5.150   2.561
 1732TIP3    H1 5139   4.584   5.201   2.481
 1732TIP3    H2 5140   4.611   5.216   2.630
 1733TIP3   OH2 5141   1.719   1.218   4.076
 1733TIP3    H1 5142   1.716   1.170   3.993
 1733TIP3    H2 5143   1.629   1.247   4.090
 1734TIP3   OH2 5144   1.593   1.195   2.904
 1734TIP3    H1 5145   1.501   1.172   2.914
 1734TIP3    H2 5146   1.592   1.286   2.875
 1735TIP3   OH2 5147   7.513   3.015   0.360
 1735TIP3    H1 5148   7.484   2.939   0.411
 1735TIP3    H2 5149   7.507   2.986   0.269
 1736TIP3   OH2 5150   6.334   7.335   0.575
 1736TIP3    H1 5151   6.402   7.397   0.550
 1736TIP3    H2 5152   6.259   7.357   0.521
 1737TIP3   OH2 5153   4.435   6.555   1.866
 1737TIP3    H1 5154   4.363   6.491   1.866
 1737TIP3    H2 5155   4.468   6.553   1.776
 1738TIP3   OH2 5156   4.832   7.269   4.477
 1738TIP3    H1 5157   4.741   7.273   4.505
 1738TIP3    H2 5158   4.883   7.282   4.557
 1739TIP3   OH2 5159   4.641   2.939   3.654
 1739TIP3    H1 5160   4.721   2.929   3.704
 1739TIP3    H2 5161   4.576   2.968   3.718
 1740TIP3   OH2 5162   0.911   2.135   1.770
 1740TIP3    H1 5163   0.838   2.079   1.799
 1740TIP3    H2 5164   0.906   2.212   1.826
 1741TIP3   OH2 5165   5.679   0.880   3.410
 1741TIP3    H1 5166   5.615   0.834   3.464
 1741TIP3    H2 5167   5.756   0.823   3.411
 1742TIP3   OH2 5168   7.369   5.245   6.340
 1742TIP3    H1 5169   7.315   5.261   6.262
 1742TIP3    H2 5170   7.390   5.152   6.335
 1743TIP3   OH2 5171   2.567   5.353   4.273
 1743TIP3    H1 5172   2.483   5.314   4.299
 1743TIP3    H2 5173   2.622   5.277   4.252
 1744TIP3   OH2 5174   7.779   7.636   0.920
 1744TIP3    H1 5175   7.821   7.580   0.855
 1744TIP3    H2 5176   7.703   7.585   0.950
 1745TIP3   OH2 5177   4.838   6.165   3.528
 1745TIP3    H1 5178   4.825   6.075   3.556
 1745TIP3    H2 5179   4.886   6.206   3.601
 1746TIP3   OH2 5180   6.706   6.830   5.252
 1746TIP3    H1 5181   6.615   6.838   5.226
 1746TIP3    H2 5182   6.752   6.805   5.173
 1747TIP3   OH2 5183   3.355   0.240   0.999
 1747TIP3    H1 5184   3.290   0.263   1.065
 1747TIP3    H2 5185   3.355   0.314   0.938
 1748TIP3   OH2 5186   6.919   0.081   4.071
 1748TIP3    H1 5187   6.825   0.075   4.052
 1748TIP3    H2 5188   6.937   0.005   4.127
 1749TIP3   OH2 5189   7.968   0.734   3.198
 1749TIP3    H1 5190   8.011   0.654   3.170
 1749TIP3    H2 5191   8.020   0.805   3.159
 1750TIP3   OH2 5192   2.021   6.065   6.196
 1750TIP3    H1 5193   2.012   6.148   6.149
 1750TIP3    H2 5194   2.090   6.018   6.149
 1751TIP3   OH2 5195   0.172   0.590   2.535
 1751TIP3    H1 5196   0.077   0.593   2.527
 1751TIP3    H2 5197   0.191   0.636   2.617
 1752TIP3   OH2 5198   4.379   0.921   3.311
 1752TIP3    H1 5199   4.360   0.863   3.237
 1752TIP3    H2 5200   4.468   0.951   3.297
 1753TIP3   OH2 5201   1.550   4.384   4.729
 1753TIP3    H1 5202   1.554   4.429   4.814
 1753TIP3    H2 5203   1.518   4.451   4.669
 1754TIP3   OH2 5204   0.226   7.322   4.135
 1754TIP3    H1 5205   0.297   7.305   4.197
 1754TIP3    H2 5206   0.223   7.417   4.128
 1755TIP3   OH2 5207   4.691   1.239   2.629
 1755TIP3    H1 5208   4.678   1.220   2.536
 1755TIP3    H2 5209   4.690   1.153   2.671
 1756TIP3   OH2 5210   1.286   3.532   1.634
 1756TIP3    H1 5211   1.364   3.535   1.579
 1756TIP3    H2 5212   1.276   3.439   1.656
 1757TIP3   OH2 5213   2.520   1.648   6.532
 1757TIP3    H1 5214   2.521   1.571   6.475
 1757TIP3    H2 5215   2.486   1.718   6.476
 1758TIP3   OH2 5216   5.810   3.192   4.079
 1758TIP3    H1 5217   5.749   3.249   4.127
 1758TIP3    H2 5218   5.769   3.106   4.081
 1759TIP3   OH2 5219   1.167   4.160   5.662
 1759TIP3    H1 5220   1.108   4.085   5.666
 1759TIP3    H2 5221   1.140   4.207   5.583
 1760TIP3   OH2 5222   0.146   6.597   1.914
 1760TIP3    H1 5223   0.198   6.553   1.981
 1760TIP3    H2 5224   0.113   6.525   1.859
 1761TIP3   OH2 5225   6.249   2.849   5.650
 1761TIP3    H1 5226   6.277   2.837   5.741
 1761TIP3    H2 5227   6.230   2.943   5.644
 1762TIP3   OH2 5228   0.747   3.247   4.079
 1762TIP3    H1 5229   0.733   3.153   4.095
 1762TIP3    H2 5230   0.664   3.276   4.042
 1763TIP3   OH2 5231   5.705   0.714   4.521
 1763TIP3    H1 5232   5.685   0.756   4.605
 1763TIP3    H2 5233   5.713   0.786   4.459
 1764TIP3   OH2 5234   6.088   7.625   1.465
 1764TIP3    H1 5235   6.084   7.591   1.376
 1764TIP3    H2 5236   6.156   7.692   1.463
 1765TIP3   OH2 5237   8.119   0.901   5.657
 1765TIP3    H1 5238   8.195   0.876   5.709
 1765TIP3    H2 5239   8.061   0.825   5.659
 1766TIP3   OH2 5240   4.591   4.977   3.307
 1766TIP3    H1 5241   4.516   4.930   3.270
 1766TIP3    H2 5242   4.607   4.936   3.392
 1767TIP3   OH2 5243   2.776   5.519   4.935
 1767TIP3    H1 5244   2.828   5.503   4.856
 1767TIP3    H2 5245   2.797   5.445   4.992
 1768TIP3   OH2 5246   5.658   1.310   6.088
 1768TIP3    H1 5247   5.691   1.398   6.108
 1768TIP3    H2 5248   5.606   1.322   6.008
 1769TIP3   OH2 5249   4.532   3.712   0.388
 1769TIP3    H1 5250   4.586   3.788   0.410
 1769TIP3    H2 5251   4.544   3.701   0.294
 1770TIP3   OH2 5252   0.924   0.333   6.580
 1770TIP3    H1 5253   0.988   0.271   6.614
 1770TIP3    H2 5254   0.936   0.412   6.634
 1771TIP3   OH2 5255   2.376   4.736   4.479
 1771TIP3    H1 5256   2.443   4.672   4.503
 1771TIP3    H2 5257   2.346   4.708   4.392
 1772TIP3   OH2 5258   4.832   5.358   2.075
 1772TIP3    H1 5259   4.884   5.345   1.996
 1772TIP3    H2 5260   4.757   5.410   2.047
 1773TIP3   OH2 5261   3.929   0.729   1.203
 1773TIP3    H1 5262   3.894   0.806   1.247
 1773TIP3    H2 5263   4.022   0.730   1.224
 1774TIP3   OH2 5264   5.344   7.368   6.026
 1774TIP3    H1 5265   5.324   7.455   6.059
 1774TIP3    H2 5266   5.260   7.322   6.029
 1775TIP3   OH2 5267   7.688   2.432   3.688
 1775TIP3    H1 5268   7.705   2.367   3.620
 1775TIP3    H2 5269   7.646   2.383   3.759
 1776TIP3   OH2 5270   0.314   4.444   0.106
 1776TIP3    H1 5271   0.409   4.433   0.103
 1776TIP3    H2 5272   0.300   4.537   0.090
 1777TIP3   OH2 5273   4.891   4.607   0.420
 1777TIP3    H1 5274   4.880   4.632   0.328
 1777TIP3    H2 5275   4.833   4.665   0.468
 1778TIP3   OH2 5276   7.993   4.562   0.202
 1778TIP3    H1 5277   7.958   4.510   0.130
 1778TIP3    H2 5278   8.060   4.618   0.162
 1779TIP3   OH2 5279   4.523   1.214   3.077
 1779TIP3    H1 5280   4.470   1.246   3.150
 1779TIP3    H2 5281   4.468   1.227   3.000
 1780TIP3   OH2 5282   2.338   4.300   2.506
 1780TIP3    H1 5283   2.277   4.255   2.449
 1780TIP3    H2 5284   2.343   4.389   2.471
 1781TIP3   OH2 5285   4.244   2.256   5.261
 1781TIP3    H1 5286   4.315   2.243   5.324
 1781TIP3    H2 5287   4.268   2.335   5.213
 1782TIP3   OH2 5288   2.619   1.360   0.214
 1782TIP3    H1 5289   2.663   1.421   0.273
 1782TIP3    H2 5290   2.528   1.360   0.243
 1783TIP3   OH2 5291   2.336   0.202   3.783
 1783TIP3    H1 5292   2.340   0.108   3.804
 1783TIP3    H2 5293   2.313   0.244   3.865
 1784TIP3   OH2 5294   1.426   3.759   4.268
 1784TIP3    H1 5295   1.401   3.773   4.360
 1784TIP3    H2 5296   1.520   3.780   4.266
 1785TIP3   OH2 5297   5.270   2.995   4.349
 1785TIP3    H1 5298   5.278   2.902   4.369
 1785TIP3    H2 5299   5.194   3.001   4.290
 1786TIP3   OH2 5300   3.581   3.689   1.505
 1786TIP3    H1 5301   3.520   3.760   1.525
 1786TIP3    H2 5302   3.614   3.711   1.417
 1787TIP3   OH2 5303   2.688   7.139   2.145
 1787TIP3    H1 5304   2.745   7.206   2.107
 1787TIP3    H2 5305   2.743   7.093   2.208
 1788TIP3   OH2 5306   2.021   1.949   2.084
 1788TIP3    H1 5307   1.994   1.908   2.166
 1788TIP3    H2 5308   1.975   1.901   2.016
 1789TIP3   OH2 5309   7.405   7.361   0.704
 1789TIP3    H1 5310   7.378   7.419   0.775
 1789TIP3    H2 5311   7.323   7.339   0.659
 1790TIP3   OH2 5312   2.318   6.215   3.610
 1790TIP3    H1 5313   2.362   6.269   3.676
 1790TIP3    H2 5314   2.253   6.165   3.660
 1791TIP3   OH2 5315   7.299   1.315   6.236
 1791TIP3    H1 5316   7.226   1.320   6.297
 1791TIP3    H2 5317   7.273   1.247   6.173
 1792TIP3   OH2 5318   6.857   1.997   1.185
 1792TIP3    H1 5319   6.785   1.971   1.127
 1792TIP3    H2 5320   6.914   1.920   1.188
 1793TIP3   OH2 5321   7.864   2.632   3.786
 1793TIP3    H1 5322   7.830   2.544   3.772
 1793TIP3    H2 5323   7.947   2.633   3.738
 1794TIP3   OH2 5324   0.954   1.205   5.965
 1794TIP3    H1 5325   0.921   1.289   5.995
 1794TIP3    H2 5326   0.875   1.157   5.939
 1795TIP3   OH2 5327   6.228   4.297   1.770
 1795TIP3    H1 5328   6.190   4.221   1.727
 1795TIP3    H2 5329   6.154   4.358   1.780
 1796TIP3   OH2 5330   3.265   2.220   3.315
 1796TIP3    H1 5331   3.325   2.268   3.258
 1796TIP3    H2 5332   3.250   2.279   3.389
 1797TIP3   OH2 5333   1.695   0.341   3.577
 1797TIP3    H1 5334   1.744   0.362   3.497
 1797TIP3    H2 5335   1.610   0.311   3.546
 1798TIP3   OH2 5336   3.774   6.053   0.837
 1798TIP3    H1 5337   3.760   6.027   0.746
 1798TIP3    H2 5338   3.784   5.970   0.884
 1799TIP3   OH2 5339   7.672   7.657   5.895
 1799TIP3    H1 5340   7.688   7.586   5.833
 1799TIP3    H2 5341   7.748   7.715   5.885
 1800TIP3   OH2 5342   5.417   0.422   0.130
 1800TIP3    H1 5343   5.382   0.503   0.092
 1800TIP3    H2 5344   5.341   0.377   0.167
 1801TIP3   OH2 5345   6.346   7.685   3.923
 1801TIP3    H1 5346   6.292   7.713   3.996
 1801TIP3    H2 5347   6.405   7.619   3.959
 1802TIP3   OH2 5348   4.422   6.979   6.341
 1802TIP3    H1 5349   4.490   6.968   6.407
 1802TIP3    H2 5350   4.342   6.997   6.391
 1803TIP3   OH2 5351   7.027   5.263   0.668
 1803TIP3    H1 5352   7.096   5.199   0.651
 1803TIP3    H2 5353   7.069   5.348   0.652
 1804TIP3   OH2 5354   6.104   4.003   6.104
 1804TIP3    H1 5355   6.170   3.933   6.105
 1804TIP3    H2 5356   6.028   3.963   6.061
 1805TIP3   OH2 5357   4.910   3.444   5.841
 1805TIP3    H1 5358   4.935   3.394   5.763
 1805TIP3    H2 5359   4.993   3.462   5.886
 1806TIP3   OH2 5360   7.081   2.893   1.633
 1806TIP3    H1 5361   7.117   2.822   1.580
 1806TIP3    H2 5362   6.988   2.874   1.640
 1807TIP3   OH2 5363   6.421   4.359   1.158
 1807TIP3    H1 5364   6.402   4.406   1.239
 1807TIP3    H2 5365   6.345   4.302   1.146
 1808TIP3   OH2 5366   0.411   0.160   1.996
 1808TIP3    H1 5367   0.373   0.223   2.057
 1808TIP3    H2 5368   0.493   0.134   2.037
 1809TIP3   OH2 5369   3.675   6.897   1.285
 1809TIP3    H1 5370   3.730   6.927   1.213
 1809TIP3    H2 5371   3.676   6.802   1.280
 1810TIP3   OH2 5372   0.799   4.826   2.494
 1810TIP3    H1 5373   0.753   4.835   2.578
 1810TIP3    H2 5374   0.730   4.828   2.428
 1811TIP3   OH2 5375   1.476   7.788   1.474
 1811TIP3    H1 5376   1.400   7.738   1.503
 1811TIP3    H2 5377   1.544   7.770   1.539
 1812TIP3   OH2 5378   0.910   4.013   3.201
 1812TIP3    H1 5379   0.863   4.039   3.281
 1812TIP3    H2 5380   0.991   3.974   3.233
 1813TIP3   OH2 5381   4.911   2.526   4.660
 1813TIP3    H1 5382   4.988   2.572   4.626
 1813TIP3    H2 5383   4.848   2.529   4.588
 1814TIP3   OH2 5384   3.993   0.881   2.873
 1814TIP3    H1 5385   3.936   0.956   2.859
 1814TIP3    H2 5386   3.940   0.820   2.924
 1815TIP3   OH2 5387   7.537   5.492   6.436
 1815TIP3    H1 5388   7.517   5.399   6.423
 1815TIP3    H2 5389   7.454   5.537   6.420
 1816TIP3   OH2 5390   8.148   1.280   3.888
 1816TIP3    H1 5391   8.185   1.234   3.813
 1816TIP3    H2 5392   8.224   1.298   3.944
 1817TIP3   OH2 5393   5.338   1.528   3.900
 1817TIP3    H1 5394   5.255   1.558   3.862
 1817TIP3    H2 5395   5.313   1.483   3.981
 1818TIP3   OH2 5396   5.132   2.286   3.290
 1818TIP3    H1 5397   5.073   2.360   3.279
 1818TIP3    H2 5398   5.202   2.319   3.346
 1819TIP3   OH2 5399   1.287   0.612   5.210
 1819TIP3    H1 5400   1.196   0.628   5.186
 1819TIP3    H2 5401   1.285   0.592   5.304
 1820TIP3   OH2 5402   7.100   0.570   5.358
 1820TIP3    H1 5403   7.128   0.545   5.271
 1820TIP3    H2 5404   7.180   0.596   5.404
 1821TIP3   OH2 5405   5.118   4.397   6.617
 1821TIP3    H1 5406   5.175   4.383   6.542
 1821TIP3    H2 5407   5.042   4.340   6.601
 1822TIP3   OH2 5408   1.854   3.964   5.856
 1822TIP3    H1 5409   1.820   3.875   5.849
 1822TIP3    H2 5410   1.849   3.985   5.949
 1823TIP3   OH2 5411   1.390   2.193   2.802
 1823TIP3    H1 5412   1.330   2.176   2.729
 1823TIP3    H2 5413   1.417   2.284   2.789
 1824TIP3   OH2 5414   2.673   5.406   3.213
 1824TIP3    H1 5415   2.631   5.408   3.127
 1824TIP3    H2 5416   2.735   5.333   3.208
 1825TIP3   OH2 5417   0.261   6.664   2.977
 1825TIP3    H1 5418   0.343   6.688   2.935
 1825TIP3    H2 5419   0.287   6.609   3.051
 1826TIP3   OH2 5420   1.527   4.805   3.208
 1826TIP3    H1 5421   1.489   4.722   3.178
 1826TIP3    H2 5422   1.477   4.828   3.286
 1827TIP3   OH2 5423   7.044   3.267   4.121
 1827TIP3    H1 5424   7.019   3.358   4.135
 1827TIP3    H2 5425   7.131   3.272   4.080
 1828TIP3   OH2 5426   2.638   5.678   6.438
 1828TIP3    H1 5427   2.728   5.687   6.468
 1828TIP3    H2 5428   2.603   5.767   6.438
 1829TIP3   OH2 5429   2.286   3.676   6.584
 1829TIP3    H1 5430   2.366   3.641   6.543
 1829TIP3    H2 5431   2.318   3.726   6.659
 1830TIP3   OH2 5432   5.473   7.221   0.240
 1830TIP3    H1 5433   5.497   7.233   0.331
 1830TIP3    H2 5434   5.548   7.254   0.191
 1831TIP3   OH2 5435   5.226   4.859   2.365
 1831TIP3    H1 5436   5.247   4.783   2.420
 1831TIP3    H2 5437   5.308   4.879   2.319
 1832TIP3   OH2 5438   7.805   1.930   0.231
 1832TIP3    H1 5439   7.775   1.881   0.307
 1832TIP3    H2 5440   7.777   2.020   0.248
 1833TIP3   OH2 5441   0.384   0.601   2.084
 1833TIP3    H1 5442   0.460   0.637   2.039
 1833TIP3    H2 5443   0.370   0.658   2.159
 1834TIP3   OH2 5444   3.140   5.040   4.862
 1834TIP3    H1 5445   3.161   5.130   4.886
 1834TIP3    H2 5446   3.056   5.023   4.905
 1835TIP3   OH2 5447   6.435   1.977   4.912
 1835TIP3    H1 5448   6.487   2.031   4.971
 1835TIP3    H2 5449   6.344   1.991   4.941
 1836TIP3   OH2 5450   2.222   7.170   6.041
 1836TIP3    H1 5451   2.129   7.194   6.032
 1836TIP3    H2 5452   2.222   7.074   6.037
 1837TIP3   OH2 5453   1.100   2.755   5.386
 1837TIP3    H1 5454   1.030   2.803   5.342
 1837TIP3    H2 5455   1.055   2.690   5.440
 1838TIP3   OH2 5456   6.146   0.334   5.178
 1838TIP3    H1 5457   6.172   0.363   5.265
 1838TIP3    H2 5458   6.112   0.413   5.136
 1839TIP3   OH2 5459   0.382   2.137   6.754
 1839TIP3    H1 5460   0.477   2.142   6.760
 1839TIP3    H2 5461   0.359   2.195   6.681
 1840TIP3   OH2 5462   5.790   1.130   5.517
 1840TIP3    H1 5463   5.703   1.090   5.523
 1840TIP3    H2 5464   5.792   1.194   5.589
 1841TIP3   OH2 5465   0.221   2.679   3.218
 1841TIP3    H1 5466   0.202   2.606   3.158
 1841TIP3    H2 5467   0.292   2.647   3.274
 1842TIP3   OH2 5468   3.376   4.642   2.426
 1842TIP3    H1 5469   3.298   4.696   2.412
 1842TIP3    H2 5470   3.351   4.556   2.394
 1843TIP3   OH2 5471   5.130   1.759   2.250
 1843TIP3    H1 5472   5.139   1.853   2.235
 1843TIP3    H2 5473   5.180   1.718   2.180
 1844TIP3   OH2 5474   7.386   3.602   6.698
 1844TIP3    H1 5475   7.315   3.560   6.747
 1844TIP3    H2 5476   7.466   3.573   6.743
 1845TIP3   OH2 5477   6.027   5.981   3.536
 1845TIP3    H1 5478   6.068   6.067   3.520
 1845TIP3    H2 5479   5.941   6.002   3.572
 1846TIP3   OH2 5480   3.178   2.433   4.344
 1846TIP3    H1 5481   3.161   2.459   4.254
 1846TIP3    H2 5482   3.251   2.371   4.338
 1847TIP3   OH2 5483   3.753   7.767   2.661
 1847TIP3    H1 5484   3.750   7.701   2.730
 1847TIP3    H2 5485   3.822   7.736   2.601
 1848TIP3   OH2 5486   7.381   5.527   4.698
 1848TIP3    H1 5487   7.339   5.460   4.753
 1848TIP3    H2 5488   7.460   5.485   4.664
 1849TIP3   OH2 5489   5.590   4.372   2.401
 1849TIP3    H1 5490   5.502   4.353   2.368
 1849TIP3    H2 5491   5.593   4.331   2.487
 1850TIP3   OH2 5492   1.110   0.229   5.747
 1850TIP3    H1 5493   1.168   0.246   5.822
 1850TIP3    H2 5494   1.105   0.133   5.744
 1851TIP3   OH2 5495   5.023   2.364   2.758
 1851TIP3    H1 5496   4.976   2.440   2.724
 1851TIP3    H2 5497   5.060   2.394   2.841
 1852TIP3   OH2 5498   2.066   1.299   0.431
 1852TIP3    H1 5499   2.078   1.270   0.341
 1852TIP3    H2 5500   2.135   1.363   0.445
 1853TIP3   OH2 5501   1.569   5.773   0.406
 1853TIP3    H1 5502   1.634   5.843   0.410
 1853TIP3    H2 5503   1.616   5.700   0.367
 1854TIP3   OH2 5504   6.561   5.282   1.113
 1854TIP3    H1 5505   6.487   5.244   1.159
 1854TIP3    H2 5506   6.538   5.374   1.101
 1855TIP3   OH2 5507   7.031   7.829   3.050
 1855TIP3    H1 5508   7.115   7.808   3.009
 1855TIP3    H2 5509   7.021   7.764   3.120
 1856TIP3   OH2 5510   2.438   0.838   6.570
 1856TIP3    H1 5511   2.442   0.799   6.483
 1856TIP3    H2 5512   2.383   0.779   6.621
 1857TIP3   OH2 5513   5.577   0.912   5.191
 1857TIP3    H1 5514   5.657   0.918   5.244
 1857TIP3    H2 5515   5.556   0.819   5.192
 1858TIP3   OH2 5516   8.091   3.101   0.841
 1858TIP3    H1 5517   8.013   3.046   0.837
 1858TIP3    H2 5518   8.092   3.136   0.930
 1859TIP3   OH2 5519   0.104   7.483   5.032
 1859TIP3    H1 5520   0.196   7.457   5.034
 1859TIP3    H2 5521   0.089   7.515   4.943
 1860TIP3   OH2 5522   5.308   2.221   0.406
 1860TIP3    H1 5523   5.360   2.155   0.360
 1860TIP3    H2 5524   5.310   2.298   0.349
 1861TIP3   OH2 5525   2.168   4.923   4.400
 1861TIP3    H1 5526   2.249   4.899   4.446
 1861TIP3    H2 5527   2.154   5.015   4.423
 1862TIP3   OH2 5528   6.571   0.920   5.394
 1862TIP3    H1 5529   6.661   0.916   5.428
 1862TIP3    H2 5530   6.560   1.010   5.365
 1863TIP3   OH2 5531   7.632   2.608   4.806
 1863TIP3    H1 5532   7.544   2.600   4.841
 1863TIP3    H2 5533   7.622   2.591   4.712
 1864TIP3   OH2 5534   2.762   4.428   6.064
 1864TIP3    H1 5535   2.754   4.511   6.018
 1864TIP3    H2 5536   2.850   4.396   6.042
 1865TIP3   OH2 5537   2.130   7.058   2.722
 1865TIP3    H1 5538   2.171   7.111   2.653
 1865TIP3    H2 5539   2.059   7.012   2.678
 1866TIP3   OH2 5540   0.574   5.338   4.931
 1866TIP3    H1 5541   0.486   5.374   4.941
 1866TIP3    H2 5542   0.618   5.399   4.872
 1867TIP3   OH2 5543   5.020   3.899   3.503
 1867TIP3    H1 5544   4.958   3.938   3.440
 1867TIP3    H2 5545   5.100   3.886   3.453
 1868TIP3   OH2 5546   7.015   3.137   0.685
 1868TIP3    H1 5547   6.960   3.139   0.607
 1868TIP3    H2 5548   7.018   3.045   0.710
 1869TIP3   OH2 5549   0.945   3.844   3.622
 1869TIP3    H1 5550   1.009   3.866   3.690
 1869TIP3    H2 5551   0.865   3.824   3.671
 1870TIP3   OH2 5552   1.033   0.743   6.192
 1870TIP3    H1 5553   0.948   0.787   6.189
 1870TIP3    H2 5554   1.060   0.739   6.100
 1871TIP3   OH2 5555   3.138   3.698   6.740
 1871TIP3    H1 5556   3.229   3.721   6.720
 1871TIP3    H2 5557   3.100   3.778   6.777
 1872TIP3   OH2 5558   0.234   0.168   2.525
 1872TIP3    H1 5559   0.328   0.185   2.523
 1872TIP3    H2 5560   0.200   0.224   2.595
 1873TIP3   OH2 5561   2.595   4.885   2.530
 1873TIP3    H1 5562   2.655   4.857   2.461
 1873TIP3    H2 5563   2.558   4.967   2.499
 1874TIP3   OH2 5564   6.947   6.602   1.511
 1874TIP3    H1 5565   6.999   6.535   1.468
 1874TIP3    H2 5566   6.859   6.564   1.517
 1875TIP3   OH2 5567   2.536   5.120   2.347
 1875TIP3    H1 5568   2.597   5.123   2.274
 1875TIP3    H2 5569   2.450   5.130   2.306
 1876TIP3   OH2 5570   7.079   2.590   0.011
 1876TIP3    H1 5571   7.068   2.683  -0.008
 1876TIP3    H2 5572   7.174   2.578   0.015
 1877TIP3   OH2 5573   8.039   5.594   4.443
 1877TIP3    H1 5574   7.969   5.533   4.421
 1877TIP3    H2 5575   8.057   5.641   4.361
 1878TIP3   OH2 5576   6.113   5.676   5.960
 1878TIP3    H1 5577   6.132   5.719   5.877
 1878TIP3    H2 5578   6.018   5.672   5.964
 1879TIP3   OH2 5579   2.412   7.787   4.671
 1879TIP3    H1 5580   2.400   7.874   4.632
 1879TIP3    H2 5581   2.503   7.765   4.651
 1880TIP3   OH2 5582   8.186   5.028   4.767
 1880TIP3    H1 5583   8.099   5.059   4.739
 1880TIP3    H2 5584   8.242   5.040   4.691
 1881TIP3   OH2 5585   0.243   5.686   3.180
 1881TIP3    H1 5586   0.307   5.757   3.181
 1881TIP3    H2 5587   0.179   5.710   3.246
 1882TIP3   OH2 5588   1.058   3.208   2.243
 1882TIP3    H1 5589   1.147   3.215   2.279
 1882TIP3    H2 5590   1.065   3.245   2.155
 1883TIP3   OH2 5591   4.838   1.432   4.265
 1883TIP3    H1 5592   4.919   1.481   4.249
 1883TIP3    H2 5593   4.848   1.351   4.216
 1884TIP3   OH2 5594   8.057   5.709   1.344
 1884TIP3    H1 5595   8.150   5.729   1.331
 1884TIP3    H2 5596   8.055   5.614   1.357
 1885TIP3   OH2 5597   6.947   6.293   1.499
 1885TIP3    H1 5598   6.859   6.259   1.484
 1885TIP3    H2 5599   7.005   6.223   1.468
 1886TIP3   OH2 5600   0.169   2.961   4.601
 1886TIP3    H1 5601   0.126   2.976   4.686
 1886TIP3    H2 5602   0.262   2.975   4.619
 1887TIP3   OH2 5603   4.705   1.996   2.891
 1887TIP3    H1 5604   4.755   1.933   2.942
 1887TIP3    H2 5605   4.771   2.050   2.848
 1888TIP3   OH2 5606   0.600   2.550   1.224
 1888TIP3    H1 5607   0.525   2.579   1.277
 1888TIP3    H2 5608   0.650   2.494   1.283
 1889TIP3   OH2 5609   0.224   0.277   1.685
 1889TIP3    H1 5610   0.221   0.309   1.775
 1889TIP3    H2 5611   0.134   0.253   1.665
 1890TIP3   OH2 5612   4.469   4.125   0.324
 1890TIP3    H1 5613   4.430   4.207   0.355
 1890TIP3    H2 5614   4.546   4.151   0.275
 1891TIP3   OH2 5615   3.345   3.684   2.570
 1891TIP3    H1 5616   3.400   3.650   2.641
 1891TIP3    H2 5617   3.324   3.608   2.517
 1892TIP3   OH2 5618   7.792   4.728   2.825
 1892TIP3    H1 5619   7.868   4.690   2.781
 1892TIP3    H2 5620   7.818   4.819   2.844
 1893TIP3   OH2 5621   6.931   1.577   5.756
 1893TIP3    H1 5622   6.943   1.483   5.767
 1893TIP3    H2 5623   6.864   1.585   5.688
 1894TIP3   OH2 5624   0.887   0.328   4.725
 1894TIP3    H1 5625   0.879   0.257   4.662
 1894TIP3    H2 5626   0.940   0.395   4.681
 1895TIP3   OH2 5627   4.818   2.191   2.092
 1895TIP3    H1 5628   4.760   2.254   2.050
 1895TIP3    H2 5629   4.777   2.171   2.176
 1896TIP3   OH2 5630   1.886   4.557   2.781
 1896TIP3    H1 5631   1.871   4.536   2.688
 1896TIP3    H2 5632   1.820   4.505   2.827
 1897TIP3   OH2 5633   1.570   4.368   6.262
 1897TIP3    H1 5634   1.610   4.284   6.240
 1897TIP3    H2 5635   1.591   4.425   6.188
 1898TIP3   OH2 5636   3.022   7.596   4.549
 1898TIP3    H1 5637   3.055   7.506   4.556
 1898TIP3    H2 5638   3.017   7.626   4.639
 1899TIP3   OH2 5639   4.810   6.927   6.491
 1899TIP3    H1 5640   4.871   6.855   6.509
 1899TIP3    H2 5641   4.792   6.966   6.576
 1900TIP3   OH2 5642   6.133   1.268   4.850
 1900TIP3    H1 5643   6.116   1.280   4.756
 1900TIP3    H2 5644   6.110   1.352   4.890
 1901TIP3   OH2 5645   4.287   5.753   4.253
 1901TIP3    H1 5646   4.328   5.840   4.259
 1901TIP3    H2 5647   4.242   5.754   4.169
 1902TIP3   OH2 5648   3.705   3.113   6.167
 1902TIP3    H1 5649   3.730   3.099   6.076
 1902TIP3    H2 5650   3.672   3.203   6.169
 1903TIP3   OH2 5651   4.908   1.084   4.093
 1903TIP3    H1 5652   4.912   1.172   4.056
 1903TIP3    H2 5653   4.939   1.094   4.183
 1904TIP3   OH2 5654   4.961   1.682   5.953
 1904TIP3    H1 5655   4.872   1.719   5.956
 1904TIP3    H2 5656   4.972   1.655   5.862
 1905TIP3   OH2 5657   5.336   3.535  -0.007
 1905TIP3    H1 5658   5.325   3.465  -0.071
 1905TIP3    H2 5659   5.266   3.520   0.057
 1906TIP3   OH2 5660   3.120   0.445   1.421
 1906TIP3    H1 5661   3.036   0.406   1.446
 1906TIP3    H2 5662   3.168   0.452   1.503
 1907TIP3   OH2 5663   8.105   7.345   4.532
 1907TIP3    H1 5664   8.185   7.314   4.489
 1907TIP3    H2 5665   8.051   7.379   4.461
 1908TIP3   OH2 5666   5.598   6.537   5.773
 1908TIP3    H1 5667   5.524   6.597   5.772
 1908TIP3    H2 5668   5.627   6.535   5.864
 1909TIP3   OH2 5669   7.205   2.779   6.072
 1909TIP3    H1 5670   7.295   2.796   6.048
 1909TIP3    H2 5671   7.208   2.696   6.119
 1910TIP3   OH2 5672   6.699   4.295   1.155
 1910TIP3    H1 5673   6.604   4.292   1.140
 1910TIP3    H2 5674   6.734   4.338   1.077
 1911TIP3   OH2 5675   0.343   5.529   6.170
 1911TIP3    H1 5676   0.421   5.514   6.224
 1911TIP3    H2 5677   0.294   5.596   6.218
 1912TIP3   OH2 5678   8.160   6.375   0.986
 1912TIP3    H1 5679   8.154   6.325   1.067
 1912TIP3    H2 5680   8.068   6.392   0.961
 1913TIP3   OH2 5681   5.043   6.249   5.310
 1913TIP3    H1 5682   5.004   6.329   5.345
 1913TIP3    H2 5683   5.025   6.182   5.376
 1914TIP3   OH2 5684   0.571   5.632   3.338
 1914TIP3    H1 5685   0.621   5.647   3.258
 1914TIP3    H2 5686   0.638   5.616   3.405
 1915TIP3   OH2 5687   6.473   7.237   4.030
 1915TIP3    H1 5688   6.459   7.321   3.985
 1915TIP3    H2 5689   6.396   7.185   4.007
 1916TIP3   OH2 5690   4.881   4.448   2.821
 1916TIP3    H1 5691   4.938   4.520   2.850
 1916TIP3    H2 5692   4.796   4.467   2.861
 1917TIP3   OH2 5693   8.153   5.410   5.317
 1917TIP3    H1 5694   8.188   5.428   5.229
 1917TIP3    H2 5695   8.226   5.372   5.364
 1918TIP3   OH2 5696   6.043   5.455   0.023
 1918TIP3    H1 5697   6.084   5.542   0.020
 1918TIP3    H2 5698   5.954   5.472   0.052
 1919TIP3   OH2 5699   2.956   6.580   0.142
 1919TIP3    H1 5700   2.959   6.649   0.076
 1919TIP3    H2 5701   2.952   6.499   0.092
 1920TIP3   OH2 5702   5.420   5.776   3.242
 1920TIP3    H1 5703   5.496   5.747   3.192
 1920TIP3    H2 5704   5.423   5.723   3.322
 1921TIP3   OH2 5705   0.464   5.453   3.959
 1921TIP3    H1 5706   0.470   5.517   3.888
 1921TIP3    H2 5707   0.447   5.369   3.915
 1922TIP3   OH2 5708   3.189   4.395   4.090
 1922TIP3    H1 5709   3.218   4.422   4.178
 1922TIP3    H2 5710   3.226   4.460   4.032
 1923TIP3   OH2 5711   2.441   5.277   4.001
 1923TIP3    H1 5712   2.382   5.229   4.059
 1923TIP3    H2 5713   2.460   5.358   4.049
 1924TIP3   OH2 5714   4.493   5.325   2.373
 1924TIP3    H1 5715   4.456   5.391   2.432
 1924TIP3    H2 5716   4.436   5.328   2.296
 1925TIP3   OH2 5717   2.709   6.795   1.942
 1925TIP3    H1 5718   2.660   6.876   1.961
 1925TIP3    H2 5719   2.800   6.823   1.934
 1926TIP3   OH2 5720   0.863   5.791   0.342
 1926TIP3    H1 5721   0.915   5.757   0.414
 1926TIP3    H2 5722   0.796   5.845   0.384
 1927TIP3   OH2 5723   0.420   4.265   5.615
 1927TIP3    H1 5724   0.380   4.279   5.700
 1927TIP3    H2 5725   0.447   4.174   5.615
 1928TIP3   OH2 5726   4.344   5.335   6.539
 1928TIP3    H1 5727   4.310   5.342   6.628
 1928TIP3    H2 5728   4.416   5.272   6.547
 1929TIP3   OH2 5729   5.440   4.634   3.074
 1929TIP3    H1 5730   5.400   4.587   3.147
 1929TIP3    H2 5731   5.418   4.726   3.090
 1930TIP3   OH2 5732   5.904   7.491   5.965
 1930TIP3    H1 5733   5.886   7.554   5.895
 1930TIP3    H2 5734   5.859   7.411   5.937
 1931TIP3   OH2 5735   0.003   1.586   0.439
 1931TIP3    H1 5736   0.088   1.586   0.482
 1931TIP3    H2 5737   0.003   1.665   0.386
 1932TIP3   OH2 5738   1.070   4.835   1.460
 1932TIP3    H1 5739   0.982   4.847   1.425
 1932TIP3    H2 5740   1.059   4.843   1.555
 1933TIP3   OH2 5741   1.785   2.620   1.191
 1933TIP3    H1 5742   1.881   2.627   1.195
 1933TIP3    H2 5743   1.754   2.710   1.188
 1934TIP3   OH2 5744   6.146   6.906   4.155
 1934TIP3    H1 5745   6.111   6.817   4.154
 1934TIP3    H2 5746   6.068   6.962   4.154
 1935TIP3   OH2 5747   6.840   0.787   1.194
 1935TIP3    H1 5748   6.913   0.823   1.143
 1935TIP3    H2 5749   6.837   0.695   1.169
 1936TIP3   OH2 5750   3.706   4.494   6.210
 1936TIP3    H1 5751   3.645   4.441   6.159
 1936TIP3    H2 5752   3.662   4.509   6.293
 1937TIP3   OH2 5753   7.218   4.700   0.935
 1937TIP3    H1 5754   7.294   4.718   0.879
 1937TIP3    H2 5755   7.230   4.609   0.963
 1938TIP3   OH2 5756   5.149   1.726   0.085
 1938TIP3    H1 5757   5.244   1.726   0.098
 1938TIP3    H2 5758   5.138   1.709  -0.009
 1939TIP3   OH2 5759   0.773   3.542   0.313
 1939TIP3    H1 5760   0.746   3.576   0.398
 1939TIP3    H2 5761   0.802   3.620   0.265
 1940TIP3   OH2 5762   4.176   0.154   4.201
 1940TIP3    H1 5763   4.250   0.195   4.246
 1940TIP3    H2 5764   4.114   0.133   4.271
 1941TIP3   OH2 5765   2.938   6.556   4.115
 1941TIP3    H1 5766   2.960   6.597   4.032
 1941TIP3    H2 5767   2.988   6.605   4.180
 1942TIP3   OH2 5768   1.022   5.346   2.799
 1942TIP3    H1 5769   1.115   5.340   2.817
 1942TIP3    H2 5770   1.009   5.298   2.718
 1943TIP3   OH2 5771   6.926   6.102   4.758
 1943TIP3    H1 5772   6.899   6.017   4.724
 1943TIP3    H2 5773   6.863   6.164   4.719
 1944TIP3   OH2 5774   3.828   3.630   3.020
 1944TIP3    H1 5775   3.833   3.707   2.964
 1944TIP3    H2 5776   3.751   3.645   3.075
 1945TIP3   OH2 5777   0.248   7.502   0.718
 1945TIP3    H1 5778   0.333   7.522   0.757
 1945TIP3    H2 5779   0.197   7.582   0.730
 1946TIP3   OH2 5780   0.676   1.075   2.135
 1946TIP3    H1 5781   0.614   1.146   2.150
 1946TIP3    H2 5782   0.721   1.099   2.054
 1947TIP3   OH2 5783   6.421   0.475   0.206
 1947TIP3    H1 5784   6.467   0.396   0.178
 1947TIP3    H2 5785   6.348   0.442   0.260
 1948TIP3   OH2 5786   1.899   1.612   0.516
 1948TIP3    H1 5787   1.815   1.645   0.483
 1948TIP3    H2 5788   1.878   1.525   0.551
 1949TIP3   OH2 5789   0.618   0.085   4.960
 1949TIP3    H1 5790   0.618   0.035   4.878
 1949TIP3    H2 5791   0.640   0.174   4.933
 1950TIP3   OH2 5792   5.796   6.316   5.242
 1950TIP3    H1 5793   5.880   6.284   5.275
 1950TIP3    H2 5794   5.800   6.299   5.147
 1951TIP3   OH2 5795   7.780   1.086   5.501
 1951TIP3    H1 5796   7.700   1.036   5.513
 1951TIP3    H2 5797   7.840   1.027   5.455
 1952TIP3   OH2 5798   5.626   7.206   5.172
 1952TIP3    H1 5799   5.540   7.221   5.210
 1952TIP3    H2 5800   5.688   7.219   5.244
 1953TIP3   OH2 5801   7.865   7.417   2.672
 1953TIP3    H1 5802   7.912   7.344   2.712
 1953TIP3    H2 5803   7.775   7.385   2.663
 1954TIP3   OH2 5804   7.433   3.734   5.319
 1954TIP3    H1 5805   7.344   3.723   5.354
 1954TIP3    H2 5806   7.489   3.723   5.395
 1955TIP3   OH2 5807   8.297   1.823   5.810
 1955TIP3    H1 5808   8.335   1.807   5.724
 1955TIP3    H2 5809   8.202   1.822   5.795
 1956TIP3   OH2 5810   3.153   0.973   1.619
 1956TIP3    H1 5811   3.144   0.918   1.696
 1956TIP3    H2 5812   3.181   0.913   1.549
 1957TIP3   OH2 5813   5.445   7.350   6.312
 1957TIP3    H1 5814   5.519   7.329   6.255
 1957TIP3    H2 5815   5.378   7.285   6.290
 1958TIP3   OH2 5816   2.726   1.864   6.343
 1958TIP3    H1 5817   2.653   1.872   6.404
 1958TIP3    H2 5818   2.705   1.788   6.290
 1959TIP3   OH2 5819   1.170   4.612   4.592
 1959TIP3    H1 5820   1.262   4.591   4.574
 1959TIP3    H2 5821   1.120   4.546   4.544
 1960TIP3   OH2 5822   5.049   1.964   1.200
 1960TIP3    H1 5823   4.989   2.027   1.162
 1960TIP3    H2 5824   5.090   2.011   1.273
 1961TIP3   OH2 5825   7.290   0.400   2.020
 1961TIP3    H1 5826   7.308   0.319   2.067
 1961TIP3    H2 5827   7.306   0.379   1.928
 1962TIP3   OH2 5828   7.094   2.222   5.074
 1962TIP3    H1 5829   7.088   2.155   5.143
 1962TIP3    H2 5830   7.104   2.172   4.993
 1963TIP3   OH2 5831   4.565   6.991   3.322
 1963TIP3    H1 5832   4.584   7.008   3.229
 1963TIP3    H2 5833   4.627   7.047   3.369
 1964TIP3   OH2 5834   7.712   1.185   4.276
 1964TIP3    H1 5835   7.797   1.216   4.244
 1964TIP3    H2 5836   7.731   1.100   4.316
 1965TIP3   OH2 5837   4.453   3.908   6.133
 1965TIP3    H1 5838   4.497   3.915   6.049
 1965TIP3    H2 5839   4.422   3.817   6.136
 1966TIP3   OH2 5840   3.206   2.794   6.391
 1966TIP3    H1 5841   3.212   2.717   6.335
 1966TIP3    H2 5842   3.196   2.867   6.330
 1967TIP3   OH2 5843   6.185   3.912   4.377
 1967TIP3    H1 5844   6.174   3.860   4.297
 1967TIP3    H2 5845   6.096   3.933   4.404
 1968TIP3   OH2 5846   0.161   0.030   4.401
 1968TIP3    H1 5847   0.200  -0.003   4.482
 1968TIP3    H2 5848   0.209  -0.017   4.332
 1969TIP3   OH2 5849   7.641   6.544   2.808
 1969TIP3    H1 5850   7.705   6.514   2.743
 1969TIP3    H2 5851   7.649   6.639   2.807
 1970TIP3   OH2 5852   6.820   6.799   2.839
 1970TIP3    H1 5853   6.827   6.741   2.916
 1970TIP3    H2 5854   6.729   6.828   2.839
 1971TIP3   OH2 5855   0.627   1.480   2.695
 1971TIP3    H1 5856   0.533   1.502   2.695
 1971TIP3    H2 5857   0.664   1.536   2.764
 1972TIP3   OH2 5858   7.465   4.974   6.396
 1972TIP3    H1 5859   7.415   4.895   6.416
 1972TIP3    H2 5860   7.498   4.960   6.307
 1973TIP3   OH2 5861   4.216   5.515   6.046
 1973TIP3    H1 5862   4.146   5.449   6.050
 1973TIP3    H2 5863   4.260   5.498   5.963
 1974TIP3   OH2 5864   4.101   6.503   3.838
 1974TIP3    H1 5865   4.017   6.507   3.884
 1974TIP3    H2 5866   4.152   6.439   3.888
 1975TIP3   OH2 5867   1.692   7.471   3.427
 1975TIP3    H1 5868   1.731   7.487   3.341
 1975TIP3    H2 5869   1.608   7.430   3.408
 1976TIP3   OH2 5870   5.269   3.723   4.966
 1976TIP3    H1 5871   5.222   3.727   4.882
 1976TIP3    H2 5872   5.311   3.809   4.974
 1977TIP3   OH2 5873   3.120   6.136   0.990
 1977TIP3    H1 5874   3.129   6.211   0.932
 1977TIP3    H2 5875   3.099   6.175   1.075
 1978TIP3   OH2 5876   7.453   5.274   0.128
 1978TIP3    H1 5877   7.527   5.238   0.177
 1978TIP3    H2 5878   7.454   5.227   0.044
 1979TIP3   OH2 5879   6.648   4.581   1.389
 1979TIP3    H1 5880   6.602   4.551   1.310
 1979TIP3    H2 5881   6.597   4.546   1.462
 1980TIP3   OH2 5882   5.082   1.162   4.288
 1980TIP3    H1 5883   5.142   1.172   4.214
 1980TIP3    H2 5884   5.133   1.190   4.364
 1981TIP3   OH2 5885   5.505   3.996   0.264
 1981TIP3    H1 5886   5.488   3.996   0.358
 1981TIP3    H2 5887   5.599   3.981   0.257
 1982TIP3   OH2 5888   2.365   4.189   5.238
 1982TIP3    H1 5889   2.299   4.209   5.304
 1982TIP3    H2 5890   2.432   4.256   5.249
 1983TIP3   OH2 5891   2.296   2.626   3.374
 1983TIP3    H1 5892   2.362   2.651   3.438
 1983TIP3    H2 5893   2.307   2.531   3.364
 1984TIP3   OH2 5894   6.437   2.823   5.414
 1984TIP3    H1 5895   6.371   2.806   5.481
 1984TIP3    H2 5896   6.511   2.768   5.439
 1985TIP3   OH2 5897   2.656   6.749   5.631
 1985TIP3    H1 5898   2.597   6.801   5.686
 1985TIP3    H2 5899   2.617   6.753   5.544
 1986TIP3   OH2 5900   0.940   6.441   3.150
 1986TIP3    H1 5901   0.975   6.355   3.129
 1986TIP3    H2 5902   0.941   6.489   3.068
 1987TIP3   OH2 5903   1.809   5.126   0.612
 1987TIP3    H1 5904   1.716   5.141   0.598
 1987TIP3    H2 5905   1.841   5.095   0.527
 1988TIP3   OH2 5906   5.815   6.045   1.909
 1988TIP3    H1 5907   5.884   6.096   1.950
 1988TIP3    H2 5908   5.734   6.074   1.952
 1989TIP3   OH2 5909   3.445   5.068   5.820
 1989TIP3    H1 5910   3.466   4.975   5.809
 1989TIP3    H2 5911   3.355   5.076   5.788
 1990TIP3   OH2 5912   4.902   7.638   2.307
 1990TIP3    H1 5913   4.944   7.620   2.223
 1990TIP3    H2 5914   4.906   7.734   2.315
 1991TIP3   OH2 5915   5.176   5.730   6.121
 1991TIP3    H1 5916   5.121   5.653   6.137
 1991TIP3    H2 5917   5.156   5.788   6.195
 1992TIP3   OH2 5918   6.153   1.885   0.648
 1992TIP3    H1 5919   6.142   1.949   0.578
 1992TIP3    H2 5920   6.065   1.876   0.685
 1993TIP3   OH2 5921   5.780   3.793   3.874
 1993TIP3    H1 5922   5.837   3.869   3.869
 1993TIP3    H2 5923   5.729   3.794   3.793
 1994TIP3   OH2 5924   1.838   2.785   4.391
 1994TIP3    H1 5925   1.806   2.731   4.464
 1994TIP3    H2 5926   1.825   2.730   4.314
 1995TIP3   OH2 5927   7.872   2.397   4.101
 1995TIP3    H1 5928   7.865   2.343   4.022
 1995TIP3    H2 5929   7.784   2.395   4.139
 1996TIP3   OH2 5930   2.177   5.584   2.145
 1996TIP3    H1 5931   2.271   5.572   2.158
 1996TIP3    H2 5932   2.148   5.633   2.222
 1997TIP3   OH2 5933   8.061   5.718   2.684
 1997TIP3    H1 5934   8.095   5.685   2.768
 1997TIP3    H2 5935   7.971   5.744   2.704
 1998TIP3   OH2 5936   5.048   5.992   1.284
 1998TIP3    H1 5937   5.006   6.066   1.327
 1998TIP3    H2 5938   5.128   5.977   1.334
 1999TIP3   OH2 5939   7.424   6.054   3.805
 1999TIP3    H1 5940   7.515   6.041   3.833
 1999TIP3    H2 5941   7.376   6.071   3.886
 2000TIP3   OH2 5942   3.088   7.652   5.376
 2000TIP3    H1 5943   3.065   7.586   5.311
 2000TIP3    H2 5944   3.030   7.634   5.450
 2001TIP3   OH2 5945   0.849   4.543   0.379
 2001TIP3    H1 5946   0.754   4.532   0.384
 2001TIP3    H2 5947   0.885   4.465   0.421
 2002TIP3   OH2 5948   4.808   2.695   0.331
 2002TIP3    H1 5949   4.883   2.732   0.285
 2002TIP3    H2 5950   4.745   2.767   0.337
 2003TIP3   OH2 5951   0.530   5.368   1.565
 2003TIP3    H1 5952   0.508   5.280   1.534
 2003TIP3    H2 5953   0.488   5.427   1.503
 2004TIP3   OH2 5954   4.531   2.179   4.159
 2004TIP3    H1 5955   4.579   2.109   4.204
 2004TIP3    H2 5956   4.545   2.161   4.066
 2005TIP3   OH2 5957   2.586   3.609   6.451
 2005TIP3    H1 5958   2.656   3.672   6.432
 2005TIP3    H2 5959   2.537   3.603   6.369
 2006TIP3   OH2 5960   5.698   1.775   3.819
 2006TIP3    H1 5961   5.671   1.865   3.837
 2006TIP3    H2 5962   5.719   1.775   3.726
 2007TIP3   OH2 5963   6.174   2.637   0.169
 2007TIP3    H1 5964   6.156   2.636   0.075
 2007TIP3    H2 5965   6.161   2.547   0.197
 2008TIP3   OH2 5966   7.444   7.069   4.832
 2008TIP3    H1 5967   7.415   7.013   4.760
 2008TIP3    H2 5968   7.389   7.147   4.826
 2009TIP3   OH2 5969   5.291   1.263   6.458
 2009TIP3    H1 5970   5.314   1.179   6.417
 2009TIP3    H2 5971   5.375   1.306   6.474
 2010TIP3   OH2 5972   7.290   1.819   6.721
 2010TIP3    H1 5973   7.241   1.876   6.780
 2010TIP3    H2 5974   7.259   1.730   6.742
 2011TIP3   OH2 5975   7.557   7.529   4.835
 2011TIP3    H1 5976   7.633   7.530   4.777
 2011TIP3    H2 5977   7.533   7.621   4.846
 2012TIP3   OH2 5978   5.603   7.186   1.579
 2012TIP3    H1 5979   5.688   7.157   1.546
 2012TIP3    H2 5980   5.614   7.187   1.674
 2013TIP3   OH2 5981   1.505   1.601   5.512
 2013TIP3    H1 5982   1.593   1.593   5.475
 2013TIP3    H2 5983   1.512   1.565   5.601
 2014TIP3   OH2 5984   3.308   1.947   3.319
 2014TIP3    H1 5985   3.288   2.039   3.329
 2014TIP3    H2 5986   3.227   1.901   3.340
 2015TIP3   OH2 5987   6.344   7.367   5.301
 2015TIP3    H1 5988   6.295   7.446   5.325
 2015TIP3    H2 5989   6.389   7.391   5.220
 2016TIP3   OH2 5990   2.466   1.252   1.116
 2016TIP3    H1 5991   2.403   1.277   1.185
 2016TIP3    H2 5992   2.499   1.167   1.143
 2017TIP3   OH2 5993   5.345   5.580   2.842
 2017TIP3    H1 5994   5.363   5.518   2.913
 2017TIP3    H2 5995   5.327   5.525   2.766
 2018TIP3   OH2 5996   0.580   7.526   1.543
 2018TIP3    H1 5997   0.558   7.543   1.452
 2018TIP3    H2 5998   0.497   7.502   1.584
 2019TIP3   OH2 5999   7.739   2.126   0.547
 2019TIP3    H1 6000   7.831   2.106   0.527
 2019TIP3    H2 6001   7.722   2.078   0.628
 2020TIP3   OH2 6002   3.485   1.732   0.889
 2020TIP3    H1 6003   3.580   1.726   0.899
 2020TIP3    H2 6004   3.471   1.821   0.856
 2021TIP3   OH2 6005   6.208   3.498   6.654
 2021TIP3    H1 6006   6.202   3.550   6.734
 2021TIP3    H2 6007   6.212   3.408   6.685
 2022TIP3   OH2 6008   0.188   1.653   6.588
 2022TIP3    H1 6009   0.270   1.661   6.636
 2022TIP3    H2 6010   0.120   1.667   6.654
 2023TIP3   OH2 6011   4.456   4.339   0.988
 2023TIP3    H1 6012   4.456   4.304   0.899
 2023TIP3    H2 6013   4.380   4.299   1.031
 2024TIP3   OH2 6014   1.900   6.061   2.277
 2024TIP3    H1 6015   1.994   6.080   2.269
 2024TIP3    H2 6016   1.870   6.049   2.187
 2025TIP3   OH2 6017   4.209   2.690   1.283
 2025TIP3    H1 6018   4.123   2.660   1.257
 2025TIP3    H2 6019   4.270   2.637   1.233
 2026TIP3   OH2 6020   5.424   2.116   5.657
 2026TIP3    H1 6021   5.516   2.112   5.682
 2026TIP3    H2 6022   5.381   2.053   5.714
 2027TIP3   OH2 6023   2.611   3.967   1.558
 2027TIP3    H1 6024   2.565   4.044   1.591
 2027TIP3    H2 6025   2.697   3.970   1.601
 2028TIP3   OH2 6026   5.650   5.107   4.980
 2028TIP3    H1 6027   5.559   5.080   4.991
 2028TIP3    H2 6028   5.692   5.089   5.064
 2029TIP3   OH2 6029   0.819   0.525   0.129
 2029TIP3    H1 6030   0.882   0.597   0.136
 2029TIP3    H2 6031   0.812   0.490   0.218
 2030TIP3   OH2 6032   0.783   4.754   4.386
 2030TIP3    H1 6033   0.844   4.796   4.326
 2030TIP3    H2 6034   0.697   4.772   4.348
 2031TIP3   OH2 6035   7.402   0.773   5.815
 2031TIP3    H1 6036   7.453   0.731   5.884
 2031TIP3    H2 6037   7.314   0.778   5.850
 2032TIP3   OH2 6038   1.524   5.562   0.908
 2032TIP3    H1 6039   1.544   5.589   0.819
 2032TIP3    H2 6040   1.562   5.475   0.916
 2033TIP3   OH2 6041   7.583   7.325   5.039
 2033TIP3    H1 6042   7.664   7.291   5.001
 2033TIP3    H2 6043   7.548   7.383   4.972
 2034TIP3   OH2 6044   0.788   7.664   2.187
 2034TIP3    H1 6045   0.787   7.668   2.091
 2034TIP3    H2 6046   0.780   7.570   2.206
 2035TIP3   OH2 6047   2.014   3.409   2.192
 2035TIP3    H1 6048   2.084   3.447   2.138
 2035TIP3    H2 6049   2.061   3.361   2.261
 2036TIP3   OH2 6050   0.018   2.351   5.354
 2036TIP3    H1 6051   0.039   2.271   5.402
 2036TIP3    H2 6052   0.101   2.400   5.351
 2037TIP3   OH2 6053   3.261   2.779   4.671
 2037TIP3    H1 6054   3.202   2.802   4.599
 2037TIP3    H2 6055   3.336   2.737   4.627
 2038TIP3   OH2 6056   5.438   7.580   2.788
 2038TIP3    H1 6057   5.421   7.504   2.732
 2038TIP3    H2 6058   5.355   7.595   2.833
 2039TIP3   OH2 6059   3.502   1.719   6.319
 2039TIP3    H1 6060   3.458   1.685   6.241
 2039TIP3    H2 6061   3.476   1.659   6.389
 2040TIP3   OH2 6062   7.612   3.083   4.611
 2040TIP3    H1 6063   7.519   3.105   4.623
 2040TIP3    H2 6064   7.617   3.044   4.523
 2041TIP3   OH2 6065   4.290   5.488   4.299
 2041TIP3    H1 6066   4.321   5.578   4.287
 2041TIP3    H2 6067   4.367   5.441   4.331
 2042TIP3   OH2 6068   4.936   3.779   0.804
 2042TIP3    H1 6069   4.864   3.840   0.791
 2042TIP3    H2 6070   5.012   3.834   0.820
 2043TIP3   OH2 6071   4.177   6.733   1.880
 2043TIP3    H1 6072   4.177   6.689   1.966
 2043TIP3    H2 6073   4.266   6.768   1.872
 2044TIP3   OH2 6074   2.605   7.083   4.219
 2044TIP3    H1 6075   2.568   7.170   4.205
 2044TIP3    H2 6076   2.530   7.028   4.240
 2045TIP3   OH2 6077   5.100   4.440   3.092
 2045TIP3    H1 6078   5.085   4.501   3.165
 2045TIP3    H2 6079   5.179   4.393   3.117
 2046TIP3   OH2 6080   6.017   1.369   2.179
 2046TIP3    H1 6081   6.095   1.393   2.130
 2046TIP3    H2 6082   6.016   1.429   2.254
 2047TIP3   OH2 6083   7.556   3.183   0.734
 2047TIP3    H1 6084   7.463   3.202   0.748
 2047TIP3    H2 6085   7.579   3.122   0.804
 2048TIP3   OH2 6086   0.522   0.698   2.745
 2048TIP3    H1 6087   0.500   0.667   2.657
 2048TIP3    H2 6088   0.612   0.670   2.759
 2049TIP3   OH2 6089   1.280   3.012   5.151
 2049TIP3    H1 6090   1.200   2.992   5.199
 2049TIP3    H2 6091   1.280   2.951   5.077
 2050TIP3   OH2 6092   6.905   4.285   1.341
 2050TIP3    H1 6093   6.903   4.279   1.436
 2050TIP3    H2 6094   6.821   4.250   1.312
 2051TIP3   OH2 6095   3.726   0.112   3.101
 2051TIP3    H1 6096   3.817   0.134   3.082
 2051TIP3    H2 6097   3.693   0.074   3.019
 2052TIP3   OH2 6098   1.369   3.351   0.886
 2052TIP3    H1 6099   1.358   3.258   0.908
 2052TIP3    H2 6100   1.284   3.376   0.849
 2053TIP3   OH2 6101   7.152   7.748   5.472
 2053TIP3    H1 6102   7.167   7.658   5.443
 2053TIP3    H2 6103   7.236   7.791   5.458
 2054TIP3   OH2 6104   1.650   1.190   2.107
 2054TIP3    H1 6105   1.678   1.282   2.102
 2054TIP3    H2 6106   1.568   1.192   2.155
 2055TIP3   OH2 6107   1.093   3.624   4.745
 2055TIP3    H1 6108   1.019   3.563   4.742
 2055TIP3    H2 6109   1.168   3.572   4.718
 2056TIP3   OH2 6110   4.956   0.081   0.931
 2056TIP3    H1 6111   5.041   0.110   0.899
 2056TIP3    H2 6112   4.956  -0.014   0.917
 2057TIP3   OH2 6113   6.651   3.120   4.146
 2057TIP3    H1 6114   6.719   3.127   4.079
 2057TIP3    H2 6115   6.652   3.027   4.171
 2058TIP3   OH2 6116   0.032   6.268   1.350
 2058TIP3    H1 6117   0.084   6.244   1.427
 2058TIP3    H2 6118   0.092   6.321   1.297
 2059TIP3   OH2 6119   7.906   1.200   0.505
 2059TIP3    H1 6120   7.885   1.142   0.432
 2059TIP3    H2 6121   7.987   1.243   0.478
 2060TIP3   OH2 6122   3.137   7.164   6.240
 2060TIP3    H1 6123   3.134   7.070   6.262
 2060TIP3    H2 6124   3.174   7.205   6.319
 2061TIP3   OH2 6125   5.286   0.667   5.935
 2061TIP3    H1 6126   5.265   0.758   5.954
 2061TIP3    H2 6127   5.349   0.672   5.862
 2062TIP3   OH2 6128   1.613   7.463   5.245
 2062TIP3    H1 6129   1.569   7.546   5.231
 2062TIP3    H2 6130   1.701   7.476   5.209
 2063TIP3   OH2 6131   2.018   7.737   5.117
 2063TIP3    H1 6132   2.085   7.721   5.184
 2063TIP3    H2 6133   2.056   7.703   5.036
 2064TIP3   OH2 6134   6.147   3.356   4.894
 2064TIP3    H1 6135   6.085   3.429   4.894
 2064TIP3    H2 6136   6.175   3.348   4.803
 2065TIP3   OH2 6137   0.463   4.988   2.506
 2065TIP3    H1 6138   0.405   4.955   2.438
 2065TIP3    H2 6139   0.417   4.969   2.588
 2066TIP3   OH2 6140   3.465   0.516   2.099
 2066TIP3    H1 6141   3.410   0.446   2.133
 2066TIP3    H2 6142   3.502   0.481   2.018
 2067TIP3   OH2 6143   3.138   2.492   2.083
 2067TIP3    H1 6144   3.099   2.542   2.012
 2067TIP3    H2 6145   3.068   2.435   2.114
 2068TIP3   OH2 6146   0.369   3.862   3.830
 2068TIP3    H1 6147   0.353   3.831   3.741
 2068TIP3    H2 6148   0.298   3.924   3.848
 2069TIP3   OH2 6149   4.637   6.230   4.504
 2069TIP3    H1 6150   4.625   6.144   4.465
 2069TIP3    H2 6151   4.581   6.229   4.582
 2070TIP3   OH2 6152   1.968   2.945   4.019
 2070TIP3    H1 6153   2.002   2.977   4.102
 2070TIP3    H2 6154   1.917   3.018   3.985
 2071TIP3   OH2 6155  -0.005   6.875   1.691
 2071TIP3    H1 6156   0.040   6.946   1.647
 2071TIP3    H2 6157   0.054   6.800   1.683
 2072TIP3   OH2 6158   5.301   4.801   3.792
 2072TIP3    H1 6159   5.341   4.877   3.750
 2072TIP3    H2 6160   5.366   4.732   3.782
 2073TIP3   OH2 6161   1.910   6.806   6.128
 2073TIP3    H1 6162   1.912   6.897   6.158
 2073TIP3    H2 6163   1.942   6.756   6.203
 2074TIP3   OH2 6164   5.887   0.405   5.475
 2074TIP3    H1 6165   5.824   0.355   5.423
 2074TIP3    H2 6166   5.910   0.346   5.547
 2075TIP3   OH2 6167   7.554   1.528   3.991
 2075TIP3    H1 6168   7.604   1.609   3.985
 2075TIP3    H2 6169   7.612   1.468   4.039
 2076TIP3   OH2 6170   6.871   5.984   2.610
 2076TIP3    H1 6171   6.909   6.015   2.692
 2076TIP3    H2 6172   6.936   5.924   2.574
 2077TIP3   OH2 6173   6.420   3.874   1.856
 2077TIP3    H1 6174   6.413   3.828   1.772
 2077TIP3    H2 6175   6.332   3.870   1.893
 2078TIP3   OH2 6176   0.680   0.344   4.903
 2078TIP3    H1 6177   0.642   0.429   4.880
 2078TIP3    H2 6178   0.764   0.343   4.857
 2079TIP3   OH2 6179   4.284   3.091   1.800
 2079TIP3    H1 6180   4.288   3.151   1.725
 2079TIP3    H2 6181   4.302   3.147   1.876
 2080TIP3   OH2 6182   7.603   4.835   3.009
 2080TIP3    H1 6183   7.682   4.804   2.966
 2080TIP3    H2 6184   7.574   4.909   2.955
 2081TIP3   OH2 6185   0.384   6.070   5.957
 2081TIP3    H1 6186   0.304   6.049   5.908
 2081TIP3    H2 6187   0.385   6.006   6.028
 2082TIP3   OH2 6188   2.175   3.181   5.624
 2082TIP3    H1 6189   2.222   3.251   5.580
 2082TIP3    H2 6190   2.187   3.199   5.718
 2083TIP3   OH2 6191   6.807   4.331   1.601
 2083TIP3    H1 6192   6.849   4.265   1.657
 2083TIP3    H2 6193   6.833   4.414   1.640
 2084TIP3   OH2 6194   7.446   1.097   3.130
 2084TIP3    H1 6195   7.368   1.140   3.165
 2084TIP3    H2 6196   7.518   1.134   3.181
 2085TIP3   OH2 6197   6.013   3.704   0.189
 2085TIP3    H1 6198   5.974   3.620   0.162
 2085TIP3    H2 6199   5.941   3.766   0.184
 2086TIP3   OH2 6200   5.073   4.349   0.405
 2086TIP3    H1 6201   4.985   4.375   0.432
 2086TIP3    H2 6202   5.107   4.426   0.360
 2087TIP3   OH2 6203   6.178   3.099   5.615
 2087TIP3    H1 6204   6.247   3.163   5.597
 2087TIP3    H2 6205   6.120   3.143   5.677
 2088TIP3   OH2 6206   0.894   4.138   0.694
 2088TIP3    H1 6207   0.967   4.111   0.749
 2088TIP3    H2 6208   0.842   4.059   0.683
 2089TIP3   OH2 6209   8.206   0.761   3.562
 2089TIP3    H1 6210   8.285   0.791   3.517
 2089TIP3    H2 6211   8.188   0.675   3.523
 2090TIP3   OH2 6212   6.150   6.730   1.666
 2090TIP3    H1 6213   6.143   6.643   1.706
 2090TIP3    H2 6214   6.212   6.777   1.722
 2091TIP3   OH2 6215   2.906   5.482   2.245
 2091TIP3    H1 6216   2.995   5.448   2.256
 2091TIP3    H2 6217   2.901   5.555   2.307
 2092TIP3   OH2 6218   7.477   3.628   5.663
 2092TIP3    H1 6219   7.411   3.696   5.652
 2092TIP3    H2 6220   7.441   3.572   5.733
 2093TIP3   OH2 6221   5.256   5.831   2.873
 2093TIP3    H1 6222   5.295   5.749   2.841
 2093TIP3    H2 6223   5.210   5.866   2.796
 2094TIP3   OH2 6224   6.598   0.563   4.661
 2094TIP3    H1 6225   6.559   0.527   4.581
 2094TIP3    H2 6226   6.546   0.524   4.732
 2095TIP3   OH2 6227   3.181   3.855   4.549
 2095TIP3    H1 6228   3.191   3.885   4.640
 2095TIP3    H2 6229   3.226   3.771   4.546
 2096TIP3   OH2 6230   4.509   4.633   5.001
 2096TIP3    H1 6231   4.498   4.701   4.935
 2096TIP3    H2 6232   4.604   4.620   5.007
 2097TIP3   OH2 6233   3.163   5.975   4.971
 2097TIP3    H1 6234   3.182   5.886   4.944
 2097TIP3    H2 6235   3.143   5.968   5.065
 2098TIP3   OH2 6236   0.862   3.064   4.853
 2098TIP3    H1 6237   0.801   3.135   4.873
 2098TIP3    H2 6238   0.900   3.088   4.769
 2099TIP3   OH2 6239   5.922   0.976   3.770
 2099TIP3    H1 6240   5.962   0.926   3.841
 2099TIP3    H2 6241   5.847   0.923   3.743
 2100TIP3   OH2 6242   2.226   2.721   5.329
 2100TIP3    H1 6243   2.291   2.748   5.394
 2100TIP3    H2 6244   2.275   2.713   5.248
 2101TIP3   OH2 6245   0.973   3.033   0.710
 2101TIP3    H1 6246   0.920   2.972   0.762
 2101TIP3    H2 6247   0.909   3.093   0.671
 2102TIP3   OH2 6248   0.671   0.143   2.093
 2102TIP3    H1 6249   0.696   0.068   2.039
 2102TIP3    H2 6250   0.722   0.216   2.058
 2103TIP3   OH2 6251   3.653   0.289   0.510
 2103TIP3    H1 6252   3.634   0.256   0.422
 2103TIP3    H2 6253   3.735   0.336   0.501
 2104TIP3   OH2 6254   1.270   5.907   2.222
 2104TIP3    H1 6255   1.291   5.973   2.288
 2104TIP3    H2 6256   1.348   5.852   2.217
 2105TIP3   OH2 6257   2.012   5.009  -0.010
 2105TIP3    H1 6258   2.005   4.988   0.083
 2105TIP3    H2 6259   1.976   5.097  -0.017
 2106TIP3   OH2 6260   0.971   2.368   2.323
 2106TIP3    H1 6261   0.930   2.377   2.409
 2106TIP3    H2 6262   0.904   2.395   2.261
 2107TIP3   OH2 6263   4.962   2.525   3.286
 2107TIP3    H1 6264   4.872   2.538   3.257
 2107TIP3    H2 6265   4.966   2.566   3.372
 2108TIP3   OH2 6266   2.188   4.316   4.839
 2108TIP3    H1 6267   2.231   4.382   4.893
 2108TIP3    H2 6268   2.180   4.240   4.896
 2109TIP3   OH2 6269   1.844   3.253   1.434
 2109TIP3    H1 6270   1.828   3.184   1.497
 2109TIP3    H2 6271   1.823   3.334   1.480
 2110TIP3   OH2 6272   4.853   2.887   3.396
 2110TIP3    H1 6273   4.765   2.906   3.364
 2110TIP3    H2 6274   4.905   2.876   3.317
 2111TIP3   OH2 6275   5.353   7.355   0.660
 2111TIP3    H1 6276   5.265   7.319   0.649
 2111TIP3    H2 6277   5.406   7.309   0.596
 2112TIP3   OH2 6278   6.610   3.412   0.795
 2112TIP3    H1 6279   6.518   3.399   0.771
 2112TIP3    H2 6280   6.655   3.421   0.711
 2113TIP3   OH2 6281   7.101   0.976   0.317
 2113TIP3    H1 6282   7.088   0.988   0.223
 2113TIP3    H2 6283   7.173   1.036   0.339
 2114TIP3   OH2 6284   4.418   7.377   1.802
 2114TIP3    H1 6285   4.439   7.287   1.777
 2114TIP3    H2 6286   4.478   7.397   1.874
 2115TIP3   OH2 6287   6.917   5.396   6.767
 2115TIP3    H1 6288   6.941   5.332   6.700
 2115TIP3    H2 6289   6.842   5.443   6.729
 2116TIP3   OH2 6290   5.435   5.278   5.224
 2116TIP3    H1 6291   5.465   5.190   5.247
 2116TIP3    H2 6292   5.495   5.337   5.270
 2117TIP3   OH2 6293   3.109   5.730   5.506
 2117TIP3    H1 6294   3.182   5.745   5.446
 2117TIP3    H2 6295   3.139   5.659   5.563
 2118TIP3   OH2 6296   8.062   7.464  -0.002
 2118TIP3    H1 6297   7.985   7.487   0.050
 2118TIP3    H2 6298   8.104   7.548  -0.021
 2119TIP3   OH2 6299   8.223   2.517   1.402
 2119TIP3    H1 6300   8.276   2.574   1.457
 2119TIP3    H2 6301   8.279   2.496   1.327
 2120TIP3   OH2 6302   1.159   7.423   4.634
 2120TIP3    H1 6303   1.197   7.455   4.553
 2120TIP3    H2 6304   1.107   7.496   4.668
 2121TIP3   OH2 6305   1.354   7.118   0.291
 2121TIP3    H1 6306   1.366   7.144   0.383
 2121TIP3    H2 6307   1.287   7.179   0.258
 2122TIP3   OH2 6308   3.676   7.522   4.376
 2122TIP3    H1 6309   3.626   7.593   4.336
 2122TIP3    H2 6310   3.762   7.526   4.333
 2123TIP3   OH2 6311   7.916   7.408   4.313
 2123TIP3    H1 6312   7.856   7.464   4.362
 2123TIP3    H2 6313   7.872   7.394   4.229
 2124TIP3   OH2 6314   0.776   4.031   3.477
 2124TIP3    H1 6315   0.839   3.978   3.526
 2124TIP3    H2 6316   0.697   3.977   3.474
 2125TIP3   OH2 6317   1.799   1.572   0.809
 2125TIP3    H1 6318   1.788   1.483   0.842
 2125TIP3    H2 6319   1.892   1.592   0.823
 2126TIP3   OH2 6320   3.733   6.604   6.098
 2126TIP3    H1 6321   3.702   6.604   6.008
 2126TIP3    H2 6322   3.770   6.691   6.111
 2127TIP3   OH2 6323   0.935   6.853   6.566
 2127TIP3    H1 6324   0.922   6.770   6.611
 2127TIP3    H2 6325   0.860   6.859   6.506
 2128TIP3   OH2 6326   3.385   1.662   2.077
 2128TIP3    H1 6327   3.420   1.592   2.132
 2128TIP3    H2 6328   3.434   1.740   2.103
 2129TIP3   OH2 6329   8.075   7.322   5.647
 2129TIP3    H1 6330   8.110   7.398   5.693
 2129TIP3    H2 6331   8.080   7.251   5.711
 2130TIP3   OH2 6332   3.788   6.379   3.008
 2130TIP3    H1 6333   3.760   6.290   3.029
 2130TIP3    H2 6334   3.710   6.432   3.019
 2131TIP3   OH2 6335   5.761   2.216   1.142
 2131TIP3    H1 6336   5.694   2.244   1.080
 2131TIP3    H2 6337   5.840   2.208   1.089
 2132TIP3   OH2 6338   5.609   4.600   2.220
 2132TIP3    H1 6339   5.618   4.596   2.125
 2132TIP3    H2 6340   5.646   4.517   2.252
 2133TIP3   OH2 6341   1.314   6.104   6.004
 2133TIP3    H1 6342   1.383   6.070   5.947
 2133TIP3    H2 6343   1.356   6.177   6.051
 2134TIP3   OH2 6344   7.826   4.487   0.700
 2134TIP3    H1 6345   7.920   4.488   0.718
 2134TIP3    H2 6346   7.818   4.444   0.615
 2135TIP3   OH2 6347   0.073   2.554   0.256
 2135TIP3    H1 6348   0.053   2.606   0.178
 2135TIP3    H2 6349  -0.012   2.518   0.282
 2136TIP3   OH2 6350   7.271   0.578   1.696
 2136TIP3    H1 6351   7.202   0.518   1.725
 2136TIP3    H2 6352   7.320   0.529   1.631
 2137TIP3   OH2 6353   3.375   1.820   0.557
 2137TIP3    H1 6354   3.453   1.770   0.579
 2137TIP3    H2 6355   3.302   1.761   0.575
 2138TIP3   OH2 6356   1.151   2.288   1.561
 2138TIP3    H1 6357   1.092   2.267   1.489
 2138TIP3    H2 6358   1.093   2.305   1.635
 2139TIP3   OH2 6359   0.091   1.072   5.828
 2139TIP3    H1 6360   0.076   1.148   5.771
 2139TIP3    H2 6361   0.102   0.999   5.767
 2140TIP3   OH2 6362   0.812   6.995   2.009
 2140TIP3    H1 6363   0.845   6.916   1.966
 2140TIP3    H2 6364   0.883   7.022   2.066
 2141TIP3   OH2 6365   0.487   4.728   5.542
 2141TIP3    H1 6366   0.569   4.775   5.528
 2141TIP3    H2 6367   0.435   4.786   5.599
 2142TIP3   OH2 6368   2.384   3.272   4.920
 2142TIP3    H1 6369   2.449   3.260   4.850
 2142TIP3    H2 6370   2.333   3.191   4.919
 2143TIP3   OH2 6371   7.880   1.134   5.800
 2143TIP3    H1 6372   7.901   1.211   5.852
 2143TIP3    H2 6373   7.946   1.132   5.731
 2144TIP3   OH2 6374   4.353   7.515   6.613
 2144TIP3    H1 6375   4.385   7.467   6.536
 2144TIP3    H2 6376   4.372   7.457   6.687
 2145TIP3   OH2 6377   6.370   5.107   1.201
 2145TIP3    H1 6378   6.312   5.180   1.179
 2145TIP3    H2 6379   6.338   5.076   1.286
 2146TIP3   OH2 6380   3.657   6.920   2.130
 2146TIP3    H1 6381   3.594   6.866   2.178
 2146TIP3    H2 6382   3.616   6.935   2.045
 2147TIP3   OH2 6383   5.347   0.160   4.502
 2147TIP3    H1 6384   5.268   0.169   4.449
 2147TIP3    H2 6385   5.407   0.110   4.445
 2148TIP3   OH2 6386   5.865   5.919   1.310
 2148TIP3    H1 6387   5.801   5.960   1.368
 2148TIP3    H2 6388   5.935   5.890   1.369
 2149TIP3   OH2 6389   3.962   3.288   5.686
 2149TIP3    H1 6390   3.885   3.266   5.633
 2149TIP3    H2 6391   3.926   3.340   5.758
 2150TIP3   OH2 6392   2.675   3.985   2.635
 2150TIP3    H1 6393   2.605   4.007   2.574
 2150TIP3    H2 6394   2.631   3.952   2.712
 2151TIP3   OH2 6395   4.882   7.142   4.777
 2151TIP3    H1 6396   4.787   7.153   4.771
 2151TIP3    H2 6397   4.898   7.054   4.744
 2152TIP3   OH2 6398   0.065   5.813   4.246
 2152TIP3    H1 6399   0.053   5.883   4.311
 2152TIP3    H2 6400  -0.021   5.772   4.239
 2153TIP3   OH2 6401   7.023   3.098   0.000
 2153TIP3    H1 6402   7.025   3.120  -0.093
 2153TIP3    H2 6403   7.073   3.016   0.006
 2154TIP3   OH2 6404   0.889   1.513   2.370
 2154TIP3    H1 6405   0.819   1.530   2.307
 2154TIP3    H2 6406   0.953   1.461   2.321
 2155TIP3   OH2 6407   1.878   7.706   3.497
 2155TIP3    H1 6408   1.792   7.673   3.524
 2155TIP3    H2 6409   1.915   7.636   3.444
 2156TIP3   OH2 6410   3.055   7.695   1.205
 2156TIP3    H1 6411   2.998   7.713   1.130
 2156TIP3    H2 6412   3.130   7.649   1.169
 2157TIP3   OH2 6413   7.624   5.059   6.614
 2157TIP3    H1 6414   7.551   5.041   6.555
 2157TIP3    H2 6415   7.700   5.023   6.568
 2158TIP3   OH2 6416   1.213   4.702   6.547
 2158TIP3    H1 6417   1.303   4.720   6.518
 2158TIP3    H2 6418   1.158   4.756   6.491
 2159TIP3   OH2 6419   6.348   1.392   2.089
 2159TIP3    H1 6420   6.423   1.410   2.032
 2159TIP3    H2 6421   6.277   1.369   2.028
 2160TIP3   OH2 6422   4.232   0.333   2.376
 2160TIP3    H1 6423   4.213   0.374   2.292
 2160TIP3    H2 6424   4.312   0.283   2.361
 2161TIP3   OH2 6425   3.223   5.970   3.888
 2161TIP3    H1 6426   3.316   5.975   3.864
 2161TIP3    H2 6427   3.221   5.907   3.960
 2162TIP3   OH2 6428   0.910   3.421   4.735
 2162TIP3    H1 6429   0.878   3.435   4.824
 2162TIP3    H2 6430   0.833   3.395   4.686
 2163TIP3   OH2 6431   6.426   3.682   4.959
 2163TIP3    H1 6432   6.359   3.728   5.010
 2163TIP3    H2 6433   6.497   3.745   4.949
 2164TIP3   OH2 6434   7.524   2.274   0.469
 2164TIP3    H1 6435   7.603   2.223   0.487
 2164TIP3    H2 6436   7.454   2.228   0.516
 2165TIP3   OH2 6437   1.907   2.550   5.600
 2165TIP3    H1 6438   1.849   2.625   5.589
 2165TIP3    H2 6439   1.980   2.568   5.541
 2166TIP3   OH2 6440   4.167   7.426   2.929
 2166TIP3    H1 6441   4.169   7.429   3.025
 2166TIP3    H2 6442   4.162   7.517   2.902
 2167TIP3   OH2 6443   0.567   2.826   2.911
 2167TIP3    H1 6444   0.605   2.847   2.825
 2167TIP3    H2 6445   0.593   2.899   2.967
 2168TIP3   OH2 6446   5.777   7.274   3.856
 2168TIP3    H1 6447   5.743   7.262   3.767
 2168TIP3    H2 6448   5.853   7.330   3.845
 2169TIP3   OH2 6449   8.034   4.170   1.456
 2169TIP3    H1 6450   8.023   4.107   1.526
 2169TIP3    H2 6451   8.107   4.136   1.404
 2170TIP3   OH2 6452   5.946   7.555   1.955
 2170TIP3    H1 6453   5.979   7.513   1.876
 2170TIP3    H2 6454   5.876   7.496   1.985
 2171TIP3   OH2 6455   3.571   1.204   6.413
 2171TIP3    H1 6456   3.654   1.251   6.427
 2171TIP3    H2 6457   3.522   1.260   6.354
 2172TIP3   OH2 6458   1.692   0.621   1.375
 2172TIP3    H1 6459   1.650   0.544   1.413
 2172TIP3    H2 6460   1.774   0.587   1.338
 2173TIP3   OH2 6461   4.819   2.581   0.594
 2173TIP3    H1 6462   4.835   2.646   0.526
 2173TIP3    H2 6463   4.729   2.553   0.580
 2174TIP3   OH2 6464   7.814   2.036   6.108
 2174TIP3    H1 6465   7.880   1.971   6.083
 2174TIP3    H2 6466   7.779   2.068   6.025
 2175TIP3   OH2 6467   4.103   2.733   4.283
 2175TIP3    H1 6468   4.186   2.691   4.263
 2175TIP3    H2 6469   4.087   2.791   4.208
 2176TIP3   OH2 6470   8.172   5.144   1.191
 2176TIP3    H1 6471   8.265   5.149   1.213
 2176TIP3    H2 6472   8.171   5.132   1.096
 2177TIP3   OH2 6473   5.954   0.332   1.354
 2177TIP3    H1 6474   6.005   0.372   1.284
 2177TIP3    H2 6475   5.975   0.239   1.351
 2178TIP3   OH2 6476   3.917   2.532   1.902
 2178TIP3    H1 6477   4.001   2.527   1.857
 2178TIP3    H2 6478   3.936   2.499   1.990
 2179TIP3   OH2 6479   5.476   3.324   2.108
 2179TIP3    H1 6480   5.400   3.357   2.060
 2179TIP3    H2 6481   5.551   3.356   2.058
 2180TIP3   OH2 6482   7.131   6.980   6.181
 2180TIP3    H1 6483   7.175   7.041   6.240
 2180TIP3    H2 6484   7.176   6.991   6.097
 2181TIP3   OH2 6485   4.331   2.063   1.404
 2181TIP3    H1 6486   4.291   2.013   1.333
 2181TIP3    H2 6487   4.345   1.999   1.473
 2182TIP3   OH2 6488   4.865   3.237   5.650
 2182TIP3    H1 6489   4.822   3.175   5.709
 2182TIP3    H2 6490   4.946   3.194   5.624
 2183TIP3   OH2 6491   0.309   5.380   3.151
 2183TIP3    H1 6492   0.393   5.363   3.193
 2183TIP3    H2 6493   0.288   5.470   3.175
 2184TIP3   OH2 6494   4.191   7.732   6.591
 2184TIP3    H1 6495   4.097   7.716   6.599
 2184TIP3    H2 6496   4.232   7.652   6.623
 2185TIP3   OH2 6497   0.287   1.658   5.394
 2185TIP3    H1 6498   0.260   1.606   5.318
 2185TIP3    H2 6499   0.376   1.688   5.372
 2186TIP3   OH2 6500   5.787   5.111   5.275
 2186TIP3    H1 6501   5.812   5.191   5.322
 2186TIP3    H2 6502   5.717   5.074   5.330
 2187TIP3   OH2 6503   5.431   2.474   4.482
 2187TIP3    H1 6504   5.393   2.398   4.437
 2187TIP3    H2 6505   5.431   2.543   4.415
 2188TIP3   OH2 6506   2.540   0.352   3.651
 2188TIP3    H1 6507   2.453   0.319   3.671
 2188TIP3    H2 6508   2.600   0.286   3.686
 2189TIP3   OH2 6509   4.923   0.583   1.566
 2189TIP3    H1 6510   4.835   0.616   1.550
 2189TIP3    H2 6511   4.925   0.565   1.660
 2190TIP3   OH2 6512   5.205   0.904   6.031
 2190TIP3    H1 6513   5.127   0.932   6.078
 2190TIP3    H2 6514   5.209   0.962   5.955
 2191TIP3   OH2 6515   6.343   7.609   4.506
 2191TIP3    H1 6516   6.274   7.561   4.552
 2191TIP3    H2 6517   6.337   7.579   4.416
 2192TIP3   OH2 6518   3.098   7.667   2.920
 2192TIP3    H1 6519   3.031   7.683   2.986
 2192TIP3    H2 6520   3.175   7.638   2.970
 2193TIP3   OH2 6521   4.830   7.574   3.687
 2193TIP3    H1 6522   4.791   7.517   3.621
 2193TIP3    H2 6523   4.922   7.548   3.691
 2194TIP3   OH2 6524   8.214   4.099   4.430
 2194TIP3    H1 6525   8.153   4.043   4.479
 2194TIP3    H2 6526   8.177   4.104   4.342
 2195TIP3   OH2 6527   5.757   1.762   4.830
 2195TIP3    H1 6528   5.773   1.762   4.736
 2195TIP3    H2 6529   5.799   1.682   4.862
 2196TIP3   OH2 6530   6.286   6.878   1.874
 2196TIP3    H1 6531   6.297   6.942   1.804
 2196TIP3    H2 6532   6.375   6.859   1.904
 2197TIP3   OH2 6533   7.400   2.623   3.743
 2197TIP3    H1 6534   7.386   2.534   3.776
 2197TIP3    H2 6535   7.456   2.612   3.666
 2198TIP3   OH2 6536   2.562   4.828   3.042
 2198TIP3    H1 6537   2.550   4.923   3.035
 2198TIP3    H2 6538   2.582   4.800   2.953
 2199TIP3   OH2 6539   3.313   2.049   2.850
 2199TIP3    H1 6540   3.268   2.074   2.931
 2199TIP3    H2 6541   3.372   1.978   2.877
 2200TIP3   OH2 6542   6.375   4.584   2.441
 2200TIP3    H1 6543   6.446   4.543   2.391
 2200TIP3    H2 6544   6.296   4.539   2.412
 2201TIP3   OH2 6545   6.414   5.058   2.279
 2201TIP3    H1 6546   6.460   4.989   2.328
 2201TIP3    H2 6547   6.356   5.010   2.220
 2202TIP3   OH2 6548   7.767   1.050   5.105
 2202TIP3    H1 6549   7.711   1.081   5.176
 2202TIP3    H2 6550   7.856   1.056   5.140
 2203TIP3   OH2 6551   5.068   7.684   1.635
 2203TIP3    H1 6552   5.003   7.658   1.700
 2203TIP3    H2 6553   5.075   7.609   1.577
 2204TIP3   OH2 6554   7.937   6.813   1.423
 2204TIP3    H1 6555   7.852   6.856   1.434
 2204TIP3    H2 6556   8.000   6.879   1.452
 2205TIP3   OH2 6557   7.928   3.093   6.476
 2205TIP3    H1 6558   7.898   3.038   6.548
 2205TIP3    H2 6559   8.013   3.127   6.505
 2206TIP3   OH2 6560   1.640   4.485   5.596
 2206TIP3    H1 6561   1.625   4.404   5.547
 2206TIP3    H2 6562   1.553   4.525   5.604
 2207TIP3   OH2 6563   3.136   7.277   6.484
 2207TIP3    H1 6564   3.048   7.255   6.453
 2207TIP3    H2 6565   3.166   7.198   6.529
 2208TIP3   OH2 6566   4.793   1.268   2.039
 2208TIP3    H1 6567   4.817   1.279   1.947
 2208TIP3    H2 6568   4.731   1.339   2.056
 2209TIP3   OH2 6569   3.303   6.826   5.004
 2209TIP3    H1 6570   3.251   6.855   5.079
 2209TIP3    H2 6571   3.241   6.779   4.948
 2210TIP3   OH2 6572   6.642   6.544   4.063
 2210TIP3    H1 6573   6.653   6.589   3.979
 2210TIP3    H2 6574   6.635   6.451   4.039
 2211TIP3   OH2 6575   5.029   3.556   5.085
 2211TIP3    H1 6576   5.089   3.629   5.069
 2211TIP3    H2 6577   5.026   3.547   5.180
 2212TIP3   OH2 6578   7.313   0.969   1.313
 2212TIP3    H1 6579   7.332   0.934   1.400
 2212TIP3    H2 6580   7.246   0.911   1.278
 2213TIP3   OH2 6581   1.381   7.557   1.256
 2213TIP3    H1 6582   1.347   7.543   1.345
 2213TIP3    H2 6583   1.310   7.528   1.198
 2214TIP3   OH2 6584   4.037   4.672   0.544
 2214TIP3    H1 6585   3.981   4.644   0.471
 2214TIP3    H2 6586   3.988   4.741   0.587
 2215TIP3   OH2 6587   0.969   5.513   6.165
 2215TIP3    H1 6588   0.950   5.594   6.117
 2215TIP3    H2 6589   1.056   5.487   6.136
 2216TIP3   OH2 6590   1.388   6.158   3.681
 2216TIP3    H1 6591   1.435   6.121   3.606
 2216TIP3    H2 6592   1.385   6.252   3.663
 2217TIP3   OH2 6593   6.843   0.054   6.365
 2217TIP3    H1 6594   6.871  -0.004   6.436
 2217TIP3    H2 6595   6.784   0.000   6.312
 2218TIP3   OH2 6596   2.486   2.244   2.893
 2218TIP3    H1 6597   2.573   2.240   2.855
 2218TIP3    H2 6598   2.448   2.325   2.859
 2219TIP3   OH2 6599   6.027   6.991   1.656
 2219TIP3    H1 6600   6.117   7.015   1.632
 2219TIP3    H2 6601   6.024   6.896   1.648
 2220TIP3   OH2 6602   4.488   2.674   6.137
 2220TIP3    H1 6603   4.511   2.670   6.044
 2220TIP3    H2 6604   4.560   2.629   6.182
 2221TIP3   OH2 6605   6.282   5.650   3.879
 2221TIP3    H1 6606   6.331   5.624   3.801
 2221TIP3    H2 6607   6.255   5.740   3.862
 2222TIP3   OH2 6608   3.189   6.469   1.487
 2222TIP3    H1 6609   3.157   6.539   1.543
 2222TIP3    H2 6610   3.263   6.432   1.536
 2223TIP3   OH2 6611   6.332   1.983   4.200
 2223TIP3    H1 6612   6.411   1.985   4.146
 2223TIP3    H2 6613   6.264   1.951   4.141
 2224TIP3   OH2 6614   0.062   3.439   6.161
 2224TIP3    H1 6615   0.086   3.401   6.246
 2224TIP3    H2 6616  -0.034   3.431   6.158
 2225TIP3   OH2 6617   2.975   3.910   6.237
 2225TIP3    H1 6618   2.965   4.004   6.222
 2225TIP3    H2 6619   3.041   3.882   6.173
 2226TIP3   OH2 6620   5.055   2.504   1.469
 2226TIP3    H1 6621   5.136   2.520   1.518
 2226TIP3    H2 6622   5.078   2.524   1.378
 2227TIP3   OH2 6623   0.861   7.594   0.854
 2227TIP3    H1 6624   0.850   7.608   0.760
 2227TIP3    H2 6625   0.928   7.658   0.880
 2228TIP3   OH2 6626   4.097   4.443   1.168
 2228TIP3    H1 6627   4.113   4.440   1.074
 2228TIP3    H2 6628   4.077   4.352   1.192
 2229TIP3   OH2 6629   0.728   7.529   5.646
 2229TIP3    H1 6630   0.739   7.485   5.561
 2229TIP3    H2 6631   0.669   7.602   5.627
 2230TIP3   OH2 6632   5.173   6.762   3.605
 2230TIP3    H1 6633   5.208   6.776   3.516
 2230TIP3    H2 6634   5.135   6.674   3.602
 2231TIP3   OH2 6635   1.979   0.855   0.240
 2231TIP3    H1 6636   1.954   0.850   0.332
 2231TIP3    H2 6637   1.908   0.904   0.199
 2232TIP3   OH2 6638   0.971   2.060   5.453
 2232TIP3    H1 6639   1.050   2.075   5.506
 2232TIP3    H2 6640   0.936   1.977   5.486
 2233TIP3   OH2 6641   6.285   5.839   2.571
 2233TIP3    H1 6642   6.291   5.871   2.661
 2233TIP3    H2 6643   6.315   5.748   2.575
 2234TIP3   OH2 6644   2.197   7.689   5.337
 2234TIP3    H1 6645   2.272   7.637   5.364
 2234TIP3    H2 6646   2.228   7.780   5.339
 2235TIP3   OH2 6647   1.128   1.433   2.985
 2235TIP3    H1 6648   1.146   1.388   3.068
 2235TIP3    H2 6649   1.033   1.433   2.978
 2236TIP3   OH2 6650   6.435   0.307   3.664
 2236TIP3    H1 6651   6.414   0.331   3.754
 2236TIP3    H2 6652   6.351   0.294   3.621
 2237TIP3   OH2 6653   2.810   6.868   3.029
 2237TIP3    H1 6654   2.869   6.809   3.075
 2237TIP3    H2 6655   2.762   6.914   3.098
 2238TIP3   OH2 6656   4.666   1.968   4.258
 2238TIP3    H1 6657   4.650   1.876   4.277
 2238TIP3    H2 6658   4.758   1.982   4.280
 2239TIP3   OH2 6659   1.433   6.635   4.344
 2239TIP3    H1 6660   1.442   6.728   4.323
 2239TIP3    H2 6661   1.467   6.628   4.433
 2240TIP3   OH2 6662   2.928   1.256   3.150
 2240TIP3    H1 6663   2.862   1.191   3.176
 2240TIP3    H2 6664   2.964   1.222   3.068
 2241TIP3   OH2 6665   0.645   5.357   2.570
 2241TIP3    H1 6666   0.705   5.404   2.627
 2241TIP3    H2 6667   0.666   5.265   2.584
 2242TIP3   OH2 6668   0.169   7.283   2.804
 2242TIP3    H1 6669   0.113   7.205   2.799
 2242TIP3    H2 6670   0.165   7.321   2.716
 2243TIP3   OH2 6671   7.107   6.295   2.571
 2243TIP3    H1 6672   7.038   6.286   2.636
 2243TIP3    H2 6673   7.124   6.389   2.566
 2244TIP3   OH2 6674   6.049   0.029   5.327
 2244TIP3    H1 6675   5.973  -0.015   5.365
 2244TIP3    H2 6676   6.092  -0.038   5.275
 2245TIP3   OH2 6677   4.350   3.417   4.725
 2245TIP3    H1 6678   4.403   3.431   4.803
 2245TIP3    H2 6679   4.384   3.336   4.687
 2246TIP3   OH2 6680   5.313   0.056   6.302
 2246TIP3    H1 6681   5.394   0.005   6.299
 2246TIP3    H2 6682   5.306   0.083   6.394
 2247TIP3   OH2 6683   1.619   3.472   0.843
 2247TIP3    H1 6684   1.552   3.428   0.895
 2247TIP3    H2 6685   1.576   3.550   0.808
 2248TIP3   OH2 6686   2.154   2.345   0.184
 2248TIP3    H1 6687   2.245   2.327   0.161
 2248TIP3    H2 6688   2.153   2.347   0.280
 2249TIP3   OH2 6689   4.716   4.130   2.274
 2249TIP3    H1 6690   4.721   4.124   2.178
 2249TIP3    H2 6691   4.701   4.040   2.302
 2250TIP3   OH2 6692   2.149   1.865   0.984
 2250TIP3    H1 6693   2.108   1.907   1.059
 2250TIP3    H2 6694   2.090   1.881   0.911
 2251TIP3   OH2 6695   1.945   2.948   2.656
 2251TIP3    H1 6696   1.858   2.984   2.635
 2251TIP3    H2 6697   1.988   3.017   2.706
 2252TIP3   OH2 6698   4.618   0.189   4.807
 2252TIP3    H1 6699   4.677   0.143   4.866
 2252TIP3    H2 6700   4.541   0.132   4.800
 2253TIP3   OH2 6701   7.359   4.150   6.133
 2253TIP3    H1 6702   7.430   4.205   6.100
 2253TIP3    H2 6703   7.397   4.107   6.210
 2254TIP3   OH2 6704   2.273   5.783   6.724
 2254TIP3    H1 6705   2.359   5.743   6.712
 2254TIP3    H2 6706   2.263   5.792   6.818
 2255TIP3   OH2 6707   4.091   3.101   2.994
 2255TIP3    H1 6708   4.005   3.075   2.961
 2255TIP3    H2 6709   4.073   3.169   3.058
 2256TIP3   OH2 6710   2.091   0.601   6.544
 2256TIP3    H1 6711   2.070   0.635   6.457
 2256TIP3    H2 6712   2.011   0.558   6.573
 2257TIP3   OH2 6713   5.022   2.374   4.877
 2257TIP3    H1 6714   4.980   2.397   4.794
 2257TIP3    H2 6715   5.111   2.348   4.853
 2258TIP3   OH2 6716   3.565   5.371   3.360
 2258TIP3    H1 6717   3.549   5.314   3.436
 2258TIP3    H2 6718   3.481   5.376   3.316
 2259TIP3   OH2 6719   1.426   3.583   4.047
 2259TIP3    H1 6720   1.489   3.511   4.049
 2259TIP3    H2 6721   1.427   3.618   4.136
 2260TIP3   OH2 6722   0.819   4.269   6.468
 2260TIP3    H1 6723   0.909   4.301   6.467
 2260TIP3    H2 6724   0.781   4.303   6.387
 2261TIP3   OH2 6725   4.332   5.824   4.698
 2261TIP3    H1 6726   4.349   5.736   4.663
 2261TIP3    H2 6727   4.315   5.810   4.791
 2262TIP3   OH2 6728   3.429   7.116   0.827
 2262TIP3    H1 6729   3.360   7.153   0.772
 2262TIP3    H2 6730   3.463   7.042   0.776
 2263TIP3   OH2 6731   0.998   0.909   5.612
 2263TIP3    H1 6732   1.082   0.871   5.635
 2263TIP3    H2 6733   0.969   0.859   5.535
 2264TIP3   OH2 6734   2.400   3.196   4.513
 2264TIP3    H1 6735   2.393   3.104   4.485
 2264TIP3    H2 6736   2.330   3.206   4.577
 2265TIP3   OH2 6737   7.110   7.599   0.697
 2265TIP3    H1 6738   7.064   7.681   0.676
 2265TIP3    H2 6739   7.129   7.560   0.612
 2266TIP3   OH2 6740   5.744   6.034   3.594
 2266TIP3    H1 6741   5.688   5.963   3.625
 2266TIP3    H2 6742   5.686   6.110   3.591
 2267TIP3   OH2 6743   5.914   1.861   5.530
 2267TIP3    H1 6744   5.906   1.953   5.505
 2267TIP3    H2 6745   6.004   1.837   5.507
 2268TIP3   OH2 6746   2.108   7.502   3.601
 2268TIP3    H1 6747   2.043   7.535   3.663
 2268TIP3    H2 6748   2.174   7.460   3.656
 2269TIP3   OH2 6749   4.061   0.397   1.159
 2269TIP3    H1 6750   4.111   0.461   1.210
 2269TIP3    H2 6751   4.046   0.325   1.219
 2270TIP3   OH2 6752   8.101   7.693   5.349
 2270TIP3    H1 6753   8.076   7.730   5.265
 2270TIP3    H2 6754   8.176   7.745   5.378
 2271TIP3   OH2 6755   0.703   7.332   4.336
 2271TIP3    H1 6756   0.773   7.352   4.397
 2271TIP3    H2 6757   0.732   7.369   4.253
 2272TIP3   OH2 6758   2.194   7.636   2.533
 2272TIP3    H1 6759   2.238   7.678   2.607
 2272TIP3    H2 6760   2.181   7.707   2.470
 2273TIP3   OH2 6761   3.506   4.177   2.017
 2273TIP3    H1 6762   3.523   4.237   2.090
 2273TIP3    H2 6763   3.488   4.234   1.943
 2274TIP3   OH2 6764   6.578   6.314   3.172
 2274TIP3    H1 6765   6.644   6.244   3.170
 2274TIP3    H2 6766   6.595   6.360   3.254
 2275TIP3   OH2 6767   2.821   1.737   3.297
 2275TIP3    H1 6768   2.904   1.742   3.344
 2275TIP3    H2 6769   2.823   1.652   3.253
 2276TIP3   OH2 6770   3.187   7.170   2.403
 2276TIP3    H1 6771   3.214   7.101   2.465
 2276TIP3    H2 6772   3.270   7.205   2.370
 2277TIP3   OH2 6773   3.600   3.042   0.360
 2277TIP3    H1 6774   3.692   3.068   0.368
 2277TIP3    H2 6775   3.571   3.082   0.278
 2278TIP3   OH2 6776   2.922   5.389   0.303
 2278TIP3    H1 6777   2.947   5.349   0.386
 2278TIP3    H2 6778   2.948   5.325   0.237
 2279TIP3   OH2 6779   6.739   2.379   2.044
 2279TIP3    H1 6780   6.748   2.467   2.081
 2279TIP3    H2 6781   6.665   2.341   2.091
 2280TIP3   OH2 6782   2.204   5.900   5.596
 2280TIP3    H1 6783   2.268   5.847   5.549
 2280TIP3    H2 6784   2.250   5.929   5.675
 2281TIP3   OH2 6785   0.962   6.835   4.294
 2281TIP3    H1 6786   0.893   6.775   4.266
 2281TIP3    H2 6787   1.039   6.809   4.243
 2282TIP3   OH2 6788   2.526   7.115   0.380
 2282TIP3    H1 6789   2.447   7.127   0.433
 2282TIP3    H2 6790   2.598   7.139   0.438
 2283TIP3   OH2 6791   1.960   1.697   5.539
 2283TIP3    H1 6792   1.999   1.610   5.544
 2283TIP3    H2 6793   1.929   1.714   5.628
 2284TIP3   OH2 6794   3.041   2.187   2.991
 2284TIP3    H1 6795   3.026   2.155   3.080
 2284TIP3    H2 6796   3.020   2.113   2.934
 2285TIP3   OH2 6797   6.709   1.377   4.970
 2285TIP3    H1 6798   6.762   1.297   4.967
 2285TIP3    H2 6799   6.660   1.371   5.052
 2286TIP3   OH2 6800   3.504   1.869   5.964
 2286TIP3    H1 6801   3.443   1.846   6.034
 2286TIP3    H2 6802   3.460   1.839   5.884
 2287TIP3   OH2 6803   2.999   0.225   2.360
 2287TIP3    H1 6804   3.032   0.180   2.438
 2287TIP3    H2 6805   2.962   0.155   2.306
 2288TIP3   OH2 6806   6.470   5.303   3.919
 2288TIP3    H1 6807   6.558   5.334   3.896
 2288TIP3    H2 6808   6.479   5.207   3.923
 2289TIP3   OH2 6809   7.325   4.740   5.139
 2289TIP3    H1 6810   7.293   4.811   5.083
 2289TIP3    H2 6811   7.401   4.778   5.184
 2290TIP3   OH2 6812   6.902   5.369   1.397
 2290TIP3    H1 6813   6.834   5.312   1.432
 2290TIP3    H2 6814   6.965   5.379   1.469
 2291TIP3   OH2 6815   4.395   7.425   1.477
 2291TIP3    H1 6816   4.376   7.463   1.562
 2291TIP3    H2 6817   4.361   7.489   1.414
 2292TIP3   OH2 6818   1.570   0.074   3.435
 2292TIP3    H1 6819   1.547  -0.015   3.409
 2292TIP3    H2 6820   1.626   0.107   3.365
 2293TIP3   OH2 6821   0.383   1.903   0.807
 2293TIP3    H1 6822   0.406   1.913   0.715
 2293TIP3    H2 6823   0.357   1.990   0.836
 2294TIP3   OH2 6824   7.654   5.583   2.208
 2294TIP3    H1 6825   7.572   5.588   2.159
 2294TIP3    H2 6826   7.629   5.546   2.292
 2295TIP3   OH2 6827   5.552   2.845   2.699
 2295TIP3    H1 6828   5.575   2.934   2.671
 2295TIP3    H2 6829   5.464   2.831   2.663
 2296TIP3   OH2 6830   1.452   1.043   2.597
 2296TIP3    H1 6831   1.526   1.104   2.597
 2296TIP3    H2 6832   1.376   1.097   2.616
 2297TIP3   OH2 6833   5.687   3.729   0.713
 2297TIP3    H1 6834   5.662   3.641   0.742
 2297TIP3    H2 6835   5.781   3.724   0.699
 2298TIP3   OH2 6836   7.504   1.763   5.922
 2298TIP3    H1 6837   7.437   1.696   5.931
 2298TIP3    H2 6838   7.473   1.835   5.977
 2299TIP3   OH2 6839   7.958   4.712   3.361
 2299TIP3    H1 6840   7.948   4.732   3.454
 2299TIP3    H2 6841   7.934   4.793   3.316
 2300TIP3   OH2 6842   1.982   3.266   4.223
 2300TIP3    H1 6843   1.954   3.272   4.314
 2300TIP3    H2 6844   2.066   3.312   4.221
 2301TIP3   OH2 6845   1.621   0.610   0.307
 2301TIP3    H1 6846   1.592   0.537   0.253
 2301TIP3    H2 6847   1.689   0.573   0.364
 2302TIP3   OH2 6848   2.021   1.962   0.708
 2302TIP3    H1 6849   2.037   2.014   0.786
 2302TIP3    H2 6850   1.974   2.020   0.649
 2303TIP3   OH2 6851   3.382   4.293   1.500
 2303TIP3    H1 6852   3.309   4.314   1.559
 2303TIP3    H2 6853   3.460   4.317   1.549
 2304TIP3   OH2 6854   7.680   1.198   3.284
 2304TIP3    H1 6855   7.730   1.132   3.333
 2304TIP3    H2 6856   7.667   1.269   3.346
 2305TIP3   OH2 6857   7.293   7.011   4.530
 2305TIP3    H1 6858   7.362   7.070   4.500
 2305TIP3    H2 6859   7.222   7.021   4.467
 2306TIP3   OH2 6860   6.759   7.381   1.990
 2306TIP3    H1 6861   6.790   7.417   2.074
 2306TIP3    H2 6862   6.669   7.412   1.982
 2307TIP3   OH2 6863   7.696   7.070   0.605
 2307TIP3    H1 6864   7.698   6.982   0.568
 2307TIP3    H2 6865   7.618   7.110   0.567
 2308TIP3   OH2 6866   6.119   5.692   0.213
 2308TIP3    H1 6867   6.109   5.740   0.294
 2308TIP3    H2 6868   6.105   5.600   0.237
 2309TIP3   OH2 6869   5.672   6.523   4.493
 2309TIP3    H1 6870   5.605   6.518   4.561
 2309TIP3    H2 6871   5.724   6.443   4.504
 2310TIP3   OH2 6872   3.410   3.519   5.632
 2310TIP3    H1 6873   3.394   3.427   5.654
 2310TIP3    H2 6874   3.503   3.532   5.648
 2311TIP3   OH2 6875   2.280   3.457   2.071
 2311TIP3    H1 6876   2.333   3.533   2.046
 2311TIP3    H2 6877   2.342   3.399   2.115
 2312TIP3   OH2 6878   7.844   7.277   0.253
 2312TIP3    H1 6879   7.825   7.187   0.279
 2312TIP3    H2 6880   7.820   7.281   0.161
 2313TIP3   OH2 6881   3.504   1.405   2.476
 2313TIP3    H1 6882   3.550   1.432   2.556
 2313TIP3    H2 6883   3.416   1.441   2.486
 2314TIP3   OH2 6884   0.813   5.406   3.841
 2314TIP3    H1 6885   0.767   5.490   3.847
 2314TIP3    H2 6886   0.905   5.430   3.831
 2315TIP3   OH2 6887   4.548   5.559   6.587
 2315TIP3    H1 6888   4.529   5.647   6.553
 2315TIP3    H2 6889   4.484   5.502   6.543
 2316TIP3   OH2 6890   6.118   5.429   2.237
 2316TIP3    H1 6891   6.134   5.490   2.165
 2316TIP3    H2 6892   6.115   5.485   2.315
 2317TIP3   OH2 6893   5.454   4.610   5.089
 2317TIP3    H1 6894   5.498   4.618   5.005
 2317TIP3    H2 6895   5.478   4.690   5.136
 2318TIP3   OH2 6896   2.310   3.703   3.009
 2318TIP3    H1 6897   2.266   3.731   3.089
 2318TIP3    H2 6898   2.244   3.714   2.941
 2319TIP3   OH2 6899   1.393   0.878   6.098
 2319TIP3    H1 6900   1.310   0.904   6.059
 2319TIP3    H2 6901   1.459   0.930   6.053
 2320TIP3   OH2 6902   7.293   5.253   4.831
 2320TIP3    H1 6903   7.254   5.174   4.867
 2320TIP3    H2 6904   7.294   5.238   4.736
 2321TIP3   OH2 6905   8.073   0.404   6.370
 2321TIP3    H1 6906   8.029   0.415   6.286
 2321TIP3    H2 6907   8.003   0.379   6.431
 2322TIP3   OH2 6908   4.456   5.724   5.530
 2322TIP3    H1 6909   4.414   5.805   5.503
 2322TIP3    H2 6910   4.548   5.747   5.540
 2323TIP3   OH2 6911   5.576   1.038   6.140
 2323TIP3    H1 6912   5.645   1.103   6.126
 2323TIP3    H2 6913   5.537   1.025   6.053
 2324TIP3   OH2 6914   6.289  -0.001   3.821
 2324TIP3    H1 6915   6.239   0.063   3.872
 2324TIP3    H2 6916   6.262  -0.086   3.858
 2325TIP3   OH2 6917   2.524   1.012   4.048
 2325TIP3    H1 6918   2.491   1.026   3.960
 2325TIP3    H2 6919   2.610   0.972   4.036
 2326TIP3   OH2 6920   7.778   7.333   3.781
 2326TIP3    H1 6921   7.736   7.408   3.739
 2326TIP3    H2 6922   7.856   7.316   3.727
 2327TIP3   OH2 6923   6.432   2.058   2.358
 2327TIP3    H1 6924   6.524   2.054   2.384
 2327TIP3    H2 6925   6.402   2.144   2.388
 2328TIP3   OH2 6926   0.852   0.377   3.651
 2328TIP3    H1 6927   0.917   0.422   3.597
 2328TIP3    H2 6928   0.901   0.306   3.693
 2329TIP3   OH2 6929   7.490   2.322   6.284
 2329TIP3    H1 6930   7.568   2.370   6.311
 2329TIP3    H2 6931   7.517   2.230   6.282
 2330TIP3   OH2 6932   7.399   2.784   0.494
 2330TIP3    H1 6933   7.318   2.758   0.449
 2330TIP3    H2 6934   7.429   2.705   0.538
 2331TIP3   OH2 6935   8.040   2.374   4.746
 2331TIP3    H1 6936   7.968   2.415   4.699
 2331TIP3    H2 6937   8.102   2.446   4.763
 2332TIP3   OH2 6938   0.191   4.593   1.974
 2332TIP3    H1 6939   0.150   4.512   1.941
 2332TIP3    H2 6940   0.171   4.659   1.908
 2333TIP3   OH2 6941   0.554   2.878   3.291
 2333TIP3    H1 6942   0.514   2.893   3.377
 2333TIP3    H2 6943   0.637   2.926   3.295
 2334TIP3   OH2 6944   6.077   1.544   5.500
 2334TIP3    H1 6945   6.097   1.454   5.527
 2334TIP3    H2 6946   6.053   1.536   5.408
 2335TIP3   OH2 6947   3.787   3.969   3.603
 2335TIP3    H1 6948   3.785   3.980   3.698
 2335TIP3    H2 6949   3.747   3.883   3.588
 2336TIP3   OH2 6950   7.949   4.951   2.844
 2336TIP3    H1 6951   8.006   4.925   2.916
 2336TIP3    H2 6952   7.956   5.047   2.841
 2337TIP3   OH2 6953   2.016   6.368   5.827
 2337TIP3    H1 6954   1.994   6.362   5.920
 2337TIP3    H2 6955   2.048   6.457   5.815
 2338TIP3   OH2 6956   2.631   5.664   2.992
 2338TIP3    H1 6957   2.700   5.730   2.986
 2338TIP3    H2 6958   2.664   5.591   2.940
 2339TIP3   OH2 6959   5.678   6.243   4.621
 2339TIP3    H1 6960   5.750   6.182   4.637
 2339TIP3    H2 6961   5.622   6.236   4.698
 2340TIP3   OH2 6962   7.247   4.556   3.781
 2340TIP3    H1 6963   7.325   4.607   3.804
 2340TIP3    H2 6964   7.195   4.616   3.727
 2341TIP3   OH2 6965   6.255   1.241   1.252
 2341TIP3    H1 6966   6.183   1.286   1.296
 2341TIP3    H2 6967   6.303   1.198   1.323
 2342TIP3   OH2 6968   2.169   3.781   3.233
 2342TIP3    H1 6969   2.157   3.734   3.316
 2342TIP3    H2 6970   2.084   3.774   3.190
 2343TIP3   OH2 6971   2.488   1.856   0.716
 2343TIP3    H1 6972   2.564   1.883   0.767
 2343TIP3    H2 6973   2.434   1.935   0.710
 2344TIP3   OH2 6974   2.828   0.795   1.566
 2344TIP3    H1 6975   2.800   0.880   1.599
 2344TIP3    H2 6976   2.923   0.803   1.557
 2345TIP3   OH2 6977   2.712   3.188   1.081
 2345TIP3    H1 6978   2.637   3.166   1.026
 2345TIP3    H2 6979   2.781   3.211   1.019
 2346TIP3   OH2 6980   0.936   6.518   3.972
 2346TIP3    H1 6981   0.958   6.436   3.929
 2346TIP3    H2 6982   0.968   6.586   3.912
 2347TIP3   OH2 6983   2.245   6.710   2.847
 2347TIP3    H1 6984   2.234   6.633   2.903
 2347TIP3    H2 6985   2.301   6.769   2.898
 2348TIP3   OH2 6986   1.634   4.776   1.622
 2348TIP3    H1 6987   1.585   4.738   1.549
 2348TIP3    H2 6988   1.573   4.839   1.661
 2349TIP3   OH2 6989   5.835   0.959   0.334
 2349TIP3    H1 6990   5.830   0.995   0.245
 2349TIP3    H2 6991   5.929   0.954   0.353
 2350TIP3   OH2 6992   6.582   7.349   3.554
 2350TIP3    H1 6993   6.535   7.428   3.581
 2350TIP3    H2 6994   6.512   7.286   3.535
 2351TIP3   OH2 6995   0.830   6.811   3.097
 2351TIP3    H1 6996   0.824   6.836   3.190
 2351TIP3    H2 6997   0.865   6.888   3.054
 2352TIP3   OH2 6998   4.908   0.127   6.046
 2352TIP3    H1 6999   4.915   0.220   6.025
 2352TIP3    H2 7000   4.976   0.086   5.992
 2353TIP3   OH2 7001   0.776   0.336   2.890
 2353TIP3    H1 7002   0.745   0.299   2.807
 2353TIP3    H2 7003   0.804   0.425   2.869
 2354TIP3   OH2 7004   6.957   5.833   5.464
 2354TIP3    H1 7005   6.898   5.768   5.502
 2354TIP3    H2 7006   7.014   5.782   5.406
 2355TIP3   OH2 7007   7.055   1.402   1.129
 2355TIP3    H1 7008   7.141   1.440   1.111
 2355TIP3    H2 7009   7.026   1.366   1.045
 2356TIP3   OH2 7010   8.067   2.997  -0.013
 2356TIP3    H1 7011   7.978   3.027   0.009
 2356TIP3    H2 7012   8.101   3.064  -0.072
 2357TIP3   OH2 7013   4.771   5.965   4.171
 2357TIP3    H1 7014   4.770   6.043   4.115
 2357TIP3    H2 7015   4.751   5.893   4.111
 2358TIP3   OH2 7016   5.833   5.256   4.205
 2358TIP3    H1 7017   5.914   5.214   4.233
 2358TIP3    H2 7018   5.835   5.342   4.246
 2359TIP3   OH2 7019   3.988   4.160   3.141
 2359TIP3    H1 7020   3.951   4.241   3.104
 2359TIP3    H2 7021   3.951   4.156   3.229
 2360TIP3   OH2 7022   0.593   4.520   6.754
 2360TIP3    H1 7023   0.687   4.525   6.738
 2360TIP3    H2 7024   0.564   4.611   6.757
 2361TIP3   OH2 7025   4.197   1.869   2.453
 2361TIP3    H1 7026   4.222   1.782   2.483
 2361TIP3    H2 7027   4.278   1.907   2.419
 2362TIP3   OH2 7028   2.827   0.238   3.521
 2362TIP3    H1 7029   2.809   0.252   3.615
 2362TIP3    H2 7030   2.760   0.290   3.477
 2363TIP3   OH2 7031   1.831   0.869   1.885
 2363TIP3    H1 7032   1.787   0.890   1.802
 2363TIP3    H2 7033   1.913   0.827   1.858
 2364TIP3   OH2 7034   1.658   5.008   5.535
 2364TIP3    H1 7035   1.713   5.018   5.612
 2364TIP3    H2 7036   1.693   5.071   5.472
 2365TIP3   OH2 7037   7.553   3.874   1.275
 2365TIP3    H1 7038   7.606   3.795   1.268
 2365TIP3    H2 7039   7.502   3.877   1.194
 2366TIP3   OH2 7040   5.762   4.588   1.722
 2366TIP3    H1 7041   5.750   4.645   1.646
 2366TIP3    H2 7042   5.835   4.532   1.698
 2367TIP3   OH2 7043   7.470   0.770   2.940
 2367TIP3    H1 7044   7.418   0.695   2.969
 2367TIP3    H2 7045   7.503   0.809   3.021
 2368TIP3   OH2 7046   4.792   3.063   1.289
 2368TIP3    H1 7047   4.832   2.998   1.346
 2368TIP3    H2 7048   4.821   3.147   1.323
 2369TIP3   OH2 7049   1.146   6.022   3.821
 2369TIP3    H1 7050   1.144   6.105   3.868
 2369TIP3    H2 7051   1.213   6.033   3.754
 2370TIP3   OH2 7052   2.884   6.324   4.233
 2370TIP3    H1 7053   2.917   6.399   4.184
 2370TIP3    H2 7054   2.802   6.300   4.188
 2371TIP3   OH2 7055   3.103   7.012   1.248
 2371TIP3    H1 7056   3.176   6.973   1.199
 2371TIP3    H2 7057   3.081   7.091   1.199
 2372TIP3   OH2 7058   0.059   2.896   3.874
 2372TIP3    H1 7059  -0.014   2.917   3.933
 2372TIP3    H2 7060   0.063   2.971   3.815
 2373TIP3   OH2 7061   6.973   5.368   3.335
 2373TIP3    H1 7062   6.916   5.405   3.404
 2373TIP3    H2 7063   6.923   5.294   3.301
 2374TIP3   OH2 7064   4.324   1.218   0.384
 2374TIP3    H1 7065   4.325   1.167   0.303
 2374TIP3    H2 7066   4.416   1.234   0.403
 2375TIP3   OH2 7067   3.330   2.616   3.744
 2375TIP3    H1 7068   3.260   2.568   3.789
 2375TIP3    H2 7069   3.292   2.640   3.660
 2376TIP3   OH2 7070   0.326   6.713   0.744
 2376TIP3    H1 7071   0.315   6.650   0.673
 2376TIP3    H2 7072   0.263   6.783   0.725
 2377TIP3   OH2 7073   4.577   2.929   3.064
 2377TIP3    H1 7074   4.593   2.899   2.974
 2377TIP3    H2 7075   4.482   2.931   3.071
 2378TIP3   OH2 7076   7.415   2.260   5.423
 2378TIP3    H1 7077   7.498   2.292   5.387
 2378TIP3    H2 7078   7.391   2.324   5.490
 2379TIP3   OH2 7079   1.956   2.967   0.854
 2379TIP3    H1 7080   2.014   2.939   0.926
 2379TIP3    H2 7081   1.948   3.062   0.865
 2380TIP3   OH2 7082   2.712   3.056   5.047
 2380TIP3    H1 7083   2.745   2.994   5.111
 2380TIP3    H2 7084   2.791   3.086   5.000
 2381TIP3   OH2 7085   5.156   5.337   5.277
 2381TIP3    H1 7086   5.249   5.329   5.300
 2381TIP3    H2 7087   5.110   5.300   5.352
 2382TIP3   OH2 7088   3.972   5.099   0.977
 2382TIP3    H1 7089   4.037   5.087   1.046
 2382TIP3    H2 7090   3.900   5.040   1.001
 2383TIP3   OH2 7091   3.208   0.216   4.712
 2383TIP3    H1 7092   3.122   0.189   4.679
 2383TIP3    H2 7093   3.235   0.286   4.652
 2384TIP3   OH2 7094   0.776   2.512   6.127
 2384TIP3    H1 7095   0.868   2.536   6.126
 2384TIP3    H2 7096   0.773   2.432   6.179
 2385TIP3   OH2 7097   5.836   0.122   1.998
 2385TIP3    H1 7098   5.742   0.104   1.985
 2385TIP3    H2 7099   5.854   0.094   2.088
 2386TIP3   OH2 7100   3.285   0.740   0.813
 2386TIP3    H1 7101   3.257   0.727   0.903
 2386TIP3    H2 7102   3.340   0.819   0.816
 2387TIP3   OH2 7103   5.200   4.324   1.594
 2387TIP3    H1 7104   5.196   4.334   1.689
 2387TIP3    H2 7105   5.128   4.265   1.572
 2388TIP3   OH2 7106   5.209   4.582   1.518
 2388TIP3    H1 7107   5.138   4.586   1.582
 2388TIP3    H2 7108   5.239   4.491   1.521
 2389TIP3   OH2 7109   6.563   6.449   0.857
 2389TIP3    H1 7110   6.561   6.377   0.921
 2389TIP3    H2 7111   6.628   6.510   0.891
 2390TIP3   OH2 7112   5.929   3.444   3.294
 2390TIP3    H1 7113   5.861   3.407   3.350
 2390TIP3    H2 7114   5.888   3.520   3.252
 2391TIP3   OH2 7115   7.297   5.923   4.547
 2391TIP3    H1 7116   7.211   5.883   4.530
 2391TIP3    H2 7117   7.349   5.903   4.469
 2392TIP3   OH2 7118   3.355   6.513   5.941
 2392TIP3    H1 7119   3.423   6.462   5.897
 2392TIP3    H2 7120   3.340   6.588   5.883
 2393TIP3   OH2 7121   7.431   4.560   5.917
 2393TIP3    H1 7122   7.405   4.631   5.976
 2393TIP3    H2 7123   7.482   4.603   5.848
 2394TIP3   OH2 7124   4.731   0.666   4.490
 2394TIP3    H1 7125   4.652   0.719   4.489
 2394TIP3    H2 7126   4.711   0.593   4.548
 2395TIP3   OH2 7127   1.887   3.737   4.011
 2395TIP3    H1 7128   1.977   3.750   4.042
 2395TIP3    H2 7129   1.891   3.754   3.917
 2396TIP3   OH2 7130   1.603   0.042   2.774
 2396TIP3    H1 7131   1.576   0.129   2.805
 2396TIP3    H2 7132   1.697   0.050   2.760
 2397TIP3   OH2 7133   1.294   6.439   1.465
 2397TIP3    H1 7134   1.305   6.363   1.408
 2397TIP3    H2 7135   1.342   6.509   1.422
 2398TIP3   OH2 7136   0.836   6.706   2.054
 2398TIP3    H1 7137   0.923   6.676   2.026
 2398TIP3    H2 7138   0.775   6.665   1.993
 2399TIP3   OH2 7139   7.990   4.192   2.110
 2399TIP3    H1 7140   7.941   4.266   2.145
 2399TIP3    H2 7141   7.964   4.117   2.164
 2400TIP3   OH2 7142   6.110   2.907   0.619
 2400TIP3    H1 7143   6.126   2.987   0.569
 2400TIP3    H2 7144   6.186   2.851   0.600
 2401TIP3   OH2 7145   7.864   4.826   0.657
 2401TIP3    H1 7146   7.930   4.763   0.629
 2401TIP3    H2 7147   7.819   4.851   0.576
 2402TIP3   OH2 7148   2.788   4.818   1.175
 2402TIP3    H1 7149   2.696   4.843   1.172
 2402TIP3    H2 7150   2.789   4.727   1.145
 2403TIP3   OH2 7151   0.123   1.184   4.284
 2403TIP3    H1 7152   0.217   1.195   4.270
 2403TIP3    H2 7153   0.083   1.236   4.216
 2404TIP3   OH2 7154   7.032   2.828   5.709
 2404TIP3    H1 7155   7.021   2.760   5.776
 2404TIP3    H2 7156   6.945   2.836   5.670
 2405TIP3   OH2 7157   7.533   3.400   2.363
 2405TIP3    H1 7158   7.537   3.335   2.292
 2405TIP3    H2 7159   7.444   3.391   2.398
 2406TIP3   OH2 7160   1.801   5.190   1.238
 2406TIP3    H1 7161   1.750   5.109   1.242
 2406TIP3    H2 7162   1.850   5.183   1.156
 2407TIP3   OH2 7163   0.238   2.812   6.075
 2407TIP3    H1 7164   0.301   2.883   6.081
 2407TIP3    H2 7165   0.184   2.835   5.999
 2408TIP3   OH2 7166   4.790   6.262   2.704
 2408TIP3    H1 7167   4.787   6.166   2.698
 2408TIP3    H2 7168   4.813   6.291   2.616
 2409TIP3   OH2 7169   0.688   7.601   6.218
 2409TIP3    H1 7170   0.725   7.576   6.302
 2409TIP3    H2 7171   0.622   7.667   6.239
 2410TIP3   OH2 7172   1.357   5.971   2.828
 2410TIP3    H1 7173   1.262   5.964   2.843
 2410TIP3    H2 7174   1.380   6.056   2.866
 2411TIP3   OH2 7175   5.121   6.413   3.462
 2411TIP3    H1 7176   5.197   6.389   3.408
 2411TIP3    H2 7177   5.046   6.377   3.414
 2412TIP3   OH2 7178   7.060   3.839   6.067
 2412TIP3    H1 7179   7.053   3.857   6.160
 2412TIP3    H2 7180   6.972   3.856   6.032
 2413TIP3   OH2 7181   2.920   0.622   4.450
 2413TIP3    H1 7182   2.871   0.604   4.370
 2413TIP3    H2 7183   2.950   0.713   4.440
 2414TIP3   OH2 7184   3.341   5.421   3.228
 2414TIP3    H1 7185   3.298   5.461   3.303
 2414TIP3    H2 7186   3.332   5.486   3.158
 2415TIP3   OH2 7187   0.101   5.425   1.394
 2415TIP3    H1 7188   0.129   5.439   1.484
 2415TIP3    H2 7189   0.088   5.513   1.359
 2416TIP3   OH2 7190   4.437   2.371   2.372
 2416TIP3    H1 7191   4.438   2.284   2.412
 2416TIP3    H2 7192   4.346   2.401   2.382
 2417TIP3   OH2 7193   3.398   5.024   4.273
 2417TIP3    H1 7194   3.490   4.995   4.274
 2417TIP3    H2 7195   3.352   4.961   4.328
 2418TIP3   OH2 7196   4.167   0.758   0.816
 2418TIP3    H1 7197   4.147   0.786   0.905
 2418TIP3    H2 7198   4.082   0.730   0.780
 2419TIP3   OH2 7199   7.991   2.160   3.096
 2419TIP3    H1 7200   7.949   2.205   3.169
 2419TIP3    H2 7201   7.919   2.120   3.047
 2420TIP3   OH2 7202   7.091   4.973   3.697
 2420TIP3    H1 7203   7.086   4.927   3.781
 2420TIP3    H2 7204   7.031   5.046   3.706
 2421TIP3   OH2 7205   4.541   3.339   2.883
 2421TIP3    H1 7206   4.457   3.294   2.870
 2421TIP3    H2 7207   4.598   3.303   2.815
 2422TIP3   OH2 7208   4.769   6.614   2.704
 2422TIP3    H1 7209   4.858   6.641   2.680
 2422TIP3    H2 7210   4.782   6.535   2.756
 2423TIP3   OH2 7211   6.326   4.113   4.511
 2423TIP3    H1 7212   6.307   4.041   4.451
 2423TIP3    H2 7213   6.414   4.140   4.489
 2424TIP3   OH2 7214   1.196   3.272   4.057
 2424TIP3    H1 7215   1.113   3.308   4.088
 2424TIP3    H2 7216   1.262   3.308   4.117
 2425TIP3   OH2 7217   1.044   4.876   6.379
 2425TIP3    H1 7218   1.020   4.968   6.365
 2425TIP3    H2 7219   0.970   4.838   6.427
 2426TIP3   OH2 7220   4.597   1.259   0.320
 2426TIP3    H1 7221   4.667   1.284   0.381
 2426TIP3    H2 7222   4.636   1.272   0.233
 2427TIP3   OH2 7223   4.666   0.885   1.499
 2427TIP3    H1 7224   4.648   0.803   1.545
 2427TIP3    H2 7225   4.753   0.873   1.462
 2428TIP3   OH2 7226   3.911   7.313   2.742
 2428TIP3    H1 7227   3.918   7.223   2.711
 2428TIP3    H2 7228   3.980   7.321   2.808
 2429TIP3   OH2 7229   6.548   0.841   1.277
 2429TIP3    H1 7230   6.506   0.923   1.251
 2429TIP3    H2 7231   6.618   0.869   1.336
 2430TIP3   OH2 7232   1.214   1.406   3.910
 2430TIP3    H1 7233   1.273   1.464   3.861
 2430TIP3    H2 7234   1.140   1.461   3.933
 2431TIP3   OH2 7235   6.750   4.241   4.037
 2431TIP3    H1 7236   6.668   4.247   4.087
 2431TIP3    H2 7237   6.756   4.324   3.991
 2432TIP3   OH2 7238   4.862   4.711   4.292
 2432TIP3    H1 7239   4.924   4.642   4.314
 2432TIP3    H2 7240   4.896   4.749   4.211
 2433TIP3   OH2 7241   1.694   6.213   5.075
 2433TIP3    H1 7242   1.764   6.278   5.075
 2433TIP3    H2 7243   1.614   6.265   5.059
 2434TIP3   OH2 7244   0.348   2.773   2.208
 2434TIP3    H1 7245   0.346   2.843   2.274
 2434TIP3    H2 7246   0.388   2.813   2.131
 2435TIP3   OH2 7247   6.893   7.007   1.042
 2435TIP3    H1 7248   6.977   6.992   0.999
 2435TIP3    H2 7249   6.873   6.924   1.086
 2436TIP3   OH2 7250   6.199   0.595   4.620
 2436TIP3    H1 7251   6.252   0.670   4.593
 2436TIP3    H2 7252   6.232   0.572   4.707
 2437TIP3   OH2 7253   0.445   7.626   3.145
 2437TIP3    H1 7254   0.438   7.697   3.082
 2437TIP3    H2 7255   0.404   7.551   3.102
 2438TIP3   OH2 7256   6.790   2.450   5.572
 2438TIP3    H1 7257   6.867   2.453   5.630
 2438TIP3    H2 7258   6.798   2.367   5.526
 2439TIP3   OH2 7259   5.007   1.427   0.175
 2439TIP3    H1 7260   5.061   1.458   0.103
 2439TIP3    H2 7261   5.058   1.446   0.254
 2440TIP3   OH2 7262   7.241   5.243   3.466
 2440TIP3    H1 7263   7.283   5.247   3.552
 2440TIP3    H2 7264   7.164   5.298   3.474
 2441TIP3   OH2 7265   5.665   2.949   3.724
 2441TIP3    H1 7266   5.634   2.900   3.800
 2441TIP3    H2 7267   5.587   2.990   3.687
 2442TIP3   OH2 7268   1.382   0.403   0.564
 2442TIP3    H1 7269   1.390   0.377   0.655
 2442TIP3    H2 7270   1.325   0.480   0.566
 2443TIP3   OH2 7271   7.931   2.457   0.926
 2443TIP3    H1 7272   7.906   2.376   0.881
 2443TIP3    H2 7273   7.858   2.475   0.985
 2444TIP3   OH2 7274   3.387   0.405   0.567
 2444TIP3    H1 7275   3.348   0.431   0.484
 2444TIP3    H2 7276   3.477   0.381   0.545
 2445TIP3   OH2 7277   2.425   3.424   5.959
 2445TIP3    H1 7278   2.463   3.375   5.886
 2445TIP3    H2 7279   2.400   3.509   5.921
 2446TIP3   OH2 7280   5.799   2.153   3.804
 2446TIP3    H1 7281   5.764   2.131   3.890
 2446TIP3    H2 7282   5.744   2.225   3.773
 2447TIP3   OH2 7283   6.645   6.472   3.366
 2447TIP3    H1 7284   6.643   6.566   3.350
 2447TIP3    H2 7285   6.637   6.464   3.461
 2448TIP3   OH2 7286   6.677   6.285   4.062
 2448TIP3    H1 7287   6.619   6.220   4.101
 2448TIP3    H2 7288   6.761   6.272   4.105
 2449TIP3   OH2 7289   0.619   0.879   5.526
 2449TIP3    H1 7290   0.621   0.789   5.558
 2449TIP3    H2 7291   0.695   0.885   5.468
 2450TIP3   OH2 7292   3.861   2.491   5.054
 2450TIP3    H1 7293   3.847   2.477   4.960
 2450TIP3    H2 7294   3.868   2.402   5.090
 2451TIP3   OH2 7295   7.866   3.559   2.779
 2451TIP3    H1 7296   7.803   3.524   2.715
 2451TIP3    H2 7297   7.927   3.486   2.794
 2452TIP3   OH2 7298   7.934   2.826   6.333
 2452TIP3    H1 7299   7.973   2.909   6.361
 2452TIP3    H2 7300   7.896   2.789   6.413
 2453TIP3   OH2 7301   6.083   2.472   0.467
 2453TIP3    H1 7302   6.172   2.499   0.490
 2453TIP3    H2 7303   6.095   2.393   0.414
 2454TIP3   OH2 7304   0.323   2.356   4.060
 2454TIP3    H1 7305   0.414   2.382   4.076
 2454TIP3    H2 7306   0.324   2.260   4.064
 2455TIP3   OH2 7307   7.303   6.167   4.053
 2455TIP3    H1 7308   7.277   6.087   4.098
 2455TIP3    H2 7309   7.278   6.238   4.112
 2456TIP3   OH2 7310   2.640   6.929   1.091
 2456TIP3    H1 7311   2.707   6.898   1.151
 2456TIP3    H2 7312   2.646   7.025   1.095
 2457TIP3   OH2 7313   6.529   6.560   6.305
 2457TIP3    H1 7314   6.503   6.571   6.214
 2457TIP3    H2 7315   6.582   6.481   6.306
 2458TIP3   OH2 7316   2.015   6.493   2.883
 2458TIP3    H1 7317   1.936   6.498   2.830
 2458TIP3    H2 7318   2.061   6.415   2.850
 2459TIP3   OH2 7319   8.041   5.541   6.187
 2459TIP3    H1 7320   8.108   5.485   6.147
 2459TIP3    H2 7321   7.968   5.482   6.205
 2460TIP3   OH2 7322   0.987   6.204   1.739
 2460TIP3    H1 7323   0.940   6.123   1.757
 2460TIP3    H2 7324   1.073   6.176   1.710
 2461TIP3   OH2 7325   2.700   2.309   2.037
 2461TIP3    H1 7326   2.654   2.230   2.066
 2461TIP3    H2 7327   2.759   2.277   1.968
 2462TIP3   OH2 7328   4.643   5.652   1.415
 2462TIP3    H1 7329   4.653   5.562   1.386
 2462TIP3    H2 7330   4.712   5.700   1.369
 2463TIP3   OH2 7331   6.215   4.833   5.101
 2463TIP3    H1 7332   6.236   4.926   5.098
 2463TIP3    H2 7333   6.190   4.811   5.011
 2464TIP3   OH2 7334   1.077   0.806   1.774
 2464TIP3    H1 7335   1.149   0.851   1.731
 2464TIP3    H2 7336   1.004   0.812   1.712
 2465TIP3   OH2 7337   0.994   1.358   3.707
 2465TIP3    H1 7338   0.904   1.364   3.737
 2465TIP3    H2 7339   1.047   1.368   3.787
 2466TIP3   OH2 7340   7.330   4.863   1.121
 2466TIP3    H1 7341   7.275   4.820   1.186
 2466TIP3    H2 7342   7.305   4.823   1.037
 2467TIP3   OH2 7343   2.321   0.978   5.917
 2467TIP3    H1 7344   2.230   0.992   5.890
 2467TIP3    H2 7345   2.364   0.946   5.838
 2468TIP3   OH2 7346   3.290   4.318   3.111
 2468TIP3    H1 7347   3.326   4.405   3.092
 2468TIP3    H2 7348   3.278   4.317   3.206
 2469TIP3   OH2 7349   0.111   2.416   3.751
 2469TIP3    H1 7350   0.096   2.459   3.666
 2469TIP3    H2 7351   0.023   2.404   3.787
 2470TIP3   OH2 7352   6.735   6.894   0.603
 2470TIP3    H1 7353   6.793   6.962   0.637
 2470TIP3    H2 7354   6.721   6.917   0.512
 2471TIP3   OH2 7355   3.517   4.944   1.328
 2471TIP3    H1 7356   3.433   4.985   1.311
 2471TIP3    H2 7357   3.496   4.865   1.379
 2472TIP3   OH2 7358   1.706   2.593   4.214
 2472TIP3    H1 7359   1.657   2.525   4.168
 2472TIP3    H2 7360   1.640   2.658   4.238
 2473TIP3   OH2 7361   7.295   0.149   6.411
 2473TIP3    H1 7362   7.221   0.195   6.371
 2473TIP3    H2 7363   7.272   0.143   6.504
 2474TIP3   OH2 7364   4.840   7.690   1.262
 2474TIP3    H1 7365   4.913   7.748   1.280
 2474TIP3    H2 7366   4.863   7.608   1.305
 2475TIP3   OH2 7367   3.255   5.460   0.210
 2475TIP3    H1 7368   3.167   5.458   0.249
 2475TIP3    H2 7369   3.311   5.421   0.277
 2476TIP3   OH2 7370   5.530   7.041   1.834
 2476TIP3    H1 7371   5.465   7.085   1.889
 2476TIP3    H2 7372   5.607   7.096   1.840
 2477TIP3   OH2 7373   0.629   2.292   6.534
 2477TIP3    H1 7374   0.550   2.340   6.561
 2477TIP3    H2 7375   0.636   2.221   6.598
 2478TIP3   OH2 7376   1.711   1.247   3.368
 2478TIP3    H1 7377   1.684   1.161   3.335
 2478TIP3    H2 7378   1.801   1.257   3.336
 2479TIP3   OH2 7379   0.259   3.183   1.778
 2479TIP3    H1 7380   0.262   3.249   1.848
 2479TIP3    H2 7381   0.205   3.112   1.815
 2480TIP3   OH2 7382   2.089   0.338   4.227
 2480TIP3    H1 7383   2.129   0.296   4.151
 2480TIP3    H2 7384   2.003   0.296   4.237
 2481TIP3   OH2 7385   6.273   3.215   3.732
 2481TIP3    H1 7386   6.260   3.153   3.660
 2481TIP3    H2 7387   6.291   3.299   3.689
 2482TIP3   OH2 7388   3.315   3.012   3.283
 2482TIP3    H1 7389   3.364   3.028   3.202
 2482TIP3    H2 7390   3.252   2.945   3.259
 2483TIP3   OH2 7391   0.575   7.804   2.308
 2483TIP3    H1 7392   0.631   7.837   2.379
 2483TIP3    H2 7393   0.636   7.762   2.247
 2484TIP3   OH2 7394   4.743   7.236   6.297
 2484TIP3    H1 7395   4.765   7.145   6.277
 2484TIP3    H2 7396   4.752   7.283   6.214
 2485TIP3   OH2 7397   3.679   6.715   4.764
 2485TIP3    H1 7398   3.703   6.806   4.782
 2485TIP3    H2 7399   3.761   6.667   4.769
 2486TIP3   OH2 7400   7.815   5.779   2.121
 2486TIP3    H1 7401   7.752   5.851   2.127
 2486TIP3    H2 7402   7.770   5.705   2.161
 2487TIP3   OH2 7403   7.363   4.767   2.388
 2487TIP3    H1 7404   7.430   4.804   2.330
 2487TIP3    H2 7405   7.286   4.823   2.374
 2488TIP3   OH2 7406   5.170   2.189   0.640
 2488TIP3    H1 7407   5.232   2.175   0.568
 2488TIP3    H2 7408   5.114   2.260   0.608
 2489TIP3   OH2 7409   4.429   5.607   5.757
 2489TIP3    H1 7410   4.417   5.695   5.793
 2489TIP3    H2 7411   4.436   5.621   5.662
 2490TIP3   OH2 7412   7.090   1.107   1.985
 2490TIP3    H1 7413   7.043   1.039   1.937
 2490TIP3    H2 7414   7.087   1.080   2.076
 2491TIP3   OH2 7415   0.086   3.100   6.721
 2491TIP3    H1 7416   0.153   3.145   6.669
 2491TIP3    H2 7417   0.012   3.160   6.723
 2492TIP3   OH2 7418   3.314   6.004   6.388
 2492TIP3    H1 7419   3.259   6.065   6.338
 2492TIP3    H2 7420   3.404   6.025   6.360
 2493TIP3   OH2 7421   3.862   2.377   3.342
 2493TIP3    H1 7422   3.922   2.451   3.344
 2493TIP3    H2 7423   3.915   2.303   3.311
 2494TIP3   OH2 7424   5.409   3.145   6.618
 2494TIP3    H1 7425   5.460   3.224   6.636
 2494TIP3    H2 7426   5.319   3.176   6.609
 2495TIP3   OH2 7427   7.560   6.998   6.571
 2495TIP3    H1 7428   7.516   7.078   6.600
 2495TIP3    H2 7429   7.629   7.029   6.513
 2496TIP3   OH2 7430   3.383   1.401   5.542
 2496TIP3    H1 7431   3.461   1.452   5.561
 2496TIP3    H2 7432   3.322   1.424   5.612
 2497TIP3   OH2 7433   1.865   3.411   2.625
 2497TIP3    H1 7434   1.911   3.424   2.708
 2497TIP3    H2 7435   1.922   3.452   2.560
 2498TIP3   OH2 7436   3.776   0.990   1.212
 2498TIP3    H1 7437   3.742   1.003   1.124
 2498TIP3    H2 7438   3.729   0.913   1.244
 2499TIP3   OH2 7439   5.152   1.895   4.391
 2499TIP3    H1 7440   5.215   1.919   4.459
 2499TIP3    H2 7441   5.205   1.857   4.321
 2500TIP3   OH2 7442   4.930   4.402   3.993
 2500TIP3    H1 7443   4.870   4.370   3.926
 2500TIP3    H2 7444   4.984   4.466   3.947
 2501TIP3   OH2 7445   0.959   4.545   1.964
 2501TIP3    H1 7446   1.005   4.617   2.007
 2501TIP3    H2 7447   0.866   4.567   1.974
 2502TIP3   OH2 7448   8.158   5.331   4.457
 2502TIP3    H1 7449   8.102   5.380   4.517
 2502TIP3    H2 7450   8.183   5.253   4.507
 2503TIP3   OH2 7451   3.577   6.754   0.346
 2503TIP3    H1 7452   3.524   6.818   0.394
 2503TIP3    H2 7453   3.618   6.805   0.276
 2504TIP3   OH2 7454   4.249   7.047   0.605
 2504TIP3    H1 7455   4.217   7.136   0.589
 2504TIP3    H2 7456   4.344   7.053   0.596
 2505TIP3   OH2 7457   6.437   4.003   3.107
 2505TIP3    H1 7458   6.492   4.029   3.033
 2505TIP3    H2 7459   6.495   4.010   3.183
 2506TIP3   OH2 7460   1.307   0.332   4.876
 2506TIP3    H1 7461   1.219   0.297   4.892
 2506TIP3    H2 7462   1.296   0.427   4.878
 2507TIP3   OH2 7463   0.543   4.272   4.396
 2507TIP3    H1 7464   0.565   4.267   4.303
 2507TIP3    H2 7465   0.563   4.363   4.421
 2508TIP3   OH2 7466   7.042   0.691   0.150
 2508TIP3    H1 7467   7.089   0.670   0.230
 2508TIP3    H2 7468   7.007   0.779   0.165
 2509TIP3   OH2 7469   0.613   7.790   1.714
 2509TIP3    H1 7470   0.619   7.724   1.645
 2509TIP3    H2 7471   0.546   7.851   1.683
 2510TIP3   OH2 7472   7.242   7.252   4.924
 2510TIP3    H1 7473   7.205   7.190   4.860
 2510TIP3    H2 7474   7.206   7.225   5.008
 2511TIP3   OH2 7475   7.960   2.087   1.522
 2511TIP3    H1 7476   7.921   2.056   1.603
 2511TIP3    H2 7477   8.048   2.115   1.546
 2512TIP3   OH2 7478   3.394   1.541   6.516
 2512TIP3    H1 7479   3.328   1.521   6.450
 2512TIP3    H2 7480   3.345   1.550   6.598
 2513TIP3   OH2 7481   2.675   6.335   2.224
 2513TIP3    H1 7482   2.698   6.275   2.153
 2513TIP3    H2 7483   2.658   6.418   2.179
 2514TIP3   OH2 7484   5.840   7.547   3.645
 2514TIP3    H1 7485   5.822   7.541   3.551
 2514TIP3    H2 7486   5.887   7.466   3.666
 2515TIP3   OH2 7487   3.141   0.970   3.153
 2515TIP3    H1 7488   3.232   0.992   3.173
 2515TIP3    H2 7489   3.136   0.875   3.164
 2516TIP3   OH2 7490   4.608   3.272   0.901
 2516TIP3    H1 7491   4.523   3.267   0.945
 2516TIP3    H2 7492   4.663   3.323   0.960
 2517TIP3   OH2 7493   0.054   6.390   3.152
 2517TIP3    H1 7494   0.056   6.339   3.232
 2517TIP3    H2 7495   0.016   6.331   3.086
 2518TIP3   OH2 7496   1.144   3.918   0.539
 2518TIP3    H1 7497   1.158   3.972   0.461
 2518TIP3    H2 7498   1.052   3.931   0.562
 2519TIP3   OH2 7499   7.160   4.792   5.912
 2519TIP3    H1 7500   7.208   4.758   5.837
 2519TIP3    H2 7501   7.162   4.887   5.901
 2520TIP3   OH2 7502   4.802   2.672   4.445
 2520TIP3    H1 7503   4.845   2.738   4.498
 2520TIP3    H2 7504   4.725   2.645   4.496
 2521TIP3   OH2 7505   2.518   6.801   5.395
 2521TIP3    H1 7506   2.465   6.760   5.463
 2521TIP3    H2 7507   2.472   6.781   5.314
 2522TIP3   OH2 7508   1.076   4.192   6.765
 2522TIP3    H1 7509   1.145   4.245   6.725
 2522TIP3    H2 7510   1.050   4.130   6.697
 2523TIP3   OH2 7511   6.432   5.338   2.038
 2523TIP3    H1 7512   6.474   5.422   2.020
 2523TIP3    H2 7513   6.348   5.342   1.992
 2524TIP3   OH2 7514   3.736   6.183   5.327
 2524TIP3    H1 7515   3.813   6.232   5.299
 2524TIP3    H2 7516   3.746   6.097   5.286
 2525TIP3   OH2 7517   0.913   0.622   5.783
 2525TIP3    H1 7518   0.938   0.570   5.707
 2525TIP3    H2 7519   0.817   0.627   5.778
 2526TIP3   OH2 7520   7.905   6.293   2.276
 2526TIP3    H1 7521   7.859   6.279   2.193
 2526TIP3    H2 7522   7.981   6.234   2.271
 2527TIP3   OH2 7523   4.769   2.300   4.294
 2527TIP3    H1 7524   4.707   2.239   4.332
 2527TIP3    H2 7525   4.725   2.334   4.216
 2528TIP3   OH2 7526   0.312   6.196   6.193
 2528TIP3    H1 7527   0.237   6.173   6.138
 2528TIP3    H2 7528   0.382   6.215   6.130
 2529TIP3   OH2 7529   5.225   3.624   1.578
 2529TIP3    H1 7530   5.208   3.715   1.552
 2529TIP3    H2 7531   5.319   3.613   1.568
 2530TIP3   OH2 7532   7.028   0.401   4.972
 2530TIP3    H1 7533   7.119   0.386   4.998
 2530TIP3    H2 7534   7.004   0.323   4.922
 2531TIP3   OH2 7535   8.195   5.698   4.645
 2531TIP3    H1 7536   8.140   5.629   4.609
 2531TIP3    H2 7537   8.185   5.690   4.740
 2532TIP3   OH2 7538   8.156   6.681   4.515
 2532TIP3    H1 7539   8.103   6.761   4.514
 2532TIP3    H2 7540   8.185   6.671   4.425
 2533TIP3   OH2 7541   1.527   0.663   2.028
 2533TIP3    H1 7542   1.605   0.617   1.999
 2533TIP3    H2 7543   1.531   0.659   2.124
 2534TIP3   OH2 7544   6.367   3.266   0.408
 2534TIP3    H1 7545   6.348   3.183   0.451
 2534TIP3    H2 7546   6.457   3.257   0.376
 2535TIP3   OH2 7547   7.590   5.934   2.158
 2535TIP3    H1 7548   7.558   5.976   2.238
 2535TIP3    H2 7549   7.516   5.938   2.098
 2536TIP3   OH2 7550   8.258   1.807   0.817
 2536TIP3    H1 7551   8.169   1.816   0.851
 2536TIP3    H2 7552   8.273   1.887   0.767
 2537TIP3   OH2 7553   6.851   5.667   0.322
 2537TIP3    H1 7554   6.850   5.649   0.416
 2537TIP3    H2 7555   6.823   5.585   0.282
 2538TIP3   OH2 7556   4.356   5.606   0.563
 2538TIP3    H1 7557   4.274   5.564   0.539
 2538TIP3    H2 7558   4.336   5.700   0.566
 2539TIP3   OH2 7559   2.965   5.569   4.497
 2539TIP3    H1 7560   3.038   5.595   4.440
 2539TIP3    H2 7561   2.901   5.531   4.437
 2540TIP3   OH2 7562   2.694   3.011   4.268
 2540TIP3    H1 7563   2.640   2.939   4.301
 2540TIP3    H2 7564   2.755   3.029   4.339
 2541TIP3   OH2 7565   0.280   0.796   4.077
 2541TIP3    H1 7566   0.375   0.798   4.071
 2541TIP3    H2 7567   0.259   0.850   4.154
 2542TIP3   OH2 7568   6.103   0.845   0.690
 2542TIP3    H1 7569   6.102   0.822   0.783
 2542TIP3    H2 7570   6.138   0.767   0.647
 2543TIP3   OH2 7571   0.866   6.418   2.751
 2543TIP3    H1 7572   0.950   6.380   2.777
 2543TIP3    H2 7573   0.871   6.510   2.779
 2544TIP3   OH2 7574   0.324   1.211   2.721
 2544TIP3    H1 7575   0.399   1.175   2.674
 2544TIP3    H2 7576   0.295   1.284   2.667
 2545TIP3   OH2 7577   8.054   6.188   1.165
 2545TIP3    H1 7578   7.987   6.221   1.225
 2545TIP3    H2 7579   8.037   6.094   1.159
 2546TIP3   OH2 7580   2.414   6.031   2.046
 2546TIP3    H1 7581   2.398   6.124   2.064
 2546TIP3    H2 7582   2.509   6.025   2.030
 2547TIP3   OH2 7583   6.160   6.461   1.702
 2547TIP3    H1 7584   6.094   6.442   1.768
 2547TIP3    H2 7585   6.243   6.441   1.745
 2548TIP3   OH2 7586   0.750   4.036   3.848
 2548TIP3    H1 7587   0.672   4.075   3.888
 2548TIP3    H2 7588   0.752   3.946   3.882
 2549TIP3   OH2 7589   7.486   0.215   4.815
 2549TIP3    H1 7590   7.465   0.143   4.755
 2549TIP3    H2 7591   7.582   0.221   4.813
 2550TIP3   OH2 7592   3.844   2.802   6.519
 2550TIP3    H1 7593   3.776   2.745   6.484
 2550TIP3    H2 7594   3.873   2.854   6.445
 2551TIP3   OH2 7595   6.063   5.317   6.202
 2551TIP3    H1 7596   5.974   5.302   6.171
 2551TIP3    H2 7597   6.057   5.310   6.298
 2552TIP3   OH2 7598   2.039   0.358   1.513
 2552TIP3    H1 7599   2.117   0.375   1.566
 2552TIP3    H2 7600   2.040   0.263   1.498
 2553TIP3   OH2 7601   5.698   4.147   4.055
 2553TIP3    H1 7602   5.712   4.228   4.006
 2553TIP3    H2 7603   5.785   4.123   4.087
 2554TIP3   OH2 7604   0.646   3.982   4.170
 2554TIP3    H1 7605   0.554   3.954   4.165
 2554TIP3    H2 7606   0.641   4.078   4.173
 2555TIP3   OH2 7607   5.646   0.517   5.660
 2555TIP3    H1 7608   5.737   0.547   5.647
 2555TIP3    H2 7609   5.655   0.428   5.694
 2556TIP3   OH2 7610   7.045   2.759   4.397
 2556TIP3    H1 7611   7.025   2.847   4.430
 2556TIP3    H2 7612   7.007   2.757   4.310
 2557TIP3   OH2 7613   4.781   4.757   4.702
 2557TIP3    H1 7614   4.718   4.700   4.657
 2557TIP3    H2 7615   4.823   4.700   4.766
 2558TIP3   OH2 7616   3.973   7.028   0.428
 2558TIP3    H1 7617   3.996   6.966   0.497
 2558TIP3    H2 7618   4.047   7.024   0.367
 2559TIP3   OH2 7619   0.563   4.732   2.642
 2559TIP3    H1 7620   0.595   4.690   2.721
 2559TIP3    H2 7621   0.467   4.732   2.652
 2560TIP3   OH2 7622   2.992   3.491   3.997
 2560TIP3    H1 7623   2.929   3.548   4.040
 2560TIP3    H2 7624   2.956   3.474   3.911
 2561TIP3   OH2 7625   4.788   5.456   5.135
 2561TIP3    H1 7626   4.707   5.405   5.129
 2561TIP3    H2 7627   4.854   5.400   5.094
 2562TIP3   OH2 7628   3.732   5.898   0.158
 2562TIP3    H1 7629   3.784   5.887   0.238
 2562TIP3    H2 7630   3.791   5.940   0.096
 2563TIP3   OH2 7631   7.714   6.677   4.507
 2563TIP3    H1 7632   7.660   6.688   4.585
 2563TIP3    H2 7633   7.749   6.765   4.490
 2564TIP3   OH2 7634   8.323   3.860   4.708
 2564TIP3    H1 7635   8.250   3.899   4.660
 2564TIP3    H2 7636   8.285   3.782   4.749
 2565TIP3   OH2 7637   4.945   4.158   2.508
 2565TIP3    H1 7638   4.941   4.144   2.413
 2565TIP3    H2 7639   4.985   4.078   2.542
 2566TIP3   OH2 7640   6.110   4.262   4.613
 2566TIP3    H1 7641   6.169   4.213   4.556
 2566TIP3    H2 7642   6.050   4.195   4.648
 2567TIP3   OH2 7643   3.075   1.522   3.902
 2567TIP3    H1 7644   3.155   1.470   3.892
 2567TIP3    H2 7645   3.017   1.466   3.954
 2568TIP3   OH2 7646   1.048   2.783   2.492
 2568TIP3    H1 7647   1.128   2.765   2.540
 2568TIP3    H2 7648   0.983   2.723   2.529
 2569TIP3   OH2 7649   6.581   1.768   2.084
 2569TIP3    H1 7650   6.579   1.858   2.052
 2569TIP3    H2 7651   6.537   1.770   2.168
 2570TIP3   OH2 7652   4.857   3.708   3.687
 2570TIP3    H1 7653   4.791   3.709   3.617
 2570TIP3    H2 7654   4.910   3.785   3.670
 2571TIP3   OH2 7655   0.854   4.633   1.169
 2571TIP3    H1 7656   0.934   4.594   1.206
 2571TIP3    H2 7657   0.799   4.652   1.245
 2572TIP3   OH2 7658   3.737   3.469   4.863
 2572TIP3    H1 7659   3.753   3.423   4.780
 2572TIP3    H2 7660   3.725   3.400   4.927
 2573TIP3   OH2 7661   7.691   7.113   6.152
 2573TIP3    H1 7662   7.709   7.189   6.097
 2573TIP3    H2 7663   7.638   7.055   6.097
 2574TIP3   OH2 7664   1.825   1.491   3.975
 2574TIP3    H1 7665   1.805   1.407   3.934
 2574TIP3    H2 7666   1.749   1.511   4.029
 2575TIP3   OH2 7667   4.017   1.962   0.509
 2575TIP3    H1 7668   4.085   1.898   0.492
 2575TIP3    H2 7669   4.010   2.012   0.428
 2576TIP3   OH2 7670   2.763   5.176   4.201
 2576TIP3    H1 7671   2.799   5.088   4.213
 2576TIP3    H2 7672   2.744   5.181   4.108
 2577TIP3   OH2 7673   2.523   7.074   3.643
 2577TIP3    H1 7674   2.539   7.045   3.553
 2577TIP3    H2 7675   2.594   7.136   3.660
 2578TIP3   OH2 7676   3.248   7.764   2.699
 2578TIP3    H1 7677   3.179   7.718   2.747
 2578TIP3    H2 7678   3.276   7.833   2.758
 2579TIP3   OH2 7679   2.233   3.334   3.333
 2579TIP3    H1 7680   2.257   3.418   3.294
 2579TIP3    H2 7681   2.304   3.315   3.394
 2580TIP3   OH2 7682   3.032   2.056   2.664
 2580TIP3    H1 7683   3.098   2.118   2.694
 2580TIP3    H2 7684   2.965   2.110   2.623
 2581TIP3   OH2 7685   6.394   5.656   1.344
 2581TIP3    H1 7686   6.403   5.730   1.284
 2581TIP3    H2 7687   6.465   5.597   1.321
 2582TIP3   OH2 7688   0.295   5.439   5.721
 2582TIP3    H1 7689   0.387   5.450   5.697
 2582TIP3    H2 7690   0.254   5.402   5.642
 2583TIP3   OH2 7691   5.055   1.286   4.885
 2583TIP3    H1 7692   5.017   1.202   4.910
 2583TIP3    H2 7693   5.032   1.296   4.793
 2584TIP3   OH2 7694   5.117  -0.020   1.736
 2584TIP3    H1 7695   5.130  -0.019   1.830
 2584TIP3    H2 7696   5.073   0.063   1.716
 2585TIP3   OH2 7697   0.164   3.802   5.070
 2585TIP3    H1 7698   0.178   3.737   5.139
 2585TIP3    H2 7699   0.123   3.876   5.115
 2586TIP3   OH2 7700   1.105   4.006   0.853
 2586TIP3    H1 7701   1.125   4.002   0.946
 2586TIP3    H2 7702   1.181   3.968   0.810
 2587TIP3   OH2 7703   7.509   1.346   4.766
 2587TIP3    H1 7704   7.458   1.332   4.686
 2587TIP3    H2 7705   7.597   1.316   4.744
 2588TIP3   OH2 7706   1.818   7.517   6.440
 2588TIP3    H1 7707   1.838   7.449   6.376
 2588TIP3    H2 7708   1.741   7.561   6.405
 2589TIP3   OH2 7709   0.457   1.512   0.570
 2589TIP3    H1 7710   0.552   1.516   0.561
 2589TIP3    H2 7711   0.441   1.529   0.663
 2590TIP3   OH2 7712   7.788   6.552   5.394
 2590TIP3    H1 7713   7.795   6.502   5.476
 2590TIP3    H2 7714   7.878   6.561   5.363
 2591TIP3   OH2 7715   7.056   7.043   0.464
 2591TIP3    H1 7716   7.124   7.109   0.454
 2591TIP3    H2 7717   7.002   7.075   0.536
 2592TIP3   OH2 7718   7.412   5.037   4.672
 2592TIP3    H1 7719   7.500   5.057   4.705
 2592TIP3    H2 7720   7.358   5.028   4.751
 2593TIP3   OH2 7721   0.384   3.010   5.837
 2593TIP3    H1 7722   0.341   2.980   5.757
 2593TIP3    H2 7723   0.438   2.936   5.865
 2594TIP3   OH2 7724   7.253   3.594   2.833
 2594TIP3    H1 7725   7.225   3.655   2.765
 2594TIP3    H2 7726   7.348   3.589   2.823
 2595TIP3   OH2 7727   0.887   0.224   4.353
 2595TIP3    H1 7728   0.854   0.300   4.304
 2595TIP3    H2 7729   0.812   0.194   4.405
 2596TIP3   OH2 7730   7.688   6.050   4.415
 2596TIP3    H1 7731   7.714   6.128   4.464
 2596TIP3    H2 7732   7.760   6.035   4.354
 2597TIP3   OH2 7733   2.964   7.031   2.355
 2597TIP3    H1 7734   3.055   7.058   2.370
 2597TIP3    H2 7735   2.916   7.070   2.428
 2598TIP3   OH2 7736   0.228   1.179   5.552
 2598TIP3    H1 7737   0.318   1.152   5.572
 2598TIP3    H2 7738   0.229   1.274   5.566
 2599TIP3   OH2 7739   6.221   5.593   2.047
 2599TIP3    H1 7740   6.225   5.549   1.963
 2599TIP3    H2 7741   6.217   5.686   2.025
 2600TIP3   OH2 7742   7.533   1.884   1.953
 2600TIP3    H1 7743   7.601   1.917   2.012
 2600TIP3    H2 7744   7.451   1.901   1.999
 2601TIP3   OH2 7745   2.319   3.995   6.389
 2601TIP3    H1 7746   2.404   4.032   6.411
 2601TIP3    H2 7747   2.286   3.960   6.472
 2602TIP3   OH2 7748   4.925   7.630   0.160
 2602TIP3    H1 7749   4.938   7.572   0.235
 2602TIP3    H2 7750   4.998   7.612   0.101
 2603TIP3   OH2 7751   4.894   0.804   3.122
 2603TIP3    H1 7752   4.934   0.759   3.048
 2603TIP3    H2 7753   4.947   0.777   3.198
 2604TIP3   OH2 7754   2.695   6.461   4.035
 2604TIP3    H1 7755   2.776   6.511   4.041
 2604TIP3    H2 7756   2.709   6.403   3.960
 2605TIP3   OH2 7757   7.478   6.495   3.565
 2605TIP3    H1 7758   7.463   6.531   3.478
 2605TIP3    H2 7759   7.438   6.408   3.562
 2606TIP3   OH2 7760   3.115   4.570   0.090
 2606TIP3    H1 7761   3.098   4.634   0.022
 2606TIP3    H2 7762   3.049   4.501   0.076
 2607TIP3   OH2 7763   4.321   4.327   0.449
 2607TIP3    H1 7764   4.228   4.321   0.427
 2607TIP3    H2 7765   4.353   4.399   0.396
 2608TIP3   OH2 7766   5.089   4.652   1.269
 2608TIP3    H1 7767   5.124   4.602   1.342
 2608TIP3    H2 7768   5.136   4.736   1.272
 2609TIP3   OH2 7769   3.361   6.714   1.887
 2609TIP3    H1 7770   3.398   6.720   1.799
 2609TIP3    H2 7771   3.321   6.800   1.902
 2610TIP3   OH2 7772   5.566   5.837   2.655
 2610TIP3    H1 7773   5.626   5.888   2.601
 2610TIP3    H2 7774   5.622   5.777   2.704
 2611TIP3   OH2 7775   7.032   0.330   5.916
 2611TIP3    H1 7776   6.992   0.416   5.915
 2611TIP3    H2 7777   6.984   0.280   5.849
 2612TIP3   OH2 7778   0.976   3.400   5.891
 2612TIP3    H1 7779   0.888   3.409   5.928
 2612TIP3    H2 7780   1.016   3.486   5.903
 2613TIP3   OH2 7781   7.944   4.146   3.971
 2613TIP3    H1 7782   7.858   4.116   4.000
 2613TIP3    H2 7783   7.937   4.241   3.970
 2614TIP3   OH2 7784   3.386   1.520   1.037
 2614TIP3    H1 7785   3.408   1.586   0.971
 2614TIP3    H2 7786   3.320   1.464   0.994
 2615TIP3   OH2 7787   6.815   0.599   2.614
 2615TIP3    H1 7788   6.791   0.538   2.544
 2615TIP3    H2 7789   6.864   0.546   2.676
 2616TIP3   OH2 7790   8.173   2.969   4.091
 2616TIP3    H1 7791   8.192   2.972   4.185
 2616TIP3    H2 7792   8.152   3.059   4.067
 2617TIP3   OH2 7793   3.569   4.655   1.429
 2617TIP3    H1 7794   3.575   4.570   1.473
 2617TIP3    H2 7795   3.562   4.633   1.336
 2618TIP3   OH2 7796   1.315   5.110   6.297
 2618TIP3    H1 7797   1.293   5.188   6.349
 2618TIP3    H2 7798   1.409   5.119   6.281
 2619TIP3   OH2 7799   4.095   1.997   5.457
 2619TIP3    H1 7800   4.104   1.973   5.365
 2619TIP3    H2 7801   4.184   2.020   5.485
 2620TIP3   OH2 7802   0.098   2.982   5.901
 2620TIP3    H1 7803   0.182   2.994   5.856
 2620TIP3    H2 7804   0.038   2.951   5.833
 2621TIP3   OH2 7805   2.159   1.832   3.193
 2621TIP3    H1 7806   2.100   1.862   3.262
 2621TIP3    H2 7807   2.235   1.890   3.200
 2622TIP3   OH2 7808   7.070   5.501   4.851
 2622TIP3    H1 7809   7.014   5.561   4.900
 2622TIP3    H2 7810   7.032   5.415   4.866
 2623TIP3   OH2 7811   6.747   0.332   2.822
 2623TIP3    H1 7812   6.676   0.281   2.863
 2623TIP3    H2 7813   6.739   0.314   2.729
 2624TIP3   OH2 7814   4.177   3.795   0.194
 2624TIP3    H1 7815   4.202   3.702   0.194
 2624TIP3    H2 7816   4.246   3.838   0.143
 2625TIP3   OH2 7817   4.560   5.759   0.859
 2625TIP3    H1 7818   4.477   5.721   0.831
 2625TIP3    H2 7819   4.552   5.852   0.835
 2626TIP3   OH2 7820   5.921   4.044   4.189
 2626TIP3    H1 7821   5.923   4.058   4.284
 2626TIP3    H2 7822   5.889   3.955   4.178
 2627TIP3   OH2 7823   8.037   5.083   0.620
 2627TIP3    H1 7824   8.020   4.998   0.578
 2627TIP3    H2 7825   7.953   5.109   0.656
 2628TIP3   OH2 7826   3.957   2.153   2.270
 2628TIP3    H1 7827   3.945   2.171   2.363
 2628TIP3    H2 7828   4.050   2.164   2.255
 2629TIP3   OH2 7829   1.218   2.478   6.420
 2629TIP3    H1 7830   1.264   2.414   6.474
 2629TIP3    H2 7831   1.274   2.490   6.343
 2630TIP3   OH2 7832   0.055   1.741   3.332
 2630TIP3    H1 7833   0.065   1.701   3.418
 2630TIP3    H2 7834   0.145   1.756   3.301
 2631TIP3   OH2 7835   3.982   6.173   1.775
 2631TIP3    H1 7836   3.958   6.085   1.805
 2631TIP3    H2 7837   4.044   6.205   1.841
 2632TIP3   OH2 7838   2.910   6.647   3.852
 2632TIP3    H1 7839   2.867   6.645   3.766
 2632TIP3    H2 7840   2.957   6.730   3.853
 2633TIP3   OH2 7841   3.656   0.786   0.940
 2633TIP3    H1 7842   3.609   0.864   0.970
 2633TIP3    H2 7843   3.641   0.722   1.009
 2634TIP3   OH2 7844   7.068   0.791   5.553
 2634TIP3    H1 7845   7.067   0.698   5.574
 2634TIP3    H2 7846   7.063   0.835   5.639
 2635TIP3   OH2 7847   7.324   3.226   5.597
 2635TIP3    H1 7848   7.348   3.134   5.588
 2635TIP3    H2 7849   7.313   3.257   5.507
 2636TIP3   OH2 7850   2.590   6.853   4.420
 2636TIP3    H1 7851   2.609   6.918   4.487
 2636TIP3    H2 7852   2.659   6.864   4.355
 2637TIP3   OH2 7853   6.566   7.541   1.469
 2637TIP3    H1 7854   6.661   7.537   1.473
 2637TIP3    H2 7855   6.540   7.460   1.426
 2638TIP3   OH2 7856   4.493   1.651   1.059
 2638TIP3    H1 7857   4.445   1.584   1.011
 2638TIP3    H2 7858   4.504   1.615   1.147
 2639TIP3   OH2 7859   0.090   6.573   2.517
 2639TIP3    H1 7860   0.016   6.627   2.487
 2639TIP3    H2 7861   0.156   6.636   2.544
 2640TIP3   OH2 7862   2.656   2.675   1.296
 2640TIP3    H1 7863   2.662   2.633   1.210
 2640TIP3    H2 7864   2.700   2.759   1.285
 2641TIP3   OH2 7865   0.577   1.031   0.832
 2641TIP3    H1 7866   0.497   0.987   0.859
 2641TIP3    H2 7867   0.620   0.969   0.772
 2642TIP3   OH2 7868   6.466   3.263   1.053
 2642TIP3    H1 7869   6.412   3.294   0.981
 2642TIP3    H2 7870   6.556   3.275   1.023
 2643TIP3   OH2 7871   4.967   7.604   4.045
 2643TIP3    H1 7872   4.904   7.600   3.973
 2643TIP3    H2 7873   4.928   7.550   4.114
 2644TIP3   OH2 7874   7.882   0.339   2.707
 2644TIP3    H1 7875   7.788   0.336   2.724
 2644TIP3    H2 7876   7.918   0.387   2.782
 2645TIP3   OH2 7877   3.402   2.576   5.590
 2645TIP3    H1 7878   3.412   2.670   5.575
 2645TIP3    H2 7879   3.344   2.546   5.520
 2646TIP3   OH2 7880   0.077   7.475   4.434
 2646TIP3    H1 7881   0.150   7.458   4.494
 2646TIP3    H2 7882   0.057   7.390   4.396
 2647TIP3   OH2 7883   5.590   0.344   6.374
 2647TIP3    H1 7884   5.623   0.433   6.383
 2647TIP3    H2 7885   5.495   0.354   6.367
 2648TIP3   OH2 7886   0.620   2.302   5.296
 2648TIP3    H1 7887   0.665   2.218   5.292
 2648TIP3    H2 7888   0.645   2.339   5.381
 2649TIP3   OH2 7889   4.311   0.211   4.665
 2649TIP3    H1 7890   4.244   0.167   4.718
 2649TIP3    H2 7891   4.363   0.260   4.728
 2650TIP3   OH2 7892   7.530   6.805   0.680
 2650TIP3    H1 7893   7.504   6.828   0.591
 2650TIP3    H2 7894   7.450   6.773   0.721
 2651TIP3   OH2 7895   5.880   4.047   5.218
 2651TIP3    H1 7896   5.850   4.136   5.235
 2651TIP3    H2 7897   5.888   4.006   5.304
 2652TIP3   OH2 7898   3.123   1.079   5.647
 2652TIP3    H1 7899   3.136   1.108   5.556
 2652TIP3    H2 7900   3.055   1.137   5.681
 2653TIP3   OH2 7901   7.008   3.531   1.514
 2653TIP3    H1 7902   7.080   3.536   1.451
 2653TIP3    H2 7903   7.049   3.550   1.599
 2654TIP3   OH2 7904   8.044   0.004   5.882
 2654TIP3    H1 7905   7.983   0.075   5.863
 2654TIP3    H2 7906   8.099   0.037   5.953
 2655TIP3   OH2 7907   8.077   6.034   3.240
 2655TIP3    H1 7908   7.987   6.033   3.209
 2655TIP3    H2 7909   8.128   5.999   3.166
 2656TIP3   OH2 7910   4.486   6.648   3.259
 2656TIP3    H1 7911   4.555   6.714   3.245
 2656TIP3    H2 7912   4.449   6.671   3.344
 2657TIP3   OH2 7913   3.881   0.184   5.488
 2657TIP3    H1 7914   3.941   0.250   5.524
 2657TIP3    H2 7915   3.795   0.211   5.521
 2658TIP3   OH2 7916   6.808   2.527   0.249
 2658TIP3    H1 7917   6.822   2.620   0.230
 2658TIP3    H2 7918   6.858   2.481   0.181
 2659TIP3   OH2 7919   7.632   6.146   1.025
 2659TIP3    H1 7920   7.589   6.219   1.071
 2659TIP3    H2 7921   7.651   6.082   1.094
 2660TIP3   OH2 7922   4.999   0.813   6.252
 2660TIP3    H1 7923   4.957   0.870   6.315
 2660TIP3    H2 7924   4.966   0.725   6.272
 2661TIP3   OH2 7925   0.647   4.025   1.719
 2661TIP3    H1 7926   0.590   4.100   1.737
 2661TIP3    H2 7927   0.731   4.065   1.693
 2662TIP3   OH2 7928   2.990   3.548   6.561
 2662TIP3    H1 7929   2.919   3.609   6.580
 2662TIP3    H2 7930   3.062   3.575   6.619
 2663TIP3   OH2 7931   7.338   3.875   5.593
 2663TIP3    H1 7932   7.345   3.937   5.665
 2663TIP3    H2 7933   7.269   3.911   5.537
 2664TIP3   OH2 7934   0.455   0.851   3.298
 2664TIP3    H1 7935   0.426   0.885   3.383
 2664TIP3    H2 7936   0.497   0.768   3.319
 2665TIP3   OH2 7937   1.468   4.858   1.145
 2665TIP3    H1 7938   1.411   4.856   1.222
 2665TIP3    H2 7939   1.415   4.900   1.077
 2666TIP3   OH2 7940   7.658   1.696   2.616
 2666TIP3    H1 7941   7.650   1.603   2.596
 2666TIP3    H2 7942   7.574   1.734   2.589
 2667TIP3   OH2 7943   3.406   2.589   3.330
 2667TIP3    H1 7944   3.483   2.642   3.309
 2667TIP3    H2 7945   3.441   2.502   3.347
 2668TIP3   OH2 7946   7.471   0.719   0.832
 2668TIP3    H1 7947   7.549   0.714   0.887
 2668TIP3    H2 7948   7.408   0.769   0.884
 2669TIP3   OH2 7949   3.736   1.186   0.698
 2669TIP3    H1 7950   3.778   1.101   0.705
 2669TIP3    H2 7951   3.792   1.236   0.639
 2670TIP3   OH2 7952   1.596   4.343   1.245
 2670TIP3    H1 7953   1.595   4.265   1.190
 2670TIP3    H2 7954   1.688   4.368   1.250
 2671TIP3   OH2 7955   2.023   5.966   1.400
 2671TIP3    H1 7956   2.101   5.924   1.363
 2671TIP3    H2 7957   1.955   5.952   1.334
 2672TIP3   OH2 7958   3.316   5.245   3.857
 2672TIP3    H1 7959   3.387   5.250   3.921
 2672TIP3    H2 7960   3.273   5.162   3.877
 2673TIP3   OH2 7961   1.470   0.920   2.879
 2673TIP3    H1 7962   1.431   0.999   2.917
 2673TIP3    H2 7963   1.475   0.939   2.785
 2674TIP3   OH2 7964   2.664   3.342   2.498
 2674TIP3    H1 7965   2.708   3.426   2.485
 2674TIP3    H2 7966   2.732   3.285   2.536
 2675TIP3   OH2 7967   4.035   3.923   6.694
 2675TIP3    H1 7968   4.009   3.959   6.779
 2675TIP3    H2 7969   4.029   3.828   6.705
 2676TIP3   OH2 7970   6.787   1.505   5.514
 2676TIP3    H1 7971   6.848   1.512   5.440
 2676TIP3    H2 7972   6.771   1.411   5.523
 2677TIP3   OH2 7973   0.337   7.755   6.013
 2677TIP3    H1 7974   0.350   7.670   5.970
 2677TIP3    H2 7975   0.374   7.819   5.952
 2678TIP3   OH2 7976   4.608   0.702   2.360
 2678TIP3    H1 7977   4.587   0.784   2.316
 2678TIP3    H2 7978   4.685   0.669   2.314
 2679TIP3   OH2 7979   4.876   4.326   0.032
 2679TIP3    H1 7980   4.802   4.347  -0.024
 2679TIP3    H2 7981   4.911   4.410   0.059
 2680TIP3   OH2 7982   4.217   7.374   5.330
 2680TIP3    H1 7983   4.223   7.346   5.421
 2680TIP3    H2 7984   4.232   7.469   5.334
 2681TIP3   OH2 7985   2.634   0.441   5.193
 2681TIP3    H1 7986   2.607   0.412   5.279
 2681TIP3    H2 7987   2.568   0.506   5.167
 2682TIP3   OH2 7988   3.836   1.107   2.911
 2682TIP3    H1 7989   3.811   1.199   2.903
 2682TIP3    H2 7990   3.838   1.091   3.006
 2683TIP3   OH2 7991   1.024   6.207   3.535
 2683TIP3    H1 7992   1.094   6.262   3.500
 2683TIP3    H2 7993   1.060   6.118   3.535
 2684TIP3   OH2 7994   2.976   4.902   5.984
 2684TIP3    H1 7995   3.021   4.935   6.062
 2684TIP3    H2 7996   3.047   4.882   5.922
 2685TIP3   OH2 7997   6.227   3.611   1.973
 2685TIP3    H1 7998   6.209   3.678   2.039
 2685TIP3    H2 7999   6.153   3.616   1.913
 2686TIP3   OH2 8000   4.837   2.504   2.155
 2686TIP3    H1 8001   4.839   2.417   2.195
 2686TIP3    H2 8002   4.928   2.522   2.132
 2687TIP3   OH2 8003   1.919   7.135   5.984
 2687TIP3    H1 8004   1.931   7.141   6.079
 2687TIP3    H2 8005   1.857   7.063   5.973
 2688TIP3   OH2 8006   1.462   7.303   4.420
 2688TIP3    H1 8007   1.436   7.352   4.499
 2688TIP3    H2 8008   1.523   7.237   4.453
 2689TIP3   OH2 8009   2.089   2.141   1.853
 2689TIP3    H1 8010   2.092   2.054   1.894
 2689TIP3    H2 8011   2.112   2.201   1.924
 2690TIP3   OH2 8012   2.456   1.853   2.590
 2690TIP3    H1 8013   2.484   1.925   2.645
 2690TIP3    H2 8014   2.397   1.801   2.645
 2691TIP3   OH2 8015   6.892   4.539   2.149
 2691TIP3    H1 8016   6.976   4.516   2.110
 2691TIP3    H2 8017   6.834   4.556   2.075
 2692TIP3   OH2 8018   5.319   5.502   0.866
 2692TIP3    H1 8019   5.385   5.548   0.918
 2692TIP3    H2 8020   5.255   5.570   0.844
 2693TIP3   OH2 8021   2.269   7.144   0.898
 2693TIP3    H1 8022   2.230   7.076   0.953
 2693TIP3    H2 8023   2.200   7.210   0.889
 2694TIP3   OH2 8024   2.601   1.532   2.633
 2694TIP3    H1 8025   2.639   1.540   2.545
 2694TIP3    H2 8026   2.533   1.465   2.623
 2695TIP3   OH2 8027   1.310   5.486   1.996
 2695TIP3    H1 8028   1.376   5.453   2.057
 2695TIP3    H2 8029   1.296   5.577   2.023
 2696TIP3   OH2 8030   1.551   6.041   6.659
 2696TIP3    H1 8031   1.472   6.019   6.610
 2696TIP3    H2 8032   1.611   5.969   6.643
 2697TIP3   OH2 8033   7.212   5.658   4.046
 2697TIP3    H1 8034   7.276   5.716   4.004
 2697TIP3    H2 8035   7.256   5.627   4.125
 2698TIP3   OH2 8036   1.080   2.345   3.965
 2698TIP3    H1 8037   1.089   2.353   4.060
 2698TIP3    H2 8038   1.080   2.435   3.933
 2699TIP3   OH2 8039   0.271   3.856   0.640
 2699TIP3    H1 8040   0.331   3.787   0.611
 2699TIP3    H2 8041   0.223   3.818   0.714
 2700TIP3   OH2 8042   4.790   4.789   5.366
 2700TIP3    H1 8043   4.752   4.702   5.383
 2700TIP3    H2 8044   4.868   4.771   5.314
 2701TIP3   OH2 8045   5.171   1.820   1.816
 2701TIP3    H1 8046   5.175   1.725   1.826
 2701TIP3    H2 8047   5.105   1.849   1.878
 2702TIP3   OH2 8048   7.383   4.782   3.953
 2702TIP3    H1 8049   7.423   4.774   3.866
 2702TIP3    H2 8050   7.446   4.834   4.003
 2703TIP3   OH2 8051   5.004   1.326   0.677
 2703TIP3    H1 8052   5.044   1.263   0.737
 2703TIP3    H2 8053   5.071   1.342   0.611
 2704TIP3   OH2 8054   5.444   3.095   3.670
 2704TIP3    H1 8055   5.376   3.139   3.720
 2704TIP3    H2 8056   5.477   3.161   3.610
 2705TIP3   OH2 8057   1.077   2.334   6.006
 2705TIP3    H1 8058   1.009   2.309   5.943
 2705TIP3    H2 8059   1.088   2.428   5.994
 2706TIP3   OH2 8060   4.505   7.643   2.956
 2706TIP3    H1 8061   4.462   7.705   3.014
 2706TIP3    H2 8062   4.495   7.680   2.868
 2707TIP3   OH2 8063   7.691   6.094   0.506
 2707TIP3    H1 8064   7.709   6.173   0.455
 2707TIP3    H2 8065   7.652   6.126   0.588
 2708TIP3   OH2 8066   1.964   7.523   3.289
 2708TIP3    H1 8067   1.938   7.436   3.259
 2708TIP3    H2 8068   2.052   7.511   3.324
 2709TIP3   OH2 8069   6.096   4.077   5.767
 2709TIP3    H1 8070   6.150   4.094   5.691
 2709TIP3    H2 8071   6.014   4.123   5.749
 2710TIP3   OH2 8072   2.760   0.596   6.364
 2710TIP3    H1 8073   2.723   0.669   6.314
 2710TIP3    H2 8074   2.803   0.541   6.299
 2711TIP3   OH2 8075   6.312   0.324   0.415
 2711TIP3    H1 8076   6.292   0.351   0.504
 2711TIP3    H2 8077   6.273   0.237   0.406
 2712TIP3   OH2 8078   5.950   7.169   4.717
 2712TIP3    H1 8079   5.960   7.214   4.633
 2712TIP3    H2 8080   5.857   7.149   4.724
 2713TIP3   OH2 8081   4.772   1.761   3.036
 2713TIP3    H1 8082   4.690   1.714   3.019
 2713TIP3    H2 8083   4.769   1.781   3.129
 2714TIP3   OH2 8084   6.052   3.076   6.591
 2714TIP3    H1 8085   6.037   3.105   6.501
 2714TIP3    H2 8086   6.024   2.985   6.592
 2715TIP3   OH2 8087   5.391   5.353   3.007
 2715TIP3    H1 8088   5.349   5.320   3.086
 2715TIP3    H2 8089   5.338   5.318   2.935
 2716TIP3   OH2 8090   6.099   1.837   1.768
 2716TIP3    H1 8091   6.007   1.815   1.781
 2716TIP3    H2 8092   6.145   1.753   1.772
 2717TIP3   OH2 8093   3.665   3.928   1.103
 2717TIP3    H1 8094   3.589   3.953   1.156
 2717TIP3    H2 8095   3.627   3.892   1.023
 2718TIP3   OH2 8096   0.792   5.544   5.496
 2718TIP3    H1 8097   0.850   5.505   5.430
 2718TIP3    H2 8098   0.848   5.553   5.574
 2719TIP3   OH2 8099   5.446   5.775   6.459
 2719TIP3    H1 8100   5.492   5.702   6.500
 2719TIP3    H2 8101   5.375   5.734   6.410
 2720TIP3   OH2 8102   6.684   5.683   3.635
 2720TIP3    H1 8103   6.680   5.727   3.550
 2720TIP3    H2 8104   6.596   5.649   3.649
 2721TIP3   OH2 8105   8.119   0.966   0.726
 2721TIP3    H1 8106   8.140   0.950   0.634
 2721TIP3    H2 8107   8.136   1.060   0.738
 2722TIP3   OH2 8108   3.874   0.624   5.488
 2722TIP3    H1 8109   3.856   0.623   5.394
 2722TIP3    H2 8110   3.808   0.682   5.525
 2723TIP3   OH2 8111   6.647   2.044   6.325
 2723TIP3    H1 8112   6.625   2.136   6.335
 2723TIP3    H2 8113   6.637   2.007   6.413
 2724TIP3   OH2 8114   7.998   1.178   3.079
 2724TIP3    H1 8115   7.992   1.146   3.169
 2724TIP3    H2 8116   8.092   1.193   3.066
 2725TIP3   OH2 8117   3.099   6.571   0.657
 2725TIP3    H1 8118   3.014   6.566   0.613
 2725TIP3    H2 8119   3.125   6.663   0.651
 2726TIP3   OH2 8120   8.003   0.713   5.892
 2726TIP3    H1 8121   8.078   0.654   5.886
 2726TIP3    H2 8122   8.042   0.801   5.896
 2727TIP3   OH2 8123   5.870   0.173   5.656
 2727TIP3    H1 8124   5.961   0.181   5.684
 2727TIP3    H2 8125   5.868   0.090   5.607
 2728TIP3   OH2 8126   7.953   1.840   4.444
 2728TIP3    H1 8127   7.956   1.759   4.393
 2728TIP3    H2 8128   8.044   1.863   4.459
 2729TIP3   OH2 8129   6.707   4.532   3.332
 2729TIP3    H1 8130   6.671   4.559   3.416
 2729TIP3    H2 8131   6.785   4.586   3.320
 2730TIP3   OH2 8132   3.533   3.733   6.134
 2730TIP3    H1 8133   3.506   3.675   6.205
 2730TIP3    H2 8134   3.472   3.807   6.138
 2731TIP3   OH2 8135   5.655   6.801   3.734
 2731TIP3    H1 8136   5.576   6.847   3.705
 2731TIP3    H2 8137   5.697   6.862   3.796
 2732TIP3   OH2 8138   7.619   1.512   1.847
 2732TIP3    H1 8139   7.533   1.502   1.886
 2732TIP3    H2 8140   7.608   1.483   1.756
 2733TIP3   OH2 8141   2.943   2.656   2.956
 2733TIP3    H1 8142   2.869   2.712   2.981
 2733TIP3    H2 8143   3.005   2.664   3.029
 2734TIP3   OH2 8144   7.704   7.232   1.039
 2734TIP3    H1 8145   7.759   7.211   0.963
 2734TIP3    H2 8146   7.627   7.176   1.029
 2735TIP3   OH2 8147   4.734   2.119   6.520
 2735TIP3    H1 8148   4.686   2.199   6.497
 2735TIP3    H2 8149   4.706   2.055   6.455
 2736TIP3   OH2 8150   5.090   2.167   5.783
 2736TIP3    H1 8151   4.996   2.173   5.797
 2736TIP3    H2 8152   5.102   2.185   5.690
 2737TIP3   OH2 8153   7.602   1.849   4.174
 2737TIP3    H1 8154   7.637   1.906   4.242
 2737TIP3    H2 8155   7.679   1.822   4.124
 2738TIP3   OH2 8156   4.177   4.973   3.887
 2738TIP3    H1 8157   4.150   5.064   3.900
 2738TIP3    H2 8158   4.127   4.944   3.811
 2739TIP3   OH2 8159   2.336   5.003   4.937
 2739TIP3    H1 8160   2.306   5.051   4.860
 2739TIP3    H2 8161   2.257   4.990   4.990
 2740TIP3   OH2 8162   4.678   2.015   5.353
 2740TIP3    H1 8163   4.763   1.982   5.325
 2740TIP3    H2 8164   4.620   1.940   5.348
 2741TIP3   OH2 8165   8.052   5.643   2.429
 2741TIP3    H1 8166   8.053   5.549   2.410
 2741TIP3    H2 8167   8.034   5.648   2.523
 2742TIP3   OH2 8168   7.636   7.555   3.703
 2742TIP3    H1 8169   7.552   7.592   3.730
 2742TIP3    H2 8170   7.647   7.583   3.612
 2743TIP3   OH2 8171   8.198   4.512   4.149
 2743TIP3    H1 8172   8.137   4.444   4.178
 2743TIP3    H2 8173   8.216   4.564   4.228
 2744TIP3   OH2 8174   5.545   2.730   4.858
 2744TIP3    H1 8175   5.500   2.665   4.911
 2744TIP3    H2 8176   5.560   2.803   4.917
 2745TIP3   OH2 8177   4.342   6.686   2.505
 2745TIP3    H1 8178   4.330   6.776   2.537
 2745TIP3    H2 8179   4.436   6.679   2.489
 2746TIP3   OH2 8180   8.162   2.722   3.258
 2746TIP3    H1 8181   8.187   2.695   3.169
 2746TIP3    H2 8182   8.066   2.722   3.257
 2747TIP3   OH2 8183   6.326   5.426   1.236
 2747TIP3    H1 8184   6.251   5.375   1.266
 2747TIP3    H2 8185   6.310   5.514   1.269
 2748TIP3   OH2 8186   3.959   1.961   6.303
 2748TIP3    H1 8187   3.959   2.032   6.367
 2748TIP3    H2 8188   3.869   1.927   6.305
 2749TIP3   OH2 8189   2.618   3.631   3.141
 2749TIP3    H1 8190   2.677   3.597   3.074
 2749TIP3    H2 8191   2.645   3.722   3.154
 2750TIP3   OH2 8192   6.520   4.062   1.261
 2750TIP3    H1 8193   6.552   4.148   1.289
 2750TIP3    H2 8194   6.551   4.002   1.329
 2751TIP3   OH2 8195   7.083   0.518   2.296
 2751TIP3    H1 8196   6.997   0.509   2.338
 2751TIP3    H2 8197   7.066   0.506   2.203
 2752TIP3   OH2 8198   6.722   6.733   6.399
 2752TIP3    H1 8199   6.676   6.796   6.454
 2752TIP3    H2 8200   6.653   6.677   6.365
 2753TIP3   OH2 8201   4.347   7.150   4.688
 2753TIP3    H1 8202   4.333   7.241   4.659
 2753TIP3    H2 8203   4.261   7.109   4.681
 2754TIP3   OH2 8204   7.625   6.861   3.355
 2754TIP3    H1 8205   7.558   6.915   3.397
 2754TIP3    H2 8206   7.603   6.771   3.378
 2755TIP3   OH2 8207   5.471   1.433   6.583
 2755TIP3    H1 8208   5.562   1.463   6.583
 2755TIP3    H2 8209   5.420   1.511   6.603
 2756TIP3   OH2 8210   4.359   5.108   1.061
 2756TIP3    H1 8211   4.449   5.125   1.090
 2756TIP3    H2 8212   4.349   5.160   0.981
 2757TIP3   OH2 8213   6.897   0.559   4.028
 2757TIP3    H1 8214   6.948   0.587   3.952
 2757TIP3    H2 8215   6.810   0.540   3.994
 2758TIP3   OH2 8216   3.913   5.714   6.266
 2758TIP3    H1 8217   3.967   5.728   6.344
 2758TIP3    H2 8218   3.974   5.725   6.193
 2759TIP3   OH2 8219   0.433   2.601   2.804
 2759TIP3    H1 8220   0.400   2.538   2.868
 2759TIP3    H2 8221   0.462   2.676   2.857
 2760TIP3   OH2 8222   5.134   1.124   0.280
 2760TIP3    H1 8223   5.187   1.194   0.319
 2760TIP3    H2 8224   5.046   1.162   0.274
 2761TIP3   OH2 8225   6.631   4.630   3.576
 2761TIP3    H1 8226   6.538   4.633   3.598
 2761TIP3    H2 8227   6.657   4.722   3.571
 2762TIP3   OH2 8228   5.102   0.498   3.019
 2762TIP3    H1 8229   5.082   0.517   3.111
 2762TIP3    H2 8230   5.168   0.429   3.023
 2763TIP3   OH2 8231   0.044   0.032   3.122
 2763TIP3    H1 8232   0.094   0.110   3.098
 2763TIP3    H2 8233  -0.034   0.066   3.165
 2764TIP3   OH2 8234   1.334   5.464   3.795
 2764TIP3    H1 8235   1.387   5.544   3.794
 2764TIP3    H2 8236   1.330   5.439   3.887
 2765TIP3   OH2 8237   1.167   1.530   2.131
 2765TIP3    H1 8238   1.116   1.460   2.092
 2765TIP3    H2 8239   1.104   1.601   2.145
 2766TIP3   OH2 8240   6.243   5.516   6.183
 2766TIP3    H1 8241   6.223   5.569   6.106
 2766TIP3    H2 8242   6.171   5.452   6.187
 2767TIP3   OH2 8243   6.012   2.950   0.901
 2767TIP3    H1 8244   6.066   2.909   0.969
 2767TIP3    H2 8245   6.023   2.894   0.824
 2768TIP3   OH2 8246   4.762   7.420   1.714
 2768TIP3    H1 8247   4.856   7.402   1.711
 2768TIP3    H2 8248   4.739   7.414   1.807
 2769TIP3   OH2 8249   7.829   7.616   0.043
 2769TIP3    H1 8250   7.766   7.591   0.111
 2769TIP3    H2 8251   7.871   7.695   0.078
 2770TIP3   OH2 8252   1.698   5.457   5.709
 2770TIP3    H1 8253   1.726   5.486   5.795
 2770TIP3    H2 8254   1.755   5.383   5.689
 2771TIP3   OH2 8255   6.697   4.366   5.755
 2771TIP3    H1 8256   6.635   4.307   5.712
 2771TIP3    H2 8257   6.775   4.312   5.768
 2772TIP3   OH2 8258   1.972   4.434   5.086
 2772TIP3    H1 8259   1.962   4.342   5.063
 2772TIP3    H2 8260   2.064   4.453   5.068
 2773TIP3   OH2 8261   0.372   4.156   2.833
 2773TIP3    H1 8262   0.282   4.127   2.848
 2773TIP3    H2 8263   0.409   4.169   2.920
 2774TIP3   OH2 8264   6.769   4.715   5.455
 2774TIP3    H1 8265   6.725   4.788   5.410
 2774TIP3    H2 8266   6.862   4.728   5.437
 2775TIP3   OH2 8267   2.425   2.370   0.151
 2775TIP3    H1 8268   2.475   2.431   0.205
 2775TIP3    H2 8269   2.444   2.396   0.061
 2776TIP3   OH2 8270   1.710   7.546   5.954
 2776TIP3    H1 8271   1.715   7.450   5.951
 2776TIP3    H2 8272   1.774   7.576   5.890
 2777TIP3   OH2 8273   1.243   0.223   3.862
 2777TIP3    H1 8274   1.326   0.247   3.903
 2777TIP3    H2 8275   1.265   0.211   3.770
 2778TIP3   OH2 8276   6.455   2.917   2.608
 2778TIP3    H1 8277   6.407   2.993   2.641
 2778TIP3    H2 8278   6.507   2.952   2.536
 2779TIP3   OH2 8279   8.085   0.119   3.250
 2779TIP3    H1 8280   7.996   0.149   3.231
 2779TIP3    H2 8281   8.076   0.025   3.264
 2780TIP3   OH2 8282   4.983   3.527   0.474
 2780TIP3    H1 8283   4.963   3.621   0.471
 2780TIP3    H2 8284   5.063   3.522   0.526
 2781TIP3   OH2 8285   7.956   2.634   2.766
 2781TIP3    H1 8286   7.893   2.688   2.814
 2781TIP3    H2 8287   7.966   2.677   2.681
 2782TIP3   OH2 8288   0.316   7.101   4.419
 2782TIP3    H1 8289   0.390   7.086   4.477
 2782TIP3    H2 8290   0.304   7.018   4.372
 2783TIP3   OH2 8291   0.715   4.542   2.511
 2783TIP3    H1 8292   0.677   4.490   2.582
 2783TIP3    H2 8293   0.681   4.630   2.526
 2784TIP3   OH2 8294   6.192   4.749   0.171
 2784TIP3    H1 8295   6.181   4.727   0.263
 2784TIP3    H2 8296   6.233   4.835   0.171
 2785TIP3   OH2 8297   5.279   5.370   5.677
 2785TIP3    H1 8298   5.284   5.380   5.772
 2785TIP3    H2 8299   5.309   5.454   5.643
 2786TIP3   OH2 8300   0.610   2.002   6.222
 2786TIP3    H1 8301   0.619   2.006   6.126
 2786TIP3    H2 8302   0.687   2.048   6.255
 2787TIP3   OH2 8303   2.999   4.299   6.037
 2787TIP3    H1 8304   3.066   4.338   5.982
 2787TIP3    H2 8305   2.956   4.235   5.980
 2788TIP3   OH2 8306   7.819   1.826   5.210
 2788TIP3    H1 8307   7.811   1.855   5.120
 2788TIP3    H2 8308   7.799   1.903   5.263
 2789TIP3   OH2 8309   0.758   4.870   1.835
 2789TIP3    H1 8310   0.850   4.890   1.856
 2789TIP3    H2 8311   0.709   4.944   1.870
 2790TIP3   OH2 8312   0.240   3.685   1.622
 2790TIP3    H1 8313   0.170   3.750   1.614
 2790TIP3    H2 8314   0.217   3.617   1.560
 2791TIP3   OH2 8315   1.409   2.584   0.185
 2791TIP3    H1 8316   1.479   2.615   0.128
 2791TIP3    H2 8317   1.376   2.505   0.142
 2792TIP3   OH2 8318   5.397   4.219   1.383
 2792TIP3    H1 8319   5.346   4.201   1.304
 2792TIP3    H2 8320   5.339   4.270   1.439
 2793TIP3   OH2 8321   6.255   2.439   2.780
 2793TIP3    H1 8322   6.253   2.344   2.775
 2793TIP3    H2 8323   6.339   2.463   2.740
 2794TIP3   OH2 8324   6.087   1.383   1.034
 2794TIP3    H1 8325   6.148   1.443   1.077
 2794TIP3    H2 8326   6.083   1.413   0.943
 2795TIP3   OH2 8327   0.315   3.487   4.756
 2795TIP3    H1 8328   0.295   3.469   4.848
 2795TIP3    H2 8329   0.262   3.423   4.708
 2796TIP3   OH2 8330   5.294   1.529   2.160
 2796TIP3    H1 8331   5.261   1.501   2.075
 2796TIP3    H2 8332   5.287   1.451   2.215
 2797TIP3   OH2 8333   6.253   3.475   3.678
 2797TIP3    H1 8334   6.235   3.523   3.598
 2797TIP3    H2 8335   6.180   3.498   3.736
 2798TIP3   OH2 8336   6.588   7.322   5.405
 2798TIP3    H1 8337   6.571   7.236   5.444
 2798TIP3    H2 8338   6.511   7.340   5.352
 2799TIP3   OH2 8339   6.322   3.958   0.472
 2799TIP3    H1 8340   6.268   4.036   0.484
 2799TIP3    H2 8341   6.388   3.963   0.542
 2800TIP3   OH2 8342   5.379   4.981   2.656
 2800TIP3    H1 8343   5.460   4.976   2.605
 2800TIP3    H2 8344   5.395   4.927   2.733
 2801TIP3   OH2 8345   7.193   5.730   1.494
 2801TIP3    H1 8346   7.166   5.640   1.475
 2801TIP3    H2 8347   7.289   5.729   1.485
 2802TIP3   OH2 8348   6.208   0.517   2.106
 2802TIP3    H1 8349   6.274   0.484   2.167
 2802TIP3    H2 8350   6.153   0.441   2.086
 2803TIP3   OH2 8351   0.688   7.746   1.000
 2803TIP3    H1 8352   0.756   7.723   0.938
 2803TIP3    H2 8353   0.647   7.825   0.964
 2804TIP3   OH2 8354   4.735   5.401   1.061
 2804TIP3    H1 8355   4.729   5.399   1.157
 2804TIP3    H2 8356   4.649   5.431   1.032
 2805TIP3   OH2 8357   2.270   2.112   4.453
 2805TIP3    H1 8358   2.269   2.031   4.402
 2805TIP3    H2 8359   2.281   2.181   4.388
 2806TIP3   OH2 8360   6.382   5.547   0.427
 2806TIP3    H1 8361   6.381   5.623   0.368
 2806TIP3    H2 8362   6.423   5.478   0.377
 2807TIP3   OH2 8363   0.892   6.871   1.737
 2807TIP3    H1 8364   0.908   6.881   1.644
 2807TIP3    H2 8365   0.822   6.805   1.742
 2808TIP3   OH2 8366   0.370   7.484   4.950
 2808TIP3    H1 8367   0.357   7.399   4.909
 2808TIP3    H2 8368   0.383   7.544   4.876
 2809TIP3   OH2 8369   7.084   4.482   5.304
 2809TIP3    H1 8370   7.047   4.566   5.330
 2809TIP3    H2 8371   7.008   4.424   5.298
 2810TIP3   OH2 8372   4.749   3.380   2.629
 2810TIP3    H1 8373   4.684   3.310   2.620
 2810TIP3    H2 8374   4.748   3.423   2.543
 2811TIP3   OH2 8375   3.084   2.251   6.582
 2811TIP3    H1 8376   3.061   2.173   6.634
 2811TIP3    H2 8377   3.049   2.324   6.632
 2812TIP3   OH2 8378   1.952   3.152   1.172
 2812TIP3    H1 8379   1.981   3.061   1.161
 2812TIP3    H2 8380   1.900   3.150   1.252
 2813TIP3   OH2 8381   3.103   6.384   5.972
 2813TIP3    H1 8382   3.042   6.409   6.042
 2813TIP3    H2 8383   3.183   6.433   5.991
 2814TIP3   OH2 8384   5.611   6.783   2.127
 2814TIP3    H1 8385   5.520   6.808   2.115
 2814TIP3    H2 8386   5.661   6.860   2.098
 2815TIP3   OH2 8387   1.077   4.715   0.222
 2815TIP3    H1 8388   1.103   4.691   0.311
 2815TIP3    H2 8389   1.148   4.771   0.191
 2816TIP3   OH2 8390   3.749   4.195   4.588
 2816TIP3    H1 8391   3.757   4.285   4.619
 2816TIP3    H2 8392   3.809   4.144   4.642
 2817TIP3   OH2 8393   6.081   2.287   5.976
 2817TIP3    H1 8394   6.128   2.206   5.992
 2817TIP3    H2 8395   5.999   2.259   5.934
 2818TIP3   OH2 8396   0.519   5.847   6.280
 2818TIP3    H1 8397   0.493   5.787   6.209
 2818TIP3    H2 8398   0.560   5.920   6.234
 2819TIP3   OH2 8399   7.406   5.641   2.092
 2819TIP3    H1 8400   7.433   5.693   2.016
 2819TIP3    H2 8401   7.311   5.636   2.085
 2820TIP3   OH2 8402   7.105   2.374   2.758
 2820TIP3    H1 8403   7.107   2.451   2.815
 2820TIP3    H2 8404   7.186   2.379   2.708
 2821TIP3   OH2 8405   8.072   6.272   6.395
 2821TIP3    H1 8406   8.015   6.219   6.339
 2821TIP3    H2 8407   8.021   6.287   6.474
 2822TIP3   OH2 8408   1.752   5.419   2.388
 2822TIP3    H1 8409   1.762   5.486   2.321
 2822TIP3    H2 8410   1.714   5.465   2.463
 2823TIP3   OH2 8411   4.917   3.798   4.329
 2823TIP3    H1 8412   4.860   3.759   4.262
 2823TIP3    H2 8413   4.880   3.768   4.412
 2824TIP3   OH2 8414   6.336   4.597   5.191
 2824TIP3    H1 8415   6.429   4.612   5.176
 2824TIP3    H2 8416   6.297   4.685   5.190
 2825TIP3   OH2 8417   1.757   6.450   0.894
 2825TIP3    H1 8418   1.850   6.454   0.870
 2825TIP3    H2 8419   1.730   6.361   0.869
 2826TIP3   OH2 8420   5.731   6.455   0.421
 2826TIP3    H1 8421   5.788   6.532   0.411
 2826TIP3    H2 8422   5.662   6.484   0.480
 2827TIP3   OH2 8423   6.673   5.580   2.255
 2827TIP3    H1 8424   6.717   5.518   2.313
 2827TIP3    H2 8425   6.658   5.658   2.310
 2828TIP3   OH2 8426   1.573   6.324   6.008
 2828TIP3    H1 8427   1.599   6.410   6.041
 2828TIP3    H2 8428   1.520   6.343   5.931
 2829TIP3   OH2 8429   6.527   4.314   5.977
 2829TIP3    H1 8430   6.586   4.364   5.921
 2829TIP3    H2 8431   6.444   4.362   5.974
 2830TIP3   OH2 8432   7.081   0.209   6.263
 2830TIP3    H1 8433   6.997   0.163   6.270
 2830TIP3    H2 8434   7.107   0.197   6.172
 2831TIP3   OH2 8435   5.064   3.539   0.776
 2831TIP3    H1 8436   5.140   3.583   0.813
 2831TIP3    H2 8437   4.997   3.607   0.772
 2832TIP3   OH2 8438   3.174   5.577   3.083
 2832TIP3    H1 8439   3.152   5.554   2.992
 2832TIP3    H2 8440   3.090   5.596   3.124
 2833TIP3   OH2 8441   7.837   3.883   6.047
 2833TIP3    H1 8442   7.891   3.900   5.970
 2833TIP3    H2 8443   7.749   3.910   6.021
 2834TIP3   OH2 8444   0.472   6.891   0.899
 2834TIP3    H1 8445   0.430   6.829   0.839
 2834TIP3    H2 8446   0.497   6.838   0.975
 2835TIP3   OH2 8447   5.121   1.610   4.399
 2835TIP3    H1 8448   5.052   1.622   4.464
 2835TIP3    H2 8449   5.202   1.628   4.446
 2836TIP3   OH2 8450   1.381   3.472   2.194
 2836TIP3    H1 8451   1.422   3.529   2.260
 2836TIP3    H2 8452   1.373   3.387   2.238
 2837TIP3   OH2 8453   5.055   5.311   6.515
 2837TIP3    H1 8454   5.025   5.400   6.495
 2837TIP3    H2 8455   4.990   5.254   6.473
 2838TIP3   OH2 8456   7.883   5.741   4.938
 2838TIP3    H1 8457   7.887   5.833   4.912
 2838TIP3    H2 8458   7.946   5.697   4.881
 2839TIP3   OH2 8459   7.487   6.160   3.069
 2839TIP3    H1 8460   7.565   6.193   3.114
 2839TIP3    H2 8461   7.414   6.196   3.119
 2840TIP3   OH2 8462   4.602   1.873   3.604
 2840TIP3    H1 8463   4.648   1.933   3.546
 2840TIP3    H2 8464   4.622   1.904   3.692
 2841TIP3   OH2 8465   2.823   5.223   6.096
 2841TIP3    H1 8466   2.784   5.198   6.013
 2841TIP3    H2 8467   2.817   5.144   6.150
 2842TIP3   OH2 8468   0.829   7.008   4.996
 2842TIP3    H1 8469   0.758   7.070   4.982
 2842TIP3    H2 8470   0.883   7.015   4.917
 2843TIP3   OH2 8471   5.735   2.616   4.056
 2843TIP3    H1 8472   5.800   2.548   4.039
 2843TIP3    H2 8473   5.697   2.635   3.971
 2844TIP3   OH2 8474   3.795   3.489   6.620
 2844TIP3    H1 8475   3.857   3.482   6.694
 2844TIP3    H2 8476   3.772   3.398   6.601
 2845TIP3   OH2 8477   5.679   4.960   5.653
 2845TIP3    H1 8478   5.663   5.052   5.636
 2845TIP3    H2 8479   5.774   4.950   5.649
 2846TIP3   OH2 8480   0.054   5.089   4.997
 2846TIP3    H1 8481  -0.020   5.076   4.938
 2846TIP3    H2 8482   0.017   5.083   5.085
 2847TIP3   OH2 8483   6.190   1.537   1.362
 2847TIP3    H1 8484   6.221   1.599   1.296
 2847TIP3    H2 8485   6.094   1.543   1.358
 2848TIP3   OH2 8486   0.583   5.529   6.297
 2848TIP3    H1 8487   0.584   5.543   6.392
 2848TIP3    H2 8488   0.648   5.460   6.282
 2849TIP3   OH2 8489   4.548   4.857   1.012
 2849TIP3    H1 8490   4.457   4.876   1.033
 2849TIP3    H2 8491   4.589   4.841   1.097
 2850TIP3   OH2 8492   7.368   3.150   2.986
 2850TIP3    H1 8493   7.314   3.177   2.911
 2850TIP3    H2 8494   7.324   3.189   3.062
 2851TIP3   OH2 8495   5.623   0.626   6.354
 2851TIP3    H1 8496   5.607   0.592   6.265
 2851TIP3    H2 8497   5.541   0.668   6.379
 2852TIP3   OH2 8498   7.905   4.994   0.121
 2852TIP3    H1 8499   7.960   5.021   0.048
 2852TIP3    H2 8500   7.891   4.900   0.107
 2853TIP3   OH2 8501   6.263   4.666   4.714
 2853TIP3    H1 8502   6.330   4.598   4.723
 2853TIP3    H2 8503   6.238   4.663   4.621
 2854TIP3   OH2 8504   4.823   1.962   5.649
 2854TIP3    H1 8505   4.772   1.887   5.616
 2854TIP3    H2 8506   4.914   1.931   5.648
 2855TIP3   OH2 8507   5.302   2.270   6.638
 2855TIP3    H1 8508   5.263   2.354   6.660
 2855TIP3    H2 8509   5.228   2.216   6.610
 2856TIP3   OH2 8510   0.853   0.173   1.095
 2856TIP3    H1 8511   0.897   0.256   1.116
 2856TIP3    H2 8512   0.867   0.118   1.172
 2857TIP3   OH2 8513   1.616   6.270   0.008
 2857TIP3    H1 8514   1.563   6.214   0.063
 2857TIP3    H2 8515   1.681   6.212  -0.031
 2858TIP3   OH2 8516   3.987   0.548   1.865
 2858TIP3    H1 8517   3.952   0.635   1.880
 2858TIP3    H2 8518   4.073   0.563   1.826
 2859TIP3   OH2 8519   3.782   1.791   4.429
 2859TIP3    H1 8520   3.771   1.875   4.385
 2859TIP3    H2 8521   3.835   1.739   4.369
 2860TIP3   OH2 8522   5.129   2.456   1.898
 2860TIP3    H1 8523   5.200   2.493   1.846
 2860TIP3    H2 8524   5.161   2.369   1.923
 2861TIP3   OH2 8525   6.454   5.117   0.567
 2861TIP3    H1 8526   6.378   5.071   0.531
 2861TIP3    H2 8527   6.492   5.056   0.629
 2862TIP3   OH2 8528   0.990   6.992   1.488
 2862TIP3    H1 8529   1.068   6.943   1.462
 2862TIP3    H2 8530   0.963   7.039   1.409
 2863TIP3   OH2 8531   6.545   6.775   2.909
 2863TIP3    H1 8532   6.498   6.837   2.964
 2863TIP3    H2 8533   6.548   6.695   2.960
 2864TIP3   OH2 8534   0.115   3.966   5.573
 2864TIP3    H1 8535   0.200   3.934   5.543
 2864TIP3    H2 8536   0.065   3.980   5.492
 2865TIP3   OH2 8537   2.655   6.308   0.105
 2865TIP3    H1 8538   2.585   6.362   0.067
 2865TIP3    H2 8539   2.628   6.295   0.196
 2866TIP3   OH2 8540   2.633   1.002   4.515
 2866TIP3    H1 8541   2.679   1.079   4.550
 2866TIP3    H2 8542   2.555   0.994   4.570
 2867TIP3   OH2 8543   0.509   4.221   4.746
 2867TIP3    H1 8544   0.555   4.138   4.736
 2867TIP3    H2 8545   0.490   4.249   4.656
 2868TIP3   OH2 8546   6.968   0.417   0.654
 2868TIP3    H1 8547   6.942   0.467   0.576
 2868TIP3    H2 8548   6.970   0.482   0.724
 2869TIP3   OH2 8549   6.039   4.264   6.240
 2869TIP3    H1 8550   6.030   4.242   6.332
 2869TIP3    H2 8551   6.096   4.195   6.204
 2870TIP3   OH2 8552   8.023   4.324   3.111
 2870TIP3    H1 8553   8.083   4.265   3.065
 2870TIP3    H2 8554   7.980   4.373   3.041
 2871TIP3   OH2 8555   1.494   1.154   5.803
 2871TIP3    H1 8556   1.406   1.121   5.820
 2871TIP3    H2 8557   1.548   1.117   5.872
 2872TIP3   OH2 8558   2.852   6.179   2.066
 2872TIP3    H1 8559   2.896   6.162   1.983
 2872TIP3    H2 8560   2.916   6.229   2.116
 2873TIP3   OH2 8561   1.612   4.084   3.097
 2873TIP3    H1 8562   1.569   4.169   3.106
 2873TIP3    H2 8563   1.540   4.020   3.102
 2874TIP3   OH2 8564   6.520   1.163   2.158
 2874TIP3    H1 8565   6.464   1.162   2.080
 2874TIP3    H2 8566   6.469   1.120   2.226
 2875TIP3   OH2 8567   6.122   2.911   3.628
 2875TIP3    H1 8568   6.189   2.972   3.597
 2875TIP3    H2 8569   6.045   2.931   3.574
 2876TIP3   OH2 8570   7.617   5.723   3.315
 2876TIP3    H1 8571   7.561   5.712   3.238
 2876TIP3    H2 8572   7.692   5.667   3.298
 2877TIP3   OH2 8573   1.037   7.023   4.806
 2877TIP3    H1 8574   1.128   6.995   4.799
 2877TIP3    H2 8575   1.002   7.016   4.717
 2878TIP3   OH2 8576   7.466   6.426   0.733
 2878TIP3    H1 8577   7.403   6.422   0.804
 2878TIP3    H2 8578   7.489   6.334   0.716
 2879TIP3   OH2 8579   0.495   3.896   1.231
 2879TIP3    H1 8580   0.444   3.873   1.153
 2879TIP3    H2 8581   0.455   3.977   1.263
 2880TIP3   OH2 8582   0.044   1.301   1.543
 2880TIP3    H1 8583   0.104   1.353   1.597
 2880TIP3    H2 8584  -0.013   1.258   1.605
 2881TIP3   OH2 8585   4.656   0.883   3.230
 2881TIP3    H1 8586   4.659   0.893   3.326
 2881TIP3    H2 8587   4.740   0.843   3.208
 2882TIP3   OH2 8588   3.124   4.924   0.869
 2882TIP3    H1 8589   3.073   4.970   0.935
 2882TIP3    H2 8590   3.168   4.854   0.917
 2883TIP3   OH2 8591   4.164   2.166   5.741
 2883TIP3    H1 8592   4.221   2.106   5.789
 2883TIP3    H2 8593   4.085   2.116   5.724
 2884TIP3   OH2 8594   4.456   3.662   1.097
 2884TIP3    H1 8595   4.518   3.633   1.030
 2884TIP3    H2 8596   4.510   3.711   1.159
 2885TIP3   OH2 8597   4.302   6.776   1.353
 2885TIP3    H1 8598   4.374   6.756   1.412
 2885TIP3    H2 8599   4.253   6.846   1.397
 2886TIP3   OH2 8600   1.277   7.640   4.795
 2886TIP3    H1 8601   1.222   7.706   4.753
 2886TIP3    H2 8602   1.347   7.623   4.731
 2887TIP3   OH2 8603   1.159   4.214   1.792
 2887TIP3    H1 8604   1.170   4.161   1.871
 2887TIP3    H2 8605   1.165   4.304   1.822
 2888TIP3   OH2 8606   2.431   6.447   0.039
 2888TIP3    H1 8607   2.388   6.532   0.032
 2888TIP3    H2 8608   2.403   6.413   0.124
 2889TIP3   OH2 8609   3.018   2.036   1.135
 2889TIP3    H1 8610   2.996   2.092   1.061
 2889TIP3    H2 8611   2.937   2.031   1.186
 2890TIP3   OH2 8612   2.339   7.653   1.166
 2890TIP3    H1 8613   2.372   7.741   1.184
 2890TIP3    H2 8614   2.349   7.642   1.072
 2891TIP3   OH2 8615   2.512   6.038   6.102
 2891TIP3    H1 8616   2.557   6.022   6.019
 2891TIP3    H2 8617   2.576   6.084   6.156
 2892TIP3   OH2 8618   1.854   7.489   3.776
 2892TIP3    H1 8619   1.814   7.503   3.690
 2892TIP3    H2 8620   1.815   7.558   3.831
 2893TIP3   OH2 8621   3.924   4.351   5.940
 2893TIP3    H1 8622   3.953   4.443   5.941
 2893TIP3    H2 8623   3.847   4.351   5.883
 2894TIP3   OH2 8624   3.382   6.431   2.056
 2894TIP3    H1 8625   3.389   6.482   1.975
 2894TIP3    H2 8626   3.397   6.340   2.028
 2895TIP3   OH2 8627   6.747   1.092   2.271
 2895TIP3    H1 8628   6.784   1.045   2.196
 2895TIP3    H2 8629   6.680   1.149   2.233
 2896TIP3   OH2 8630   8.075   3.057   5.202
 2896TIP3    H1 8631   8.051   3.123   5.267
 2896TIP3    H2 8632   7.992   3.032   5.162
 2897TIP3   OH2 8633   2.551   5.433   2.605
 2897TIP3    H1 8634   2.623   5.490   2.578
 2897TIP3    H2 8635   2.482   5.449   2.542
 2898TIP3   OH2 8636   7.112   6.722   4.456
 2898TIP3    H1 8637   7.070   6.796   4.500
 2898TIP3    H2 8638   7.118   6.749   4.365
 2899TIP3   OH2 8639   1.547   2.023   3.423
 2899TIP3    H1 8640   1.497   1.955   3.378
 2899TIP3    H2 8641   1.616   1.976   3.470
 2900TIP3   OH2 8642   1.461   7.029   5.879
 2900TIP3    H1 8643   1.438   6.987   5.962
 2900TIP3    H2 8644   1.402   7.103   5.872
 2901TIP3   OH2 8645   6.798   1.095   3.301
 2901TIP3    H1 8646   6.728   1.046   3.343
 2901TIP3    H2 8647   6.774   1.097   3.208
 2902TIP3   OH2 8648   4.803   3.554   2.423
 2902TIP3    H1 8649   4.881   3.609   2.416
 2902TIP3    H2 8650   4.747   3.582   2.351
 2903TIP3   OH2 8651   3.960   5.090   2.953
 2903TIP3    H1 8652   3.869   5.107   2.980
 2903TIP3    H2 8653   3.955   5.075   2.859
 2904TIP3   OH2 8654   7.029   6.392   0.119
 2904TIP3    H1 8655   7.105   6.356   0.072
 2904TIP3    H2 8656   7.048   6.376   0.211
 2905TIP3   OH2 8657   0.120   6.447   0.646
 2905TIP3    H1 8658   0.084   6.362   0.621
 2905TIP3    H2 8659   0.043   6.504   0.653
 2906TIP3   OH2 8660   2.468   5.660   3.204
 2906TIP3    H1 8661   2.400   5.721   3.176
 2906TIP3    H2 8662   2.518   5.641   3.125
 2907TIP3   OH2 8663   7.188   6.367   4.709
 2907TIP3    H1 8664   7.152   6.344   4.795
 2907TIP3    H2 8665   7.276   6.398   4.727
 2908TIP3   OH2 8666   2.619   4.590   4.517
 2908TIP3    H1 8667   2.648   4.505   4.550
 2908TIP3    H2 8668   2.700   4.639   4.502
 2909TIP3   OH2 8669   7.729   6.370   3.895
 2909TIP3    H1 8670   7.705   6.355   3.804
 2909TIP3    H2 8671   7.720   6.464   3.907
 2910TIP3   OH2 8672   7.988   7.571   3.527
 2910TIP3    H1 8673   8.034   7.535   3.451
 2910TIP3    H2 8674   7.918   7.509   3.545
 2911TIP3   OH2 8675   1.665   6.915   2.704
 2911TIP3    H1 8676   1.732   6.966   2.658
 2911TIP3    H2 8677   1.613   6.875   2.635
 2912TIP3   OH2 8678   6.781   1.982   6.056
 2912TIP3    H1 8679   6.771   1.985   6.151
 2912TIP3    H2 8680   6.874   1.998   6.041
 2913TIP3   OH2 8681   5.879   6.681   2.449
 2913TIP3    H1 8682   5.940   6.644   2.512
 2913TIP3    H2 8683   5.893   6.630   2.369
 2914TIP3   OH2 8684   3.487   4.004   3.852
 2914TIP3    H1 8685   3.477   4.094   3.822
 2914TIP3    H2 8686   3.575   3.979   3.824
 2915TIP3   OH2 8687   6.882   2.677   6.429
 2915TIP3    H1 8688   6.952   2.630   6.475
 2915TIP3    H2 8689   6.804   2.663   6.482
 2916TIP3   OH2 8690   4.963   7.233   0.742
 2916TIP3    H1 8691   4.905   7.182   0.686
 2916TIP3    H2 8692   5.049   7.226   0.701
 2917TIP3   OH2 8693   2.469   4.523   3.220
 2917TIP3    H1 8694   2.551   4.572   3.222
 2917TIP3    H2 8695   2.496   4.431   3.216
 2918TIP3   OH2 8696   8.157   6.891   2.253
 2918TIP3    H1 8697   8.075   6.935   2.231
 2918TIP3    H2 8698   8.172   6.831   2.180
 2919TIP3   OH2 8699   2.990   6.612   4.452
 2919TIP3    H1 8700   3.030   6.615   4.539
 2919TIP3    H2 8701   3.029   6.686   4.406
 2920TIP3   OH2 8702   7.544   2.572   2.113
 2920TIP3    H1 8703   7.517   2.480   2.118
 2920TIP3    H2 8704   7.606   2.575   2.041
 2921TIP3   OH2 8705   7.513   0.541   4.586
 2921TIP3    H1 8706   7.523   0.550   4.681
 2921TIP3    H2 8707   7.481   0.451   4.574
 2922TIP3   OH2 8708   2.117   0.487   1.994
 2922TIP3    H1 8709   2.168   0.567   2.010
 2922TIP3    H2 8710   2.054   0.485   2.066
 2923TIP3   OH2 8711   2.566   7.474   0.933
 2923TIP3    H1 8712   2.547   7.427   1.014
 2923TIP3    H2 8713   2.621   7.414   0.883
 2924TIP3   OH2 8714   5.415   3.776   6.623
 2924TIP3    H1 8715   5.356   3.819   6.562
 2924TIP3    H2 8716   5.443   3.846   6.682
 2925TIP3   OH2 8717   6.834   7.114   1.959
 2925TIP3    H1 8718   6.843   7.073   2.045
 2925TIP3    H2 8719   6.803   7.202   1.978
 2926TIP3   OH2 8720   2.691   1.968   0.027
 2926TIP3    H1 8721   2.715   1.877   0.044
 2926TIP3    H2 8722   2.636   1.992   0.102
 2927TIP3   OH2 8723   4.172   2.910   6.175
 2927TIP3    H1 8724   4.245   2.956   6.132
 2927TIP3    H2 8725   4.214   2.860   6.245
 2928TIP3   OH2 8726   5.670   6.792   2.895
 2928TIP3    H1 8727   5.668   6.723   2.828
 2928TIP3    H2 8728   5.760   6.824   2.895
 2929TIP3   OH2 8729   6.300   1.170   2.965
 2929TIP3    H1 8730   6.257   1.249   2.998
 2929TIP3    H2 8731   6.266   1.099   3.020
 2930TIP3   OH2 8732   7.960   1.898   1.326
 2930TIP3    H1 8733   7.963   1.979   1.376
 2930TIP3    H2 8734   8.024   1.841   1.369
 2931TIP3   OH2 8735   3.475   7.174   3.125
 2931TIP3    H1 8736   3.547   7.163   3.063
 2931TIP3    H2 8737   3.396   7.176   3.071
 2932TIP3   OH2 8738   4.802   3.754   4.091
 2932TIP3    H1 8739   4.826   3.788   4.005
 2932TIP3    H2 8740   4.723   3.702   4.074
 2933TIP3   OH2 8741   8.069   2.399   2.748
 2933TIP3    H1 8742   8.163   2.405   2.765
 2933TIP3    H2 8743   8.039   2.490   2.747
 2934TIP3   OH2 8744   2.865   4.608   1.512
 2934TIP3    H1 8745   2.862   4.512   1.511
 2934TIP3    H2 8746   2.774   4.635   1.508
 2935TIP3   OH2 8747   3.719   4.593   1.842
 2935TIP3    H1 8748   3.797   4.554   1.805
 2935TIP3    H2 8749   3.709   4.550   1.927
 2936TIP3   OH2 8750   1.703   4.934   1.317
 2936TIP3    H1 8751   1.775   4.907   1.260
 2936TIP3    H2 8752   1.626   4.928   1.261
 2937TIP3   OH2 8753   3.185   6.614   2.601
 2937TIP3    H1 8754   3.153   6.622   2.512
 2937TIP3    H2 8755   3.263   6.559   2.594
 2938TIP3   OH2 8756   7.587   0.782   3.521
 2938TIP3    H1 8757   7.557   0.738   3.441
 2938TIP3    H2 8758   7.513   0.777   3.581
 2939TIP3   OH2 8759   8.198   1.912   0.048
 2939TIP3    H1 8760   8.287   1.921   0.081
 2939TIP3    H2 8761   8.155   1.995   0.070
 2940TIP3   OH2 8762   5.793   3.800   3.484
 2940TIP3    H1 8763   5.758   3.748   3.411
 2940TIP3    H2 8764   5.750   3.764   3.561
 2941TIP3   OH2 8765   7.322   1.161   3.679
 2941TIP3    H1 8766   7.286   1.148   3.767
 2941TIP3    H2 8767   7.398   1.218   3.693
 2942TIP3   OH2 8768   3.418   6.906   1.387
 2942TIP3    H1 8769   3.512   6.916   1.372
 2942TIP3    H2 8770   3.386   6.856   1.312
 2943TIP3   OH2 8771   6.109   1.613   6.631
 2943TIP3    H1 8772   6.100   1.672   6.706
 2943TIP3    H2 8773   6.181   1.650   6.580
 2944TIP3   OH2 8774   7.956   7.204   2.799
 2944TIP3    H1 8775   7.928   7.187   2.889
 2944TIP3    H2 8776   7.967   7.118   2.760
 2945TIP3   OH2 8777   2.821   6.637   1.662
 2945TIP3    H1 8778   2.758   6.590   1.716
 2945TIP3    H2 8779   2.782   6.723   1.647
 2946TIP3   OH2 8780   2.673   6.835   3.987
 2946TIP3    H1 8781   2.691   6.906   4.050
 2946TIP3    H2 8782   2.758   6.792   3.976
 2947TIP3   OH2 8783   4.787   3.149   2.946
 2947TIP3    H1 8784   4.696   3.122   2.943
 2947TIP3    H2 8785   4.800   3.179   3.036
 2948TIP3   OH2 8786   4.885   3.486   6.197
 2948TIP3    H1 8787   4.896   3.561   6.139
 2948TIP3    H2 8788   4.973   3.470   6.233
 2949TIP3   OH2 8789   0.956   1.902   1.358
 2949TIP3    H1 8790   0.891   1.931   1.422
 2949TIP3    H2 8791   0.922   1.929   1.273
 2950TIP3   OH2 8792   7.380   5.584   4.286
 2950TIP3    H1 8793   7.470   5.587   4.317
 2950TIP3    H2 8794   7.327   5.577   4.366
 2951TIP3   OH2 8795   6.748   7.678   6.162
 2951TIP3    H1 8796   6.781   7.617   6.096
 2951TIP3    H2 8797   6.766   7.765   6.125
 2952TIP3   OH2 8798   1.359   3.906   6.523
 2952TIP3    H1 8799   1.289   3.965   6.496
 2952TIP3    H2 8800   1.317   3.844   6.583
 2953TIP3   OH2 8801   3.875   5.839   4.576
 2953TIP3    H1 8802   3.892   5.823   4.483
 2953TIP3    H2 8803   3.956   5.876   4.609
 2954TIP3   OH2 8804   5.294   6.118   2.557
 2954TIP3    H1 8805   5.225   6.056   2.581
 2954TIP3    H2 8806   5.305   6.173   2.634
 2955TIP3   OH2 8807   0.228   3.817   5.934
 2955TIP3    H1 8808   0.212   3.911   5.942
 2955TIP3    H2 8809   0.229   3.784   6.023
 2956TIP3   OH2 8810   4.336   6.149   3.659
 2956TIP3    H1 8811   4.351   6.058   3.633
 2956TIP3    H2 8812   4.246   6.166   3.632
 2957TIP3   OH2 8813   5.301   2.886   5.059
 2957TIP3    H1 8814   5.256   2.847   4.984
 2957TIP3    H2 8815   5.381   2.924   5.021
 2958TIP3   OH2 8816   3.782   5.557   4.923
 2958TIP3    H1 8817   3.846   5.533   4.856
 2958TIP3    H2 8818   3.754   5.645   4.899
 2959TIP3   OH2 8819   7.549   0.165   1.366
 2959TIP3    H1 8820   7.640   0.162   1.335
 2959TIP3    H2 8821   7.552   0.222   1.442
 2960TIP3   OH2 8822   0.251   7.748   6.503
 2960TIP3    H1 8823   0.249   7.840   6.476
 2960TIP3    H2 8824   0.266   7.700   6.422
 2961TIP3   OH2 8825   2.578   0.625   3.608
 2961TIP3    H1 8826   2.527   0.614   3.528
 2961TIP3    H2 8827   2.574   0.540   3.651
 2962TIP3   OH2 8828   0.974   5.274   4.503
 2962TIP3    H1 8829   0.884   5.303   4.517
 2962TIP3    H2 8830   1.020   5.301   4.583
 2963TIP3   OH2 8831   6.623   1.114   6.698
 2963TIP3    H1 8832   6.622   1.172   6.774
 2963TIP3    H2 8833   6.534   1.080   6.693
 2964TIP3   OH2 8834   6.754   4.922   4.450
 2964TIP3    H1 8835   6.766   5.007   4.407
 2964TIP3    H2 8836   6.842   4.896   4.477
 2965TIP3   OH2 8837   2.986   3.963   2.587
 2965TIP3    H1 8838   2.911   3.967   2.646
 2965TIP3    H2 8839   3.044   3.898   2.627
 2966TIP3   OH2 8840   3.899   3.961   2.669
 2966TIP3    H1 8841   3.930   3.893   2.729
 2966TIP3    H2 8842   3.887   3.915   2.586
 2967TIP3   OH2 8843   4.895   0.415   3.467
 2967TIP3    H1 8844   4.865   0.359   3.538
 2967TIP3    H2 8845   4.966   0.366   3.425
 2968TIP3   OH2 8846   0.924   4.941   5.768
 2968TIP3    H1 8847   0.950   4.920   5.858
 2968TIP3    H2 8848   0.953   5.031   5.755
 2969TIP3   OH2 8849   6.411   5.672   1.805
 2969TIP3    H1 8850   6.488   5.648   1.753
 2969TIP3    H2 8851   6.427   5.633   1.891
 2970TIP3   OH2 8852   4.710   0.696   4.163
 2970TIP3    H1 8853   4.722   0.708   4.257
 2970TIP3    H2 8854   4.616   0.709   4.149
 2971TIP3   OH2 8855   0.703   7.387   5.394
 2971TIP3    H1 8856   0.740   7.423   5.313
 2971TIP3    H2 8857   0.610   7.377   5.376
 2972TIP3   OH2 8858   0.900   1.511   4.475
 2972TIP3    H1 8859   0.848   1.568   4.533
 2972TIP3    H2 8860   0.838   1.480   4.409
 2973TIP3   OH2 8861   8.179   7.131   2.425
 2973TIP3    H1 8862   8.166   7.081   2.345
 2973TIP3    H2 8863   8.228   7.209   2.397
 2974TIP3   OH2 8864   4.494   7.188   0.237
 2974TIP3    H1 8865   4.583   7.151   0.241
 2974TIP3    H2 8866   4.508   7.282   0.237
 2975TIP3   OH2 8867   3.106   1.337   6.645
 2975TIP3    H1 8868   3.054   1.374   6.717
 2975TIP3    H2 8869   3.188   1.310   6.687
 2976TIP3   OH2 8870   7.449   7.639   2.405
 2976TIP3    H1 8871   7.475   7.575   2.339
 2976TIP3    H2 8872   7.440   7.721   2.357
 2977TIP3   OH2 8873   7.035   1.995   1.419
 2977TIP3    H1 8874   6.955   2.044   1.400
 2977TIP3    H2 8875   7.060   2.024   1.507
 2978TIP3   OH2 8876   2.282   2.474   2.224
 2978TIP3    H1 8877   2.350   2.454   2.288
 2978TIP3    H2 8878   2.257   2.564   2.244
 2979TIP3   OH2 8879   6.719   0.369   2.149
 2979TIP3    H1 8880   6.810   0.378   2.176
 2979TIP3    H2 8881   6.722   0.349   2.056
 2980TIP3   OH2 8882   5.101   0.545   2.246
 2980TIP3    H1 8883   5.126   0.629   2.284
 2980TIP3    H2 8884   5.061   0.497   2.318
 2981TIP3   OH2 8885   3.446   4.913   2.934
 2981TIP3    H1 8886   3.474   5.003   2.916
 2981TIP3    H2 8887   3.519   4.859   2.903
 2982TIP3   OH2 8888   2.133   7.475   2.272
 2982TIP3    H1 8889   2.064   7.413   2.296
 2982TIP3    H2 8890   2.146   7.527   2.350
 2983TIP3   OH2 8891   2.257   7.580   3.362
 2983TIP3    H1 8892   2.254   7.575   3.458
 2983TIP3    H2 8893   2.218   7.664   3.341
 2984TIP3   OH2 8894   0.849   2.348   0.776
 2984TIP3    H1 8895   0.897   2.429   0.755
 2984TIP3    H2 8896   0.911   2.278   0.755
 2985TIP3   OH2 8897   1.041   5.750   1.859
 2985TIP3    H1 8898   1.073   5.741   1.949
 2985TIP3    H2 8899   1.107   5.706   1.806
 2986TIP3   OH2 8900   3.757   7.301   6.239
 2986TIP3    H1 8901   3.785   7.218   6.278
 2986TIP3    H2 8902   3.834   7.358   6.247
 2987TIP3   OH2 8903   6.335   0.179   1.346
 2987TIP3    H1 8904   6.342   0.086   1.323
 2987TIP3    H2 8905   6.253   0.186   1.394
 2988TIP3   OH2 8906   1.705   1.498   5.760
 2988TIP3    H1 8907   1.785   1.549   5.748
 2988TIP3    H2 8908   1.735   1.410   5.781
 2989TIP3   OH2 8909   5.794   0.480   3.222
 2989TIP3    H1 8910   5.719   0.450   3.273
 2989TIP3    H2 8911   5.809   0.412   3.157
 2990TIP3   OH2 8912   4.746   6.526   2.013
 2990TIP3    H1 8913   4.825   6.524   2.066
 2990TIP3    H2 8914   4.676   6.548   2.075
 2991TIP3   OH2 8915   0.355   3.623   1.887
 2991TIP3    H1 8916   0.347   3.652   1.796
 2991TIP3    H2 8917   0.333   3.700   1.939
 2992TIP3   OH2 8918   1.520   3.890   0.372
 2992TIP3    H1 8919   1.486   3.891   0.283
 2992TIP3    H2 8920   1.472   3.820   0.416
 2993TIP3   OH2 8921   1.961   4.987   1.384
 2993TIP3    H1 8922   1.867   4.995   1.373
 2993TIP3    H2 8923   1.992   5.077   1.399
 2994TIP3   OH2 8924   2.649   7.581   3.365
 2994TIP3    H1 8925   2.553   7.576   3.361
 2994TIP3    H2 8926   2.678   7.528   3.291
 2995TIP3   OH2 8927   1.609   2.233   3.279
 2995TIP3    H1 8928   1.535   2.244   3.218
 2995TIP3    H2 8929   1.592   2.151   3.324
 2996TIP3   OH2 8930   5.598   2.284   1.414
 2996TIP3    H1 8931   5.640   2.278   1.328
 2996TIP3    H2 8932   5.623   2.204   1.459
 2997TIP3   OH2 8933   1.680   6.114   1.364
 2997TIP3    H1 8934   1.587   6.118   1.341
 2997TIP3    H2 8935   1.711   6.033   1.324
 2998TIP3   OH2 8936   3.270   3.666   0.783
 2998TIP3    H1 8937   3.306   3.577   0.788
 2998TIP3    H2 8938   3.203   3.661   0.715
 2999TIP3   OH2 8939   0.436   1.251   2.104
 2999TIP3    H1 8940   0.368   1.243   2.171
 2999TIP3    H2 8941   0.439   1.345   2.085
 3000TIP3   OH2 8942   0.039   1.054   4.946
 3000TIP3    H1 8943   0.095   1.045   4.869
 3000TIP3    H2 8944  -0.050   1.043   4.912
 3001TIP3   OH2 8945   4.201   0.073   0.585
 3001TIP3    H1 8946   4.292   0.087   0.559
 3001TIP3    H2 8947   4.201  -0.013   0.627
 3002TIP3   OH2 8948   1.321   4.823   1.372
 3002TIP3    H1 8949   1.233   4.804   1.404
 3002TIP3    H2 8950   1.344   4.906   1.414
 3003TIP3   OH2 8951   6.406   3.047   0.556
 3003TIP3    H1 8952   6.403   3.011   0.645
 3003TIP3    H2 8953   6.455   2.982   0.505
 3004TIP3   OH2 8954   5.456   6.460   0.551
 3004TIP3    H1 8955   5.450   6.493   0.641
 3004TIP3    H2 8956   5.367   6.466   0.517
 3005TIP3   OH2 8957   2.944   6.436   1.132
 3005TIP3    H1 8958   3.002   6.450   1.057
 3005TIP3    H2 8959   2.994   6.466   1.208
 3006TIP3   OH2 8960   2.442   6.615   3.308
 3006TIP3    H1 8961   2.390   6.620   3.388
 3006TIP3    H2 8962   2.396   6.672   3.245
 3007TIP3   OH2 8963   3.937   3.621   5.542
 3007TIP3    H1 8964   3.965   3.652   5.456
 3007TIP3    H2 8965   3.961   3.691   5.602
 3008TIP3   OH2 8966   2.968   2.489   0.125
 3008TIP3    H1 8967   2.928   2.404   0.146
 3008TIP3    H2 8968   2.948   2.501   0.032
 3009TIP3   OH2 8969   0.609   4.187   1.393
 3009TIP3    H1 8970   0.533   4.245   1.390
 3009TIP3    H2 8971   0.683   4.245   1.410
 3010TIP3   OH2 8972   7.114   6.268   0.649
 3010TIP3    H1 8973   7.049   6.226   0.704
 3010TIP3    H2 8974   7.182   6.298   0.710
 3011TIP3   OH2 8975   7.347   3.211   0.014
 3011TIP3    H1 8976   7.316   3.124   0.040
 3011TIP3    H2 8977   7.292   3.271   0.064
 3012TIP3   OH2 8978   1.787   1.057   1.206
 3012TIP3    H1 8979   1.771   1.148   1.180
 3012TIP3    H2 8980   1.864   1.061   1.263
 3013TIP3   OH2 8981   1.377   6.403   0.887
 3013TIP3    H1 8982   1.301   6.460   0.875
 3013TIP3    H2 8983   1.448   6.463   0.907
 3014TIP3   OH2 8984   3.515   2.438   3.659
 3014TIP3    H1 8985   3.604   2.473   3.659
 3014TIP3    H2 8986   3.463   2.504   3.703
 3015TIP3   OH2 8987   4.824   1.339   1.770
 3015TIP3    H1 8988   4.833   1.365   1.678
 3015TIP3    H2 8989   4.738   1.372   1.796
 3016TIP3   OH2 8990   3.640   4.624   4.265
 3016TIP3    H1 8991   3.614   4.544   4.310
 3016TIP3    H2 8992   3.695   4.595   4.193
 3017TIP3   OH2 8993   2.163   0.516   4.937
 3017TIP3    H1 8994   2.123   0.445   4.887
 3017TIP3    H2 8995   2.145   0.594   4.884
 3018TIP3   OH2 8996   3.449   1.072   3.066
 3018TIP3    H1 8997   3.420   1.028   2.986
 3018TIP3    H2 8998   3.486   1.002   3.120
 3019TIP3   OH2 8999   4.106   5.658   3.059
 3019TIP3    H1 9000   4.197   5.677   3.080
 3019TIP3    H2 9001   4.064   5.744   3.055
 3020TIP3   OH2 9002   0.763   3.587   6.151
 3020TIP3    H1 9003   0.853   3.570   6.178
 3020TIP3    H2 9004   0.764   3.580   6.056
 3021TIP3   OH2 9005   7.219   5.638   0.185
 3021TIP3    H1 9006   7.307   5.622   0.218
 3021TIP3    H2 9007   7.183   5.551   0.169
 3022TIP3   OH2 9008   8.111   4.448   0.771
 3022TIP3    H1 9009   8.123   4.499   0.691
 3022TIP3    H2 9010   8.188   4.468   0.824
 3023TIP3   OH2 9011   6.773   3.157   3.893
 3023TIP3    H1 9012   6.864   3.171   3.867
 3023TIP3    H2 9013   6.722   3.210   3.831
 3024TIP3   OH2 9014   6.159   0.845   6.715
 3024TIP3    H1 9015   6.243   0.828   6.673
 3024TIP3    H2 9016   6.101   0.868   6.642
 3025TIP3   OH2 9017   0.361   0.267   4.432
 3025TIP3    H1 9018   0.348   0.224   4.348
 3025TIP3    H2 9019   0.386   0.357   4.410
 3026TIP3   OH2 9020   1.063   1.224   3.451
 3026TIP3    H1 9021   0.989   1.163   3.445
 3026TIP3    H2 9022   1.052   1.266   3.536
 3027TIP3   OH2 9023   6.901   3.306   6.292
 3027TIP3    H1 9024   6.916   3.216   6.263
 3027TIP3    H2 9025   6.927   3.360   6.217
 3028TIP3   OH2 9026   7.151   2.468   2.156
 3028TIP3    H1 9027   7.113   2.531   2.095
 3028TIP3    H2 9028   7.092   2.393   2.152
 3029TIP3   OH2 9029   6.437   3.930   2.318
 3029TIP3    H1 9030   6.386   4.010   2.303
 3029TIP3    H2 9031   6.522   3.947   2.278
 3030TIP3   OH2 9032   0.212   0.057   0.945
 3030TIP3    H1 9033   0.274   0.067   1.017
 3030TIP3    H2 9034   0.167  -0.025   0.964
 3031TIP3   OH2 9035   4.610   4.486   2.918
 3031TIP3    H1 9036   4.560   4.567   2.929
 3031TIP3    H2 9037   4.595   4.460   2.827
 3032TIP3   OH2 9038   6.427   3.772   4.122
 3032TIP3    H1 9039   6.426   3.738   4.032
 3032TIP3    H2 9040   6.334   3.782   4.145
 3033TIP3   OH2 9041   7.657   2.021   5.309
 3033TIP3    H1 9042   7.586   1.980   5.259
 3033TIP3    H2 9043   7.616   2.099   5.347
 3034TIP3   OH2 9044   1.782   6.596   3.905
 3034TIP3    H1 9045   1.772   6.600   4.000
 3034TIP3    H2 9046   1.695   6.615   3.871
 3035TIP3   OH2 9047   0.255   0.223   3.639
 3035TIP3    H1 9048   0.207   0.140   3.632
 3035TIP3    H2 9049   0.343   0.198   3.668
 3036TIP3   OH2 9050   3.598   4.458   2.963
 3036TIP3    H1 9051   3.650   4.484   2.887
 3036TIP3    H2 9052   3.524   4.518   2.962
 3037TIP3   OH2 9053   2.946   3.127   1.766
 3037TIP3    H1 9054   2.858   3.147   1.733
 3037TIP3    H2 9055   2.959   3.190   1.838
 3038TIP3   OH2 9056   0.992   3.662   2.741
 3038TIP3    H1 9057   0.970   3.592   2.680
 3038TIP3    H2 9058   0.944   3.738   2.708
 3039TIP3   OH2 9059   2.407   7.509   5.369
 3039TIP3    H1 9060   2.432   7.428   5.414
 3039TIP3    H2 9061   2.473   7.573   5.398
 3040TIP3   OH2 9062   2.767   1.232   4.680
 3040TIP3    H1 9063   2.698   1.257   4.742
 3040TIP3    H2 9064   2.759   1.296   4.609
 3041TIP3   OH2 9065   4.731   1.313   0.812
 3041TIP3    H1 9066   4.819   1.326   0.777
 3041TIP3    H2 9067   4.707   1.224   0.783
 3042TIP3   OH2 9068   1.606   5.628   1.908
 3042TIP3    H1 9069   1.684   5.641   1.854
 3042TIP3    H2 9070   1.588   5.534   1.903
 3043TIP3   OH2 9071   1.759   6.586   0.033
 3043TIP3    H1 9072   1.675   6.629   0.048
 3043TIP3    H2 9073   1.799   6.635  -0.038
 3044TIP3   OH2 9074   2.410   7.704   2.230
 3044TIP3    H1 9075   2.399   7.763   2.155
 3044TIP3    H2 9076   2.333   7.719   2.284
 3045TIP3   OH2 9077   6.756   0.632   6.483
 3045TIP3    H1 9078   6.761   0.547   6.528
 3045TIP3    H2 9079   6.799   0.693   6.542
 3046TIP3   OH2 9080   7.892   0.877   5.356
 3046TIP3    H1 9081   7.987   0.874   5.352
 3046TIP3    H2 9082   7.864   0.789   5.331
 3047TIP3   OH2 9083   7.390   4.015   5.835
 3047TIP3    H1 9084   7.423   4.101   5.809
 3047TIP3    H2 9085   7.307   4.033   5.879
 3048TIP3   OH2 9086   3.378   6.758   5.488
 3048TIP3    H1 9087   3.359   6.684   5.431
 3048TIP3    H2 9088   3.426   6.820   5.433
 3049TIP3   OH2 9089   5.654   1.659   0.665
 3049TIP3    H1 9090   5.664   1.719   0.591
 3049TIP3    H2 9091   5.612   1.711   0.733
 3050TIP3   OH2 9092   6.018   7.354   1.483
 3050TIP3    H1 9093   6.109   7.327   1.495
 3050TIP3    H2 9094   6.022   7.448   1.469
 3051TIP3   OH2 9095   2.817   0.509   2.128
 3051TIP3    H1 9096   2.734   0.464   2.136
 3051TIP3    H2 9097   2.805   0.569   2.055
 3052TIP3   OH2 9098   6.050   6.417   4.089
 3052TIP3    H1 9099   5.972   6.435   4.141
 3052TIP3    H2 9100   6.017   6.378   4.008
 3053TIP3   OH2 9101   4.733   4.579   2.395
 3053TIP3    H1 9102   4.703   4.498   2.354
 3053TIP3    H2 9103   4.791   4.551   2.466
 3054TIP3   OH2 9104   7.231   5.930   2.126
 3054TIP3    H1 9105   7.261   6.014   2.091
 3054TIP3    H2 9106   7.239   5.938   2.221
 3055TIP3   OH2 9107   4.231   3.623   5.397
 3055TIP3    H1 9108   4.232   3.544   5.451
 3055TIP3    H2 9109   4.268   3.691   5.453
 3056TIP3   OH2 9110   4.668   0.370   2.725
 3056TIP3    H1 9111   4.581   0.402   2.747
 3056TIP3    H2 9112   4.726   0.445   2.741
 3057TIP3   OH2 9113   3.132   5.922   5.250
 3057TIP3    H1 9114   3.222   5.890   5.262
 3057TIP3    H2 9115   3.129   6.004   5.300
 3058TIP3   OH2 9116   2.589   4.505   0.290
 3058TIP3    H1 9117   2.660   4.475   0.233
 3058TIP3    H2 9118   2.634   4.546   0.364
 3059TIP3   OH2 9119   1.564   4.965   2.166
 3059TIP3    H1 9120   1.586   4.896   2.103
 3059TIP3    H2 9121   1.611   4.941   2.245
 3060TIP3   OH2 9122   2.517   3.669   4.576
 3060TIP3    H1 9123   2.428   3.649   4.546
 3060TIP3    H2 9124   2.574   3.619   4.517
 3061TIP3   OH2 9125   1.520   6.850   2.389
 3061TIP3    H1 9126   1.503   6.786   2.320
 3061TIP3    H2 9127   1.491   6.934   2.352
 3062TIP3   OH2 9128   1.940   0.251   0.016
 3062TIP3    H1 9129   1.937   0.194   0.092
 3062TIP3    H2 9130   1.919   0.338   0.050
 3063TIP3   OH2 9131   1.186   2.852   6.386
 3063TIP3    H1 9132   1.141   2.935   6.403
 3063TIP3    H2 9133   1.140   2.789   6.442
 3064TIP3   OH2 9134   2.491   2.636   3.111
 3064TIP3    H1 9135   2.447   2.557   3.143
 3064TIP3    H2 9136   2.451   2.653   3.026
 3065TIP3   OH2 9137   4.877   5.950   4.575
 3065TIP3    H1 9138   4.916   5.945   4.487
 3065TIP3    H2 9139   4.897   6.039   4.604
 3066TIP3   OH2 9140   6.188   1.594   4.120
 3066TIP3    H1 9141   6.168   1.502   4.103
 3066TIP3    H2 9142   6.206   1.632   4.034
 3067TIP3   OH2 9143   0.981   2.348   4.664
 3067TIP3    H1 9144   0.982   2.287   4.590
 3067TIP3    H2 9145   1.009   2.295   4.739
 3068TIP3   OH2 9146   6.584   3.312   2.823
 3068TIP3    H1 9147   6.626   3.360   2.751
 3068TIP3    H2 9148   6.616   3.223   2.813
 3069TIP3   OH2 9149   0.030   1.714   1.938
 3069TIP3    H1 9150  -0.025   1.773   1.886
 3069TIP3    H2 9151   0.069   1.770   2.005
 3070TIP3   OH2 9152   2.793   4.128   6.240
 3070TIP3    H1 9153   2.713   4.093   6.201
 3070TIP3    H2 9154   2.846   4.155   6.164
 3071TIP3   OH2 9155   7.900   7.421   2.393
 3071TIP3    H1 9156   7.929   7.508   2.367
 3071TIP3    H2 9157   7.908   7.420   2.489
 3072TIP3   OH2 9158   3.366   5.765   5.373
 3072TIP3    H1 9159   3.411   5.783   5.456
 3072TIP3    H2 9160   3.340   5.673   5.379
 3073TIP3   OH2 9161   6.653   7.239   6.276
 3073TIP3    H1 9162   6.731   7.186   6.293
 3073TIP3    H2 9163   6.639   7.231   6.181
 3074TIP3   OH2 9164   1.049   6.882   2.697
 3074TIP3    H1 9165   1.047   6.899   2.791
 3074TIP3    H2 9166   1.142   6.879   2.675
 3075TIP3   OH2 9167   0.608   4.691   4.972
 3075TIP3    H1 9168   0.604   4.597   4.993
 3075TIP3    H2 9169   0.681   4.699   4.911
 3076TIP3   OH2 9170   4.400   4.197   1.991
 3076TIP3    H1 9171   4.379   4.116   2.038
 3076TIP3    H2 9172   4.481   4.177   1.944
 3077TIP3   OH2 9173   4.593   7.688   3.901
 3077TIP3    H1 9174   4.686   7.701   3.882
 3077TIP3    H2 9175   4.590   7.613   3.959
 3078TIP3   OH2 9176   6.246   1.562   3.312
 3078TIP3    H1 9177   6.281   1.593   3.396
 3078TIP3    H2 9178   6.183   1.630   3.287
 3079TIP3   OH2 9179   3.827   5.665   1.901
 3079TIP3    H1 9180   3.836   5.609   1.824
 3079TIP3    H2 9181   3.739   5.702   1.893
 3080TIP3   OH2 9182   7.223   2.560   4.498
 3080TIP3    H1 9183   7.156   2.579   4.432
 3080TIP3    H2 9184   7.277   2.638   4.502
 3081TIP3   OH2 9185   3.917   2.878   0.197
 3081TIP3    H1 9186   3.958   2.848   0.116
 3081TIP3    H2 9187   3.882   2.798   0.237
 3082TIP3   OH2 9188   2.956   3.177   2.433
 3082TIP3    H1 9189   3.024   3.137   2.379
 3082TIP3    H2 9190   2.882   3.117   2.426
 3083TIP3   OH2 9191   7.381   4.063   3.488
 3083TIP3    H1 9192   7.468   4.103   3.495
 3083TIP3    H2 9193   7.324   4.133   3.459
 3084TIP3   OH2 9194   2.823   4.126   0.928
 3084TIP3    H1 9195   2.815   4.159   0.838
 3084TIP3    H2 9196   2.743   4.076   0.943
 3085TIP3   OH2 9197   6.444   3.925   1.033
 3085TIP3    H1 9198   6.476   3.977   1.107
 3085TIP3    H2 9199   6.415   3.990   0.969
 3086TIP3   OH2 9200   0.680   5.294   6.579
 3086TIP3    H1 9201   0.592   5.326   6.599
 3086TIP3    H2 9202   0.716   5.359   6.518
 3087TIP3   OH2 9203   6.874   3.583   2.055
 3087TIP3    H1 9204   6.924   3.663   2.039
 3087TIP3    H2 9205   6.810   3.579   1.984
 3088TIP3   OH2 9206   0.633   6.474   6.225
 3088TIP3    H1 9207   0.586   6.434   6.152
 3088TIP3    H2 9208   0.703   6.524   6.183
 3089TIP3   OH2 9209   0.591   4.981   2.031
 3089TIP3    H1 9210   0.499   4.990   2.006
 3089TIP3    H2 9211   0.588   4.938   2.116
 3090TIP3   OH2 9212   4.349   6.443   5.381
 3090TIP3    H1 9213   4.317   6.365   5.428
 3090TIP3    H2 9214   4.273   6.472   5.330
 3091TIP3   OH2 9215   3.812   1.092   2.168
 3091TIP3    H1 9216   3.817   1.144   2.249
 3091TIP3    H2 9217   3.770   1.010   2.195
 3092TIP3   OH2 9218   6.825   1.063   5.919
 3092TIP3    H1 9219   6.825   1.099   6.007
 3092TIP3    H2 9220   6.766   0.987   5.924
 3093TIP3   OH2 9221   0.914   5.940   1.735
 3093TIP3    H1 9222   0.828   5.916   1.770
 3093TIP3    H2 9223   0.973   5.871   1.766
 3094TIP3   OH2 9224   1.561   5.918   5.030
 3094TIP3    H1 9225   1.641   5.942   5.077
 3094TIP3    H2 9226   1.592   5.871   4.952
 3095TIP3   OH2 9227   3.207   3.668   4.875
 3095TIP3    H1 9228   3.228   3.676   4.967
 3095TIP3    H2 9229   3.159   3.749   4.854
 3096TIP3   OH2 9230   2.522   5.288   0.771
 3096TIP3    H1 9231   2.541   5.379   0.747
 3096TIP3    H2 9232   2.587   5.267   0.839
 3097TIP3   OH2 9233   7.523   4.363   5.097
 3097TIP3    H1 9234   7.524   4.268   5.096
 3097TIP3    H2 9235   7.430   4.386   5.093
 3098TIP3   OH2 9236   3.763   2.136   6.712
 3098TIP3    H1 9237   3.852   2.139   6.745
 3098TIP3    H2 9238   3.751   2.046   6.681
 3099TIP3   OH2 9239   5.043   1.572   3.189
 3099TIP3    H1 9240   5.026   1.511   3.260
 3099TIP3    H2 9241   5.022   1.524   3.109
 3100TIP3   OH2 9242   6.791   5.137   1.153
 3100TIP3    H1 9243   6.706   5.163   1.119
 3100TIP3    H2 9244   6.784   5.149   1.247
 3101TIP3   OH2 9245   5.062   0.134   5.340
 3101TIP3    H1 9246   4.994   0.192   5.307
 3101TIP3    H2 9247   5.128   0.133   5.271
 3102TIP3   OH2 9248   6.587   7.218   0.699
 3102TIP3    H1 9249   6.493   7.209   0.681
 3102TIP3    H2 9250   6.601   7.312   0.707
 3103TIP3   OH2 9251   7.336   4.171   1.720
 3103TIP3    H1 9252   7.325   4.102   1.654
 3103TIP3    H2 9253   7.318   4.129   1.803
 3104TIP3   OH2 9254   3.434   4.293   2.761
 3104TIP3    H1 9255   3.421   4.199   2.751
 3104TIP3    H2 9256   3.397   4.313   2.847
 3105TIP3   OH2 9257   6.260   2.243   6.205
 3105TIP3    H1 9258   6.329   2.283   6.258
 3105TIP3    H2 9259   6.180   2.285   6.234
 3106TIP3   OH2 9260   7.085   7.081   4.339
 3106TIP3    H1 9261   7.020   7.116   4.399
 3106TIP3    H2 9262   7.034   7.039   4.270
 3107TIP3   OH2 9263   2.229   7.220   0.492
 3107TIP3    H1 9264   2.288   7.174   0.551
 3107TIP3    H2 9265   2.145   7.175   0.501
 3108TIP3   OH2 9266   0.705   0.148   0.632
 3108TIP3    H1 9267   0.639   0.114   0.692
 3108TIP3    H2 9268   0.706   0.086   0.559
 3109TIP3   OH2 9269   5.473   2.971   6.264
 3109TIP3    H1 9270   5.554   2.921   6.253
 3109TIP3    H2 9271   5.410   2.929   6.206
 3110TIP3   OH2 9272   2.363   2.446   2.739
 3110TIP3    H1 9273   2.318   2.465   2.656
 3110TIP3    H2 9274   2.301   2.474   2.807
 3111TIP3   OH2 9275   7.170   1.583   1.331
 3111TIP3    H1 9276   7.191   1.490   1.317
 3111TIP3    H2 9277   7.250   1.620   1.368
 3112TIP3   OH2 9278   7.828   0.808   6.090
 3112TIP3    H1 9279   7.777   0.876   6.044
 3112TIP3    H2 9280   7.873   0.761   6.021
 3113TIP3   OH2 9281   4.769   6.870   4.524
 3113TIP3    H1 9282   4.743   6.812   4.453
 3113TIP3    H2 9283   4.693   6.875   4.581
 3114TIP3   OH2 9284   0.215   4.849   1.085
 3114TIP3    H1 9285   0.285   4.906   1.053
 3114TIP3    H2 9286   0.149   4.850   1.015
 3115TIP3   OH2 9287   2.034   0.361   6.360
 3115TIP3    H1 9288   2.077   0.276   6.373
 3115TIP3    H2 9289   1.941   0.343   6.368
 3116TIP3   OH2 9290   0.939   0.307   1.474
 3116TIP3    H1 9291   1.006   0.331   1.410
 3116TIP3    H2 9292   0.978   0.236   1.524
 3117TIP3   OH2 9293   6.725   0.113   4.994
 3117TIP3    H1 9294   6.656   0.158   4.944
 3117TIP3    H2 9295   6.688   0.103   5.082
 3118TIP3   OH2 9296   5.828   4.198   3.629
 3118TIP3    H1 9297   5.882   4.276   3.615
 3118TIP3    H2 9298   5.821   4.158   3.543
 3119TIP3   OH2 9299   3.950   1.920   0.205
 3119TIP3    H1 9300   3.865   1.963   0.212
 3119TIP3    H2 9301   4.014   1.991   0.214
 3120TIP3   OH2 9302   4.883   3.192   6.128
 3120TIP3    H1 9303   4.821   3.174   6.058
 3120TIP3    H2 9304   4.875   3.286   6.143
 3121TIP3   OH2 9305   3.274   3.194   0.899
 3121TIP3    H1 9306   3.181   3.186   0.921
 3121TIP3    H2 9307   3.318   3.193   0.984
 3122TIP3   OH2 9308   5.928   3.938   0.021
 3122TIP3    H1 9309   5.966   3.985   0.095
 3122TIP3    H2 9310   5.891   4.007  -0.034
 3123TIP3   OH2 9311   7.130   5.218   4.289
 3123TIP3    H1 9312   7.072   5.155   4.245
 3123TIP3    H2 9313   7.218   5.193   4.260
 3124TIP3   OH2 9314   5.695   0.304   1.178
 3124TIP3    H1 9315   5.711   0.223   1.227
 3124TIP3    H2 9316   5.745   0.371   1.225
 3125TIP3   OH2 9317   6.961   4.339   0.329
 3125TIP3    H1 9318   6.916   4.396   0.391
 3125TIP3    H2 9319   6.967   4.391   0.249
 3126TIP3   OH2 9320   2.609   3.935   5.879
 3126TIP3    H1 9321   2.534   3.948   5.821
 3126TIP3    H2 9322   2.594   3.995   5.952
 3127TIP3   OH2 9323   8.170   0.969   5.363
 3127TIP3    H1 9324   8.248   0.915   5.376
 3127TIP3    H2 9325   8.169   1.029   5.437
 3128TIP3   OH2 9326   6.620   0.395   5.120
 3128TIP3    H1 9327   6.547   0.400   5.182
 3128TIP3    H2 9328   6.578   0.378   5.035
 3129TIP3   OH2 9329   1.968   0.643   1.843
 3129TIP3    H1 9330   1.891   0.603   1.802
 3129TIP3    H2 9331   2.018   0.568   1.876
 3130TIP3   OH2 9332   6.514   0.182   6.644
 3130TIP3    H1 9333   6.588   0.208   6.590
 3130TIP3    H2 9334   6.543   0.198   6.734
 3131TIP3   OH2 9335   4.966   2.883   4.557
 3131TIP3    H1 9336   4.899   2.933   4.510
 3131TIP3    H2 9337   4.999   2.944   4.624
 3132TIP3   OH2 9338   3.861   6.629   1.703
 3132TIP3    H1 9339   3.946   6.639   1.659
 3132TIP3    H2 9340   3.875   6.560   1.768
 3133TIP3   OH2 9341   4.328   7.725   4.235
 3133TIP3    H1 9342   4.332   7.679   4.151
 3133TIP3    H2 9343   4.404   7.693   4.283
 3134TIP3   OH2 9344   7.654   0.753   0.375
 3134TIP3    H1 9345   7.661   0.658   0.386
 3134TIP3    H2 9346   7.741   0.780   0.346
 3135TIP3   OH2 9347   2.767   7.712   1.084
 3135TIP3    H1 9348   2.744   7.789   1.136
 3135TIP3    H2 9349   2.820   7.746   1.012
 3136TIP3   OH2 9350   2.632   5.096   5.539
 3136TIP3    H1 9351   2.652   5.185   5.509
 3136TIP3    H2 9352   2.590   5.109   5.624
 3137TIP3   OH2 9353   2.165   7.396   6.326
 3137TIP3    H1 9354   2.174   7.487   6.298
 3137TIP3    H2 9355   2.253   7.360   6.322
 3138TIP3   OH2 9356   5.256   5.169   1.123
 3138TIP3    H1 9357   5.224   5.162   1.034
 3138TIP3    H2 9358   5.177   5.165   1.177
 3139TIP3   OH2 9359   0.139   2.485   6.729
 3139TIP3    H1 9360   0.121   2.528   6.646
 3139TIP3    H2 9361   0.053   2.475   6.770
 3140TIP3   OH2 9362   6.672   4.007   1.485
 3140TIP3    H1 9363   6.645   4.059   1.562
 3140TIP3    H2 9364   6.761   3.978   1.506
 3141TIP3   OH2 9365   4.709   5.769   2.831
 3141TIP3    H1 9366   4.737   5.830   2.763
 3141TIP3    H2 9367   4.782   5.708   2.841
 3142TIP3   OH2 9368   2.267   0.427   1.655
 3142TIP3    H1 9369   2.302   0.509   1.690
 3142TIP3    H2 9370   2.325   0.406   1.582
 3143TIP3   OH2 9371   7.109   2.756   2.699
 3143TIP3    H1 9372   7.138   2.697   2.629
 3143TIP3    H2 9373   7.050   2.818   2.655
 3144TIP3   OH2 9374   7.510   4.616   3.143
 3144TIP3    H1 9375   7.511   4.648   3.233
 3144TIP3    H2 9376   7.523   4.695   3.090
 3145TIP3   OH2 9377   5.917   3.090   3.605
 3145TIP3    H1 9378   5.975   3.125   3.672
 3145TIP3    H2 9379   5.850   3.042   3.653
 3146TIP3   OH2 9380   2.684   7.667   2.322
 3146TIP3    H1 9381   2.592   7.691   2.323
 3146TIP3    H2 9382   2.690   7.596   2.257
 3147TIP3   OH2 9383   7.721   3.386   2.625
 3147TIP3    H1 9384   7.800   3.351   2.583
 3147TIP3    H2 9385   7.655   3.388   2.555
 3148TIP3   OH2 9386   2.305   6.250   6.632
 3148TIP3    H1 9387   2.301   6.296   6.548
 3148TIP3    H2 9388   2.222   6.204   6.639
 3149TIP3   OH2 9389   6.316   1.398   2.389
 3149TIP3    H1 9390   6.409   1.380   2.405
 3149TIP3    H2 9391   6.312   1.421   2.296
 3150TIP3   OH2 9392   5.231   6.816   3.299
 3150TIP3    H1 9393   5.231   6.904   3.260
 3150TIP3    H2 9394   5.265   6.759   3.229
 3151TIP3   OH2 9395   7.443   3.935   0.118
 3151TIP3    H1 9396   7.481   3.848   0.115
 3151TIP3    H2 9397   7.516   3.993   0.139
 3152TIP3   OH2 9398   1.570   3.807   3.200
 3152TIP3    H1 9399   1.512   3.812   3.124
 3152TIP3    H2 9400   1.655   3.780   3.164
 3153TIP3   OH2 9401   4.693   7.424   2.901
 3153TIP3    H1 9402   4.639   7.500   2.924
 3153TIP3    H2 9403   4.641   7.376   2.837
 3154TIP3   OH2 9404   2.795   5.064   2.203
 3154TIP3    H1 9405   2.793   5.104   2.117
 3154TIP3    H2 9406   2.858   4.992   2.195
 3155TIP3   OH2 9407   2.772   2.250   0.631
 3155TIP3    H1 9408   2.753   2.197   0.708
 3155TIP3    H2 9409   2.783   2.186   0.560
 3156TIP3   OH2 9410   5.344   6.034   2.098
 3156TIP3    H1 9411   5.301   6.016   2.181
 3156TIP3    H2 9412   5.276   6.074   2.043
 3157TIP3   OH2 9413   0.158   1.158   1.863
 3157TIP3    H1 9414   0.163   1.238   1.916
 3157TIP3    H2 9415   0.141   1.088   1.926
 3158TIP3   OH2 9416   3.117   3.931   4.871
 3158TIP3    H1 9417   3.079   3.914   4.957
 3158TIP3    H2 9418   3.053   3.988   4.827
 3159TIP3   OH2 9419   5.563   1.866   3.292
 3159TIP3    H1 9420   5.505   1.911   3.352
 3159TIP3    H2 9421   5.625   1.933   3.263
 3160TIP3   OH2 9422   8.263   5.019   0.803
 3160TIP3    H1 9423   8.188   5.039   0.747
 3160TIP3    H2 9424   8.322   5.093   0.791
 3161TIP3   OH2 9425   1.691   7.126   5.683
 3161TIP3    H1 9426   1.670   7.056   5.745
 3161TIP3    H2 9427   1.763   7.173   5.723
 3162TIP3   OH2 9428   2.500   1.099   3.145
 3162TIP3    H1 9429   2.462   1.052   3.071
 3162TIP3    H2 9430   2.443   1.176   3.156
 3163TIP3   OH2 9431   2.855   0.876   5.952
 3163TIP3    H1 9432   2.828   0.967   5.940
 3163TIP3    H2 9433   2.849   0.838   5.864
 3164TIP3   OH2 9434   6.360   0.776   0.127
 3164TIP3    H1 9435   6.409   0.696   0.108
 3164TIP3    H2 9436   6.362   0.824   0.044
 3165TIP3   OH2 9437   5.253   1.366   5.315
 3165TIP3    H1 9438   5.203   1.447   5.310
 3165TIP3    H2 9439   5.225   1.315   5.239
 3166TIP3   OH2 9440   2.364   2.668   5.755
 3166TIP3    H1 9441   2.358   2.753   5.713
 3166TIP3    H2 9442   2.445   2.630   5.721
 3167TIP3   OH2 9443   1.364   3.527   1.119
 3167TIP3    H1 9444   1.385   3.493   1.032
 3167TIP3    H2 9445   1.272   3.553   1.113
 3168TIP3   OH2 9446   0.617   2.088   1.841
 3168TIP3    H1 9447   0.546   2.109   1.781
 3168TIP3    H2 9448   0.573   2.061   1.921
 3169TIP3   OH2 9449   7.612   5.126   4.316
 3169TIP3    H1 9450   7.693   5.155   4.358
 3169TIP3    H2 9451   7.577   5.205   4.275
 3170TIP3   OH2 9452   0.682   3.314   0.852
 3170TIP3    H1 9453   0.714   3.268   0.775
 3170TIP3    H2 9454   0.621   3.379   0.818
 3171TIP3   OH2 9455   1.825   5.230   1.769
 3171TIP3    H1 9456   1.751   5.181   1.804
 3171TIP3    H2 9457   1.817   5.221   1.674
 3172TIP3   OH2 9458   5.556   5.252   3.897
 3172TIP3    H1 9459   5.514   5.326   3.942
 3172TIP3    H2 9460   5.488   5.184   3.897
 3173TIP3   OH2 9461   6.630   2.532   4.091
 3173TIP3    H1 9462   6.571   2.488   4.152
 3173TIP3    H2 9463   6.713   2.486   4.101
 3174TIP3   OH2 9464   6.922   1.178   4.945
 3174TIP3    H1 9465   6.836   1.145   4.973
 3174TIP3    H2 9466   6.934   1.142   4.857
 3175TIP3   OH2 9467   2.164   7.121   1.190
 3175TIP3    H1 9468   2.168   7.191   1.256
 3175TIP3    H2 9469   2.253   7.085   1.189
 3176TIP3   OH2 9470   4.084   1.593   3.389
 3176TIP3    H1 9471   4.101   1.640   3.308
 3176TIP3    H2 9472   4.035   1.655   3.443
 3177TIP3   OH2 9473   2.360   7.210   5.311
 3177TIP3    H1 9474   2.451   7.201   5.282
 3177TIP3    H2 9475   2.318   7.259   5.241
 3178TIP3   OH2 9476   5.377   4.362   0.216
 3178TIP3    H1 9477   5.465   4.397   0.224
 3178TIP3    H2 9478   5.320   4.439   0.217
 3179TIP3   OH2 9479   3.854   6.465   2.452
 3179TIP3    H1 9480   3.799   6.524   2.504
 3179TIP3    H2 9481   3.939   6.508   2.450
 3180TIP3   OH2 9482   5.892   6.753   5.835
 3180TIP3    H1 9483   5.796   6.747   5.833
 3180TIP3    H2 9484   5.922   6.669   5.800
 3181TIP3   OH2 9485   1.750   3.371   2.253
 3181TIP3    H1 9486   1.841   3.377   2.224
 3181TIP3    H2 9487   1.707   3.447   2.214
 3182TIP3   OH2 9488   4.761  -0.018   0.257
 3182TIP3    H1 9489   4.782   0.059   0.308
 3182TIP3    H2 9490   4.711  -0.074   0.316
 3183TIP3   OH2 9491   8.166   5.761   0.256
 3183TIP3    H1 9492   8.126   5.823   0.316
 3183TIP3    H2 9493   8.164   5.804   0.171
 3184TIP3   OH2 9494   7.170   5.085   5.930
 3184TIP3    H1 9495   7.075   5.086   5.940
 3184TIP3    H2 9496   7.188   5.153   5.865
 3185TIP3   OH2 9497   3.149   0.163   1.679
 3185TIP3    H1 9498   3.111   0.170   1.766
 3185TIP3    H2 9499   3.085   0.113   1.628
 3186TIP3   OH2 9500   6.187   5.233   5.617
 3186TIP3    H1 9501   6.110   5.244   5.563
 3186TIP3    H2 9502   6.194   5.315   5.666
 3187TIP3   OH2 9503   1.150   5.274   1.969
 3187TIP3    H1 9504   1.197   5.358   1.968
 3187TIP3    H2 9505   1.122   5.261   1.879
 3188TIP3   OH2 9506   2.919   3.457   1.805
 3188TIP3    H1 9507   2.857   3.494   1.867
 3188TIP3    H2 9508   2.870   3.451   1.723
 3189TIP3   OH2 9509   6.019   4.948   5.319
 3189TIP3    H1 9510   6.100   4.978   5.278
 3189TIP3    H2 9511   5.949   4.989   5.269
 3190TIP3   OH2 9512   1.327   3.210   2.305
 3190TIP3    H1 9513   1.418   3.181   2.307
 3190TIP3    H2 9514   1.298   3.202   2.396
 3191TIP3   OH2 9515   3.200   2.954   5.735
 3191TIP3    H1 9516   3.217   2.872   5.779
 3191TIP3    H2 9517   3.278   3.007   5.751
 3192TIP3   OH2 9518   2.974   7.366   6.716
 3192TIP3    H1 9519   3.030   7.354   6.639
 3192TIP3    H2 9520   3.022   7.427   6.772
 3193TIP3   OH2 9521   7.159   1.771   0.673
 3193TIP3    H1 9522   7.167   1.816   0.757
 3193TIP3    H2 9523   7.249   1.759   0.643
 3194TIP3   OH2 9524   7.667   5.513   6.080
 3194TIP3    H1 9525   7.699   5.466   6.156
 3194TIP3    H2 9526   7.694   5.460   6.005
 3195TIP3   OH2 9527   5.509   1.129   5.007
 3195TIP3    H1 9528   5.518   1.055   5.066
 3195TIP3    H2 9529   5.530   1.205   5.060
 3196TIP3   OH2 9530   5.671   1.997   3.989
 3196TIP3    H1 9531   5.590   2.047   4.002
 3196TIP3    H2 9532   5.703   1.979   4.077
 3197TIP3   OH2 9533   8.222   7.042   2.843
 3197TIP3    H1 9534   8.141   7.026   2.796
 3197TIP3    H2 9535   8.272   6.961   2.832
 3198TIP3   OH2 9536   5.391   4.991   0.462
 3198TIP3    H1 9537   5.416   4.958   0.548
 3198TIP3    H2 9538   5.319   5.052   0.479
 3199TIP3   OH2 9539   8.023   3.619   4.461
 3199TIP3    H1 9540   8.008   3.587   4.550
 3199TIP3    H2 9541   8.099   3.569   4.431
 3200TIP3   OH2 9542   6.390   3.729   6.169
 3200TIP3    H1 9543   6.321   3.671   6.135
 3200TIP3    H2 9544   6.412   3.693   6.254
 3201TIP3   OH2 9545   3.944   1.908   5.190
 3201TIP3    H1 9546   3.897   1.836   5.147
 3201TIP3    H2 9547   3.982   1.958   5.117
 3202TIP3   OH2 9548   3.026   5.663   4.147
 3202TIP3    H1 9549   2.989   5.578   4.172
 3202TIP3    H2 9550   2.961   5.727   4.176
 3203TIP3   OH2 9551   1.802   6.280   6.327
 3203TIP3    H1 9552   1.767   6.212   6.269
 3203TIP3    H2 9553   1.882   6.310   6.283
 3204TIP3   OH2 9554   3.728   1.736   3.346
 3204TIP3    H1 9555   3.803   1.749   3.404
 3204TIP3    H2 9556   3.656   1.782   3.388
 3205TIP3   OH2 9557   4.434   2.118   4.717
 3205TIP3    H1 9558   4.498   2.187   4.734
 3205TIP3    H2 9559   4.466   2.075   4.638
 3206TIP3   OH2 9560   5.128   6.429   2.484
 3206TIP3    H1 9561   5.034   6.423   2.467
 3206TIP3    H2 9562   5.157   6.503   2.430
 3207TIP3   OH2 9563   0.159   2.518   6.102
 3207TIP3    H1 9564   0.246   2.479   6.102
 3207TIP3    H2 9565   0.149   2.554   6.014
 3208TIP3   OH2 9566   2.793   3.649   4.122
 3208TIP3    H1 9567   2.808   3.743   4.136
 3208TIP3    H2 9568   2.703   3.634   4.150
 3209TIP3   OH2 9569   7.877   3.334   6.040
 3209TIP3    H1 9570   7.926   3.269   5.989
 3209TIP3    H2 9571   7.913   3.328   6.128
 3210TIP3   OH2 9572   1.336   0.660   1.790
 3210TIP3    H1 9573   1.245   0.687   1.805
 3210TIP3    H2 9574   1.372   0.646   1.877
 3211TIP3   OH2 9575   3.172   2.581   5.432
 3211TIP3    H1 9576   3.100   2.607   5.490
 3211TIP3    H2 9577   3.194   2.661   5.385
 3212TIP3   OH2 9578   0.615   1.232   0.080
 3212TIP3    H1 9579   0.567   1.214   0.162
 3212TIP3    H2 9580   0.552   1.212   0.011
 3213TIP3   OH2 9581   7.862   2.762   4.898
 3213TIP3    H1 9582   7.805   2.821   4.848
 3213TIP3    H2 9583   7.825   2.675   4.883
 3214TIP3   OH2 9584   0.484   1.272   0.951
 3214TIP3    H1 9585   0.525   1.346   0.906
 3214TIP3    H2 9586   0.534   1.195   0.922
 3215TIP3   OH2 9587   2.465   6.687   4.618
 3215TIP3    H1 9588   2.514   6.646   4.688
 3215TIP3    H2 9589   2.531   6.724   4.560
 3216TIP3   OH2 9590   6.729   7.395   4.929
 3216TIP3    H1 9591   6.809   7.443   4.949
 3216TIP3    H2 9592   6.735   7.378   4.835
 3217TIP3   OH2 9593   1.448   7.407   6.726
 3217TIP3    H1 9594   1.426   7.496   6.698
 3217TIP3    H2 9595   1.502   7.419   6.804
 3218TIP3   OH2 9596   3.125   1.240   1.741
 3218TIP3    H1 9597   3.068   1.289   1.682
 3218TIP3    H2 9598   3.139   1.157   1.697
 3219TIP3   OH2 9599   8.020   2.951   3.786
 3219TIP3    H1 9600   8.024   2.931   3.880
 3219TIP3    H2 9601   8.078   3.026   3.774
 3220TIP3   OH2 9602   5.447   0.279   0.987
 3220TIP3    H1 9603   5.478   0.357   0.942
 3220TIP3    H2 9604   5.514   0.261   1.053
 3221TIP3   OH2 9605   6.667   3.427   4.041
 3221TIP3    H1 9606   6.748   3.468   4.011
 3221TIP3    H2 9607   6.694   3.342   4.075
 3222TIP3   OH2 9608   6.057   1.067   3.561
 3222TIP3    H1 9609   6.011   1.038   3.639
 3222TIP3    H2 9610   5.988   1.092   3.500
 3223TIP3   OH2 9611   7.271   3.089   3.953
 3223TIP3    H1 9612   7.323   3.032   3.896
 3223TIP3    H2 9613   7.316   3.173   3.951
 3224TIP3   OH2 9614   1.999   4.204   2.998
 3224TIP3    H1 9615   1.935   4.148   2.954
 3224TIP3    H2 9616   2.061   4.227   2.929
 3225TIP3   OH2 9617   0.033   3.640   5.868
 3225TIP3    H1 9618  -0.001   3.614   5.954
 3225TIP3    H2 9619   0.101   3.704   5.887
 3226TIP3   OH2 9620   4.857   2.218   5.017
 3226TIP3    H1 9621   4.917   2.267   4.961
 3226TIP3    H2 9622   4.862   2.128   4.986
 3227TIP3   OH2 9623   7.716   3.651   6.455
 3227TIP3    H1 9624   7.714   3.746   6.473
 3227TIP3    H2 9625   7.631   3.632   6.416
 3228TIP3   OH2 9626   7.865   6.406   0.657
 3228TIP3    H1 9627   7.776   6.441   0.647
 3228TIP3    H2 9628   7.873   6.389   0.751
 3229TIP3   OH2 9629   7.161   4.182   0.792
 3229TIP3    H1 9630   7.139   4.203   0.702
 3229TIP3    H2 9631   7.222   4.251   0.819
 3230TIP3   OH2 9632   8.294   5.439   2.728
 3230TIP3    H1 9633   8.225   5.502   2.749
 3230TIP3    H2 9634   8.305   5.388   2.808
 3231TIP3   OH2 9635   2.763   7.710   6.287
 3231TIP3    H1 9636   2.737   7.630   6.332
 3231TIP3    H2 9637   2.810   7.760   6.353
 3232TIP3   OH2 9638   1.588   3.481   1.880
 3232TIP3    H1 9639   1.627   3.454   1.797
 3232TIP3    H2 9640   1.522   3.546   1.855
 3233TIP3   OH2 9641   2.412   4.318   1.903
 3233TIP3    H1 9642   2.423   4.413   1.907
 3233TIP3    H2 9643   2.502   4.284   1.906
 3234TIP3   OH2 9644   1.874   1.357   0.613
 3234TIP3    H1 9645   1.960   1.350   0.571
 3234TIP3    H2 9646   1.882   1.304   0.692
 3235TIP3   OH2 9647   0.223   3.188   4.048
 3235TIP3    H1 9648   0.289   3.125   4.074
 3235TIP3    H2 9649   0.269   3.272   4.046
 3236TIP3   OH2 9650   0.278   5.048   5.478
 3236TIP3    H1 9651   0.216   4.980   5.453
 3236TIP3    H2 9652   0.310   5.022   5.564
 3237TIP3   OH2 9653   5.214   3.393   5.634
 3237TIP3    H1 9654   5.231   3.332   5.563
 3237TIP3    H2 9655   5.245   3.478   5.601
 3238TIP3   OH2 9656   0.935   3.946   1.923
 3238TIP3    H1 9657   1.028   3.965   1.939
 3238TIP3    H2 9658   0.932   3.911   1.834
 3239TIP3   OH2 9659   3.434   7.451   0.712
 3239TIP3    H1 9660   3.523   7.473   0.686
 3239TIP3    H2 9661   3.385   7.450   0.629
 3240TIP3   OH2 9662   1.789   4.126   6.150
 3240TIP3    H1 9663   1.724   4.168   6.093
 3240TIP3    H2 9664   1.740   4.055   6.192
 3241TIP3   OH2 9665   7.259   4.146   2.212
 3241TIP3    H1 9666   7.218   4.167   2.295
 3241TIP3    H2 9667   7.255   4.051   2.206
 3242TIP3   OH2 9668   2.011   4.801   5.707
 3242TIP3    H1 9669   2.039   4.724   5.659
 3242TIP3    H2 9670   1.931   4.774   5.752
 3243TIP3   OH2 9671   0.282   7.267   3.758
 3243TIP3    H1 9672   0.343   7.252   3.685
 3243TIP3    H2 9673   0.252   7.357   3.745
 3244TIP3   OH2 9674   0.993   7.092   6.722
 3244TIP3    H1 9675   1.019   7.176   6.682
 3244TIP3    H2 9676   0.964   7.039   6.648
 3245TIP3   OH2 9677   7.013   0.401   2.053
 3245TIP3    H1 9678   7.101   0.389   2.019
 3245TIP3    H2 9679   6.955   0.381   1.979
 3246TIP3   OH2 9680   6.901   5.436   1.937
 3246TIP3    H1 9681   6.881   5.528   1.918
 3246TIP3    H2 9682   6.975   5.440   1.998
 3247TIP3   OH2 9683   1.641   0.477   2.660
 3247TIP3    H1 9684   1.728   0.438   2.647
 3247TIP3    H2 9685   1.632   0.484   2.755
 3248TIP3   OH2 9686   5.726   0.851   5.660
 3248TIP3    H1 9687   5.684   0.930   5.693
 3248TIP3    H2 9688   5.657   0.804   5.613
 3249TIP3   OH2 9689   5.898   7.466   4.111
 3249TIP3    H1 9690   5.855   7.512   4.038
 3249TIP3    H2 9691   5.829   7.411   4.148
 3250TIP3   OH2 9692   3.160   2.054   4.173
 3250TIP3    H1 9693   3.205   1.974   4.199
 3250TIP3    H2 9694   3.223   2.124   4.189
 3251TIP3   OH2 9695   6.346   2.935   0.287
 3251TIP3    H1 9696   6.370   2.845   0.264
 3251TIP3    H2 9697   6.417   2.988   0.251
 3252TIP3   OH2 9698   7.593   2.073   6.247
 3252TIP3    H1 9699   7.548   2.005   6.198
 3252TIP3    H2 9700   7.685   2.061   6.225
 3253TIP3   OH2 9701   7.429   1.653   5.553
 3253TIP3    H1 9702   7.397   1.644   5.464
 3253TIP3    H2 9703   7.415   1.567   5.593
 3254TIP3   OH2 9704   8.071   3.248   4.687
 3254TIP3    H1 9705   8.027   3.330   4.668
 3254TIP3    H2 9706   8.049   3.229   4.778
 3255TIP3   OH2 9707   0.067   4.592   3.685
 3255TIP3    H1 9708   0.088   4.544   3.605
 3255TIP3    H2 9709  -0.027   4.610   3.679
 3256TIP3   OH2 9710   2.156   2.404   5.728
 3256TIP3    H1 9711   2.180   2.314   5.706
 3256TIP3    H2 9712   2.171   2.411   5.822
 3257TIP3   OH2 9713   4.853   4.199   6.092
 3257TIP3    H1 9714   4.763   4.173   6.113
 3257TIP3    H2 9715   4.868   4.278   6.144
 3258TIP3   OH2 9716   5.247   6.896   4.331
 3258TIP3    H1 9717   5.175   6.954   4.307
 3258TIP3    H2 9718   5.224   6.863   4.419
 3259TIP3   OH2 9719   3.148   6.900   3.190
 3259TIP3    H1 9720   3.155   6.993   3.169
 3259TIP3    H2 9721   3.101   6.897   3.274
 3260TIP3   OH2 9722   5.157   7.096   4.584
 3260TIP3    H1 9723   5.085   7.077   4.524
 3260TIP3    H2 9724   5.151   7.190   4.600
 3261TIP3   OH2 9725   3.602   2.666   5.300
 3261TIP3    H1 9726   3.590   2.576   5.331
 3261TIP3    H2 9727   3.556   2.668   5.216
 3262TIP3   OH2 9728   8.240   5.123   3.662
 3262TIP3    H1 9729   8.274   5.057   3.602
 3262TIP3    H2 9730   8.213   5.195   3.606
 3263TIP3   OH2 9731   6.887   4.715   5.960
 3263TIP3    H1 9732   6.978   4.744   5.957
 3263TIP3    H2 9733   6.878   4.654   5.888
 3264TIP3   OH2 9734   4.261   4.558   5.051
 3264TIP3    H1 9735   4.353   4.581   5.036
 3264TIP3    H2 9736   4.254   4.467   5.022
 3265TIP3   OH2 9737   4.615   5.903   6.660
 3265TIP3    H1 9738   4.646   5.914   6.750
 3265TIP3    H2 9739   4.695   5.888   6.609
 3266TIP3   OH2 9740   6.435   7.489   5.769
 3266TIP3    H1 9741   6.395   7.489   5.855
 3266TIP3    H2 9742   6.361   7.490   5.708
 3267TIP3   OH2 9743   5.074   5.112   3.421
 3267TIP3    H1 9744   5.028   5.167   3.485
 3267TIP3    H2 9745   5.008   5.050   3.391
 3268TIP3   OH2 9746   7.055   7.354   6.486
 3268TIP3    H1 9747   7.006   7.385   6.409
 3268TIP3    H2 9748   7.000   7.379   6.560
 3269TIP3   OH2 9749   1.421   6.013   6.323
 3269TIP3    H1 9750   1.392   5.957   6.251
 3269TIP3    H2 9751   1.406   6.102   6.291
 3270TIP3   OH2 9752   6.141   3.418   0.289
 3270TIP3    H1 9753   6.198   3.342   0.283
 3270TIP3    H2 9754   6.189   3.488   0.245
 3271TIP3   OH2 9755   1.592   5.766   1.471
 3271TIP3    H1 9756   1.535   5.835   1.506
 3271TIP3    H2 9757   1.633   5.728   1.549
 3272TIP3   OH2 9758   3.572   0.972   0.110
 3272TIP3    H1 9759   3.621   0.910   0.057
 3272TIP3    H2 9760   3.501   1.002   0.054
 3273TIP3   OH2 9761   6.446   6.034   0.813
 3273TIP3    H1 9762   6.389   5.957   0.818
 3273TIP3    H2 9763   6.491   6.024   0.729
 3274TIP3   OH2 9764   1.853   0.025   0.851
 3274TIP3    H1 9765   1.843  -0.068   0.873
 3274TIP3    H2 9766   1.837   0.071   0.933
 3275TIP3   OH2 9767   2.378   4.595   2.979
 3275TIP3    H1 9768   2.398   4.561   3.066
 3275TIP3    H2 9769   2.418   4.682   2.978
 3276TIP3   OH2 9770   1.099   7.673   0.484
 3276TIP3    H1 9771   1.151   7.738   0.437
 3276TIP3    H2 9772   1.153   7.649   0.560
 3277TIP3   OH2 9773   0.274   1.316   6.777
 3277TIP3    H1 9774   0.326   1.302   6.698
 3277TIP3    H2 9775   0.190   1.350   6.745
 3278TIP3   OH2 9776   0.148   6.757   4.933
 3278TIP3    H1 9777   0.148   6.767   5.028
 3278TIP3    H2 9778   0.090   6.826   4.902
 3279TIP3   OH2 9779   2.502   0.922   3.362
 3279TIP3    H1 9780   2.483   0.952   3.273
 3279TIP3    H2 9781   2.540   0.835   3.350
 3280TIP3   OH2 9782   7.957   3.807   2.011
 3280TIP3    H1 9783   7.937   3.892   1.973
 3280TIP3    H2 9784   8.051   3.808   2.024
 3281TIP3   OH2 9785   8.292   5.297   6.364
 3281TIP3    H1 9786   8.260   5.291   6.274
 3281TIP3    H2 9787   8.249   5.224   6.409
 3282TIP3   OH2 9788   5.461   5.647   3.488
 3282TIP3    H1 9789   5.439   5.664   3.580
 3282TIP3    H2 9790   5.536   5.587   3.492
 3283TIP3   OH2 9791   7.000   1.124   4.672
 3283TIP3    H1 9792   7.037   1.036   4.673
 3283TIP3    H2 9793   7.058   1.174   4.616
 3284TIP3   OH2 9794   0.198   2.851   6.694
 3284TIP3    H1 9795   0.151   2.926   6.730
 3284TIP3    H2 9796   0.137   2.812   6.632
 3285TIP3   OH2 9797   0.450   1.353   3.642
 3285TIP3    H1 9798   0.538   1.387   3.660
 3285TIP3    H2 9799   0.464   1.262   3.618
 3286TIP3   OH2 9800   3.716   7.428   1.275
 3286TIP3    H1 9801   3.640   7.377   1.248
 3286TIP3    H2 9802   3.791   7.383   1.235
 3287TIP3   OH2 9803   2.670   6.460   1.293
 3287TIP3    H1 9804   2.685   6.375   1.335
 3287TIP3    H2 9805   2.649   6.439   1.202
 3288TIP3   OH2 9806   7.724   3.009   5.893
 3288TIP3    H1 9807   7.744   2.946   5.963
 3288TIP3    H2 9808   7.677   2.958   5.828
 3289TIP3   OH2 9809   4.499   1.626   3.237
 3289TIP3    H1 9810   4.538   1.710   3.264
 3289TIP3    H2 9811   4.574   1.567   3.227
 3290TIP3   OH2 9812   3.484   6.765   4.555
 3290TIP3    H1 9813   3.449   6.852   4.535
 3290TIP3    H2 9814   3.552   6.781   4.621
 3291TIP3   OH2 9815   1.563   2.294   0.837
 3291TIP3    H1 9816   1.603   2.222   0.787
 3291TIP3    H2 9817   1.511   2.342   0.772
 3292TIP3   OH2 9818   3.453   5.491   5.129
 3292TIP3    H1 9819   3.541   5.521   5.153
 3292TIP3    H2 9820   3.429   5.428   5.196
 3293TIP3   OH2 9821   7.091   7.388   4.449
 3293TIP3    H1 9822   7.075   7.379   4.543
 3293TIP3    H2 9823   7.019   7.339   4.408
 3294TIP3   OH2 9824   6.533   1.567   6.428
 3294TIP3    H1 9825   6.571   1.642   6.382
 3294TIP3    H2 9826   6.602   1.538   6.488
 3295TIP3   OH2 9827   0.873   0.948   2.267
 3295TIP3    H1 9828   0.792   0.994   2.246
 3295TIP3    H2 9829   0.902   0.912   2.183
 3296TIP3   OH2 9830   6.941   3.915   1.544
 3296TIP3    H1 9831   6.998   3.938   1.471
 3296TIP3    H2 9832   6.996   3.864   1.604
 3297TIP3   OH2 9833   1.124   0.754   2.854
 3297TIP3    H1 9834   1.148   0.762   2.762
 3297TIP3    H2 9835   1.087   0.839   2.877
 3298TIP3   OH2 9836   4.186   1.243   3.561
 3298TIP3    H1 9837   4.098   1.280   3.555
 3298TIP3    H2 9838   4.220   1.248   3.471
 3299TIP3   OH2 9839   7.034   2.082   6.011
 3299TIP3    H1 9840   6.985   2.162   6.033
 3299TIP3    H2 9841   7.105   2.112   5.955
 3300TIP3   OH2 9842   3.347   4.225   5.293
 3300TIP3    H1 9843   3.320   4.134   5.286
 3300TIP3    H2 9844   3.434   4.228   5.254
 3301TIP3   OH2 9845   5.496   5.630   1.796
 3301TIP3    H1 9846   5.536   5.702   1.845
 3301TIP3    H2 9847   5.548   5.553   1.821
 3302TIP3   OH2 9848   1.717   0.558   1.059
 3302TIP3    H1 9849   1.731   0.511   1.141
 3302TIP3    H2 9850   1.704   0.649   1.084
 3303TIP3   OH2 9851   7.094   0.805   0.551
 3303TIP3    H1 9852   7.170   0.749   0.539
 3303TIP3    H2 9853   7.098   0.867   0.478
 3304TIP3   OH2 9854   3.961   3.736   1.978
 3304TIP3    H1 9855   3.939   3.799   1.910
 3304TIP3    H2 9856   3.896   3.666   1.968
 3305TIP3   OH2 9857   5.333   6.513   5.028
 3305TIP3    H1 9858   5.400   6.505   5.096
 3305TIP3    H2 9859   5.305   6.604   5.032
 3306TIP3   OH2 9860   4.526   0.617   0.907
 3306TIP3    H1 9861   4.620   0.598   0.899
 3306TIP3    H2 9862   4.496   0.627   0.817
 3307TIP3   OH2 9863   2.363   4.130   3.724
 3307TIP3    H1 9864   2.281   4.161   3.762
 3307TIP3    H2 9865   2.347   4.037   3.706
 3308TIP3   OH2 9866   7.984   1.111   1.012
 3308TIP3    H1 9867   8.022   1.182   0.960
 3308TIP3    H2 9868   8.059   1.057   1.037
 3309TIP3   OH2 9869   3.710   0.657   3.750
 3309TIP3    H1 9870   3.691   0.603   3.673
 3309TIP3    H2 9871   3.647   0.629   3.816
 3310TIP3   OH2 9872   0.495   5.645   4.694
 3310TIP3    H1 9873   0.524   5.705   4.626
 3310TIP3    H2 9874   0.455   5.572   4.647
 3311TIP3   OH2 9875   5.566   4.103   1.581
 3311TIP3    H1 9876   5.542   4.157   1.656
 3311TIP3    H2 9877   5.526   4.148   1.506
 3312TIP3   OH2 9878   3.403   2.681   1.153
 3312TIP3    H1 9879   3.483   2.638   1.184
 3312TIP3    H2 9880   3.370   2.727   1.230
 3313TIP3   OH2 9881   2.072   5.534   0.678
 3313TIP3    H1 9882   2.117   5.451   0.690
 3313TIP3    H2 9883   1.979   5.513   0.687
 3314TIP3   OH2 9884   2.623   5.739   5.039
 3314TIP3    H1 9885   2.618   5.680   5.115
 3314TIP3    H2 9886   2.651   5.682   4.967
 3315TIP3   OH2 9887   0.302   2.007   5.201
 3315TIP3    H1 9888   0.353   2.007   5.282
 3315TIP3    H2 9889   0.367   2.002   5.132
 3316TIP3   OH2 9890   5.371   3.843   4.177
 3316TIP3    H1 9891   5.418   3.926   4.181
 3316TIP3    H2 9892   5.434   3.782   4.138
 3317TIP3   OH2 9893   3.650   2.434   3.020
 3317TIP3    H1 9894   3.625   2.524   2.997
 3317TIP3    H2 9895   3.743   2.428   2.997
 3318TIP3   OH2 9896   0.206   4.292   4.769
 3318TIP3    H1 9897   0.266   4.360   4.800
 3318TIP3    H2 9898   0.211   4.296   4.674
 3319TIP3   OH2 9899   7.153   6.683   6.184
 3319TIP3    H1 9900   7.067   6.650   6.210
 3319TIP3    H2 9901   7.141   6.778   6.176
 3320TIP3   OH2 9902   6.623   2.478   5.225
 3320TIP3    H1 9903   6.551   2.500   5.284
 3320TIP3    H2 9904   6.613   2.539   5.152
 3321TIP3   OH2 9905   4.032   3.341   4.699
 3321TIP3    H1 9906   3.948   3.386   4.694
 3321TIP3    H2 9907   4.047   3.329   4.793
 3322TIP3   OH2 9908   6.827   2.334   4.211
 3322TIP3    H1 9909   6.844   2.321   4.117
 3322TIP3    H2 9910   6.833   2.246   4.249
 3323TIP3   OH2 9911   1.203   3.665   3.188
 3323TIP3    H1 9912   1.159   3.730   3.243
 3323TIP3    H2 9913   1.187   3.582   3.232
 3324TIP3   OH2 9914   7.395   3.601   0.549
 3324TIP3    H1 9915   7.328   3.603   0.617
 3324TIP3    H2 9916   7.405   3.509   0.527
 3325TIP3   OH2 9917   2.268   5.118   1.011
 3325TIP3    H1 9918   2.299   5.034   0.977
 3325TIP3    H2 9919   2.346   5.159   1.050
 3326TIP3   OH2 9920   2.008   5.101   4.158
 3326TIP3    H1 9921   2.040   5.176   4.108
 3326TIP3    H2 9922   2.047   5.111   4.245
 3327TIP3   OH2 9923   1.210   5.127   3.242
 3327TIP3    H1 9924   1.182   5.058   3.302
 3327TIP3    H2 9925   1.165   5.206   3.274
 3328TIP3   OH2 9926   4.761   5.259   2.313
 3328TIP3    H1 9927   4.792   5.282   2.226
 3328TIP3    H2 9928   4.712   5.337   2.342
 3329TIP3   OH2 9929   0.359   0.356   2.185
 3329TIP3    H1 9930   0.348   0.448   2.161
 3329TIP3    H2 9931   0.388   0.357   2.276
 3330TIP3   OH2 9932   3.492   1.333   3.084
 3330TIP3    H1 9933   3.453   1.356   3.168
 3330TIP3    H2 9934   3.483   1.238   3.079
 3331TIP3   OH2 9935   0.588   4.476   3.936
 3331TIP3    H1 9936   0.509   4.421   3.936
 3331TIP3    H2 9937   0.602   4.498   4.029
 3332TIP3   OH2 9938   3.947   3.441   5.230
 3332TIP3    H1 9939   3.985   3.467   5.314
 3332TIP3    H2 9940   3.952   3.520   5.176
 3333TIP3   OH2 9941   0.197   7.649   5.554
 3333TIP3    H1 9942   0.244   7.644   5.471
 3333TIP3    H2 9943   0.122   7.592   5.542
 3334TIP3   OH2 9944   2.255   1.679   0.791
 3334TIP3    H1 9945   2.325   1.735   0.757
 3334TIP3    H2 9946   2.239   1.710   0.880
 3335TIP3   OH2 9947   6.062   1.830   6.260
 3335TIP3    H1 9948   6.145   1.784   6.247
 3335TIP3    H2 9949   6.004   1.794   6.194
 3336TIP3   OH2 9950   6.411   1.065   1.910
 3336TIP3    H1 9951   6.408   1.003   1.983
 3336TIP3    H2 9952   6.488   1.038   1.859
 3337TIP3   OH2 9953   5.810   0.912   5.350
 3337TIP3    H1 9954   5.852   0.959   5.422
 3337TIP3    H2 9955   5.846   0.823   5.354
 3338TIP3   OH2 9956   7.564   7.580   1.797
 3338TIP3    H1 9957   7.491   7.534   1.837
 3338TIP3    H2 9958   7.535   7.599   1.708
 3339TIP3   OH2 9959   3.038   1.787   4.249
 3339TIP3    H1 9960   3.009   1.829   4.168
 3339TIP3    H2 9961   2.996   1.838   4.318
 3340TIP3   OH2 9962   3.262   3.370   1.305
 3340TIP3    H1 9963   3.202   3.360   1.231
 3340TIP3    H2 9964   3.335   3.312   1.285
 3341TIP3   OH2 9965   7.662   2.664   2.420
 3341TIP3    H1 9966   7.607   2.742   2.405
 3341TIP3    H2 9967   7.656   2.616   2.338
 3342TIP3   OH2 9968   2.908   6.200   6.352
 3342TIP3    H1 9969   2.910   6.137   6.423
 3342TIP3    H2 9970   2.894   6.147   6.273
 3343TIP3   OH2 9971   0.241   5.637   0.522
 3343TIP3    H1 9972   0.305   5.680   0.578
 3343TIP3    H2 9973   0.252   5.679   0.437
 3344TIP3   OH2 9974   3.988   2.179   1.103
 3344TIP3    H1 9975   3.974   2.114   1.172
 3344TIP3    H2 9976   3.966   2.132   1.022
 3345TIP3   OH2 9977   4.817   2.402   3.569
 3345TIP3    H1 9978   4.854   2.339   3.508
 3345TIP3    H2 9979   4.739   2.436   3.524
 3346TIP3   OH2 9980   7.315   4.225   3.189
 3346TIP3    H1 9981   7.306   4.254   3.098
 3346TIP3    H2 9982   7.394   4.270   3.220
 3347TIP3   OH2 9983   0.222   3.408   1.966
 3347TIP3    H1 9984   0.249   3.404   2.057
 3347TIP3    H2 9985   0.280   3.473   1.926
 3348TIP3   OH2 9986   3.645   0.235   5.602
 3348TIP3    H1 9987   3.604   0.317   5.629
 3348TIP3    H2 9988   3.634   0.176   5.676
 3349TIP3   OH2 9989   4.209   2.495   3.445
 3349TIP3    H1 9990   4.262   2.423   3.480
 3349TIP3    H2 9991   4.173   2.460   3.364
 3350TIP3   OH2 9992   6.557   1.955   1.340
 3350TIP3    H1 9993   6.520   2.042   1.330
 3350TIP3    H2 9994   6.579   1.928   1.251
 3351TIP3   OH2 9995   5.867   0.681   3.403
 3351TIP3    H1 9996   5.841   0.603   3.354
 3351TIP3    H2 9997   5.866   0.653   3.495
 3352TIP3   OH2 9998   0.029   1.412   0.220
 3352TIP3    H1 9999   0.038   1.457   0.305
 3352TIP3    H210000   0.118   1.384   0.199
 3353TIP3   OH210001   2.958   3.876   2.928
 3353TIP3    H110002   2.962   3.852   3.020
 3353TIP3    H210003   3.041   3.847   2.891
 3354TIP3   OH210004   4.080   0.070   6.457
 3354TIP3    H110005   4.003   0.118   6.487
 3354TIP3    H210006   4.124   0.130   6.395
 3355TIP3   OH210007   5.215   5.214   3.169
 3355TIP3    H110008   5.176   5.148   3.111
 3355TIP3    H210009   5.180   5.193   3.256
 3356TIP3   OH210010   3.072   2.817   4.467
 3356TIP3    H110011   3.019   2.740   4.445
 3356TIP3    H210012   3.066   2.873   4.389
 3357TIP3   OH210013   7.165   6.661   6.585
 3357TIP3    H110014   7.231   6.720   6.550
 3357TIP3    H210015   7.110   6.638   6.510
 3358TIP3   OH210016   4.254   5.047   0.101
 3358TIP3    H110017   4.309   5.065   0.025
 3358TIP3    H210018   4.187   4.987   0.067
 3359TIP3   OH210019   0.857   5.477   5.180
 3359TIP3    H110020   0.913   5.399   5.180
 3359TIP3    H210021   0.918   5.551   5.178
 3360TIP3   OH210022   0.372   2.086   0.285
 3360TIP3    H110023   0.342   2.061   0.372
 3360TIP3    H210024   0.460   2.049   0.278
 3361TIP3   OH210025   4.246   6.771   2.791
 3361TIP3    H110026   4.299   6.848   2.768
 3361TIP3    H210027   4.244   6.772   2.887
 3362TIP3   OH210028   6.644   0.024   3.228
 3362TIP3    H110029   6.665   0.099   3.283
 3362TIP3    H210030   6.616  -0.044   3.289
 3363TIP3   OH210031   3.413   6.418   6.775
 3363TIP3    H110032   3.412   6.511   6.753
 3363TIP3    H210033   3.492   6.406   6.827
 3364TIP3   OH210034   5.072   1.323   4.007
 3364TIP3    H110035   5.084   1.410   4.045
 3364TIP3    H210036   5.145   1.314   3.946
 3365TIP3   OH210037   7.974   1.213   4.219
 3365TIP3    H110038   8.006   1.216   4.129
 3365TIP3    H210039   8.038   1.263   4.270
 3366TIP3   OH210040   4.983   3.738   6.095
 3366TIP3    H110041   4.971   3.818   6.045
 3366TIP3    H210042   4.922   3.746   6.169
 3367TIP3   OH210043   3.254   2.617   6.587
 3367TIP3    H110044   3.172   2.595   6.631
 3367TIP3    H210045   3.233   2.693   6.533
 3368TIP3   OH210046   2.698   1.194   3.317
 3368TIP3    H110047   2.649   1.237   3.387
 3368TIP3    H210048   2.631   1.154   3.262
 3369TIP3   OH210049   6.461   2.394   6.592
 3369TIP3    H110050   6.485   2.301   6.590
 3369TIP3    H210051   6.519   2.432   6.658
 3370TIP3   OH210052   2.497   5.573   0.168
 3370TIP3    H110053   2.573   5.558   0.223
 3370TIP3    H210054   2.449   5.643   0.212
 3371TIP3   OH210055   3.097   0.671   5.446
 3371TIP3    H110056   3.077   0.757   5.408
 3371TIP3    H210057   3.049   0.609   5.392
 3372TIP3   OH210058   0.697   2.539   3.836
 3372TIP3    H110059   0.737   2.587   3.764
 3372TIP3    H210060   0.726   2.449   3.824
 3373TIP3   OH210061   5.544   3.711   4.000
 3373TIP3    H110062   5.622   3.753   3.965
 3373TIP3    H210063   5.542   3.625   3.957
 3374TIP3   OH210064   3.607   0.465   3.545
 3374TIP3    H110065   3.662   0.404   3.595
 3374TIP3    H210066   3.531   0.413   3.521
 3375TIP3   OH210067   0.223   6.837   1.914
 3375TIP3    H110068   0.179   6.848   1.998
 3375TIP3    H210069   0.209   6.745   1.891
 3376TIP3   OH210070   3.280   4.045   2.748
 3376TIP3    H110071   3.190   4.069   2.770
 3376TIP3    H210072   3.272   3.978   2.680
 3377TIP3   OH210073   5.305   7.571   2.236
 3377TIP3    H110074   5.389   7.552   2.278
 3377TIP3    H210075   5.242   7.517   2.285
 3378TIP3   OH210076   6.883   3.974   3.147
 3378TIP3    H110077   6.847   3.973   3.236
 3378TIP3    H210078   6.977   3.980   3.160
 3379TIP3   OH210079   4.649   3.166   5.947
 3379TIP3    H110080   4.585   3.110   5.990
 3379TIP3    H210081   4.662   3.126   5.861
 3380TIP3   OH210082   6.848   0.734   2.317
 3380TIP3    H110083   6.879   0.804   2.374
 3380TIP3    H210084   6.755   0.724   2.338
 3381TIP3   OH210085   5.940   1.068   6.189
 3381TIP3    H110086   5.890   0.991   6.214
 3381TIP3    H210087   5.906   1.138   6.244
 3382TIP3   OH210088   2.312   2.329   5.987
 3382TIP3    H110089   2.237   2.270   5.998
 3382TIP3    H210090   2.291   2.404   6.044
 3383TIP3   OH210091   6.761   2.152   0.427
 3383TIP3    H110092   6.704   2.084   0.463
 3383TIP3    H210093   6.803   2.111   0.351
 3384TIP3   OH210094   5.394   4.013   5.630
 3384TIP3    H110095   5.484   4.002   5.662
 3384TIP3    H210096   5.339   3.997   5.707
 3385TIP3   OH210097   3.933   6.809   3.398
 3385TIP3    H110098   4.015   6.761   3.399
 3385TIP3    H210099   3.958   6.898   3.374
 3386TIP3   OH210100   7.337   3.777   6.498
 3386TIP3    H110101   7.350   3.731   6.581
 3386TIP3    H210102   7.398   3.734   6.438
 3387TIP3   OH210103   7.035   2.502   4.225
 3387TIP3    H110104   7.110   2.442   4.224
 3387TIP3    H210105   6.958   2.445   4.229
 3388TIP3   OH210106   1.342   6.399   4.268
 3388TIP3    H110107   1.310   6.358   4.349
 3388TIP3    H210108   1.375   6.484   4.296
 3389TIP3   OH210109   6.272   7.778   3.393
 3389TIP3    H110110   6.237   7.836   3.461
 3389TIP3    H210111   6.367   7.793   3.396
 3390TIP3   OH210112   3.184   6.430   4.409
 3390TIP3    H110113   3.181   6.402   4.317
 3390TIP3    H210114   3.099   6.470   4.424
 3391TIP3   OH210115   3.745   0.095   4.538
 3391TIP3    H110116   3.817   0.156   4.551
 3391TIP3    H210117   3.666   0.149   4.544
 3392TIP3   OH210118   3.635   4.456   2.646
 3392TIP3    H110119   3.706   4.393   2.660
 3392TIP3    H210120   3.556   4.411   2.676
 3393TIP3   OH210121   7.029   7.627   1.866
 3393TIP3    H110122   7.119   7.640   1.896
 3393TIP3    H210123   7.000   7.548   1.912
 3394TIP3   OH210124   3.152   6.380   3.888
 3394TIP3    H110125   3.165   6.472   3.910
 3394TIP3    H210126   3.194   6.332   3.959
 3395TIP3   OH210127   2.022   0.666   3.946
 3395TIP3    H110128   1.961   0.701   3.882
 3395TIP3    H210129   1.967   0.637   4.019
 3396TIP3   OH210130   6.519   2.967   6.690
 3396TIP3    H110131   6.522   2.919   6.772
 3396TIP3    H210132   6.440   2.934   6.646
 3397TIP3   OH210133   4.359   1.607   1.756
 3397TIP3    H110134   4.378   1.693   1.717
 3397TIP3    H210135   4.363   1.622   1.851
 3398TIP3   OH210136   1.739   3.992   1.498
 3398TIP3    H110137   1.797   4.069   1.502
 3398TIP3    H210138   1.748   3.960   1.408
 3399TIP3   OH210139   6.687   3.941   2.249
 3399TIP3    H110140   6.678   3.915   2.157
 3399TIP3    H210141   6.781   3.938   2.265
 3400TIP3   OH210142   0.259   1.716   1.485
 3400TIP3    H110143   0.173   1.680   1.511
 3400TIP3    H210144   0.311   1.639   1.463
 3401TIP3   OH210145   7.332   0.328   5.232
 3401TIP3    H110146   7.273   0.265   5.275
 3401TIP3    H210147   7.317   0.315   5.139
 3402TIP3   OH210148   5.903   4.522   3.259
 3402TIP3    H110149   5.824   4.482   3.294
 3402TIP3    H210150   5.899   4.505   3.165
 3403TIP3   OH210151   0.582   6.492   0.898
 3403TIP3    H110152   0.494   6.469   0.870
 3403TIP3    H210153   0.636   6.479   0.820
 3404TIP3   OH210154   5.159   3.028   4.708
 3404TIP3    H110155   5.082   3.054   4.759
 3404TIP3    H210156   5.169   3.097   4.642
 3405TIP3   OH210157   2.742   3.424   1.598
 3405TIP3    H110158   2.650   3.450   1.606
 3405TIP3    H210159   2.746   3.379   1.514
 3406TIP3   OH210160   1.722   2.584   4.544
 3406TIP3    H110161   1.697   2.517   4.608
 3406TIP3    H210162   1.649   2.646   4.545
 3407TIP3   OH210163   4.342   1.624   2.010
 3407TIP3    H110164   4.410   1.668   2.060
 3407TIP3    H210165   4.291   1.577   2.076
 3408TIP3   OH210166   4.404   3.533   1.993
 3408TIP3    H110167   4.398   3.536   2.088
 3408TIP3    H210168   4.368   3.617   1.964
 3409TIP3   OH210169   6.389   1.611   3.553
 3409TIP3    H110170   6.481   1.597   3.534
 3409TIP3    H210171   6.374   1.562   3.634
 3410TIP3   OH210172   3.867   0.589   6.629
 3410TIP3    H110173   3.861   0.684   6.618
 3410TIP3    H210174   3.830   0.574   6.716
 3411TIP3   OH210175   2.988   1.416   1.565
 3411TIP3    H110176   2.980   1.494   1.509
 3411TIP3    H210177   2.935   1.350   1.521
 3412TIP3   OH210178   4.668   5.691   5.084
 3412TIP3    H110179   4.720   5.611   5.095
 3412TIP3    H210180   4.580   5.667   5.113
 3413TIP3   OH210181   7.068   2.368   3.313
 3413TIP3    H110182   6.978   2.354   3.283
 3413TIP3    H210183   7.087   2.292   3.369
 3414TIP3   OH210184   6.192   7.226   2.332
 3414TIP3    H110185   6.157   7.311   2.305
 3414TIP3    H210186   6.263   7.209   2.270
 3415TIP3   OH210187   1.998   7.240   5.746
 3415TIP3    H110188   1.976   7.223   5.838
 3415TIP3    H210189   2.073   7.299   5.749
 3416TIP3   OH210190   6.043   3.246   0.113
 3416TIP3    H110191   6.077   3.274   0.028
 3416TIP3    H210192   5.997   3.323   0.146
 3417TIP3   OH210193   7.302   2.806   1.905
 3417TIP3    H110194   7.297   2.857   1.824
 3417TIP3    H210195   7.311   2.715   1.875
 3418TIP3   OH210196   5.103   1.496   2.620
 3418TIP3    H110197   5.133   1.578   2.582
 3418TIP3    H210198   5.013   1.514   2.649
 3419TIP3   OH210199   0.917   3.479   2.962
 3419TIP3    H110200   0.954   3.544   2.902
 3419TIP3    H210201   0.910   3.525   3.046
 3420TIP3   OH210202   7.553   2.562   1.310
 3420TIP3    H110203   7.500   2.483   1.320
 3420TIP3    H210204   7.500   2.620   1.255
 3421TIP3   OH210205   5.219   5.590   4.967
 3421TIP3    H110206   5.207   5.496   4.956
 3421TIP3    H210207   5.160   5.614   5.038
 3422TIP3   OH210208   4.322   4.608   0.564
 3422TIP3    H110209   4.319   4.643   0.653
 3422TIP3    H210210   4.235   4.627   0.528
 3423TIP3   OH210211   5.386   2.357   0.730
 3423TIP3    H110212   5.308   2.315   0.694
 3423TIP3    H210213   5.353   2.419   0.794
 3424TIP3   OH210214   6.944   5.620   2.713
 3424TIP3    H110215   6.927   5.528   2.689
 3424TIP3    H210216   6.858   5.655   2.737
 3425TIP3   OH210217   5.811   3.012   4.564
 3425TIP3    H110218   5.758   2.934   4.582
 3425TIP3    H210219   5.822   3.011   4.468
 3426TIP3   OH210220   6.557   6.849   1.676
 3426TIP3    H110221   6.637   6.896   1.700
 3426TIP3    H210222   6.492   6.918   1.660
 3427TIP3   OH210223   2.396   6.630   5.563
 3427TIP3    H110224   2.366   6.546   5.528
 3427TIP3    H210225   2.415   6.611   5.655
 3428TIP3   OH210226   7.335   3.824   3.881
 3428TIP3    H110227   7.371   3.781   3.958
 3428TIP3    H210228   7.256   3.868   3.912
 3429TIP3   OH210229   2.094   3.465   6.692
 3429TIP3    H110230   2.020   3.526   6.698
 3429TIP3    H210231   2.158   3.510   6.638
 3430TIP3   OH210232   4.248   3.252   5.729
 3430TIP3    H110233   4.270   3.182   5.790
 3430TIP3    H210234   4.160   3.229   5.697
 3431TIP3   OH210235   8.026   1.655   1.209
 3431TIP3    H110236   7.979   1.738   1.216
 3431TIP3    H210237   7.959   1.593   1.178
 3432TIP3   OH210238   0.812   1.644   0.767
 3432TIP3    H110239   0.904   1.624   0.786
 3432TIP3    H210240   0.806   1.642   0.672
 3433TIP3   OH210241   1.999   1.653   3.440
 3433TIP3    H110242   1.964   1.703   3.367
 3433TIP3    H210243   1.925   1.604   3.474
 3434TIP3   OH210244   2.812   5.494   1.772
 3434TIP3    H110245   2.745   5.474   1.706
 3434TIP3    H210246   2.869   5.417   1.772
 3435TIP3   OH210247   8.021   3.351   0.088
 3435TIP3    H110248   8.058   3.436   0.065
 3435TIP3    H210249   7.929   3.358   0.063
 3436TIP3   OH210250   1.252   6.178   1.005
 3436TIP3    H110251   1.320   6.244   1.002
 3436TIP3    H210252   1.289   6.102   0.959
 3437TIP3   OH210253   6.679   3.243   3.594
 3437TIP3    H110254   6.754   3.301   3.607
 3437TIP3    H210255   6.704   3.188   3.520
 3438TIP3   OH210256   1.223   4.627   0.446
 3438TIP3    H110257   1.318   4.629   0.447
 3438TIP3    H210258   1.197   4.657   0.533
 3439TIP3   OH210259   1.187   2.093   5.614
 3439TIP3    H110260   1.246   2.153   5.659
 3439TIP3    H210261   1.237   2.062   5.538
 3440TIP3   OH210262   5.669   1.278   4.160
 3440TIP3    H110263   5.605   1.242   4.221
 3440TIP3    H210264   5.659   1.225   4.080
 3441TIP3   OH210265   3.274   3.527   5.376
 3441TIP3    H110266   3.314   3.542   5.462
 3441TIP3    H210267   3.345   3.540   5.314
 3442TIP3   OH210268   3.422   7.144   3.600
 3442TIP3    H110269   3.449   7.135   3.509
 3442TIP3    H210270   3.387   7.233   3.606
 3443TIP3   OH210271   2.727   5.364   5.542
 3443TIP3    H110272   2.701   5.444   5.587
 3443TIP3    H210273   2.811   5.385   5.502
 3444TIP3   OH210274   5.370   2.581   1.108
 3444TIP3    H110275   5.411   2.608   1.026
 3444TIP3    H210276   5.426   2.618   1.176
 3445TIP3   OH210277   1.156   5.457   0.032
 3445TIP3    H110278   1.161   5.552   0.044
 3445TIP3    H210279   1.091   5.428   0.096
 3446TIP3   OH210280   6.636   1.554   5.950
 3446TIP3    H110281   6.566   1.619   5.957
 3446TIP3    H210282   6.697   1.576   6.021
 3447TIP3   OH210283   4.543   6.775   1.541
 3447TIP3    H110284   4.618   6.734   1.583
 3447TIP3    H210285   4.582   6.836   1.478
 3448TIP3   OH210286   1.112   3.545   0.900
 3448TIP3    H110287   1.044   3.478   0.904
 3448TIP3    H210288   1.064   3.628   0.897
 3449TIP3   OH210289   5.533   2.299   3.825
 3449TIP3    H110290   5.439   2.295   3.809
 3449TIP3    H210291   5.548   2.390   3.852
 3450TIP3   OH210292   7.578   4.728   4.251
 3450TIP3    H110293   7.583   4.802   4.190
 3450TIP3    H210294   7.552   4.767   4.334
 3451TIP3   OH210295   7.022   4.832   4.496
 3451TIP3    H110296   7.076   4.802   4.423
 3451TIP3    H210297   7.077   4.898   4.541
 3452TIP3   OH210298   7.313   2.650   2.256
 3452TIP3    H110299   7.236   2.594   2.249
 3452TIP3    H210300   7.373   2.618   2.188
 3453TIP3   OH210301   4.114   1.039   4.693
 3453TIP3    H110302   4.024   1.071   4.687
 3453TIP3    H210303   4.138   1.020   4.602
 3454TIP3   OH210304   3.103   7.164   5.002
 3454TIP3    H110305   3.121   7.258   5.009
 3454TIP3    H210306   3.020   7.159   4.956
 3455TIP3   OH210307   3.807   3.648   6.391
 3455TIP3    H110308   3.798   3.589   6.466
 3455TIP3    H210309   3.718   3.680   6.375
 3456TIP3   OH210310   0.464   1.018   6.217
 3456TIP3    H110311   0.523   1.023   6.142
 3456TIP3    H210312   0.522   1.006   6.292
 3457TIP3   OH210313   1.896   0.735   2.699
 3457TIP3    H110314   1.804   0.756   2.718
 3457TIP3    H210315   1.907   0.761   2.607
 3458TIP3   OH210316   1.240   3.801   1.329
 3458TIP3    H110317   1.335   3.788   1.325
 3458TIP3    H210318   1.203   3.714   1.317
 3459TIP3   OH210319   3.263   2.279   2.697
 3459TIP3    H110320   3.232   2.342   2.762
 3459TIP3    H210321   3.308   2.212   2.748
 3460TIP3   OH210322   4.959   5.414   4.298
 3460TIP3    H110323   4.978   5.357   4.373
 3460TIP3    H210324   4.874   5.385   4.267
 3461TIP3   OH210325   5.903   7.054   0.215
 3461TIP3    H110326   5.875   6.980   0.161
 3461TIP3    H210327   5.967   7.017   0.275
 3462TIP3   OH210328   7.421   6.691   6.223
 3462TIP3    H110329   7.330   6.711   6.201
 3462TIP3    H210330   7.446   6.623   6.160
 3463TIP3   OH210331   3.593   3.776   5.267
 3463TIP3    H110332   3.636   3.693   5.288
 3463TIP3    H210333   3.597   3.826   5.348
 3464TIP3   OH210334   4.729   6.771   3.428
 3464TIP3    H110335   4.819   6.761   3.396
 3464TIP3    H210336   4.693   6.843   3.375
 3465TIP3   OH210337   3.537   0.305   0.033
 3465TIP3    H110338   3.470   0.373   0.038
 3465TIP3    H210339   3.605   0.340  -0.024
 3466TIP3   OH210340   6.838   7.437   1.736
 3466TIP3    H110341   6.897   7.369   1.702
 3466TIP3    H210342   6.802   7.399   1.816
 3467TIP3   OH210343   0.250   2.932   4.224
 3467TIP3    H110344   0.314   2.922   4.295
 3467TIP3    H210345   0.166   2.940   4.268
 3468TIP3   OH210346  -0.028   1.171   0.877
 3468TIP3    H110347   0.048   1.218   0.910
 3468TIP3    H210348  -0.049   1.107   0.945
 3469TIP3   OH210349   5.877   1.887   0.629
 3469TIP3    H110350   5.862   1.979   0.651
 3469TIP3    H210351   5.824   1.871   0.551
 3470TIP3   OH210352   4.846   2.648   4.162
 3470TIP3    H110353   4.904   2.572   4.170
 3470TIP3    H210354   4.808   2.659   4.249
 3471TIP3   OH210355   0.731   5.244   5.685
 3471TIP3    H110356   0.797   5.197   5.632
 3471TIP3    H210357   0.781   5.280   5.758
 3472TIP3   OH210358   1.977  -0.019   4.831
 3472TIP3    H110359   1.884  -0.012   4.811
 3472TIP3    H210360   2.016   0.061   4.797
 3473TIP3   OH210361   0.277   5.919   5.001
 3473TIP3    H110362   0.241   5.833   5.024
 3473TIP3    H210363   0.212   5.956   4.941
 3474TIP3   OH210364   1.749   3.683   5.855
 3474TIP3    H110365   1.656   3.675   5.877
 3474TIP3    H210366   1.793   3.620   5.913
 3475TIP3   OH210367   2.175   0.516   0.480
 3475TIP3    H110368   2.218   0.592   0.441
 3475TIP3    H210369   2.237   0.445   0.469
 3476TIP3   OH210370   2.396   3.636   3.542
 3476TIP3    H110371   2.476   3.646   3.490
 3476TIP3    H210372   2.422   3.578   3.613
 3477TIP3   OH210373   7.240   1.301   3.215
 3477TIP3    H110374   7.171   1.317   3.150
 3477TIP3    H210375   7.202   1.329   3.298
 3478TIP3   OH210376   6.123   5.996   5.879
 3478TIP3    H110377   6.206   6.037   5.905
 3478TIP3    H210378   6.100   6.040   5.797
 3479TIP3   OH210379   5.878   5.068   1.643
 3479TIP3    H110380   5.943   5.026   1.587
 3479TIP3    H210381   5.799   5.074   1.589
 3480TIP3   OH210382   7.862   1.558   1.522
 3480TIP3    H110383   7.922   1.535   1.451
 3480TIP3    H210384   7.870   1.486   1.584
 3481TIP3   OH210385   7.699   2.471   1.786
 3481TIP3    H110386   7.717   2.477   1.692
 3481TIP3    H210387   7.785   2.459   1.826
 3482TIP3   OH210388   2.133   1.981   5.218
 3482TIP3    H110389   2.175   1.915   5.163
 3482TIP3    H210390   2.151   1.953   5.308
 3483TIP3   OH210391   3.582   1.698   5.143
 3483TIP3    H110392   3.588   1.743   5.059
 3483TIP3    H210393   3.526   1.755   5.196
 3484TIP3   OH210394   6.730   3.626   5.974
 3484TIP3    H110395   6.737   3.714   6.011
 3484TIP3    H210396   6.817   3.607   5.940
 3485TIP3   OH210397   7.380   3.747   1.499
 3485TIP3    H110398   7.470   3.724   1.478
 3485TIP3    H210399   7.328   3.675   1.464
 3486TIP3   OH210400   5.118   6.185   1.974
 3486TIP3    H110401   5.071   6.255   1.930
 3486TIP3    H210402   5.082   6.104   1.936
 3487TIP3   OH210403   4.393   0.152   3.757
 3487TIP3    H110404   4.352   0.221   3.810
 3487TIP3    H210405   4.374   0.177   3.667
 3488TIP3   OH210406   6.782   5.298   1.691
 3488TIP3    H110407   6.839   5.242   1.745
 3488TIP3    H210408   6.809   5.387   1.712
 3489TIP3   OH210409   3.678   2.655   5.608
 3489TIP3    H110410   3.588   2.623   5.604
 3489TIP3    H210411   3.695   2.691   5.520
 3490TIP3   OH210412   7.291   1.693   0.090
 3490TIP3    H110413   7.315   1.688  -0.002
 3490TIP3    H210414   7.269   1.785   0.105
 3491TIP3   OH210415   3.609   1.707   3.717
 3491TIP3    H110416   3.684   1.649   3.730
 3491TIP3    H210417   3.649   1.793   3.699
 3492TIP3   OH210418   5.608   5.169   4.389
 3492TIP3    H110419   5.655   5.202   4.313
 3492TIP3    H210420   5.584   5.247   4.438
 3493TIP3   OH210421   4.470   4.981   0.587
 3493TIP3    H110422   4.478   5.045   0.516
 3493TIP3    H210423   4.407   5.021   0.647
 3494TIP3   OH210424   0.722   1.960   4.418
 3494TIP3    H110425   0.745   1.952   4.325
 3494TIP3    H210426   0.663   1.886   4.434
 3495TIP3   OH210427   2.051   4.031   2.603
 3495TIP3    H110428   2.094   4.097   2.658
 3495TIP3    H210429   1.973   4.075   2.569
 3496TIP3   OH210430   7.496   3.819   2.220
 3496TIP3    H110431   7.551   3.764   2.277
 3496TIP3    H210432   7.543   3.822   2.137
 3497TIP3   OH210433   6.936   4.552   1.346
 3497TIP3    H110434   6.919   4.462   1.318
 3497TIP3    H210435   6.849   4.592   1.351
 3498TIP3   OH210436   8.197   1.510   0.967
 3498TIP3    H110437   8.150   1.589   0.995
 3498TIP3    H210438   8.187   1.509   0.872
 3499TIP3   OH210439   3.156   5.605   1.129
 3499TIP3    H110440   3.075   5.555   1.146
 3499TIP3    H210441   3.125   5.691   1.101
 3500TIP3   OH210442   8.209   3.865   2.035
 3500TIP3    H110443   8.283   3.813   2.065
 3500TIP3    H210444   8.224   3.952   2.071
 3501TIP3   OH210445   7.394   6.196   0.187
 3501TIP3    H110446   7.353   6.194   0.274
 3501TIP3    H210447   7.376   6.109   0.150
 3502TIP3   OH210448   2.695   2.495   0.248
 3502TIP3    H110449   2.755   2.499   0.323
 3502TIP3    H210450   2.716   2.413   0.204
 3503TIP3   OH210451   4.594   3.931   2.913
 3503TIP3    H110452   4.517   3.878   2.933
 3503TIP3    H210453   4.668   3.871   2.925
 3504TIP3   OH210454   7.820   0.006   3.509
 3504TIP3    H110455   7.819   0.095   3.545
 3504TIP3    H210456   7.816  -0.051   3.586
 3505TIP3   OH210457   0.017   1.689   4.398
 3505TIP3    H110458   0.042   1.635   4.473
 3505TIP3    H210459   0.011   1.778   4.433
 3506TIP3   OH210460   7.823   5.922   6.570
 3506TIP3    H110461   7.769   5.922   6.490
 3506TIP3    H210462   7.781   5.858   6.627
 3507TIP3   OH210463   6.474   1.669   5.249
 3507TIP3    H110464   6.384   1.686   5.223
 3507TIP3    H210465   6.525   1.733   5.200
 3508TIP3   OH210466   6.945   7.478   5.598
 3508TIP3    H110467   6.865   7.444   5.638
 3508TIP3    H210468   6.934   7.573   5.598
 3509TIP3   OH210469   3.471   1.988   0.775
 3509TIP3    H110470   3.385   1.968   0.738
 3509TIP3    H210471   3.518   2.030   0.703
 3510TIP3   OH210472   7.733   2.470   2.822
 3510TIP3    H110473   7.716   2.396   2.764
 3510TIP3    H210474   7.827   2.485   2.814
 3511TIP3   OH210475   0.340   4.662   3.719
 3511TIP3    H110476   0.358   4.676   3.813
 3511TIP3    H210477   0.245   4.669   3.712
 3512TIP3   OH210478   1.504   3.993   2.268
 3512TIP3    H110479   1.569   3.942   2.219
 3512TIP3    H210480   1.487   4.069   2.213
 3513TIP3   OH210481   8.156   2.222   6.626
 3513TIP3    H110482   8.234   2.172   6.648
 3513TIP3    H210483   8.115   2.240   6.710
 3514TIP3   OH210484   6.389   3.458   4.042
 3514TIP3    H110485   6.483   3.451   4.056
 3514TIP3    H210486   6.379   3.525   3.975
 3515TIP3   OH210487   6.656   1.585   3.496
 3515TIP3    H110488   6.699   1.519   3.442
 3515TIP3    H210489   6.711   1.591   3.574
 3516TIP3   OH210490   1.264   0.595   4.881
 3516TIP3    H110491   1.315   0.674   4.863
 3516TIP3    H210492   1.211   0.618   4.958
 3517TIP3   OH210493   1.233   3.340   1.388
 3517TIP3    H110494   1.282   3.419   1.415
 3517TIP3    H210495   1.143   3.371   1.376
 3518TIP3   OH210496   4.908   4.992   2.139
 3518TIP3    H110497   4.883   4.900   2.138
 3518TIP3    H210498   4.841   5.035   2.085
 3519TIP3   OH210499   3.399   7.675   6.206
 3519TIP3    H110500   3.401   7.738   6.134
 3519TIP3    H210501   3.463   7.708   6.269
 3520TIP3   OH210502   0.927   0.023   1.333
 3520TIP3    H110503   0.997  -0.042   1.321
 3520TIP3    H210504   0.950   0.069   1.414
 3521TIP3   OH210505   7.801   3.009   1.450
 3521TIP3    H110506   7.854   3.056   1.387
 3521TIP3    H210507   7.746   3.077   1.490
 3522TIP3   OH210508   4.593   3.495   5.365
 3522TIP3    H110509   4.546   3.433   5.423
 3522TIP3    H210510   4.670   3.446   5.337
 3523TIP3   OH210511   1.401   6.305   3.169
 3523TIP3    H110512   1.352   6.380   3.134
 3523TIP3    H210513   1.423   6.253   3.091
 3524TIP3   OH210514   5.811   3.023   0.242
 3524TIP3    H110515   5.858   2.947   0.275
 3524TIP3    H210516   5.880   3.079   0.204
 3525TIP3   OH210517   1.729   6.831   3.456
 3525TIP3    H110518   1.789   6.757   3.460
 3525TIP3    H210519   1.688   6.824   3.369
 3526TIP3   OH210520   2.690   2.469   1.587
 3526TIP3    H110521   2.667   2.424   1.668
 3526TIP3    H210522   2.785   2.480   1.591
 3527TIP3   OH210523   5.286   7.441   5.273
 3527TIP3    H110524   5.333   7.359   5.288
 3527TIP3    H210525   5.340   7.489   5.210
 3528TIP3   OH210526   7.414   5.485   3.416
 3528TIP3    H110527   7.344   5.549   3.410
 3528TIP3    H210528   7.370   5.401   3.431
 3529TIP3   OH210529   0.543   5.305   0.238
 3529TIP3    H110530   0.511   5.395   0.238
 3529TIP3    H210531   0.487   5.260   0.301
 3530TIP3   OH210532   2.470   1.913   3.523
 3530TIP3    H110533   2.561   1.914   3.494
 3530TIP3    H210534   2.446   1.820   3.527
 3531TIP3   OH210535   6.743   4.811   0.555
 3531TIP3    H110536   6.809   4.873   0.525
 3531TIP3    H210537   6.672   4.820   0.491
 3532TIP3   OH210538   2.402   0.606   5.136
 3532TIP3    H110539   2.375   0.651   5.056
 3532TIP3    H210540   2.329   0.547   5.156
 3533TIP3   OH210541   6.172   4.022   3.071
 3533TIP3    H110542   6.174   3.988   3.160
 3533TIP3    H210543   6.259   4.002   3.036
 3534TIP3   OH210544   3.837   4.796   1.450
 3534TIP3    H110545   3.798   4.867   1.500
 3534TIP3    H210546   3.763   4.746   1.416
 3535TIP3   OH210547   3.262   6.286   4.616
 3535TIP3    H110548   3.332   6.337   4.657
 3535TIP3    H210549   3.239   6.335   4.537
 3536TIP3   OH210550   5.380   1.849   6.716
 3536TIP3    H110551   5.405   1.815   6.630
 3536TIP3    H210552   5.285   1.840   6.719
 3537TIP3   OH210553   7.568   5.039   2.542
 3537TIP3    H110554   7.617   5.101   2.487
 3537TIP3    H210555   7.479   5.040   2.505
 3538TIP3   OH210556   3.268   2.699   2.232
 3538TIP3    H110557   3.354   2.662   2.250
 3538TIP3    H210558   3.223   2.631   2.181
 3539TIP3   OH210559   7.360   0.362   2.749
 3539TIP3    H110560   7.326   0.451   2.754
 3539TIP3    H210561   7.309   0.314   2.815
 3540TIP3   OH210562   3.726   0.947   3.895
 3540TIP3    H110563   3.725   0.854   3.871
 3540TIP3    H210564   3.749   0.948   3.988
 3541TIP3   OH210565   8.029   3.270   1.762
 3541TIP3    H110566   8.124   3.259   1.758
 3541TIP3    H210567   7.994   3.182   1.745
 3542TIP3   OH210568   8.080   2.513   0.297
 3542TIP3    H110569   8.028   2.481   0.223
 3542TIP3    H210570   8.024   2.498   0.373
 3543TIP3   OH210571   2.624   7.253   2.717
 3543TIP3    H110572   2.548   7.307   2.741
 3543TIP3    H210573   2.603   7.221   2.629
 3544TIP3   OH210574   5.206   3.915   3.261
 3544TIP3    H110575   5.151   3.866   3.200
 3544TIP3    H210576   5.167   4.002   3.264
 3545TIP3   OH210577   6.937   2.336   1.619
 3545TIP3    H110578   6.965   2.254   1.659
 3545TIP3    H210579   6.883   2.378   1.686
 3546TIP3   OH210580   2.053   7.481   5.985
 3546TIP3    H110581   2.131   7.464   6.037
 3546TIP3    H210582   2.085   7.518   5.904
 3547TIP3   OH210583   1.866   7.686   5.758
 3547TIP3    H110584   1.845   7.649   5.672
 3547TIP3    H210585   1.959   7.704   5.755
 3548TIP3   OH210586   5.687   0.033   6.012
 3548TIP3    H110587   5.703   0.102   6.076
 3548TIP3    H210588   5.727  -0.045   6.050
 3549TIP3   OH210589   2.636   7.600   4.037
 3549TIP3    H110590   2.612   7.657   3.964
 3549TIP3    H210591   2.557   7.597   4.092
 3550TIP3   OH210592   3.781   6.067   3.570
 3550TIP3    H110593   3.768   5.976   3.596
 3550TIP3    H210594   3.773   6.065   3.474
 3551TIP3   OH210595   6.319   5.115   4.279
 3551TIP3    H110596   6.228   5.125   4.250
 3551TIP3    H210597   6.316   5.045   4.343
 3552TIP3   OH210598   0.443   5.046   4.165
 3552TIP3    H110599   0.413   4.956   4.154
 3552TIP3    H210600   0.389   5.097   4.105
 3553TIP3   OH210601   3.894   2.118   2.892
 3553TIP3    H110602   3.974   2.169   2.903
 3553TIP3    H210603   3.910   2.037   2.940
 3554TIP3   OH210604   4.304   4.825   6.143
 3554TIP3    H110605   4.378   4.834   6.203
 3554TIP3    H210606   4.290   4.731   6.136
 3555TIP3   OH210607   0.012   5.419   5.079
 3555TIP3    H110608   0.084   5.471   5.113
 3555TIP3    H210609   0.014   5.433   4.985
 3556TIP3   OH210610   5.108   1.398   6.723
 3556TIP3    H110611   5.096   1.492   6.711
 3556TIP3    H210612   5.200   1.383   6.703
 3557TIP3   OH210613   0.515   3.511   5.000
 3557TIP3    H110614   0.505   3.466   5.084
 3557TIP3    H210615   0.430   3.552   4.984
 3558TIP3   OH210616   7.987   0.646   4.960
 3558TIP3    H110617   7.924   0.712   4.988
 3558TIP3    H210618   7.934   0.569   4.940
 3559TIP3   OH210619   7.681   5.671   1.690
 3559TIP3    H110620   7.605   5.616   1.711
 3559TIP3    H210621   7.714   5.635   1.608
 3560TIP3   OH210622   4.422   4.125   4.259
 3560TIP3    H110623   4.488   4.056   4.249
 3560TIP3    H210624   4.359   4.109   4.189
 3561TIP3   OH210625   0.890   7.031   1.170
 3561TIP3    H110626   0.817   6.987   1.212
 3561TIP3    H210627   0.893   6.994   1.082
 3562TIP3   OH210628   3.103   5.870   2.564
 3562TIP3    H110629   3.097   5.962   2.538
 3562TIP3    H210630   3.196   5.851   2.567
 3563TIP3   OH210631   4.125   0.903   1.726
 3563TIP3    H110632   4.125   0.989   1.685
 3563TIP3    H210633   4.188   0.911   1.798
 3564TIP3   OH210634   1.107   0.449   2.568
 3564TIP3    H110635   1.129   0.529   2.521
 3564TIP3    H210636   1.095   0.476   2.658
 3565TIP3   OH210637   5.540   0.737   1.472
 3565TIP3    H110638   5.582   0.816   1.507
 3565TIP3    H210639   5.578   0.727   1.385
 3566TIP3   OH210640   5.182   0.992   4.738
 3566TIP3    H110641   5.188   0.912   4.790
 3566TIP3    H210642   5.224   1.060   4.791
 3567TIP3   OH210643   4.296   0.787   5.130
 3567TIP3    H110644   4.287   0.830   5.045
 3567TIP3    H210645   4.340   0.852   5.185
 3568TIP3   OH210646   4.094   2.936   0.772
 3568TIP3    H110647   4.128   2.907   0.856
 3568TIP3    H210648   4.004   2.964   0.790
 3569TIP3   OH210649   5.869   2.367   4.664
 3569TIP3    H110650   5.900   2.324   4.585
 3569TIP3    H210651   5.777   2.387   4.647
 3570TIP3   OH210652   6.684   7.176   2.569
 3570TIP3    H110653   6.646   7.095   2.604
 3570TIP3    H210654   6.696   7.158   2.475
 3571TIP3   OH210655   7.796   5.763   5.185
 3571TIP3    H110656   7.828   5.750   5.096
 3571TIP3    H210657   7.836   5.691   5.235
 3572TIP3   OH210658   3.122   6.442   3.375
 3572TIP3    H110659   3.147   6.354   3.347
 3572TIP3    H210660   3.068   6.428   3.453
 3573TIP3   OH210661   1.448   1.305   4.072
 3573TIP3    H110662   1.372   1.319   4.128
 3573TIP3    H210663   1.411   1.274   3.990
 3574TIP3   OH210664   1.651   1.001   5.975
 3574TIP3    H110665   1.700   0.924   5.947
 3574TIP3    H210666   1.664   1.004   6.070
 3575TIP3   OH210667   6.603   6.910   4.895
 3575TIP3    H110668   6.649   6.980   4.850
 3575TIP3    H210669   6.665   6.876   4.959
 3576TIP3   OH210670   4.721   5.726   5.904
 3576TIP3    H110671   4.796   5.766   5.859
 3576TIP3    H210672   4.648   5.785   5.885
 3577TIP3   OH210673   5.741   2.790   1.661
 3577TIP3    H110674   5.707   2.711   1.620
 3577TIP3    H210675   5.686   2.861   1.627
 3578TIP3   OH210676   7.360   5.921   2.823
 3578TIP3    H110677   7.333   5.967   2.902
 3578TIP3    H210678   7.416   5.984   2.777
 3579TIP3   OH210679   2.787   3.800   4.677
 3579TIP3    H110680   2.701   3.801   4.719
 3579TIP3    H210681   2.771   3.835   4.589
 3580TIP3   OH210682   8.204   2.747   3.535
 3580TIP3    H110683   8.111   2.767   3.526
 3580TIP3    H210684   8.237   2.743   3.446
 3581TIP3   OH210685   7.324   3.505   1.651
 3581TIP3    H110686   7.259   3.557   1.698
 3581TIP3    H210687   7.393   3.490   1.716
 3582TIP3   OH210688   6.615   1.519   4.356
 3582TIP3    H110689   6.596   1.605   4.394
 3582TIP3    H210690   6.587   1.527   4.265
 3583TIP3   OH210691   6.099   6.188   2.009
 3583TIP3    H110692   6.064   6.130   2.077
 3583TIP3    H210693   6.151   6.252   2.057
 3584TIP3   OH210694   0.710   5.640   0.189
 3584TIP3    H110695   0.628   5.683   0.166
 3584TIP3    H210696   0.752   5.700   0.251
 3585TIP3   OH210697   6.323   5.005   2.612
 3585TIP3    H110698   6.297   4.928   2.562
 3585TIP3    H210699   6.276   5.078   2.571
 3586TIP3   OH210700   4.253   6.370   6.280
 3586TIP3    H110701   4.296   6.346   6.198
 3586TIP3    H210702   4.324   6.371   6.344
 3587TIP3   OH210703   4.597   4.798   0.750
 3587TIP3    H110704   4.562   4.872   0.701
 3587TIP3    H210705   4.602   4.830   0.840
 3588TIP3   OH210706   4.672   3.781   1.243
 3588TIP3    H110707   4.722   3.862   1.256
 3588TIP3    H210708   4.704   3.722   1.311
 3589TIP3   OH210709   1.811   1.157   4.738
 3589TIP3    H110710   1.889   1.172   4.685
 3589TIP3    H210711   1.785   1.244   4.768
 3590TIP3   OH210712   1.439   7.376   4.133
 3590TIP3    H110713   1.456   7.467   4.157
 3590TIP3    H210714   1.480   7.324   4.203
 3591TIP3   OH210715   6.179   3.831   4.994
 3591TIP3    H110716   6.221   3.901   4.943
 3591TIP3    H210717   6.201   3.851   5.085
 3592TIP3   OH210718   2.134   0.194   5.487
 3592TIP3    H110719   2.217   0.180   5.442
 3592TIP3    H210720   2.101   0.277   5.451
 3593TIP3   OH210721   3.846   5.798   4.069
 3593TIP3    H110722   3.865   5.850   4.147
 3593TIP3    H210723   3.777   5.846   4.024
 3594TIP3   OH210724   7.542   3.424   1.851
 3594TIP3    H110725   7.637   3.433   1.863
 3594TIP3    H210726   7.520   3.343   1.897
 3595TIP3   OH210727   3.582   7.195   3.386
 3595TIP3    H110728   3.531   7.211   3.307
 3595TIP3    H210729   3.604   7.102   3.383
 3596TIP3   OH210730   5.751   0.715   1.799
 3596TIP3    H110731   5.815   0.646   1.817
 3596TIP3    H210732   5.666   0.674   1.814
 3597TIP3   OH210733   7.722   3.184   0.420
 3597TIP3    H110734   7.789   3.132   0.377
 3597TIP3    H210735   7.645   3.126   0.424
 3598TIP3   OH210736   0.331   5.005   1.950
 3598TIP3    H110737   0.304   5.053   2.028
 3598TIP3    H210738   0.253   4.953   1.926
 3599TIP3   OH210739   2.307   6.760   2.362
 3599TIP3    H110740   2.261   6.838   2.331
 3599TIP3    H210741   2.282   6.752   2.454
 3600TIP3   OH210742   5.472   7.528   0.320
 3600TIP3    H110743   5.387   7.531   0.363
 3600TIP3    H210744   5.465   7.454   0.259
 3601TIP3   OH210745   2.173   1.858   5.993
 3601TIP3    H110746   2.154   1.778   5.945
 3601TIP3    H210747   2.188   1.829   6.083
 3602TIP3   OH210748   5.118   0.498   3.782
 3602TIP3    H110749   5.028   0.470   3.800
 3602TIP3    H210750   5.171   0.423   3.808
 3603TIP3   OH210751   5.184   4.760   2.824
 3603TIP3    H110752   5.112   4.793   2.771
 3603TIP3    H210753   5.143   4.701   2.888
 3604TIP3   OH210754   3.362   2.388   1.089
 3604TIP3    H110755   3.410   2.329   1.147
 3604TIP3    H210756   3.345   2.465   1.143
 3605TIP3   OH210757   4.586   3.704   4.881
 3605TIP3    H110758   4.681   3.701   4.892
 3605TIP3    H210759   4.558   3.612   4.885
 3606TIP3   OH210760   6.009   6.240   6.604
 3606TIP3    H110761   6.044   6.155   6.578
 3606TIP3    H210762   6.026   6.245   6.698
 3607TIP3   OH210763   5.006   4.509   2.027
 3607TIP3    H110764   5.035   4.501   2.118
 3607TIP3    H210765   4.916   4.478   2.028
 3608TIP3   OH210766   4.690   7.370   0.197
 3608TIP3    H110767   4.726   7.411   0.118
 3608TIP3    H210768   4.750   7.298   0.215
 3609TIP3   OH210769   7.765   2.842   6.103
 3609TIP3    H110770   7.687   2.801   6.141
 3609TIP3    H210771   7.810   2.882   6.177
 3610TIP3   OH210772   1.482   6.338   4.987
 3610TIP3    H110773   1.466   6.295   4.904
 3610TIP3    H210774   1.509   6.427   4.963
 3611TIP3   OH210775   3.549   6.079   4.924
 3611TIP3    H110776   3.474   6.102   4.980
 3611TIP3    H210777   3.509   6.041   4.845
 3612TIP3   OH210778   1.868   3.773   5.408
 3612TIP3    H110779   1.903   3.764   5.497
 3612TIP3    H210780   1.777   3.744   5.415
 3613TIP3   OH210781   3.857   4.718   0.850
 3613TIP3    H110782   3.847   4.776   0.925
 3613TIP3    H210783   3.952   4.703   0.844
 3614TIP3   OH210784   3.507   7.710   1.395
 3614TIP3    H110785   3.433   7.705   1.456
 3614TIP3    H210786   3.476   7.664   1.316
 3615TIP3   OH210787   0.554   5.869   2.089
 3615TIP3    H110788   0.640   5.846   2.054
 3615TIP3    H210789   0.491   5.827   2.030
 3616TIP3   OH210790   2.376   2.052   6.039
 3616TIP3    H110791   2.310   1.988   6.014
 3616TIP3    H210792   2.336   2.101   6.112
 3617TIP3   OH210793   4.759   0.597   1.240
 3617TIP3    H110794   4.777   0.675   1.292
 3617TIP3    H210795   4.700   0.545   1.294
 3618TIP3   OH210796   2.560   4.610   0.942
 3618TIP3    H110797   2.653   4.604   0.967
 3618TIP3    H210798   2.519   4.655   1.016
 3619TIP3   OH210799   7.964   6.024   5.615
 3619TIP3    H110800   7.962   5.965   5.689
 3619TIP3    H210801   7.945   6.110   5.652
 3620TIP3   OH210802   7.266   3.440   0.922
 3620TIP3    H110803   7.234   3.389   0.996
 3620TIP3    H210804   7.240   3.389   0.845
 3621TIP3   OH210805   5.527   0.740   0.683
 3621TIP3    H110806   5.591   0.720   0.615
 3621TIP3    H210807   5.550   0.829   0.712
 3622TIP3   OH210808   0.189   2.303   2.601
 3622TIP3    H110809   0.249   2.271   2.669
 3622TIP3    H210810   0.224   2.388   2.576
 3623TIP3   OH210811   6.392   0.517   5.596
 3623TIP3    H110812   6.340   0.438   5.615
 3623TIP3    H210813   6.482   0.493   5.618
 3624TIP3   OH210814   0.053   5.144   4.567
 3624TIP3    H110815   0.121   5.164   4.632
 3624TIP3    H210816   0.098   5.154   4.482
 3625TIP3   OH210817   0.466   2.021   2.510
 3625TIP3    H110818   0.432   2.098   2.557
 3625TIP3    H210819   0.388   1.969   2.491
 3626TIP3   OH210820   7.328   2.071   3.219
 3626TIP3    H110821   7.412   2.052   3.262
 3626TIP3    H210822   7.267   2.085   3.291
 3627TIP3   OH210823   6.660   4.698   1.705
 3627TIP3    H110824   6.638   4.758   1.776
 3627TIP3    H210825   6.753   4.712   1.689
 3628TIP3   OH210826   0.773   0.293   3.916
 3628TIP3    H110827   0.837   0.327   3.979
 3628TIP3    H210828   0.822   0.233   3.861
 3629TIP3   OH210829   2.027   1.105   1.335
 3629TIP3    H110830   2.063   1.039   1.276
 3629TIP3    H210831   2.090   1.110   1.406
 3630TIP3   OH210832   1.602   3.329   2.956
 3630TIP3    H110833   1.609   3.388   2.881
 3630TIP3    H210834   1.532   3.368   3.009
 3631TIP3   OH210835   6.990   2.563   3.538
 3631TIP3    H110836   7.043   2.554   3.459
 3631TIP3    H210837   6.909   2.517   3.519
 3632TIP3   OH210838   5.913   0.667   5.371
 3632TIP3    H110839   5.914   0.589   5.426
 3632TIP3    H210840   5.866   0.640   5.292
 3633TIP3   OH210841   5.419   6.364   4.050
 3633TIP3    H110842   5.417   6.460   4.048
 3633TIP3    H210843   5.430   6.343   4.143
 3634TIP3   OH210844   6.578   2.458   1.342
 3634TIP3    H110845   6.589   2.485   1.433
 3634TIP3    H210846   6.642   2.510   1.294
 3635TIP3   OH210847   7.177   0.793   1.490
 3635TIP3    H110848   7.086   0.765   1.490
 3635TIP3    H210849   7.224   0.722   1.532
 3636TIP3   OH210850   2.905   3.118   2.086
 3636TIP3    H110851   2.889   3.212   2.097
 3636TIP3    H210852   2.994   3.105   2.119
 3637TIP3   OH210853   4.174   6.014   3.871
 3637TIP3    H110854   4.234   6.089   3.867
 3637TIP3    H210855   4.108   6.032   3.805
 3638TIP3   OH210856   7.114   6.692   0.143
 3638TIP3    H110857   7.027   6.655   0.158
 3638TIP3    H210858   7.171   6.615   0.134
 3639TIP3   OH210859   4.871   1.725   0.517
 3639TIP3    H110860   4.859   1.696   0.427
 3639TIP3    H210861   4.964   1.710   0.536
 3640TIP3   OH210862   6.562   0.633   1.687
 3640TIP3    H110863   6.483   0.684   1.673
 3640TIP3    H210864   6.547   0.551   1.640
 3641TIP3   OH210865   4.164   6.503   5.623
 3641TIP3    H110866   4.071   6.518   5.608
 3641TIP3    H210867   4.208   6.560   5.560
 3642TIP3   OH210868   4.039   3.884   2.929
 3642TIP3    H110869   4.088   3.964   2.910
 3642TIP3    H210870   3.957   3.914   2.967
 3643TIP3   OH210871   4.744   2.341   6.196
 3643TIP3    H110872   4.719   2.430   6.223
 3643TIP3    H210873   4.832   2.351   6.161
 3644TIP3   OH210874   1.488   7.651   4.994
 3644TIP3    H110875   1.416   7.648   4.932
 3644TIP3    H210876   1.449   7.624   5.077
 3645TIP3   OH210877   7.941   1.478   4.709
 3645TIP3    H110878   7.904   1.545   4.766
 3645TIP3    H210879   7.951   1.401   4.765
 3646TIP3   OH210880   4.699   1.915   6.337
 3646TIP3    H110881   4.792   1.892   6.327
 3646TIP3    H210882   4.653   1.832   6.322
 3647TIP3   OH210883   5.279   5.472   2.610
 3647TIP3    H110884   5.248   5.432   2.529
 3647TIP3    H210885   5.296   5.563   2.588
 3648TIP3   OH210886   2.275   5.542   5.634
 3648TIP3    H110887   2.309   5.586   5.556
 3648TIP3    H210888   2.182   5.530   5.617
 3649TIP3   OH210889   0.579   4.745   4.180
 3649TIP3    H110890   0.492   4.780   4.158
 3649TIP3    H210891   0.635   4.773   4.108
 3650TIP3   OH210892   6.059   1.214   6.475
 3650TIP3    H110893   6.086   1.305   6.466
 3650TIP3    H210894   6.103   1.183   6.554
 3651TIP3   OH210895   1.634   7.676   3.698
 3651TIP3    H110896   1.656   7.767   3.719
 3651TIP3    H210897   1.622   7.634   3.783
 3652TIP3   OH210898   1.528   3.769   3.665
 3652TIP3    H110899   1.602   3.749   3.608
 3652TIP3    H210900   1.455   3.719   3.628
 3653TIP3   OH210901   7.722   2.569   1.526
 3653TIP3    H110902   7.790   2.627   1.491
 3653TIP3    H210903   7.652   2.571   1.461
 3654TIP3   OH210904   2.126   7.280   3.300
 3654TIP3    H110905   2.064   7.209   3.288
 3654TIP3    H210906   2.124   7.299   3.394
 3655TIP3   OH210907   7.573   7.561   5.295
 3655TIP3    H110908   7.595   7.627   5.230
 3655TIP3    H210909   7.510   7.503   5.252
 3656TIP3   OH210910   0.900   4.363   1.383
 3656TIP3    H110911   0.981   4.354   1.433
 3656TIP3    H210912   0.925   4.342   1.293
 3657TIP3   OH210913   1.740   3.735   0.247
 3657TIP3    H110914   1.750   3.770   0.159
 3657TIP3    H210915   1.695   3.805   0.296
 3658TIP3   OH210916   7.363   5.548   2.742
 3658TIP3    H110917   7.298   5.567   2.809
 3658TIP3    H210918   7.386   5.456   2.756
 3659TIP3   OH210919   1.206   0.721   2.568
 3659TIP3    H110920   1.296   0.690   2.577
 3659TIP3    H210921   1.207   0.777   2.490
 3660TIP3   OH210922   3.916   2.644   1.333
 3660TIP3    H110923   3.896   2.618   1.423
 3660TIP3    H210924   3.905   2.564   1.282
 3661TIP3   OH210925   6.446   7.125   6.466
 3661TIP3    H110926   6.514   7.147   6.402
 3661TIP3    H210927   6.489   7.131   6.551
 3662TIP3   OH210928   5.129   3.213   0.928
 3662TIP3    H110929   5.080   3.266   0.865
 3662TIP3    H210930   5.204   3.180   0.879
 3663TIP3   OH210931   4.398   2.651   5.418
 3663TIP3    H110932   4.415   2.586   5.485
 3663TIP3    H210933   4.313   2.688   5.441
 3664TIP3   OH210934   3.726   6.583   3.266
 3664TIP3    H110935   3.717   6.671   3.303
 3664TIP3    H210936   3.660   6.579   3.197
 3665TIP3   OH210937   6.260   2.301   4.105
 3665TIP3    H110938   6.296   2.371   4.052
 3665TIP3    H210939   6.285   2.220   4.060
 3666TIP3   OH210940   1.193   6.877   1.381
 3666TIP3    H110941   1.254   6.804   1.385
 3666TIP3    H210942   1.176   6.890   1.287
 3667TIP3   OH210943   4.026   7.261   1.436
 3667TIP3    H110944   4.033   7.255   1.341
 3667TIP3    H210945   4.108   7.225   1.469
 3668TIP3   OH210946   4.134   3.202   0.614
 3668TIP3    H110947   4.186   3.158   0.682
 3668TIP3    H210948   4.085   3.131   0.571
 3669TIP3   OH210949   4.856   2.823   3.795
 3669TIP3    H110950   4.924   2.882   3.828
 3669TIP3    H210951   4.903   2.745   3.765
 3670TIP3   OH210952   6.142   4.782   1.241
 3670TIP3    H110953   6.056   4.825   1.238
 3670TIP3    H210954   6.180   4.811   1.324
 3671TIP3   OH210955   7.597   4.883   1.185
 3671TIP3    H110956   7.505   4.885   1.157
 3671TIP3    H210957   7.629   4.798   1.155
 3672TIP3   OH210958   4.584   1.291   5.517
 3672TIP3    H110959   4.550   1.258   5.600
 3672TIP3    H210960   4.523   1.256   5.451
 3673TIP3   OH210961   4.300   2.001   4.035
 3673TIP3    H110962   4.218   1.953   4.022
 3673TIP3    H210963   4.367   1.933   4.037
 3674TIP3   OH210964   2.456   2.670   2.468
 3674TIP3    H110965   2.503   2.595   2.433
 3674TIP3    H210966   2.457   2.735   2.398
 3675TIP3   OH210967   4.153   4.325   4.909
 3675TIP3    H110968   4.124   4.261   4.843
 3675TIP3    H210969   4.244   4.341   4.887
 3676TIP3   OH210970   5.843   3.463   0.152
 3676TIP3    H110971   5.794   3.381   0.155
 3676TIP3    H210972   5.801   3.514   0.083
 3677TIP3   OH210973   7.778   6.758   4.106
 3677TIP3    H110974   7.716   6.821   4.141
 3677TIP3    H210975   7.841   6.744   4.177
 3678TIP3   OH210976   0.509   3.334   4.336
 3678TIP3    H110977   0.588   3.379   4.365
 3678TIP3    H210978   0.455   3.402   4.297
 3679TIP3   OH210979   7.621   0.533   2.483
 3679TIP3    H110980   7.576   0.606   2.441
 3679TIP3    H210981   7.674   0.495   2.413
 3680TIP3   OH210982   3.407   2.635   4.504
 3680TIP3    H110983   3.356   2.641   4.423
 3680TIP3    H210984   3.491   2.675   4.482
 3681TIP3   OH210985   0.565   1.097   1.640
 3681TIP3    H110986   0.541   1.188   1.622
 3681TIP3    H210987   0.513   1.073   1.716
 3682TIP3   OH210988   0.387   1.936   2.984
 3682TIP3    H110989   0.335   1.932   2.904
 3682TIP3    H210990   0.463   1.990   2.961
 3683TIP3   OH210991   5.505   1.020   5.458
 3683TIP3    H110992   5.516   0.970   5.377
 3683TIP3    H210993   5.416   1.053   5.454
 3684TIP3   OH210994   0.212   7.262   1.448
 3684TIP3    H110995   0.244   7.337   1.397
 3684TIP3    H210996   0.175   7.302   1.527
 3685TIP3   OH210997   2.347   0.078   0.934
 3685TIP3    H110998   2.439   0.053   0.933
 3685TIP3    H210999   2.301  -0.003   0.953
 3686TIP3   OH211000   4.248   1.626   5.033
 3686TIP3    H111001   4.169   1.636   4.980
 3686TIP3    H211002   4.222   1.658   5.120
 3687TIP3   OH211003   2.909   2.508   5.874
 3687TIP3    H111004   2.986   2.452   5.873
 3687TIP3    H211005   2.868   2.492   5.959
 3688TIP3   OH211006   3.089   6.650   1.305
 3688TIP3    H111007   2.996   6.667   1.323
 3688TIP3    H211008   3.119   6.598   1.380
 3689TIP3   OH211009   4.332   6.230   2.183
 3689TIP3    H111010   4.405   6.168   2.185
 3689TIP3    H211011   4.275   6.198   2.113
 3690TIP3   OH211012   1.090   1.868   6.597
 3690TIP3    H111013   1.131   1.891   6.681
 3690TIP3    H211014   1.014   1.927   6.591
 3691TIP3   OH211015   0.412   1.053   4.850
 3691TIP3    H111016   0.334   1.024   4.803
 3691TIP3    H211017   0.405   1.014   4.936
 3692TIP3   OH211018   2.918   3.274   3.514
 3692TIP3    H111019   2.995   3.229   3.478
 3692TIP3    H211020   2.950   3.316   3.594
 3693TIP3   OH211021   8.192   3.720   1.766
 3693TIP3    H111022   8.158   3.643   1.811
 3693TIP3    H211023   8.206   3.785   1.835
 3694TIP3   OH211024   6.165   0.978   3.148
 3694TIP3    H111025   6.218   0.919   3.202
 3694TIP3    H211026   6.084   0.930   3.133
 3695TIP3   OH211027   7.649   6.930   3.761
 3695TIP3    H111028   7.634   6.976   3.843
 3695TIP3    H211029   7.743   6.933   3.747
 3696TIP3   OH211030   4.612   5.819   4.662
 3696TIP3    H111031   4.661   5.900   4.649
 3696TIP3    H211032   4.521   5.844   4.649
 3697TIP3   OH211033   4.191   4.994   3.232
 3697TIP3    H111034   4.253   4.959   3.168
 3697TIP3    H211035   4.230   5.076   3.262
 3698TIP3   OH211036   6.240   3.174   3.227
 3698TIP3    H111037   6.243   3.091   3.180
 3698TIP3    H211038   6.182   3.230   3.175
 3699TIP3   OH211039   3.438   4.378   0.961
 3699TIP3    H111040   3.345   4.364   0.944
 3699TIP3    H211041   3.480   4.366   0.876
 3700TIP3   OH211042   8.038   5.247   4.952
 3700TIP3    H111043   8.055   5.154   4.968
 3700TIP3    H211044   8.117   5.292   4.984
 3701TIP3   OH211045   8.242   4.712   6.189
 3701TIP3    H111046   8.311   4.774   6.164
 3701TIP3    H211047   8.195   4.695   6.107
 3702TIP3   OH211048   2.116   3.701   5.247
 3702TIP3    H111049   2.175   3.775   5.232
 3702TIP3    H211050   2.043   3.737   5.296
 3703TIP3   OH211051   6.787   0.738   5.673
 3703TIP3    H111052   6.706   0.789   5.667
 3703TIP3    H211053   6.808   0.716   5.583
 3704TIP3   OH211054   4.206   7.106   2.329
 3704TIP3    H111055   4.198   7.104   2.233
 3704TIP3    H211056   4.134   7.052   2.360
 3705TIP3   OH211057   6.077   4.097   1.598
 3705TIP3    H111058   6.119   4.165   1.544
 3705TIP3    H211059   5.986   4.125   1.605
 3706TIP3   OH211060   0.729   4.247   4.152
 3706TIP3    H111061   0.739   4.341   4.165
 3706TIP3    H211062   0.803   4.223   4.095
 3707TIP3   OH211063   6.211   4.187   5.532
 3707TIP3    H111064   6.204   4.269   5.482
 3707TIP3    H211065   6.274   4.135   5.483
 3708TIP3   OH211066   6.544   1.295   2.964
 3708TIP3    H111067   6.537   1.384   3.000
 3708TIP3    H211068   6.453   1.264   2.961
 3709TIP3   OH211069   6.180   7.145   3.811
 3709TIP3    H111070   6.088   7.126   3.829
 3709TIP3    H211071   6.227   7.067   3.840
 3710TIP3   OH211072   7.903   7.772   5.799
 3710TIP3    H111073   7.983   7.779   5.852
 3710TIP3    H211074   7.936   7.754   5.710
 3711TIP3   OH211075   6.412   1.512   4.924
 3711TIP3    H111076   6.318   1.529   4.929
 3711TIP3    H211077   6.451   1.599   4.913
 3712TIP3   OH211078   6.563   2.287   4.993
 3712TIP3    H111079   6.507   2.289   5.070
 3712TIP3    H211080   6.617   2.365   5.000
 3713TIP3   OH211081   7.517   0.539   4.166
 3713TIP3    H111082   7.535   0.624   4.125
 3713TIP3    H211083   7.426   0.520   4.144
 3714TIP3   OH211084   0.630   3.038   4.614
 3714TIP3    H111085   0.721   3.044   4.645
 3714TIP3    H211086   0.617   2.946   4.595
 3715TIP3   OH211087   4.783   3.994   0.754
 3715TIP3    H111088   4.807   3.968   0.665
 3715TIP3    H211089   4.820   4.081   0.764
 3716TIP3   OH211090   6.050   2.083   6.401
 3716TIP3    H111091   6.063   2.011   6.339
 3716TIP3    H211092   6.058   2.162   6.348
 3717TIP3   OH211093   7.717   3.376   0.619
 3717TIP3    H111094   7.650   3.347   0.681
 3717TIP3    H211095   7.698   3.327   0.539
 3718TIP3   OH211096   0.827   7.447   5.167
 3718TIP3    H111097   0.885   7.519   5.194
 3718TIP3    H211098   0.886   7.385   5.122
 3719TIP3   OH211099   0.561   4.845   0.545
 3719TIP3    H111100   0.614   4.767   0.560
 3719TIP3    H211101   0.591   4.908   0.611
 3720TIP3   OH211102   4.277   7.005   5.160
 3720TIP3    H111103   4.278   6.925   5.212
 3720TIP3    H211104   4.280   6.975   5.069
 3721TIP3   OH211105   0.064   4.185   1.337
 3721TIP3    H111106   0.098   4.273   1.354
 3721TIP3    H211107   0.029   4.190   1.248
 3722TIP3   OH211108   2.376   7.687   4.107
 3722TIP3    H111109   2.360   7.688   4.202
 3722TIP3    H211110   2.336   7.605   4.077
 3723TIP3   OH211111   2.292   0.953   1.487
 3723TIP3    H111112   2.300   0.864   1.522
 3723TIP3    H211113   2.261   0.940   1.397
 3724TIP3   OH211114   8.299   1.177   4.545
 3724TIP3    H111115   8.216   1.223   4.536
 3724TIP3    H211116   8.332   1.169   4.456
 3725TIP3   OH211117   4.086   5.823   0.595
 3725TIP3    H111118   4.154   5.883   0.629
 3725TIP3    H211119   4.053   5.779   0.673
 3726TIP3   OH211120   3.124   5.364   2.593
 3726TIP3    H111121   3.154   5.429   2.529
 3726TIP3    H211122   3.147   5.280   2.554
 3727TIP3   OH211123   5.904   0.675   5.069
 3727TIP3    H111124   5.918   0.769   5.057
 3727TIP3    H211125   5.989   0.641   5.096
 3728TIP3   OH211126   0.161   3.698   6.150
 3728TIP3    H111127   0.144   3.610   6.183
 3728TIP3    H211128   0.098   3.754   6.196
 3729TIP3   OH211129   4.330   6.203   5.557
 3729TIP3    H111130   4.352   6.222   5.649
 3729TIP3    H211131   4.349   6.110   5.547
 3730TIP3   OH211132   2.436   3.359   5.533
 3730TIP3    H111133   2.464   3.332   5.620
 3730TIP3    H211134   2.502   3.422   5.505
 3731TIP3   OH211135   0.857   1.774   4.680
 3731TIP3    H111136   0.881   1.744   4.768
 3731TIP3    H211137   0.920   1.843   4.660
 3732TIP3   OH211138   0.086   7.706   1.320
 3732TIP3    H111139   0.091   7.768   1.247
 3732TIP3    H211140   0.000   7.666   1.312
 3733TIP3   OH211141   5.358   6.335   3.338
 3733TIP3    H111142   5.303   6.261   3.312
 3733TIP3    H211143   5.433   6.295   3.382
 3734TIP3   OH211144   5.588   1.865   2.289
 3734TIP3    H111145   5.534   1.928   2.337
 3734TIP3    H211146   5.589   1.787   2.345
 3735TIP3   OH211147   2.173   1.214   4.735
 3735TIP3    H111148   2.175   1.141   4.674
 3735TIP3    H211149   2.138   1.287   4.684
 3736TIP3   OH211150   1.850   4.216   6.482
 3736TIP3    H111151   1.774   4.160   6.468
 3736TIP3    H211152   1.924   4.166   6.448
 3737TIP3   OH211153   7.387   1.210   0.622
 3737TIP3    H111154   7.476   1.219   0.588
 3737TIP3    H211155   7.378   1.118   0.644
 3738TIP3   OH211156   1.381   7.092   2.303
 3738TIP3    H111157   1.392   7.140   2.385
 3738TIP3    H211158   1.370   7.159   2.236
 3739TIP3   OH211159   6.405   1.148   2.679
 3739TIP3    H111160   6.357   1.136   2.597
 3739TIP3    H211161   6.337   1.150   2.746
 3740TIP3   OH211162   3.362   1.739   1.438
 3740TIP3    H111163   3.443   1.703   1.401
 3740TIP3    H211164   3.296   1.671   1.420
 3741TIP3   OH211165   1.175   3.637   4.237
 3741TIP3    H111166   1.232   3.705   4.273
 3741TIP3    H211167   1.207   3.624   4.148
 3742TIP3   OH211168   0.709   4.834   1.019
 3742TIP3    H111169   0.707   4.756   1.076
 3742TIP3    H211170   0.795   4.830   0.976
 3743TIP3   OH211171   3.522   5.336   4.611
 3743TIP3    H111172   3.435   5.320   4.575
 3743TIP3    H211173   3.511   5.328   4.706
 3744TIP3   OH211174   4.806   5.624   2.508
 3744TIP3    H111175   4.790   5.626   2.413
 3744TIP3    H211176   4.801   5.715   2.536
 3745TIP3   OH211177   1.673   1.681   1.638
 3745TIP3    H111178   1.606   1.631   1.685
 3745TIP3    H211179   1.625   1.728   1.570
 3746TIP3   OH211180   1.556   0.064   1.754
 3746TIP3    H111181   1.533  -0.017   1.800
 3746TIP3    H211182   1.651   0.066   1.754
 3747TIP3   OH211183   6.365   7.616   4.967
 3747TIP3    H111184   6.270   7.616   4.976
 3747TIP3    H211185   6.381   7.645   4.877
 3748TIP3   OH211186   7.573   7.790   2.029
 3748TIP3    H111187   7.617   7.790   1.944
 3748TIP3    H211188   7.571   7.698   2.055
 3749TIP3   OH211189   6.132   0.194   3.924
 3749TIP3    H111190   6.160   0.186   4.015
 3749TIP3    H211191   6.052   0.247   3.928
 3750TIP3   OH211192   1.546   2.736   5.241
 3750TIP3    H111193   1.593   2.719   5.159
 3750TIP3    H211194   1.454   2.722   5.219
 3751TIP3   OH211195   5.159   4.574   0.958
 3751TIP3    H111196   5.241   4.526   0.944
 3751TIP3    H211197   5.116   4.573   0.872
 3752TIP3   OH211198   7.131   5.051   2.707
 3752TIP3    H111199   7.070   5.015   2.644
 3752TIP3    H211200   7.187   4.978   2.732
 3753TIP3   OH211201   1.472   5.269   5.873
 3753TIP3    H111202   1.567   5.258   5.877
 3753TIP3    H211203   1.459   5.364   5.883
 3754TIP3   OH211204   0.116   4.644   3.992
 3754TIP3    H111205   0.139   4.576   3.928
 3754TIP3    H211206   0.039   4.609   4.037
 3755TIP3   OH211207   0.299   4.544   2.515
 3755TIP3    H111208   0.268   4.603   2.446
 3755TIP3    H211209   0.295   4.596   2.595
 3756TIP3   OH211210   1.633   2.139   3.748
 3756TIP3    H111211   1.605   2.108   3.662
 3756TIP3    H211212   1.696   2.209   3.730
 3757TIP3   OH211213   3.823   3.043   1.839
 3757TIP3    H111214   3.782   3.025   1.754
 3757TIP3    H211215   3.903   2.991   1.838
 3758TIP3   OH211216   5.781   6.442   4.141
 3758TIP3    H111217   5.719   6.506   4.176
 3758TIP3    H211218   5.763   6.362   4.190
 3759TIP3   OH211219   5.560   6.613   2.369
 3759TIP3    H111220   5.625   6.613   2.439
 3759TIP3    H211221   5.592   6.678   2.306
 3760TIP3   OH211222   2.192   1.551   1.494
 3760TIP3    H111223   2.202   1.524   1.585
 3760TIP3    H211224   2.162   1.473   1.448
 3761TIP3   OH211225   4.008   4.211   1.316
 3761TIP3    H111226   4.037   4.197   1.407
 3761TIP3    H211227   3.987   4.124   1.284
 3762TIP3   OH211228   2.715   3.314   5.158
 3762TIP3    H111229   2.715   3.232   5.109
 3762TIP3    H211230   2.791   3.307   5.216
 3763TIP3   OH211231   3.404   6.739   5.770
 3763TIP3    H111232   3.461   6.780   5.835
 3763TIP3    H211233   3.375   6.812   5.714
 3764TIP3   OH211234   1.120   6.149   2.582
 3764TIP3    H111235   1.051   6.193   2.533
 3764TIP3    H211236   1.089   6.059   2.591
 3765TIP3   OH211237   6.304   4.871   4.417
 3765TIP3    H111238   6.215   4.865   4.452
 3765TIP3    H211239   6.294   4.856   4.323
 3766TIP3   OH211240   4.330   6.081   4.921
 3766TIP3    H111241   4.374   6.003   4.957
 3766TIP3    H211242   4.372   6.155   4.965
 3767TIP3   OH211243   6.142   6.378   0.462
 3767TIP3    H111244   6.134   6.396   0.556
 3767TIP3    H211245   6.051   6.375   0.431
 3768TIP3   OH211246   6.342   7.758   0.925
 3768TIP3    H111247   6.360   7.839   0.973
 3768TIP3    H211248   6.254   7.771   0.889
 3769TIP3   OH211249   4.703   4.444   5.213
 3769TIP3    H111250   4.631   4.491   5.256
 3769TIP3    H211251   4.751   4.404   5.285
 3770TIP3   OH211252   0.860   6.479   0.257
 3770TIP3    H111253   0.873   6.534   0.179
 3770TIP3    H211254   0.939   6.425   0.262
 3771TIP3   OH211255   3.510   2.603   2.238
 3771TIP3    H111256   3.588   2.641   2.278
 3771TIP3    H211257   3.479   2.539   2.302
 3772TIP3   OH211258   3.393   1.853   5.294
 3772TIP3    H111259   3.340   1.850   5.373
 3772TIP3    H211260   3.378   1.941   5.258
 3773TIP3   OH211261   0.157   7.113   3.975
 3773TIP3    H111262   0.135   7.173   4.046
 3773TIP3    H211263   0.222   7.160   3.923
 3774TIP3   OH211264   1.606   6.122   0.865
 3774TIP3    H111265   1.665   6.058   0.826
 3774TIP3    H211266   1.579   6.178   0.792
 3775TIP3   OH211267   5.499   5.677   4.934
 3775TIP3    H111268   5.410   5.658   4.961
 3775TIP3    H211269   5.525   5.751   4.989
 3776TIP3   OH211270   2.532   0.756   1.281
 3776TIP3    H111271   2.617   0.714   1.267
 3776TIP3    H211272   2.523   0.762   1.376
 3777TIP3   OH211273   2.215   7.324   4.442
 3777TIP3    H111274   2.173   7.260   4.500
 3777TIP3    H211275   2.169   7.406   4.459
 3778TIP3   OH211276   2.174   4.597   4.629
 3778TIP3    H111277   2.260   4.637   4.614
 3778TIP3    H211278   2.124   4.663   4.677
 3779TIP3   OH211279   7.505   0.827   4.506
 3779TIP3    H111280   7.495   0.733   4.516
 3779TIP3    H211281   7.526   0.839   4.413
 3780TIP3   OH211282   5.939   6.828   2.949
 3780TIP3    H111283   5.980   6.742   2.947
 3780TIP3    H211284   6.008   6.887   2.977
 3781TIP3   OH211285   7.573   3.601   4.640
 3781TIP3    H111286   7.645   3.628   4.584
 3781TIP3    H211287   7.558   3.677   4.697
 3782TIP3   OH211288   7.819   6.394   6.155
 3782TIP3    H111289   7.842   6.306   6.183
 3782TIP3    H211290   7.857   6.451   6.222
 3783TIP3   OH211291   4.681   2.926   2.535
 3783TIP3    H111292   4.589   2.938   2.512
 3783TIP3    H211293   4.682   2.924   2.631
 3784TIP3   OH211294   6.094   7.404   1.752
 3784TIP3    H111295   6.020   7.388   1.693
 3784TIP3    H211296   6.141   7.477   1.712
 3785TIP3   OH211297   5.489   1.507   5.454
 3785TIP3    H111298   5.444   1.583   5.419
 3785TIP3    H211299   5.451   1.432   5.407
 3786TIP3   OH211300   7.204   3.843  -0.015
 3786TIP3    H111301   7.214   3.907  -0.085
 3786TIP3    H211302   7.274   3.865   0.047
 3787TIP3   OH211303   2.548   5.528   4.082
 3787TIP3    H111304   2.574   5.463   4.147
 3787TIP3    H211305   2.563   5.612   4.124
 3788TIP3   OH211306   0.977   0.022   2.586
 3788TIP3    H111307   0.882   0.011   2.583
 3788TIP3    H211308   0.991   0.117   2.580
 3789TIP3   OH211309   1.145   1.616   5.104
 3789TIP3    H111310   1.187   1.556   5.043
 3789TIP3    H211311   1.161   1.578   5.191
 3790TIP3   OH211312   7.390   3.597   1.973
 3790TIP3    H111313   7.385   3.545   2.053
 3790TIP3    H211314   7.449   3.547   1.917
 3791TIP3   OH211315   1.056   6.988   0.446
 3791TIP3    H111316   1.058   6.894   0.430
 3791TIP3    H211317   1.138   7.007   0.492
 3792TIP3   OH211318   0.294   5.002   4.900
 3792TIP3    H111319   0.218   5.047   4.937
 3792TIP3    H211320   0.360   5.004   4.969
 3793TIP3   OH211321   3.937   3.621   4.998
 3793TIP3    H111322   3.987   3.652   4.922
 3793TIP3    H211323   3.860   3.578   4.961
 3794TIP3   OH211324   1.090   5.180   6.130
 3794TIP3    H111325   1.178   5.164   6.163
 3794TIP3    H211326   1.033   5.166   6.206
 3795TIP3   OH211327   0.402   6.956   4.698
 3795TIP3    H111328   0.442   7.021   4.755
 3795TIP3    H211329   0.477   6.909   4.659
 3796TIP3   OH211330   5.860   5.455   1.958
 3796TIP3    H111331   5.767   5.477   1.966
 3796TIP3    H211332   5.901   5.501   2.032
 3797TIP3   OH211333   6.874   1.993   6.722
 3797TIP3    H111334   6.856   1.899   6.718
 3797TIP3    H211335   6.823   2.024   6.796
 3798TIP3   OH211336   6.946   1.398   6.208
 3798TIP3    H111337   7.014   1.453   6.247
 3798TIP3    H211338   6.885   1.460   6.168
 3799TIP3   OH211339   7.318   4.032   1.472
 3799TIP3    H111340   7.337   3.940   1.450
 3799TIP3    H211341   7.228   4.046   1.443
 3800TIP3   OH211342   0.258   4.241   0.523
 3800TIP3    H111343   0.287   4.232   0.432
 3800TIP3    H211344   0.222   4.155   0.545
 3801TIP3   OH211345   4.477   2.439   4.158
 3801TIP3    H111346   4.493   2.345   4.146
 3801TIP3    H211347   4.512   2.479   4.079
 3802TIP3   OH211348   3.751   2.483   0.650
 3802TIP3    H111349   3.691   2.441   0.711
 3802TIP3    H211350   3.816   2.526   0.705
 3803TIP3   OH211351   0.811   7.095   0.573
 3803TIP3    H111352   0.869   7.154   0.621
 3803TIP3    H211353   0.867   7.055   0.506
 3804TIP3   OH211354   1.207   7.591   0.735
 3804TIP3    H111355   1.239   7.517   0.683
 3804TIP3    H211356   1.230   7.569   0.825
 3805TIP3   OH211357   5.909   7.150   2.663
 3805TIP3    H111358   5.924   7.241   2.636
 3805TIP3    H211359   5.819   7.150   2.695
 3806TIP3   OH211360   6.858   0.871   4.346
 3806TIP3    H111361   6.789   0.929   4.314
 3806TIP3    H211362   6.836   0.858   4.439
 3807TIP3   OH211363   3.225   4.559   3.521
 3807TIP3    H111364   3.184   4.520   3.598
 3807TIP3    H211365   3.262   4.485   3.473
 3808TIP3   OH211366   4.585   0.391   6.711
 3808TIP3    H111367   4.507   0.336   6.717
 3808TIP3    H211368   4.645   0.354   6.777
 3809TIP3   OH211369   0.905   1.421   4.806
 3809TIP3    H111370   0.943   1.339   4.837
 3809TIP3    H211371   0.841   1.395   4.740
 3810TIP3   OH211372   1.933   7.147   0.053
 3810TIP3    H111373   1.976   7.131  -0.031
 3810TIP3    H211374   1.850   7.189   0.030
 3811TIP3   OH211375   5.139   3.302   2.994
 3811TIP3    H111376   5.099   3.278   2.910
 3811TIP3    H211377   5.170   3.219   3.029
 3812TIP3   OH211378   2.754   2.220   2.827
 3812TIP3    H111379   2.801   2.244   2.747
 3812TIP3    H211380   2.821   2.220   2.895
 3813TIP3   OH211381   0.913   0.921   6.672
 3813TIP3    H111382   0.919   0.975   6.593
 3813TIP3    H211383   0.982   0.953   6.729
 3814TIP3   OH211384   1.058   7.776   5.934
 3814TIP3    H111385   1.054   7.759   5.840
 3814TIP3    H211386   0.967   7.774   5.963
 3815TIP3   OH211387   1.164   7.263   3.236
 3815TIP3    H111388   1.256   7.287   3.225
 3815TIP3    H211389   1.146   7.281   3.329
 3816TIP3   OH211390   2.299   6.622   1.076
 3816TIP3    H111391   2.315   6.581   0.991
 3816TIP3    H211392   2.237   6.563   1.119
 3817TIP3   OH211393   4.378   4.540   0.256
 3817TIP3    H111394   4.363   4.634   0.272
 3817TIP3    H211395   4.397   4.535   0.162
 3818TIP3   OH211396   7.674   4.182   2.328
 3818TIP3    H111397   7.686   4.165   2.422
 3818TIP3    H211398   7.723   4.111   2.285
 3819TIP3   OH211399   2.482   7.180   3.134
 3819TIP3    H111400   2.504   7.112   3.197
 3819TIP3    H211401   2.395   7.157   3.102
 3820TIP3   OH211402  -0.011   4.592   4.409
 3820TIP3    H111403  -0.062   4.543   4.474
 3820TIP3    H211404   0.026   4.666   4.458
 3821TIP3   OH211405   7.072   1.647   3.516
 3821TIP3    H111406   7.165   1.656   3.494
 3821TIP3    H211407   7.045   1.564   3.475
 3822TIP3   OH211408   3.545   2.262   1.252
 3822TIP3    H111409   3.628   2.214   1.246
 3822TIP3    H211410   3.491   2.210   1.311
 3823TIP3   OH211411   2.963   3.287   4.193
 3823TIP3    H111412   2.904   3.339   4.248
 3823TIP3    H211413   2.986   3.345   4.120
 3824TIP3   OH211414   3.078   5.281   2.098
 3824TIP3    H111415   2.987   5.272   2.069
 3824TIP3    H211416   3.130   5.269   2.019
 3825TIP3   OH211417   5.149   7.718   0.031
 3825TIP3    H111418   5.194   7.714   0.115
 3825TIP3    H211419   5.128   7.811   0.020
 3826TIP3   OH211420   2.648   1.715   1.088
 3826TIP3    H111421   2.646   1.654   1.161
 3826TIP3    H211422   2.564   1.703   1.044
 3827TIP3   OH211423   5.991   6.681   6.161
 3827TIP3    H111424   6.057   6.707   6.226
 3827TIP3    H211425   5.942   6.611   6.203
 3828TIP3   OH211426   5.706   7.675   6.054
 3828TIP3    H111427   5.729   7.727   5.977
 3828TIP3    H211428   5.651   7.604   6.019
 3829TIP3   OH211429   6.098   1.747   4.508
 3829TIP3    H111430   6.193   1.757   4.498
 3829TIP3    H211431   6.066   1.733   4.419
 3830TIP3   OH211432   4.301   3.495   2.751
 3830TIP3    H111433   4.372   3.487   2.815
 3830TIP3    H211434   4.222   3.507   2.804
 3831TIP3   OH211435   7.870   7.259   4.734
 3831TIP3    H111436   7.943   7.208   4.699
 3831TIP3    H211437   7.824   7.198   4.792
 3832TIP3   OH211438   2.716   5.958   6.518
 3832TIP3    H111439   2.626   5.947   6.487
 3832TIP3    H211440   2.718   6.047   6.553
 3833TIP3   OH211441   5.356   6.842   2.540
 3833TIP3    H111442   5.450   6.822   2.547
 3833TIP3    H211443   5.330   6.864   2.629
 3834TIP3   OH211444   8.067   6.283   0.200
 3834TIP3    H111445   8.067   6.331   0.282
 3834TIP3    H211446   7.989   6.312   0.154
 3835TIP3   OH211447   7.613   2.281   3.135
 3835TIP3    H111448   7.676   2.230   3.084
 3835TIP3    H211449   7.533   2.279   3.082
 3836TIP3   OH211450   3.669   5.654   6.160
 3836TIP3    H111451   3.764   5.655   6.171
 3836TIP3    H211452   3.650   5.732   6.109
 3837TIP3   OH211453   1.796   4.983   6.052
 3837TIP3    H111454   1.862   4.927   6.010
 3837TIP3    H211455   1.727   4.922   6.079
 3838TIP3   OH211456   1.910   2.515   2.594
 3838TIP3    H111457   1.910   2.420   2.587
 3838TIP3    H211458   1.940   2.546   2.508
 3839TIP3   OH211459   2.764   4.259   2.589
 3839TIP3    H111460   2.697   4.234   2.652
 3839TIP3    H211461   2.781   4.180   2.538
 3840TIP3   OH211462   0.609   0.085   5.959
 3840TIP3    H111463   0.639   0.037   6.037
 3840TIP3    H211464   0.641   0.033   5.885
 3841TIP3   OH211465   0.494   6.628   0.058
 3841TIP3    H111466   0.468   6.569   0.129
 3841TIP3    H211467   0.585   6.607   0.041
 3842TIP3   OH211468   3.177   6.647   4.002
 3842TIP3    H111469   3.195   6.708   3.930
 3842TIP3    H211470   3.257   6.648   4.054
 3843TIP3   OH211471   7.419   3.749   3.126
 3843TIP3    H111472   7.417   3.694   3.204
 3843TIP3    H211473   7.511   3.768   3.112
 3844TIP3   OH211474   4.828   1.601   4.879
 3844TIP3    H111475   4.768   1.675   4.866
 3844TIP3    H211476   4.771   1.526   4.894
 3845TIP3   OH211477   6.603   1.019   2.479
 3845TIP3    H111478   6.663   1.031   2.405
 3845TIP3    H211479   6.570   1.107   2.496
 3846TIP3   OH211480   1.906   6.982   2.562
 3846TIP3    H111481   1.944   6.895   2.552
 3846TIP3    H211482   1.899   7.016   2.473
 3847TIP3   OH211483   5.435   0.121   1.262
 3847TIP3    H111484   5.524   0.134   1.293
 3847TIP3    H211485   5.386   0.093   1.340
 3848TIP3   OH211486   3.625   2.049   1.040
 3848TIP3    H111487   3.559   2.056   0.972
 3848TIP3    H211488   3.603   1.969   1.088
 3849TIP3   OH211489   7.731   7.431   6.241
 3849TIP3    H111490   7.812   7.426   6.190
 3849TIP3    H211491   7.685   7.508   6.208
 3850TIP3   OH211492   7.399   0.647   2.023
 3850TIP3    H111493   7.354   0.563   2.028
 3850TIP3    H211494   7.467   0.635   1.957
 3851TIP3   OH211495   3.399   2.159   5.492
 3851TIP3    H111496   3.383   2.203   5.575
 3851TIP3    H211497   3.344   2.081   5.495
 3852TIP3   OH211498   2.930   5.524   1.230
 3852TIP3    H111499   2.926   5.447   1.287
 3852TIP3    H211500   2.840   5.534   1.198
 3853TIP3   OH211501   0.511   4.233   1.820
 3853TIP3    H111502   0.533   4.258   1.909
 3853TIP3    H211503   0.544   4.305   1.765
 3854TIP3   OH211504   1.606   1.046   4.882
 3854TIP3    H111505   1.591   1.017   4.792
 3854TIP3    H211506   1.687   1.099   4.877
 3855TIP3   OH211507   1.303   2.562   4.660
 3855TIP3    H111508   1.354   2.638   4.631
 3855TIP3    H211509   1.309   2.500   4.586
 3856TIP3   OH211510   1.840   6.568   5.318
 3856TIP3    H111511   1.890   6.635   5.366
 3856TIP3    H211512   1.766   6.615   5.282
 3857TIP3   OH211513   5.619   3.926   1.940
 3857TIP3    H111514   5.560   3.936   1.864
 3857TIP3    H211515   5.704   3.908   1.901
 3858TIP3   OH211516   0.854   1.204   1.117
 3858TIP3    H111517   0.848   1.240   1.205
 3858TIP3    H211518   0.900   1.121   1.127
 3859TIP3   OH211519   1.788   3.697   4.413
 3859TIP3    H111520   1.777   3.765   4.347
 3859TIP3    H211521   1.871   3.718   4.456
 3860TIP3   OH211522   1.847   2.806   5.623
 3860TIP3    H111523   1.862   2.882   5.680
 3860TIP3    H211524   1.896   2.826   5.543
 3861TIP3   OH211525   1.583   3.296   1.249
 3861TIP3    H111526   1.530   3.261   1.178
 3861TIP3    H211527   1.594   3.222   1.310
 3862TIP3   OH211528   2.862   4.199   3.227
 3862TIP3    H111529   2.840   4.251   3.304
 3862TIP3    H211530   2.948   4.162   3.247
 3863TIP3   OH211531   4.497   4.358   2.688
 3863TIP3    H111532   4.565   4.307   2.644
 3863TIP3    H211533   4.457   4.297   2.750
 3864TIP3   OH211534   6.026   1.747   2.387
 3864TIP3    H111535   6.017   1.828   2.338
 3864TIP3    H211536   5.951   1.694   2.359
 3865TIP3   OH211537   3.296   5.393   1.010
 3865TIP3    H111538   3.345   5.414   0.931
 3865TIP3    H211539   3.253   5.475   1.034
 3866TIP3   OH211540   4.918   4.704   2.980
 3866TIP3    H111541   4.842   4.758   2.999
 3866TIP3    H211542   4.936   4.659   3.063
 3867TIP3   OH211543   0.366   2.794   0.656
 3867TIP3    H111544   0.317   2.738   0.596
 3867TIP3    H211545   0.371   2.744   0.737
 3868TIP3   OH211546   8.003   2.541   6.173
 3868TIP3    H111547   8.038   2.483   6.241
 3868TIP3    H211548   8.081   2.580   6.134
 3869TIP3   OH211549   0.395   1.202   4.302
 3869TIP3    H111550   0.478   1.160   4.279
 3869TIP3    H211551   0.386   1.187   4.396
 3870TIP3   OH211552   3.587   4.998   6.152
 3870TIP3    H111553   3.501   4.990   6.112
 3870TIP3    H211554   3.645   4.951   6.092
 3871TIP3   OH211555   5.153   4.712   5.582
 3871TIP3    H111556   5.122   4.631   5.541
 3871TIP3    H211557   5.172   4.688   5.673
 3872TIP3   OH211558   0.838   6.267   4.776
 3872TIP3    H111559   0.891   6.198   4.815
 3872TIP3    H211560   0.873   6.278   4.688
 3873TIP3   OH211561   0.217   1.757   4.968
 3873TIP3    H111562   0.156   1.830   4.980
 3873TIP3    H211563   0.304   1.799   4.970
 3874TIP3   OH211564   6.493   0.428   4.446
 3874TIP3    H111565   6.403   0.397   4.458
 3874TIP3    H211566   6.546   0.349   4.457
 3875TIP3   OH211567   5.433   7.586   5.101
 3875TIP3    H111568   5.508   7.644   5.085
 3875TIP3    H211569   5.379   7.595   5.022
 3876TIP3   OH211570   7.376   5.495   3.089
 3876TIP3    H111571   7.296   5.527   3.131
 3876TIP3    H211572   7.421   5.574   3.059
 3877TIP3   OH211573   6.024   2.845   0.280
 3877TIP3    H111574   6.099   2.790   0.259
 3877TIP3    H211575   6.060   2.933   0.289
 3878TIP3   OH211576   0.603   6.071   2.848
 3878TIP3    H111577   0.561   6.158   2.849
 3878TIP3    H211578   0.666   6.075   2.776
 3879TIP3   OH211579   4.737   1.056   6.778
 3879TIP3    H111580   4.793   1.118   6.731
 3879TIP3    H211581   4.703   0.997   6.711
 3880TIP3   OH211582   3.353   0.263   2.158
 3880TIP3    H111583   3.380   0.254   2.067
 3880TIP3    H211584   3.300   0.185   2.176
 3881TIP3   OH211585   3.850   5.162   3.822
 3881TIP3    H111586   3.800   5.241   3.802
 3881TIP3    H211587   3.938   5.194   3.843
 3882TIP3   OH211588   2.986   0.080   4.568
 3882TIP3    H111589   2.980  -0.001   4.518
 3882TIP3    H211590   2.941   0.146   4.516
 3883TIP3   OH211591   2.987   1.035   1.092
 3883TIP3    H111592   2.908   1.088   1.103
 3883TIP3    H211593   2.970   0.956   1.143
 3884TIP3   OH211594   6.157   2.440   2.257
 3884TIP3    H111595   6.230   2.458   2.197
 3884TIP3    H211596   6.131   2.525   2.290
 3885TIP3   OH211597   2.121   2.300   3.161
 3885TIP3    H111598   2.134   2.310   3.255
 3885TIP3    H211599   2.092   2.386   3.130
 3886TIP3   OH211600   4.311   7.271   5.103
 3886TIP3    H111601   4.298   7.309   5.190
 3886TIP3    H211602   4.299   7.177   5.116
 3887TIP3   OH211603   7.030   3.209   4.793
 3887TIP3    H111604   7.026   3.117   4.817
 3887TIP3    H211605   6.964   3.251   4.848
 3888TIP3   OH211606   2.528   5.624   6.679
 3888TIP3    H111607   2.544   5.622   6.585
 3888TIP3    H211608   2.582   5.696   6.711
 3889TIP3   OH211609   3.188   3.116   1.917
 3889TIP3    H111610   3.225   3.042   1.964
 3889TIP3    H211611   3.100   3.086   1.891
 3890TIP3   OH211612   2.472   4.343   5.027
 3890TIP3    H111613   2.490   4.324   4.934
 3890TIP3    H211614   2.390   4.392   5.026
 3891TIP3   OH211615   2.493   6.972   5.678
 3891TIP3    H111616   2.490   7.062   5.710
 3891TIP3    H211617   2.401   6.943   5.680
 3892TIP3   OH211618   2.741   7.694   5.262
 3892TIP3    H111619   2.794   7.774   5.260
 3892TIP3    H211620   2.689   7.702   5.342
 3893TIP3   OH211621   3.731   2.367   1.815
 3893TIP3    H111622   3.759   2.305   1.883
 3893TIP3    H211623   3.796   2.437   1.819
 3894TIP3   OH211624   6.732   3.252   0.265
 3894TIP3    H111625   6.827   3.259   0.274
 3894TIP3    H211626   6.700   3.342   0.277
 3895TIP3   OH211627   3.405   7.255   1.309
 3895TIP3    H111628   3.368   7.335   1.272
 3895TIP3    H211629   3.452   7.214   1.237
 3896TIP3   OH211630   2.619   2.845   0.510
 3896TIP3    H111631   2.620   2.907   0.582
 3896TIP3    H211632   2.703   2.800   0.515
 3897TIP3   OH211633   1.574   3.381   4.232
 3897TIP3    H111634   1.636   3.386   4.304
 3897TIP3    H211635   1.615   3.429   4.161
 3898TIP3   OH211636   3.937   7.571   2.002
 3898TIP3    H111637   3.993   7.504   1.961
 3898TIP3    H211638   3.906   7.530   2.082
 3899TIP3   OH211639   4.687   7.353   0.545
 3899TIP3    H111640   4.752   7.411   0.584
 3899TIP3    H211641   4.610   7.407   0.532
 3900TIP3   OH211642   5.916   6.341   0.808
 3900TIP3    H111643   5.858   6.270   0.838
 3900TIP3    H211644   5.858   6.417   0.798
 3901TIP3   OH211645   2.915   5.427   5.354
 3901TIP3    H111646   2.926   5.512   5.312
 3901TIP3    H211647   2.872   5.373   5.288
 3902TIP3   OH211648   4.757   7.849   3.594
 3902TIP3    H111649   4.824   7.782   3.586
 3902TIP3    H211650   4.674   7.801   3.585
 3903TIP3   OH211651   3.795   0.105   3.928
 3903TIP3    H111652   3.744   0.032   3.892
 3903TIP3    H211653   3.811   0.081   4.019
 3904TIP3   OH211654   0.389   7.147   0.774
 3904TIP3    H111655   0.461   7.209   0.781
 3904TIP3    H211656   0.427   7.062   0.799
 3905TIP3   OH211657   7.779   6.348   4.819
 3905TIP3    H111658   7.784   6.443   4.828
 3905TIP3    H211659   7.750   6.317   4.905
 3906TIP3   OH211660   1.505   6.655   5.636
 3906TIP3    H111661   1.411   6.655   5.621
 3906TIP3    H211662   1.535   6.570   5.604
 3907TIP3   OH211663   4.476   0.297   4.071
 3907TIP3    H111664   4.529   0.365   4.028
 3907TIP3    H211665   4.389   0.308   4.034
 3908TIP3   OH211666   6.591   0.641   2.059
 3908TIP3    H111667   6.606   0.546   2.061
 3908TIP3    H211668   6.669   0.676   2.015
 3909TIP3   OH211669   4.197   0.556   5.911
 3909TIP3    H111670   4.229   0.559   5.821
 3909TIP3    H211671   4.265   0.508   5.959
 3910TIP3   OH211672   0.099   6.190   3.338
 3910TIP3    H111673   0.117   6.140   3.417
 3910TIP3    H211674   0.135   6.137   3.267
 3911TIP3   OH211675   7.138   5.578   2.077
 3911TIP3    H111676   7.110   5.505   2.132
 3911TIP3    H211677   7.137   5.543   1.988
 3912TIP3   OH211678   1.922   6.588   1.147
 3912TIP3    H111679   1.963   6.601   1.232
 3912TIP3    H211680   1.855   6.521   1.162
 3913TIP3   OH211681   6.976   0.034   0.395
 3913TIP3    H111682   7.069   0.015   0.403
 3913TIP3    H211683   6.937  -0.004   0.474
 3914TIP3   OH211684   0.624   0.743   2.104
 3914TIP3    H111685   0.658   0.655   2.121
 3914TIP3    H211686   0.684   0.779   2.039
 3915TIP3   OH211687   4.595   1.557   0.316
 3915TIP3    H111688   4.600   1.530   0.408
 3915TIP3    H211689   4.670   1.615   0.304
 3916TIP3   OH211690   7.038   5.147   6.253
 3916TIP3    H111691   6.954   5.108   6.229
 3916TIP3    H211692   7.049   5.221   6.193
 3917TIP3   OH211693   8.216   1.718   2.816
 3917TIP3    H111694   8.208   1.784   2.748
 3917TIP3    H211695   8.212   1.634   2.769
 3918TIP3   OH211696   1.922   4.256   0.006
 3918TIP3    H111697   1.962   4.180  -0.035
 3918TIP3    H211698   1.909   4.229   0.097
 3919TIP3   OH211699   6.453   2.234   4.687
 3919TIP3    H111700   6.517   2.245   4.617
 3919TIP3    H211701   6.504   2.233   4.767
 3920TIP3   OH211702   1.969   2.807   6.345
 3920TIP3    H111703   1.910   2.752   6.294
 3920TIP3    H211704   1.985   2.883   6.289
 3921TIP3   OH211705   0.353   3.533   5.989
 3921TIP3    H111706   0.370   3.472   6.061
 3921TIP3    H211707   0.257   3.538   5.984
 3922TIP3   OH211708   7.161   7.468   1.084
 3922TIP3    H111709   7.202   7.502   1.163
 3922TIP3    H211710   7.081   7.519   1.074
 3923TIP3   OH211711   2.358   5.785   1.962
 3923TIP3    H111712   2.378   5.740   2.044
 3923TIP3    H211713   2.376   5.877   1.981
 3924TIP3   OH211714   2.536   7.323   1.793
 3924TIP3    H111715   2.601   7.393   1.794
 3924TIP3    H211716   2.452   7.368   1.801
 3925TIP3   OH211717   6.421   0.150   6.264
 3925TIP3    H111718   6.347   0.179   6.316
 3925TIP3    H211719   6.406   0.188   6.177
 3926TIP3   OH211720   2.249   5.194   5.493
 3926TIP3    H111721   2.224   5.217   5.582
 3926TIP3    H211722   2.177   5.225   5.439
 3927TIP3   OH211723   7.985   6.629   6.244
 3927TIP3    H111724   8.037   6.677   6.180
 3927TIP3    H211725   7.899   6.671   6.241
 3928TIP3   OH211726   6.287   0.610   2.869
 3928TIP3    H111727   6.258   0.698   2.846
 3928TIP3    H211728   6.370   0.624   2.916
 3929TIP3   OH211729   7.286   5.923   6.763
 3929TIP3    H111730   7.291   5.842   6.711
 3929TIP3    H211731   7.369   5.926   6.810
 3930TIP3   OH211732   1.677   2.400   5.979
 3930TIP3    H111733   1.741   2.398   5.908
 3930TIP3    H211734   1.709   2.335   6.042
 3931TIP3   OH211735   5.747   1.003   2.030
 3931TIP3    H111736   5.659   0.971   2.009
 3931TIP3    H211737   5.754   1.087   1.985
 3932TIP3   OH211738   6.189   5.882   6.199
 3932TIP3    H111739   6.222   5.801   6.160
 3932TIP3    H211740   6.116   5.853   6.255
 3933TIP3   OH211741   1.156   3.972   2.574
 3933TIP3    H111742   1.172   3.906   2.507
 3933TIP3    H211743   1.156   4.055   2.527
 3934TIP3   OH211744   4.852   6.104   5.164
 3934TIP3    H111745   4.834   6.066   5.077
 3934TIP3    H211746   4.938   6.145   5.155
 3935TIP3   OH211747   2.033   5.617   0.386
 3935TIP3    H111748   2.045   5.710   0.366
 3935TIP3    H211749   2.059   5.609   0.477
 3936TIP3   OH211750   1.058   5.165   5.738
 3936TIP3    H111751   1.048   5.228   5.809
 3936TIP3    H211752   1.137   5.193   5.692
 3937TIP3   OH211753   7.147   3.627   2.444
 3937TIP3    H111754   7.149   3.688   2.519
 3937TIP3    H211755   7.058   3.590   2.446
 3938TIP3   OH211756   7.697   5.736   0.776
 3938TIP3    H111757   7.765   5.736   0.843
 3938TIP3    H211758   7.659   5.648   0.779
 3939TIP3   OH211759   6.028   3.495   3.885
 3939TIP3    H111760   6.073   3.578   3.901
 3939TIP3    H211761   5.941   3.520   3.856
 3940TIP3   OH211762   1.048   5.663   6.369
 3940TIP3    H111763   1.019   5.747   6.334
 3940TIP3    H211764   1.038   5.602   6.295
 3941TIP3   OH211765   0.191   2.920   1.870
 3941TIP3    H111766   0.218   2.846   1.815
 3941TIP3    H211767   0.264   2.932   1.931
 3942TIP3   OH211768   6.938   0.672   2.069
 3942TIP3    H111769   6.908   0.658   2.158
 3942TIP3    H211770   6.954   0.584   2.035
 3943TIP3   OH211771   1.196   2.568   4.942
 3943TIP3    H111772   1.213   2.588   4.850
 3943TIP3    H211773   1.113   2.520   4.942
 3944TIP3   OH211774   0.155   3.465   2.559
 3944TIP3    H111775   0.185   3.415   2.634
 3944TIP3    H211776   0.208   3.434   2.486
 3945TIP3   OH211777   4.702   4.866   1.253
 3945TIP3    H111778   4.718   4.775   1.276
 3945TIP3    H211779   4.723   4.915   1.333
 3946TIP3   OH211780   0.239   6.965   3.589
 3946TIP3    H111781   0.162   7.002   3.633
 3946TIP3    H211782   0.238   6.872   3.614
 3947TIP3   OH211783   0.380   0.431   2.444
 3947TIP3    H111784   0.289   0.450   2.468
 3947TIP3    H211785   0.420   0.399   2.525
 3948TIP3   OH211786   5.699   2.151   6.634
 3948TIP3    H111787   5.787   2.133   6.668
 3948TIP3    H211788   5.640   2.122   6.704
 3949TIP3   OH211789   2.892   6.125   3.349
 3949TIP3    H111790   2.972   6.146   3.300
 3949TIP3    H211791   2.889   6.029   3.352
 3950TIP3   OH211792   4.186   6.493   0.256
 3950TIP3    H111793   4.108   6.463   0.211
 3950TIP3    H211794   4.218   6.565   0.203
 3951TIP3   OH211795   7.704   6.491   2.084
 3951TIP3    H111796   7.743   6.429   2.022
 3951TIP3    H211797   7.778   6.530   2.129
 3952TIP3   OH211798   0.258   3.198   3.742
 3952TIP3    H111799   0.327   3.154   3.792
 3952TIP3    H211800   0.179   3.187   3.796
 3953TIP3   OH211801   0.796   2.629   3.189
 3953TIP3    H111802   0.811   2.697   3.254
 3953TIP3    H211803   0.701   2.621   3.183
 3954TIP3   OH211804   0.125   6.118   5.226
 3954TIP3    H111805   0.191   6.169   5.272
 3954TIP3    H211806   0.134   6.029   5.261
 3955TIP3   OH211807   4.421   4.028   1.505
 3955TIP3    H111808   4.373   4.102   1.466
 3955TIP3    H211809   4.497   4.068   1.546
 3956TIP3   OH211810   8.117   3.728   2.908
 3956TIP3    H111811   8.065   3.662   2.862
 3956TIP3    H211812   8.208   3.706   2.887
 3957TIP3   OH211813   1.001   1.567   5.446
 3957TIP3    H111814   1.087   1.600   5.419
 3957TIP3    H211815   1.021   1.489   5.498
 3958TIP3   OH211816   4.151   6.782   6.706
 3958TIP3    H111817   4.084   6.736   6.756
 3958TIP3    H211818   4.182   6.718   6.642
 3959TIP3   OH211819   2.819   0.439   5.858
 3959TIP3    H111820   2.879   0.485   5.917
 3959TIP3    H211821   2.857   0.352   5.849
 3960TIP3   OH211822   1.566   0.722   4.037
 3960TIP3    H111823   1.514   0.800   4.017
 3960TIP3    H211824   1.557   0.711   4.132
 3961TIP3   OH211825   5.952   1.778   0.878
 3961TIP3    H111826   5.983   1.694   0.844
 3961TIP3    H211827   5.906   1.818   0.804
 3962TIP3   OH211828   3.882   6.762   2.079
 3962TIP3    H111829   3.940   6.808   2.018
 3962TIP3    H211830   3.812   6.825   2.097
 3963TIP3   OH211831   4.074   4.518   6.583
 3963TIP3    H111832   4.082   4.597   6.529
 3963TIP3    H211833   3.981   4.497   6.581
 3964TIP3   OH211834   7.133   3.739   3.662
 3964TIP3    H111835   7.181   3.779   3.589
 3964TIP3    H211836   7.201   3.711   3.723
 3965TIP3   OH211837   1.994   6.425   0.056
 3965TIP3    H111838   2.029   6.435  -0.033
 3965TIP3    H211839   1.911   6.474   0.053
 3966TIP3   OH211840   7.154   0.765   2.341
 3966TIP3    H111841   7.236   0.723   2.317
 3966TIP3    H211842   7.086   0.702   2.314
 3967TIP3   OH211843   1.020   4.581   4.175
 3967TIP3    H111844   1.033   4.501   4.227
 3967TIP3    H211845   1.108   4.606   4.148
 3968TIP3   OH211846   0.133   4.487   2.829
 3968TIP3    H111847   0.088   4.454   2.907
 3968TIP3    H211848   0.102   4.431   2.758
 3969TIP3   OH211849   5.861   4.556   5.643
 3969TIP3    H111850   5.918   4.629   5.667
 3969TIP3    H211851   5.916   4.501   5.586
 3970TIP3   OH211852   5.748   5.761   2.454
 3970TIP3    H111853   5.744   5.665   2.450
 3970TIP3    H211854   5.822   5.779   2.511
 3971TIP3   OH211855   6.938   7.778   0.577
 3971TIP3    H111856   6.980   7.788   0.491
 3971TIP3    H211857   6.875   7.706   0.564
 3972TIP3   OH211858   0.877   5.774   1.470
 3972TIP3    H111859   0.853   5.836   1.402
 3972TIP3    H211860   0.817   5.793   1.542
 3973TIP3   OH211861   5.500   3.216   4.782
 3973TIP3    H111862   5.497   3.307   4.810
 3973TIP3    H211863   5.455   3.215   4.697
 3974TIP3   OH211864   0.661   7.212   6.634
 3974TIP3    H111865   0.713   7.290   6.653
 3974TIP3    H211866   0.690   7.183   6.547
 3975TIP3   OH211867   7.960   7.478   1.709
 3975TIP3    H111868   7.886   7.523   1.749
 3975TIP3    H211869   8.005   7.436   1.783
 3976TIP3   OH211870   5.221   5.235   0.829
 3976TIP3    H111871   5.262   5.319   0.811
 3976TIP3    H211872   5.163   5.219   0.755
 3977TIP3   OH211873   5.021   0.852   5.688
 3977TIP3    H111874   4.973   0.774   5.716
 3977TIP3    H211875   4.978   0.924   5.735
 3978TIP3   OH211876   2.833   6.423   4.727
 3978TIP3    H111877   2.767   6.480   4.767
 3978TIP3    H211878   2.912   6.438   4.779
 3979TIP3   OH211879   1.320   1.623   3.727
 3979TIP3    H111880   1.413   1.641   3.713
 3979TIP3    H211881   1.280   1.708   3.742
 3980TIP3   OH211882   1.572   5.720   0.682
 3980TIP3    H111883   1.597   5.731   0.590
 3980TIP3    H211884   1.489   5.767   0.690
 3981TIP3   OH211885   1.749   1.657   2.267
 3981TIP3    H111886   1.820   1.718   2.288
 3981TIP3    H211887   1.672   1.713   2.256
 3982TIP3   OH211888   2.980   3.168   1.295
 3982TIP3    H111889   3.056   3.157   1.352
 3982TIP3    H211890   2.928   3.237   1.337
 3983TIP3   OH211891   1.688   2.595   6.396
 3983TIP3    H111892   1.628   2.667   6.416
 3983TIP3    H211893   1.632   2.518   6.390
 3984TIP3   OH211894   2.800   3.938   0.117
 3984TIP3    H111895   2.742   3.906   0.047
 3984TIP3    H211896   2.847   3.860   0.146
 3985TIP3   OH211897   0.673   3.041   3.035
 3985TIP3    H111898   0.748   3.100   3.029
 3985TIP3    H211899   0.623   3.073   3.110
 3986TIP3   OH211900   2.206   6.427   2.308
 3986TIP3    H111901   2.230   6.434   2.400
 3986TIP3    H211902   2.275   6.373   2.269
 3987TIP3   OH211903   8.270   7.204   0.737
 3987TIP3    H111904   8.187   7.163   0.712
 3987TIP3    H211905   8.328   7.188   0.662
 3988TIP3   OH211906   4.832   6.077   5.854
 3988TIP3    H111907   4.756   6.033   5.815
 3988TIP3    H211908   4.796   6.157   5.892
 3989TIP3   OH211909   3.182   4.253   0.913
 3989TIP3    H111910   3.118   4.239   0.842
 3989TIP3    H211911   3.222   4.167   0.926
 3990TIP3   OH211912   6.641   6.049   5.673
 3990TIP3    H111913   6.673   5.963   5.701
 3990TIP3    H211914   6.629   6.041   5.579
 3991TIP3   OH211915   3.678   3.514   5.310
 3991TIP3    H111916   3.650   3.423   5.318
 3991TIP3    H211917   3.763   3.517   5.355
 3992TIP3   OH211918   8.009   6.824   0.874
 3992TIP3    H111919   8.071   6.835   0.946
 3992TIP3    H211920   7.935   6.777   0.913
 3993TIP3   OH211921   6.895   7.103   6.287
 3993TIP3    H111922   6.975   7.152   6.308
 3993TIP3    H211923   6.925   7.024   6.244
 3994TIP3   OH211924   2.165   7.475   0.362
 3994TIP3    H111925   2.070   7.458   0.360
 3994TIP3    H211926   2.201   7.403   0.414
 3995TIP3   OH211927   2.027   3.755   2.654
 3995TIP3    H111928   1.940   3.738   2.691
 3995TIP3    H211929   2.031   3.850   2.644
 3996TIP3   OH211930   3.309   1.085   0.112
 3996TIP3    H111931   3.245   1.034   0.064
 3996TIP3    H211932   3.263   1.164   0.138
 3997TIP3   OH211933   5.721   6.271   6.600
 3997TIP3    H111934   5.815   6.264   6.586
 3997TIP3    H211935   5.695   6.185   6.633
 3998TIP3   OH211936   4.797   2.456   6.593
 3998TIP3    H111937   4.808   2.442   6.687
 3998TIP3    H211938   4.774   2.549   6.585
 3999TIP3   OH211939   4.848   2.752   6.423
 3999TIP3    H111940   4.930   2.725   6.381
 3999TIP3    H211941   4.843   2.846   6.405
 4000TIP3   OH211942   4.972   3.278   0.334
 4000TIP3    H111943   4.966   3.363   0.376
 4000TIP3    H211944   4.907   3.224   0.378
 4001TIP3   OH211945   2.028   6.988   4.448
 4001TIP3    H111946   2.120   6.987   4.472
 4001TIP3    H211947   1.981   6.976   4.531
 4002TIP3   OH211948   4.921   6.908   0.933
 4002TIP3    H111949   4.899   6.845   1.002
 4002TIP3    H211950   4.985   6.966   0.974
 4003TIP3   OH211951   1.013   2.081   4.274
 4003TIP3    H111952   1.079   2.012   4.263
 4003TIP3    H211953   0.935   2.047   4.231
 4004TIP3   OH211954   0.693   2.012   5.952
 4004TIP3    H111955   0.768   2.071   5.953
 4004TIP3    H211956   0.634   2.048   5.886
 4005TIP3   OH211957   4.523   5.472   3.144
 4005TIP3    H111958   4.577   5.393   3.143
 4005TIP3    H211959   4.482   5.475   3.058
 4006TIP3   OH211960   0.783   5.605   3.505
 4006TIP3    H111961   0.837   5.653   3.568
 4006TIP3    H211962   0.800   5.513   3.525
 4007TIP3   OH211963   5.391   5.880   1.011
 4007TIP3    H111964   5.445   5.801   1.011
 4007TIP3    H211965   5.429   5.937   1.078
 4008TIP3   OH211966   4.263   2.728   1.534
 4008TIP3    H111967   4.307   2.805   1.569
 4008TIP3    H211968   4.259   2.744   1.440
 4009TIP3   OH211969   2.199   0.623   4.136
 4009TIP3    H111970   2.160   0.643   4.051
 4009TIP3    H211971   2.171   0.534   4.155
 4010TIP3   OH211972   5.512   6.438   2.913
 4010TIP3    H111973   5.468   6.410   2.832
 4010TIP3    H211974   5.516   6.359   2.967
 4011TIP3   OH211975   4.152   4.109   5.778
 4011TIP3    H111976   4.209   4.085   5.705
 4011TIP3    H211977   4.162   4.204   5.786
 4012TIP3   OH211978   7.646   3.720   0.553
 4012TIP3    H111979   7.613   3.805   0.523
 4012TIP3    H211980   7.568   3.664   0.555
 4013TIP3   OH211981   0.209   1.421   3.497
 4013TIP3    H111982   0.140   1.480   3.530
 4013TIP3    H211983   0.290   1.459   3.530
 4014TIP3   OH211984   2.595   2.129   0.882
 4014TIP3    H111985   2.547   2.139   0.799
 4014TIP3    H211986   2.530   2.092   0.942
 4015TIP3   OH211987   7.032   4.290   6.439
 4015TIP3    H111988   7.084   4.348   6.494
 4015TIP3    H211989   7.091   4.219   6.416
 4016TIP3   OH211990   1.032   4.847   2.018
 4016TIP3    H111991   1.125   4.855   2.040
 4016TIP3    H211992   0.987   4.856   2.102
 4017TIP3   OH211993   7.786   3.425   5.795
 4017TIP3    H111994   7.802   3.387   5.881
 4017TIP3    H211995   7.692   3.444   5.796
 4018TIP3   OH211996   2.913   1.570   0.518
 4018TIP3    H111997   2.888   1.554   0.427
 4018TIP3    H211998   2.880   1.658   0.538
 4019TIP3   OH211999   4.865   0.627   4.898
 4019TIP3    H112000   4.849   0.681   4.975
 4019TIP3    H212001   4.880   0.689   4.827
 4020TIP3   OH212002   7.819   0.258   3.657
 4020TIP3    H112003   7.790   0.310   3.583
 4020TIP3    H212004   7.902   0.298   3.683
 4021TIP3   OH212005   5.744   0.940   4.363
 4021TIP3    H112006   5.759   1.003   4.433
 4021TIP3    H212007   5.750   0.992   4.283
 4022TIP3   OH212008   0.510   4.948   5.052
 4022TIP3    H112009   0.527   4.924   5.143
 4022TIP3    H212010   0.544   4.874   5.001
 4023TIP3   OH212011   1.496   5.045   0.074
 4023TIP3    H112012   1.422   5.030   0.016
 4023TIP3    H212013   1.544   5.117   0.032
 4024TIP3   OH212014   6.275   7.336   1.534
 4024TIP3    H112015   6.325   7.322   1.453
 4024TIP3    H212016   6.263   7.249   1.571
 4025TIP3   OH212017   1.267   4.463   5.371
 4025TIP3    H112018   1.213   4.536   5.341
 4025TIP3    H212019   1.204   4.394   5.392
 4026TIP3   OH212020   6.969   7.268   4.662
 4026TIP3    H112021   7.027   7.193   4.676
 4026TIP3    H212022   6.887   7.230   4.632
 4027TIP3   OH212023   4.517   3.130   4.273
 4027TIP3    H112024   4.588   3.087   4.226
 4027TIP3    H212025   4.511   3.217   4.234
 4028TIP3   OH212026   6.307   0.720   1.167
 4028TIP3    H112027   6.393   0.760   1.181
 4028TIP3    H212028   6.269   0.714   1.254
 4029TIP3   OH212029   6.515   7.634   4.718
 4029TIP3    H112030   6.469   7.636   4.634
 4029TIP3    H212031   6.597   7.588   4.700
 4030TIP3   OH212032   1.656   5.090   0.361
 4030TIP3    H112033   1.626   5.083   0.270
 4030TIP3    H212034   1.631   5.006   0.401
 4031TIP3   OH212035   2.117   5.800   0.166
 4031TIP3    H112036   2.104   5.874   0.226
 4031TIP3    H212037   2.075   5.828   0.084
 4032TIP3   OH212038   1.024   1.280   4.529
 4032TIP3    H112039   0.968   1.216   4.486
 4032TIP3    H212040   0.998   1.364   4.491
 4033TIP3   OH212041   7.890   6.140   6.241
 4033TIP3    H112042   7.831   6.080   6.287
 4033TIP3    H212043   7.894   6.106   6.152
 4034TIP3   OH212044   3.405   7.205   3.869
 4034TIP3    H112045   3.411   7.160   3.784
 4034TIP3    H212046   3.419   7.136   3.934
 4035TIP3   OH212047   1.101   3.636   0.594
 4035TIP3    H112048   1.191   3.604   0.593
 4035TIP3    H212049   1.109   3.728   0.569
 4036TIP3   OH212050   6.381   3.131   5.306
 4036TIP3    H112051   6.290   3.118   5.334
 4036TIP3    H212052   6.385   3.224   5.282
 4037TIP3   OH212053   4.385   5.875   3.107
 4037TIP3    H112054   4.418   5.938   3.043
 4037TIP3    H212055   4.453   5.808   3.112
 4038TIP3   OH212056   4.641   7.611   5.400
 4038TIP3    H112057   4.657   7.614   5.306
 4038TIP3    H212058   4.615   7.520   5.417
 4039TIP3   OH212059   7.853   0.266   5.824
 4039TIP3    H112060   7.786   0.220   5.874
 4039TIP3    H212061   7.827   0.358   5.829
 4040TIP3   OH212062   7.127   3.793   0.664
 4040TIP3    H112063   7.060   3.846   0.621
 4040TIP3    H212064   7.079   3.742   0.729
 4041TIP3   OH212065   7.808   6.443   5.654
 4041TIP3    H112066   7.769   6.356   5.662
 4041TIP3    H212067   7.799   6.481   5.741
 4042TIP3   OH212068   3.629   2.326   2.629
 4042TIP3    H112069   3.645   2.252   2.688
 4042TIP3    H212070   3.648   2.403   2.683
 4043TIP3   OH212071   4.668   7.219   2.004
 4043TIP3    H112072   4.608   7.199   1.933
 4043TIP3    H212073   4.725   7.142   2.010
 4044TIP3   OH212074   3.963   3.792   0.908
 4044TIP3    H112075   4.000   3.724   0.964
 4044TIP3    H212076   3.976   3.760   0.819
 4045TIP3   OH212077   7.125   6.959   0.892
 4045TIP3    H112078   7.169   6.917   0.819
 4045TIP3    H212079   7.179   7.036   0.912
 4046TIP3   OH212080   4.368   2.227   1.955
 4046TIP3    H112081   4.459   2.254   1.969
 4046TIP3    H212082   4.364   2.202   1.863
 4047TIP3   OH212083   2.126   2.051   1.454
 4047TIP3    H112084   2.110   2.131   1.504
 4047TIP3    H212085   2.159   1.989   1.519
 4048TIP3   OH212086   4.923   1.632   2.012
 4048TIP3    H112087   4.956   1.542   2.007
 4048TIP3    H212088   4.899   1.644   2.104
 4049TIP3   OH212089   8.072   2.343   2.466
 4049TIP3    H112090   8.143   2.284   2.493
 4049TIP3    H212091   8.014   2.347   2.542
 4050TIP3   OH212092   7.347   5.116   2.405
 4050TIP3    H112093   7.257   5.082   2.412
 4050TIP3    H212094   7.336   5.211   2.404
 4051TIP3   OH212095   3.801   5.234   4.195
 4051TIP3    H112096   3.803   5.328   4.175
 4051TIP3    H212097   3.812   5.191   4.111
 4052TIP3   OH212098   7.688   3.829   0.778
 4052TIP3    H112099   7.690   3.781   0.696
 4052TIP3    H212100   7.717   3.766   0.844
 4053TIP3   OH212101   3.222   4.729   1.053
 4053TIP3    H112102   3.164   4.693   0.986
 4053TIP3    H212103   3.247   4.654   1.107
 4054TIP3   OH212104   3.749   1.452   6.334
 4054TIP3    H112105   3.812   1.478   6.266
 4054TIP3    H212106   3.670   1.503   6.314
 4055TIP3   OH212107   4.142   7.451   2.438
 4055TIP3    H112108   4.182   7.377   2.484
 4055TIP3    H212109   4.117   7.415   2.352
 4056TIP3   OH212110   4.330   3.749   5.616
 4056TIP3    H112111   4.352   3.701   5.697
 4056TIP3    H212112   4.241   3.779   5.630
 4057TIP3   OH212113   3.362   6.837   6.386
 4057TIP3    H112114   3.412   6.785   6.323
 4057TIP3    H212115   3.335   6.773   6.452
 4058TIP3   OH212116   0.456   5.522   2.475
 4058TIP3    H112117   0.515   5.448   2.490
 4058TIP3    H212118   0.431   5.551   2.563
 4059TIP3   OH212119   3.943   2.770   4.529
 4059TIP3    H112120   3.890   2.838   4.487
 4059TIP3    H212121   4.018   2.759   4.471
 4060TIP3   OH212122   4.618   6.500   2.360
 4060TIP3    H112123   4.556   6.463   2.423
 4060TIP3    H212124   4.563   6.530   2.287
 4061TIP3   OH212125   0.910   0.092   3.793
 4061TIP3    H112126   1.005   0.093   3.778
 4061TIP3    H212127   0.895   0.015   3.847
 4062TIP3   OH212128   2.995   5.273   4.634
 4062TIP3    H112129   2.938   5.330   4.582
 4062TIP3    H212130   2.938   5.241   4.704
 4063TIP3   OH212131   3.929   4.665   6.147
 4063TIP3    H112132   3.856   4.620   6.187
 4063TIP3    H212133   3.898   4.755   6.134
 4064TIP3   OH212134   2.511   7.193   1.032
 4064TIP3    H112135   2.561   7.206   0.951
 4064TIP3    H212136   2.420   7.189   1.003
 4065TIP3   OH212137   0.833   1.829   5.529
 4065TIP3    H112138   0.866   1.743   5.555
 4065TIP3    H212139   0.737   1.819   5.530
 4066TIP3   OH212140   7.281   2.943   4.590
 4066TIP3    H112141   7.323   2.896   4.518
 4066TIP3    H212142   7.215   2.998   4.547
 4067TIP3   OH212143   7.787   3.581   4.964
 4067TIP3    H112144   7.731   3.533   4.904
 4067TIP3    H212145   7.730   3.604   5.038
 4068TIP3   OH212146   0.377   4.225   0.245
 4068TIP3    H112147   0.331   4.294   0.197
 4068TIP3    H212148   0.373   4.149   0.188
 4069TIP3   OH212149   3.721   2.050   2.510
 4069TIP3    H112150   3.691   2.132   2.471
 4069TIP3    H212151   3.712   2.064   2.605
 4070TIP3   OH212152   0.115   4.390   5.082
 4070TIP3    H112153   0.114   4.298   5.057
 4070TIP3    H212154   0.103   4.437   4.999
 4071TIP3   OH212155   6.507   3.351   2.360
 4071TIP3    H112156   6.538   3.425   2.412
 4071TIP3    H212157   6.505   3.384   2.270
 4072TIP3   OH212158   7.413   2.102   3.594
 4072TIP3    H112159   7.473   2.035   3.627
 4072TIP3    H212160   7.466   2.155   3.534
 4073TIP3   OH212161   4.672   4.556   4.550
 4073TIP3    H112162   4.607   4.488   4.565
 4073TIP3    H212163   4.737   4.515   4.493
 4074TIP3   OH212164   1.431   7.722   5.277
 4074TIP3    H112165   1.518   7.747   5.310
 4074TIP3    H212166   1.377   7.714   5.356
 4075TIP3   OH212167   6.929   4.957   0.426
 4075TIP3    H112168   7.002   4.913   0.469
 4075TIP3    H212169   6.965   4.984   0.341
 4076TIP3   OH212170   4.173   0.623   5.306
 4076TIP3    H112171   4.139   0.535   5.290
 4076TIP3    H212172   4.146   0.674   5.229
 4077TIP3   OH212173   7.726   1.501   6.634
 4077TIP3    H112174   7.819   1.516   6.650
 4077TIP3    H212175   7.686   1.501   6.721
 4078TIP3   OH212176   2.291   0.259   0.465
 4078TIP3    H112177   2.263   0.179   0.510
 4078TIP3    H212178   2.271   0.242   0.373
 4079TIP3   OH212179   4.333   5.505   3.835
 4079TIP3    H112180   4.294   5.476   3.917
 4079TIP3    H212181   4.305   5.440   3.770
 4080TIP3   OH212182   3.338   4.573   2.980
 4080TIP3    H112183   3.265   4.624   3.017
 4080TIP3    H212184   3.318   4.567   2.887
 4081TIP3   OH212185   3.283   4.818   6.622
 4081TIP3    H112186   3.335   4.811   6.541
 4081TIP3    H212187   3.245   4.906   6.618
 4082TIP3   OH212188   2.441   2.996   4.979
 4082TIP3    H112189   2.520   3.031   5.021
 4082TIP3    H212190   2.466   2.984   4.887
 4083TIP3   OH212191   4.329   2.144   4.970
 4083TIP3    H112192   4.361   2.138   4.880
 4083TIP3    H212193   4.400   2.188   5.018
 4084TIP3   OH212194   0.515   2.626   0.264
 4084TIP3    H112195   0.512   2.612   0.170
 4084TIP3    H212196   0.534   2.719   0.274
 4085TIP3   OH212197   6.765   1.344   0.240
 4085TIP3    H112198   6.709   1.336   0.162
 4085TIP3    H212199   6.803   1.257   0.251
 4086TIP3   OH212200   6.705   2.373   3.697
 4086TIP3    H112201   6.678   2.462   3.716
 4086TIP3    H212202   6.744   2.378   3.609
 4087TIP3   OH212203   5.056   1.739   1.413
 4087TIP3    H112204   5.074   1.826   1.378
 4087TIP3    H212205   5.018   1.691   1.340
 4088TIP3   OH212206   7.707   1.770   1.351
 4088TIP3    H112207   7.798   1.800   1.349
 4088TIP3    H212208   7.708   1.690   1.297
 4089TIP3   OH212209   2.689   1.403   0.606
 4089TIP3    H112210   2.733   1.444   0.532
 4089TIP3    H212211   2.641   1.475   0.648
 4090TIP3   OH212212   1.101   7.231   1.607
 4090TIP3    H112213   1.187   7.203   1.638
 4090TIP3    H212214   1.058   7.149   1.581
 4091TIP3   OH212215   5.996   6.557   4.806
 4091TIP3    H112216   5.915   6.608   4.801
 4091TIP3    H212217   5.975   6.474   4.763
 4092TIP3   OH212218   4.357   0.735   3.105
 4092TIP3    H112219   4.437   0.706   3.060
 4092TIP3    H212220   4.286   0.692   3.058
 4093TIP3   OH212221   6.353   7.524   1.128
 4093TIP3    H112222   6.261   7.531   1.153
 4093TIP3    H212223   6.370   7.604   1.078
 4094TIP3   OH212224   4.152   0.929   1.084
 4094TIP3    H112225   4.099   0.961   1.158
 4094TIP3    H212226   4.242   0.942   1.113
 4095TIP3   OH212227   5.700   3.482   1.006
 4095TIP3    H112228   5.772   3.493   1.068
 4095TIP3    H212229   5.622   3.514   1.053
 4096TIP3   OH212230   3.790   2.313   0.440
 4096TIP3    H112231   3.704   2.276   0.457
 4096TIP3    H212232   3.797   2.386   0.502
 4097TIP3   OH212233   7.204   5.384   0.910
 4097TIP3    H112234   7.253   5.330   0.848
 4097TIP3    H212235   7.116   5.345   0.910
 4098TIP3   OH212236   0.646   2.889   5.955
 4098TIP3    H112237   0.643   2.842   6.039
 4098TIP3    H212238   0.709   2.840   5.902
 4099TIP3   OH212239   7.037   3.097   6.237
 4099TIP3    H112240   7.097   3.094   6.163
 4099TIP3    H212241   7.069   3.030   6.297
 4100TIP3   OH212242   6.589   7.200   2.288
 4100TIP3    H112243   6.499   7.230   2.271
 4100TIP3    H212244   6.598   7.122   2.233
 4101TIP3   OH212245   5.108   6.270   6.307
 4101TIP3    H112246   5.038   6.207   6.323
 4101TIP3    H212247   5.078   6.321   6.231
 4102TIP3   OH212248   3.239   7.515   4.075
 4102TIP3    H112249   3.204   7.427   4.087
 4102TIP3    H212250   3.163   7.573   4.084
 4103TIP3   OH212251   4.019   5.045   2.668
 4103TIP3    H112252   3.989   5.136   2.661
 4103TIP3    H212253   3.996   5.006   2.583
 4104TIP3   OH212254   1.053   4.797   5.243
 4104TIP3    H112255   1.144   4.824   5.229
 4104TIP3    H212256   1.038   4.814   5.336
 4105TIP3   OH212257   3.924   0.134   0.231
 4105TIP3    H112258   3.904   0.221   0.196
 4105TIP3    H212259   4.011   0.144   0.270
 4106TIP3   OH212260   6.055   6.788   3.555
 4106TIP3    H112261   6.126   6.842   3.519
 4106TIP3    H212262   5.975   6.837   3.534
 4107TIP3   OH212263   6.624   4.887   1.311
 4107TIP3    H112264   6.538   4.902   1.349
 4107TIP3    H212265   6.639   4.793   1.321
 4108TIP3   OH212266   7.823   5.263   6.516
 4108TIP3    H112267   7.836   5.169   6.530
 4108TIP3    H212268   7.858   5.304   6.595
 4109TIP3   OH212269   7.291   4.048   0.323
 4109TIP3    H112270   7.334   4.133   0.335
 4109TIP3    H212271   7.339   4.007   0.251
 4110TIP3   OH212272   0.856   5.828   3.316
 4110TIP3    H112273   0.843   5.769   3.390
 4110TIP3    H212274   0.861   5.771   3.239
 4111TIP3   OH212275   2.503   7.004   6.285
 4111TIP3    H112276   2.494   7.020   6.191
 4111TIP3    H212277   2.533   6.913   6.292
 4112TIP3   OH212278   2.931   0.399   4.848
 4112TIP3    H112279   2.960   0.397   4.757
 4112TIP3    H212280   2.930   0.492   4.871
 4113TIP3   OH212281   1.282   7.102   0.584
 4113TIP3    H112282   1.346   7.132   0.648
 4113TIP3    H212283   1.198   7.106   0.631
 4114TIP3   OH212284   7.745   1.020   4.572
 4114TIP3    H112285   7.663   0.971   4.561
 4114TIP3    H212286   7.813   0.952   4.577
 4115TIP3   OH212287   2.437   0.914   2.612
 4115TIP3    H112288   2.355   0.953   2.641
 4115TIP3    H212289   2.459   0.851   2.680
 4116TIP3   OH212290   6.172   6.228   4.300
 4116TIP3    H112291   6.242   6.288   4.327
 4116TIP3    H212292   6.151   6.255   4.211
 4117TIP3   OH212293   5.660   0.078   0.713
 4117TIP3    H112294   5.656   0.050   0.622
 4117TIP3    H212295   5.653   0.173   0.709
 4118TIP3   OH212296   4.814   3.314   6.625
 4118TIP3    H112297   4.768   3.347   6.547
 4118TIP3    H212298   4.893   3.273   6.590
 4119TIP3   OH212299   0.527   7.148   5.583
 4119TIP3    H112300   0.533   7.141   5.679
 4119TIP3    H212301   0.609   7.188   5.557
 4120TIP3   OH212302   1.776   7.693   2.038
 4120TIP3    H112303   1.810   7.648   1.960
 4120TIP3    H212304   1.721   7.627   2.081
 4121TIP3   OH212305   2.683   3.195   2.931
 4121TIP3    H112306   2.721   3.190   2.843
 4121TIP3    H212307   2.719   3.276   2.967
 4122TIP3   OH212308   0.109   7.759   3.467
 4122TIP3    H112309   0.083   7.851   3.462
 4122TIP3    H212310   0.045   7.713   3.414
 4123TIP3   OH212311   2.548   7.515   4.323
 4123TIP3    H112312   2.510   7.593   4.363
 4123TIP3    H212313   2.642   7.525   4.336
 4124TIP3   OH212314   4.750   1.166   1.093
 4124TIP3    H112315   4.743   1.168   1.188
 4124TIP3    H212316   4.691   1.236   1.064
 4125TIP3   OH212317   6.218   6.641   4.046
 4125TIP3    H112318   6.156   6.569   4.047
 4125TIP3    H212319   6.280   6.620   4.117
 4126TIP3   OH212320   2.802   6.999   0.743
 4126TIP3    H112321   2.879   7.018   0.796
 4126TIP3    H212322   2.838   6.975   0.657
 4127TIP3   OH212323   1.805   5.178   2.135
 4127TIP3    H112324   1.808   5.147   2.226
 4127TIP3    H212325   1.854   5.260   2.136
 4128TIP3   OH212326   5.198   2.024   5.349
 4128TIP3    H112327   5.237   1.986   5.271
 4128TIP3    H212328   5.172   2.112   5.323
 4129TIP3   OH212329   3.995   1.741   5.602
 4129TIP3    H112330   3.956   1.827   5.585
 4129TIP3    H212331   4.082   1.745   5.561
 4130TIP3   OH212332   5.410   6.521   4.655
 4130TIP3    H112333   5.403   6.432   4.692
 4130TIP3    H212334   5.392   6.579   4.730
 4131TIP3   OH212335   8.091   4.305   6.487
 4131TIP3    H112336   8.169   4.253   6.506
 4131TIP3    H212337   8.060   4.271   6.403
 4132TIP3   OH212338   1.879   5.621   1.434
 4132TIP3    H112339   1.927   5.679   1.374
 4132TIP3    H212340   1.819   5.572   1.377
 4133TIP3   OH212341   5.603   0.917   1.105
 4133TIP3    H112342   5.628   0.829   1.131
 4133TIP3    H212343   5.607   0.968   1.186
 4134TIP3   OH212344   3.811   5.088   0.351
 4134TIP3    H112345   3.810   5.080   0.256
 4134TIP3    H212346   3.728   5.050   0.379
 4135TIP3   OH212347   4.568   1.624   0.622
 4135TIP3    H112348   4.632   1.643   0.690
 4135TIP3    H212349   4.552   1.708   0.579
 4136TIP3   OH212350   0.185   0.647   3.072
 4136TIP3    H112351   0.243   0.615   3.141
 4136TIP3    H212352   0.223   0.731   3.046
 4137TIP3   OH212353   4.352   5.118   6.162
 4137TIP3    H112354   4.285   5.165   6.213
 4137TIP3    H212355   4.412   5.186   6.133
 4138TIP3   OH212356   7.821   5.262   4.434
 4138TIP3    H112357   7.869   5.287   4.354
 4138TIP3    H212358   7.788   5.345   4.469
 4139TIP3   OH212359   1.377   6.119   2.367
 4139TIP3    H112360   1.301   6.149   2.417
 4139TIP3    H212361   1.448   6.175   2.397
 4140TIP3   OH212362   7.358   0.101   3.283
 4140TIP3    H112363   7.287   0.062   3.231
 4140TIP3    H212364   7.396   0.027   3.331
 4141TIP3   OH212365   4.372   5.668   1.439
 4141TIP3    H112366   4.467   5.667   1.449
 4141TIP3    H212367   4.357   5.730   1.367
 4142TIP3   OH212368   6.154   6.851   1.348
 4142TIP3    H112369   6.084   6.811   1.399
 4142TIP3    H212370   6.213   6.779   1.328
 4143TIP3   OH212371   2.289   0.736   0.334
 4143TIP3    H112372   2.229   0.789   0.282
 4143TIP3    H212373   2.376   0.756   0.299
 4144TIP3   OH212374   1.304   4.468   6.296
 4144TIP3    H112375   1.395   4.448   6.315
 4144TIP3    H212376   1.305   4.559   6.264
 4145TIP3   OH212377   1.164   4.323   0.884
 4145TIP3    H112378   1.201   4.282   0.806
 4145TIP3    H212379   1.239   4.342   0.940
 4146TIP3   OH212380   6.186   1.906   5.915
 4146TIP3    H112381   6.215   1.966   5.846
 4146TIP3    H212382   6.188   1.819   5.874
 4147TIP3   OH212383   7.682   6.236   2.437
 4147TIP3    H112384   7.597   6.234   2.391
 4147TIP3    H212385   7.742   6.273   2.373
 4148TIP3   OH212386   1.303   5.845   5.331
 4148TIP3    H112387   1.298   5.914   5.264
 4148TIP3    H212388   1.230   5.787   5.310
 4149TIP3   OH212389   6.578   6.569   0.414
 4149TIP3    H112390   6.510   6.572   0.482
 4149TIP3    H212391   6.531   6.550   0.333
 4150TIP3   OH212392   6.333   4.499   6.058
 4150TIP3    H112393   6.307   4.591   6.046
 4150TIP3    H212394   6.253   4.450   6.040
 4151TIP3   OH212395   2.397   6.274   1.095
 4151TIP3    H112396   2.450   6.242   1.167
 4151TIP3    H212397   2.441   6.354   1.066
 4152TIP3   OH212398   1.279   7.406   0.555
 4152TIP3    H112399   1.279   7.312   0.574
 4152TIP3    H212400   1.371   7.431   0.555
 4153TIP3   OH212401   7.297   1.445   0.759
 4153TIP3    H112402   7.312   1.363   0.712
 4153TIP3    H212403   7.205   1.466   0.741
 4154TIP3   OH212404   3.221   2.400   0.118
 4154TIP3    H112405   3.265   2.465   0.173
 4154TIP3    H212406   3.128   2.422   0.124
 4155TIP3   OH212407   8.178   2.707   5.550
 4155TIP3    H112408   8.119   2.666   5.487
 4155TIP3    H212409   8.124   2.770   5.597
 4156TIP3   OH212410   1.527   6.643   3.793
 4156TIP3    H112411   1.456   6.586   3.823
 4156TIP3    H212412   1.509   6.728   3.835
 4157TIP3   OH212413   0.847   7.236   4.700
 4157TIP3    H112414   0.854   7.148   4.662
 4157TIP3    H212415   0.901   7.291   4.643
 4158TIP3   OH212416   5.057   4.048   0.244
 4158TIP3    H112417   5.140   4.085   0.214
 4158TIP3    H212418   5.004   4.123   0.270
 4159TIP3   OH212419   3.265   6.290   0.768
 4159TIP3    H112420   3.348   6.324   0.804
 4159TIP3    H212421   3.283   6.279   0.674
 4160TIP3   OH212422   7.915   1.712   2.510
 4160TIP3    H112423   7.970   1.652   2.561
 4160TIP3    H212424   7.838   1.726   2.565
 4161TIP3   OH212425   5.039   4.090   3.916
 4161TIP3    H112426   5.108   4.025   3.930
 4161TIP3    H212427   5.027   4.131   4.002
 4162TIP3   OH212428   1.124   7.286   3.526
 4162TIP3    H112429   1.193   7.223   3.545
 4162TIP3    H212430   1.111   7.334   3.607
 4163TIP3   OH212431   2.878   2.672   0.850
 4163TIP3    H112432   2.961   2.627   0.864
 4163TIP3    H212433   2.903   2.763   0.831
 4164TIP3   OH212434   1.267   1.384   4.289
 4164TIP3    H112435   1.208   1.342   4.352
 4164TIP3    H212436   1.209   1.435   4.232
 4165TIP3   OH212437   0.115   4.945   1.662
 4165TIP3    H112438   0.074   4.961   1.577
 4165TIP3    H212439   0.171   5.021   1.677
 4166TIP3   OH212440   2.475   2.704   5.229
 4166TIP3    H112441   2.523   2.653   5.294
 4166TIP3    H212442   2.499   2.663   5.145
 4167TIP3   OH212443   0.974   3.233   3.317
 4167TIP3    H112444   1.051   3.179   3.335
 4167TIP3    H212445   0.976   3.302   3.383
 4168TIP3   OH212446   0.705   3.430   6.402
 4168TIP3    H112447   0.743   3.459   6.320
 4168TIP3    H212448   0.732   3.339   6.411
 4169TIP3   OH212449   2.582   5.978   5.246
 4169TIP3    H112450   2.509   6.040   5.246
 4169TIP3    H212451   2.566   5.923   5.169
 4170TIP3   OH212452   7.318   2.914   3.224
 4170TIP3    H112453   7.407   2.906   3.190
 4170TIP3    H212454   7.265   2.938   3.148
 4171TIP3   OH212455   7.466   7.077   2.618
 4171TIP3    H112456   7.452   7.007   2.554
 4171TIP3    H212457   7.417   7.048   2.696
 4172TIP3   OH212458   1.715   6.276   3.487
 4172TIP3    H112459   1.757   6.297   3.570
 4172TIP3    H212460   1.703   6.181   3.491
 4173TIP3   OH212461   0.638   0.798   6.009
 4173TIP3    H112462   0.639   0.747   6.090
 4173TIP3    H212463   0.703   0.867   6.025
 4174TIP3   OH212464   2.128   4.311   4.071
 4174TIP3    H112465   2.118   4.274   4.159
 4174TIP3    H212466   2.096   4.401   4.080
 4175TIP3   OH212467   6.745   7.132   3.654
 4175TIP3    H112468   6.695   7.161   3.577
 4175TIP3    H212469   6.763   7.212   3.702
 4176TIP3   OH212470   1.031   6.094   0.000
 4176TIP3    H112471   0.952   6.041   0.004
 4176TIP3    H212472   1.045   6.124   0.090
 4177TIP3   OH212473   1.067   5.501   3.798
 4177TIP3    H112474   1.060   5.592   3.828
 4177TIP3    H212475   1.160   5.481   3.801
 4178TIP3   OH212476   2.176   3.076   2.876
 4178TIP3    H112477   2.180   2.998   2.932
 4178TIP3    H212478   2.181   3.149   2.938
 4179TIP3   OH212479   1.546   1.715   2.888
 4179TIP3    H112480   1.626   1.747   2.846
 4179TIP3    H212481   1.478   1.775   2.856
 4180TIP3   OH212482   6.241   6.247   2.289
 4180TIP3    H112483   6.252   6.282   2.377
 4180TIP3    H212484   6.283   6.161   2.292
 4181TIP3   OH212485   7.554   7.646   1.528
 4181TIP3    H112486   7.599   7.728   1.546
 4181TIP3    H212487   7.489   7.668   1.461
 4182TIP3   OH212488   6.673   0.047   2.931
 4182TIP3    H112489   6.628  -0.033   2.906
 4182TIP3    H212490   6.676   0.045   3.027
 4183TIP3   OH212491   6.365   7.053   5.952
 4183TIP3    H112492   6.338   6.965   5.926
 4183TIP3    H212493   6.287   7.091   5.992
 4184TIP3   OH212494   7.802   4.085   1.061
 4184TIP3    H112495   7.821   4.173   1.030
 4184TIP3    H212496   7.801   4.093   1.156
 4185TIP3   OH212497   7.130   5.076   1.006
 4185TIP3    H112498   7.115   5.153   1.061
 4185TIP3    H212499   7.145   5.005   1.068
 4186TIP3   OH212500   3.221   6.027   5.678
 4186TIP3    H112501   3.185   6.034   5.589
 4186TIP3    H212502   3.241   6.117   5.702
 4187TIP3   OH212503   3.770   4.051   3.343
 4187TIP3    H112504   3.825   3.997   3.287
 4187TIP3    H212505   3.791   4.023   3.432
 4188TIP3   OH212506   5.388   5.619   5.487
 4188TIP3    H112507   5.323   5.624   5.417
 4188TIP3    H212508   5.389   5.707   5.525
 4189TIP3   OH212509   2.108   4.092   3.931
 4189TIP3    H112510   2.106   4.180   3.970
 4189TIP3    H212511   2.107   4.033   4.006
 4190TIP3   OH212512   2.860   3.075   6.705
 4190TIP3    H112513   2.910   3.134   6.650
 4190TIP3    H212514   2.854   2.994   6.655
 4191TIP3   OH212515   5.489   5.384   3.320
 4191TIP3    H112516   5.583   5.400   3.316
 4191TIP3    H212517   5.477   5.300   3.275
 4192TIP3   OH212518   3.885   3.338   2.683
 4192TIP3    H112519   3.802   3.383   2.696
 4192TIP3    H212520   3.947   3.385   2.739
 4193TIP3   OH212521   5.915   7.284   6.570
 4193TIP3    H112522   5.939   7.376   6.580
 4193TIP3    H212523   5.898   7.274   6.476
 4194TIP3   OH212524   2.219   2.292   4.015
 4194TIP3    H112525   2.136   2.261   4.050
 4194TIP3    H212526   2.241   2.230   3.945
 4195TIP3   OH212527   4.015   3.844   4.101
 4195TIP3    H112528   3.970   3.761   4.083
 4195TIP3    H212529   3.998   3.861   4.194
 4196TIP3   OH212530   1.912   2.428   4.411
 4196TIP3    H112531   1.854   2.440   4.336
 4196TIP3    H212532   1.871   2.477   4.482
 4197TIP3   OH212533   4.310   7.619   3.452
 4197TIP3    H112534   4.374   7.553   3.428
 4197TIP3    H212535   4.228   7.571   3.464
 4198TIP3   OH212536   3.570   3.130   3.413
 4198TIP3    H112537   3.588   3.096   3.501
 4198TIP3    H212538   3.494   3.081   3.383
 4199TIP3   OH212539   3.037   2.839   2.239
 4199TIP3    H112540   2.994   2.773   2.293
 4199TIP3    H212541   3.127   2.808   2.231
 4200TIP3   OH212542   3.734   6.893   0.170
 4200TIP3    H112543   3.722   6.953   0.244
 4200TIP3    H212544   3.819   6.853   0.184
 4201TIP3   OH212545   8.144   0.897   4.181
 4201TIP3    H112546   8.128   0.892   4.275
 4201TIP3    H212547   8.107   0.816   4.145
 4202TIP3   OH212548   3.197   5.413   5.193
 4202TIP3    H112549   3.139   5.477   5.234
 4202TIP3    H212550   3.256   5.466   5.139
 4203TIP3   OH212551   2.968   6.667   3.130
 4203TIP3    H112552   2.979   6.579   3.166
 4203TIP3    H212553   3.056   6.703   3.124
 4204TIP3   OH212554   4.639   6.387   6.626
 4204TIP3    H112555   4.731   6.380   6.604
 4204TIP3    H212556   4.636   6.375   6.721
 4205TIP3   OH212557   4.118   5.155   0.386
 4205TIP3    H112558   4.173   5.078   0.372
 4205TIP3    H212559   4.029   5.121   0.381
 4206TIP3   OH212560   6.447   4.426   4.102
 4206TIP3    H112561   6.488   4.452   4.184
 4206TIP3    H212562   6.515   4.439   4.036
 4207TIP3   OH212563   7.565   5.420   2.399
 4207TIP3    H112564   7.548   5.415   2.493
 4207TIP3    H212565   7.478   5.411   2.359
 4208TIP3   OH212566   4.344   4.325   0.708
 4208TIP3    H112567   4.357   4.329   0.613
 4208TIP3    H212568   4.320   4.234   0.725
 4209TIP3   OH212569   6.303   0.437   6.760
 4209TIP3    H112570   6.344   0.368   6.706
 4209TIP3    H212571   6.377   0.488   6.792
 4210TIP3   OH212572   6.168   4.178   0.518
 4210TIP3    H112573   6.234   4.244   0.498
 4210TIP3    H212574   6.091   4.228   0.547
 4211TIP3   OH212575   8.284   3.425   5.513
 4211TIP3    H112576   8.191   3.400   5.508
 4211TIP3    H212577   8.282   3.519   5.531
 4212TIP3   OH212578   5.625   1.330   0.387
 4212TIP3    H112579   5.631   1.344   0.481
 4212TIP3    H212580   5.600   1.238   0.377
 4213TIP3   OH212581   5.409   6.792   0.496
 4213TIP3    H112582   5.321   6.788   0.533
 4213TIP3    H212583   5.396   6.789   0.401
 4214TIP3   OH212584   2.798   3.791   6.449
 4214TIP3    H112585   2.802   3.872   6.500
 4214TIP3    H212586   2.870   3.799   6.386
 4215TIP3   OH212587   5.978   0.251   1.744
 4215TIP3    H112588   6.042   0.288   1.683
 4215TIP3    H212589   6.027   0.237   1.825
 4216TIP3   OH212590   0.292   3.088   0.984
 4216TIP3    H112591   0.241   3.139   1.048
 4216TIP3    H212592   0.287   3.140   0.904
 4217TIP3   OH212593   1.287   4.375   2.782
 4217TIP3    H112594   1.336   4.425   2.847
 4217TIP3    H212595   1.195   4.394   2.802
 4218TIP3   OH212596   3.927   3.994   5.036
 4218TIP3    H112597   3.934   3.992   4.940
 4218TIP3    H212598   3.941   4.085   5.060
 4219TIP3   OH212599   4.897   7.196   1.196
 4219TIP3    H112600   4.866   7.240   1.117
 4219TIP3    H212601   4.991   7.216   1.198
 4220TIP3   OH212602   2.317   7.052   6.575
 4220TIP3    H112603   2.293   7.029   6.665
 4220TIP3    H212604   2.413   7.049   6.574
 4221TIP3   OH212605   5.670   5.706   3.145
 4221TIP3    H112606   5.677   5.770   3.074
 4221TIP3    H212607   5.743   5.727   3.204
 4222TIP3   OH212608   5.266   4.156   0.095
 4222TIP3    H112609   5.249   4.208   0.016
 4222TIP3    H212610   5.306   4.217   0.156
 4223TIP3   OH212611   0.168   0.783   3.431
 4223TIP3    H112612   0.135   0.772   3.342
 4223TIP3    H212613   0.171   0.878   3.444
 4224TIP3   OH212614   5.264   7.754   0.299
 4224TIP3    H112615   5.284   7.812   0.373
 4224TIP3    H212616   5.348   7.712   0.278
 4225TIP3   OH212617   5.389   0.761   6.384
 4225TIP3    H112618   5.322   0.779   6.451
 4225TIP3    H212619   5.341   0.715   6.315
 4226TIP3   OH212620   0.576   6.558   5.030
 4226TIP3    H112621   0.647   6.574   4.967
 4226TIP3    H212622   0.498   6.551   4.976
 4227TIP3   OH212623   4.510   1.664   4.956
 4227TIP3    H112624   4.541   1.576   4.977
 4227TIP3    H212625   4.414   1.659   4.966
 4228TIP3   OH212626   0.307   1.751   3.163
 4228TIP3    H112627   0.321   1.660   3.140
 4228TIP3    H212628   0.353   1.801   3.095
 4229TIP3   OH212629   1.885   7.083   1.465
 4229TIP3    H112630   1.944   7.018   1.425
 4229TIP3    H212631   1.936   7.121   1.537
 4230TIP3   OH212632   4.863   1.374   3.795
 4230TIP3    H112633   4.813   1.352   3.874
 4230TIP3    H212634   4.954   1.357   3.819
 4231TIP3   OH212635   6.967   0.344   5.469
 4231TIP3    H112636   6.919   0.333   5.388
 4231TIP3    H212637   7.027   0.417   5.453
 4232TIP3   OH212638   1.403   1.914   2.770
 4232TIP3    H112639   1.455   1.993   2.780
 4232TIP3    H212640   1.318   1.936   2.806
 4233TIP3   OH212641   6.935   4.757   1.871
 4233TIP3    H112642   6.998   4.828   1.865
 4233TIP3    H212643   6.979   4.690   1.923
 4234TIP3   OH212644   1.638   2.072   5.979
 4234TIP3    H112645   1.598   2.070   6.066
 4234TIP3    H212646   1.732   2.074   5.995
 4235TIP3   OH212647   3.775   0.551   4.334
 4235TIP3    H112648   3.714   0.624   4.339
 4235TIP3    H212649   3.814   0.545   4.422
 4236TIP3   OH212650   3.598   1.680   0.602
 4236TIP3    H112651   3.593   1.597   0.649
 4236TIP3    H212652   3.677   1.673   0.549
 4237TIP3   OH212653   6.842   3.149   6.583
 4237TIP3    H112654   6.792   3.181   6.658
 4237TIP3    H212655   6.775   3.123   6.519
 4238TIP3   OH212656   0.945   5.890   6.247
 4238TIP3    H112657   0.923   5.968   6.196
 4238TIP3    H212658   0.896   5.819   6.204
 4239TIP3   OH212659   3.790   0.984   6.178
 4239TIP3    H112660   3.767   0.941   6.260
 4239TIP3    H212661   3.712   0.976   6.124
 4240TIP3   OH212662   2.878   1.384   4.468
 4240TIP3    H112663   2.862   1.474   4.443
 4240TIP3    H212664   2.965   1.386   4.509
 4241TIP3   OH212665   6.799   6.036   5.952
 4241TIP3    H112666   6.768   5.971   5.888
 4241TIP3    H212667   6.865   5.990   6.003
 4242TIP3   OH212668   6.589   3.495   0.281
 4242TIP3    H112669   6.542   3.572   0.313
 4242TIP3    H212670   6.555   3.483   0.192
 4243TIP3   OH212671   3.900   5.640   0.331
 4243TIP3    H112672   3.864   5.643   0.420
 4243TIP3    H212673   3.946   5.724   0.321
 4244TIP3   OH212674   7.301   4.783   1.574
 4244TIP3    H112675   7.278   4.770   1.482
 4244TIP3    H212676   7.385   4.827   1.572
 4245TIP3   OH212677   4.754   0.315   1.606
 4245TIP3    H112678   4.692   0.280   1.670
 4245TIP3    H212679   4.725   0.404   1.590
 4246TIP3   OH212680   3.889   0.276   1.457
 4246TIP3    H112681   3.968   0.325   1.479
 4246TIP3    H212682   3.916   0.184   1.463
 4247TIP3   OH212683   0.320   0.028   1.778
 4247TIP3    H112684   0.352   0.040   1.867
 4247TIP3    H212685   0.292   0.116   1.750
 4248TIP3   OH212686   4.057   3.844   3.842
 4248TIP3    H112687   4.089   3.758   3.815
 4248TIP3    H212688   4.065   3.843   3.937
 4249TIP3   OH212689   7.491   0.351   1.588
 4249TIP3    H112690   7.458   0.310   1.668
 4249TIP3    H212691   7.584   0.366   1.606
 4250TIP3   OH212692   1.799   4.234   2.222
 4250TIP3    H112693   1.853   4.181   2.281
 4250TIP3    H212694   1.825   4.207   2.134
 4251TIP3   OH212695   5.775   7.183   1.210
 4251TIP3    H112696   5.804   7.161   1.298
 4251TIP3    H212697   5.808   7.112   1.155
 4252TIP3   OH212698   7.871   6.716   3.857
 4252TIP3    H112699   7.842   6.707   3.948
 4252TIP3    H212700   7.791   6.701   3.805
 4253TIP3   OH212701   4.374   5.575   1.730
 4253TIP3    H112702   4.378   5.587   1.635
 4253TIP3    H212703   4.307   5.636   1.760
 4254TIP3   OH212704   3.550   4.403   5.558
 4254TIP3    H112705   3.467   4.449   5.542
 4254TIP3    H212706   3.595   4.404   5.473
 4255TIP3   OH212707   3.123   0.728   0.292
 4255TIP3    H112708   3.144   0.731   0.385
 4255TIP3    H212709   3.202   0.761   0.249
 4256TIP3   OH212710   1.119   2.191   2.147
 4256TIP3    H112711   1.040   2.187   2.093
 4256TIP3    H212712   1.108   2.271   2.200
 4257TIP3   OH212713   2.924   0.653   3.545
 4257TIP3    H112714   2.873   0.635   3.466
 4257TIP3    H212715   2.898   0.742   3.570
 4258TIP3   OH212716   1.348   6.851   5.024
 4258TIP3    H112717   1.278   6.787   5.040
 4258TIP3    H212718   1.348   6.907   5.101
 4259TIP3   OH212719   3.659   5.049   4.542
 4259TIP3    H112720   3.673   4.976   4.481
 4259TIP3    H212721   3.564   5.057   4.549
 4260TIP3   OH212722   5.567   7.628   0.988
 4260TIP3    H112723   5.513   7.558   0.950
 4260TIP3    H212724   5.585   7.597   1.077
 4261TIP3   OH212725   0.762   6.102   1.917
 4261TIP3    H112726   0.766   6.193   1.945
 4261TIP3    H212727   0.818   6.055   1.979
 4262TIP3   OH212728   0.689   4.287   3.524
 4262TIP3    H112729   0.624   4.271   3.456
 4262TIP3    H212730   0.720   4.200   3.548
 4263TIP3   OH212731   1.006   0.649   1.344
 4263TIP3    H112732   0.997   0.613   1.432
 4263TIP3    H212733   1.081   0.708   1.349
 4264TIP3   OH212734   6.315   6.915   4.555
 4264TIP3    H112735   6.222   6.900   4.540
 4264TIP3    H212736   6.319   6.959   4.639
 4265TIP3   OH212737   1.761   5.508   4.571
 4265TIP3    H112738   1.740   5.566   4.645
 4265TIP3    H212739   1.800   5.431   4.611
 4266TIP3   OH212740   1.235   3.449   6.046
 4266TIP3    H112741   1.258   3.384   5.980
 4266TIP3    H212742   1.318   3.471   6.088
 4267TIP3   OH212743   6.447   6.967   3.080
 4267TIP3    H112744   6.451   6.900   3.148
 4267TIP3    H212745   6.485   7.045   3.119
 4268TIP3   OH212746   4.401   2.669   4.330
 4268TIP3    H112747   4.461   2.600   4.299
 4268TIP3    H212748   4.452   2.749   4.323
 4269TIP3   OH212749   6.852   7.567   4.145
 4269TIP3    H112750   6.897   7.483   4.152
 4269TIP3    H212751   6.865   7.595   4.055
 4270TIP3   OH212752   2.579   2.137   5.041
 4270TIP3    H112753   2.576   2.215   5.096
 4270TIP3    H212754   2.598   2.065   5.101
 4271TIP3   OH212755   0.582   7.778   5.600
 4271TIP3    H112756   0.649   7.814   5.657
 4271TIP3    H212757   0.499   7.798   5.644
 4272TIP3   OH212758   5.697   7.011   4.281
 4272TIP3    H112759   5.733   6.922   4.286
 4272TIP3    H212760   5.623   7.003   4.221
 4273TIP3   OH212761   0.873   5.665   2.542
 4273TIP3    H112762   0.929   5.634   2.472
 4273TIP3    H212763   0.796   5.700   2.498
 4274TIP3   OH212764   5.420   1.791   5.398
 4274TIP3    H112765   5.397   1.868   5.346
 4274TIP3    H212766   5.483   1.824   5.463
 4275TIP3   OH212767   1.763   4.036   4.517
 4275TIP3    H112768   1.673   4.032   4.485
 4275TIP3    H212769   1.766   4.116   4.570
 4276TIP3   OH212770   4.500   3.789   2.611
 4276TIP3    H112771   4.473   3.793   2.703
 4276TIP3    H212772   4.429   3.741   2.568
 4277TIP3   OH212773   1.088   7.620   5.669
 4277TIP3    H112774   1.024   7.573   5.617
 4277TIP3    H212775   1.117   7.557   5.736
 4278TIP3   OH212776   0.969   7.287   1.205
 4278TIP3    H112777   0.939   7.198   1.191
 4278TIP3    H212778   0.914   7.340   1.147
 4279TIP3   OH212779   0.200   0.197   0.303
 4279TIP3    H112780   0.176   0.109   0.330
 4279TIP3    H212781   0.148   0.255   0.359
 4280TIP3   OH212782   0.725   5.434   4.531
 4280TIP3    H112783   0.724   5.512   4.475
 4280TIP3    H212784   0.655   5.379   4.498
 4281TIP3   OH212785   7.836   4.069   4.591
 4281TIP3    H112786   7.855   4.083   4.498
 4281TIP3    H212787   7.752   4.114   4.605
 4282TIP3   OH212788   2.966   5.527   6.705
 4282TIP3    H112789   2.887   5.472   6.696
 4282TIP3    H212790   2.952   5.599   6.644
 4283TIP3   OH212791   0.714   5.724   1.714
 4283TIP3    H112792   0.762   5.641   1.713
 4283TIP3    H212793   0.636   5.708   1.662
 4284TIP3   OH212794   3.086   7.153   3.146
 4284TIP3    H112795   3.011   7.170   3.089
 4284TIP3    H212796   3.162   7.177   3.093
 4285TIP3   OH212797   7.145   0.758   5.965
 4285TIP3    H112798   7.158   0.717   6.050
 4285TIP3    H212799   7.090   0.835   5.983
 4286TIP3   OH212800   0.209   6.811   6.012
 4286TIP3    H112801   0.203   6.720   6.042
 4286TIP3    H212802   0.290   6.815   5.961
 4287TIP3   OH212803   1.256   7.229   5.014
 4287TIP3    H112804   1.281   7.270   5.096
 4287TIP3    H212805   1.210   7.149   5.040
 4288TIP3   OH212806   1.455   1.163   5.094
 4288TIP3    H112807   1.512   1.113   5.035
 4288TIP3    H212808   1.368   1.126   5.081
 4289TIP3   OH212809   2.066   1.239   2.862
 4289TIP3    H112810   2.116   1.319   2.873
 4289TIP3    H212811   1.982   1.267   2.826
 4290TIP3   OH212812   8.221   2.116   0.385
 4290TIP3    H112813   8.227   2.178   0.312
 4290TIP3    H212814   8.307   2.075   0.389
 4291TIP3   OH212815   4.889   2.737   6.005
 4291TIP3    H112816   4.936   2.768   6.082
 4291TIP3    H212817   4.948   2.753   5.932
 4292TIP3   OH212818   0.649   2.074   6.709
 4292TIP3    H112819   0.659   1.979   6.699
 4292TIP3    H212820   0.731   2.110   6.675
 4293TIP3   OH212821   2.116   3.945   4.666
 4293TIP3    H112822   2.173   3.942   4.744
 4293TIP3    H212823   2.034   3.981   4.698
 4294TIP3   OH212824   0.321   2.771   0.034
 4294TIP3    H112825   0.326   2.678   0.057
 4294TIP3    H212826   0.228   2.791   0.036
 4295TIP3   OH212827   5.084   7.026   1.911
 4295TIP3    H112828   5.058   7.117   1.924
 4295TIP3    H212829   5.130   7.002   1.992
 4296TIP3   OH212830   6.602   5.733   2.454
 4296TIP3    H112831   6.620   5.820   2.488
 4296TIP3    H212832   6.538   5.695   2.514
 4297TIP3   OH212833   1.574   1.783   0.074
 4297TIP3    H112834   1.513   1.815   0.141
 4297TIP3    H212835   1.560   1.841  -0.001
 4298TIP3   OH212836   0.915   1.759   1.834
 4298TIP3    H112837   0.837   1.756   1.891
 4298TIP3    H212838   0.880   1.748   1.746
 4299TIP3   OH212839   5.085   7.674   3.736
 4299TIP3    H112840   5.126   7.589   3.750
 4299TIP3    H212841   5.131   7.734   3.795
 4300TIP3   OH212842   1.224   6.050   4.812
 4300TIP3    H112843   1.219   6.005   4.728
 4300TIP3    H212844   1.313   6.085   4.816
 4301TIP3   OH212845   3.722   0.261   2.648
 4301TIP3    H112846   3.791   0.202   2.676
 4301TIP3    H212847   3.766   0.326   2.594
 4302TIP3   OH212848   3.565   6.138   0.555
 4302TIP3    H112849   3.519   6.216   0.586
 4302TIP3    H212850   3.566   6.148   0.460
 4303TIP3   OH212851   0.524   0.506   0.634
 4303TIP3    H112852   0.481   0.432   0.676
 4303TIP3    H212853   0.591   0.533   0.696
 4304TIP3   OH212854   5.772   3.280   5.412
 4304TIP3    H112855   5.865   3.304   5.406
 4304TIP3    H212856   5.772   3.195   5.456
 4305TIP3   OH212857   7.021   6.529   0.858
 4305TIP3    H112858   7.043   6.583   0.934
 4305TIP3    H212859   6.981   6.590   0.796
 4306TIP3   OH212860   4.667   5.118   2.880
 4306TIP3    H112861   4.655   5.061   2.804
 4306TIP3    H212862   4.599   5.185   2.871
 4307TIP3   OH212863   1.954   4.976   2.072
 4307TIP3    H112864   1.882   5.039   2.068
 4307TIP3    H212865   1.969   4.951   1.981
 4308TIP3   OH212866   8.043   7.752   0.410
 4308TIP3    H112867   8.068   7.768   0.501
 4308TIP3    H212868   8.002   7.666   0.411
 4309TIP3   OH212869   4.258   0.254   6.333
 4309TIP3    H112870   4.281   0.327   6.276
 4309TIP3    H212871   4.315   0.182   6.305
 4310TIP3   OH212872   3.475   3.043   4.696
 4310TIP3    H112873   3.496   3.050   4.603
 4310TIP3    H212874   3.477   2.949   4.714
 4311TIP3   OH212875   3.993   6.945   1.873
 4311TIP3    H112876   4.056   6.876   1.852
 4311TIP3    H212877   3.948   6.963   1.791
 4312TIP3   OH212878   0.678   3.090   1.988
 4312TIP3    H112879   0.662   3.183   1.972
 4312TIP3    H212880   0.715   3.087   2.077
 4313TIP3   OH212881   6.930   1.179   2.783
 4313TIP3    H112882   6.923   1.144   2.694
 4313TIP3    H212883   6.879   1.260   2.782
 4314TIP3   OH212884   0.686   4.256   5.278
 4314TIP3    H112885   0.623   4.187   5.257
 4314TIP3    H212886   0.675   4.321   5.209
 4315TIP3   OH212887   6.488   6.909   3.647
 4315TIP3    H112888   6.568   6.914   3.700
 4315TIP3    H212889   6.429   6.853   3.697
 4316TIP3   OH212890   3.121   0.722   2.796
 4316TIP3    H112891   3.120   0.700   2.703
 4316TIP3    H212892   3.136   0.639   2.841
 4317TIP3   OH212893   0.832  -0.021   6.668
 4317TIP3    H112894   0.821  -0.080   6.743
 4317TIP3    H212895   0.926  -0.001   6.666
 4318TIP3   OH212896   7.948   1.504   5.036
 4318TIP3    H112897   7.906   1.427   4.998
 4318TIP3    H212898   7.979   1.475   5.122
 4319TIP3   OH212899   4.487   6.720   1.154
 4319TIP3    H112900   4.454   6.756   1.071
 4319TIP3    H212901   4.420   6.742   1.218
 4320TIP3   OH212902   4.559   6.219   5.091
 4320TIP3    H112903   4.612   6.288   5.050
 4320TIP3    H212904   4.607   6.138   5.073
 4321TIP3   OH212905   2.742   5.260  -0.009
 4321TIP3    H112906   2.664   5.249  -0.064
 4321TIP3    H212907   2.709   5.302   0.071
 4322TIP3   OH212908   1.849   2.776   1.445
 4322TIP3    H112909   1.787   2.806   1.378
 4322TIP3    H212910   1.817   2.689   1.470
 4323TIP3   OH212911   6.621   5.281   3.330
 4323TIP3    H112912   6.694   5.224   3.305
 4323TIP3    H212913   6.612   5.269   3.425
 4324TIP3   OH212914   0.620   7.254   0.478
 4324TIP3    H112915   0.575   7.199   0.415
 4324TIP3    H212916   0.708   7.217   0.484
 4325TIP3   OH212917   7.705   5.332   1.653
 4325TIP3    H112918   7.682   5.298   1.566
 4325TIP3    H212919   7.798   5.351   1.647
 4326TIP3   OH212920   0.065   6.099   4.905
 4326TIP3    H112921   0.068   6.179   4.853
 4326TIP3    H212922   0.087   6.127   4.994
 4327TIP3   OH212923   2.754   2.095   2.398
 4327TIP3    H112924   2.824   2.156   2.418
 4327TIP3    H212925   2.679   2.126   2.449
 4328TIP3   OH212926   2.364   6.689   0.667
 4328TIP3    H112927   2.344   6.733   0.584
 4328TIP3    H212928   2.444   6.731   0.698
 4329TIP3   OH212929   5.256   4.423   1.889
 4329TIP3    H112930   5.167   4.446   1.916
 4329TIP3    H212931   5.299   4.508   1.875
 4330TIP3   OH212932   4.274   5.320   2.124
 4330TIP3    H112933   4.237   5.245   2.170
 4330TIP3    H212934   4.216   5.392   2.146
 4331TIP3   OH212935   8.177   6.714   0.593
 4331TIP3    H112936   8.201   6.676   0.678
 4331TIP3    H212937   8.253   6.766   0.568
 4332TIP3   OH212938   2.960   4.336   1.117
 4332TIP3    H112939   3.048   4.362   1.090
 4332TIP3    H212940   2.949   4.248   1.081
 4333TIP3   OH212941   7.460   7.674   2.672
 4333TIP3    H112942   7.471   7.650   2.580
 4333TIP3    H212943   7.396   7.611   2.706
 4334TIP3   OH212944   1.947   6.913   2.903
 4334TIP3    H112945   2.016   6.936   2.841
 4334TIP3    H212946   1.991   6.917   2.989
 4335TIP3   OH212947   3.239   0.625   6.144
 4335TIP3    H112948   3.251   0.562   6.215
 4335TIP3    H212949   3.297   0.595   6.074
 4336TIP3   OH212950   7.945   3.861   0.971
 4336TIP3    H112951   8.014   3.898   0.916
 4336TIP3    H212952   7.889   3.936   0.991
 4337TIP3   OH212953   2.017   6.946   0.845
 4337TIP3    H112954   2.036   6.853   0.863
 4337TIP3    H212955   2.003   6.985   0.931
 4338TIP3   OH212956   7.949   3.480   4.704
 4338TIP3    H112957   7.858   3.467   4.676
 4338TIP3    H212958   7.948   3.462   4.798
 4339TIP3   OH212959   4.683   0.509   0.534
 4339TIP3    H112960   4.659   0.495   0.625
 4339TIP3    H212961   4.606   0.480   0.484
 4340TIP3   OH212962   1.004   0.531   1.593
 4340TIP3    H112963   0.958   0.452   1.566
 4340TIP3    H212964   1.055   0.505   1.669
 4341TIP3   OH212965   5.156   6.861   3.874
 4341TIP3    H112966   5.157   6.830   3.783
 4341TIP3    H212967   5.084   6.813   3.915
 4342TIP3   OH212968   3.088   3.590   2.012
 4342TIP3    H112969   3.177   3.555   2.006
 4342TIP3    H212970   3.040   3.545   1.942
 4343TIP3   OH212971   0.929   2.645   2.681
 4343TIP3    H112972   0.939   2.617   2.772
 4343TIP3    H212973   0.834   2.640   2.665
 4344TIP3   OH212974   2.021   0.738   0.716
 4344TIP3    H112975   2.062   0.820   0.744
 4344TIP3    H212976   2.067   0.670   0.767
 4345TIP3   OH212977   2.533   2.377   5.554
 4345TIP3    H112978   2.468   2.422   5.499
 4345TIP3    H212979   2.486   2.300   5.588
 4346TIP3   OH212980   2.574   4.761   6.134
 4346TIP3    H112981   2.519   4.700   6.183
 4346TIP3    H212982   2.584   4.836   6.193
 4347TIP3   OH212983   1.076   7.491   2.170
 4347TIP3    H112984   1.056   7.555   2.239
 4347TIP3    H212985   1.076   7.407   2.215
 4348TIP3   OH212986   6.861   2.288   6.111
 4348TIP3    H112987   6.815   2.296   6.027
 4348TIP3    H212988   6.883   2.378   6.135
 4349TIP3   OH212989   6.394   6.713   5.377
 4349TIP3    H112990   6.398   6.671   5.291
 4349TIP3    H212991   6.340   6.791   5.362
 4350TIP3   OH212992   5.480   3.662   2.426
 4350TIP3    H112993   5.460   3.643   2.335
 4350TIP3    H212994   5.523   3.748   2.424
 4351TIP3   OH212995   5.992   0.526   0.241
 4351TIP3    H112996   6.035   0.592   0.295
 4351TIP3    H212997   5.994   0.564   0.153
 4352TIP3   OH212998   8.212   0.430   1.059
 4352TIP3    H112999   8.300   0.460   1.037
 4352TIP3    H213000   8.161   0.447   0.980
 4353TIP3   OH213001   3.548   0.893   6.645
 4353TIP3    H113002   3.476   0.946   6.612
 4353TIP3    H213003   3.536   0.892   6.740
 4354TIP3   OH213004   7.730   6.489   4.332
 4354TIP3    H113005   7.635   6.478   4.326
 4354TIP3    H213006   7.742   6.564   4.390
 4355TIP3   OH213007   3.884   4.712   5.831
 4355TIP3    H113008   3.829   4.723   5.909
 4355TIP3    H213009   3.839   4.761   5.762
 4356TIP3   OH213010   7.615   3.049   2.978
 4356TIP3    H113011   7.524   3.074   2.993
 4356TIP3    H213012   7.631   2.979   3.041
 4357TIP3   OH213013   3.888   0.421   0.259
 4357TIP3    H113014   3.897   0.412   0.354
 4357TIP3    H213015   3.794   0.434   0.245
 4358TIP3   OH213016   2.550   0.828   2.119
 4358TIP3    H113017   2.543   0.836   2.214
 4358TIP3    H213018   2.555   0.918   2.087
 4359TIP3   OH213019   1.267   5.235   0.959
 4359TIP3    H113020   1.259   5.160   1.018
 4359TIP3    H213021   1.361   5.247   0.948
 4360TIP3   OH213022   1.269   3.347   0.592
 4360TIP3    H113023   1.207   3.345   0.519
 4360TIP3    H213024   1.323   3.424   0.577
 4361TIP3   OH213025   0.033   5.446   3.720
 4361TIP3    H113026  -0.060   5.462   3.730
 4361TIP3    H213027   0.055   5.483   3.634
 4362TIP3   OH213028   5.682   6.481   4.900
 4362TIP3    H113029   5.671   6.497   4.994
 4362TIP3    H213030   5.688   6.569   4.862
 4363TIP3   OH213031   3.313   7.245   5.785
 4363TIP3    H113032   3.296   7.309   5.854
 4363TIP3    H213033   3.262   7.276   5.710
 4364TIP3   OH213034   7.252   5.946   3.165
 4364TIP3    H113035   7.294   6.032   3.166
 4364TIP3    H213036   7.223   5.933   3.255
 4365TIP3   OH213037   7.818   1.662   5.633
 4365TIP3    H113038   7.758   1.737   5.637
 4365TIP3    H213039   7.778   1.604   5.569
 4366TIP3   OH213040   2.224   3.234   0.741
 4366TIP3    H113041   2.143   3.258   0.786
 4366TIP3    H213042   2.198   3.220   0.650
 4367TIP3   OH213043   7.741   0.247   6.463
 4367TIP3    H113044   7.782   0.332   6.475
 4367TIP3    H213045   7.687   0.236   6.541
 4368TIP3   OH213046   4.915   0.328   5.217
 4368TIP3    H113047   4.905   0.347   5.124
 4368TIP3    H213048   4.845   0.378   5.259
 4369TIP3   OH213049   0.266   4.853   6.274
 4369TIP3    H113050   0.215   4.882   6.198
 4369TIP3    H213051   0.233   4.905   6.347
 4370TIP3   OH213052   6.529   2.421   5.852
 4370TIP3    H113053   6.445   2.412   5.897
 4370TIP3    H213054   6.514   2.492   5.789
 4371TIP3   OH213055   6.284   3.773   4.574
 4371TIP3    H113056   6.373   3.795   4.548
 4371TIP3    H213057   6.230   3.796   4.499
 4372TIP3   OH213058   0.436   7.780   5.012
 4372TIP3    H113059   0.378   7.742   5.079
 4372TIP3    H213060   0.521   7.738   5.027
 4373TIP3   OH213061   0.650   2.904   2.646
 4373TIP3    H113062   0.733   2.934   2.608
 4373TIP3    H213063   0.650   2.810   2.630
 4374TIP3   OH213064   0.048   2.827   0.565
 4374TIP3    H113065   0.103   2.762   0.521
 4374TIP3    H213066   0.004   2.874   0.495
 4375TIP3   OH213067   5.287   0.342   5.034
 4375TIP3    H113068   5.265   0.291   4.956
 4375TIP3    H213069   5.322   0.424   5.001
 4376TIP3   OH213070   5.667   7.223   6.125
 4376TIP3    H113071   5.698   7.247   6.038
 4376TIP3    H213072   5.651   7.128   6.120
 4377TIP3   OH213073   3.016   0.386   3.689
 4377TIP3    H113074   3.027   0.305   3.639
 4377TIP3    H213075   2.974   0.446   3.627
 4378TIP3   OH213076   4.757   1.059   0.716
 4378TIP3    H113077   4.686   1.005   0.682
 4378TIP3    H213078   4.820   0.997   0.753
 4379TIP3   OH213079   3.789   6.629   2.726
 4379TIP3    H113080   3.789   6.717   2.689
 4379TIP3    H213081   3.862   6.630   2.788
 4380TIP3   OH213082   8.078   6.546   5.815
 4380TIP3    H113083   8.088   6.537   5.720
 4380TIP3    H213084   8.111   6.634   5.834
 4381TIP3   OH213085   4.992   3.006   0.601
 4381TIP3    H113086   5.000   3.090   0.647
 4381TIP3    H213087   4.922   2.960   0.649
 4382TIP3   OH213088   6.408   3.046   2.853
 4382TIP3    H113089   6.355   3.014   2.927
 4382TIP3    H213090   6.346   3.096   2.800
 4383TIP3   OH213091   6.903   3.927   1.830
 4383TIP3    H113092   6.967   3.906   1.898
 4383TIP3    H213093   6.846   3.850   1.825
 4384TIP3   OH213094   7.665   0.279   3.872
 4384TIP3    H113095   7.717   0.252   3.797
 4384TIP3    H213096   7.640   0.370   3.852
 4385TIP3   OH213097   2.527   3.246   5.773
 4385TIP3    H113098   2.522   3.153   5.751
 4385TIP3    H213099   2.617   3.258   5.803
 4386TIP3   OH213100   4.012   0.399   5.573
 4386TIP3    H113101   4.077   0.450   5.623
 4386TIP3    H213102   3.966   0.464   5.521
 4387TIP3   OH213103   0.143   3.676   0.849
 4387TIP3    H113104   0.139   3.587   0.884
 4387TIP3    H213105   0.101   3.730   0.915
 4388TIP3   OH213106   7.347   0.876   3.637
 4388TIP3    H113107   7.338   0.969   3.658
 4388TIP3    H213108   7.263   0.838   3.663
 4389TIP3   OH213109   1.532   2.606   1.742
 4389TIP3    H113110   1.514   2.512   1.744
 4389TIP3    H213111   1.583   2.623   1.821
 4390TIP3   OH213112   8.245   3.988   0.217
 4390TIP3    H113113   8.326   4.002   0.266
 4390TIP3    H213114   8.231   3.893   0.223
 4391TIP3   OH213115   0.542   5.046   4.696
 4391TIP3    H113116   0.536   5.050   4.792
 4391TIP3    H213117   0.621   5.096   4.675
 4392TIP3   OH213118   0.315   0.791   6.156
 4392TIP3    H113119   0.325   0.734   6.231
 4392TIP3    H213120   0.359   0.872   6.180
 4393TIP3   OH213121   7.573   5.685   2.668
 4393TIP3    H113122   7.628   5.610   2.644
 4393TIP3    H213123   7.487   5.646   2.686
 4394TIP3   OH213124   2.563   6.379   4.583
 4394TIP3    H113125   2.647   6.421   4.564
 4394TIP3    H213126   2.551   6.314   4.515
 4395TIP3   OH213127   7.375   5.003   4.202
 4395TIP3    H113128   7.438   5.048   4.258
 4395TIP3    H213129   7.370   5.057   4.123
 4396TIP3   OH213130   4.089   3.377   4.958
 4396TIP3    H113131   4.147   3.409   5.026
 4396TIP3    H213132   4.024   3.323   5.004
 4397TIP3   OH213133   6.350   1.003   5.992
 4397TIP3    H113134   6.310   0.994   5.906
 4397TIP3    H213135   6.302   0.942   6.048
 4398TIP3   OH213136   2.561   3.871   2.044
 4398TIP3    H113137   2.610   3.930   2.100
 4398TIP3    H213138   2.493   3.835   2.101
 4399TIP3   OH213139   5.166   5.962   5.969
 4399TIP3    H113140   5.171   5.882   6.022
 4399TIP3    H213141   5.130   6.028   6.029
 4400TIP3   OH213142   0.520   5.788   4.078
 4400TIP3    H113143   0.541   5.846   4.005
 4400TIP3    H213144   0.547   5.836   4.156
 4401TIP3   OH213145   4.611   0.404   3.612
 4401TIP3    H113146   4.596   0.349   3.535
 4401TIP3    H213147   4.628   0.341   3.683
 4402TIP3   OH213148   3.648   4.907   4.297
 4402TIP3    H113149   3.679   4.917   4.207
 4402TIP3    H213150   3.625   4.814   4.304
 4403TIP3   OH213151   1.876   0.543   2.978
 4403TIP3    H113152   1.827   0.624   2.963
 4403TIP3    H213153   1.815   0.473   2.952
 4404TIP3   OH213154   7.968   5.913   2.440
 4404TIP3    H113155   7.992   5.826   2.473
 4404TIP3    H213156   7.884   5.931   2.482
 4405TIP3   OH213157   1.341   4.204   4.700
 4405TIP3    H113158   1.417   4.262   4.705
 4405TIP3    H213159   1.321   4.181   4.790
 4406TIP3   OH213160   3.740   3.993   2.103
 4406TIP3    H113161   3.646   4.013   2.101
 4406TIP3    H213162   3.756   3.942   2.024
 4407TIP3   OH213163   8.019   2.105   5.786
 4407TIP3    H113164   8.005   2.174   5.720
 4407TIP3    H213165   8.074   2.147   5.852
 4408TIP3   OH213166   3.576   4.300   2.286
 4408TIP3    H113167   3.546   4.210   2.296
 4408TIP3    H213168   3.663   4.301   2.326
 4409TIP3   OH213169   5.550   3.567   1.813
 4409TIP3    H113170   5.477   3.629   1.813
 4409TIP3    H213171   5.521   3.496   1.755
 4410TIP3   OH213172   1.441   4.537   4.543
 4410TIP3    H113173   1.453   4.617   4.492
 4410TIP3    H213174   1.482   4.469   4.490
 4411TIP3   OH213175   4.114   6.848   4.028
 4411TIP3    H113176   4.112   6.785   4.100
 4411TIP3    H213177   4.033   6.833   3.980
 4412TIP3   OH213178   0.183   5.752   5.934
 4412TIP3    H113179   0.228   5.764   5.850
 4412TIP3    H213180   0.111   5.692   5.915
 4413TIP3   OH213181   4.260   7.755   1.907
 4413TIP3    H113182   4.236   7.666   1.880
 4413TIP3    H213183   4.211   7.813   1.849
 4414TIP3   OH213184   7.485   1.222   5.391
 4414TIP3    H113185   7.420   1.184   5.333
 4414TIP3    H213186   7.560   1.241   5.335
 4415TIP3   OH213187   2.511   5.167   5.781
 4415TIP3    H113188   2.422   5.196   5.799
 4415TIP3    H213189   2.552   5.160   5.868
 4416TIP3   OH213190   6.496   5.811   6.625
 4416TIP3    H113191   6.527   5.721   6.630
 4416TIP3    H213192   6.567   5.863   6.663
 4417TIP3   OH213193   1.486   4.572   0.548
 4417TIP3    H113194   1.529   4.566   0.463
 4417TIP3    H213195   1.541   4.518   0.606
 4418TIP3   OH213196   0.936   5.122   0.952
 4418TIP3    H113197   0.869   5.166   0.900
 4418TIP3    H213198   0.891   5.095   1.032
 4419TIP3   OH213199   0.218   7.162   5.229
 4419TIP3    H113200   0.294   7.111   5.201
 4419TIP3    H213201   0.188   7.118   5.309
 4420TIP3   OH213202   8.065   5.841   5.790
 4420TIP3    H113203   8.006   5.774   5.827
 4420TIP3    H213204   8.083   5.899   5.863
 4421TIP3   OH213205   0.479   0.582   5.434
 4421TIP3    H113206   0.574   0.571   5.433
 4421TIP3    H213207   0.451   0.564   5.344
 4422TIP3   OH213208   4.133   2.564   1.700
 4422TIP3    H113209   4.186   2.620   1.643
 4422TIP3    H213210   4.118   2.485   1.649
 4423TIP3   OH213211   0.633   3.180   3.607
 4423TIP3    H113212   0.608   3.170   3.698
 4423TIP3    H213213   0.620   3.273   3.588
 4424TIP3   OH213214   2.590   2.579   4.989
 4424TIP3    H113215   2.589   2.495   4.942
 4424TIP3    H213216   2.663   2.571   5.050
 4425TIP3   OH213217   7.287   6.603   0.457
 4425TIP3    H113218   7.261   6.513   0.438
 4425TIP3    H213219   7.206   6.653   0.454
 4426TIP3   OH213220   1.221   7.443   6.558
 4426TIP3    H113221   1.307   7.437   6.599
 4426TIP3    H213222   1.224   7.525   6.508
 4427TIP3   OH213223   3.096   5.308   5.512
 4427TIP3    H113224   3.128   5.221   5.489
 4427TIP3    H213225   3.030   5.328   5.445
 4428TIP3   OH213226   4.381   5.225   5.503
 4428TIP3    H113227   4.475   5.208   5.494
 4428TIP3    H213228   4.370   5.315   5.471
 4429TIP3   OH213229   0.646   1.723   6.160
 4429TIP3    H113230   0.659   1.630   6.176
 4429TIP3    H213231   0.732   1.762   6.177
 4430TIP3   OH213232   3.138   6.168   3.209
 4430TIP3    H113233   3.147   6.239   3.147
 4430TIP3    H213234   3.174   6.092   3.164
 4431TIP3   OH213235   2.980   0.180   4.283
 4431TIP3    H113236   3.054   0.128   4.314
 4431TIP3    H213237   3.015   0.231   4.210
 4432TIP3   OH213238   5.797   6.163   5.697
 4432TIP3    H113239   5.776   6.070   5.688
 4432TIP3    H213240   5.890   6.169   5.675
 4433TIP3   OH213241   3.924   6.701   0.811
 4433TIP3    H113242   4.003   6.754   0.822
 4433TIP3    H213243   3.945   6.619   0.855
 4434TIP3   OH213244   4.611   2.194   5.145
 4434TIP3    H113245   4.686   2.179   5.088
 4434TIP3    H213246   4.618   2.127   5.213
 4435TIP3   OH213247   0.448   7.642   0.220
 4435TIP3    H113248   0.391   7.651   0.297
 4435TIP3    H213249   0.526   7.694   0.241
 4436TIP3   OH213250   1.916   4.120   0.981
 4436TIP3    H113251   1.930   4.054   0.913
 4436TIP3    H213252   1.965   4.196   0.952
 4437TIP3   OH213253   3.334   5.536   0.720
 4437TIP3    H113254   3.296   5.546   0.633
 4437TIP3    H213255   3.420   5.497   0.705
 4438TIP3   OH213256   1.128   0.873   6.409
 4438TIP3    H113257   1.109   0.854   6.318
 4438TIP3    H213258   1.223   0.881   6.413
 4439TIP3   OH213259   6.418   1.487   4.576
 4439TIP3    H113260   6.492   1.467   4.634
 4439TIP3    H213261   6.442   1.568   4.532
 4440TIP3   OH213262   8.214   1.207   0.095
 4440TIP3    H113263   8.247   1.280   0.147
 4440TIP3    H213264   8.222   1.131   0.152
 4441TIP3   OH213265   1.199   3.824   6.117
 4441TIP3    H113266   1.289   3.818   6.147
 4441TIP3    H213267   1.146   3.810   6.196
 4442TIP3   OH213268   2.100   7.590   1.636
 4442TIP3    H113269   2.072   7.649   1.566
 4442TIP3    H213270   2.195   7.603   1.641
 4443TIP3   OH213271   5.888   0.442   3.668
 4443TIP3    H113272   5.935   0.416   3.747
 4443TIP3    H213273   5.903   0.370   3.606
 4444TIP3   OH213274   0.570   0.318   4.125
 4444TIP3    H113275   0.475   0.313   4.116
 4444TIP3    H213276   0.603   0.313   4.035
 4445TIP3   OH213277   0.346   5.087   3.561
 4445TIP3    H113278   0.328   5.057   3.472
 4445TIP3    H213279   0.290   5.033   3.616
 4446TIP3   OH213280   4.009   1.463   1.566
 4446TIP3    H113281   4.034   1.555   1.556
 4446TIP3    H213282   3.952   1.462   1.644
 4447TIP3   OH213283   4.859   4.851   5.073
 4447TIP3    H113284   4.770   4.883   5.056
 4447TIP3    H213285   4.853   4.756   5.060
 4448TIP3   OH213286   4.400   4.428   4.837
 4448TIP3    H113287   4.487   4.436   4.876
 4448TIP3    H213288   4.416   4.387   4.752
 4449TIP3   OH213289   6.102   6.253   4.817
 4449TIP3    H113290   6.138   6.164   4.818
 4449TIP3    H213291   6.133   6.290   4.734
 4450TIP3   OH213292   1.422   5.189   2.628
 4450TIP3    H113293   1.414   5.097   2.655
 4450TIP3    H213294   1.426   5.186   2.533
 4451TIP3   OH213295   4.273   6.037   1.981
 4451TIP3    H113296   4.183   6.012   2.000
 4451TIP3    H213297   4.287   6.014   1.889
 4452TIP3   OH213298   3.517   3.568   6.378
 4452TIP3    H113299   3.465   3.637   6.418
 4452TIP3    H213300   3.463   3.490   6.384
 4453TIP3   OH213301   0.665   3.453   3.536
 4453TIP3    H113302   0.731   3.442   3.468
 4453TIP3    H213303   0.616   3.530   3.509
 4454TIP3   OH213304   3.238   5.212   0.493
 4454TIP3    H113305   3.158   5.228   0.544
 4454TIP3    H213306   3.206   5.175   0.410
 4455TIP3   OH213307   5.133   5.683   6.658
 4455TIP3    H113308   5.074   5.726   6.720
 4455TIP3    H213309   5.206   5.744   6.648
 4456TIP3   OH213310   5.099   0.175   4.388
 4456TIP3    H113311   5.067   0.264   4.377
 4456TIP3    H213312   5.135   0.152   4.302
 4457TIP3   OH213313   3.295   5.777   3.552
 4457TIP3    H113314   3.300   5.869   3.528
 4457TIP3    H213315   3.215   5.770   3.604
 4458TIP3   OH213316   7.335   6.249   3.595
 4458TIP3    H113317   7.350   6.184   3.664
 4458TIP3    H213318   7.288   6.200   3.527
 4459TIP3   OH213319   6.790   2.274   3.186
 4459TIP3    H113320   6.734   2.197   3.193
 4459TIP3    H213321   6.823   2.272   3.096
 4460TIP3   OH213322   1.214   5.989   1.298
 4460TIP3    H113323   1.216   5.936   1.377
 4460TIP3    H213324   1.170   5.933   1.233
 4461TIP3   OH213325   0.429   3.966   3.256
 4461TIP3    H113326   0.369   3.979   3.330
 4461TIP3    H213327   0.396   3.888   3.212
 4462TIP3   OH213328   6.152   7.600   2.742
 4462TIP3    H113329   6.082   7.551   2.786
 4462TIP3    H213330   6.191   7.537   2.682
 4463TIP3   OH213331   4.990   2.804   5.269
 4463TIP3    H113332   4.905   2.763   5.285
 4463TIP3    H213333   5.020   2.764   5.187
 4464TIP3   OH213334   1.619   2.242   0.222
 4464TIP3    H113335   1.650   2.154   0.240
 4464TIP3    H213336   1.698   2.292   0.203
 4465TIP3   OH213337   3.092   4.572   0.881
 4465TIP3    H113338   3.089   4.479   0.902
 4465TIP3    H213339   3.136   4.576   0.796
 4466TIP3   OH213340   7.532   1.756   4.572
 4466TIP3    H113341   7.608   1.729   4.520
 4466TIP3    H213342   7.456   1.729   4.520
 4467TIP3   OH213343   2.444   0.710   6.329
 4467TIP3    H113344   2.493   0.709   6.247
 4467TIP3    H213345   2.363   0.662   6.310
 4468TIP3   OH213346   0.278   1.457   3.043
 4468TIP3    H113347   0.191   1.490   3.065
 4468TIP3    H213348   0.299   1.497   2.959
 4469TIP3   OH213349   3.915   1.404   4.206
 4469TIP3    H113350   3.820   1.407   4.206
 4469TIP3    H213351   3.938   1.357   4.285
 4470TIP3   OH213352   0.259   1.317   0.441
 4470TIP3    H113353   0.205   1.309   0.521
 4470TIP3    H213354   0.340   1.359   0.471
 4471TIP3   OH213355   7.994   3.996   1.661
 4471TIP3    H113356   7.998   3.901   1.656
 4471TIP3    H213357   7.936   4.014   1.735
 4472TIP3   OH213358   0.876   5.694   5.762
 4472TIP3    H113359   0.856   5.783   5.735
 4472TIP3    H213360   0.944   5.665   5.702
 4473TIP3   OH213361   4.538   6.198   1.043
 4473TIP3    H113362   4.483   6.277   1.044
 4473TIP3    H213363   4.587   6.202   1.126
 4474TIP3   OH213364   1.908   5.047   0.845
 4474TIP3    H113365   1.849   5.063   0.771
 4474TIP3    H213366   1.992   5.027   0.804
 4475TIP3   OH213367   3.337   1.402   5.851
 4475TIP3    H113368   3.290   1.388   5.934
 4475TIP3    H213369   3.409   1.460   5.874
 4476TIP3   OH213370   6.712   6.320   5.329
 4476TIP3    H113371   6.618   6.321   5.312
 4476TIP3    H213372   6.735   6.227   5.326
 4477TIP3   OH213373   2.239   6.843   1.925
 4477TIP3    H113374   2.316   6.894   1.948
 4477TIP3    H213375   2.255   6.757   1.964
 4478TIP3   OH213376   1.342   0.235   1.659
 4478TIP3    H113377   1.365   0.315   1.612
 4478TIP3    H213378   1.421   0.181   1.655
 4479TIP3   OH213379   5.115   7.262   2.937
 4479TIP3    H113380   5.108   7.168   2.922
 4479TIP3    H213381   5.097   7.301   2.851
 4480TIP3   OH213382   8.228   6.771   2.005
 4480TIP3    H113383   8.222   6.854   1.958
 4480TIP3    H213384   8.294   6.721   1.958
 4481TIP3   OH213385   7.044   3.028   3.065
 4481TIP3    H113386   7.113   2.967   3.041
 4481TIP3    H213387   7.082   3.115   3.051
 4482TIP3   OH213388   4.085   7.385   3.185
 4482TIP3    H113389   4.000   7.412   3.149
 4482TIP3    H213390   4.088   7.428   3.271
 4483TIP3   OH213391   6.888   2.879   2.882
 4483TIP3    H113392   6.965   2.844   2.837
 4483TIP3    H213393   6.923   2.950   2.937
 4484TIP3   OH213394   4.257   1.756   0.691
 4484TIP3    H113395   4.351   1.770   0.700
 4484TIP3    H213396   4.240   1.765   0.597
 4485TIP3   OH213397   7.817   4.412   3.903
 4485TIP3    H113398   7.766   4.480   3.948
 4485TIP3    H213399   7.754   4.369   3.845
 4486TIP3   OH213400   6.350   0.149   5.131
 4486TIP3    H113401   6.393   0.195   5.059
 4486TIP3    H213402   6.264   0.190   5.138
 4487TIP3   OH213403   5.811   2.290   5.882
 4487TIP3    H113404   5.870   2.354   5.843
 4487TIP3    H213405   5.753   2.342   5.937
 4488TIP3   OH213406   3.632   1.465   5.933
 4488TIP3    H113407   3.710   1.419   5.903
 4488TIP3    H213408   3.646   1.556   5.905
 4489TIP3   OH213409   4.585   7.126   4.817
 4489TIP3    H113410   4.501   7.148   4.776
 4489TIP3    H213411   4.577   7.160   4.906
 4490TIP3   OH213412   0.949   5.952   2.101
 4490TIP3    H113413   1.011   5.882   2.082
 4490TIP3    H213414   1.001   6.018   2.148
 4491TIP3   OH213415   2.462   4.316   0.432
 4491TIP3    H113416   2.496   4.377   0.366
 4491TIP3    H213417   2.395   4.266   0.385
 4492TIP3   OH213418   6.308   7.359   4.331
 4492TIP3    H113419   6.253   7.354   4.253
 4492TIP3    H213420   6.275   7.289   4.388
 4493TIP3   OH213421   5.329   1.478   4.767
 4493TIP3    H113422   5.406   1.478   4.823
 4493TIP3    H213423   5.256   1.496   4.827
 4494TIP3   OH213424   3.498   6.535   4.396
 4494TIP3    H113425   3.482   6.613   4.449
 4494TIP3    H213426   3.500   6.463   4.460
 4495TIP3   OH213427   4.562   3.218   3.283
 4495TIP3    H113428   4.558   3.123   3.295
 4495TIP3    H213429   4.623   3.248   3.351
 4496TIP3   OH213430   3.189   2.598   6.198
 4496TIP3    H113431   3.175   2.649   6.119
 4496TIP3    H213432   3.209   2.510   6.167
 4497TIP3   OH213433   7.333   1.153   2.226
 4497TIP3    H113434   7.357   1.095   2.154
 4497TIP3    H213435   7.251   1.116   2.260
 4498TIP3   OH213436   2.530   1.662   2.377
 4498TIP3    H113437   2.504   1.709   2.456
 4498TIP3    H213438   2.582   1.726   2.327
 4499TIP3   OH213439   2.559   2.217   2.537
 4499TIP3    H113440   2.520   2.251   2.618
 4499TIP3    H213441   2.486   2.176   2.490
 4500TIP3   OH213442   5.753   6.350   5.946
 4500TIP3    H113443   5.762   6.285   5.876
 4500TIP3    H213444   5.841   6.357   5.983
 4501TIP3   OH213445   5.776   2.473   0.143
 4501TIP3    H113446   5.690   2.436   0.123
 4501TIP3    H213447   5.761   2.530   0.218
 4502TIP3   OH213448   4.902   1.689   5.304
 4502TIP3    H113449   4.994   1.669   5.285
 4502TIP3    H213450   4.888   1.775   5.265
 4503TIP3   OH213451   0.033   6.936   5.718
 4503TIP3    H113452   0.095   7.008   5.716
 4503TIP3    H213453   0.052   6.885   5.638
 4504TIP3   OH213454   1.561   5.274   4.672
 4504TIP3    H113455   1.554   5.348   4.731
 4504TIP3    H213456   1.650   5.241   4.684
 4505TIP3   OH213457   7.351   1.126   5.120
 4505TIP3    H113458   7.411   1.103   5.049
 4505TIP3    H213459   7.284   1.058   5.117
 4506TIP3   OH213460   5.322   2.311   5.257
 4506TIP3    H113461   5.330   2.406   5.265
 4506TIP3    H213462   5.229   2.295   5.245
 4507TIP3   OH213463   6.568   0.645   2.764
 4507TIP3    H113464   6.633   0.636   2.694
 4507TIP3    H213465   6.531   0.733   2.751
 4508TIP3   OH213466   4.833   7.808   3.875
 4508TIP3    H113467   4.840   7.771   3.787
 4508TIP3    H213468   4.810   7.899   3.861
 4509TIP3   OH213469   4.426   5.787   2.046
 4509TIP3    H113470   4.360   5.758   1.984
 4509TIP3    H213471   4.405   5.879   2.063
 4510TIP3   OH213472   1.362   6.297   6.242
 4510TIP3    H113473   1.347   6.333   6.329
 4510TIP3    H213474   1.399   6.370   6.192
 4511TIP3   OH213475   5.830   5.358   0.277
 4511TIP3    H113476   5.778   5.294   0.227
 4511TIP3    H213477   5.799   5.348   0.367
 4512TIP3   OH213478   6.197   0.568   3.921
 4512TIP3    H113479   6.241   0.484   3.939
 4512TIP3    H213480   6.247   0.606   3.849
 4513TIP3   OH213481   7.666   0.102   2.400
 4513TIP3    H113482   7.658   0.096   2.495
 4513TIP3    H213483   7.760   0.103   2.384
 4514TIP3   OH213484   2.862   3.141   6.022
 4514TIP3    H113485   2.883   3.066   5.966
 4514TIP3    H213486   2.797   3.106   6.084
 4515TIP3   OH213487   4.819   7.254   5.371
 4515TIP3    H113488   4.842   7.236   5.462
 4515TIP3    H213489   4.901   7.279   5.330
 4516TIP3   OH213490   5.410   6.069   1.230
 4516TIP3    H113491   5.492   6.080   1.277
 4516TIP3    H213492   5.365   5.998   1.276
 4517TIP3   OH213493   1.406   2.362   3.824
 4517TIP3    H113494   1.459   2.435   3.857
 4517TIP3    H213495   1.452   2.334   3.744
 4518TIP3   OH213496   2.480   2.722   3.585
 4518TIP3    H113497   2.562   2.701   3.630
 4518TIP3    H213498   2.449   2.801   3.628
 4519TIP3   OH213499   7.722   6.019   3.829
 4519TIP3    H113500   7.809   5.987   3.852
 4519TIP3    H213501   7.722   6.026   3.734
 4520TIP3   OH213502   2.823   5.212   5.814
 4520TIP3    H113503   2.772   5.209   5.733
 4520TIP3    H213504   2.873   5.293   5.808
 4521TIP3   OH213505   2.562   3.089   6.541
 4521TIP3    H113506   2.553   3.176   6.579
 4521TIP3    H213507   2.638   3.051   6.585
 4522TIP3   OH213508   3.593   1.579   4.840
 4522TIP3    H113509   3.546   1.657   4.868
 4522TIP3    H213510   3.611   1.594   4.747
 4523TIP3   OH213511   0.494   4.102   3.897
 4523TIP3    H113512   0.421   4.164   3.899
 4523TIP3    H213513   0.456   4.022   3.861
 4524TIP3   OH213514   2.847   0.537   0.889
 4524TIP3    H113515   2.814   0.627   0.885
 4524TIP3    H213516   2.833   0.502   0.801
 4525TIP3   OH213517   7.756   4.755   5.332
 4525TIP3    H113518   7.683   4.786   5.385
 4525TIP3    H213519   7.724   4.673   5.293
 4526TIP3   OH213520   2.320   5.538   2.835
 4526TIP3    H113521   2.286   5.613   2.787
 4526TIP3    H213522   2.331   5.470   2.769
 4527TIP3   OH213523   4.925   7.345   3.519
 4527TIP3    H113524   4.967   7.306   3.596
 4527TIP3    H213525   4.979   7.319   3.445
 4528TIP3   OH213526   7.337   0.237   1.178
 4528TIP3    H113527   7.325   0.331   1.165
 4528TIP3    H213528   7.414   0.229   1.233
 4529TIP3   OH213529   0.943   2.093  -0.001
 4529TIP3    H113530   0.859   2.131   0.026
 4529TIP3    H213531   0.969   2.038   0.072
 4530TIP3   OH213532   4.329   1.812   6.711
 4530TIP3    H113533   4.236   1.835   6.716
 4530TIP3    H213534   4.359   1.815   6.802
 4531TIP3   OH213535   2.243   1.618   4.847
 4531TIP3    H113536   2.274   1.535   4.885
 4531TIP3    H213537   2.188   1.591   4.774
 4532TIP3   OH213538   0.124   0.835   5.368
 4532TIP3    H113539   0.168   0.819   5.451
 4532TIP3    H213540   0.159   0.919   5.338
 4533TIP3   OH213541   2.362   5.430   1.110
 4533TIP3    H113542   2.399   5.485   1.179
 4533TIP3    H213543   2.404   5.345   1.121
 4534TIP3   OH213544   0.868   0.793   5.335
 4534TIP3    H113545   0.817   0.713   5.344
 4534TIP3    H213546   0.939   0.770   5.275
 4535TIP3   OH213547   4.619   6.476   0.219
 4535TIP3    H113548   4.703   6.487   0.175
 4535TIP3    H213549   4.566   6.551   0.191
 4536TIP3   OH213550   4.633   4.305   4.997
 4536TIP3    H113551   4.564   4.239   5.010
 4536TIP3    H213552   4.637   4.352   5.081
 4537TIP3   OH213553   6.702   1.354   0.494
 4537TIP3    H113554   6.739   1.362   0.406
 4537TIP3    H213555   6.609   1.374   0.482
 4538TIP3   OH213556   7.268   3.916   2.967
 4538TIP3    H113557   7.333   3.875   3.024
 4538TIP3    H213558   7.320   3.971   2.907
 4539TIP3   OH213559   0.270   2.537   5.320
 4539TIP3    H113560   0.240   2.599   5.254
 4539TIP3    H213561   0.363   2.558   5.333
 4540TIP3   OH213562   3.521   6.406   0.772
 4540TIP3    H113563   3.515   6.483   0.715
 4540TIP3    H213564   3.614   6.384   0.774
 4541TIP3   OH213565   4.988   4.370   1.125
 4541TIP3    H113566   4.928   4.327   1.186
 4541TIP3    H213567   5.067   4.316   1.126
 4542TIP3   OH213568   3.581   3.249   6.570
 4542TIP3    H113569   3.503   3.197   6.548
 4542TIP3    H213570   3.651   3.185   6.578
 4543TIP3   OH213571   3.808   5.260   4.476
 4543TIP3    H113572   3.805   5.253   4.381
 4543TIP3    H213573   3.738   5.203   4.507
 4544TIP3   OH213574   7.971   2.476   4.347
 4544TIP3    H113575   8.044   2.534   4.323
 4544TIP3    H213576   7.912   2.481   4.272
 4545TIP3   OH213577   2.218   3.236   6.760
 4545TIP3    H113578   2.195   3.179   6.687
 4545TIP3    H213579   2.171   3.317   6.742
 4546TIP3   OH213580   0.274   3.227   0.083
 4546TIP3    H113581   0.250   3.319   0.069
 4546TIP3    H213582   0.194   3.178   0.063
 4547TIP3   OH213583   4.068   0.702   4.172
 4547TIP3    H113584   4.030   0.664   4.093
 4547TIP3    H213585   4.090   0.792   4.147
 4548TIP3   OH213586   1.159   3.043   0.268
 4548TIP3    H113587   1.079   3.047   0.217
 4548TIP3    H213588   1.176   2.950   0.279
 4549TIP3   OH213589   0.511   3.663   1.558
 4549TIP3    H113590   0.422   3.697   1.558
 4549TIP3    H213591   0.553   3.704   1.633
 4550TIP3   OH213592   0.794   2.347   6.332
 4550TIP3    H113593   0.829   2.416   6.389
 4550TIP3    H213594   0.728   2.303   6.386
 4551TIP3   OH213595   4.570   4.841   1.876
 4551TIP3    H113596   4.615   4.796   1.947
 4551TIP3    H213597   4.587   4.934   1.891
 4552TIP3   OH213598   4.973   3.192   5.059
 4552TIP3    H113599   4.952   3.118   5.002
 4552TIP3    H213600   4.912   3.184   5.132
 4553TIP3   OH213601   5.210   1.151   5.117
 4553TIP3    H113602   5.183   1.164   5.026
 4553TIP3    H213603   5.305   1.142   5.113
 4554TIP3   OH213604   7.512   6.960   6.014
 4554TIP3    H113605   7.428   6.921   5.990
 4554TIP3    H213606   7.578   6.901   5.978
 4555TIP3   OH213607   6.420   3.021   1.224
 4555TIP3    H113608   6.426   3.102   1.173
 4555TIP3    H213609   6.409   3.050   1.314
 4556TIP3   OH213610   2.241   4.572   2.730
 4556TIP3    H113611   2.266   4.653   2.684
 4556TIP3    H213612   2.284   4.579   2.815
 4557TIP3   OH213613   0.186   5.666   2.896
 4557TIP3    H113614   0.191   5.759   2.876
 4557TIP3    H213615   0.219   5.660   2.986
 4558TIP3   OH213616   3.236   1.466   2.517
 4558TIP3    H113617   3.212   1.549   2.558
 4558TIP3    H213618   3.154   1.417   2.513
 4559TIP3   OH213619   0.124   4.888   6.029
 4559TIP3    H113620   0.101   4.841   5.949
 4559TIP3    H213621   0.207   4.931   6.008
 4560TIP3   OH213622   0.425   1.838   4.134
 4560TIP3    H113623   0.395   1.753   4.103
 4560TIP3    H213624   0.443   1.825   4.227
 4561TIP3   OH213625   1.502   0.083   4.898
 4561TIP3    H113626   1.488   0.026   4.974
 4561TIP3    H213627   1.468   0.168   4.926
 4562TIP3   OH213628   5.342   7.355   2.629
 4562TIP3    H113629   5.289   7.421   2.584
 4562TIP3    H213630   5.279   7.288   2.656
 4563TIP3   OH213631   4.622   3.021   6.617
 4563TIP3    H113632   4.617   2.927   6.596
 4563TIP3    H213633   4.631   3.064   6.533
 4564TIP3   OH213634   2.384   2.182   1.307
 4564TIP3    H113635   2.479   2.173   1.299
 4564TIP3    H213636   2.369   2.185   1.401
 4565TIP3   OH213637   6.382   3.514   4.312
 4565TIP3    H113638   6.455   3.575   4.321
 4565TIP3    H213639   6.380   3.492   4.218
 4566TIP3   OH213640   6.573   5.320   0.302
 4566TIP3    H113641   6.498   5.298   0.247
 4566TIP3    H213642   6.572   5.253   0.371
 4567TIP3   OH213643   4.394   4.384   3.385
 4567TIP3    H113644   4.329   4.442   3.346
 4567TIP3    H213645   4.408   4.317   3.317
 4568TIP3   OH213646   7.444   4.721   6.548
 4568TIP3    H113647   7.426   4.631   6.575
 4568TIP3    H213648   7.538   4.723   6.529
 4569TIP3   OH213649   7.828   1.473   2.308
 4569TIP3    H113650   7.914   1.516   2.308
 4569TIP3    H213651   7.770   1.534   2.262
 4570TIP3   OH213652   4.020   3.568   3.228
 4570TIP3    H113653   3.963   3.578   3.152
 4570TIP3    H213654   4.072   3.648   3.230
 4571TIP3   OH213655   6.179   2.645   4.529
 4571TIP3    H113656   6.273   2.633   4.544
 4571TIP3    H213657   6.161   2.591   4.452
 4572TIP3   OH213658   4.258   3.791   4.331
 4572TIP3    H113659   4.338   3.835   4.360
 4572TIP3    H213660   4.285   3.701   4.313
 4573TIP3   OH213661   2.271   6.539   3.509
 4573TIP3    H113662   2.209   6.544   3.581
 4573TIP3    H213663   2.248   6.459   3.462
 4574TIP3   OH213664   6.497   0.803   4.318
 4574TIP3    H113665   6.487   0.835   4.408
 4574TIP3    H213666   6.411   0.814   4.279
 4575TIP3   OH213667   4.776   6.419   4.348
 4575TIP3    H113668   4.791   6.339   4.400
 4575TIP3    H213669   4.844   6.417   4.281
 4576TIP3   OH213670   8.130   2.547   0.673
 4576TIP3    H113671   8.097   2.629   0.709
 4576TIP3    H213672   8.215   2.535   0.714
 4577TIP3   OH213673   7.243   2.384   2.440
 4577TIP3    H113674   7.164   2.433   2.421
 4577TIP3    H213675   7.313   2.450   2.440
 4578TIP3   OH213676   5.704   7.123   6.718
 4578TIP3    H113677   5.779   7.163   6.674
 4578TIP3    H213678   5.633   7.127   6.653
 4579TIP3   OH213679   2.402   0.609   1.831
 4579TIP3    H113680   2.406   0.526   1.880
 4579TIP3    H213681   2.428   0.675   1.895
 4580TIP3   OH213682   4.283   6.308   1.822
 4580TIP3    H113683   4.243   6.241   1.766
 4580TIP3    H213684   4.259   6.282   1.911
 4581TIP3   OH213685   8.224   4.316   3.641
 4581TIP3    H113686   8.129   4.311   3.656
 4581TIP3    H213687   8.261   4.317   3.730
 4582TIP3   OH213688   7.463   7.314   1.193
 4582TIP3    H113689   7.493   7.259   1.265
 4582TIP3    H213690   7.369   7.321   1.206
 4583TIP3   OH213691   3.931   2.986   6.332
 4583TIP3    H113692   3.897   3.063   6.286
 4583TIP3    H213693   4.003   2.955   6.277
 4584TIP3   OH213694   1.846   2.389   0.123
 4584TIP3    H113695   1.936   2.363   0.141
 4584TIP3    H213696   1.832   2.468   0.176
 4585TIP3   OH213697   0.305   5.797   5.652
 4585TIP3    H113698   0.221   5.842   5.642
 4585TIP3    H213699   0.337   5.788   5.562
 4586TIP3   OH213700   2.040   2.155   0.923
 4586TIP3    H113701   2.124   2.201   0.932
 4586TIP3    H213702   1.998   2.166   1.008
 4587TIP3   OH213703   1.721   3.796   1.991
 4587TIP3    H113704   1.782   3.822   2.060
 4587TIP3    H213705   1.672   3.723   2.029
 4588TIP3   OH213706   5.392   2.483   2.579
 4588TIP3    H113707   5.305   2.517   2.601
 4588TIP3    H213708   5.391   2.474   2.484
 4589TIP3   OH213709   3.681   2.393   5.806
 4589TIP3    H113710   3.743   2.414   5.736
 4589TIP3    H213711   3.692   2.465   5.869
 4590TIP3   OH213712   7.700   6.792   5.907
 4590TIP3    H113713   7.666   6.783   5.818
 4590TIP3    H213714   7.740   6.707   5.926
 4591TIP3   OH213715   3.692   3.247   1.265
 4591TIP3    H113716   3.724   3.330   1.229
 4591TIP3    H213717   3.703   3.255   1.359
 4592TIP3   OH213718   0.390   1.809   2.175
 4592TIP3    H113719   0.409   1.762   2.256
 4592TIP3    H213720   0.295   1.811   2.169
 4593TIP3   OH213721   5.293   1.050   2.976
 4593TIP3    H113722   5.257   0.984   2.916
 4593TIP3    H213723   5.358   1.003   3.027
 4594TIP3   OH213724   0.360   6.981   3.865
 4594TIP3    H113725   0.281   6.994   3.918
 4594TIP3    H213726   0.328   6.983   3.774
 4595TIP3   OH213727   2.153   7.112   0.202
 4595TIP3    H113728   2.095   7.139   0.131
 4595TIP3    H213729   2.228   7.071   0.157
 4596TIP3   OH213730   6.814   7.827   0.859
 4596TIP3    H113731   6.731   7.779   0.859
 4596TIP3    H213732   6.862   7.792   0.784
 4597TIP3   OH213733   0.484   5.734   0.622
 4597TIP3    H113734   0.511   5.741   0.713
 4597TIP3    H213735   0.528   5.655   0.590
 4598TIP3   OH213736   5.776   0.981   0.041
 4598TIP3    H113737   5.724   0.903   0.021
 4598TIP3    H213738   5.759   1.041  -0.032
 4599TIP3   OH213739   1.413   0.436   1.224
 4599TIP3    H113740   1.361   0.486   1.162
 4599TIP3    H213741   1.492   0.489   1.238
 4600TIP3   OH213742   7.634   5.527   1.221
 4600TIP3    H113743   7.720   5.532   1.180
 4600TIP3    H213744   7.573   5.514   1.148
 4601TIP3   OH213745   7.402   1.599   3.617
 4601TIP3    H113746   7.350   1.625   3.693
 4601TIP3    H213747   7.482   1.652   3.623
 4602TIP3   OH213748   3.764   7.769   4.099
 4602TIP3    H113749   3.778   7.824   4.021
 4602TIP3    H213750   3.842   7.715   4.105
 4603TIP3   OH213751   4.189   0.632   3.823
 4603TIP3    H113752   4.109   0.583   3.808
 4603TIP3    H213753   4.228   0.642   3.736
 4604TIP3   OH213754   5.955   2.224   0.941
 4604TIP3    H113755   5.943   2.285   0.869
 4604TIP3    H213756   6.050   2.213   0.948
 4605TIP3   OH213757   5.200   6.010   4.179
 4605TIP3    H113758   5.240   6.060   4.108
 4605TIP3    H213759   5.251   6.034   4.257
 4606TIP3   OH213760   5.657   4.728   4.153
 4606TIP3    H113761   5.625   4.819   4.151
 4606TIP3    H213762   5.579   4.675   4.140
 4607TIP3   OH213763   5.787   5.286   4.849
 4607TIP3    H113764   5.728   5.249   4.915
 4607TIP3    H213765   5.833   5.209   4.813
 4608TIP3   OH213766   5.362   6.527   4.403
 4608TIP3    H113767   5.376   6.527   4.498
 4608TIP3    H213768   5.419   6.458   4.370
 4609TIP3   OH213769   1.101   7.331   0.939
 4609TIP3    H113770   1.168   7.264   0.952
 4609TIP3    H213771   1.095   7.375   1.024
 4610TIP3   OH213772   4.747   4.036   4.368
 4610TIP3    H113773   4.775   4.115   4.322
 4610TIP3    H213774   4.822   3.977   4.363
 4611TIP3   OH213775   1.436   5.628   4.139
 4611TIP3    H113776   1.373   5.567   4.102
 4611TIP3    H213777   1.396   5.714   4.129
 4612TIP3   OH213778   2.609   7.109   4.942
 4612TIP3    H113779   2.622   7.185   4.886
 4612TIP3    H213780   2.541   7.058   4.899
 4613TIP3   OH213781   3.001   1.122   6.427
 4613TIP3    H113782   3.012   1.179   6.503
 4613TIP3    H213783   2.957   1.045   6.461
 4614TIP3   OH213784   5.882   6.001   0.368
 4614TIP3    H113785   5.966   6.041   0.345
 4614TIP3    H213786   5.855   6.045   0.449
 4615TIP3   OH213787   2.025   6.377   4.331
 4615TIP3    H113788   2.050   6.467   4.352
 4615TIP3    H213789   1.948   6.386   4.275
 4616TIP3   OH213790   8.123   3.909   5.142
 4616TIP3    H113791   8.105   3.826   5.187
 4616TIP3    H213792   8.059   3.913   5.071
 4617TIP3   OH213793   1.604   2.905   3.949
 4617TIP3    H113794   1.539   2.853   3.997
 4617TIP3    H213795   1.686   2.856   3.958
 4618TIP3   OH213796   1.065   2.963   4.283
 4618TIP3    H113797   1.070   2.883   4.335
 4618TIP3    H213798   1.140   3.016   4.312
 4619TIP3   OH213799   4.600   4.601   5.447
 4619TIP3    H113800   4.515   4.557   5.451
 4619TIP3    H213801   4.629   4.606   5.538
 4620TIP3   OH213802   6.251   7.258   1.911
 4620TIP3    H113803   6.201   7.328   1.868
 4620TIP3    H213804   6.286   7.206   1.839
 4621TIP3   OH213805   6.571   3.616   5.745
 4621TIP3    H113806   6.621   3.594   5.824
 4621TIP3    H213807   6.501   3.673   5.777
 4622TIP3   OH213808   8.284   3.425   2.923
 4622TIP3    H113809   8.287   3.465   2.836
 4622TIP3    H213810   8.308   3.333   2.907
 4623TIP3   OH213811   0.440   2.466   4.708
 4623TIP3    H113812   0.391   2.413   4.644
 4623TIP3    H213813   0.521   2.416   4.723
 4624TIP3   OH213814   2.783   7.151   3.740
 4624TIP3    H113815   2.756   7.061   3.721
 4624TIP3    H213816   2.784   7.156   3.835
 4625TIP3   OH213817   1.118   5.363   4.768
 4625TIP3    H113818   1.042   5.421   4.766
 4625TIP3    H213819   1.166   5.388   4.846
 4626TIP3   OH213820   2.776   6.213   0.421
 4626TIP3    H113821   2.822   6.153   0.363
 4626TIP3    H213822   2.842   6.279   0.445
 4627TIP3   OH213823   5.286   1.287   3.270
 4627TIP3    H113824   5.344   1.212   3.275
 4627TIP3    H213825   5.213   1.258   3.216
 4628TIP3   OH213826   7.448   4.377   2.931
 4628TIP3    H113827   7.366   4.415   2.901
 4628TIP3    H213828   7.500   4.451   2.960
 4629TIP3   OH213829   0.086   6.137   3.859
 4629TIP3    H113830   0.070   6.209   3.920
 4629TIP3    H213831   0.094   6.060   3.915
 4630TIP3   OH213832   1.122   5.820   0.735
 4630TIP3    H113833   1.167   5.840   0.817
 4630TIP3    H213834   1.133   5.899   0.682
 4631TIP3   OH213835   3.663   1.429   1.033
 4631TIP3    H113836   3.574   1.406   1.060
 4631TIP3    H213837   3.720   1.387   1.097
 4632TIP3   OH213838   5.727   0.727   0.470
 4632TIP3    H113839   5.769   0.813   0.471
 4632TIP3    H213840   5.724   0.703   0.377
 4633TIP3   OH213841   5.916   0.657   5.729
 4633TIP3    H113842   5.991   0.676   5.674
 4633TIP3    H213843   5.860   0.734   5.721
 4634TIP3   OH213844   3.487   2.658   6.215
 4634TIP3    H113845   3.517   2.748   6.213
 4634TIP3    H213846   3.395   2.664   6.243
 4635TIP3   OH213847   2.609   6.521   1.805
 4635TIP3    H113848   2.599   6.474   1.888
 4635TIP3    H213849   2.542   6.589   1.808
 4636TIP3   OH213850   7.932   4.731   3.636
 4636TIP3    H113851   7.984   4.682   3.700
 4636TIP3    H213852   7.854   4.677   3.622
 4637TIP3   OH213853   7.520   1.212   1.409
 4637TIP3    H113854   7.603   1.194   1.452
 4637TIP3    H213855   7.519   1.154   1.332
 4638TIP3   OH213856   1.130   2.868   6.117
 4638TIP3    H113857   1.109   2.954   6.079
 4638TIP3    H213858   1.140   2.885   6.210
 4639TIP3   OH213859   4.569   6.889   4.720
 4639TIP3    H113860   4.479   6.858   4.721
 4639TIP3    H213861   4.563   6.980   4.750
 4640TIP3   OH213862   7.284   4.096   6.746
 4640TIP3    H113863   7.241   4.033   6.804
 4640TIP3    H213864   7.213   4.136   6.696
 4641TIP3   OH213865   0.990   5.127   3.759
 4641TIP3    H113866   0.962   5.151   3.847
 4641TIP3    H213867   1.074   5.170   3.748
 4642TIP3   OH213868   5.672   2.986   6.649
 4642TIP3    H113869   5.751   2.932   6.650
 4642TIP3    H213870   5.664   3.018   6.739
 4643TIP3   OH213871   6.944   0.663   4.908
 4643TIP3    H113872   6.969   0.582   4.953
 4643TIP3    H213873   7.021   0.686   4.857
 4644TIP3   OH213874   6.277   2.651   3.638
 4644TIP3    H113875   6.349   2.692   3.591
 4644TIP3    H213876   6.211   2.721   3.646
 4645TIP3   OH213877   6.887   0.653   0.754
 4645TIP3    H113878   6.804   0.664   0.801
 4645TIP3    H213879   6.867   0.677   0.664
 4646TIP3   OH213880   7.842   4.933   4.957
 4646TIP3    H113881   7.772   4.876   4.925
 4646TIP3    H213882   7.811   5.022   4.938
 4647TIP3   OH213883   6.796   5.100   6.130
 4647TIP3    H113884   6.838   5.029   6.081
 4647TIP3    H213885   6.703   5.091   6.112
 4648TIP3   OH213886   1.398   3.019   6.137
 4648TIP3    H113887   1.320   2.968   6.118
 4648TIP3    H213888   1.386   3.050   6.227
 4649TIP3   OH213889   0.425   3.219   0.306
 4649TIP3    H113890   0.382   3.227   0.220
 4649TIP3    H213891   0.382   3.143   0.347
 4650TIP3   OH213892   0.260   4.407   1.637
 4650TIP3    H113893   0.251   4.385   1.729
 4650TIP3    H213894   0.218   4.335   1.591
 4651TIP3   OH213895   4.995   3.564   4.592
 4651TIP3    H113896   4.954   3.574   4.506
 4651TIP3    H213897   4.922   3.549   4.652
 4652TIP3   OH213898   4.357   0.933   0.200
 4652TIP3    H113899   4.446   0.961   0.181
 4652TIP3    H213900   4.302   0.996   0.153
 4653TIP3   OH213901   0.473   7.559   2.418
 4653TIP3    H113902   0.528   7.534   2.492
 4653TIP3    H213903   0.496   7.650   2.400
 4654TIP3   OH213904   6.865   7.638   6.588
 4654TIP3    H113905   6.820   7.565   6.546
 4654TIP3    H213906   6.923   7.597   6.652
 4655TIP3   OH213907   0.207   6.583   0.952
 4655TIP3    H113908   0.258   6.623   0.881
 4655TIP3    H213909   0.131   6.640   0.961
 4656TIP3   OH213910   0.216   7.085   1.805
 4656TIP3    H113911   0.295   7.125   1.771
 4656TIP3    H213912   0.245   7.002   1.843
 4657TIP3   OH213913   0.787   4.244   4.601
 4657TIP3    H113914   0.801   4.254   4.695
 4657TIP3    H213915   0.778   4.334   4.569
 4658TIP3   OH213916   3.119   1.256   4.883
 4658TIP3    H113917   3.047   1.313   4.911
 4658TIP3    H213918   3.144   1.208   4.962
 4659TIP3   OH213919   6.311   1.009   6.399
 4659TIP3    H113920   6.319   1.046   6.487
 4659TIP3    H213921   6.221   0.978   6.394
 4660TIP3   OH213922   3.681   2.753   0.278
 4660TIP3    H113923   3.738   2.738   0.354
 4660TIP3    H213924   3.640   2.838   0.295
 4661TIP3   OH213925   0.227   3.468   5.021
 4661TIP3    H113926   0.212   3.375   5.037
 4661TIP3    H213927   0.142   3.502   4.994
 4662TIP3   OH213928   2.518   3.995   1.287
 4662TIP3    H113929   2.586   3.996   1.354
 4662TIP3    H213930   2.493   4.087   1.277
 4663TIP3   OH213931   6.255   3.999   0.170
 4663TIP3    H113932   6.304   3.985   0.251
 4663TIP3    H213933   6.241   4.094   0.167
 4664TIP3   OH213934   4.693   2.414   2.920
 4664TIP3    H113935   4.737   2.448   2.843
 4664TIP3    H213936   4.713   2.477   2.989
 4665TIP3   OH213937   2.791   4.841   1.933
 4665TIP3    H113938   2.813   4.888   1.852
 4665TIP3    H213939   2.870   4.849   1.987
 4666TIP3   OH213940   6.468   4.938   1.807
 4666TIP3    H113941   6.474   5.006   1.741
 4666TIP3    H213942   6.547   4.947   1.860
 4667TIP3   OH213943   8.200   7.237   3.158
 4667TIP3    H113944   8.155   7.153   3.173
 4667TIP3    H213945   8.181   7.258   3.067
 4668TIP3   OH213946   2.673   3.707   3.466
 4668TIP3    H113947   2.692   3.652   3.543
 4668TIP3    H213948   2.759   3.719   3.425
 4669TIP3   OH213949   3.712   5.274   5.079
 4669TIP3    H113950   3.772   5.200   5.092
 4669TIP3    H213951   3.769   5.349   5.062
 4670TIP3   OH213952   3.486   4.141   1.106
 4670TIP3    H113953   3.473   4.233   1.085
 4670TIP3    H213954   3.400   4.111   1.136
 4671TIP3   OH213955   2.634   2.802   4.545
 4671TIP3    H113956   2.694   2.731   4.569
 4671TIP3    H213957   2.690   2.878   4.535
 4672TIP3   OH213958   0.104   7.484   6.183
 4672TIP3    H113959   0.022   7.458   6.141
 4672TIP3    H213960   0.133   7.405   6.230
 4673TIP3   OH213961   6.347   1.730   4.330
 4673TIP3    H113962   6.336   1.822   4.307
 4673TIP3    H213963   6.286   1.683   4.273
 4674TIP3   OH213964   6.599   1.640   1.222
 4674TIP3    H113965   6.640   1.582   1.159
 4674TIP3    H213966   6.506   1.638   1.201
 4675TIP3   OH213967   6.825   3.300   4.948
 4675TIP3    H113968   6.830   3.255   5.033
 4675TIP3    H213969   6.755   3.365   4.959
 4676TIP3   OH213970   4.654   4.268   3.126
 4676TIP3    H113971   4.628   4.355   3.095
 4676TIP3    H213972   4.607   4.207   3.069
 4677TIP3   OH213973   0.326   0.032   0.691
 4677TIP3    H113974   0.290   0.030   0.780
 4677TIP3    H213975   0.272  -0.030   0.642
 4678TIP3   OH213976   0.889   1.985   3.087
 4678TIP3    H113977   0.840   1.903   3.077
 4678TIP3    H213978   0.945   1.970   3.163
 4679TIP3   OH213979   5.583   1.860   0.472
 4679TIP3    H113980   5.553   1.934   0.524
 4679TIP3    H213981   5.582   1.893   0.382
 4680TIP3   OH213982   5.678   3.255   4.508
 4680TIP3    H113983   5.584   3.235   4.499
 4680TIP3    H213984   5.714   3.180   4.555
 4681TIP3   OH213985   5.128   3.760   4.726
 4681TIP3    H113986   5.169   3.828   4.673
 4681TIP3    H213987   5.107   3.690   4.664
 4682TIP3   OH213988   0.952   0.365   6.044
 4682TIP3    H113989   1.004   0.439   6.075
 4682TIP3    H213990   1.008   0.322   5.979
 4683TIP3   OH213991   4.772   6.724   1.140
 4683TIP3    H113992   4.815   6.738   1.224
 4683TIP3    H213993   4.678   6.722   1.161
 4684TIP3   OH213994   4.094   3.574   6.362
 4684TIP3    H113995   4.104   3.498   6.419
 4684TIP3    H213996   3.999   3.583   6.352
 4685TIP3   OH213997   0.983   7.278   4.982
 4685TIP3    H113998   1.079   7.280   4.983
 4685TIP3    H213999   0.960   7.282   4.890
 4686TIP3   OH214000   1.610   7.045   1.686
 4686TIP3    H114001   1.569   7.059   1.772
 4686TIP3    H214002   1.544   6.999   1.635
 4687TIP3   OH214003   5.264   4.203   5.954
 4687TIP3    H114004   5.223   4.216   6.040
 4687TIP3    H214005   5.212   4.258   5.895
 4688TIP3   OH214006   2.832   3.798   0.770
 4688TIP3    H114007   2.739   3.791   0.748
 4688TIP3    H214008   2.867   3.859   0.705
 4689TIP3   OH214009   0.447   2.559   1.442
 4689TIP3    H114010   0.430   2.633   1.501
 4689TIP3    H214011   0.433   2.482   1.497
 4690TIP3   OH214012   1.427   7.148   6.543
 4690TIP3    H114013   1.405   7.205   6.469
 4690TIP3    H214014   1.455   7.208   6.612
 4691TIP3   OH214015   4.480   0.816   1.296
 4691TIP3    H114016   4.555   0.840   1.350
 4691TIP3    H214017   4.517   0.761   1.227
 4692TIP3   OH214018   2.689   0.710   3.868
 4692TIP3    H114019   2.665   0.714   3.775
 4692TIP3    H214020   2.607   0.689   3.913
 4693TIP3   OH214021   5.853   4.798   0.518
 4693TIP3    H114022   5.877   4.833   0.604
 4693TIP3    H214023   5.804   4.869   0.477
 4694TIP3   OH214024   8.055   5.367   0.207
 4694TIP3    H114025   8.032   5.457   0.227
 4694TIP3    H214026   7.997   5.314   0.262
 4695TIP3   OH214027   4.766   6.930   6.211
 4695TIP3    H114028   4.732   6.903   6.126
 4695TIP3    H214029   4.730   6.866   6.272
 4696TIP3   OH214030   5.630   5.313   2.202
 4696TIP3    H114031   5.621   5.234   2.149
 4696TIP3    H214032   5.721   5.311   2.232
 4697TIP3   OH214033   1.199   4.084   2.031
 4697TIP3    H114034   1.136   4.144   2.071
 4697TIP3    H214035   1.285   4.117   2.058
 4698TIP3   OH214036   6.278   6.013   4.904
 4698TIP3    H114037   6.298   5.955   4.831
 4698TIP3    H214038   6.355   6.070   4.912
 4699TIP3   OH214039   5.210   0.638   0.040
 4699TIP3    H114040   5.264   0.665   0.114
 4699TIP3    H214041   5.120   0.647   0.072
 4700TIP3   OH214042   8.150   4.937   2.460
 4700TIP3    H114043   8.207   4.860   2.468
 4700TIP3    H214044   8.065   4.901   2.433
 4701TIP3   OH214045   1.331   5.414   6.657
 4701TIP3    H114046   1.387   5.337   6.662
 4701TIP3    H214047   1.392   5.486   6.641
 4702TIP3   OH214048   7.412   6.905   1.173
 4702TIP3    H114049   7.457   6.970   1.226
 4702TIP3    H214050   7.319   6.916   1.196
 4703TIP3   OH214051   7.656   6.168   1.509
 4703TIP3    H114052   7.604   6.100   1.550
 4703TIP3    H214053   7.714   6.199   1.578
 4704TIP3   OH214054   3.605   3.484   0.797
 4704TIP3    H114055   3.598   3.548   0.868
 4704TIP3    H214056   3.530   3.426   0.809
 4705TIP3   OH214057   7.394   4.145   2.554
 4705TIP3    H114058   7.430   4.232   2.537
 4705TIP3    H214059   7.383   4.105   2.468
 4706TIP3   OH214060   3.608   6.189   4.188
 4706TIP3    H114061   3.558   6.108   4.175
 4706TIP3    H214062   3.589   6.242   4.110
 4707TIP3   OH214063   5.904   2.996   6.203
 4707TIP3    H114064   5.830   2.935   6.198
 4707TIP3    H214065   5.976   2.951   6.159
 4708TIP3   OH214066   6.973   3.452   0.419
 4708TIP3    H114067   6.992   3.393   0.346
 4708TIP3    H214068   7.003   3.538   0.389
 4709TIP3   OH214069   4.450   4.188   3.566
 4709TIP3    H114070   4.428   4.258   3.505
 4709TIP3    H214071   4.366   4.162   3.604
 4710TIP3   OH214072   7.766   1.235   4.765
 4710TIP3    H114073   7.760   1.163   4.702
 4710TIP3    H214074   7.860   1.245   4.780
 4711TIP3   OH214075   7.545   4.043   6.749
 4711TIP3    H114076   7.545   3.948   6.758
 4711TIP3    H214077   7.452   4.066   6.736
 4712TIP3   OH214078   5.028   7.366   1.700
 4712TIP3    H114079   5.111   7.339   1.740
 4712TIP3    H214080   5.051   7.383   1.608
 4713TIP3   OH214081   5.616   1.238   1.351
 4713TIP3    H114082   5.663   1.231   1.268
 4713TIP3    H214083   5.637   1.326   1.383
 4714TIP3   OH214084   4.264   7.055   3.617
 4714TIP3    H114085   4.274   7.015   3.531
 4714TIP3    H214086   4.353   7.056   3.654
 4715TIP3   OH214087   4.980   6.799   5.020
 4715TIP3    H114088   4.981   6.812   5.115
 4715TIP3    H214089   5.000   6.706   5.008
 4716TIP3   OH214090   5.328   2.578   1.539
 4716TIP3    H114091   5.310   2.671   1.554
 4716TIP3    H214092   5.362   2.547   1.623
 4717TIP3   OH214093   6.942   6.996   2.664
 4717TIP3    H114094   7.025   6.963   2.696
 4717TIP3    H214095   6.877   6.935   2.698
 4718TIP3   OH214096   6.835   3.348   1.624
 4718TIP3    H114097   6.749   3.386   1.606
 4718TIP3    H214098   6.897   3.409   1.584
 4719TIP3   OH214099   2.533   7.678   2.986
 4719TIP3    H114100   2.618   7.721   2.982
 4719TIP3    H214101   2.542   7.601   2.929
 4720TIP3   OH214102   3.678   0.925   3.151
 4720TIP3    H114103   3.721   1.006   3.174
 4720TIP3    H214104   3.616   0.908   3.222
 4721TIP3   OH214105   5.710   7.287   5.636
 4721TIP3    H114106   5.751   7.265   5.552
 4721TIP3    H214107   5.623   7.318   5.612
 4722TIP3   OH214108   7.259   0.255   0.185
 4722TIP3    H114109   7.254   0.174   0.237
 4722TIP3    H214110   7.253   0.325   0.250
 4723TIP3   OH214111   1.518   4.774   4.407
 4723TIP3    H114112   1.560   4.831   4.472
 4723TIP3    H214113   1.436   4.819   4.386
 4724TIP3   OH214114   3.461   5.278   3.602
 4724TIP3    H114115   3.425   5.198   3.563
 4724TIP3    H214116   3.416   5.286   3.686
 4725TIP3   OH214117   0.641   4.919   2.303
 4725TIP3    H114118   0.582   4.925   2.378
 4725TIP3    H214119   0.693   5.000   2.307
 4726TIP3   OH214120   8.021   0.413   1.508
 4726TIP3    H114121   8.025   0.383   1.417
 4726TIP3    H214122   8.099   0.467   1.519
 4727TIP3   OH214123   0.621   4.666   2.958
 4727TIP3    H114124   0.611   4.669   3.053
 4727TIP3    H214125   0.562   4.595   2.930
 4728TIP3   OH214126   3.384   4.057   3.101
 4728TIP3    H114127   3.316   4.124   3.113
 4728TIP3    H214128   3.372   3.997   3.174
 4729TIP3   OH214129   3.250   6.033   0.340
 4729TIP3    H114130   3.296   5.964   0.293
 4729TIP3    H214131   3.319   6.091   0.371
 4730TIP3   OH214132   1.879   6.920   2.244
 4730TIP3    H114133   1.819   6.988   2.215
 4730TIP3    H214134   1.887   6.861   2.169
 4731TIP3   OH214135   5.783   7.529   3.382
 4731TIP3    H114136   5.710   7.470   3.363
 4731TIP3    H214137   5.774   7.599   3.318
 4732TIP3   OH214138   2.082   0.169   3.204
 4732TIP3    H114139   1.993   0.165   3.241
 4732TIP3    H214140   2.117   0.252   3.236
 4733TIP3   OH214141   8.248   5.643   0.513
 4733TIP3    H114142   8.343   5.634   0.519
 4733TIP3    H214143   8.233   5.688   0.430
 4734TIP3   OH214144   5.505   5.005   5.252
 4734TIP3    H114145   5.578   4.962   5.207
 4734TIP3    H214146   5.467   4.937   5.308
 4735TIP3   OH214147   7.147   0.137   6.644
 4735TIP3    H114148   7.067   0.085   6.653
 4735TIP3    H214149   7.118   0.228   6.653
 4736TIP3   OH214150   4.302   0.106   5.579
 4736TIP3    H114151   4.251   0.096   5.659
 4736TIP3    H214152   4.258   0.176   5.530
 4737TIP3   OH214153   5.468   2.642   0.840
 4737TIP3    H114154   5.554   2.615   0.873
 4737TIP3    H214155   5.486   2.721   0.789
 4738TIP3   OH214156   2.751   1.165   1.121
 4738TIP3    H114157   2.709   1.249   1.103
 4738TIP3    H214158   2.679   1.102   1.122
 4739TIP3   OH214159   4.491   4.754   2.309
 4739TIP3    H114160   4.553   4.726   2.242
 4739TIP3    H214161   4.498   4.686   2.377
 4740TIP3   OH214162   5.739   3.153   6.440
 4740TIP3    H114163   5.748   3.077   6.382
 4740TIP3    H214164   5.749   3.117   6.528
 4741TIP3   OH214165   1.160   6.807   4.574
 4741TIP3    H114166   1.077   6.798   4.527
 4741TIP3    H214167   1.179   6.901   4.570
 4742TIP3   OH214168   3.426   7.413   6.216
 4742TIP3    H114169   3.439   7.383   6.306
 4742TIP3    H214170   3.396   7.504   6.225
 4743TIP3   OH214171   4.004   1.158   6.716
 4743TIP3    H114172   4.088   1.151   6.670
 4743TIP3    H214173   4.026   1.200   6.799
 4744TIP3   OH214174   5.719   5.886   1.062
 4744TIP3    H114175   5.696   5.796   1.037
 4744TIP3    H214176   5.779   5.876   1.136
 4745TIP3   OH214177   4.517   5.335   5.077
 4745TIP3    H114178   4.436   5.305   5.117
 4745TIP3    H214179   4.508   5.430   5.072
 4746TIP3   OH214180   0.376   7.738   2.100
 4746TIP3    H114181   0.326   7.663   2.133
 4746TIP3    H214182   0.424   7.771   2.176
 4747TIP3   OH214183   5.942   1.314   3.195
 4747TIP3    H114184   5.927   1.246   3.260
 4747TIP3    H214185   5.903   1.279   3.115
 4748TIP3   OH214186   3.335   0.651   6.745
 4748TIP3    H114187   3.273   0.721   6.726
 4748TIP3    H214188   3.389   0.686   6.816
 4749TIP3   OH214189   0.661   6.478   5.800
 4749TIP3    H114190   0.747   6.440   5.818
 4749TIP3    H214191   0.674   6.572   5.810
 4750TIP3   OH214192   6.719   4.870   5.723
 4750TIP3    H114193   6.754   4.794   5.770
 4750TIP3    H214194   6.629   4.879   5.755
 4751TIP3   OH214195   4.576   6.747   0.180
 4751TIP3    H114196   4.604   6.833   0.149
 4751TIP3    H214197   4.616   6.738   0.267
 4752TIP3   OH214198   1.437   5.841   1.835
 4752TIP3    H114199   1.472   5.760   1.873
 4752TIP3    H214200   1.426   5.900   1.909
 4753TIP3   OH214201   4.109   1.232   3.983
 4753TIP3    H114202   4.203   1.248   3.978
 4753TIP3    H214203   4.070   1.319   3.985
 4754TIP3   OH214204   5.953   3.693   2.813
 4754TIP3    H114205   5.951   3.734   2.900
 4754TIP3    H214206   6.033   3.725   2.773
 4755TIP3   OH214207   0.105   1.035   2.691
 4755TIP3    H114208   0.174   1.097   2.718
 4755TIP3    H214209   0.026   1.089   2.683
 4756TIP3   OH214210   8.119   4.947   1.435
 4756TIP3    H114211   8.150   4.991   1.357
 4756TIP3    H214212   8.025   4.935   1.421
 4757TIP3   OH214213   0.181   5.667   2.447
 4757TIP3    H114214   0.247   5.605   2.479
 4757TIP3    H214215   0.100   5.615   2.444
 4758TIP3   OH214216   2.747   2.589   5.218
 4758TIP3    H114217   2.843   2.586   5.215
 4758TIP3    H214218   2.726   2.575   5.311
 4759TIP3   OH214219   8.276   0.479   3.137
 4759TIP3    H114220   8.335   0.554   3.126
 4759TIP3    H214221   8.266   0.470   3.232
 4760TIP3   OH214222   5.758   6.479   1.321
 4760TIP3    H114223   5.677   6.436   1.292
 4760TIP3    H214224   5.741   6.504   1.412
 4761TIP3   OH214225   6.855   5.462   5.240
 4761TIP3    H114226   6.887   5.507   5.318
 4761TIP3    H214227   6.779   5.413   5.271
 4762TIP3   OH214228   7.795   6.648   3.494
 4762TIP3    H114229   7.743   6.608   3.564
 4762TIP3    H214230   7.885   6.624   3.514
 4763TIP3   OH214231   4.404   6.259   1.425
 4763TIP3    H114232   4.470   6.315   1.385
 4763TIP3    H214233   4.439   6.170   1.417
 4764TIP3   OH214234   0.451   7.121   2.216
 4764TIP3    H114235   0.362   7.129   2.251
 4764TIP3    H214236   0.474   7.210   2.189
 4765TIP3   OH214237   6.145   3.734   5.738
 4765TIP3    H114238   6.217   3.777   5.785
 4765TIP3    H214239   6.161   3.641   5.749
 4766TIP3   OH214240   2.442   1.530   3.277
 4766TIP3    H114241   2.436   1.456   3.217
 4766TIP3    H214242   2.493   1.596   3.229
 4767TIP3   OH214243   4.998   4.492   4.696
 4767TIP3    H114244   5.088   4.504   4.666
 4767TIP3    H214245   4.954   4.450   4.622
 4768TIP3   OH214246   4.823   6.193   1.696
 4768TIP3    H114247   4.731   6.215   1.714
 4768TIP3    H214248   4.874   6.254   1.748
 4769TIP3   OH214249   0.865   6.948   3.650
 4769TIP3    H114250   0.880   7.023   3.593
 4769TIP3    H214251   0.941   6.891   3.636
 4770TIP3   OH214252   0.412   0.376   4.900
 4770TIP3    H114253   0.483   0.314   4.921
 4770TIP3    H214254   0.382   0.408   4.985
 4771TIP3   OH214255   7.558   1.266   5.938
 4771TIP3    H114256   7.599   1.238   5.856
 4771TIP3    H214257   7.628   1.311   5.985
 4772TIP3   OH214258   1.298   1.518   5.358
 4772TIP3    H114259   1.344   1.468   5.291
 4772TIP3    H214260   1.368   1.554   5.412
 4773TIP3   OH214261   2.748   3.717   2.789
 4773TIP3    H114262   2.804   3.762   2.851
 4773TIP3    H214263   2.661   3.755   2.802
 4774TIP3   OH214264   1.973   3.709   4.614
 4774TIP3    H114265   1.969   3.787   4.670
 4774TIP3    H214266   2.017   3.643   4.667
 4775TIP3   OH214267   1.507   1.585   0.477
 4775TIP3    H114268   1.457   1.507   0.501
 4775TIP3    H214269   1.579   1.551   0.423
 4776TIP3   OH214270   5.029   6.683   0.142
 4776TIP3    H114271   5.083   6.690   0.063
 4776TIP3    H214272   5.092   6.696   0.214
 4777TIP3   OH214273   6.619   5.793   0.631
 4777TIP3    H114274   6.534   5.750   0.616
 4777TIP3    H214275   6.683   5.731   0.595
 4778TIP3   OH214276   5.831   2.442   6.126
 4778TIP3    H114277   5.893   2.469   6.194
 4778TIP3    H214278   5.823   2.348   6.136
 4779TIP3   OH214279   5.779   3.023   2.866
 4779TIP3    H114280   5.794   3.114   2.893
 4779TIP3    H214281   5.717   3.030   2.793
 4780TIP3   OH214282   7.598   2.227   4.883
 4780TIP3    H114283   7.599   2.149   4.827
 4780TIP3    H214284   7.566   2.297   4.825
 4781TIP3   OH214285   4.571   4.168   6.167
 4781TIP3    H114286   4.509   4.235   6.138
 4781TIP3    H214287   4.526   4.085   6.152
 4782TIP3   OH214288   8.074   6.910   4.142
 4782TIP3    H114289   8.038   6.997   4.126
 4782TIP3    H214290   8.035   6.855   4.074
 4783TIP3   OH214291   1.381   2.052   0.598
 4783TIP3    H114292   1.363   2.145   0.612
 4783TIP3    H214293   1.476   2.046   0.595
 4784TIP3   OH214294   5.053   1.278   3.607
 4784TIP3    H114295   5.132   1.329   3.628
 4784TIP3    H214296   4.991   1.342   3.574
 4785TIP3   OH214297   2.737   5.390   6.685
 4785TIP3    H114298   2.695   5.476   6.693
 4785TIP3    H214299   2.704   5.340   6.759
 4786TIP3   OH214300   7.952   5.040   0.975
 4786TIP3    H114301   7.931   5.067   1.064
 4786TIP3    H214302   8.019   4.973   0.985
 4787TIP3   OH214303   1.061   3.889   5.423
 4787TIP3    H114304   1.028   3.941   5.349
 4787TIP3    H214305   0.987   3.884   5.483
 4788TIP3   OH214306   2.854   0.047   0.357
 4788TIP3    H114307   2.949   0.053   0.363
 4788TIP3    H214308   2.838  -0.006   0.279
 4789TIP3   OH214309   3.712   5.090   3.078
 4789TIP3    H114310   3.647   5.158   3.063
 4789TIP3    H214311   3.661   5.015   3.109
 4790TIP3   OH214312   2.405   7.582   0.320
 4790TIP3    H114313   2.437   7.535   0.243
 4790TIP3    H214314   2.312   7.559   0.324
 4791TIP3   OH214315   4.121   3.537   3.926
 4791TIP3    H114316   4.159   3.545   4.013
 4791TIP3    H214317   4.079   3.451   3.925
 4792TIP3   OH214318   1.014   4.479   0.091
 4792TIP3    H114319   1.016   4.561   0.140
 4792TIP3    H214320   1.098   4.476   0.045
 4793TIP3   OH214321   0.558   0.418   3.628
 4793TIP3    H114322   0.540   0.367   3.549
 4793TIP3    H214323   0.640   0.383   3.662
 4794TIP3   OH214324   6.438   4.384   1.921
 4794TIP3    H114325   6.361   4.361   1.870
 4794TIP3    H214326   6.441   4.317   1.990
 4795TIP3   OH214327   3.209   4.847   5.832
 4795TIP3    H114328   3.236   4.876   5.744
 4795TIP3    H214329   3.223   4.752   5.830
 4796TIP3   OH214330   7.857   4.069   4.858
 4796TIP3    H114331   7.827   4.049   4.769
 4796TIP3    H214332   7.897   3.987   4.888
 4797TIP3   OH214333   0.855   2.739   5.794
 4797TIP3    H114334   0.858   2.644   5.781
 4797TIP3    H214335   0.947   2.764   5.804
 4798TIP3   OH214336   1.570   3.694   6.690
 4798TIP3    H114337   1.547   3.606   6.719
 4798TIP3    H214338   1.535   3.751   6.759
 4799TIP3   OH214339   2.494   5.735   1.001
 4799TIP3    H114340   2.526   5.776   0.921
 4799TIP3    H214341   2.416   5.785   1.025
 4800TIP3   OH214342   5.401   1.072   0.186
 4800TIP3    H114343   5.316   1.043   0.221
 4800TIP3    H214344   5.463   1.052   0.256
 4801TIP3   OH214345   6.959   0.170   2.913
 4801TIP3    H114346   6.950   0.162   3.008
 4801TIP3    H214347   6.869   0.184   2.882
 4802TIP3   OH214348   4.262   1.591   6.451
 4802TIP3    H114349   4.286   1.665   6.394
 4802TIP3    H214350   4.186   1.623   6.499
 4803TIP3   OH214351   7.777   3.078   0.055
 4803TIP3    H114352   7.762   3.166   0.089
 4803TIP3    H214353   7.748   3.020   0.125
 4804TIP3   OH214354   7.502   6.605   1.734
 4804TIP3    H114355   7.596   6.608   1.716
 4804TIP3    H214356   7.494   6.554   1.815
 4805TIP3   OH214357   6.646   2.311   1.787
 4805TIP3    H114358   6.667   2.219   1.772
 4805TIP3    H214359   6.674   2.327   1.877
 4806TIP3   OH214360   1.123   4.962   5.954
 4806TIP3    H114361   1.206   4.993   5.916
 4806TIP3    H214362   1.087   5.039   5.998
 4807TIP3   OH214363   3.435   3.465   3.462
 4807TIP3    H114364   3.479   3.390   3.502
 4807TIP3    H214365   3.462   3.464   3.371
 4808TIP3   OH214366   6.011   0.776   1.594
 4808TIP3    H114367   5.967   0.828   1.661
 4808TIP3    H214368   5.942   0.723   1.555
 4809TIP3   OH214369   1.493   1.336   0.756
 4809TIP3    H114370   1.512   1.250   0.720
 4809TIP3    H214371   1.560   1.349   0.823
 4810TIP3   OH214372   1.306   2.303   5.751
 4810TIP3    H114373   1.330   2.350   5.830
 4810TIP3    H214374   1.388   2.265   5.720
 4811TIP3   OH214375   2.164   3.279   3.060
 4811TIP3    H114376   2.078   3.316   3.079
 4811TIP3    H214377   2.217   3.300   3.137
 4812TIP3   OH214378   2.789   0.666   3.283
 4812TIP3    H114379   2.743   0.590   3.247
 4812TIP3    H214380   2.776   0.735   3.218
 4813TIP3   OH214381   5.708   4.211   5.401
 4813TIP3    H114382   5.615   4.191   5.401
 4813TIP3    H214383   5.749   4.132   5.436
 4814TIP3   OH214384   2.120   1.563   3.182
 4814TIP3    H114385   2.195   1.515   3.217
 4814TIP3    H214386   2.129   1.651   3.218
 4815TIP3   OH214387   0.653   3.765   1.789
 4815TIP3    H114388   0.665   3.859   1.773
 4815TIP3    H214389   0.646   3.758   1.884
 4816TIP3   OH214390   3.257   4.844   4.446
 4816TIP3    H114391   3.177   4.873   4.490
 4816TIP3    H214392   3.239   4.754   4.421
 4817TIP3   OH214393   7.205   0.050   1.413
 4817TIP3    H114394   7.236   0.125   1.362
 4817TIP3    H214395   7.285   0.007   1.444
 4818TIP3   OH214396   6.128   4.805   3.065
 4818TIP3    H114397   6.069   4.880   3.067
 4818TIP3    H214398   6.135   4.782   2.972
 4819TIP3   OH214399   3.890   1.338   0.519
 4819TIP3    H114400   3.954   1.269   0.501
 4819TIP3    H214401   3.941   1.413   0.548
 4820TIP3   OH214402   0.568   7.401   2.917
 4820TIP3    H114403   0.546   7.347   2.841
 4820TIP3    H214404   0.484   7.425   2.954
 4821TIP3   OH214405   1.345   1.074   0.496
 4821TIP3    H114406   1.410   1.004   0.489
 4821TIP3    H214407   1.279   1.053   0.430
 4822TIP3   OH214408   7.371   7.430   1.949
 4822TIP3    H114409   7.280   7.457   1.936
 4822TIP3    H214410   7.370   7.335   1.933
 4823TIP3   OH214411   7.955   7.697   2.375
 4823TIP3    H114412   7.864   7.726   2.371
 4823TIP3    H214413   7.997   7.760   2.435
 4824TIP3   OH214414   1.412   7.454   3.547
 4824TIP3    H114415   1.363   7.430   3.468
 4824TIP3    H214416   1.486   7.393   3.549
 4825TIP3   OH214417   5.484   5.375   0.135
 4825TIP3    H114418   5.442   5.385   0.221
 4825TIP3    H214419   5.518   5.462   0.115
 4826TIP3   OH214420   1.691   5.439   0.084
 4826TIP3    H114421   1.596   5.442   0.094
 4826TIP3    H214422   1.724   5.481   0.164
 4827TIP3   OH214423   4.930   0.021   3.272
 4827TIP3    H114424   4.877   0.049   3.197
 4827TIP3    H214425   4.895   0.071   3.346
 4828TIP3   OH214426   7.962   2.456   3.577
 4828TIP3    H114427   7.868   2.470   3.567
 4828TIP3    H214428   8.002   2.532   3.535
 4829TIP3   OH214429   1.885   2.492   6.569
 4829TIP3    H114430   1.809   2.512   6.514
 4829TIP3    H214431   1.853   2.430   6.634
 4830TIP3   OH214432   6.988   2.390   1.916
 4830TIP3    H114433   7.014   2.318   1.973
 4830TIP3    H214434   6.899   2.413   1.946
 4831TIP3   OH214435   2.456   0.828   4.963
 4831TIP3    H114436   2.502   0.744   4.962
 4831TIP3    H214437   2.416   0.835   4.876
 4832TIP3   OH214438   4.614   4.980   5.097
 4832TIP3    H114439   4.573   4.957   5.181
 4832TIP3    H214440   4.570   5.061   5.071
 4833TIP3   OH214441   5.585   1.393   0.684
 4833TIP3    H114442   5.497   1.402   0.721
 4833TIP3    H214443   5.603   1.479   0.645
 4834TIP3   OH214444   3.069   1.318   5.837
 4834TIP3    H114445   3.016   1.362   5.770
 4834TIP3    H214446   3.153   1.364   5.834
 4835TIP3   OH214447   4.319   1.868   1.698
 4835TIP3    H114448   4.293   1.912   1.778
 4835TIP3    H214449   4.414   1.883   1.692
 4836TIP3   OH214450   5.560   5.606   4.466
 4836TIP3    H114451   5.533   5.518   4.492
 4836TIP3    H214452   5.600   5.643   4.545
 4837TIP3   OH214453   1.406   4.788   3.466
 4837TIP3    H114454   1.483   4.780   3.522
 4837TIP3    H214455   1.395   4.882   3.452
 4838TIP3   OH214456   6.903   7.559   1.103
 4838TIP3    H114457   6.922   7.526   1.191
 4838TIP3    H214458   6.838   7.499   1.068
 4839TIP3   OH214459   8.003   0.104   0.523
 4839TIP3    H114460   8.002   0.198   0.545
 4839TIP3    H214461   8.050   0.063   0.595
 4840TIP3   OH214462   6.983   0.442   3.330
 4840TIP3    H114463   6.967   0.456   3.423
 4840TIP3    H214464   6.961   0.526   3.289
 4841TIP3   OH214465   1.225   3.482   5.090
 4841TIP3    H114466   1.275   3.416   5.042
 4841TIP3    H214467   1.179   3.433   5.157
 4842TIP3   OH214468   2.836   3.202   0.622
 4842TIP3    H114469   2.891   3.144   0.569
 4842TIP3    H214470   2.855   3.290   0.588
 4843TIP3   OH214471   3.703   4.439   2.065
 4843TIP3    H114472   3.778   4.460   2.121
 4843TIP3    H214473   3.639   4.400   2.123
 4844TIP3   OH214474   5.044   3.678   2.422
 4844TIP3    H114475   5.096   3.684   2.342
 4844TIP3    H214476   5.108   3.685   2.493
 4845TIP3   OH214477   4.122   2.264   2.936
 4845TIP3    H114478   4.179   2.219   2.998
 4845TIP3    H214479   4.178   2.281   2.860
 4846TIP3   OH214480   1.640   6.599   1.304
 4846TIP3    H114481   1.722   6.648   1.319
 4846TIP3    H214482   1.669   6.511   1.281
 4847TIP3   OH214483   1.042   7.386   6.755
 4847TIP3    H114484   1.114   7.395   6.693
 4847TIP3    H214485   0.964   7.408   6.704
 4848TIP3   OH214486   1.750   6.984   3.823
 4848TIP3    H114487   1.691   6.932   3.769
 4848TIP3    H214488   1.838   6.957   3.795
 4849TIP3   OH214489   1.398   4.392   3.613
 4849TIP3    H114490   1.486   4.409   3.579
 4849TIP3    H214491   1.412   4.328   3.683
 4850TIP3   OH214492   4.702   4.123   1.081
 4850TIP3    H114493   4.780   4.135   1.027
 4850TIP3    H214494   4.635   4.093   1.019
 4851TIP3   OH214495   6.393   4.345   0.373
 4851TIP3    H114496   6.304   4.319   0.348
 4851TIP3    H214497   6.389   4.440   0.381
 4852TIP3   OH214498   5.650   4.181   4.668
 4852TIP3    H114499   5.597   4.101   4.673
 4852TIP3    H214500   5.715   4.171   4.738
 4853TIP3   OH214501   4.457   6.290   3.093
 4853TIP3    H114502   4.477   6.325   3.006
 4853TIP3    H214503   4.473   6.196   3.085
 4854TIP3   OH214504   5.221   0.779   1.341
 4854TIP3    H114505   5.202   0.859   1.292
 4854TIP3    H214506   5.282   0.731   1.285
 4855TIP3   OH214507   3.383   2.442   6.432
 4855TIP3    H114508   3.386   2.469   6.341
 4855TIP3    H214509   3.342   2.515   6.478
 4856TIP3   OH214510   1.268   3.787   4.483
 4856TIP3    H114511   1.191   3.824   4.439
 4856TIP3    H214512   1.258   3.812   4.574
 4857TIP3   OH214513   6.354   4.149   0.924
 4857TIP3    H114514   6.279   4.178   0.977
 4857TIP3    H214515   6.369   4.221   0.863
 4858TIP3   OH214516   7.833   2.797   1.041
 4858TIP3    H114517   7.928   2.807   1.036
 4858TIP3    H214518   7.819   2.703   1.048
 4859TIP3   OH214519   0.649   1.011   6.419
 4859TIP3    H114520   0.618   0.969   6.500
 4859TIP3    H214521   0.701   1.085   6.449
 4860TIP3   OH214522   0.943   3.950   6.300
 4860TIP3    H114523   0.952   4.045   6.291
 4860TIP3    H214524   0.849   3.935   6.298
 4861TIP3   OH214525   7.746   3.029   2.013
 4861TIP3    H114526   7.730   3.064   1.925
 4861TIP3    H214527   7.681   2.960   2.024
 4862TIP3   OH214528   1.570   3.155   4.075
 4862TIP3    H114529   1.601   3.069   4.104
 4862TIP3    H214530   1.579   3.211   4.152
 4863TIP3   OH214531   0.013   6.756   1.057
 4863TIP3    H114532   0.057   6.824   1.006
 4863TIP3    H214533  -0.071   6.794   1.081
 4864TIP3   OH214534   7.070   1.491   2.151
 4864TIP3    H114535   7.057   1.475   2.057
 4864TIP3    H214536   7.107   1.410   2.184
 4865TIP3   OH214537   3.254   2.329   6.123
 4865TIP3    H114538   3.199   2.275   6.180
 4865TIP3    H214539   3.330   2.273   6.104
 4866TIP3   OH214540   2.452   0.415   4.809
 4866TIP3    H114541   2.402   0.388   4.886
 4866TIP3    H214542   2.518   0.346   4.797
 4867TIP3   OH214543   1.955   3.682   1.671
 4867TIP3    H114544   1.978   3.615   1.735
 4867TIP3    H214545   2.025   3.748   1.680
 4868TIP3   OH214546   6.682   1.401   2.139
 4868TIP3    H114547   6.595   1.366   2.158
 4868TIP3    H214548   6.719   1.421   2.225
 4869TIP3   OH214549   0.663   0.371   5.597
 4869TIP3    H114550   0.683   0.357   5.690
 4869TIP3    H214551   0.715   0.305   5.551
 4870TIP3   OH214552   2.649   0.351   1.031
 4870TIP3    H114553   2.730   0.399   1.045
 4870TIP3    H214554   2.593   0.412   0.983
 4871TIP3   OH214555   4.953   4.059   4.764
 4871TIP3    H114556   5.040   4.098   4.776
 4871TIP3    H214557   4.895   4.134   4.755
 4872TIP3   OH214558   5.906   6.082   6.270
 4872TIP3    H114559   5.832   6.072   6.330
 4872TIP3    H214560   5.982   6.052   6.321
 4873TIP3   OH214561   5.756   5.802   6.566
 4873TIP3    H114562   5.786   5.763   6.483
 4873TIP3    H214563   5.802   5.751   6.633
 4874TIP3   OH214564   1.087   3.310   0.358
 4874TIP3    H114565   1.112   3.222   0.330
 4874TIP3    H214566   0.991   3.311   0.352
 4875TIP3   OH214567   1.579   3.259   6.297
 4875TIP3    H114568   1.655   3.246   6.353
 4875TIP3    H214569   1.611   3.242   6.208
 4876TIP3   OH214570   0.733   3.468   5.916
 4876TIP3    H114571   0.686   3.386   5.900
 4876TIP3    H214572   0.695   3.530   5.853
 4877TIP3   OH214573   8.252   0.803   6.596
 4877TIP3    H114574   8.278   0.844   6.514
 4877TIP3    H214575   8.237   0.711   6.573
 4878TIP3   OH214576   3.853   5.712   2.435
 4878TIP3    H114577   3.826   5.689   2.346
 4878TIP3    H214578   3.863   5.628   2.479
 4879TIP3   OH214579   6.969   6.195   2.815
 4879TIP3    H114580   7.060   6.208   2.842
 4879TIP3    H214581   6.920   6.262   2.863
 4880TIP3   OH214582   1.960   7.123   5.512
 4880TIP3    H114583   1.992   7.175   5.586
 4880TIP3    H214584   1.883   7.078   5.546
 4881TIP3   OH214585   4.726   1.149   5.305
 4881TIP3    H114586   4.722   1.223   5.366
 4881TIP3    H214587   4.818   1.124   5.303
 4882TIP3   OH214588   0.867   3.605   3.191
 4882TIP3    H114589   0.774   3.628   3.199
 4882TIP3    H214590   0.898   3.600   3.282
 4883TIP3   OH214591   2.076   7.424   0.070
 4883TIP3    H114592   2.122   7.434   0.153
 4883TIP3    H214593   2.145   7.408   0.006
 4884TIP3   OH214594   7.581   5.122   0.461
 4884TIP3    H114595   7.638   5.126   0.384
 4884TIP3    H214596   7.513   5.060   0.437
 4885TIP3   OH214597   2.684   2.802   5.962
 4885TIP3    H114598   2.681   2.733   6.029
 4885TIP3    H214599   2.774   2.801   5.930
 4886TIP3   OH214600   0.546   4.330   2.081
 4886TIP3    H114601   0.480   4.302   2.144
 4886TIP3    H214602   0.621   4.356   2.135
 4887TIP3   OH214603   3.194   6.968   2.104
 4887TIP3    H114604   3.190   7.009   2.191
 4887TIP3    H214605   3.209   6.875   2.122
 4888TIP3   OH214606   3.725   7.441   1.693
 4888TIP3    H114607   3.751   7.505   1.627
 4888TIP3    H214608   3.805   7.390   1.709
 4889TIP3   OH214609   8.013   5.602   3.928
 4889TIP3    H114610   7.919   5.583   3.928
 4889TIP3    H214611   8.026   5.659   3.853
 4890TIP3   OH214612   5.348   4.303   4.062
 4890TIP3    H114613   5.381   4.234   4.119
 4890TIP3    H214614   5.388   4.286   3.977
 4891TIP3   OH214615   7.741   4.961   1.782
 4891TIP3    H114616   7.668   5.018   1.756
 4891TIP3    H214617   7.738   4.961   1.878
 4892TIP3   OH214618   4.405   1.961   3.306
 4892TIP3    H114619   4.460   2.037   3.286
 4892TIP3    H214620   4.395   1.963   3.401
 4893TIP3   OH214621   2.913   4.687   0.320
 4893TIP3    H114622   2.840   4.700   0.381
 4893TIP3    H214623   2.912   4.593   0.301
 4894TIP3   OH214624   2.878   4.131   5.849
 4894TIP3    H114625   2.887   4.134   5.754
 4894TIP3    H214626   2.873   4.038   5.870
 4895TIP3   OH214627   6.207   6.606   3.255
 4895TIP3    H114628   6.196   6.608   3.160
 4895TIP3    H214629   6.117   6.604   3.290
 4896TIP3   OH214630   7.070   0.389   1.792
 4896TIP3    H114631   6.996   0.442   1.763
 4896TIP3    H214632   7.055   0.303   1.753
 4897TIP3   OH214633   2.094   1.076   4.247
 4897TIP3    H114634   2.089   1.061   4.153
 4897TIP3    H214635   2.093   0.987   4.285
 4898TIP3   OH214636   6.141   1.882   4.050
 4898TIP3    H114637   6.070   1.821   4.069
 4898TIP3    H214638   6.121   1.916   3.963
 4899TIP3   OH214639   3.574   0.927   1.851
 4899TIP3    H114640   3.532   0.982   1.785
 4899TIP3    H214641   3.503   0.900   1.909
 4900TIP3   OH214642   1.704   5.546   0.333
 4900TIP3    H114643   1.799   5.547   0.346
 4900TIP3    H214644   1.673   5.474   0.389
 4901TIP3   OH214645   8.126   2.901   6.792
 4901TIP3    H114646   8.168   2.896   6.706
 4901TIP3    H214647   8.032   2.899   6.773
 4902TIP3   OH214648   4.385   5.009   1.686
 4902TIP3    H114649   4.429   4.928   1.711
 4902TIP3    H214650   4.350   5.044   1.769
 4903TIP3   OH214651   0.163   5.217   1.231
 4903TIP3    H114652   0.223   5.270   1.179
 4903TIP3    H214653   0.138   5.273   1.304
 4904TIP3   OH214654   6.595   7.793   5.027
 4904TIP3    H114655   6.547   7.711   5.019
 4904TIP3    H214656   6.655   7.793   4.952
 4905TIP3   OH214657   5.855   4.375   1.304
 4905TIP3    H114658   5.819   4.354   1.217
 4905TIP3    H214659   5.778   4.388   1.359
 4906TIP3   OH214660   7.140   0.869   4.649
 4906TIP3    H114661   7.200   0.816   4.702
 4906TIP3    H214662   7.153   0.838   4.560
 4907TIP3   OH214663   4.031   0.232   1.760
 4907TIP3    H114664   3.936   0.218   1.763
 4907TIP3    H214665   4.042   0.325   1.780
 4908TIP3   OH214666   6.733   6.000   6.682
 4908TIP3    H114667   6.770   6.037   6.763
 4908TIP3    H214668   6.766   6.057   6.613
 4909TIP3   OH214669   4.670   6.486   1.441
 4909TIP3    H114670   4.737   6.517   1.502
 4909TIP3    H214671   4.710   6.494   1.355
 4910TIP3   OH214672   5.679   2.305   4.340
 4910TIP3    H114673   5.766   2.339   4.360
 4910TIP3    H214674   5.631   2.381   4.306
 4911TIP3   OH214675   5.525   0.262   2.606
 4911TIP3    H114676   5.554   0.221   2.524
 4911TIP3    H214677   5.504   0.352   2.582
 4912TIP3   OH214678   1.203   6.577   2.647
 4912TIP3    H114679   1.298   6.575   2.653
 4912TIP3    H214680   1.177   6.655   2.695
 4913TIP3   OH214681   6.404   6.424   6.494
 4913TIP3    H114682   6.440   6.487   6.432
 4913TIP3    H214683   6.469   6.354   6.499
 4914TIP3   OH214684   7.381   4.306   6.412
 4914TIP3    H114685   7.432   4.321   6.491
 4914TIP3    H214686   7.383   4.390   6.366
 4915TIP3   OH214687   7.291   1.340   1.361
 4915TIP3    H114688   7.215   1.284   1.380
 4915TIP3    H214689   7.366   1.281   1.369
 4916TIP3   OH214690   1.707   5.040   2.660
 4916TIP3    H114691   1.757   4.978   2.713
 4916TIP3    H214692   1.677   5.106   2.722
 4917TIP3   OH214693   2.434   2.873   1.151
 4917TIP3    H114694   2.442   2.960   1.113
 4917TIP3    H214695   2.494   2.819   1.100
 4918TIP3   OH214696   2.592   4.096   4.752
 4918TIP3    H114697   2.537   4.051   4.687
 4918TIP3    H214698   2.606   4.030   4.821
 4919TIP3   OH214699   5.741   5.223   6.382
 4919TIP3    H114700   5.747   5.247   6.474
 4919TIP3    H214701   5.758   5.305   6.335
 4920TIP3   OH214702   3.970   0.707   6.330
 4920TIP3    H114703   4.041   0.761   6.364
 4920TIP3    H214704   3.920   0.765   6.273
 4921TIP3   OH214705   4.146   1.697   4.290
 4921TIP3    H114706   4.097   1.717   4.211
 4921TIP3    H214707   4.135   1.774   4.346
 4922TIP3   OH214708   6.030   4.127   5.008
 4922TIP3    H114709   6.085   4.198   5.043
 4922TIP3    H214710   6.000   4.080   5.086
 4923TIP3   OH214711   6.347   5.038   6.598
 4923TIP3    H114712   6.261   5.013   6.567
 4923TIP3    H214713   6.408   4.988   6.544
 4924TIP3   OH214714   1.860   1.616   1.878
 4924TIP3    H114715   1.798   1.624   1.805
 4924TIP3    H214716   1.937   1.665   1.850
 4925TIP3   OH214717   7.241   2.336   4.175
 4925TIP3    H114718   7.298   2.262   4.155
 4925TIP3    H214719   7.295   2.413   4.159
 4926TIP3   OH214720   0.800   1.458   5.167
 4926TIP3    H114721   0.803   1.414   5.252
 4926TIP3    H214722   0.816   1.550   5.187
 4927TIP3   OH214723   2.376   1.710   5.476
 4927TIP3    H114724   2.309   1.685   5.540
 4927TIP3    H214725   2.458   1.709   5.525
 4928TIP3   OH214726   3.568   5.597   0.950
 4928TIP3    H114727   3.599   5.540   0.880
 4928TIP3    H214728   3.600   5.556   1.031
 4929TIP3   OH214729   3.910   1.056   1.905
 4929TIP3    H114730   3.885   1.066   1.997
 4929TIP3    H214731   3.891   0.964   1.885
 4930TIP3   OH214732   4.672   7.742   6.309
 4930TIP3    H114733   4.613   7.710   6.240
 4930TIP3    H214734   4.630   7.822   6.341
 4931TIP3   OH214735   6.898   6.239   2.164
 4931TIP3    H114736   6.846   6.234   2.244
 4931TIP3    H214737   6.845   6.292   2.104
 4932TIP3   OH214738   7.227   7.724   2.050
 4932TIP3    H114739   7.304   7.753   2.099
 4932TIP3    H214740   7.155   7.727   2.113
 4933TIP3   OH214741   0.920   1.662   4.950
 4933TIP3    H114742   0.999   1.659   5.003
 4933TIP3    H214743   0.916   1.575   4.909
 4934TIP3   OH214744   8.035   3.232   2.968
 4934TIP3    H114745   7.940   3.248   2.963
 4934TIP3    H214746   8.061   3.276   3.049
 4935TIP3   OH214747   4.596   7.575   0.375
 4935TIP3    H114748   4.624   7.504   0.318
 4935TIP3    H214749   4.672   7.592   0.431
 4936TIP3   OH214750   7.368   2.402   3.035
 4936TIP3    H114751   7.281   2.420   3.071
 4936TIP3    H214752   7.386   2.475   2.977
 4937TIP3   OH214753   5.315   5.891   5.565
 4937TIP3    H114754   5.324   5.980   5.600
 4937TIP3    H214755   5.314   5.835   5.643
 4938TIP3   OH214756   0.369   5.005   5.984
 4938TIP3    H114757   0.397   5.059   6.059
 4938TIP3    H214758   0.387   5.060   5.907
 4939TIP3   OH214759   0.870   5.668   4.907
 4939TIP3    H114760   0.919   5.618   4.973
 4939TIP3    H214761   0.853   5.604   4.837
 4940TIP3   OH214762   7.740   2.109   2.959
 4940TIP3    H114763   7.698   2.024   2.952
 4940TIP3    H214764   7.706   2.159   2.885
 4941TIP3   OH214765   3.142   1.502   6.391
 4941TIP3    H114766   3.124   1.451   6.469
 4941TIP3    H214767   3.077   1.573   6.392
 4942TIP3   OH214768   2.352   5.777   0.306
 4942TIP3    H114769   2.272   5.777   0.254
 4942TIP3    H214770   2.401   5.852   0.273
 4943TIP3   OH214771   6.915   7.416   6.259
 4943TIP3    H114772   6.962   7.492   6.224
 4943TIP3    H214773   6.829   7.451   6.282
 4944TIP3   OH214774   0.121   2.316   0.118
 4944TIP3    H114775   0.097   2.403   0.086
 4944TIP3    H214776   0.154   2.332   0.206
 4945TIP3   OH214777   5.414   0.521   4.301
 4945TIP3    H114778   5.379   0.587   4.241
 4945TIP3    H214779   5.441   0.449   4.245
 4946TIP3   OH214780   7.906   3.993   3.232
 4946TIP3    H114781   7.947   3.981   3.146
 4946TIP3    H214782   7.980   4.012   3.291
 4947TIP3   OH214783   0.195   6.665   4.101
 4947TIP3    H114784   0.134   6.714   4.046
 4947TIP3    H214785   0.271   6.649   4.045
 4948TIP3   OH214786   3.036   3.061   0.506
 4948TIP3    H114787   3.023   3.069   0.412
 4948TIP3    H214788   3.051   2.967   0.520
 4949TIP3   OH214789   6.385   0.715   5.864
 4949TIP3    H114790   6.407   0.651   5.797
 4949TIP3    H214791   6.293   0.698   5.884
 4950TIP3   OH214792   4.083   7.310   4.630
 4950TIP3    H114793   4.145   7.336   4.698
 4950TIP3    H214794   4.019   7.381   4.628
 4951TIP3   OH214795   3.241   0.853   2.291
 4951TIP3    H114796   3.336   0.860   2.283
 4951TIP3    H214797   3.213   0.942   2.313
 4952TIP3   OH214798   3.892   2.408   2.891
 4952TIP3    H114799   3.894   2.337   2.827
 4952TIP3    H214800   3.968   2.392   2.947
 4953TIP3   OH214801   7.947   2.304   5.598
 4953TIP3    H114802   7.894   2.382   5.614
 4953TIP3    H214803   7.890   2.246   5.548
 4954TIP3   OH214804   6.981   5.238   5.104
 4954TIP3    H114805   6.942   5.307   5.158
 4954TIP3    H214806   7.073   5.237   5.128
 4955TIP3   OH214807   1.752   0.940   4.363
 4955TIP3    H114808   1.710   1.008   4.416
 4955TIP3    H214809   1.679   0.891   4.325
 4956TIP3   OH214810   4.395   0.640   6.491
 4956TIP3    H114811   4.309   0.672   6.516
 4956TIP3    H214812   4.388   0.544   6.498
 4957TIP3   OH214813   6.876   6.094   1.279
 4957TIP3    H114814   6.808   6.159   1.297
 4957TIP3    H214815   6.834   6.010   1.296
 4958TIP3   OH214816   7.922   6.047   5.170
 4958TIP3    H114817   7.901   6.114   5.235
 4958TIP3    H214818   7.852   5.982   5.179
 4959TIP3   OH214819   4.222   1.372   1.769
 4959TIP3    H114820   4.137   1.398   1.733
 4959TIP3    H214821   4.269   1.454   1.783
 4960TIP3   OH214822   4.496   5.681   2.600
 4960TIP3    H114823   4.559   5.747   2.631
 4960TIP3    H214824   4.502   5.685   2.504
 4961TIP3   OH214825   7.378   1.161   1.084
 4961TIP3    H114826   7.472   1.148   1.098
 4961TIP3    H214827   7.338   1.127   1.164
 4962TIP3   OH214828   4.286   4.605   1.303
 4962TIP3    H114829   4.351   4.621   1.234
 4962TIP3    H214830   4.216   4.557   1.259
 4963TIP3   OH214831   3.966   7.046   2.996
 4963TIP3    H114832   3.898   7.078   3.055
 4963TIP3    H214833   3.972   6.952   3.014
 4964TIP3   OH214834   6.332   1.069   2.323
 4964TIP3    H114835   6.264   1.114   2.372
 4964TIP3    H214836   6.291   1.045   2.240
 4965TIP3   OH214837   4.427   2.787   5.189
 4965TIP3    H114838   4.390   2.731   5.258
 4965TIP3    H214839   4.361   2.786   5.120
 4966TIP3   OH214840   0.135   7.477   5.816
 4966TIP3    H114841   0.207   7.484   5.754
 4966TIP3    H214842   0.168   7.420   5.885
 4967TIP3   OH214843   2.234   2.864   0.435
 4967TIP3    H114844   2.291   2.787   0.432
 4967TIP3    H214845   2.165   2.846   0.371
 4968TIP3   OH214846   1.407   6.531   0.550
 4968TIP3    H114847   1.424   6.605   0.609
 4968TIP3    H214848   1.317   6.543   0.522
 4969TIP3   OH214849   3.382   4.831   1.605
 4969TIP3    H114850   3.469   4.830   1.563
 4969TIP3    H214851   3.334   4.761   1.561
 4970TIP3   OH214852   0.092   5.288   0.797
 4970TIP3    H114853   0.187   5.280   0.788
 4970TIP3    H214854   0.075   5.382   0.799
 4971TIP3   OH214855   3.856   4.419   3.063
 4971TIP3    H114856   3.773   4.419   3.014
 4971TIP3    H214857   3.910   4.483   3.018
 4972TIP3   OH214858   0.728   7.156   0.194
 4972TIP3    H114859   0.712   7.250   0.187
 4972TIP3    H214860   0.742   7.127   0.104
 4973TIP3   OH214861   2.023   1.576   0.260
 4973TIP3    H114862   2.007   1.599   0.352
 4973TIP3    H214863   1.946   1.609   0.214
 4974TIP3   OH214864   1.473   4.214   3.809
 4974TIP3    H114865   1.556   4.196   3.764
 4974TIP3    H214866   1.481   4.168   3.892
 4975TIP3   OH214867   4.241   2.393   5.593
 4975TIP3    H114868   4.170   2.410   5.532
 4975TIP3    H214869   4.215   2.312   5.638
 4976TIP3   OH214870   1.786   1.595   0.091
 4976TIP3    H114871   1.726   1.669   0.083
 4976TIP3    H214872   1.798   1.564   0.002
 4977TIP3   OH214873   3.678   4.870   2.765
 4977TIP3    H114874   3.679   4.808   2.692
 4977TIP3    H214875   3.704   4.954   2.726
 4978TIP3   OH214876   0.765   7.731   3.549
 4978TIP3    H114877   0.812   7.788   3.488
 4978TIP3    H214878   0.687   7.782   3.572
 4979TIP3   OH214879   7.443   1.553   6.205
 4979TIP3    H114880   7.425   1.563   6.112
 4979TIP3    H214881   7.395   1.474   6.231
 4980TIP3   OH214882   3.703   0.485   4.692
 4980TIP3    H114883   3.789   0.487   4.650
 4980TIP3    H214884   3.715   0.428   4.768
 4981TIP3   OH214885   0.996   6.243   4.497
 4981TIP3    H114886   0.954   6.267   4.414
 4981TIP3    H214887   0.974   6.150   4.508
 4982TIP3   OH214888   5.213   4.621   6.244
 4982TIP3    H114889   5.280   4.690   6.246
 4982TIP3    H214890   5.157   4.641   6.319
 4983TIP3   OH214891   2.268   3.662   5.556
 4983TIP3    H114892   2.244   3.755   5.549
 4983TIP3    H214893   2.186   3.615   5.546
 4984TIP3   OH214894   8.317   3.809   1.052
 4984TIP3    H114895   8.258   3.810   1.126
 4984TIP3    H214896   8.294   3.887   1.002
 4985TIP3   OH214897   7.472   2.736   5.934
 4985TIP3    H114898   7.513   2.770   5.854
 4985TIP3    H214899   7.507   2.648   5.944
 4986TIP3   OH214900   2.232   6.490   0.828
 4986TIP3    H114901   2.273   6.562   0.781
 4986TIP3    H214902   2.287   6.414   0.808
 4987TIP3   OH214903   4.239   1.978   0.942
 4987TIP3    H114904   4.252   1.920   0.867
 4987TIP3    H214905   4.324   1.979   0.987
 4988TIP3   OH214906   7.581   6.854   1.569
 4988TIP3    H114907   7.636   6.775   1.574
 4988TIP3    H214908   7.643   6.925   1.553
 4989TIP3   OH214909   5.234   6.695   2.357
 4989TIP3    H114910   5.264   6.754   2.427
 4989TIP3    H214911   5.313   6.679   2.305
 4990TIP3   OH214912   0.641   7.226   3.607
 4990TIP3    H114913   0.636   7.195   3.697
 4990TIP3    H214914   0.552   7.216   3.573
 4991TIP3   OH214915   2.566   6.442   0.980
 4991TIP3    H114916   2.588   6.535   0.985
 4991TIP3    H214917   2.644   6.402   0.941
 4992TIP3   OH214918   0.265   0.175   6.389
 4992TIP3    H114919   0.302   0.100   6.343
 4992TIP3    H214920   0.243   0.142   6.476
 4993TIP3   OH214921   5.559   4.398   6.223
 4993TIP3    H114922   5.544   4.338   6.149
 4993TIP3    H214923   5.571   4.483   6.182
 4994TIP3   OH214924   2.133   7.006   2.184
 4994TIP3    H114925   2.042   6.994   2.213
 4994TIP3    H214926   2.131   6.982   2.091
 4995TIP3   OH214927   3.003   3.420   5.591
 4995TIP3    H114928   3.079   3.365   5.574
 4995TIP3    H214929   2.937   3.360   5.624
 4996TIP3   OH214930   1.824   1.243   6.514
 4996TIP3    H114931   1.794   1.208   6.430
 4996TIP3    H214932   1.792   1.180   6.578
 4997TIP3   OH214933   1.755   0.733   6.061
 4997TIP3    H114934   1.743   0.700   6.150
 4997TIP3    H214935   1.847   0.715   6.041
 4998TIP3   OH214936   8.131   2.849   1.502
 4998TIP3    H114937   8.086   2.889   1.577
 4998TIP3    H214938   8.199   2.795   1.541
 4999TIP3   OH214939   7.998   4.079   0.172
 4999TIP3    H114940   8.089   4.072   0.200
 4999TIP3    H214941   7.981   3.998   0.124
 5000TIP3   OH214942   5.741   4.353   3.400
 5000TIP3    H114943   5.793   4.277   3.374
 5000TIP3    H214944   5.658   4.316   3.429
 5001TIP3   OH214945   4.247   5.556   0.945
 5001TIP3    H114946   4.335   5.562   0.982
 5001TIP3    H214947   4.212   5.644   0.953
 5002TIP3   OH214948   2.196   5.900   3.350
 5002TIP3    H114949   2.229   5.891   3.261
 5002TIP3    H214950   2.273   5.891   3.406
 5003TIP3   OH214951   5.511   6.205   5.787
 5003TIP3    H114952   5.422   6.171   5.777
 5003TIP3    H214953   5.550   6.151   5.855
 5004TIP3   OH214954   7.541   2.278   2.344
 5004TIP3    H114955   7.471   2.285   2.279
 5004TIP3    H214956   7.513   2.207   2.402
 5005TIP3   OH214957   2.889   0.836   0.475
 5005TIP3    H114958   2.958   0.890   0.437
 5005TIP3    H214959   2.880   0.762   0.416
 5006TIP3   OH214960   6.172   7.772   6.208
 5006TIP3    H114961   6.192   7.707   6.276
 5006TIP3    H214962   6.077   7.776   6.205
 5007TIP3   OH214963   1.896   4.841   2.717
 5007TIP3    H114964   1.941   4.837   2.633
 5007TIP3    H214965   1.915   4.756   2.758
 5008TIP3   OH214966   2.581   3.713   0.205
 5008TIP3    H114967   2.664   3.705   0.251
 5008TIP3    H214968   2.529   3.773   0.259
 5009TIP3   OH214969   6.914   5.959   3.480
 5009TIP3    H114970   6.822   5.960   3.507
 5009TIP3    H214971   6.941   6.051   3.484
 5010TIP3   OH214972   5.032   7.362   4.903
 5010TIP3    H114973   5.010   7.342   4.994
 5010TIP3    H214974   5.013   7.280   4.856
 5011TIP3   OH214975   2.773   4.705   2.403
 5011TIP3    H114976   2.731   4.630   2.444
 5011TIP3    H214977   2.781   4.681   2.310
 5012TIP3   OH214978   5.243   2.321   5.551
 5012TIP3    H114979   5.298   2.385   5.507
 5012TIP3    H214980   5.301   2.279   5.614
 5013TIP3   OH214981   2.391   7.226   5.788
 5013TIP3    H114982   2.356   7.314   5.773
 5013TIP3    H214983   2.319   7.167   5.764
 5014TIP3   OH214984   5.232   6.756   5.249
 5014TIP3    H114985   5.182   6.678   5.224
 5014TIP3    H214986   5.257   6.740   5.340
 5015TIP3   OH214987   8.018   3.409   4.961
 5015TIP3    H114988   7.956   3.464   5.008
 5015TIP3    H214989   8.099   3.416   5.011
 5016TIP3   OH214990   5.930   4.805   6.667
 5016TIP3    H114991   5.953   4.712   6.661
 5016TIP3    H214992   5.875   4.811   6.745
 5017TIP3   OH214993   0.623   7.669   4.594
 5017TIP3    H114994   0.650   7.759   4.609
 5017TIP3    H214995   0.676   7.640   4.520
 5018TIP3   OH214996   3.427   3.318   0.439
 5018TIP3    H114997   3.476   3.388   0.395
 5018TIP3    H214998   3.421   3.249   0.373
 5019TIP3   OH214999   8.207   3.189   6.460
 5019TIP3    H115000   8.187   3.101   6.492
 5019TIP3    H215001   8.296   3.182   6.426
 5020TIP3   OH215002   2.568   6.337   5.852
 5020TIP3    H115003   2.589   6.339   5.946
 5020TIP3    H215004   2.625   6.404   5.814
 5021TIP3   OH215005   4.661   0.214   3.814
 5021TIP3    H115006   4.714   0.149   3.861
 5021TIP3    H215007   4.571   0.181   3.821
 5022TIP3   OH215008   2.886   6.781   2.284
 5022TIP3    H115009   2.794   6.793   2.264
 5022TIP3    H215010   2.920   6.870   2.299
 5023TIP3   OH215011   4.086   7.027   4.650
 5023TIP3    H115012   4.062   6.960   4.586
 5023TIP3    H215013   4.041   7.106   4.619
 5024TIP3   OH215014   0.640   5.799   5.151
 5024TIP3    H115015   0.699   5.832   5.083
 5024TIP3    H215016   0.576   5.745   5.105
 5025TIP3   OH215017   6.873   3.688   3.607
 5025TIP3    H115018   6.830   3.694   3.521
 5025TIP3    H215019   6.966   3.704   3.589
 5026TIP3   OH215020   2.212   7.321   1.826
 5026TIP3    H115021   2.158   7.324   1.905
 5026TIP3    H215022   2.157   7.358   1.757
 5027TIP3   OH215023   4.642   5.130   3.978
 5027TIP3    H115024   4.655   5.131   3.883
 5027TIP3    H215025   4.565   5.075   3.992
 5028TIP3   OH215026   6.224   5.298   5.308
 5028TIP3    H115027   6.282   5.284   5.382
 5028TIP3    H215028   6.282   5.321   5.235
 5029TIP3   OH215029   6.162   1.952   2.864
 5029TIP3    H115030   6.231   1.975   2.802
 5029TIP3    H215031   6.094   1.912   2.811
 5030TIP3   OH215032   6.993   4.108   4.433
 5030TIP3    H115033   6.915   4.120   4.487
 5030TIP3    H215034   7.047   4.185   4.450
 5031TIP3   OH215035   3.352   1.782   5.769
 5031TIP3    H115036   3.333   1.849   5.703
 5031TIP3    H215037   3.266   1.744   5.789
 5032TIP3   OH215038   1.323   1.163   2.904
 5032TIP3    H115039   1.291   1.249   2.932
 5032TIP3    H215040   1.253   1.129   2.849
 5033TIP3   OH215041   6.546   3.419   4.998
 5033TIP3    H115042   6.581   3.496   4.954
 5033TIP3    H215043   6.507   3.453   5.079
 5034TIP3   OH215044   0.704   7.545   4.049
 5034TIP3    H115045   0.758   7.623   4.062
 5034TIP3    H215046   0.766   7.474   4.038
 5035TIP3   OH215047   7.145   7.025   3.911
 5035TIP3    H115048   7.133   7.072   3.829
 5035TIP3    H215049   7.057   7.023   3.950
 5036TIP3   OH215050   5.993   4.407   2.908
 5036TIP3    H115051   5.929   4.359   2.960
 5036TIP3    H215052   6.074   4.402   2.958
 5037TIP3   OH215053   6.895   2.697   5.238
 5037TIP3    H115054   6.915   2.608   5.207
 5037TIP3    H215055   6.889   2.749   5.158
 5038TIP3   OH215056   1.953   2.020   5.965
 5038TIP3    H115057   2.037   1.977   5.950
 5038TIP3    H215058   1.917   2.034   5.878
 5039TIP3   OH215059   0.466   3.252   6.734
 5039TIP3    H115060   0.503   3.166   6.753
 5039TIP3    H215061   0.542   3.310   6.729
 5040TIP3   OH215062   5.501   0.522   0.833
 5040TIP3    H115063   5.504   0.604   0.784
 5040TIP3    H215064   5.419   0.480   0.805
 5041TIP3   OH215065   2.904   2.251   5.306
 5041TIP3    H115066   2.923   2.254   5.400
 5041TIP3    H215067   2.814   2.281   5.299
 5042TIP3   OH215068   3.610   6.874   5.212
 5042TIP3    H115069   3.539   6.928   5.178
 5042TIP3    H215070   3.681   6.936   5.229
 5043TIP3   OH215071   6.828   1.242   3.866
 5043TIP3    H115072   6.902   1.302   3.870
 5043TIP3    H215073   6.772   1.268   3.939
 5044TIP3   OH215074   4.060   5.520   3.351
 5044TIP3    H115075   4.060   5.610   3.320
 5044TIP3    H215076   4.151   5.502   3.375
 5045TIP3   OH215077   7.004   2.441   5.741
 5045TIP3    H115078   7.016   2.347   5.727
 5045TIP3    H215079   7.085   2.470   5.784
 5046TIP3   OH215080   4.016   2.577   5.903
 5046TIP3    H115081   4.055   2.548   5.820
 5046TIP3    H215082   4.047   2.514   5.967
 5047TIP3   OH215083   1.967   4.883   4.582
 5047TIP3    H115084   2.049   4.899   4.535
 5047TIP3    H215085   1.920   4.967   4.577
 5048TIP3   OH215086   3.526   6.435   2.267
 5048TIP3    H115087   3.488   6.461   2.183
 5048TIP3    H215088   3.508   6.341   2.275
 5049TIP3   OH215089   4.584   7.790   1.111
 5049TIP3    H115090   4.648   7.747   1.167
 5049TIP3    H215091   4.570   7.876   1.152
 5050TIP3   OH215092   3.397   5.298   1.397
 5050TIP3    H115093   3.317   5.300   1.343
 5050TIP3    H215094   3.382   5.227   1.459
 5051TIP3   OH215095   0.509   6.361   6.764
 5051TIP3    H115096   0.423   6.387   6.795
 5051TIP3    H215097   0.517   6.402   6.678
 5052TIP3   OH215098   7.093   1.274   6.432
 5052TIP3    H115099   7.066   1.300   6.521
 5052TIP3    H215100   7.018   1.297   6.377
 5053TIP3   OH215101   0.305   7.018   6.614
 5053TIP3    H115102   0.263   6.988   6.534
 5053TIP3    H215103   0.345   6.940   6.651
 5054TIP3   OH215104   7.905   7.730   1.836
 5054TIP3    H115105   7.923   7.797   1.771
 5054TIP3    H215106   7.875   7.778   1.913
 5055TIP3   OH215107   1.769   5.110   3.229
 5055TIP3    H115108   1.720   5.072   3.156
 5055TIP3    H215109   1.814   5.035   3.269
 5056TIP3   OH215110   5.844   1.258   1.998
 5056TIP3    H115111   5.898   1.275   2.075
 5056TIP3    H215112   5.850   1.339   1.946
 5057TIP3   OH215113   2.173   7.008   5.349
 5057TIP3    H115114   2.104   7.045   5.404
 5057TIP3    H215115   2.240   7.076   5.347
 5058TIP3   OH215116   5.073   0.859   0.369
 5058TIP3    H115117   5.096   0.949   0.348
 5058TIP3    H215118   5.127   0.837   0.445
 5059TIP3   OH215119   2.455   5.862   2.824
 5059TIP3    H115120   2.526   5.818   2.870
 5059TIP3    H215121   2.463   5.832   2.733
 5060TIP3   OH215122   3.811   3.929   1.847
 5060TIP3    H115123   3.847   3.922   1.758
 5060TIP3    H215124   3.724   3.967   1.835
 5061TIP3   OH215125   5.348   6.586   0.051
 5061TIP3    H115126   5.288   6.623  -0.015
 5061TIP3    H215127   5.367   6.498   0.019
 5062TIP3   OH215128  -0.033   6.557   5.534
 5062TIP3    H115129  -0.003   6.468   5.516
 5062TIP3    H215130   0.019   6.585   5.610
 5063TIP3   OH215131   4.488   7.416   4.271
 5063TIP3    H115132   4.540   7.393   4.348
 5063TIP3    H215133   4.397   7.398   4.297
 5064TIP3   OH215134   6.410   0.398   2.699
 5064TIP3    H115135   6.422   0.338   2.772
 5064TIP3    H215136   6.414   0.485   2.739
 5065TIP3   OH215137   3.186   5.489   1.825
 5065TIP3    H115138   3.162   5.557   1.762
 5065TIP3    H215139   3.282   5.482   1.816
 5066TIP3   OH215140   7.861   5.535   1.079
 5066TIP3    H115141   7.887   5.600   1.014
 5066TIP3    H215142   7.941   5.520   1.131
 5067TIP3   OH215143   2.692   4.838   3.575
 5067TIP3    H115144   2.729   4.751   3.589
 5067TIP3    H215145   2.618   4.823   3.516
 5068TIP3   OH215146   2.148   2.000   4.233
 5068TIP3    H115147   2.082   2.040   4.289
 5068TIP3    H215148   2.130   1.907   4.237
 5069TIP3   OH215149   5.171   7.034   2.194
 5069TIP3    H115150   5.220   7.066   2.270
 5069TIP3    H215151   5.081   7.028   2.224
 5070TIP3   OH215152   6.408   7.419   3.185
 5070TIP3    H115153   6.331   7.427   3.130
 5070TIP3    H215154   6.455   7.344   3.149
 5071TIP3   OH215155   3.376   2.504   4.029
 5071TIP3    H115156   3.310   2.462   3.975
 5071TIP3    H215157   3.397   2.586   3.983
 5072TIP3   OH215158   4.232   0.776   2.142
 5072TIP3    H115159   4.230   0.871   2.137
 5072TIP3    H215160   4.167   0.754   2.209
 5073TIP3   OH215161   6.490   5.328   4.247
 5073TIP3    H115162   6.433   5.258   4.278
 5073TIP3    H215163   6.565   5.284   4.208
 5074TIP3   OH215164   4.882   4.338   1.722
 5074TIP3    H115165   4.795   4.373   1.702
 5074TIP3    H215166   4.865   4.263   1.779
 5075TIP3   OH215167   4.681   6.848   0.630
 5075TIP3    H115168   4.757   6.801   0.664
 5075TIP3    H215169   4.606   6.807   0.672
 5076TIP3   OH215170   2.610   6.320   6.119
 5076TIP3    H115171   2.619   6.262   6.195
 5076TIP3    H215172   2.518   6.347   6.121
 5077TIP3   OH215173   3.895   1.771   2.867
 5077TIP3    H115174   3.855   1.809   2.946
 5077TIP3    H215175   3.824   1.771   2.803
 5078TIP3   OH215176   1.873   6.744   1.409
 5078TIP3    H115177   1.927   6.820   1.390
 5078TIP3    H215178   1.828   6.767   1.491
 5079TIP3   OH215179   2.622   0.226   4.684
 5079TIP3    H115180   2.694   0.257   4.630
 5079TIP3    H215181   2.657   0.151   4.731
 5080TIP3   OH215182   1.558   0.704   1.630
 5080TIP3    H115183   1.519   0.665   1.551
 5080TIP3    H215184   1.489   0.698   1.696
 5081TIP3   OH215185   1.731   0.708   6.538
 5081TIP3    H115186   1.706   0.666   6.456
 5081TIP3    H215187   1.695   0.651   6.606
 5082TIP3   OH215188   6.496   5.309   6.537
 5082TIP3    H115189   6.582   5.270   6.524
 5082TIP3    H215190   6.439   5.236   6.562
 5083TIP3   OH215191   0.840   3.873   2.312
 5083TIP3    H115192   0.865   3.787   2.344
 5083TIP3    H215193   0.905   3.894   2.244
 5084TIP3   OH215194   8.185   3.676   4.890
 5084TIP3    H115195   8.228   3.706   4.971
 5084TIP3    H215196   8.200   3.582   4.888
 5085TIP3   OH215197   6.201   6.147   1.769
 5085TIP3    H115198   6.154   6.152   1.852
 5085TIP3    H215199   6.137   6.115   1.707
 5086TIP3   OH215200   3.749   3.471   0.535
 5086TIP3    H115201   3.700   3.464   0.617
 5086TIP3    H215202   3.797   3.388   0.529
 5087TIP3   OH215203   3.101   7.346   4.593
 5087TIP3    H115204   3.181   7.343   4.646
 5087TIP3    H215205   3.126   7.307   4.510
 5088TIP3   OH215206   6.091   1.137   2.448
 5088TIP3    H115207   6.078   1.231   2.451
 5088TIP3    H215208   6.041   1.108   2.372
 5089TIP3   OH215209   5.849   1.580   1.538
 5089TIP3    H115210   5.790   1.611   1.606
 5089TIP3    H215211   5.930   1.557   1.585
 5090TIP3   OH215212   3.179   4.972   5.564
 5090TIP3    H115213   3.112   4.996   5.501
 5090TIP3    H215214   3.261   5.006   5.527
 5091TIP3   OH215215   0.227   0.177   5.957
 5091TIP3    H115216   0.308   0.228   5.949
 5091TIP3    H215217   0.245   0.096   5.908
 5092TIP3   OH215218   1.395   1.987   6.190
 5092TIP3    H115219   1.355   2.012   6.273
 5092TIP3    H215220   1.348   2.037   6.123
 5093TIP3   OH215221   5.133   3.550   5.964
 5093TIP3    H115222   5.145   3.594   5.880
 5093TIP3    H215223   5.077   3.609   6.014
 5094TIP3   OH215224   0.976   1.788   2.845
 5094TIP3    H115225   0.956   1.712   2.790
 5094TIP3    H215226   0.963   1.757   2.935
 5095TIP3   OH215227   7.211   1.072   6.077
 5095TIP3    H115228   7.293   1.028   6.052
 5095TIP3    H215229   7.147   1.002   6.082
 5096TIP3   OH215230   6.569   5.943   4.073
 5096TIP3    H115231   6.563   5.942   3.977
 5096TIP3    H215232   6.498   5.886   4.102
 5097TIP3   OH215233   7.845   2.388   6.595
 5097TIP3    H115234   7.882   2.372   6.508
 5097TIP3    H215235   7.879   2.473   6.621
 5098TIP3   OH215236   6.920   7.055   0.731
 5098TIP3    H115237   6.969   7.007   0.797
 5098TIP3    H215238   6.927   7.147   0.756
 5099TIP3   OH215239   1.763   5.508   5.956
 5099TIP3    H115240   1.724   5.535   6.039
 5099TIP3    H215241   1.856   5.523   5.967
 5100TIP3   OH215242   3.334   4.428   2.227
 5100TIP3    H115243   3.417   4.399   2.265
 5100TIP3    H215244   3.278   4.350   2.229
 5101TIP3   OH215245   1.945   4.994   0.397
 5101TIP3    H115246   2.034   5.024   0.410
 5101TIP3    H215247   1.918   5.031   0.312
 5102TIP3   OH215248   7.061   7.022   5.581
 5102TIP3    H115249   7.030   7.074   5.507
 5102TIP3    H215250   7.069   7.085   5.653
 5103TIP3   OH215251   2.172   3.192   1.789
 5103TIP3    H115252   2.262   3.165   1.775
 5103TIP3    H215253   2.143   3.226   1.704
 5104TIP3   OH215254   7.528   6.496   5.295
 5104TIP3    H115255   7.529   6.421   5.353
 5104TIP3    H215256   7.617   6.499   5.258
 5105TIP3   OH215257   6.409   0.938   0.645
 5105TIP3    H115258   6.430   0.992   0.569
 5105TIP3    H215259   6.367   0.860   0.608
 5106TIP3   OH215260   7.057   0.412   6.603
 5106TIP3    H115261   7.139   0.460   6.618
 5106TIP3    H215262   7.043   0.418   6.508
 5107TIP3   OH215263   2.312   1.162   2.316
 5107TIP3    H115264   2.370   1.238   2.323
 5107TIP3    H215265   2.363   1.089   2.352
 5108TIP3   OH215266   1.232   1.086   5.866
 5108TIP3    H115267   1.149   1.040   5.857
 5108TIP3    H215268   1.221   1.142   5.942
 5109TIP3   OH215269   0.596   7.320   0.759
 5109TIP3    H115270   0.567   7.411   0.754
 5109TIP3    H215271   0.628   7.300   0.671
 5110TIP3   OH215272   5.076   5.234   4.027
 5110TIP3    H115273   5.046   5.251   4.116
 5110TIP3    H215274   5.020   5.287   3.971
 5111TIP3   OH215275   2.006   4.413   1.090
 5111TIP3    H115276   2.095   4.446   1.076
 5111TIP3    H215277   1.952   4.463   1.028
 5112TIP3   OH215278   4.963   2.756   2.772
 5112TIP3    H115279   5.005   2.768   2.857
 5112TIP3    H215280   4.944   2.844   2.742
 5113TIP3   OH215281   6.734   4.447   1.866
 5113TIP3    H115282   6.659   4.398   1.902
 5113TIP3    H215283   6.697   4.532   1.842
 5114TIP3   OH215284   3.206   6.235   1.805
 5114TIP3    H115285   3.226   6.145   1.779
 5114TIP3    H215286   3.291   6.275   1.824
 5115TIP3   OH215287   2.239   4.488   6.481
 5115TIP3    H115288   2.222   4.579   6.506
 5115TIP3    H215289   2.154   4.456   6.449
 5116TIP3   OH215290   0.076   0.663   2.116
 5116TIP3    H115291   0.009   0.705   2.170
 5116TIP3    H215292   0.158   0.679   2.162
 5117TIP3   OH215293   7.632   4.939   4.069
 5117TIP3    H115294   7.707   4.989   4.102
 5117TIP3    H215295   7.652   4.925   3.977
 5118TIP3   OH215296   3.109   6.889   6.286
 5118TIP3    H115297   3.104   6.892   6.190
 5118TIP3    H215298   3.199   6.860   6.304
 5119TIP3   OH215299   3.584   7.504   0.484
 5119TIP3    H115300   3.667   7.552   0.491
 5119TIP3    H215301   3.588   7.463   0.398
 5120TIP3   OH215302   3.629   3.899   6.601
 5120TIP3    H115303   3.551   3.898   6.545
 5120TIP3    H215304   3.595   3.916   6.688
 5121TIP3   OH215305   1.325   2.747   5.536
 5121TIP3    H115306   1.255   2.778   5.480
 5121TIP3    H215307   1.378   2.825   5.555
 5122TIP3   OH215308   4.389   2.024   6.545
 5122TIP3    H115309   4.395   2.005   6.451
 5122TIP3    H215310   4.357   1.943   6.584
 5123TIP3   OH215311   6.334   3.300   1.475
 5123TIP3    H115312   6.293   3.354   1.407
 5123TIP3    H215313   6.286   3.322   1.555
 5124TIP3   OH215314   3.660   4.712   2.548
 5124TIP3    H115315   3.687   4.708   2.456
 5124TIP3    H215316   3.639   4.621   2.571
 5125TIP3   OH215317   5.931   6.673   0.398
 5125TIP3    H115318   6.020   6.682   0.433
 5125TIP3    H215319   5.883   6.746   0.437
 5126TIP3   OH215320   4.780   0.518   6.544
 5126TIP3    H115321   4.829   0.442   6.514
 5126TIP3    H215322   4.700   0.482   6.582
 5127TIP3   OH215323   3.046   4.318   1.894
 5127TIP3    H115324   2.962   4.362   1.897
 5127TIP3    H215325   3.053   4.285   1.804
 5128TIP3   OH215326   0.435   2.523   1.943
 5128TIP3    H115327   0.527   2.506   1.962
 5128TIP3    H215328   0.405   2.446   1.896
 5129TIP3   OH215329   0.987   2.436   1.279
 5129TIP3    H115330   0.919   2.400   1.222
 5129TIP3    H215331   1.005   2.367   1.343
 5130TIP3   OH215332   5.886   7.391   4.897
 5130TIP3    H115333   5.917   7.319   4.844
 5130TIP3    H215334   5.965   7.442   4.918
 5131TIP3   OH215335   5.142   2.608   2.572
 5131TIP3    H115336   5.102   2.673   2.629
 5131TIP3    H215337   5.098   2.620   2.488
 5132TIP3   OH215338   4.851   5.196   4.812
 5132TIP3    H115339   4.933   5.159   4.778
 5132TIP3    H215340   4.875   5.231   4.898
 5133TIP3   OH215341   3.023   1.892   1.429
 5133TIP3    H115342   2.932   1.919   1.419
 5133TIP3    H215343   3.074   1.970   1.405
 5134TIP3   OH215344   2.105   7.523   2.005
 5134TIP3    H115345   2.075   7.614   2.004
 5134TIP3    H215346   2.137   7.509   2.094
 5135TIP3   OH215347   1.011   1.044   3.702
 5135TIP3    H115348   1.090   1.064   3.651
 5135TIP3    H215349   0.939   1.052   3.639
 5136TIP3   OH215350   3.660   0.375   1.570
 5136TIP3    H115351   3.591   0.308   1.568
 5136TIP3    H215352   3.732   0.337   1.519
 5137TIP3   OH215353   7.725   4.984   6.168
 5137TIP3    H115354   7.729   4.902   6.119
 5137TIP3    H215355   7.675   5.043   6.112
 5138TIP3   OH215356   4.966   5.546   4.706
 5138TIP3    H115357   4.976   5.594   4.624
 5138TIP3    H215358   5.024   5.470   4.697
 5139TIP3   OH215359   4.390   2.335   1.373
 5139TIP3    H115360   4.464   2.337   1.313
 5139TIP3    H215361   4.378   2.242   1.393
 5140TIP3   OH215362   1.488   5.627   5.037
 5140TIP3    H115363   1.487   5.718   5.068
 5140TIP3    H215364   1.547   5.582   5.097
 5141TIP3   OH215365   7.616   5.916   6.371
 5141TIP3    H115366   7.634   5.866   6.291
 5141TIP3    H215367   7.536   5.876   6.406
 5142TIP3   OH215368   7.709   6.566   0.927
 5142TIP3    H115369   7.619   6.553   0.896
 5142TIP3    H215370   7.728   6.658   0.909
 5143TIP3   OH215371   7.657   5.539   4.368
 5143TIP3    H115372   7.714   5.508   4.298
 5143TIP3    H215373   7.701   5.618   4.402
 5144TIP3   OH215374   2.669   1.849   4.060
 5144TIP3    H115375   2.591   1.830   4.113
 5144TIP3    H215376   2.699   1.763   4.030
 5145TIP3   OH215377   5.542   2.974   5.325
 5145TIP3    H115378   5.549   3.066   5.299
 5145TIP3    H215379   5.448   2.959   5.337
 5146TIP3   OH215380   6.198   3.274   4.000
 5146TIP3    H115381   6.262   3.336   4.036
 5146TIP3    H215382   6.229   3.257   3.911
 5147TIP3   OH215383   4.815   6.872   0.084
 5147TIP3    H115384   4.826   6.849  -0.009
 5147TIP3    H215385   4.869   6.808   0.131
 5148TIP3   OH215386   3.063   6.116   0.671
 5148TIP3    H115387   3.120   6.183   0.710
 5148TIP3    H215388   3.010   6.165   0.608
 5149TIP3   OH215389   1.296   1.156   6.492
 5149TIP3    H115390   1.379   1.204   6.499
 5149TIP3    H215391   1.315   1.068   6.524
 5150TIP3   OH215392   0.822   1.322   0.253
 5150TIP3    H115393   0.806   1.268   0.331
 5150TIP3    H215394   0.767   1.283   0.185
 5151TIP3   OH215395   7.120   0.533   1.263
 5151TIP3    H115396   7.124   0.625   1.239
 5151TIP3    H215397   7.211   0.507   1.277
 5152TIP3   OH215398   5.955   1.481   0.403
 5152TIP3    H115399   6.046   1.511   0.409
 5152TIP3    H215400   5.910   1.550   0.353
 5153TIP3   OH215401   5.190   7.307   5.482
 5153TIP3    H115402   5.219   7.385   5.435
 5153TIP3    H215403   5.105   7.332   5.519
 5154TIP3   OH215404   1.449   6.190   4.756
 5154TIP3    H115405   1.393   6.170   4.681
 5154TIP3    H215406   1.538   6.189   4.721
 5155TIP3   OH215407   3.694   5.068   1.582
 5155TIP3    H115408   3.627   5.135   1.571
 5155TIP3    H215409   3.655   5.004   1.643
 5156TIP3   OH215410   2.774   0.682   1.938
 5156TIP3    H115411   2.816   0.764   1.913
 5156TIP3    H215412   2.687   0.708   1.968
 5157TIP3   OH215413   7.795   7.572   3.295
 5157TIP3    H115414   7.722   7.595   3.352
 5157TIP3    H215415   7.861   7.639   3.313
 5158TIP3   OH215416   7.048   7.693   5.087
 5158TIP3    H115417   7.105   7.635   5.137
 5158TIP3    H215418   6.972   7.706   5.143
 5159TIP3   OH215419   5.944   2.320   4.421
 5159TIP3    H115420   5.979   2.234   4.445
 5159TIP3    H215421   6.022   2.374   4.407
 5160TIP3   OH215422   2.748   5.026   0.484
 5160TIP3    H115423   2.817   5.091   0.494
 5160TIP3    H215424   2.667   5.077   0.483
 5161TIP3   OH215425   3.214   0.032   2.934
 5161TIP3    H115426   3.209   0.103   2.998
 5161TIP3    H215427   3.275   0.063   2.867
 5162TIP3   OH215428   1.123   7.164   3.839
 5162TIP3    H115429   1.065   7.200   3.906
 5162TIP3    H215430   1.211   7.188   3.867
 5163TIP3   OH215431   4.983   0.455   6.210
 5163TIP3    H115432   5.077   0.465   6.224
 5163TIP3    H215433   4.949   0.421   6.292
 5164TIP3   OH215434   0.269   2.848   2.957
 5164TIP3    H115435   0.329   2.914   2.990
 5164TIP3    H215436   0.239   2.800   3.035
 5165TIP3   OH215437   5.276   5.782   4.761
 5165TIP3    H115438   5.236   5.711   4.812
 5165TIP3    H215439   5.329   5.830   4.824
 5166TIP3   OH215440   2.281   3.917   4.885
 5166TIP3    H115441   2.366   3.890   4.918
 5166TIP3    H215442   2.266   4.003   4.923
 5167TIP3   OH215443   3.128   2.161   1.351
 5167TIP3    H115444   3.145   2.250   1.321
 5167TIP3    H215445   3.105   2.112   1.272
 5168TIP3   OH215446   1.918   1.292   0.168
 5168TIP3    H115447   1.953   1.308   0.081
 5168TIP3    H215448   1.942   1.370   0.218
 5169TIP3   OH215449   4.440   1.547   1.314
 5169TIP3    H115450   4.354   1.585   1.334
 5169TIP3    H215451   4.459   1.489   1.387
 5170TIP3   OH215452   6.015   6.632   1.937
 5170TIP3    H115453   6.055   6.573   2.000
 5170TIP3    H215454   5.921   6.614   1.943
 5171TIP3   OH215455   1.891   1.813   3.250
 5171TIP3    H115456   1.859   1.771   3.170
 5171TIP3    H215457   1.925   1.898   3.221
 5172TIP3   OH215458   2.319   1.160   6.110
 5172TIP3    H115459   2.327   1.098   6.037
 5172TIP3    H215460   2.224   1.165   6.126
 5173TIP3   OH215461   6.342   6.182   3.258
 5173TIP3    H115462   6.411   6.234   3.217
 5173TIP3    H215463   6.377   6.093   3.262
 5174TIP3   OH215464   1.686   1.190   2.606
 5174TIP3    H115465   1.694   1.278   2.571
 5174TIP3    H215466   1.714   1.197   2.697
 5175TIP3   OH215467   3.750   4.807   6.330
 5175TIP3    H115468   3.674   4.863   6.342
 5175TIP3    H215469   3.793   4.805   6.416
 5176TIP3   OH215470   5.215   1.358   0.493
 5176TIP3    H115471   5.252   1.370   0.405
 5176TIP3    H215472   5.277   1.299   0.536
 5177TIP3   OH215473   3.555   4.782   5.061
 5177TIP3    H115474   3.492   4.848   5.089
 5177TIP3    H215475   3.555   4.788   4.965
 5178TIP3   OH215476   6.329   1.754   6.510
 5178TIP3    H115477   6.366   1.693   6.446
 5178TIP3    H215478   6.405   1.798   6.548
 5179TIP3   OH215479   1.799   2.235   6.197
 5179TIP3    H115480   1.770   2.150   6.231
 5179TIP3    H215481   1.888   2.244   6.229
 5180TIP3   OH215482   3.115   0.545   1.670
 5180TIP3    H115483   3.131   0.623   1.723
 5180TIP3    H215484   3.021   0.530   1.677
 5181TIP3   OH215485   5.027   5.189   6.012
 5181TIP3    H115486   4.960   5.253   6.038
 5181TIP3    H215487   5.009   5.173   5.919
 5182TIP3   OH215488   7.716   6.008   3.541
 5182TIP3    H115489   7.764   5.981   3.463
 5182TIP3    H215490   7.656   5.935   3.558
 5183TIP3   OH215491   5.901   3.683   6.281
 5183TIP3    H115492   5.813   3.651   6.301
 5183TIP3    H215493   5.959   3.618   6.321
 5184TIP3   OH215494   4.699   2.292   0.873
 5184TIP3    H115495   4.654   2.271   0.792
 5184TIP3    H215496   4.792   2.276   0.854
 5185TIP3   OH215497   4.901   3.957   5.975
 5185TIP3    H115498   4.825   3.975   5.921
 5185TIP3    H215499   4.898   4.024   6.043
 5186TIP3   OH215500   2.568   4.700   2.751
 5186TIP3    H115501   2.592   4.762   2.681
 5186TIP3    H215502   2.627   4.626   2.737
 5187TIP3   OH215503   4.183   4.283   1.814
 5187TIP3    H115504   4.271   4.291   1.850
 5187TIP3    H215505   4.136   4.230   1.879
 5188TIP3   OH215506   0.690   0.198   1.688
 5188TIP3    H115507   0.711   0.108   1.664
 5188TIP3    H215508   0.643   0.233   1.612
 5189TIP3   OH215509   1.449   5.446   5.418
 5189TIP3    H115510   1.534   5.410   5.442
 5189TIP3    H215511   1.458   5.540   5.430
 5190TIP3   OH215512   7.154   4.839   2.990
 5190TIP3    H115513   7.228   4.853   2.932
 5190TIP3    H215514   7.181   4.767   3.047
 5191TIP3   OH215515   4.371   3.612  -0.025
 5191TIP3    H115516   4.359   3.518  -0.042
 5191TIP3    H215517   4.411   3.616   0.062
 5192TIP3   OH215518   3.396   3.075   2.230
 5192TIP3    H115519   3.452   3.070   2.153
 5192TIP3    H215520   3.456   3.062   2.304
 5193TIP3   OH215521   2.647   3.176   0.241
 5193TIP3    H115522   2.720   3.137   0.193
 5193TIP3    H215523   2.689   3.236   0.303
 5194TIP3   OH215524   8.201   3.437   3.750
 5194TIP3    H115525   8.289   3.468   3.730
 5194TIP3    H215526   8.177   3.383   3.674
 5195TIP3   OH215527   7.253   0.574   2.575
 5195TIP3    H115528   7.199   0.509   2.620
 5195TIP3    H215529   7.214   0.582   2.488
 5196TIP3   OH215530   6.789   3.993   0.805
 5196TIP3    H115531   6.800   3.907   0.845
 5196TIP3    H215532   6.834   3.985   0.720
 5197TIP3   OH215533   2.361   0.064   2.117
 5197TIP3    H115534   2.442   0.022   2.146
 5197TIP3    H215535   2.328   0.110   2.194
 5198TIP3   OH215536   2.641   0.767   6.132
 5198TIP3    H115537   2.599   0.691   6.092
 5198TIP3    H215538   2.684   0.812   6.059
 5199TIP3   OH215539   2.731   1.857   0.852
 5199TIP3    H115540   2.745   1.776   0.900
 5199TIP3    H215541   2.714   1.922   0.920
 5200TIP3   OH215542   6.491   0.550   4.192
 5200TIP3    H115543   6.529   0.634   4.215
 5200TIP3    H215544   6.482   0.503   4.275
 5201TIP3   OH215545   5.844   4.897   1.895
 5201TIP3    H115546   5.868   4.976   1.847
 5201TIP3    H215547   5.863   4.825   1.834
 5202TIP3   OH215548   0.187   0.259   3.094
 5202TIP3    H115549   0.224   0.305   3.018
 5202TIP3    H215550   0.137   0.325   3.141
 5203TIP3   OH215551   4.395   1.076   5.087
 5203TIP3    H115552   4.310   1.031   5.085
 5203TIP3    H215553   4.455   1.012   5.124
 5204TIP3   OH215554   6.198   7.424   2.996
 5204TIP3    H115555   6.136   7.462   3.058
 5204TIP3    H215556   6.252   7.499   2.968
 5205TIP3   OH215557   3.303   6.149   6.629
 5205TIP3    H115558   3.365   6.220   6.641
 5205TIP3    H215559   3.345   6.091   6.565
 5206TIP3   OH215560   4.955   2.406   5.467
 5206TIP3    H115561   4.903   2.327   5.481
 5206TIP3    H215562   5.036   2.390   5.517
 5207TIP3   OH215563   1.970   3.986   1.753
 5207TIP3    H115564   1.961   3.951   1.664
 5207TIP3    H215565   2.051   3.949   1.785
 5208TIP3   OH215566   4.493   3.383   4.161
 5208TIP3    H115567   4.450   3.419   4.084
 5208TIP3    H215568   4.468   3.442   4.233
 5209TIP3   OH215569   7.620   1.961   2.289
 5209TIP3    H115570   7.578   2.002   2.365
 5209TIP3    H215571   7.707   2.002   2.285
 5210TIP3   OH215572   2.763   5.577   0.025
 5210TIP3    H115573   2.800   5.589   0.113
 5210TIP3    H215574   2.669   5.591   0.036
 5211TIP3   OH215575   1.666   0.845   5.228
 5211TIP3    H115576   1.729   0.850   5.156
 5211TIP3    H215577   1.581   0.838   5.184
 5212TIP3   OH215578   3.464   2.327   0.693
 5212TIP3    H115579   3.557   2.311   0.705
 5212TIP3    H215580   3.438   2.269   0.622
 5213TIP3   OH215581   3.698   2.278   2.311
 5213TIP3    H115582   3.649   2.320   2.241
 5213TIP3    H215583   3.773   2.237   2.267
 5214TIP3   OH215584   1.275   2.044   2.305
 5214TIP3    H115585   1.319   2.101   2.367
 5214TIP3    H215586   1.226   2.104   2.248
 5215TIP3   OH215587   7.207   1.816   5.013
 5215TIP3    H115588   7.172   1.840   4.927
 5215TIP3    H215589   7.253   1.895   5.043
 5216TIP3   OH215590   5.499   2.134   5.377
 5216TIP3    H115591   5.457   2.145   5.463
 5216TIP3    H215592   5.438   2.176   5.316
 5217TIP3   OH215593   1.103   1.765   5.977
 5217TIP3    H115594   1.084   1.849   6.017
 5217TIP3    H215595   1.192   1.744   6.004
 5218TIP3   OH215596   3.104   5.183   3.445
 5218TIP3    H115597   3.062   5.148   3.367
 5218TIP3    H215598   3.056   5.263   3.465
 5219TIP3   OH215599   0.626   5.338   5.204
 5219TIP3    H115600   0.594   5.295   5.125
 5219TIP3    H215601   0.686   5.405   5.173
 5220TIP3   OH215602   4.308   0.976   2.557
 5220TIP3    H115603   4.366   0.945   2.627
 5220TIP3    H215604   4.270   1.057   2.591
 5221TIP3   OH215605   5.089   3.082   6.253
 5221TIP3    H115606   5.023   3.134   6.207
 5221TIP3    H215607   5.171   3.129   6.238
 5222TIP3   OH215608   0.356   5.569   3.505
 5222TIP3    H115609   0.393   5.482   3.519
 5222TIP3    H215610   0.410   5.608   3.436
 5223TIP3   OH215611   2.840   1.158   5.924
 5223TIP3    H115612   2.774   1.227   5.937
 5223TIP3    H215613   2.917   1.205   5.893
 5224TIP3   OH215614   1.249   2.548   2.928
 5224TIP3    H115615   1.336   2.586   2.940
 5224TIP3    H215616   1.251   2.510   2.840
 5225TIP3   OH215617   6.220   0.960   4.338
 5225TIP3    H115618   6.226   0.906   4.259
 5225TIP3    H215619   6.161   0.911   4.395
 5226TIP3   OH215620   7.291   0.942   2.549
 5226TIP3    H115621   7.261   0.862   2.506
 5226TIP3    H215622   7.365   0.914   2.603
 5227TIP3   OH215623   3.957   0.219   3.026
 5227TIP3    H115624   4.004   0.269   3.092
 5227TIP3    H215625   3.910   0.285   2.975
 5228TIP3   OH215626   2.307   1.343   1.304
 5228TIP3    H115627   2.292   1.432   1.337
 5228TIP3    H215628   2.255   1.287   1.362
 5229TIP3   OH215629   1.089   6.439   0.020
 5229TIP3    H115630   1.119   6.520  -0.020
 5229TIP3    H215631   1.125   6.441   0.109
 5230TIP3   OH215632   4.825   4.519   5.842
 5230TIP3    H115633   4.880   4.534   5.766
 5230TIP3    H215634   4.794   4.429   5.833
 5231TIP3   OH215635   6.519   5.143   6.111
 5231TIP3    H115636   6.433   5.106   6.130
 5231TIP3    H215637   6.535   5.204   6.184
 5232TIP3   OH215638   4.701   2.470   5.081
 5232TIP3    H115639   4.742   2.391   5.046
 5232TIP3    H215640   4.737   2.478   5.170
 5233TIP3   OH215641   5.668   7.188   4.627
 5233TIP3    H115642   5.669   7.218   4.718
 5233TIP3    H215643   5.605   7.116   4.626
 5234TIP3   OH215644   7.881   4.868   2.074
 5234TIP3    H115645   7.847   4.803   2.135
 5234TIP3    H215646   7.887   4.949   2.125
 5235TIP3   OH215647   2.661   0.593   4.908
 5235TIP3    H115648   2.677   0.643   4.828
 5235TIP3    H215649   2.605   0.521   4.881
 5236TIP3   OH215650   4.838   5.535   5.398
 5236TIP3    H115651   4.789   5.615   5.418
 5236TIP3    H215652   4.811   5.512   5.309
 5237TIP3   OH215653   3.274   4.456   5.458
 5237TIP3    H115654   3.231   4.490   5.380
 5237TIP3    H215655   3.316   4.375   5.428
 5238TIP3   OH215656   2.533   1.377   6.062
 5238TIP3    H115657   2.540   1.353   5.970
 5238TIP3    H215658   2.488   1.302   6.103
 5239TIP3   OH215659   2.741   5.110   3.575
 5239TIP3    H115660   2.721   5.018   3.590
 5239TIP3    H215661   2.671   5.141   3.517
 5240TIP3   OH215662   7.226   6.954   5.941
 5240TIP3    H115663   7.175   6.876   5.922
 5240TIP3    H215664   7.184   7.023   5.889
 5241TIP3   OH215665   6.309   3.086   4.174
 5241TIP3    H115666   6.387   3.095   4.120
 5241TIP3    H215667   6.244   3.045   4.117
 5242TIP3   OH215668   0.161   1.080   6.154
 5242TIP3    H115669   0.223   1.060   6.083
 5242TIP3    H215670   0.143   1.173   6.145
 5243TIP3   OH215671   1.911   7.095   4.216
 5243TIP3    H115672   1.994   7.101   4.169
 5243TIP3    H215673   1.934   7.057   4.301
 5244TIP3   OH215674   5.451   7.388   5.603
 5244TIP3    H115675   5.402   7.467   5.627
 5244TIP3    H215676   5.400   7.317   5.642
 5245TIP3   OH215677   3.638   3.637   1.169
 5245TIP3    H115678   3.697   3.562   1.168
 5245TIP3    H215679   3.679   3.701   1.110
 5246TIP3   OH215680   1.427   0.544   2.289
 5246TIP3    H115681   1.354   0.483   2.279
 5246TIP3    H215682   1.387   0.623   2.325
 5247TIP3   OH215683   2.999   3.599   6.260
 5247TIP3    H115684   2.926   3.658   6.244
 5247TIP3    H215685   2.992   3.578   6.353
 5248TIP3   OH215686   5.627   5.230   2.824
 5248TIP3    H115687   5.638   5.294   2.894
 5248TIP3    H215688   5.532   5.218   2.817
 5249TIP3   OH215689   0.828   2.340   2.578
 5249TIP3    H115690   0.825   2.356   2.672
 5249TIP3    H215691   0.746   2.375   2.544
 5250TIP3   OH215692   6.455   2.208   1.313
 5250TIP3    H115693   6.403   2.241   1.240
 5250TIP3    H215694   6.487   2.288   1.357
 5251TIP3   OH215695   6.282   4.772   6.006
 5251TIP3    H115696   6.359   4.823   5.979
 5251TIP3    H215697   6.261   4.803   6.094
 5252TIP3   OH215698   1.872   1.592   4.435
 5252TIP3    H115699   1.835   1.505   4.423
 5252TIP3    H215700   1.804   1.641   4.482
 5253TIP3   OH215701   3.419   5.718   3.924
 5253TIP3    H115702   3.364   5.678   3.857
 5253TIP3    H215703   3.364   5.720   4.002
 5254TIP3   OH215704   3.843   2.882   1.000
 5254TIP3    H115705   3.833   2.977   0.990
 5254TIP3    H215706   3.879   2.870   1.088
 5255TIP3   OH215707   6.937   4.903   2.549
 5255TIP3    H115708   6.881   4.862   2.615
 5255TIP3    H215709   6.954   4.833   2.486
 5256TIP3   OH215710   5.353   7.371   4.844
 5256TIP3    H115711   5.315   7.323   4.918
 5256TIP3    H215712   5.447   7.370   4.861
 5257TIP3   OH215713   4.662   4.889   4.439
 5257TIP3    H115714   4.592   4.828   4.465
 5257TIP3    H215715   4.738   4.833   4.425
 5258TIP3   OH215716   4.027   0.742   2.327
 5258TIP3    H115717   3.988   0.661   2.360
 5258TIP3    H215718   4.014   0.805   2.398
 5259TIP3   OH215719   2.235   1.361   4.977
 5259TIP3    H115720   2.214   1.318   4.894
 5259TIP3    H215721   2.163   1.336   5.035
 5260TIP3   OH215722   5.593   0.534   5.370
 5260TIP3    H115723   5.574   0.447   5.335
 5260TIP3    H215724   5.647   0.518   5.448
 5261TIP3   OH215725   5.651   3.391   6.120
 5261TIP3    H115726   5.615   3.373   6.207
 5261TIP3    H215727   5.582   3.439   6.075
 5262TIP3   OH215728   8.262   3.118   3.711
 5262TIP3    H115729   8.314   3.083   3.639
 5262TIP3    H215730   8.210   3.188   3.670
 5263TIP3   OH215731   5.357   1.675   4.544
 5263TIP3    H115732   5.390   1.756   4.584
 5263TIP3    H215733   5.340   1.617   4.618
 5264TIP3   OH215734   1.181   4.258   3.277
 5264TIP3    H115735   1.104   4.314   3.290
 5264TIP3    H215736   1.170   4.188   3.342
 5265TIP3   OH215737   6.750   6.797   4.418
 5265TIP3    H115738   6.794   6.763   4.339
 5265TIP3    H215739   6.668   6.834   4.385
 5266TIP3   OH215740   4.595   1.111   5.756
 5266TIP3    H115741   4.547   1.062   5.690
 5266TIP3    H215742   4.533   1.124   5.827
 5267TIP3   OH215743   4.694   1.730   1.263
 5267TIP3    H115744   4.767   1.742   1.202
 5267TIP3    H215745   4.720   1.778   1.341
 5268TIP3   OH215746   2.423   1.108   6.606
 5268TIP3    H115747   2.413   1.145   6.518
 5268TIP3    H215748   2.426   1.013   6.592
 5269TIP3   OH215749   0.195   0.097   6.631
 5269TIP3    H115750   0.262   0.105   6.700
 5269TIP3    H215751   0.121   0.054   6.674
 5270TIP3   OH215752   5.951   2.018   2.287
 5270TIP3    H115753   6.005   2.083   2.331
 5270TIP3    H215754   5.874   2.009   2.342
 5271TIP3   OH215755   3.319   1.467   4.741
 5271TIP3    H115756   3.401   1.483   4.789
 5271TIP3    H215757   3.250   1.493   4.802
 5272TIP3   OH215758   0.001   7.217   4.372
 5272TIP3    H115759   0.088   7.183   4.352
 5272TIP3    H215760  -0.041   7.227   4.287
 5273TIP3   OH215761   5.098   4.547   5.328
 5273TIP3    H115762   5.094   4.633   5.286
 5273TIP3    H215763   5.191   4.525   5.328
 5274TIP3   OH215764   7.171   6.738   3.704
 5274TIP3    H115765   7.250   6.768   3.659
 5274TIP3    H215766   7.203   6.673   3.767
 5275TIP3   OH215767   5.186   6.497   2.925
 5275TIP3    H115768   5.229   6.548   2.994
 5275TIP3    H215769   5.239   6.418   2.916
 5276TIP3   OH215770   7.042   4.026   0.995
 5276TIP3    H115771   7.054   4.073   0.913
 5276TIP3    H215772   7.128   3.986   1.012
 5277TIP3   OH215773   1.796   1.768   6.047
 5277TIP3    H115774   1.704   1.769   6.073
 5277TIP3    H215775   1.830   1.853   6.076
 5278TIP3   OH215776   5.871   4.132   1.929
 5278TIP3    H115777   5.816   4.133   2.007
 5278TIP3    H215778   5.881   4.039   1.909
 5279TIP3   OH215779   1.175   4.033   0.306
 5279TIP3    H115780   1.167   3.965   0.238
 5279TIP3    H215781   1.244   4.091   0.273
 5280TIP3   OH215782   5.440   3.896   1.706
 5280TIP3    H115783   5.356   3.936   1.683
 5280TIP3    H215784   5.504   3.938   1.649
 5281TIP3   OH215785   3.226   6.456   3.632
 5281TIP3    H115786   3.203   6.421   3.719
 5281TIP3    H215787   3.321   6.448   3.628
 5282TIP3   OH215788   4.359   4.256   1.356
 5282TIP3    H115789   4.425   4.325   1.353
 5282TIP3    H215790   4.275   4.303   1.356
 5283TIP3   OH215791   0.383   5.519   2.751
 5283TIP3    H115792   0.446   5.579   2.790
 5283TIP3    H215793   0.297   5.553   2.778
 5284TIP3   OH215794   1.823   1.275   5.801
 5284TIP3    H115795   1.833   1.197   5.746
 5284TIP3    H215796   1.804   1.239   5.888
 5285TIP3   OH215797   1.671   4.856   2.409
 5285TIP3    H115798   1.641   4.766   2.425
 5285TIP3    H215799   1.758   4.860   2.447
 5286TIP3   OH215800   1.853   7.256   3.557
 5286TIP3    H115801   1.927   7.279   3.613
 5286TIP3    H215802   1.854   7.323   3.488
 5287TIP3   OH215803   3.426   3.054   1.679
 5287TIP3    H115804   3.381   2.970   1.669
 5287TIP3    H215805   3.513   3.039   1.643
 5288TIP3   OH215806   0.603   0.275   3.071
 5288TIP3    H115807   0.668   0.307   3.009
 5288TIP3    H215808   0.541   0.348   3.081
 5289TIP3   OH215809   5.293   0.753   1.611
 5289TIP3    H115810   5.245   0.746   1.528
 5289TIP3    H215811   5.383   0.729   1.589
 5290TIP3   OH215812   0.933   3.254   3.836
 5290TIP3    H115813   1.001   3.305   3.879
 5290TIP3    H215814   0.972   3.167   3.824
 5291TIP3   OH215815   2.429   1.636   6.044
 5291TIP3    H115816   2.455   1.554   6.086
 5291TIP3    H215817   2.441   1.620   5.951
 5292TIP3   OH215818   4.809   0.248   4.535
 5292TIP3    H115819   4.718   0.259   4.563
 5292TIP3    H215820   4.819   0.308   4.462
 5293TIP3   OH215821   3.581   6.765   3.767
 5293TIP3    H115822   3.575   6.860   3.782
 5293TIP3    H215823   3.664   6.753   3.721
 5294TIP3   OH215824   4.998   2.556   3.706
 5294TIP3    H115825   4.925   2.522   3.654
 5294TIP3    H215826   5.074   2.548   3.648
 5295TIP3   OH215827   1.368   0.607   6.027
 5295TIP3    H115828   1.374   0.692   6.071
 5295TIP3    H215829   1.310   0.555   6.083
 5296TIP3   OH215830   0.003   0.261   5.813
 5296TIP3    H115831  -0.007   0.196   5.743
 5296TIP3    H215832   0.045   0.213   5.884
 5297TIP3   OH215833   1.791   2.764   0.087
 5297TIP3    H115834   1.715   2.815   0.116
 5297TIP3    H215835   1.788   2.770  -0.009
 5298TIP3   OH215836   6.371   5.800   4.189
 5298TIP3    H115837   6.365   5.769   4.279
 5298TIP3    H215838   6.281   5.817   4.163
 5299TIP3   OH215839   2.518   6.277   3.828
 5299TIP3    H115840   2.584   6.219   3.865
 5299TIP3    H215841   2.558   6.311   3.748
 5300TIP3   OH215842   0.117   6.594   6.601
 5300TIP3    H115843   0.026   6.593   6.572
 5300TIP3    H215844   0.112   6.608   6.695
 5301TIP3   OH215845   0.502   0.417   1.814
 5301TIP3    H115846   0.423   0.451   1.856
 5301TIP3    H215847   0.487   0.323   1.806
 5302TIP3   OH215848   5.642   0.281   0.367
 5302TIP3    H115849   5.556   0.239   0.372
 5302TIP3    H215850   5.704   0.209   0.376
 5303TIP3   OH215851   3.089   7.284   2.742
 5303TIP3    H115852   3.070   7.375   2.721
 5303TIP3    H215853   3.090   7.239   2.657
 5304TIP3   OH215854   3.043   3.745   5.507
 5304TIP3    H115855   2.961   3.712   5.545
 5304TIP3    H215856   3.052   3.696   5.425
 5305TIP3   OH215857   5.849   5.632   6.017
 5305TIP3    H115858   5.805   5.613   5.934
 5305TIP3    H215859   5.834   5.726   6.031
 5306TIP3   OH215860   1.900   0.509   0.359
 5306TIP3    H115861   1.992   0.534   0.365
 5306TIP3    H215862   1.880   0.513   0.265
 5307TIP3   OH215863   3.868   4.983   5.012
 5307TIP3    H115864   3.837   4.929   5.084
 5307TIP3    H215865   3.838   4.939   4.933
 5308TIP3   OH215866   0.234   2.447   3.080
 5308TIP3    H115867   0.212   2.354   3.072
 5308TIP3    H215868   0.325   2.448   3.107
 5309TIP3   OH215869   2.092   0.730   5.279
 5309TIP3    H115870   2.105   0.640   5.250
 5309TIP3    H215871   2.175   0.754   5.320
 5310TIP3   OH215872   7.286   2.082   3.855
 5310TIP3    H115873   7.343   2.078   3.778
 5310TIP3    H215874   7.234   2.002   3.851
 5311TIP3   OH215875   6.852   3.489   3.070
 5311TIP3    H115876   6.919   3.556   3.087
 5311TIP3    H215877   6.902   3.408   3.060
 5312TIP3   OH215878   5.118   4.287   2.859
 5312TIP3    H115879   5.101   4.336   2.940
 5312TIP3    H215880   5.035   4.291   2.811
 5313TIP3   OH215881   3.290   4.748   2.741
 5313TIP3    H115882   3.335   4.750   2.657
 5313TIP3    H215883   3.317   4.829   2.784
 5314TIP3   OH215884   6.072   5.245   0.513
 5314TIP3    H115885   6.017   5.314   0.551
 5314TIP3    H215886   6.099   5.192   0.588
 5315TIP3   OH215887   4.759   4.652   3.278
 5315TIP3    H115888   4.704   4.722   3.245
 5315TIP3    H215889   4.710   4.614   3.351
 5316TIP3   OH215890   7.170   7.442   3.034
 5316TIP3    H115891   7.138   7.507   3.096
 5316TIP3    H215892   7.259   7.422   3.064
 5317TIP3   OH215893   2.513   4.561   3.577
 5317TIP3    H115894   2.544   4.471   3.575
 5317TIP3    H215895   2.497   4.579   3.670
 5318TIP3   OH215896   5.176   0.032   0.047
 5318TIP3    H115897   5.150   0.102   0.106
 5318TIP3    H215898   5.116  -0.040   0.066
 5319TIP3   OH215899   3.030   6.358   5.646
 5319TIP3    H115900   2.977   6.282   5.667
 5319TIP3    H215901   3.119   6.332   5.668
 5320TIP3   OH215902   7.146   2.825   1.354
 5320TIP3    H115903   7.234   2.840   1.386
 5320TIP3    H215904   7.137   2.885   1.279
 5321TIP3   OH215905   1.510   0.586   6.381
 5321TIP3    H115906   1.459   0.506   6.373
 5321TIP3    H215907   1.570   0.584   6.306
 5322TIP3   OH215908   0.894   7.158   3.492
 5322TIP3    H115909   0.815   7.201   3.524
 5322TIP3    H215910   0.960   7.227   3.491
 5323TIP3   OH215911   1.426   1.380   1.657
 5323TIP3    H115912   1.513   1.366   1.693
 5323TIP3    H215913   1.396   1.461   1.698
 5324TIP3   OH215914   2.144   5.065   6.119
 5324TIP3    H115915   2.069   5.121   6.102
 5324TIP3    H215916   2.191   5.061   6.036
 5325TIP3   OH215917   5.282   1.301   1.577
 5325TIP3    H115918   5.374   1.309   1.551
 5325TIP3    H215919   5.239   1.377   1.537
 5326TIP3   OH215920   5.143   7.089   3.364
 5326TIP3    H115921   5.185   7.121   3.445
 5326TIP3    H215922   5.133   7.168   3.310
 5327TIP3   OH215923   6.025   1.695   2.055
 5327TIP3    H115924   5.965   1.671   2.126
 5327TIP3    H215925   6.014   1.626   1.991
 5328TIP3   OH215926   7.531   2.075   0.975
 5328TIP3    H115927   7.551   1.993   0.931
 5328TIP3    H215928   7.536   2.055   1.069
 5329TIP3   OH215929   0.814   6.586   3.345
 5329TIP3    H115930   0.855   6.671   3.331
 5329TIP3    H215931   0.856   6.528   3.282
 5330TIP3   OH215932   3.554   4.343   0.689
 5330TIP3    H115933   3.614   4.282   0.731
 5330TIP3    H215934   3.591   4.429   0.704
 5331TIP3   OH215935   3.643   3.792   4.516
 5331TIP3    H115936   3.613   3.720   4.460
 5331TIP3    H215937   3.644   3.755   4.604
 5332TIP3   OH215938   3.173   5.047   4.094
 5332TIP3    H115939   3.248   5.016   4.145
 5332TIP3    H215940   3.184   5.008   4.008
 5333TIP3   OH215941   3.715   2.881   5.430
 5333TIP3    H115942   3.634   2.840   5.400
 5333TIP3    H215943   3.756   2.914   5.350
 5334TIP3   OH215944   0.702   4.488   4.246
 5334TIP3    H115945   0.652   4.569   4.249
 5334TIP3    H215946   0.793   4.516   4.241
 5335TIP3   OH215947   0.188   3.384   6.409
 5335TIP3    H115948   0.131   3.445   6.456
 5335TIP3    H215949   0.270   3.433   6.397
 5336TIP3   OH215950   5.478   6.385   5.486
 5336TIP3    H115951   5.433   6.318   5.434
 5336TIP3    H215952   5.472   6.464   5.433
 5337TIP3   OH215953   7.718   5.509   2.988
 5337TIP3    H115954   7.670   5.591   2.987
 5337TIP3    H215955   7.779   5.517   3.061
 5338TIP3   OH215956   5.293   0.329   3.478
 5338TIP3    H115957   5.282   0.413   3.524
 5338TIP3    H215958   5.335   0.272   3.543
 5339TIP3   OH215959   6.959   1.639   0.923
 5339TIP3    H115960   6.901   1.575   0.964
 5339TIP3    H215961   7.009   1.588   0.858
 5340TIP3   OH215962   1.080   7.172   0.270
 5340TIP3    H115963   1.030   7.251   0.290
 5340TIP3    H215964   1.055   7.110   0.338
 5341TIP3   OH215965   1.632   1.606   3.136
 5341TIP3    H115966   1.577   1.650   3.072
 5341TIP3    H215967   1.719   1.603   3.095
 5342TIP3   OH215968   5.375   6.260   4.750
 5342TIP3    H115969   5.323   6.207   4.689
 5342TIP3    H215970   5.414   6.196   4.810
 5343TIP3   OH215971   2.379   4.593   1.897
 5343TIP3    H115972   2.303   4.650   1.908
 5343TIP3    H215973   2.451   4.641   1.939
 5344TIP3   OH215974   6.093   7.785   0.785
 5344TIP3    H115975   6.007   7.796   0.743
 5344TIP3    H215976   6.124   7.700   0.754
 5345TIP3   OH215977   2.343   7.544   6.107
 5345TIP3    H115978   2.420   7.487   6.100
 5345TIP3    H215979   2.335   7.562   6.200
 5346TIP3   OH215980   8.190   0.688   6.243
 5346TIP3    H115981   8.142   0.606   6.247
 5346TIP3    H215982   8.250   0.677   6.169
 5347TIP3   OH215983   4.940   3.826   2.075
 5347TIP3    H115984   4.957   3.920   2.064
 5347TIP3    H215985   4.893   3.819   2.158
 5348TIP3   OH215986   5.799   3.249   5.927
 5348TIP3    H115987   5.754   3.285   6.003
 5348TIP3    H215988   5.743   3.274   5.853
 5349TIP3   OH215989   6.839   2.033   0.188
 5349TIP3    H115990   6.910   1.971   0.173
 5349TIP3    H215991   6.790   2.033   0.106
 5350TIP3   OH215992   4.215   7.101   4.355
 5350TIP3    H115993   4.174   7.137   4.276
 5350TIP3    H215994   4.258   7.176   4.395
 5351TIP3   OH215995   0.691   3.034   1.727
 5351TIP3    H115996   0.697   3.055   1.820
 5351TIP3    H215997   0.626   3.094   1.692
 5352TIP3   OH215998   6.792   4.828   2.297
 5352TIP3    H115999   6.802   4.738   2.330
 5352TIP3    H216000   6.708   4.857   2.332
 5353TIP3   OH216001   4.063   3.084   2.125
 5353TIP3    H116002   4.097   3.160   2.172
 5353TIP3    H216003   4.141   3.039   2.092
 5354TIP3   OH216004   6.234   0.089   5.555
 5354TIP3    H116005   6.213   0.077   5.462
 5354TIP3    H216006   6.313   0.036   5.569
 5355TIP3   OH216007   3.534   2.383   5.370
 5355TIP3    H116008   3.526   2.346   5.282
 5355TIP3    H216009   3.499   2.316   5.429
 5356TIP3   OH216010   5.902   2.724   5.979
 5356TIP3    H116011   5.882   2.635   6.008
 5356TIP3    H216012   5.828   2.749   5.924
 5357TIP3   OH216013   3.968   6.553   6.727
 5357TIP3    H116014   3.966   6.458   6.727
 5357TIP3    H216015   3.918   6.578   6.649
 5358TIP3   OH216016   2.114   5.366   1.605
 5358TIP3    H116017   2.203   5.394   1.627
 5358TIP3    H216018   2.126   5.288   1.550
 5359TIP3   OH216019   6.845   1.633   4.241
 5359TIP3    H116020   6.887   1.704   4.289
 5359TIP3    H216021   6.763   1.618   4.288
 5360TIP3   OH216022   6.841   7.566   2.846
 5360TIP3    H116023   6.761   7.602   2.807
 5360TIP3    H216024   6.811   7.527   2.928
 5361TIP3   OH216025   5.706   3.421   1.989
 5361TIP3    H116026   5.793   3.460   1.974
 5361TIP3    H216027   5.645   3.488   1.958
 5362TIP3   OH216028   6.767   2.332   6.650
 5362TIP3    H116029   6.699   2.287   6.699
 5362TIP3    H216030   6.742   2.424   6.653
 5363TIP3   OH216031   5.189   2.709   3.318
 5363TIP3    H116032   5.269   2.682   3.273
 5363TIP3    H216033   5.121   2.703   3.252
 5364TIP3   OH216034   1.934   7.053   6.258
 5364TIP3    H116035   1.896   6.994   6.323
 5364TIP3    H216036   1.935   7.138   6.300
 5365TIP3   OH216037   2.136   3.726   6.363
 5365TIP3    H116038   2.066   3.662   6.343
 5365TIP3    H216039   2.167   3.701   6.450
 5366TIP3   OH216040   6.225   5.630   0.622
 5366TIP3    H116041   6.181   5.701   0.575
 5366TIP3    H216042   6.287   5.595   0.558
 5367TIP3   OH216043   0.850   5.691   2.237
 5367TIP3    H116044   0.837   5.746   2.160
 5367TIP3    H216045   0.831   5.602   2.206
 5368TIP3   OH216046   0.041   0.884   6.342
 5368TIP3    H116047   0.108   0.921   6.285
 5368TIP3    H216048  -0.007   0.823   6.286
 5369TIP3   OH216049   4.824   1.212   6.412
 5369TIP3    H116050   4.897   1.218   6.473
 5369TIP3    H216051   4.807   1.118   6.404
 5370TIP3   OH216052   0.834   2.807   0.265
 5370TIP3    H116053   0.751   2.850   0.248
 5370TIP3    H216054   0.851   2.821   0.358
 5371TIP3   OH216055   4.999   4.452   3.654
 5371TIP3    H116056   5.030   4.362   3.664
 5371TIP3    H216057   4.910   4.443   3.619
 5372TIP3   OH216058   7.133   4.835   0.568
 5372TIP3    H116059   7.194   4.903   0.596
 5372TIP3    H216060   7.095   4.802   0.650
 5373TIP3   OH216061   3.399   2.838   5.557
 5373TIP3    H116062   3.425   2.924   5.589
 5373TIP3    H216063   3.331   2.856   5.492
 5374TIP3   OH216064   1.476   2.814   1.489
 5374TIP3    H116065   1.510   2.833   1.577
 5374TIP3    H216066   1.516   2.730   1.466
 5375TIP3   OH216067   2.863   7.489   4.121
 5375TIP3    H116068   2.783   7.525   4.084
 5375TIP3    H216069   2.931   7.552   4.098
 5376TIP3   OH216070   2.916   2.838   4.726
 5376TIP3    H116071   2.903   2.784   4.805
 5376TIP3    H216072   2.998   2.805   4.688
 5377TIP3   OH216073   1.386   3.677   4.920
 5377TIP3    H116074   1.464   3.729   4.943
 5377TIP3    H216075   1.313   3.728   4.954
 5378TIP3   OH216076   5.976   4.376   1.807
 5378TIP3    H116077   5.939   4.358   1.894
 5378TIP3    H216078   5.920   4.327   1.747
 5379TIP3   OH216079   2.061   4.526   2.516
 5379TIP3    H116080   2.101   4.569   2.592
 5379TIP3    H216081   2.064   4.591   2.447
 5380TIP3   OH216082   6.641   5.541   3.237
 5380TIP3    H116083   6.641   5.528   3.142
 5380TIP3    H216084   6.633   5.453   3.273
 5381TIP3   OH216085   2.988   3.194   0.233
 5381TIP3    H116086   2.975   3.213   0.141
 5381TIP3    H216087   3.061   3.252   0.259
 5382TIP3   OH216088   0.977   6.788   0.703
 5382TIP3    H116089   0.883   6.778   0.687
 5382TIP3    H216090   0.985   6.873   0.746
 5383TIP3   OH216091   4.273   6.770   0.528
 5383TIP3    H116092   4.179   6.752   0.532
 5383TIP3    H216093   4.280   6.865   0.539
 5384TIP3   OH216094   5.330   3.912   6.382
 5384TIP3    H116095   5.322   3.914   6.286
 5384TIP3    H216096   5.421   3.935   6.399
 5385TIP3   OH216097   3.585   2.388   3.285
 5385TIP3    H116098   3.611   2.414   3.196
 5385TIP3    H216099   3.663   2.400   3.338
 5386TIP3   OH216100   8.178   2.360   3.897
 5386TIP3    H116101   8.126   2.439   3.876
 5386TIP3    H216102   8.130   2.319   3.969
 5387TIP3   OH216103   3.766   0.403   1.824
 5387TIP3    H116104   3.728   0.402   1.736
 5387TIP3    H216105   3.848   0.452   1.814
 5388TIP3   OH216106   8.228   1.569   5.274
 5388TIP3    H116107   8.227   1.665   5.276
 5388TIP3    H216108   8.315   1.547   5.240
 5389TIP3   OH216109   7.059   2.659   1.993
 5389TIP3    H116110   7.070   2.631   1.902
 5389TIP3    H216111   7.122   2.731   2.004
 5390TIP3   OH216112   4.814   7.801   5.805
 5390TIP3    H116113   4.830   7.771   5.894
 5390TIP3    H216114   4.823   7.722   5.751
 5391TIP3   OH216115   7.015   5.273   5.537
 5391TIP3    H116116   6.926   5.268   5.571
 5391TIP3    H216117   7.040   5.365   5.546
 5392TIP3   OH216118   4.766   4.253   3.379
 5392TIP3    H116119   4.723   4.266   3.295
 5392TIP3    H216120   4.734   4.323   3.435
 5393TIP3   OH216121   3.236   2.131   0.165
 5393TIP3    H116122   3.190   2.092   0.240
 5393TIP3    H216123   3.227   2.225   0.178
 5394TIP3   OH216124   4.408   6.362   3.455
 5394TIP3    H116125   4.314   6.369   3.468
 5394TIP3    H216126   4.437   6.300   3.523
 5395TIP3   OH216127   6.150   0.490   5.415
 5395TIP3    H116128   6.060   0.461   5.430
 5395TIP3    H216129   6.162   0.563   5.476
 5396TIP3   OH216130   1.824   5.240   4.686
 5396TIP3    H116131   1.887   5.233   4.615
 5396TIP3    H216132   1.839   5.162   4.740
 5397TIP3   OH216133   1.344   1.622   3.097
 5397TIP3    H116134   1.349   1.717   3.109
 5397TIP3    H216135   1.258   1.608   3.056
 5398TIP3   OH216136   2.184   7.658   4.768
 5398TIP3    H116137   2.273   7.677   4.740
 5398TIP3    H216138   2.164   7.725   4.833
 5399TIP3   OH216139   7.986   4.757   5.192
 5399TIP3    H116140   7.945   4.713   5.118
 5399TIP3    H216141   7.916   4.767   5.256
 5400TIP3   OH216142   1.341   0.970   3.301
 5400TIP3    H116143   1.316   1.054   3.263
 5400TIP3    H216144   1.286   0.906   3.256
 5401TIP3   OH216145   3.901   3.134   6.583
 5401TIP3    H116146   3.918   3.069   6.651
 5401TIP3    H216147   3.893   3.082   6.502
 5402TIP3   OH216148   1.150   6.501   5.161
 5402TIP3    H116149   1.120   6.411   5.148
 5402TIP3    H216150   1.185   6.526   5.075
 5403TIP3   OH216151   7.962   4.278   3.692
 5403TIP3    H116152   7.904   4.297   3.766
 5403TIP3    H216153   7.907   4.292   3.615
 5404TIP3   OH216154   5.828   2.112   3.481
 5404TIP3    H116155   5.766   2.077   3.417
 5404TIP3    H216156   5.784   2.189   3.518
 5405TIP3   OH216157   0.628   1.695   3.563
 5405TIP3    H116158   0.627   1.688   3.658
 5405TIP3    H216159   0.572   1.624   3.533
 5406TIP3   OH216160   2.114   3.825   1.063
 5406TIP3    H116161   2.119   3.736   1.097
 5406TIP3    H216162   2.047   3.822   0.995
 5407TIP3   OH216163   5.675   2.510   0.955
 5407TIP3    H116164   5.752   2.536   0.905
 5407TIP3    H216165   5.708   2.499   1.045
 5408TIP3   OH216166   5.934   4.471   4.538
 5408TIP3    H116167   5.864   4.449   4.600
 5408TIP3    H216168   6.007   4.415   4.564
 5409TIP3   OH216169   5.998   0.096   0.654
 5409TIP3    H116170   6.082   0.103   0.608
 5409TIP3    H216171   6.000   0.166   0.719
 5410TIP3   OH216172   4.447   2.690   3.264
 5410TIP3    H116173   4.351   2.690   3.273
 5410TIP3    H216174   4.475   2.769   3.310
 5411TIP3   OH216175   0.403   3.582   4.259
 5411TIP3    H116176   0.438   3.659   4.215
 5411TIP3    H216177   0.399   3.607   4.352
 5412TIP3   OH216178   2.161   5.660   6.275
 5412TIP3    H116179   2.078   5.701   6.252
 5412TIP3    H216180   2.197   5.717   6.344
 5413TIP3   OH216181   4.003   4.186   6.447
 5413TIP3    H116182   3.978   4.215   6.359
 5413TIP3    H216183   3.922   4.155   6.487
 5414TIP3   OH216184   4.535   3.835   4.356
 5414TIP3    H116185   4.548   3.781   4.434
 5414TIP3    H216186   4.588   3.913   4.372
 5415TIP3   OH216187   8.054   6.496   0.488
 5415TIP3    H116188   8.087   6.564   0.547
 5415TIP3    H216189   7.988   6.450   0.541
 5416TIP3   OH216190   6.396   0.352   1.936
 5416TIP3    H116191   6.315   0.402   1.940
 5416TIP3    H216192   6.435   0.361   2.023
 5417TIP3   OH216193   7.512   4.664   3.726
 5417TIP3    H116194   7.581   4.716   3.766
 5417TIP3    H216195   7.526   4.674   3.631
 5418TIP3   OH216196   2.604   2.550   1.045
 5418TIP3    H116197   2.640   2.462   1.051
 5418TIP3    H216198   2.621   2.577   0.955
 5419TIP3   OH216199   0.636   6.376   5.327
 5419TIP3    H116200   0.646   6.293   5.282
 5419TIP3    H216201   0.652   6.356   5.419
 5420TIP3   OH216202   0.850   1.611   1.608
 5420TIP3    H116203   0.778   1.632   1.548
 5420TIP3    H216204   0.832   1.522   1.636
 5421TIP3   OH216205   3.102   7.727   2.442
 5421TIP3    H116206   3.128   7.753   2.531
 5421TIP3    H216207   3.069   7.638   2.452
 5422TIP3   OH216208   4.215   2.865   1.022
 5422TIP3    H116209   4.269   2.797   1.063
 5422TIP3    H216210   4.235   2.944   1.073
 5423TIP3   OH216211   0.741   4.461   2.239
 5423TIP3    H116212   0.760   4.549   2.206
 5423TIP3    H216213   0.743   4.470   2.334
 5424TIP3   OH216214   5.149   1.216   5.574
 5424TIP3    H116215   5.168   1.264   5.494
 5424TIP3    H216216   5.145   1.125   5.547
 5425TIP3   OH216217   1.849   5.539   4.867
 5425TIP3    H116218   1.938   5.560   4.840
 5425TIP3    H216219   1.829   5.603   4.935
 5426TIP3   OH216220   7.713   1.950   0.776
 5426TIP3    H116221   7.759   1.943   0.860
 5426TIP3    H216222   7.645   1.882   0.780
 5427TIP3   OH216223   4.259   3.933   1.719
 5427TIP3    H116224   4.211   4.009   1.753
 5427TIP3    H216225   4.309   3.969   1.645
 5428TIP3   OH216226   4.942   6.202   1.435
 5428TIP3    H116227   4.918   6.294   1.425
 5428TIP3    H216228   4.888   6.171   1.508
 5429TIP3   OH216229   4.376   6.316   0.220
 5429TIP3    H116230   4.455   6.370   0.219
 5429TIP3    H216231   4.309   6.373   0.258
 5430TIP3   OH216232   0.802   3.692   1.448
 5430TIP3    H116233   0.707   3.683   1.448
 5430TIP3    H216234   0.819   3.763   1.386
 5431TIP3   OH216235   1.086   5.965   5.952
 5431TIP3    H116236   1.179   5.979   5.967
 5431TIP3    H216237   1.044   6.042   5.990
 5432TIP3   OH216238   1.800   6.353   1.252
 5432TIP3    H116239   1.751   6.285   1.298
 5432TIP3    H216240   1.878   6.310   1.218
 5433TIP3   OH216241   2.763   2.480   2.232
 5433TIP3    H116242   2.736   2.416   2.166
 5433TIP3    H216243   2.713   2.559   2.212
 5434TIP3   OH216244   5.205   5.499   3.436
 5434TIP3    H116245   5.286   5.502   3.385
 5434TIP3    H216246   5.233   5.510   3.527
 5435TIP3   OH216247   0.144   4.407   6.492
 5435TIP3    H116248   0.098   4.409   6.408
 5435TIP3    H216249   0.074   4.403   6.557
 5436TIP3   OH216250   2.055   1.616   4.068
 5436TIP3    H116251   2.073   1.692   4.013
 5436TIP3    H216252   1.970   1.584   4.038
 5437TIP3   OH216253   6.624   2.606   3.830
 5437TIP3    H116254   6.662   2.590   3.917
 5437TIP3    H216255   6.637   2.699   3.815
 5438TIP3   OH216256   0.565   7.038   3.348
 5438TIP3    H116257   0.527   7.103   3.407
 5438TIP3    H216258   0.492   6.981   3.325
 5439TIP3   OH216259   3.169   3.369   0.337
 5439TIP3    H116260   3.176   3.464   0.349
 5439TIP3    H216261   3.249   3.334   0.373
 5440TIP3   OH216262   1.682   5.805   4.711
 5440TIP3    H116263   1.663   5.848   4.628
 5440TIP3    H216264   1.713   5.876   4.767
 5441TIP3   OH216265   6.278   6.733   6.603
 5441TIP3    H116266   6.342   6.679   6.651
 5441TIP3    H216267   6.207   6.673   6.582
 5442TIP3   OH216268   4.130   2.120   3.616
 5442TIP3    H116269   4.212   2.149   3.576
 5442TIP3    H216270   4.151   2.034   3.653
 5443TIP3   OH216271   2.147   5.832   4.201
 5443TIP3    H116272   2.195   5.829   4.283
 5443TIP3    H216273   2.206   5.875   4.139
 5444TIP3   OH216274   7.777   2.008   4.303
 5444TIP3    H116275   7.837   2.058   4.249
 5444TIP3    H216276   7.833   1.951   4.356
 5445TIP3   OH216277   5.914   5.723   3.696
 5445TIP3    H116278   5.963   5.652   3.737
 5445TIP3    H216279   5.929   5.798   3.753
 5446TIP3   OH216280   2.482   6.527   5.082
 5446TIP3    H116281   2.400   6.482   5.106
 5446TIP3    H216282   2.551   6.470   5.117
 5447TIP3   OH216283   2.965   3.498   2.559
 5447TIP3    H116284   2.964   3.436   2.632
 5447TIP3    H216285   3.046   3.478   2.511
 5448TIP3   OH216286   7.753   0.727   1.651
 5448TIP3    H116287   7.744   0.664   1.722
 5448TIP3    H216288   7.805   0.681   1.585
 5449TIP3   OH216289   3.364   1.411   3.314
 5449TIP3    H116290   3.386   1.491   3.361
 5449TIP3    H216291   3.272   1.421   3.289
 5450TIP3   OH216292   1.304   0.847   2.011
 5450TIP3    H116293   1.312   0.899   1.932
 5450TIP3    H216294   1.384   0.793   2.012
 5451TIP3   OH216295   0.044   7.001   4.576
 5451TIP3    H116296  -0.013   6.991   4.500
 5451TIP3    H216297   0.103   7.074   4.553
 5452TIP3   OH216298   5.827   0.583   1.477
 5452TIP3    H116299   5.852   0.497   1.443
 5452TIP3    H216300   5.751   0.565   1.533
 5453TIP3   OH216301   7.290   1.941   0.218
 5453TIP3    H116302   7.361   1.920   0.278
 5453TIP3    H216303   7.299   2.034   0.201
 5454TIP3   OH216304   1.361   6.607   1.910
 5454TIP3    H116305   1.436   6.612   1.852
 5454TIP3    H216306   1.324   6.521   1.895
 5455TIP3   OH216307   1.434   4.110   5.376
 5455TIP3    H116308   1.351   4.102   5.329
 5455TIP3    H216309   1.434   4.038   5.438
 5456TIP3   OH216310   6.538   7.369   2.688
 5456TIP3    H116311   6.560   7.333   2.774
 5456TIP3    H216312   6.580   7.310   2.626
 5457TIP3   OH216313   1.260   1.356   5.025
 5457TIP3    H116314   1.325   1.301   5.068
 5457TIP3    H216315   1.259   1.327   4.934
 5458TIP3   OH216316   0.552   0.701   1.731
 5458TIP3    H116317   0.542   0.611   1.763
 5458TIP3    H216318   0.525   0.697   1.639
 5459TIP3   OH216319   5.474   0.562   4.972
 5459TIP3    H116320   5.539   0.492   4.979
 5459TIP3    H216321   5.467   0.579   4.878
 5460TIP3   OH216322   5.124   1.866   4.856
 5460TIP3    H116323   5.216   1.881   4.833
 5460TIP3    H216324   5.076   1.882   4.775
 5461TIP3   OH216325   8.006   7.438   1.041
 5461TIP3    H116326   7.997   7.464   0.950
 5461TIP3    H216327   8.086   7.386   1.044
 5462TIP3   OH216328   7.791   5.421   5.815
 5462TIP3    H116329   7.810   5.332   5.786
 5462TIP3    H216330   7.745   5.461   5.741
 5463TIP3   OH216331   5.024   5.290   5.056
 5463TIP3    H116332   5.076   5.318   5.131
 5463TIP3    H216333   5.087   5.247   4.998
 5464TIP3   OH216334   0.385   0.291   0.739
 5464TIP3    H116335   0.444   0.262   0.809
 5464TIP3    H216336   0.353   0.210   0.699
 5465TIP3   OH216337   4.378   2.029   6.234
 5465TIP3    H116338   4.361   2.119   6.262
 5465TIP3    H216339   4.471   2.028   6.211
 5466TIP3   OH216340   0.211   7.753   5.195
 5466TIP3    H116341   0.193   7.835   5.239
 5466TIP3    H216342   0.136   7.697   5.215
 5467TIP3   OH216343   1.610   3.863   1.022
 5467TIP3    H116344   1.625   3.954   0.999
 5467TIP3    H216345   1.528   3.840   0.979
 5468TIP3   OH216346   4.734   5.790   5.513
 5468TIP3    H116347   4.776   5.817   5.595
 5468TIP3    H216348   4.793   5.822   5.445
 5469TIP3   OH216349   0.449   1.070   1.892
 5469TIP3    H116350   0.496   1.001   1.938
 5469TIP3    H216351   0.435   1.138   1.959
 5470TIP3   OH216352   5.994   2.724   5.563
 5470TIP3    H116353   6.076   2.759   5.599
 5470TIP3    H216354   5.965   2.791   5.501
 5471TIP3   OH216355   1.779   4.558   1.377
 5471TIP3    H116356   1.852   4.613   1.404
 5471TIP3    H216357   1.770   4.494   1.448
 5472TIP3   OH216358   6.011   0.910   6.467
 5472TIP3    H116359   5.940   0.971   6.449
 5472TIP3    H216360   5.976   0.824   6.442
 5473TIP3   OH216361   6.182   7.561   5.678
 5473TIP3    H116362   6.186   7.525   5.766
 5473TIP3    H216363   6.091   7.551   5.652
 5474TIP3   OH216364   5.123   2.608   1.221
 5474TIP3    H116365   5.204   2.593   1.171
 5474TIP3    H216366   5.106   2.701   1.210
 5475TIP3   OH216367   4.527   0.883   0.564
 5475TIP3    H116368   4.485   0.911   0.645
 5475TIP3    H216369   4.456   0.885   0.499
 5476TIP3   OH216370   0.228   2.910   2.697
 5476TIP3    H116371   0.166   2.837   2.692
 5476TIP3    H216372   0.267   2.904   2.784
 5477TIP3   OH216373   4.164   7.610   5.076
 5477TIP3    H116374   4.107   7.533   5.073
 5477TIP3    H216375   4.106   7.681   5.101
 5478TIP3   OH216376   0.924   4.659   3.316
 5478TIP3    H116377   0.919   4.727   3.249
 5478TIP3    H216378   1.004   4.680   3.365
 5479TIP3   OH216379   2.715   3.726   1.461
 5479TIP3    H116380   2.703   3.753   1.370
 5479TIP3    H216381   2.683   3.799   1.513
 5480TIP3   OH216382   0.853   1.416   2.973
 5480TIP3    H116383   0.794   1.483   2.938
 5480TIP3    H216384   0.848   1.427   3.068
 5481TIP3   OH216385   5.800   4.748   2.367
 5481TIP3    H116386   5.828   4.678   2.425
 5481TIP3    H216387   5.717   4.718   2.330
 5482TIP3   OH216388   4.216   5.986   6.164
 5482TIP3    H116389   4.294   5.949   6.205
 5482TIP3    H216390   4.187   5.919   6.102
 5483TIP3   OH216391   0.366   4.193   5.919
 5483TIP3    H116392   0.428   4.264   5.939
 5483TIP3    H216393   0.418   4.113   5.925
 5484TIP3   OH216394   4.552   7.559   2.536
 5484TIP3    H116395   4.580   7.650   2.541
 5484TIP3    H216396   4.459   7.564   2.514
 5485TIP3   OH216397   7.466   0.927   0.595
 5485TIP3    H116398   7.443   0.889   0.679
 5485TIP3    H216399   7.562   0.921   0.591
 5486TIP3   OH216400   6.699   4.129   1.946
 5486TIP3    H116401   6.765   4.198   1.934
 5486TIP3    H216402   6.749   4.051   1.969
 5487TIP3   OH216403   2.241   2.602   1.051
 5487TIP3    H116404   2.327   2.615   1.012
 5487TIP3    H216405   2.218   2.512   1.028
 5488TIP3   OH216406   6.857   1.151   6.186
 5488TIP3    H116407   6.889   1.241   6.188
 5488TIP3    H216408   6.774   1.153   6.235
 5489TIP3   OH216409   2.469   3.937   4.523
 5489TIP3    H116410   2.449   3.845   4.543
 5489TIP3    H216411   2.559   3.935   4.489
 5490TIP3   OH216412   4.613   4.519   3.466
 5490TIP3    H116413   4.527   4.492   3.434
 5490TIP3    H216414   4.603   4.527   3.560
 5491TIP3   OH216415   7.504   0.743   3.970
 5491TIP3    H116416   7.559   0.800   3.916
 5491TIP3    H216417   7.426   0.795   3.988
 5492TIP3   OH216418   6.738   7.718   4.339
 5492TIP3    H116419   6.782   7.676   4.265
 5492TIP3    H216420   6.671   7.774   4.299
 5493TIP3   OH216421   0.941   1.697   3.107
 5493TIP3    H116422   0.872   1.635   3.130
 5493TIP3    H216423   1.003   1.691   3.180
 5494TIP3   OH216424   7.679   2.252   1.429
 5494TIP3    H116425   7.749   2.317   1.420
 5494TIP3    H216426   7.687   2.223   1.520
 5495TIP3   OH216427   7.160   3.682   4.207
 5495TIP3    H116428   7.078   3.725   4.232
 5495TIP3    H216429   7.169   3.609   4.269
 5496TIP3   OH216430   8.186   5.080   6.037
 5496TIP3    H116431   8.119   5.041   5.981
 5496TIP3    H216432   8.256   5.015   6.039
 5497TIP3   OH216433   4.147   1.440   4.414
 5497TIP3    H116434   4.156   1.524   4.370
 5497TIP3    H216435   4.056   1.438   4.443
 5498TIP3   OH216436   6.171   1.928   1.054
 5498TIP3    H116437   6.087   1.897   1.018
 5498TIP3    H216438   6.222   1.954   0.978
 5499TIP3   OH216439   1.163   4.265   5.923
 5499TIP3    H116440   1.094   4.324   5.891
 5499TIP3    H216441   1.185   4.211   5.847
 5500TIP3   OH216442   4.940   4.337   5.324
 5500TIP3    H116443   4.927   4.313   5.233
 5500TIP3    H216444   5.008   4.404   5.322
 5501TIP3   OH216445   6.673   2.947   0.809
 5501TIP3    H116446   6.585   2.933   0.773
 5501TIP3    H216447   6.724   2.873   0.777
 5502TIP3   OH216448   7.015   1.408   4.162
 5502TIP3    H116449   6.957   1.468   4.209
 5502TIP3    H216450   6.974   1.322   4.170
 5503TIP3   OH216451   4.779   2.688   4.904
 5503TIP3    H116452   4.711   2.628   4.934
 5503TIP3    H216453   4.824   2.640   4.834
 5504TIP3   OH216454   7.614   5.772   3.967
 5504TIP3    H116455   7.525   5.755   3.935
 5504TIP3    H216456   7.627   5.866   3.953
 5505TIP3   OH216457   6.457  -0.004   0.954
 5505TIP3    H116458   6.518   0.007   1.027
 5505TIP3    H216459   6.426  -0.094   0.962
 5506TIP3   OH216460   4.827   3.332   3.168
 5506TIP3    H116461   4.866   3.266   3.225
 5506TIP3    H216462   4.887   3.406   3.173
 5507TIP3   OH216463   3.507   7.632   2.604
 5507TIP3    H116464   3.585   7.687   2.592
 5507TIP3    H216465   3.441   7.692   2.638
 5508TIP3   OH216466   2.782   5.758   1.719
 5508TIP3    H116467   2.842   5.791   1.653
 5508TIP3    H216468   2.820   5.675   1.747
 5509TIP3   OH216469   6.135   2.129   5.255
 5509TIP3    H116470   6.219   2.087   5.274
 5509TIP3    H216471   6.083   2.060   5.214
 5510TIP3   OH216472   1.186   3.040   3.353
 5510TIP3    H116473   1.230   2.987   3.419
 5510TIP3    H216474   1.146   2.977   3.293
 5511TIP3   OH216475   0.388   4.168   5.331
 5511TIP3    H116476   0.368   4.237   5.268
 5511TIP3    H216477   0.397   4.213   5.415
 5512TIP3   OH216478   7.956   7.206   5.418
 5512TIP3    H116479   7.863   7.217   5.402
 5512TIP3    H216480   7.974   7.261   5.494
 5513TIP3   OH216481   1.589   0.258   0.463
 5513TIP3    H116482   1.611   0.233   0.553
 5513TIP3    H216483   1.531   0.333   0.473
 5514TIP3   OH216484   1.850   0.846   5.436
 5514TIP3    H116485   1.785   0.857   5.367
 5514TIP3    H216486   1.908   0.777   5.404
 5515TIP3   OH216487   5.635   6.913   5.402
 5515TIP3    H116488   5.692   6.986   5.379
 5515TIP3    H216489   5.586   6.944   5.478
 5516TIP3   OH216490   2.771   6.955   6.179
 5516TIP3    H116491   2.791   7.022   6.114
 5516TIP3    H216492   2.704   6.900   6.137
 5517TIP3   OH216493   1.580   5.608   3.283
 5517TIP3    H116494   1.524   5.531   3.285
 5517TIP3    H216495   1.539   5.665   3.217
 5518TIP3   OH216496   0.975   3.902   6.732
 5518TIP3    H116497   0.942   3.893   6.643
 5518TIP3    H216498   0.905   3.949   6.778
 5519TIP3   OH216499   6.519   2.655   5.673
 5519TIP3    H116500   6.608   2.680   5.648
 5519TIP3    H216501   6.488   2.726   5.729
 5520TIP3   OH216502   2.892   2.334   3.830
 5520TIP3    H116503   2.827   2.403   3.843
 5520TIP3    H216504   2.847   2.253   3.852
 5521TIP3   OH216505   5.530   6.698   3.145
 5521TIP3    H116506   5.613   6.671   3.185
 5521TIP3    H216507   5.553   6.716   3.053
 5522TIP3   OH216508   5.606   6.671   0.044
 5522TIP3    H116509   5.614   6.707   0.133
 5522TIP3    H216510   5.516   6.640   0.039
 5523TIP3   OH216511   4.737   4.933   1.537
 5523TIP3    H116512   4.831   4.931   1.550
 5523TIP3    H216513   4.702   4.971   1.618
 5524TIP3   OH216514   4.900   0.734   5.451
 5524TIP3    H116515   4.972   0.772   5.400
 5524TIP3    H216516   4.854   0.810   5.487
 5525TIP3   OH216517   6.814   5.398   2.452
 5525TIP3    H116518   6.841   5.383   2.543
 5525TIP3    H216519   6.744   5.333   2.437
 5526TIP3   OH216520   2.717   1.784   4.863
 5526TIP3    H116521   2.743   1.702   4.821
 5526TIP3    H216522   2.762   1.852   4.813
 5527TIP3   OH216523   2.371   4.234   6.183
 5527TIP3    H116524   2.390   4.252   6.275
 5527TIP3    H216525   2.296   4.290   6.163
 5528TIP3   OH216526   4.604   3.961   5.118
 5528TIP3    H116527   4.622   3.907   5.041
 5528TIP3    H216528   4.678   3.944   5.177
 5529TIP3   OH216529   3.723   6.271   6.051
 5529TIP3    H116530   3.675   6.222   6.117
 5529TIP3    H216531   3.762   6.344   6.100
 5530TIP3   OH216532   2.235   1.437   1.761
 5530TIP3    H116533   2.307   1.378   1.740
 5530TIP3    H216534   2.162   1.380   1.782
 5531TIP3   OH216535   1.690   5.757   5.773
 5531TIP3    H116536   1.758   5.799   5.720
 5531TIP3    H216537   1.684   5.668   5.739
 5532TIP3   OH216538   0.939   0.902   5.006
 5532TIP3    H116539   0.863   0.949   5.039
 5532TIP3    H216540   0.915   0.876   4.917
 5533TIP3   OH216541   4.563   2.349   1.647
 5533TIP3    H116542   4.545   2.374   1.557
 5533TIP3    H216543   4.559   2.432   1.696
 5534TIP3   OH216544   0.933   7.365   6.030
 5534TIP3    H116545   0.923   7.432   6.098
 5534TIP3    H216546   1.011   7.316   6.056
 5535TIP3   OH216547   6.533   4.836   2.423
 5535TIP3    H116548   6.579   4.818   2.506
 5535TIP3    H216549   6.463   4.770   2.421
 5536TIP3   OH216550   2.223   6.012   6.040
 5536TIP3    H116551   2.316   6.007   6.063
 5536TIP3    H216552   2.221   6.061   5.958
 5537TIP3   OH216553   6.136   4.039   3.358
 5537TIP3    H116554   6.135   3.973   3.427
 5537TIP3    H216555   6.052   4.085   3.367
 5538TIP3   OH216556   5.493   6.256   1.047
 5538TIP3    H116557   5.472   6.175   1.093
 5538TIP3    H216558   5.480   6.325   1.112
 5539TIP3   OH216559   8.134   4.773   4.815
 5539TIP3    H116560   8.073   4.753   4.744
 5539TIP3    H216561   8.149   4.868   4.808
 5540TIP3   OH216562   5.281   3.199   5.436
 5540TIP3    H116563   5.259   3.115   5.397
 5540TIP3    H216564   5.363   3.225   5.394
 5541TIP3   OH216565   4.137   4.801   6.498
 5541TIP3    H116566   4.041   4.797   6.497
 5541TIP3    H216567   4.158   4.893   6.485
 5542TIP3   OH216568   1.823   3.077   2.910
 5542TIP3    H116569   1.838   3.010   2.977
 5542TIP3    H216570   1.834   3.160   2.957
 5543TIP3   OH216571   1.655   5.505   6.471
 5543TIP3    H116572   1.656   5.443   6.544
 5543TIP3    H216573   1.589   5.470   6.411
 5544TIP3   OH216574   6.973   1.614   0.384
 5544TIP3    H116575   6.933   1.614   0.296
 5544TIP3    H216576   6.985   1.706   0.405
 5545TIP3   OH216577   3.398   7.380   6.500
 5545TIP3    H116578   3.307   7.370   6.470
 5545TIP3    H216579   3.400   7.334   6.584
 5546TIP3   OH216580   5.270   0.248   2.732
 5546TIP3    H116581   5.272   0.343   2.723
 5546TIP3    H216582   5.360   0.220   2.715
 5547TIP3   OH216583   2.501   4.605   5.668
 5547TIP3    H116584   2.528   4.676   5.610
 5547TIP3    H216585   2.579   4.585   5.720
 5548TIP3   OH216586   4.727   0.418   0.830
 5548TIP3    H116587   4.816   0.444   0.804
 5548TIP3    H216588   4.727   0.425   0.926
 5549TIP3   OH216589   0.856   0.248   0.333
 5549TIP3    H116590   0.770   0.260   0.373
 5549TIP3    H216591   0.915   0.297   0.389
 5550TIP3   OH216592   2.606   3.131   5.434
 5550TIP3    H116593   2.540   3.187   5.473
 5550TIP3    H216594   2.559   3.080   5.368
 5551TIP3   OH216595   2.167   4.827   6.548
 5551TIP3    H116596   2.165   4.822   6.452
 5551TIP3    H216597   2.096   4.888   6.570
 5552TIP3   OH216598   6.559   7.779   5.674
 5552TIP3    H116599   6.550   7.700   5.620
 5552TIP3    H216600   6.519   7.754   5.758
 5553TIP3   OH216601   7.008   5.994   3.062
 5553TIP3    H116602   7.020   5.958   2.974
 5553TIP3    H216603   7.080   5.957   3.113
 5554TIP3   OH216604   0.740   7.100   6.060
 5554TIP3    H116605   0.724   7.174   6.118
 5554TIP3    H216606   0.834   7.082   6.070
 5555TIP3   OH216607   3.374   5.108   3.419
 5555TIP3    H116608   3.368   5.123   3.324
 5555TIP3    H216609   3.283   5.107   3.448
 5556TIP3   OH216610   0.441   6.724   5.865
 5556TIP3    H116611   0.530   6.723   5.900
 5556TIP3    H216612   0.413   6.632   5.870
 5557TIP3   OH216613   5.159   7.709   3.272
 5557TIP3    H116614   5.112   7.707   3.355
 5557TIP3    H216615   5.099   7.755   3.212
 5558TIP3   OH216616   1.175   6.945   3.693
 5558TIP3    H116617   1.149   7.023   3.741
 5558TIP3    H216618   1.218   6.978   3.615
 5559TIP3   OH216619   6.927   2.883   2.554
 5559TIP3    H116620   6.909   2.843   2.469
 5559TIP3    H216621   6.901   2.975   2.543
 5560TIP3   OH216622   0.273   0.209   4.695
 5560TIP3    H116623   0.319   0.263   4.759
 5560TIP3    H216624   0.319   0.225   4.613
 5561TIP3   OH216625   7.130   2.207   4.372
 5561TIP3    H116626   7.075   2.139   4.334
 5561TIP3    H216627   7.174   2.247   4.297
 5562TIP3   OH216628   1.677   6.263   3.218
 5562TIP3    H116629   1.691   6.279   3.311
 5562TIP3    H216630   1.586   6.292   3.202
 5563TIP3   OH216631   3.061   1.718   5.744
 5563TIP3    H116632   3.049   1.730   5.650
 5563TIP3    H216633   2.972   1.719   5.780
 5564TIP3   OH216634   4.270   3.428   3.326
 5564TIP3    H116635   4.196   3.458   3.273
 5564TIP3    H216636   4.312   3.360   3.272
 5565TIP3   OH216637   3.562   4.241   6.728
 5565TIP3    H116638   3.568   4.315   6.788
 5565TIP3    H216639   3.598   4.167   6.777
 5566TIP3   OH216640   0.726   2.608   5.164
 5566TIP3    H116641   0.773   2.651   5.092
 5566TIP3    H216642   0.787   2.541   5.196
 5567TIP3   OH216643   5.420   0.078   1.898
 5567TIP3    H116644   5.443   0.047   1.811
 5567TIP3    H216645   5.494   0.053   1.953
 5568TIP3   OH216646   2.777   2.919   1.281
 5568TIP3    H116647   2.777   3.013   1.260
 5568TIP3    H216648   2.870   2.896   1.286
 5569TIP3   OH216649   3.194   4.184   3.709
 5569TIP3    H116650   3.160   4.127   3.778
 5569TIP3    H216651   3.136   4.170   3.635
 5570TIP3   OH216652   8.122   5.788   6.252
 5570TIP3    H116653   8.111   5.816   6.343
 5570TIP3    H216654   8.079   5.702   6.248
 5571TIP3   OH216655   2.863   7.211   4.046
 5571TIP3    H116656   2.894   7.301   4.062
 5571TIP3    H216657   2.807   7.192   4.122
 5572TIP3   OH216658   8.314   3.011   4.887
 5572TIP3    H116659   8.241   2.964   4.847
 5572TIP3    H216660   8.332   2.963   4.968
 5573TIP3   OH216661   6.226   5.085   6.141
 5573TIP3    H116662   6.167   5.029   6.191
 5573TIP3    H216663   6.199   5.174   6.164
 5574TIP3   OH216664   3.043   7.758   3.182
 5574TIP3    H116665   3.122   7.739   3.232
 5574TIP3    H216666   2.974   7.711   3.228
 5575TIP3   OH216667   1.057   0.704   5.118
 5575TIP3    H116668   1.003   0.638   5.075
 5575TIP3    H216669   1.024   0.787   5.085
 5576TIP3   OH216670   6.351   6.842   0.066
 5576TIP3    H116671   6.440   6.877   0.060
 5576TIP3    H216672   6.349   6.770   0.003
 5577TIP3   OH216673   4.662   5.437   2.628
 5577TIP3    H116674   4.572   5.464   2.644
 5577TIP3    H216675   4.701   5.509   2.579
 5578TIP3   OH216676   4.860   2.420   1.848
 5578TIP3    H116677   4.952   2.427   1.875
 5578TIP3    H216678   4.831   2.510   1.835
 5579TIP3   OH216679   4.000   5.323   3.565
 5579TIP3    H116680   3.997   5.395   3.503
 5579TIP3    H216681   3.913   5.320   3.605
 5580TIP3   OH216682   2.116   1.498   2.010
 5580TIP3    H116683   2.180   1.482   1.940
 5580TIP3    H216684   2.080   1.584   1.990
 5581TIP3   OH216685   7.919   3.168   5.743
 5581TIP3    H116686   7.859   3.117   5.798
 5581TIP3    H216687   7.873   3.252   5.730
 5582TIP3   OH216688   7.444   4.143   2.017
 5582TIP3    H116689   7.405   4.157   2.103
 5582TIP3    H216690   7.445   4.230   1.976
 5583TIP3   OH216691   7.984   4.986   4.119
 5583TIP3    H116692   7.955   4.895   4.109
 5583TIP3    H216693   8.044   5.000   4.047
 5584TIP3   OH216694   3.651   1.579   4.550
 5584TIP3    H116695   3.565   1.584   4.507
 5584TIP3    H216696   3.700   1.652   4.513
 5585TIP3   OH216697   0.480   4.825   4.502
 5585TIP3    H116698   0.462   4.887   4.432
 5585TIP3    H216699   0.494   4.880   4.580
 5586TIP3   OH216700   4.764   7.451   4.938
 5586TIP3    H116701   4.731   7.379   4.991
 5586TIP3    H216702   4.858   7.454   4.957
 5587TIP3   OH216703   3.218   3.282   4.458
 5587TIP3    H116704   3.293   3.316   4.506
 5587TIP3    H216705   3.239   3.298   4.366
 5588TIP3   OH216706   4.045   2.749   2.387
 5588TIP3    H116707   3.999   2.784   2.463
 5588TIP3    H216708   4.003   2.793   2.312
 5589TIP3   OH216709   8.235   7.707   4.495
 5589TIP3    H116710   8.272   7.624   4.465
 5589TIP3    H216711   8.169   7.730   4.430
 5590TIP3   OH216712   5.825   2.775   3.027
 5590TIP3    H116713   5.888   2.717   2.986
 5590TIP3    H216714   5.824   2.853   2.972
 5591TIP3   OH216715   0.839   4.245   2.985
 5591TIP3    H116716   0.885   4.172   2.943
 5591TIP3    H216717   0.889   4.262   3.065
 5592TIP3   OH216718   5.201   3.727   2.666
 5592TIP3    H116719   5.160   3.673   2.734
 5592TIP3    H216720   5.293   3.699   2.666
 5593TIP3   OH216721   7.247   2.287   6.148
 5593TIP3    H116722   7.182   2.248   6.206
 5593TIP3    H216723   7.330   2.281   6.195
 5594TIP3   OH216724   5.793   7.764   3.248
 5594TIP3    H116725   5.852   7.819   3.197
 5594TIP3    H216726   5.711   7.764   3.198
 5595TIP3   OH216727   1.411   2.630   3.909
 5595TIP3    H116728   1.369   2.714   3.890
 5595TIP3    H216729   1.365   2.598   3.987
 5596TIP3   OH216730   6.216   6.607   4.437
 5596TIP3    H116731   6.275   6.670   4.479
 5596TIP3    H216732   6.259   6.586   4.354
 5597TIP3   OH216733   1.828   7.515   0.995
 5597TIP3    H116734   1.758   7.514   1.061
 5597TIP3    H216735   1.904   7.477   1.040
 5598TIP3   OH216736   3.227   5.482   4.355
 5598TIP3    H116737   3.240   5.458   4.263
 5598TIP3    H216738   3.244   5.402   4.404
 5599TIP3   OH216739   7.513   1.490   1.255
 5599TIP3    H116740   7.469   1.547   1.317
 5599TIP3    H216741   7.442   1.451   1.204
 5600TIP3   OH216742   3.154   1.663   4.594
 5600TIP3    H116743   3.201   1.635   4.673
 5600TIP3    H216744   3.140   1.757   4.608
 5601TIP3   OH216745   0.692   2.373   1.439
 5601TIP3    H116746   0.686   2.445   1.501
 5601TIP3    H216747   0.611   2.323   1.453
 5602TIP3   OH216748   7.581   4.644   4.591
 5602TIP3    H116749   7.557   4.721   4.540
 5602TIP3    H216750   7.509   4.582   4.576
 5603TIP3   OH216751   7.797   5.716   0.516
 5603TIP3    H116752   7.856   5.672   0.578
 5603TIP3    H216753   7.728   5.754   0.571
 5604TIP3   OH216754   4.954   6.452   1.227
 5604TIP3    H116755   4.964   6.531   1.173
 5604TIP3    H216756   4.935   6.382   1.165
 5605TIP3   OH216757   5.275   7.599   1.971
 5605TIP3    H116758   5.263   7.602   2.066
 5605TIP3    H216759   5.308   7.686   1.948
 5606TIP3   OH216760   7.263   0.919   5.409
 5606TIP3    H116761   7.198   0.870   5.458
 5606TIP3    H216762   7.219   0.944   5.327
 5607TIP3   OH216763   4.449   4.513   2.468
 5607TIP3    H116764   4.491   4.447   2.413
 5607TIP3    H216765   4.439   4.471   2.553
 5608TIP3   OH216766   0.100   5.773   6.207
 5608TIP3    H116767   0.137   5.761   6.120
 5608TIP3    H216768   0.005   5.779   6.193
 5609TIP3   OH216769   7.667   3.460   4.000
 5609TIP3    H116770   7.728   3.531   3.980
 5609TIP3    H216771   7.599   3.502   4.053
 5610TIP3   OH216772   2.881   4.412   5.579
 5610TIP3    H116773   2.914   4.501   5.572
 5610TIP3    H216774   2.874   4.382   5.488
 5611TIP3   OH216775   1.346   0.229   1.949
 5611TIP3    H116776   1.343   0.135   1.969
 5611TIP3    H216777   1.357   0.233   1.854
 5612TIP3   OH216778   7.987   6.123   1.530
 5612TIP3    H116779   7.935   6.203   1.518
 5612TIP3    H216780   8.025   6.107   1.443
 5613TIP3   OH216781   8.169   5.150   0.042
 5613TIP3    H116782   8.151   5.219   0.106
 5613TIP3    H216783   8.202   5.197  -0.035
 5614TIP3   OH216784   5.268   0.262   4.771
 5614TIP3    H116785   5.310   0.257   4.685
 5614TIP3    H216786   5.176   0.282   4.751
 5615TIP3   OH216787   3.486   3.363   3.821
 5615TIP3    H116788   3.443   3.412   3.891
 5615TIP3    H216789   3.415   3.320   3.775
 5616TIP3   OH216790   0.405   3.053   6.103
 5616TIP3    H116791   0.433   3.139   6.135
 5616TIP3    H216792   0.411   3.060   6.007
 5617TIP3   OH216793   5.681   1.589   6.157
 5617TIP3    H116794   5.743   1.642   6.107
 5617TIP3    H216795   5.595   1.623   6.131
 5618TIP3   OH216796   4.301   5.846   5.809
 5618TIP3    H116797   4.225   5.906   5.812
 5618TIP3    H216798   4.266   5.765   5.773
 5619TIP3   OH216799   0.803   5.158   1.994
 5619TIP3    H116800   0.736   5.202   1.941
 5619TIP3    H216801   0.756   5.083   2.032
 5620TIP3   OH216802   5.417   1.131   1.195
 5620TIP3    H116803   5.330   1.123   1.236
 5620TIP3    H216804   5.469   1.179   1.259
 5621TIP3   OH216805   3.174   2.612   3.128
 5621TIP3    H116806   3.110   2.570   3.185
 5621TIP3    H216807   3.241   2.648   3.187
 5622TIP3   OH216808   5.481   1.713   1.696
 5622TIP3    H116809   5.401   1.743   1.652
 5622TIP3    H216810   5.457   1.704   1.788
 5623TIP3   OH216811   5.151   2.756   3.008
 5623TIP3    H116812   5.231   2.809   3.008
 5623TIP3    H216813   5.180   2.668   3.033
 5624TIP3   OH216814   5.118   4.755   4.494
 5624TIP3    H116815   5.116   4.758   4.589
 5624TIP3    H216816   5.065   4.830   4.466
 5625TIP3   OH216817   2.166   5.675   1.448
 5625TIP3    H116818   2.201   5.719   1.526
 5625TIP3    H216819   2.111   5.605   1.483
 5626TIP3   OH216820   0.145   0.533   4.926
 5626TIP3    H116821   0.057   0.522   4.890
 5626TIP3    H216822   0.132   0.576   5.010
 5627TIP3   OH216823   6.649   3.711   0.719
 5627TIP3    H116824   6.669   3.649   0.649
 5627TIP3    H216825   6.680   3.668   0.799
 5628TIP3   OH216826   1.115   0.332   2.915
 5628TIP3    H116827   1.103   0.245   2.952
 5628TIP3    H216828   1.157   0.316   2.830
 5629TIP3   OH216829   3.147   2.964   0.085
 5629TIP3    H116830   3.058   2.982   0.115
 5629TIP3    H216831   3.135   2.917   0.002
 5630TIP3   OH216832   0.029   3.227   4.252
 5630TIP3    H116833   0.097   3.232   4.186
 5630TIP3    H216834   0.029   3.136   4.281
 5631TIP3   OH216835   3.146   6.311   6.466
 5631TIP3    H116836   3.067   6.260   6.455
 5631TIP3    H216837   3.204   6.256   6.518
 5632TIP3   OH216838   2.923   1.195   4.299
 5632TIP3    H116839   2.906   1.271   4.355
 5632TIP3    H216840   3.015   1.173   4.316
 5633TIP3   OH216841   1.178   5.758   0.995
 5633TIP3    H116842   1.161   5.663   0.994
 5633TIP3    H216843   1.254   5.768   1.052
 5634TIP3   OH216844   5.077   2.276   2.290
 5634TIP3    H116845   5.006   2.309   2.345
 5634TIP3    H216846   5.115   2.355   2.251
 5635TIP3   OH216847   4.516   3.018   0.155
 5635TIP3    H116848   4.608   3.030   0.132
 5635TIP3    H216849   4.519   2.981   0.243
 5636TIP3   OH216850   7.267   0.274   4.959
 5636TIP3    H116851   7.325   0.272   4.882
 5636TIP3    H216852   7.231   0.186   4.964
 5637TIP3   OH216853   7.948   2.961   1.677
 5637TIP3    H116854   7.891   2.984   1.603
 5637TIP3    H216855   7.897   2.897   1.727
 5638TIP3   OH216856   3.506   0.613   1.541
 5638TIP3    H116857   3.453   0.584   1.615
 5638TIP3    H216858   3.575   0.546   1.534
 5639TIP3   OH216859   1.661   0.268   3.091
 5639TIP3    H116860   1.624   0.355   3.080
 5639TIP3    H216861   1.742   0.269   3.041
 5640TIP3   OH216862   6.702   4.793   2.633
 5640TIP3    H116863   6.661   4.826   2.713
 5640TIP3    H216864   6.744   4.711   2.660
 5641TIP3   OH216865   0.306   3.883   6.579
 5641TIP3    H116866   0.339   3.804   6.622
 5641TIP3    H216867   0.215   3.862   6.556
 5642TIP3   OH216868   4.597   0.278   3.354
 5642TIP3    H116869   4.643   0.361   3.366
 5642TIP3    H216870   4.609   0.258   3.262
 5643TIP3   OH216871   6.145   0.818   0.966
 5643TIP3    H116872   6.175   0.771   1.044
 5643TIP3    H216873   6.195   0.900   0.968
 5644TIP3   OH216874   2.739   6.515   4.417
 5644TIP3    H116875   2.816   6.568   4.438
 5644TIP3    H216876   2.772   6.444   4.362
 5645TIP3   OH216877   6.685   5.915   1.377
 5645TIP3    H116878   6.593   5.906   1.400
 5645TIP3    H216879   6.722   5.828   1.391
 5646TIP3   OH216880   7.275   0.144   5.860
 5646TIP3    H116881   7.185   0.175   5.847
 5646TIP3    H216882   7.264   0.054   5.890
 5647TIP3   OH216883   5.423   6.653   3.452
 5647TIP3    H116884   5.381   6.712   3.389
 5647TIP3    H216885   5.387   6.567   3.432
 5648TIP3   OH216886   6.327   3.581   0.515
 5648TIP3    H116887   6.388   3.611   0.447
 5648TIP3    H216888   6.260   3.533   0.467
 5649TIP3   OH216889   3.635   4.666   3.696
 5649TIP3    H116890   3.673   4.754   3.704
 5649TIP3    H216891   3.580   4.671   3.618
 5650TIP3   OH216892   6.847   7.008   2.217
 5650TIP3    H116893   6.882   7.069   2.282
 5650TIP3    H216894   6.796   6.946   2.269
 5651TIP3   OH216895   3.348   1.315   2.169
 5651TIP3    H116896   3.351   1.308   2.074
 5651TIP3    H216897   3.415   1.380   2.191
 5652TIP3   OH216898   2.592   3.244   6.273
 5652TIP3    H116899   2.562   3.178   6.211
 5652TIP3    H216900   2.681   3.218   6.295
 5653TIP3   OH216901   3.556   0.512   3.921
 5653TIP3    H116902   3.533   0.429   3.878
 5653TIP3    H216903   3.611   0.486   3.995
 5654TIP3   OH216904   4.211   6.029   2.385
 5654TIP3    H116905   4.184   6.016   2.295
 5654TIP3    H216906   4.305   6.047   2.380
 5655TIP3   OH216907   5.998   7.031   5.854
 5655TIP3    H116908   5.947   6.950   5.852
 5655TIP3    H216909   6.068   7.014   5.917
 5656TIP3   OH216910   0.896   1.034   0.155
 5656TIP3    H116911   0.839   1.101   0.117
 5656TIP3    H216912   0.912   0.972   0.084
 5657TIP3   OH216913   0.603   5.420   2.974
 5657TIP3    H116914   0.667   5.438   2.904
 5657TIP3    H216915   0.543   5.494   2.970
 5658TIP3   OH216916   6.157   2.467   4.301
 5658TIP3    H116917   6.182   2.394   4.244
 5658TIP3    H216918   6.109   2.526   4.244
 5659TIP3   OH216919   2.129   0.963   6.481
 5659TIP3    H116920   2.101   0.872   6.469
 5659TIP3    H216921   2.109   1.005   6.398
 5660TIP3   OH216922   3.597   5.283   2.362
 5660TIP3    H116923   3.592   5.378   2.351
 5660TIP3    H216924   3.593   5.248   2.273
 5661TIP3   OH216925   4.190   2.222   2.679
 5661TIP3    H116926   4.255   2.161   2.713
 5661TIP3    H216927   4.131   2.168   2.626
 5662TIP3   OH216928   6.056   7.383   3.296
 5662TIP3    H116929   6.072   7.477   3.303
 5662TIP3    H216930   6.022   7.359   3.382
 5663TIP3   OH216931   7.204   4.084   6.448
 5663TIP3    H116932   7.269   4.141   6.407
 5663TIP3    H216933   7.251   4.003   6.465
 5664TIP3   OH216934   8.118   2.819   1.096
 5664TIP3    H116935   8.161   2.735   1.080
 5664TIP3    H216936   8.167   2.857   1.169
 5665TIP3   OH216937   3.710   7.774   3.606
 5665TIP3    H116938   3.656   7.806   3.534
 5665TIP3    H216939   3.679   7.823   3.682
 5666TIP3   OH216940   0.450   1.942   1.552
 5666TIP3    H116941   0.445   1.908   1.641
 5666TIP3    H216942   0.370   1.911   1.510
 5667TIP3   OH216943  -0.018   4.971   0.289
 5667TIP3    H116944   0.047   5.000   0.354
 5667TIP3    H216945  -0.022   5.043   0.226
 5668TIP3   OH216946   5.602   0.207   4.643
 5668TIP3    H116947   5.617   0.292   4.603
 5668TIP3    H216948   5.527   0.171   4.596
 5669TIP3   OH216949   6.190   5.163   2.069
 5669TIP3    H116950   6.151   5.213   1.997
 5669TIP3    H216951   6.199   5.075   2.035
 5670TIP3   OH216952   2.631   5.830   0.774
 5670TIP3    H116953   2.692   5.762   0.802
 5670TIP3    H216954   2.632   5.826   0.678
 5671TIP3   OH216955   2.665   4.475   6.556
 5671TIP3    H116956   2.610   4.443   6.627
 5671TIP3    H216957   2.650   4.570   6.555
 5672TIP3   OH216958   1.391   1.441   6.233
 5672TIP3    H116959   1.363   1.351   6.220
 5672TIP3    H216960   1.487   1.437   6.231
 5673TIP3   OH216961   7.929   1.240   2.798
 5673TIP3    H116962   7.867   1.214   2.867
 5673TIP3    H216963   7.876   1.286   2.734
 5674TIP3   OH216964   7.321   2.615   0.101
 5674TIP3    H116965   7.369   2.565   0.166
 5674TIP3    H216966   7.381   2.621   0.026
 5675TIP3   OH216967   5.355   3.602   0.302
 5675TIP3    H116968   5.300   3.667   0.260
 5675TIP3    H216969   5.302   3.522   0.304
 5676TIP3   OH216970   0.685   2.268   0.565
 5676TIP3    H116971   0.713   2.319   0.641
 5676TIP3    H216972   0.707   2.178   0.588
 5677TIP3   OH216973   1.470   2.739   4.219
 5677TIP3    H116974   1.462   2.833   4.209
 5677TIP3    H216975   1.381   2.706   4.210
 5678TIP3   OH216976   6.551   5.990   1.819
 5678TIP3    H116977   6.543   5.913   1.763
 5678TIP3    H216978   6.602   5.960   1.894
 5679TIP3   OH216979   6.785   3.017   3.456
 5679TIP3    H116980   6.867   3.041   3.415
 5679TIP3    H216981   6.809   2.955   3.526
 5680TIP3   OH216982   6.494   5.109   3.131
 5680TIP3    H116983   6.530   5.146   3.051
 5680TIP3    H216984   6.478   5.184   3.188
 5681TIP3   OH216985   2.649   1.725   5.581
 5681TIP3    H116986   2.737   1.764   5.573
 5681TIP3    H216987   2.666   1.633   5.600
 5682TIP3   OH216988   6.368   6.207   6.757
 5682TIP3    H116989   6.344   6.125   6.801
 5682TIP3    H216990   6.285   6.254   6.747
 5683TIP3   OH216991   3.100   1.478   2.197
 5683TIP3    H116992   3.091   1.489   2.103
 5683TIP3    H216993   3.186   1.436   2.208
 5684TIP3   OH216994   5.411   4.542   3.397
 5684TIP3    H116995   5.480   4.532   3.463
 5684TIP3    H216996   5.341   4.589   3.442
 5685TIP3   OH216997   5.928   7.784   3.513
 5685TIP3    H116998   5.917   7.707   3.568
 5685TIP3    H216999   5.875   7.767   3.436
 5686TIP3   OH217000   3.359   1.933   1.630
 5686TIP3    H117001   3.446   1.899   1.649
 5686TIP3    H217002   3.320   1.866   1.572
 5687TIP3   OH217003   1.767   7.260   3.894
 5687TIP3    H117004   1.758   7.181   3.841
 5687TIP3    H217005   1.762   7.332   3.831
 5688TIP3   OH217006   0.347   5.915   3.545
 5688TIP3    H117007   0.270   5.945   3.594
 5688TIP3    H217008   0.311   5.868   3.470
 5689TIP3   OH217009   4.512   7.382   5.396
 5689TIP3    H117010   4.435   7.372   5.452
 5689TIP3    H217011   4.549   7.294   5.391
 5690TIP3   OH217012   3.129   3.781   2.707
 5690TIP3    H117013   3.077   3.701   2.717
 5690TIP3    H217014   3.208   3.752   2.661
 5691TIP3   OH217015   6.417   2.357   2.418
 5691TIP3    H117016   6.489   2.337   2.477
 5691TIP3    H217017   6.389   2.445   2.442
 5692TIP3   OH217018   5.404   3.234   1.726
 5692TIP3    H117019   5.485   3.195   1.758
 5692TIP3    H217020   5.418   3.244   1.632
 5693TIP3   OH217021   1.066   5.575   6.658
 5693TIP3    H117022   1.158   5.551   6.644
 5693TIP3    H217023   1.038   5.612   6.574
 5694TIP3   OH217024   6.981   6.261   5.212
 5694TIP3    H117025   7.019   6.182   5.250
 5694TIP3    H217026   6.921   6.294   5.279
 5695TIP3   OH217027   4.474   6.194   4.702
 5695TIP3    H117028   4.434   6.280   4.708
 5695TIP3    H217029   4.419   6.138   4.757
 5696TIP3   OH217030   3.280   6.277   5.747
 5696TIP3    H117031   3.236   6.324   5.818
 5696TIP3    H217032   3.339   6.341   5.709
 5697TIP3   OH217033   4.883   6.458   0.096
 5697TIP3    H117034   4.931   6.538   0.114
 5697TIP3    H217035   4.899   6.440   0.003
 5698TIP3   OH217036   0.625   7.505   3.316
 5698TIP3    H117037   0.564   7.548   3.255
 5698TIP3    H217038   0.659   7.431   3.266
 5699TIP3   OH217039   3.639   6.635   3.991
 5699TIP3    H117040   3.614   6.681   3.910
 5699TIP3    H217041   3.637   6.702   4.058
 5700TIP3   OH217042   6.234   4.364   4.286
 5700TIP3    H117043   6.298   4.373   4.215
 5700TIP3    H217044   6.191   4.281   4.269
 5701TIP3   OH217045   6.289   5.638   6.438
 5701TIP3    H117046   6.350   5.712   6.439
 5701TIP3    H217047   6.322   5.581   6.368
 5702TIP3   OH217048   5.513   2.512   0.536
 5702TIP3    H117049   5.422   2.489   0.516
 5702TIP3    H217050   5.514   2.525   0.631
 5703TIP3   OH217051   3.185   1.737   2.425
 5703TIP3    H117052   3.256   1.696   2.377
 5703TIP3    H217053   3.227   1.769   2.506
 5704TIP3   OH217054   6.495   3.666   0.994
 5704TIP3    H117055   6.491   3.759   1.017
 5704TIP3    H217056   6.586   3.641   1.009
 5705TIP3   OH217057   7.005   7.314   1.353
 5705TIP3    H117058   7.095   7.335   1.377
 5705TIP3    H217059   6.987   7.231   1.397
 5706TIP3   OH217060   0.838   5.410   4.762
 5706TIP3    H117061   0.795   5.415   4.677
 5706TIP3    H217062   0.819   5.322   4.794
 5707TIP3   OH217063   7.186   3.781   1.668
 5707TIP3    H117064   7.265   3.773   1.614
 5707TIP3    H217065   7.216   3.825   1.748
 5708TIP3   OH217066   2.838   0.324   0.222
 5708TIP3    H117067   2.803   0.354   0.138
 5708TIP3    H217068   2.804   0.235   0.232
 5709TIP3   OH217069   4.012   3.047   3.626
 5709TIP3    H117070   3.996   3.137   3.653
 5709TIP3    H217071   4.080   3.053   3.559
 5710TIP3   OH217072   5.246   2.898   0.832
 5710TIP3    H117073   5.249   2.956   0.756
 5710TIP3    H217074   5.330   2.911   0.876
 5711TIP3   OH217075   2.522   1.704   0.462
 5711TIP3    H117076   2.439   1.674   0.425
 5711TIP3    H217077   2.497   1.776   0.521
 5712TIP3   OH217078   5.317   2.863   2.595
 5712TIP3    H117079   5.300   2.934   2.657
 5712TIP3    H217080   5.231   2.827   2.576
 5713TIP3   OH217081   7.399   1.163   4.117
 5713TIP3    H117082   7.360   1.133   4.199
 5713TIP3    H217083   7.492   1.139   4.125
 5714TIP3   OH217084   5.428   4.205   5.418
 5714TIP3    H117085   5.357   4.174   5.361
 5714TIP3    H217086   5.412   4.161   5.501
 5715TIP3   OH217087   4.330   2.112   4.319
 5715TIP3    H117088   4.304   2.022   4.339
 5715TIP3    H217089   4.344   2.113   4.224
 5716TIP3   OH217090   1.429   2.461   5.106
 5716TIP3    H117091   1.384   2.538   5.141
 5716TIP3    H217092   1.511   2.495   5.071
 5717TIP3   OH217093   2.518   6.524   3.638
 5717TIP3    H117094   2.484   6.564   3.718
 5717TIP3    H217095   2.449   6.540   3.573
 5718TIP3   OH217096   5.239   6.058   0.852
 5718TIP3    H117097   5.196   6.005   0.786
 5718TIP3    H217098   5.302   5.999   0.893
 5719TIP3   OH217099   0.369   5.756   4.430
 5719TIP3    H117100   0.346   5.777   4.340
 5719TIP3    H217101   0.296   5.790   4.483
 5720TIP3   OH217102   1.905   2.259   2.564
 5720TIP3    H117103   1.998   2.235   2.555
 5720TIP3    H217104   1.860   2.205   2.498
 5721TIP3   OH217105   4.731   1.490   1.115
 5721TIP3    H117106   4.656   1.435   1.094
 5721TIP3    H217107   4.704   1.541   1.192
 5722TIP3   OH217108   0.829   7.290   5.769
 5722TIP3    H117109   0.813   7.384   5.765
 5722TIP3    H217110   0.856   7.275   5.860
 5723TIP3   OH217111   4.244   0.541   1.694
 5723TIP3    H117112   4.274   0.611   1.637
 5723TIP3    H217113   4.324   0.495   1.721
 5724TIP3   OH217114   3.228   0.234   4.984
 5724TIP3    H117115   3.247   0.154   5.033
 5724TIP3    H217116   3.234   0.208   4.892
 5725TIP3   OH217117   1.079   2.253   0.265
 5725TIP3    H117118   1.038   2.295   0.190
 5725TIP3    H217119   1.071   2.316   0.336
 5726TIP3   OH217120   7.235   2.555   6.220
 5726TIP3    H117121   7.246   2.543   6.314
 5726TIP3    H217122   7.257   2.469   6.183
 5727TIP3   OH217123   1.704   7.478   4.416
 5727TIP3    H117124   1.714   7.394   4.372
 5727TIP3    H217125   1.664   7.456   4.500
 5728TIP3   OH217126   5.009   5.599   6.430
 5728TIP3    H117127   5.067   5.618   6.504
 5728TIP3    H217128   4.922   5.593   6.470
 5729TIP3   OH217129   3.534   1.422   0.701
 5729TIP3    H117130   3.611   1.372   0.730
 5729TIP3    H217131   3.468   1.404   0.768
 5730TIP3   OH217132   8.132   7.248   6.269
 5730TIP3    H117133   8.052   7.196   6.266
 5730TIP3    H217134   8.194   7.201   6.214
 5731TIP3   OH217135   4.211   2.050   0.289
 5731TIP3    H117136   4.269   2.102   0.345
 5731TIP3    H217137   4.220   2.090   0.202
 5732TIP3   OH217138   7.370   2.111   0.639
 5732TIP3    H117139   7.288   2.098   0.590
 5732TIP3    H217140   7.348   2.086   0.729
 5733TIP3   OH217141   1.263   3.771   5.584
 5733TIP3    H117142   1.199   3.809   5.524
 5733TIP3    H217143   1.342   3.825   5.571
 5734TIP3   OH217144   0.141   2.872   6.361
 5734TIP3    H117145   0.159   2.849   6.270
 5734TIP3    H217146   0.138   2.968   6.361
 5735TIP3   OH217147   0.990   3.379   3.571
 5735TIP3    H117148   1.083   3.379   3.593
 5735TIP3    H217149   0.949   3.333   3.644
 5736TIP3   OH217150   5.849   2.048   2.782
 5736TIP3    H117151   5.890   1.977   2.732
 5736TIP3    H217152   5.857   2.124   2.725
 5737TIP3   OH217153   1.748   7.069   3.015
 5737TIP3    H117154   1.723   7.117   2.936
 5737TIP3    H217155   1.815   7.007   2.986
 5738TIP3   OH217156   4.472   1.994   0.740
 5738TIP3    H117157   4.407   2.045   0.790
 5738TIP3    H217158   4.546   1.984   0.800
 5739TIP3   OH217159   8.019   2.823   5.966
 5739TIP3    H117160   7.945   2.841   6.025
 5739TIP3    H217161   8.076   2.764   6.015
 5740TIP3   OH217162   3.639   2.156   3.091
 5740TIP3    H117163   3.673   2.242   3.068
 5740TIP3    H217164   3.547   2.172   3.113
 5741TIP3   OH217165   0.958   3.814   1.687
 5741TIP3    H117166   0.999   3.875   1.627
 5741TIP3    H217167   0.877   3.787   1.643
 5742TIP3   OH217168   2.908   0.943   3.360
 5742TIP3    H117169   2.908   0.850   3.335
 5742TIP3    H217170   2.862   0.987   3.288
 5743TIP3   OH217171   6.619   2.386   0.363
 5743TIP3    H117172   6.691   2.422   0.310
 5743TIP3    H217173   6.654   2.304   0.398
 5744TIP3   OH217174   1.732   2.543   1.540
 5744TIP3    H117175   1.761   2.472   1.598
 5744TIP3    H217176   1.648   2.571   1.577
 5745TIP3   OH217177   1.256   3.843   2.351
 5745TIP3    H117178   1.327   3.780   2.365
 5745TIP3    H217179   1.266   3.871   2.261
 5746TIP3   OH217180   4.232   3.761   6.518
 5746TIP3    H117181   4.231   3.734   6.610
 5746TIP3    H217182   4.195   3.686   6.471
 5747TIP3   OH217183   3.739   5.812   4.872
 5747TIP3    H117184   3.802   5.878   4.842
 5747TIP3    H217185   3.661   5.827   4.819
 5748TIP3   OH217186   4.297   0.433   2.892
 5748TIP3    H117187   4.223   0.493   2.903
 5748TIP3    H217188   4.351   0.447   2.970
 5749TIP3   OH217189   7.427   2.832   1.418
 5749TIP3    H117190   7.463   2.792   1.497
 5749TIP3    H217191   7.503   2.863   1.369
 5750TIP3   OH217192   5.752   2.036   4.603
 5750TIP3    H117193   5.848   2.037   4.601
 5750TIP3    H217194   5.728   2.116   4.649
 5751TIP3   OH217195   7.827   1.949   4.691
 5751TIP3    H117196   7.845   1.929   4.599
 5751TIP3    H217197   7.803   2.042   4.691
 5752TIP3   OH217198   1.196   2.177   6.583
 5752TIP3    H117199   1.179   2.112   6.650
 5752TIP3    H217200   1.245   2.246   6.628
 5753TIP3   OH217201   3.670   6.046   2.058
 5753TIP3    H117202   3.654   6.140   2.060
 5753TIP3    H217203   3.765   6.038   2.045
 5754TIP3   OH217204   0.695   0.923   1.848
 5754TIP3    H117205   0.655   0.854   1.795
 5754TIP3    H217206   0.678   1.003   1.798
 5755TIP3   OH217207   7.248   0.457   0.364
 5755TIP3    H117208   7.313   0.407   0.413
 5755TIP3    H217209   7.269   0.549   0.384
 5756TIP3   OH217210   2.648   1.578   3.567
 5756TIP3    H117211   2.706   1.537   3.504
 5756TIP3    H217212   2.706   1.608   3.638
 5757TIP3   OH217213   6.239   5.411   1.807
 5757TIP3    H117214   6.162   5.357   1.791
 5757TIP3    H217215   6.249   5.463   1.727
 5758TIP3   OH217216   4.614   6.709   2.950
 5758TIP3    H117217   4.645   6.691   2.861
 5758TIP3    H217218   4.615   6.805   2.957
 5759TIP3   OH217219   6.911   3.351   2.192
 5759TIP3    H117220   6.881   3.371   2.280
 5759TIP3    H217221   6.914   3.436   2.148
 5760TIP3   OH217222   4.147   7.030   0.237
 5760TIP3    H117223   4.243   7.039   0.232
 5760TIP3    H217224   4.123   6.986   0.156
 5761TIP3   OH217225   6.093   7.030   2.491
 5761TIP3    H117226   6.018   7.061   2.542
 5761TIP3    H217227   6.108   7.099   2.426
 5762TIP3   OH217228   3.973   2.790   2.970
 5762TIP3    H117229   3.955   2.803   3.063
 5762TIP3    H217230   3.895   2.821   2.926
 5763TIP3   OH217231   1.348   4.550   2.270
 5763TIP3    H117232   1.422   4.555   2.209
 5763TIP3    H217233   1.359   4.465   2.313
 5764TIP3   OH217234   4.153   3.113   3.315
 5764TIP3    H117235   4.079   3.163   3.281
 5764TIP3    H217236   4.228   3.171   3.306
 5765TIP3   OH217237   4.618   6.487   1.144
 5765TIP3    H117238   4.549   6.549   1.167
 5765TIP3    H217239   4.683   6.540   1.098
 5766TIP3   OH217240   7.483   1.230   2.748
 5766TIP3    H117241   7.552   1.184   2.700
 5766TIP3    H217242   7.426   1.160   2.780
 5767TIP3   OH217243   6.990   6.472   5.658
 5767TIP3    H117244   7.044   6.462   5.579
 5767TIP3    H217245   6.948   6.387   5.670
 5768TIP3   OH217246   2.856   6.900   1.270
 5768TIP3    H117247   2.948   6.924   1.264
 5768TIP3    H217248   2.855   6.821   1.324
 5769TIP3   OH217249   6.176   1.487   6.361
 5769TIP3    H117250   6.234   1.554   6.325
 5769TIP3    H217251   6.102   1.537   6.396
 5770TIP3   OH217252   7.987   1.371   5.286
 5770TIP3    H117253   8.074   1.412   5.283
 5770TIP3    H217254   7.963   1.373   5.379
 5771TIP3   OH217255   0.481   5.786   2.398
 5771TIP3    H117256   0.503   5.800   2.306
 5771TIP3    H217257   0.474   5.691   2.407
 5772TIP3   OH217258   2.641   2.607   5.466
 5772TIP3    H117259   2.617   2.527   5.512
 5772TIP3    H217260   2.637   2.676   5.532
 5773TIP3   OH217261   2.241   6.726   6.419
 5773TIP3    H117262   2.319   6.741   6.366
 5773TIP3    H217263   2.275   6.712   6.508
 5774TIP3   OH217264   5.007   0.362   2.049
 5774TIP3    H117265   5.062   0.411   2.110
 5774TIP3    H217266   4.920   0.363   2.089
 5775TIP3   OH217267   3.727   5.972   5.139
 5775TIP3    H117268   3.634   5.969   5.114
 5775TIP3    H217269   3.774   5.969   5.056
 5776TIP3   OH217270   6.868   6.564   2.993
 5776TIP3    H117271   6.941   6.585   2.935
 5776TIP3    H217272   6.824   6.491   2.950
 5777TIP3   OH217273   4.691   7.101   3.521
 5777TIP3    H117274   4.735   7.147   3.592
 5777TIP3    H217275   4.618   7.057   3.563
 5778TIP3   OH217276   6.631   2.311   6.295
 5778TIP3    H117277   6.667   2.281   6.211
 5778TIP3    H217278   6.661   2.402   6.302
 5779TIP3   OH217279   5.405   0.966   3.895
 5779TIP3    H117280   5.409   0.962   3.991
 5779TIP3    H217281   5.370   0.881   3.869
 5780TIP3   OH217282   4.241   3.011   4.568
 5780TIP3    H117283   4.252   3.029   4.661
 5780TIP3    H217284   4.146   3.013   4.554
 5781TIP3   OH217285   4.540   1.784   2.124
 5781TIP3    H117286   4.571   1.704   2.167
 5781TIP3    H217287   4.612   1.810   2.068
 5782TIP3   OH217288   2.279   1.248   5.759
 5782TIP3    H117289   2.228   1.181   5.805
 5782TIP3    H217290   2.245   1.248   5.670
 5783TIP3   OH217291   1.294   3.223   4.766
 5783TIP3    H117292   1.243   3.259   4.692
 5783TIP3    H217293   1.382   3.212   4.731
 5784TIP3   OH217294   2.568   0.252   0.368
 5784TIP3    H117295   2.494   0.251   0.429
 5784TIP3    H217296   2.598   0.161   0.366
 5785TIP3   OH217297   2.087   1.740   1.852
 5785TIP3    H117298   2.103   1.726   1.759
 5785TIP3    H217299   2.152   1.806   1.878
 5786TIP3   OH217300   7.606   4.773   4.904
 5786TIP3    H117301   7.631   4.765   4.811
 5786TIP3    H217302   7.517   4.740   4.907
 5787TIP3   OH217303   4.418   0.331   5.832
 5787TIP3    H117304   4.508   0.324   5.799
 5787TIP3    H217305   4.372   0.381   5.765
 5788TIP3   OH217306   2.673   2.892   5.576
 5788TIP3    H117307   2.655   2.962   5.514
 5788TIP3    H217308   2.629   2.918   5.656
 5789TIP3   OH217309   7.803   0.647   3.676
 5789TIP3    H117310   7.790   0.593   3.754
 5789TIP3    H217311   7.719   0.689   3.662
 5790TIP3   OH217312   5.661   7.249   3.260
 5790TIP3    H117313   5.586   7.230   3.316
 5790TIP3    H217314   5.695   7.163   3.235
 5791TIP3   OH217315   1.588   4.992   4.568
 5791TIP3    H117316   1.607   5.031   4.483
 5791TIP3    H217317   1.580   5.066   4.628
 5792TIP3   OH217318   0.741   2.920   5.325
 5792TIP3    H117319   0.711   2.883   5.408
 5792TIP3    H217320   0.671   2.901   5.263
 5793TIP3   OH217321   3.998   2.987   0.471
 5793TIP3    H117322   4.074   2.960   0.418
 5793TIP3    H217323   3.944   2.908   0.476
 5794TIP3   OH217324   2.152   2.653   1.709
 5794TIP3    H117325   2.120   2.629   1.622
 5794TIP3    H217326   2.128   2.745   1.718
 5795TIP3   OH217327   4.657   3.943   0.411
 5795TIP3    H117328   4.598   4.005   0.368
 5795TIP3    H217329   4.726   3.996   0.449
 5796TIP3   OH217330   8.213   7.751   3.933
 5796TIP3    H117331   8.261   7.707   3.863
 5796TIP3    H217332   8.264   7.731   4.012
 5797TIP3   OH217333   7.645   0.554   6.278
 5797TIP3    H117334   7.635   0.462   6.253
 5797TIP3    H217335   7.734   0.576   6.253
 5798TIP3   OH217336   4.262   0.158   5.976
 5798TIP3    H117337   4.343   0.193   5.938
 5798TIP3    H217338   4.195   0.174   5.909
 5799TIP3   OH217339   6.746   5.249   5.713
 5799TIP3    H117340   6.773   5.338   5.690
 5799TIP3    H217341   6.657   5.259   5.747
 5800TIP3   OH217342   4.276   6.645   2.238
 5800TIP3    H117343   4.303   6.620   2.327
 5800TIP3    H217344   4.356   6.672   2.194
 5801TIP3   OH217345   0.162   7.856   1.546
 5801TIP3    H117346   0.164   7.801   1.467
 5801TIP3    H217347   0.126   7.798   1.614
 5802TIP3   OH217348   2.402   2.853   6.676
 5802TIP3    H117349   2.424   2.926   6.618
 5802TIP3    H217350   2.333   2.806   6.630
 5803TIP3   OH217351   5.031   1.963   0.156
 5803TIP3    H117352   5.083   1.885   0.141
 5803TIP3    H217353   5.094   2.035   0.152
 5804TIP3   OH217354   5.413   4.970   3.619
 5804TIP3    H117355   5.333   4.937   3.578
 5804TIP3    H217356   5.459   5.014   3.549
 5805TIP3   OH217357   5.516   7.622   3.999
 5805TIP3    H117358   5.562   7.585   4.075
 5805TIP3    H217359   5.578   7.613   3.927
 5806TIP3   OH217360   3.502   6.974   4.248
 5806TIP3    H117361   3.577   6.926   4.215
 5806TIP3    H217362   3.510   7.061   4.211
 5807TIP3   OH217363   3.277   7.077   1.047
 5807TIP3    H117364   3.217   7.152   1.043
 5807TIP3    H217365   3.325   7.080   0.964
 5808TIP3   OH217366   6.170   7.747   0.476
 5808TIP3    H117367   6.168   7.735   0.381
 5808TIP3    H217368   6.081   7.722   0.504
 5809TIP3   OH217369   5.412   5.122   6.120
 5809TIP3    H117370   5.338   5.082   6.075
 5809TIP3    H217371   5.489   5.092   6.072
 5810TIP3   OH217372   3.085   6.596   1.949
 5810TIP3    H117373   3.026   6.671   1.946
 5810TIP3    H217374   3.113   6.583   1.858
 5811TIP3   OH217375   5.705   3.036   5.582
 5811TIP3    H117376   5.630   3.012   5.529
 5811TIP3    H217377   5.768   2.964   5.568
 5812TIP3   OH217378   1.253   2.101   5.985
 5812TIP3    H117379   1.198   2.177   5.964
 5812TIP3    H217380   1.309   2.090   5.909
 5813TIP3   OH217381   2.130   1.802   1.593
 5813TIP3    H117382   2.050   1.819   1.542
 5813TIP3    H217383   2.169   1.726   1.550
 5814TIP3   OH217384   6.036   5.160   3.652
 5814TIP3    H117385   6.011   5.114   3.573
 5814TIP3    H217386   5.953   5.188   3.691
 5815TIP3   OH217387   6.023   3.813   0.485
 5815TIP3    H117388   6.098   3.871   0.476
 5815TIP3    H217389   5.971   3.828   0.406
 5816TIP3   OH217390   7.083   3.666   0.288
 5816TIP3    H117391   6.989   3.674   0.302
 5816TIP3    H217392   7.112   3.756   0.271
 5817TIP3   OH217393   6.662   5.092   4.687
 5817TIP3    H117394   6.684   5.043   4.608
 5817TIP3    H217395   6.719   5.056   4.755
 5818TIP3   OH217396   3.940   4.954   0.580
 5818TIP3    H117397   3.845   4.950   0.591
 5818TIP3    H217398   3.954   5.017   0.509
 5819TIP3   OH217399   1.733   5.169   4.042
 5819TIP3    H117400   1.673   5.231   4.084
 5819TIP3    H217401   1.819   5.195   4.073
 5820TIP3   OH217402   3.599   3.553   0.293
 5820TIP3    H117403   3.605   3.645   0.267
 5820TIP3    H217404   3.624   3.553   0.385
 5821TIP3   OH217405   7.160   1.563   5.021
 5821TIP3    H117406   7.194   1.650   4.998
 5821TIP3    H217407   7.088   1.549   4.959
 5822TIP3   OH217408   0.199   2.399   6.351
 5822TIP3    H117409   0.171   2.308   6.361
 5822TIP3    H217410   0.139   2.436   6.286
 5823TIP3   OH217411   2.813   7.316   1.965
 5823TIP3    H117412   2.806   7.258   1.889
 5823TIP3    H217413   2.893   7.366   1.950
 5824TIP3   OH217414   8.288   4.703   5.210
 5824TIP3    H117415   8.281   4.607   5.211
 5824TIP3    H217416   8.198   4.734   5.205
 5825TIP3   OH217417   4.761   2.892   1.640
 5825TIP3    H117418   4.790   2.802   1.631
 5825TIP3    H217419   4.837   2.945   1.614
 5826TIP3   OH217420   0.699   0.384   2.620
 5826TIP3    H117421   0.719   0.372   2.527
 5826TIP3    H217422   0.734   0.471   2.641
 5827TIP3   OH217423   5.637   2.470   1.832
 5827TIP3    H117424   5.640   2.380   1.863
 5827TIP3    H217425   5.712   2.513   1.875
 5828TIP3   OH217426   2.288   2.083   2.122
 5828TIP3    H117427   2.249   2.159   2.079
 5828TIP3    H217428   2.218   2.017   2.123
 5829TIP3   OH217429   2.940   4.559   4.138
 5829TIP3    H117430   2.947   4.643   4.091
 5829TIP3    H217431   3.029   4.539   4.165
 5830TIP3   OH217432   6.021   6.059   2.262
 5830TIP3    H117433   6.031   5.964   2.272
 5830TIP3    H217434   6.088   6.097   2.318
 5831TIP3   OH217435   5.614   2.670   0.334
 5831TIP3    H117436   5.550   2.660   0.405
 5831TIP3    H217437   5.698   2.647   0.375
 5832TIP3   OH217438   7.815   4.015   5.709
 5832TIP3    H117439   7.797   4.087   5.769
 5832TIP3    H217440   7.895   3.974   5.744
 5833TIP3   OH217441   5.381   5.681   3.738
 5833TIP3    H117442   5.344   5.602   3.777
 5833TIP3    H217443   5.399   5.738   3.813
 5834TIP3   OH217444   4.228   0.783   0.407
 5834TIP3    H117445   4.219   0.690   0.383
 5834TIP3    H217446   4.249   0.826   0.324
 5835TIP3   OH217447   6.561   5.894   3.792
 5835TIP3    H117448   6.624   5.966   3.778
 5835TIP3    H217449   6.476   5.935   3.777
 5836TIP3   OH217450   6.256   6.389   2.524
 5836TIP3    H117451   6.317   6.462   2.530
 5836TIP3    H217452   6.230   6.372   2.614
 5837TIP3   OH217453   2.693   1.231   2.215
 5837TIP3    H117454   2.675   1.170   2.144
 5837TIP3    H217455   2.608   1.273   2.232
 5838TIP3   OH217456   2.958   0.943   3.912
 5838TIP3    H117457   3.036   0.995   3.894
 5838TIP3    H217458   2.958   0.876   3.844
 5839TIP3   OH217459   3.974   5.857   1.613
 5839TIP3    H117460   3.998   5.792   1.546
 5839TIP3    H217461   3.886   5.884   1.588
 5840TIP3   OH217462   7.205   6.389   4.208
 5840TIP3    H117463   7.169   6.388   4.296
 5840TIP3    H217464   7.133   6.358   4.153
 5841TIP3   OH217465   0.166   1.971   3.832
 5841TIP3    H117466   0.086   1.931   3.798
 5841TIP3    H217467   0.227   1.967   3.758
 5842TIP3   OH217468   6.842   7.356   6.657
 5842TIP3    H117469   6.815   7.347   6.748
 5842TIP3    H217470   6.762   7.342   6.607
 5843TIP3   OH217471   1.831   5.288   0.946
 5843TIP3    H117472   1.845   5.197   0.919
 5843TIP3    H217473   1.908   5.310   0.999
 5844TIP3   OH217474   0.163   6.158   1.556
 5844TIP3    H117475   0.247   6.116   1.572
 5844TIP3    H217476   0.100   6.107   1.607
 5845TIP3   OH217477   2.769   6.369   3.119
 5845TIP3    H117478   2.863   6.369   3.101
 5845TIP3    H217479   2.731   6.418   3.046
 5846TIP3   OH217480   1.013   6.155   5.414
 5846TIP3    H117481   0.948   6.222   5.435
 5846TIP3    H217482   1.072   6.156   5.490
 5847TIP3   OH217483   5.567   1.529   2.167
 5847TIP3    H117484   5.476   1.523   2.193
 5847TIP3    H217485   5.597   1.439   2.160
 5848TIP3   OH217486   2.250   6.295   3.358
 5848TIP3    H117487   2.225   6.234   3.289
 5848TIP3    H217488   2.235   6.247   3.440
 5849TIP3   OH217489   2.352   3.786   2.197
 5849TIP3    H117490   2.272   3.786   2.145
 5849TIP3    H217491   2.322   3.774   2.287
 5850TIP3   OH217492   1.660   4.756   6.467
 5850TIP3    H117493   1.728   4.718   6.412
 5850TIP3    H217494   1.663   4.705   6.548
 5851TIP3   OH217495   6.867   4.546   0.505
 5851TIP3    H117496   6.864   4.640   0.489
 5851TIP3    H217497   6.884   4.538   0.599
 5852TIP3   OH217498   3.131   5.275   3.147
 5852TIP3    H117499   3.071   5.335   3.103
 5852TIP3    H217500   3.205   5.329   3.174
 5853TIP3   OH217501   7.983   7.016   2.112
 5853TIP3    H117502   7.966   7.111   2.110
 5853TIP3    H217503   7.982   6.990   2.020
 5854TIP3   OH217504   7.918   5.816   5.457
 5854TIP3    H117505   7.825   5.830   5.438
 5854TIP3    H217506   7.947   5.897   5.498
 5855TIP3   OH217507   4.983   1.876   3.333
 5855TIP3    H117508   5.040   1.812   3.376
 5855TIP3    H217509   5.042   1.928   3.279
 5856TIP3   OH217510   5.410   0.400   1.386
 5856TIP3    H117511   5.423   0.489   1.353
 5856TIP3    H217512   5.378   0.351   1.310
 5857TIP3   OH217513   2.330   4.744   0.065
 5857TIP3    H117514   2.415   4.788   0.064
 5857TIP3    H217515   2.327   4.697  -0.019
 5858TIP3   OH217516   7.774   0.502   3.447
 5858TIP3    H117517   7.789   0.558   3.524
 5858TIP3    H217518   7.761   0.563   3.375
 5859TIP3   OH217519   5.765   6.893   6.148
 5859TIP3    H117520   5.709   6.869   6.075
 5859TIP3    H217521   5.839   6.833   6.143
 5860TIP3   OH217522   0.590   0.331   0.428
 5860TIP3    H117523   0.549   0.416   0.445
 5860TIP3    H217524   0.611   0.297   0.515
 5861TIP3   OH217525   6.042   6.508   3.490
 5861TIP3    H117526   6.124   6.500   3.539
 5861TIP3    H217527   6.022   6.601   3.492
 5862TIP3   OH217528   5.374   0.337   5.478
 5862TIP3    H117529   5.422   0.280   5.538
 5862TIP3    H217530   5.400   0.307   5.390
 5863TIP3   OH217531   4.603   5.954   3.300
 5863TIP3    H117532   4.622   5.893   3.228
 5863TIP3    H217533   4.671   5.935   3.365
 5864TIP3   OH217534   1.856   6.350   1.691
 5864TIP3    H117535   1.926   6.306   1.643
 5864TIP3    H217536   1.775   6.316   1.654
 5865TIP3   OH217537   1.865   4.735   0.212
 5865TIP3    H117538   1.958   4.748   0.232
 5865TIP3    H217539   1.864   4.712   0.119
 5866TIP3   OH217540   7.887   4.071   4.304
 5866TIP3    H117541   7.951   4.001   4.303
 5866TIP3    H217542   7.830   4.053   4.229
 5867TIP3   OH217543   6.994   6.015   1.957
 5867TIP3    H117544   6.988   6.096   2.008
 5867TIP3    H217545   7.069   5.969   1.995
 5868TIP3   OH217546   6.729   7.470   0.748
 5868TIP3    H117547   6.753   7.509   0.663
 5868TIP3    H217548   6.672   7.535   0.789
 5869TIP3   OH217549   1.730   3.227   0.722
 5869TIP3    H117550   1.729   3.312   0.765
 5869TIP3    H217551   1.784   3.240   0.644
 5870TIP3   OH217552   3.611   4.728   6.067
 5870TIP3    H117553   3.540   4.744   6.129
 5870TIP3    H217554   3.669   4.667   6.113
 5871TIP3   OH217555   5.179   3.679   3.838
 5871TIP3    H117556   5.192   3.603   3.894
 5871TIP3    H217557   5.189   3.754   3.897
 5872TIP3   OH217558   7.228   3.259   1.417
 5872TIP3    H117559   7.146   3.233   1.376
 5872TIP3    H217560   7.211   3.252   1.511
 5873TIP3   OH217561   5.662   6.091   1.400
 5873TIP3    H117562   5.585   6.092   1.456
 5873TIP3    H217563   5.684   6.184   1.389
 5874TIP3   OH217564   3.421   7.730   3.450
 5874TIP3    H117565   3.416   7.654   3.391
 5874TIP3    H217566   3.377   7.700   3.530
 5875TIP3   OH217567   2.833   3.560   1.169
 5875TIP3    H117568   2.816   3.649   1.200
 5875TIP3    H217569   2.784   3.554   1.087
 5876TIP3   OH217570   1.869   5.144   5.400
 5876TIP3    H117571   1.930   5.075   5.375
 5876TIP3    H217572   1.875   5.149   5.495
 5877TIP3   OH217573   5.351   1.315   5.967
 5877TIP3    H117574   5.384   1.400   5.938
 5877TIP3    H217575   5.286   1.337   6.034
 5878TIP3   OH217576   1.547   1.989   5.202
 5878TIP3    H117577   1.641   1.975   5.215
 5878TIP3    H217578   1.538   2.009   5.109
 5879TIP3   OH217579   0.130   5.862   5.382
 5879TIP3    H117580   0.219   5.829   5.363
 5879TIP3    H217581   0.086   5.787   5.422
 5880TIP3   OH217582   3.897   0.271   6.769
 5880TIP3    H117583   3.892   0.260   6.674
 5880TIP3    H217584   3.858   0.357   6.785
 5881TIP3   OH217585   4.692   6.905   5.252
 5881TIP3    H117586   4.704   6.817   5.216
 5881TIP3    H217587   4.712   6.964   5.179
 5882TIP3   OH217588   0.062   4.900   1.933
 5882TIP3    H117589   0.008   4.978   1.946
 5882TIP3    H217590   0.069   4.892   1.837
 5883TIP3   OH217591   0.394   3.235   5.619
 5883TIP3    H117592   0.432   3.270   5.700
 5883TIP3    H217593   0.358   3.150   5.644
 5884TIP3   OH217594   2.103   4.200   4.296
 5884TIP3    H117595   2.101   4.269   4.363
 5884TIP3    H217596   2.076   4.121   4.343
 5885TIP3   OH217597   4.497   2.792   2.339
 5885TIP3    H117598   4.491   2.831   2.252
 5885TIP3    H217599   4.408   2.763   2.358
 5886TIP3   OH217600   4.997   7.275   1.955
 5886TIP3    H117601   5.003   7.325   1.874
 5886TIP3    H217602   4.995   7.342   2.024
 5887TIP3   OH217603   5.672   7.457   2.017
 5887TIP3    H117604   5.644   7.478   2.106
 5887TIP3    H217605   5.680   7.543   1.974
 5888TIP3   OH217606   0.237   5.941   2.526
 5888TIP3    H117607   0.320   5.924   2.570
 5888TIP3    H217608   0.203   5.855   2.504
 5889TIP3   OH217609   4.357   7.025   2.710
 5889TIP3    H117610   4.356   7.104   2.657
 5889TIP3    H217611   4.303   7.046   2.786
 5890TIP3   OH217612   1.984   0.371   0.648
 5890TIP3    H117613   1.932   0.331   0.579
 5890TIP3    H217614   2.052   0.420   0.602
 5891TIP3   OH217615   8.125   4.705   2.152
 5891TIP3    H117616   8.144   4.648   2.077
 5891TIP3    H217617   8.055   4.762   2.122
 5892TIP3   OH217618   4.588   2.679   1.306
 5892TIP3    H117619   4.642   2.673   1.227
 5892TIP3    H217620   4.650   2.671   1.379
 5893TIP3   OH217621   1.878   6.100   0.130
 5893TIP3    H117622   1.926   6.155   0.068
 5893TIP3    H217623   1.826   6.042   0.074
 5894TIP3   OH217624   6.501   4.948   5.862
 5894TIP3    H117625   6.519   5.042   5.862
 5894TIP3    H217626   6.557   4.913   5.931
 5895TIP3   OH217627   7.676   7.271   5.941
 5895TIP3    H117628   7.772   7.281   5.943
 5895TIP3    H217629   7.648   7.328   5.870
 5896TIP3   OH217630   2.869   3.277   0.880
 5896TIP3    H117631   2.861   3.237   0.793
 5896TIP3    H217632   2.852   3.370   0.866
 5897TIP3   OH217633   0.850   5.388   6.390
 5897TIP3    H117634   0.873   5.443   6.316
 5897TIP3    H217635   0.889   5.432   6.466
 5898TIP3   OH217636   0.404   1.993   5.452
 5898TIP3    H117637   0.387   1.958   5.540
 5898TIP3    H217638   0.422   2.086   5.466
 5899TIP3   OH217639   7.060   3.941   0.286
 5899TIP3    H117640   7.146   3.982   0.273
 5899TIP3    H217641   6.997   4.007   0.256
 5900TIP3   OH217642   1.980   5.604   3.871
 5900TIP3    H117643   2.063   5.571   3.837
 5900TIP3    H217644   1.976   5.694   3.838
 5901TIP3   OH217645   8.020   3.757   3.686
 5901TIP3    H117646   7.970   3.839   3.679
 5901TIP3    H217647   8.051   3.756   3.776
 5902TIP3   OH217648   4.240   5.210   1.276
 5902TIP3    H117649   4.266   5.174   1.192
 5902TIP3    H217650   4.286   5.156   1.341
 5903TIP3   OH217651   0.026   5.925   5.660
 5903TIP3    H117652  -0.053   5.875   5.683
 5903TIP3    H217653   0.010   5.955   5.571
 5904TIP3   OH217654   0.662   0.639   5.699
 5904TIP3    H117655   0.645   0.555   5.657
 5904TIP3    H217656   0.581   0.662   5.744
 5905TIP3   OH217657   4.574   5.116   2.151
 5905TIP3    H117658   4.492   5.071   2.172
 5905TIP3    H217659   4.617   5.127   2.236
 5906TIP3   OH217660   7.126   3.920   4.036
 5906TIP3    H117661   7.047   3.892   3.988
 5906TIP3    H217662   7.149   3.845   4.090
 5907TIP3   OH217663   1.412   6.155   4.152
 5907TIP3    H117664   1.503   6.131   4.134
 5907TIP3    H217665   1.418   6.235   4.203
 5908TIP3   OH217666   3.941   4.029   4.734
 5908TIP3    H117667   4.028   4.004   4.702
 5908TIP3    H217668   3.887   3.951   4.718
 5909TIP3   OH217669   4.840   7.488   4.294
 5909TIP3    H117670   4.772   7.554   4.306
 5909TIP3    H217671   4.836   7.435   4.373
 5910TIP3   OH217672   3.125   3.518   2.307
 5910TIP3    H117673   3.202   3.470   2.336
 5910TIP3    H217674   3.146   3.546   2.218
 5911TIP3   OH217675   2.548   1.979   2.855
 5911TIP3    H117676   2.643   1.980   2.860
 5911TIP3    H217677   2.520   2.056   2.904
 5912TIP3   OH217678   5.914   0.325   3.964
 5912TIP3    H117679   5.873   0.360   4.043
 5912TIP3    H217680   5.847   0.268   3.926
 5913TIP3   OH217681   1.810   1.480   6.096
 5913TIP3    H117682   1.876   1.535   6.138
 5913TIP3    H217683   1.764   1.538   6.037
 5914TIP3   OH217684   6.395   2.280   0.735
 5914TIP3    H117685   6.477   2.267   0.689
 5914TIP3    H217686   6.408   2.241   0.821
 5915TIP3   OH217687   6.084   5.253   6.511
 5915TIP3    H117688   6.103   5.159   6.505
 5915TIP3    H217689   5.995   5.257   6.546
 5916TIP3   OH217690   5.471   6.792   1.499
 5916TIP3    H117691   5.376   6.796   1.509
 5916TIP3    H217692   5.504   6.795   1.588
 5917TIP3   OH217693   2.466   1.306   5.128
 5917TIP3    H117694   2.406   1.308   5.054
 5917TIP3    H217695   2.462   1.394   5.165
 5918TIP3   OH217696   2.438   4.547   3.836
 5918TIP3    H117697   2.371   4.481   3.853
 5918TIP3    H217698   2.402   4.628   3.873
 5919TIP3   OH217699   4.072   6.030   5.810
 5919TIP3    H117700   4.088   6.124   5.814
 5919TIP3    H217701   4.005   6.013   5.876
 5920TIP3   OH217702   6.879   6.378   4.898
 5920TIP3    H117703   6.935   6.327   4.839
 5920TIP3    H217704   6.894   6.469   4.872
 5921TIP3   OH217705   7.354   0.389   0.789
 5921TIP3    H117706   7.271   0.426   0.759
 5921TIP3    H217707   7.357   0.408   0.883
 5922TIP3   OH217708   2.367   4.105   0.587
 5922TIP3    H117709   2.439   4.167   0.579
 5922TIP3    H217710   2.405   4.021   0.562
 5923TIP3   OH217711   1.422   6.362   5.260
 5923TIP3    H117712   1.404   6.383   5.169
 5923TIP3    H217713   1.340   6.382   5.307
 5924TIP3   OH217714   3.321   0.917   4.994
 5924TIP3    H117715   3.238   0.876   5.019
 5924TIP3    H217716   3.382   0.844   4.983
 5925TIP3   OH217717   6.980   6.604   6.400
 5925TIP3    H117718   6.969   6.509   6.411
 5925TIP3    H217719   6.892   6.635   6.378
 5926TIP3   OH217720   5.253   4.462   4.609
 5926TIP3    H117721   5.257   4.374   4.572
 5926TIP3    H217722   5.332   4.505   4.578
 5927TIP3   OH217723   3.326   7.371   1.826
 5927TIP3    H117724   3.362   7.365   1.738
 5927TIP3    H217725   3.389   7.426   1.873
 5928TIP3   OH217726   0.829   6.346   6.381
 5928TIP3    H117727   0.765   6.390   6.325
 5928TIP3    H217728   0.898   6.410   6.393
 5929TIP3   OH217729   6.351   1.268   4.007
 5929TIP3    H117730   6.317   1.260   3.917
 5929TIP3    H217731   6.277   1.245   4.062
 5930TIP3   OH217732   6.513   3.476   3.532
 5930TIP3    H117733   6.472   3.466   3.446
 5930TIP3    H217734   6.559   3.393   3.546
 5931TIP3   OH217735   4.900   6.989   5.773
 5931TIP3    H117736   4.874   6.938   5.696
 5931TIP3    H217737   4.980   6.947   5.804
 5932TIP3   OH217738   5.275   1.763   6.306
 5932TIP3    H117739   5.360   1.805   6.321
 5932TIP3    H217740   5.290   1.671   6.328
 5933TIP3   OH217741   5.246   4.209   0.619
 5933TIP3    H117742   5.188   4.261   0.564
 5933TIP3    H217743   5.213   4.120   0.612
 5934TIP3   OH217744   6.441   5.916   6.053
 5934TIP3    H117745   6.360   5.904   6.102
 5934TIP3    H217746   6.420   5.984   5.989
 5935TIP3   OH217747   7.263   7.031   3.548
 5935TIP3    H117748   7.290   7.071   3.466
 5935TIP3    H217749   7.199   7.093   3.585
 5936TIP3   OH217750   6.018   1.089   0.509
 5936TIP3    H117751   6.029   1.002   0.547
 5936TIP3    H217752   6.024   1.149   0.584
 5937TIP3   OH217753   1.954   6.243   5.566
 5937TIP3    H117754   1.881   6.185   5.588
 5937TIP3    H217755   1.980   6.282   5.649
 5938TIP3   OH217756   0.505   4.030   0.614
 5938TIP3    H117757   0.549   4.038   0.698
 5938TIP3    H217758   0.412   4.038   0.634
 5939TIP3   OH217759   7.141   4.197   2.919
 5939TIP3    H117760   7.216   4.143   2.895
 5939TIP3    H217761   7.172   4.287   2.906
 5940TIP3   OH217762   7.742   0.920   0.621
 5940TIP3    H117763   7.778   0.842   0.664
 5940TIP3    H217764   7.779   0.917   0.533
 5941TIP3   OH217765   3.798   6.358   0.762
 5941TIP3    H117766   3.845   6.369   0.679
 5941TIP3    H217767   3.812   6.267   0.786
 5942TIP3   OH217768   3.805   4.940   4.732
 5942TIP3    H117769   3.757   4.983   4.661
 5942TIP3    H217770   3.874   4.890   4.688
 5943TIP3   OH217771   1.016   1.262   5.151
 5943TIP3    H117772   0.982   1.348   5.174
 5943TIP3    H217773   1.024   1.216   5.234
 5944TIP3   OH217774   7.645   2.245   4.197
 5944TIP3    H117775   7.679   2.172   4.249
 5944TIP3    H217776   7.550   2.238   4.203
 5945TIP3   OH217777   3.030   6.913   3.763
 5945TIP3    H117778   2.967   6.920   3.690
 5945TIP3    H217779   3.115   6.905   3.720
 5946TIP3   OH217780   6.874   7.680   1.601
 5946TIP3    H117781   6.937   7.735   1.649
 5946TIP3    H217782   6.856   7.607   1.660
 5947TIP3   OH217783   5.076   1.870   5.576
 5947TIP3    H117784   5.146   1.907   5.631
 5947TIP3    H217785   5.115   1.865   5.488
 5948TIP3   OH217786   7.177   2.713   5.525
 5948TIP3    H117787   7.149   2.751   5.442
 5948TIP3    H217788   7.113   2.745   5.589
 5949TIP3   OH217789   0.421   3.336   6.190
 5949TIP3    H117790   0.417   3.286   6.271
 5949TIP3    H217791   0.482   3.407   6.208
 5950TIP3   OH217792   7.862   5.969   0.111
 5950TIP3    H117793   7.905   6.052   0.130
 5950TIP3    H217794   7.820   5.982   0.026
 5951TIP3   OH217795   5.502   4.249   3.074
 5951TIP3    H117796   5.485   4.173   3.130
 5951TIP3    H217797   5.485   4.218   2.985
 5952TIP3   OH217798   5.005   0.306   0.050
 5952TIP3    H117799   4.951   0.372   0.009
 5952TIP3    H217800   4.947   0.230   0.061
 5953TIP3   OH217801   7.766   7.538   4.670
 5953TIP3    H117802   7.803   7.451   4.686
 5953TIP3    H217803   7.841   7.597   4.672
 5954TIP3   OH217804   7.471   3.691   4.075
 5954TIP3    H117805   7.455   3.649   4.159
 5954TIP3    H217806   7.512   3.775   4.098
 5955TIP3   OH217807   2.379   5.213   4.377
 5955TIP3    H117808   2.305   5.230   4.435
 5955TIP3    H217809   2.399   5.120   4.391
 5956TIP3   OH217810   6.344   3.320   5.851
 5956TIP3    H117811   6.403   3.248   5.876
 5956TIP3    H217812   6.343   3.378   5.926
 5957TIP3   OH217813   1.352   1.174   3.840
 5957TIP3    H117814   1.297   1.251   3.828
 5957TIP3    H217815   1.310   1.107   3.784
 5958TIP3   OH217816   6.544   3.354   1.891
 5958TIP3    H117817   6.538   3.366   1.796
 5958TIP3    H217818   6.478   3.288   1.911
 5959TIP3   OH217819   7.531   0.976   5.480
 5959TIP3    H117820   7.443   0.943   5.466
 5959TIP3    H217821   7.524   1.071   5.465
 5960TIP3   OH217822   3.851   5.503   0.812
 5960TIP3    H117823   3.915   5.551   0.864
 5960TIP3    H217824   3.894   5.420   0.793
 5961TIP3   OH217825   5.350   0.948   0.482
 5961TIP3    H117826   5.335   1.021   0.542
 5961TIP3    H217827   5.437   0.963   0.446
 5962TIP3   OH217828   6.273   7.599   5.410
 5962TIP3    H117829   6.243   7.568   5.495
 5962TIP3    H217830   6.266   7.695   5.415
 5963TIP3   OH217831   3.498   7.514   0.968
 5963TIP3    H117832   3.457   7.478   0.890
 5963TIP3    H217833   3.426   7.524   1.031
 5964TIP3   OH217834   1.417   5.992   3.292
 5964TIP3    H117835   1.413   5.897   3.282
 5964TIP3    H217836   1.475   6.022   3.222
 5965TIP3   OH217837   5.395   3.842   2.881
 5965TIP3    H117838   5.347   3.762   2.900
 5965TIP3    H217839   5.334   3.913   2.903
 5966TIP3   OH217840   1.304   5.237   4.628
 5966TIP3    H117841   1.390   5.266   4.659
 5966TIP3    H217842   1.241   5.290   4.677
 5967TIP3   OH217843   4.780   1.946   0.408
 5967TIP3    H117844   4.790   1.973   0.317
 5967TIP3    H217845   4.846   1.878   0.421
 5968TIP3   OH217846   1.095   4.391   4.386
 5968TIP3    H117847   1.130   4.349   4.308
 5968TIP3    H217848   1.089   4.320   4.451
 5969TIP3   OH217849   2.459   7.416   3.256
 5969TIP3    H117850   2.419   7.335   3.226
 5969TIP3    H217851   2.384   7.470   3.283
 5970TIP3   OH217852   6.791   2.643   2.031
 5970TIP3    H117853   6.878   2.636   1.992
 5970TIP3    H217854   6.792   2.726   2.079
 5971TIP3   OH217855   4.103   4.172   2.680
 5971TIP3    H117856   4.080   4.230   2.607
 5971TIP3    H217857   4.045   4.097   2.671
 5972TIP3   OH217858   3.995   1.064   3.806
 5972TIP3    H117859   3.909   1.045   3.841
 5972TIP3    H217860   4.034   1.127   3.867
 5973TIP3   OH217861   4.317   7.243   2.539
 5973TIP3    H117862   4.374   7.256   2.463
 5973TIP3    H217863   4.245   7.188   2.506
 5974TIP3   OH217864   1.139   1.461   0.392
 5974TIP3    H117865   1.067   1.441   0.453
 5974TIP3    H217866   1.206   1.396   0.413
 5975TIP3   OH217867   0.727   5.473   5.860
 5975TIP3    H117868   0.817   5.495   5.836
 5975TIP3    H217869   0.678   5.554   5.850
 5976TIP3   OH217870   2.616   6.231   1.925
 5976TIP3    H117871   2.634   6.170   1.853
 5976TIP3    H217872   2.694   6.225   1.981
 5977TIP3   OH217873   7.740   4.605   5.057
 5977TIP3    H117874   7.681   4.566   5.122
 5977TIP3    H217875   7.693   4.682   5.026
 5978TIP3   OH217876   6.744   6.546   4.535
 5978TIP3    H117877   6.717   6.636   4.518
 5978TIP3    H217878   6.783   6.517   4.452
 5979TIP3   OH217879   5.075   1.859   6.473
 5979TIP3    H117880   5.020   1.784   6.493
 5979TIP3    H217881   5.136   1.827   6.406
 5980TIP3   OH217882   1.535   6.262   1.109
 5980TIP3    H117883   1.531   6.323   1.035
 5980TIP3    H217884   1.558   6.178   1.070
 5981TIP3   OH217885   3.040   6.111   3.652
 5981TIP3    H117886   3.097   6.127   3.727
 5981TIP3    H217887   2.971   6.177   3.660
 5982TIP3   OH217888   4.899   7.511   0.630
 5982TIP3    H117889   4.939   7.429   0.659
 5982TIP3    H217890   4.968   7.554   0.579
 5983TIP3   OH217891   0.619   3.996   0.846
 5983TIP3    H117892   0.542   4.028   0.893
 5983TIP3    H217893   0.686   3.985   0.913
 5984TIP3   OH217894   0.508   6.333   2.866
 5984TIP3    H117895   0.412   6.328   2.858
 5984TIP3    H217896   0.534   6.398   2.801
 5985TIP3   OH217897   3.991   5.537   5.136
 5985TIP3    H117898   4.041   5.525   5.055
 5985TIP3    H217899   3.931   5.609   5.117
 5986TIP3   OH217900   0.918   6.126   6.075
 5986TIP3    H117901   0.898   6.167   5.990
 5986TIP3    H217902   0.948   6.198   6.130
 5987TIP3   OH217903   4.115   2.385   0.602
 5987TIP3    H117904   4.161   2.423   0.677
 5987TIP3    H217905   4.070   2.308   0.639
 5988TIP3   OH217906   5.001   3.236   1.710
 5988TIP3    H117907   5.073   3.201   1.763
 5988TIP3    H217908   5.007   3.331   1.720
 5989TIP3   OH217909   4.880   0.102   4.031
 5989TIP3    H117910   4.946   0.168   4.052
 5989TIP3    H217911   4.843   0.077   4.115
 5990TIP3   OH217912   6.838   5.134   3.289
 5990TIP3    H117913   6.791   5.065   3.242
 5990TIP3    H217914   6.924   5.097   3.306
 5991TIP3   OH217915   5.618   5.519   2.031
 5991TIP3    H117916   5.629   5.455   2.101
 5991TIP3    H217917   5.527   5.548   2.040
 5992TIP3   OH217918   1.761   2.210   1.326
 5992TIP3    H117919   1.737   2.253   1.244
 5992TIP3    H217920   1.678   2.190   1.368
 5993TIP3   OH217921   2.997   7.107   4.394
 5993TIP3    H117922   3.077   7.153   4.370
 5993TIP3    H217923   2.929   7.174   4.395
 5994TIP3   OH217924   0.227   4.657   3.034
 5994TIP3    H117925   0.234   4.582   2.974
 5994TIP3    H217926   0.241   4.619   3.121
 5995TIP3   OH217927   0.075   0.710   6.036
 5995TIP3    H117928   0.035   0.796   6.024
 5995TIP3    H217929   0.159   0.729   6.077
 5996TIP3   OH217930   1.509   2.947   5.610
 5996TIP3    H117931   1.597   2.982   5.594
 5996TIP3    H217932   1.450   3.017   5.582
 5997TIP3   OH217933   6.949   5.155   1.905
 5997TIP3    H117934   6.946   5.246   1.936
 5997TIP3    H217935   6.956   5.103   1.985
 5998TIP3   OH217936   8.047   1.250   5.971
 5998TIP3    H117937   8.034   1.327   6.028
 5998TIP3    H217938   8.116   1.276   5.911
 5999TIP3   OH217939   7.774   6.443   2.605
 5999TIP3    H117940   7.709   6.379   2.578
 5999TIP3    H217941   7.815   6.471   2.523
 6000TIP3   OH217942   0.274   7.389   4.634
 6000TIP3    H117943   0.243   7.314   4.686
 6000TIP3    H217944   0.269   7.463   4.693
 6001TIP3   OH217945   4.591   4.842   3.535
 6001TIP3    H117946   4.617   4.840   3.627
 6001TIP3    H217947   4.496   4.831   3.537
 6002TIP3   OH217948   3.987   5.919   1.863
 6002TIP3    H117949   3.995   5.911   1.768
 6002TIP3    H217950   3.912   5.864   1.885
 6003TIP3   OH217951   5.898   4.587   4.084
 6003TIP3    H117952   5.831   4.648   4.114
 6003TIP3    H217953   5.941   4.557   4.164
 6004TIP3   OH217954   0.063   4.844   2.195
 6004TIP3    H117955   0.012   4.763   2.186
 6004TIP3    H217956   0.057   4.886   2.109
 6005TIP3   OH217957   6.844   6.610   0.235
 6005TIP3    H117958   6.830   6.545   0.304
 6005TIP3    H217959   6.772   6.595   0.174
 6006TIP3   OH217960   3.413   1.095   1.678
 6006TIP3    H117961   3.416   1.150   1.600
 6006TIP3    H217962   3.345   1.030   1.659
 6007TIP3   OH217963   6.957   1.365   6.670
 6007TIP3    H117964   6.947   1.395   6.760
 6007TIP3    H217965   6.868   1.364   6.635
 6008TIP3   OH217966   7.122   4.518   6.623
 6008TIP3    H117967   7.079   4.549   6.543
 6008TIP3    H217968   7.064   4.545   6.694
 6009TIP3   OH217969   6.654   7.320   4.649
 6009TIP3    H117970   6.572   7.320   4.600
 6009TIP3    H217971   6.695   7.404   4.628
 6010TIP3   OH217972   1.099   7.235   5.410
 6010TIP3    H117973   1.155   7.229   5.488
 6010TIP3    H217974   1.077   7.328   5.403
 6011TIP3   OH217975   7.216   5.944   6.019
 6011TIP3    H117976   7.240   5.935   6.112
 6011TIP3    H217977   7.291   5.987   5.979
 6012TIP3   OH217978   0.670   5.977   5.848
 6012TIP3    H117979   0.761   5.989   5.820
 6012TIP3    H217980   0.635   5.911   5.787
 6013TIP3   OH217981   7.550   4.178   0.985
 6013TIP3    H117982   7.526   4.170   0.893
 6013TIP3    H217983   7.613   4.107   1.000
 6014TIP3   OH217984   5.285   5.423   0.490
 6014TIP3    H117985   5.281   5.517   0.508
 6014TIP3    H217986   5.264   5.415   0.397
 6015TIP3   OH217987   1.726   0.084   4.742
 6015TIP3    H117988   1.644   0.112   4.782
 6015TIP3    H217989   1.700   0.048   4.657
 6016TIP3   OH217990   3.034   3.575   5.254
 6016TIP3    H117991   2.992   3.493   5.280
 6016TIP3    H217992   3.125   3.565   5.282
 6017TIP3   OH217993   6.456   6.133   2.518
 6017TIP3    H117994   6.416   6.050   2.492
 6017TIP3    H217995   6.397   6.170   2.583
 6018TIP3   OH217996   7.355   5.637   6.262
 6018TIP3    H117997   7.264   5.608   6.255
 6018TIP3    H217998   7.370   5.685   6.180
 6019TIP3   OH217999   3.712   0.099   2.052
 6019TIP3    H118000   3.743   0.118   2.140
 6019TIP3    H218001   3.624   0.138   2.048
 6020TIP3   OH218002   6.639   1.442   5.228
 6020TIP3    H118003   6.734   1.443   5.236
 6020TIP3    H218004   6.612   1.529   5.256
 6021TIP3   OH218005   6.864   4.011   2.693
 6021TIP3    H118006   6.871   3.939   2.756
 6021TIP3    H218007   6.951   4.016   2.654
 6022TIP3   OH218008   1.819   0.073   2.270
 6022TIP3    H118009   1.820   0.140   2.201
 6022TIP3    H218010   1.743   0.094   2.323
 6023TIP3   OH218011   0.896   7.758   2.859
 6023TIP3    H118012   0.911   7.664   2.848
 6023TIP3    H218013   0.968   7.799   2.812
 6024TIP3   OH218014   7.530   7.096   1.333
 6024TIP3    H118015   7.624   7.079   1.332
 6024TIP3    H218016   7.510   7.118   1.424
 6025TIP3   OH218017   0.328   3.861   4.642
 6025TIP3    H118018   0.235   3.860   4.662
 6025TIP3    H218019   0.337   3.921   4.568
 6026TIP3   OH218020   4.592   0.135   5.647
 6026TIP3    H118021   4.605   0.056   5.699
 6026TIP3    H218022   4.500   0.133   5.623
 6027TIP3   OH218023   0.492   7.395   2.139
 6027TIP3    H118024   0.517   7.443   2.060
 6027TIP3    H218025   0.498   7.460   2.209
 6028TIP3   OH218026   5.951   5.937   3.858
 6028TIP3    H118027   5.942   6.033   3.852
 6028TIP3    H218028   5.914   5.916   3.944
 6029TIP3   OH218029   0.444   6.182   3.518
 6029TIP3    H118030   0.397   6.100   3.537
 6029TIP3    H218031   0.477   6.211   3.604
 6030TIP3   OH218032   6.884   0.332   5.196
 6030TIP3    H118033   6.802   0.349   5.149
 6030TIP3    H218034   6.953   0.347   5.132
 6031TIP3   OH218035   7.667   5.570   3.667
 6031TIP3    H118036   7.597   5.630   3.643
 6031TIP3    H218037   7.747   5.614   3.638
 6032TIP3   OH218038   0.815   6.509   4.439
 6032TIP3    H118039   0.883   6.528   4.503
 6032TIP3    H218040   0.737   6.553   4.473
 6033TIP3   OH218041   3.444   2.130   6.079
 6033TIP3    H118042   3.536   2.155   6.085
 6033TIP3    H218043   3.444   2.051   6.025
 6034TIP3   OH218044   1.771   1.247   5.422
 6034TIP3    H118045   1.765   1.199   5.339
 6034TIP3    H218046   1.731   1.332   5.402
 6035TIP3   OH218047   1.046   6.536   3.554
 6035TIP3    H118048   1.067   6.623   3.519
 6035TIP3    H218049   1.064   6.476   3.481
 6036TIP3   OH218050   3.367   2.870   0.377
 6036TIP3    H118051   3.344   2.863   0.470
 6036TIP3    H218052   3.426   2.945   0.373
 6037TIP3   OH218053   2.442   5.320   5.338
 6037TIP3    H118054   2.395   5.293   5.416
 6037TIP3    H218055   2.373   5.344   5.275
 6038TIP3   OH218056   5.154   0.496   5.233
 6038TIP3    H118057   5.213   0.432   5.193
 6038TIP3    H218058   5.067   0.466   5.208
 6039TIP3   OH218059   4.933   1.321   3.140
 6039TIP3    H118060   4.938   1.251   3.204
 6039TIP3    H218061   4.979   1.287   3.063
 6040TIP3   OH218062   6.062   4.837   0.728
 6040TIP3    H118063   6.140   4.822   0.781
 6040TIP3    H218064   5.995   4.780   0.767
 6041TIP3   OH218065   7.635   6.929   5.439
 6041TIP3    H118066   7.575   6.855   5.447
 6041TIP3    H218067   7.717   6.891   5.406
 6042TIP3   OH218068   8.038   4.764   5.587
 6042TIP3    H118069   8.108   4.727   5.641
 6042TIP3    H218070   8.011   4.691   5.531
 6043TIP3   OH218071   3.069   3.297   6.142
 6043TIP3    H118072   3.011   3.241   6.091
 6043TIP3    H218073   3.034   3.385   6.131
 6044TIP3   OH218074   1.053   4.302   5.449
 6044TIP3    H118075   1.013   4.384   5.478
 6044TIP3    H218076   0.980   4.240   5.447
 6045TIP3   OH218077   5.408   5.423   4.040
 6045TIP3    H118078   5.326   5.414   4.090
 6045TIP3    H218079   5.476   5.428   4.106
 6046TIP3   OH218080   2.465   4.360   5.887
 6046TIP3    H118081   2.527   4.406   5.943
 6046TIP3    H218082   2.520   4.319   5.819
 6047TIP3   OH218083   0.306   2.545   2.576
 6047TIP3    H118084   0.277   2.634   2.559
 6047TIP3    H218085   0.348   2.549   2.662
 6048TIP3   OH218086   0.833   7.645   1.897
 6048TIP3    H118087   0.829   7.574   1.833
 6048TIP3    H218088   0.788   7.719   1.854
 6049TIP3   OH218089   4.209   1.759   3.202
 6049TIP3    H118090   4.297   1.796   3.212
 6049TIP3    H218091   4.150   1.833   3.214
 6050TIP3   OH218092   0.525   7.540   3.656
 6050TIP3    H118093   0.431   7.530   3.644
 6050TIP3    H218094   0.538   7.633   3.673
 6051TIP3   OH218095   2.820   4.509   2.697
 6051TIP3    H118096   2.817   4.414   2.683
 6051TIP3    H218097   2.855   4.519   2.786
 6052TIP3   OH218098   1.915   0.264   1.853
 6052TIP3    H118099   1.923   0.341   1.797
 6052TIP3    H218100   1.845   0.286   1.914
 6053TIP3   OH218101   5.774   3.194   2.138
 6053TIP3    H118102   5.867   3.213   2.127
 6053TIP3    H218103   5.729   3.263   2.090
 6054TIP3   OH218104   5.829   5.668   6.300
 6054TIP3    H118105   5.753   5.616   6.327
 6054TIP3    H218106   5.836   5.654   6.206
 6055TIP3   OH218107   3.846   2.204   5.140
 6055TIP3    H118108   3.861   2.134   5.203
 6055TIP3    H218109   3.906   2.185   5.068
 6056TIP3   OH218110   2.050   1.774   4.297
 6056TIP3    H118111   2.008   1.713   4.358
 6056TIP3    H218112   2.066   1.722   4.218
 6057TIP3   OH218113   2.726   6.227   1.432
 6057TIP3    H118114   2.750   6.137   1.451
 6057TIP3    H218115   2.792   6.279   1.479
 6058TIP3   OH218116   2.660   6.008   3.167
 6058TIP3    H118117   2.644   5.942   3.234
 6058TIP3    H218118   2.727   5.969   3.111
 6059TIP3   OH218119   0.266   5.538   5.436
 6059TIP3    H118120   0.358   5.526   5.415
 6059TIP3    H218121   0.227   5.451   5.423
 6060TIP3   OH218122   3.047   3.774   3.169
 6060TIP3    H118123   2.991   3.740   3.238
 6060TIP3    H218124   3.103   3.701   3.145
 6061TIP3   OH218125   8.245   4.854   3.893
 6061TIP3    H118126   8.222   4.843   3.801
 6061TIP3    H218127   8.292   4.773   3.916
 6062TIP3   OH218128   0.812   2.902   0.885
 6062TIP3    H118129   0.774   2.822   0.848
 6062TIP3    H218130   0.737   2.948   0.923
 6063TIP3   OH218131   0.499   0.658   1.445
 6063TIP3    H118132   0.448   0.626   1.371
 6063TIP3    H218133   0.581   0.609   1.440
 6064TIP3   OH218134   7.889   4.477   2.922
 6064TIP3    H118135   7.839   4.558   2.938
 6064TIP3    H218136   7.859   4.448   2.835
 6065TIP3   OH218137   0.376   0.587   5.126
 6065TIP3    H118138   0.328   0.512   5.162
 6065TIP3    H218139   0.315   0.626   5.064
 6066TIP3   OH218140   0.217   6.195   4.643
 6066TIP3    H118141   0.247   6.239   4.564
 6066TIP3    H218142   0.130   6.229   4.659
 6067TIP3   OH218143   0.643   2.183   3.430
 6067TIP3    H118144   0.610   2.175   3.520
 6067TIP3    H218145   0.630   2.095   3.393
 6068TIP3   OH218146   7.036   6.563   2.211
 6068TIP3    H118147   6.974   6.544   2.140
 6068TIP3    H218148   7.070   6.477   2.236
 6069TIP3   OH218149   5.566   3.406   0.414
 6069TIP3    H118150   5.488   3.461   0.409
 6069TIP3    H218151   5.559   3.362   0.499
 6070TIP3   OH218152   7.538   4.891   4.485
 6070TIP3    H118153   7.478   4.940   4.541
 6070TIP3    H218154   7.572   4.956   4.424
 6071TIP3   OH218155   4.170   3.426   4.461
 6071TIP3    H118156   4.153   3.401   4.551
 6071TIP3    H218157   4.262   3.455   4.461
 6072TIP3   OH218158   1.870   7.774   6.057
 6072TIP3    H118159   1.926   7.793   5.982
 6072TIP3    H218160   1.831   7.688   6.036
 6073TIP3   OH218161   7.871   4.977   2.324
 6073TIP3    H118162   7.826   5.061   2.315
 6073TIP3    H218163   7.890   4.969   2.417
 6074TIP3   OH218164   8.221   3.724   6.318
 6074TIP3    H118165   8.277   3.691   6.389
 6074TIP3    H218166   8.138   3.745   6.360
 6075TIP3   OH218167   3.098   0.715   4.028
 6075TIP3    H118168   3.051   0.790   4.065
 6075TIP3    H218169   3.041   0.685   3.957
 6076TIP3   OH218170   2.949   5.694   0.564
 6076TIP3    H118171   3.026   5.750   0.566
 6076TIP3    H218172   2.885   5.742   0.511
 6077TIP3   OH218173   2.248   0.594   0.996
 6077TIP3    H118174   2.186   0.535   0.954
 6077TIP3    H218175   2.330   0.545   0.997
 6078TIP3   OH218176   7.046   1.894   3.284
 6078TIP3    H118177   7.108   1.821   3.287
 6078TIP3    H218178   7.060   1.940   3.367
 6079TIP3   OH218179   7.522   0.066   0.256
 6079TIP3    H118180   7.525   0.159   0.231
 6079TIP3    H218181   7.572   0.021   0.188
 6080TIP3   OH218182   4.085   4.841   2.973
 6080TIP3    H118183   4.037   4.917   3.006
 6080TIP3    H218184   4.151   4.878   2.915
 6081TIP3   OH218185   6.151   6.476   5.437
 6081TIP3    H118186   6.101   6.533   5.379
 6081TIP3    H218187   6.242   6.492   5.414
 6082TIP3   OH218188   6.859   0.934   5.161
 6082TIP3    H118189   6.788   0.984   5.119
 6082TIP3    H218190   6.835   0.842   5.147
 6083TIP3   OH218191   0.058   0.782   5.748
 6083TIP3    H118192   0.118   0.764   5.820
 6083TIP3    H218193   0.070   0.708   5.688
 6084TIP3   OH218194   2.463   1.551   0.029
 6084TIP3    H118195   2.404   1.566   0.103
 6084TIP3    H218196   2.441   1.620  -0.034
 6085TIP3   OH218197   5.543   0.504   3.760
 6085TIP3    H118198   5.514   0.413   3.768
 6085TIP3    H218199   5.523   0.543   3.845
 6086TIP3   OH218200   5.700   1.838   1.545
 6086TIP3    H118201   5.681   1.855   1.452
 6086TIP3    H218202   5.613   1.823   1.584
 6087TIP3   OH218203   2.884   4.173   4.212
 6087TIP3    H118204   2.898   4.252   4.160
 6087TIP3    H218205   2.959   4.117   4.192
 6088TIP3   OH218206   2.725   7.441   1.163
 6088TIP3    H118207   2.815   7.410   1.175
 6088TIP3    H218208   2.734   7.534   1.144
 6089TIP3   OH218209   2.299   4.816   3.802
 6089TIP3    H118210   2.358   4.882   3.838
 6089TIP3    H218211   2.216   4.830   3.847
 6090TIP3   OH218212   2.032   3.117   6.239
 6090TIP3    H118213   2.083   3.175   6.296
 6090TIP3    H218214   2.061   3.140   6.151
 6091TIP3   OH218215   1.507   1.475   4.344
 6091TIP3    H118216   1.485   1.525   4.422
 6091TIP3    H218217   1.428   1.425   4.323
 6092TIP3   OH218218   3.544   0.199   6.588
 6092TIP3    H118219   3.520   0.285   6.623
 6092TIP3    H218220   3.467   0.170   6.540
 6093TIP3   OH218221   6.746   5.298   4.149
 6093TIP3    H118222   6.816   5.355   4.179
 6093TIP3    H218223   6.726   5.330   4.061
 6094TIP3   OH218224   5.301   3.291   3.893
 6094TIP3    H118225   5.301   3.366   3.953
 6094TIP3    H218226   5.247   3.319   3.819
 6095TIP3   OH218227   5.238   1.433   1.065
 6095TIP3    H118228   5.208   1.512   1.020
 6095TIP3    H218229   5.167   1.412   1.126
 6096TIP3   OH218230   2.721   4.997   0.190
 6096TIP3    H118231   2.732   5.013   0.284
 6096TIP3    H218232   2.737   5.082   0.150
 6097TIP3   OH218233   2.590   2.703   0.102
 6097TIP3    H118234   2.626   2.635   0.158
 6097TIP3    H218235   2.554   2.768   0.163
 6098TIP3   OH218236   4.308   2.235   0.466
 6098TIP3    H118237   4.242   2.250   0.533
 6098TIP3    H218238   4.302   2.311   0.408
 6099TIP3   OH218239   6.141   0.616   5.891
 6099TIP3    H118240   6.057   0.588   5.854
 6099TIP3    H218241   6.171   0.541   5.942
 6100TIP3   OH218242   7.317   3.994   1.071
 6100TIP3    H118243   7.327   3.955   0.984
 6100TIP3    H218244   7.345   4.085   1.060
 6101TIP3   OH218245   0.683   3.230   4.957
 6101TIP3    H118246   0.705   3.273   5.039
 6101TIP3    H218247   0.588   3.230   4.955
 6102TIP3   OH218248   5.776   2.368   6.442
 6102TIP3    H118249   5.748   2.459   6.433
 6102TIP3    H218250   5.742   2.340   6.527
 6103TIP3   OH218251   3.000   3.905   0.951
 6103TIP3    H118252   2.947   3.985   0.947
 6103TIP3    H218253   2.948   3.839   0.907
 6104TIP3   OH218254   8.256   2.198   3.120
 6104TIP3    H118255   8.173   2.161   3.089
 6104TIP3    H218256   8.237   2.228   3.208
 6105TIP3   OH218257   2.258   3.246   6.369
 6105TIP3    H118258   2.288   3.292   6.447
 6105TIP3    H218259   2.303   3.162   6.372
 6106TIP3   OH218260   7.370   3.683   0.245
 6106TIP3    H118261   7.286   3.730   0.254
 6106TIP3    H218262   7.398   3.668   0.335
 6107TIP3   OH218263   8.141   0.789   0.498
 6107TIP3    H118264   8.235   0.798   0.508
 6107TIP3    H218265   8.126   0.694   0.493
 6108TIP3   OH218266   6.318   2.332   5.116
 6108TIP3    H118267   6.284   2.248   5.145
 6108TIP3    H218268   6.277   2.396   5.174
 6109TIP3   OH218269   1.635   6.822   4.561
 6109TIP3    H118270   1.678   6.746   4.599
 6109TIP3    H218271   1.684   6.841   4.482
 6110TIP3   OH218272   5.006   1.071   3.789
 6110TIP3    H118273   5.070   1.085   3.859
 6110TIP3    H218274   5.018   1.146   3.731
 6111TIP3   OH218275   1.118   0.247   5.072
 6111TIP3    H118276   1.072   0.164   5.071
 6111TIP3    H218277   1.192   0.233   5.132
 6112TIP3   OH218278   1.196   5.976   3.449
 6112TIP3    H118279   1.275   6.008   3.406
 6112TIP3    H218280   1.228   5.933   3.529
 6113TIP3   OH218281   4.607   6.902   3.889
 6113TIP3    H118282   4.540   6.898   3.957
 6113TIP3    H218283   4.668   6.832   3.912
 6114TIP3   OH218284   1.003   6.495   4.243
 6114TIP3    H118285   0.968   6.507   4.155
 6114TIP3    H218286   0.927   6.499   4.301
 6115TIP3   OH218287   1.042   7.747   4.955
 6115TIP3    H118288   1.099   7.809   5.001
 6115TIP3    H218289   1.062   7.662   4.995
 6116TIP3   OH218290   8.214   3.446   4.381
 6116TIP3    H118291   8.275   3.496   4.327
 6116TIP3    H218292   8.240   3.354   4.367
 6117TIP3   OH218293   7.197   6.543   3.175
 6117TIP3    H118294   7.234   6.609   3.234
 6117TIP3    H218295   7.260   6.535   3.104
 6118TIP3   OH218296   8.057   3.797   1.202
 6118TIP3    H118297   8.023   3.859   1.268
 6118TIP3    H218298   7.997   3.806   1.128
 6119TIP3   OH218299   2.483   6.674   6.241
 6119TIP3    H118300   2.534   6.704   6.316
 6119TIP3    H218301   2.536   6.696   6.165
 6120TIP3   OH218302   6.854   0.646   6.227
 6120TIP3    H118303   6.811   0.662   6.311
 6120TIP3    H218304   6.881   0.732   6.196
 6121TIP3   OH218305   6.177   0.557   3.459
 6121TIP3    H118306   6.081   0.566   3.459
 6121TIP3    H218307   6.204   0.603   3.379
 6122TIP3   OH218308   8.073   1.041   1.944
 6122TIP3    H118309   8.002   0.990   1.982
 6122TIP3    H218310   8.138   1.048   2.014
 6123TIP3   OH218311   0.507   4.722   6.311
 6123TIP3    H118312   0.421   4.764   6.308
 6123TIP3    H218313   0.489   4.634   6.345
 6124TIP3   OH218314   4.093   2.421   6.116
 6124TIP3    H118315   4.147   2.457   6.186
 6124TIP3    H218316   4.145   2.348   6.081
 6125TIP3   OH218317   7.026  -0.046   2.182
 6125TIP3    H118318   7.048   0.039   2.219
 6125TIP3    H218319   7.020  -0.031   2.088
 6126TIP3   OH218320   5.222   6.587   6.591
 6126TIP3    H118321   5.255   6.598   6.680
 6126TIP3    H218322   5.205   6.493   6.583
 6127TIP3   OH218323   4.161   5.426   0.419
 6127TIP3    H118324   4.131   5.336   0.405
 6127TIP3    H218325   4.164   5.464   0.331
 6128TIP3   OH218326   5.649   4.749   5.903
 6128TIP3    H118327   5.727   4.804   5.907
 6128TIP3    H218328   5.583   4.804   5.860
 6129TIP3   OH218329   6.781   0.762   4.609
 6129TIP3    H118330   6.817   0.745   4.697
 6129TIP3    H218331   6.731   0.683   4.588
 6130TIP3   OH218332   4.890   0.320   1.367
 6130TIP3    H118333   4.953   0.392   1.359
 6130TIP3    H218334   4.845   0.336   1.450
 6131TIP3   OH218335   4.928   6.490   5.370
 6131TIP3    H118336   4.964   6.564   5.420
 6131TIP3    H218337   4.844   6.522   5.337
 6132TIP3   OH218338   3.404   3.518   1.067
 6132TIP3    H118339   3.491   3.549   1.093
 6132TIP3    H218340   3.405   3.425   1.087
 6133TIP3   OH218341   3.948   1.831   2.299
 6133TIP3    H118342   3.947   1.924   2.278
 6133TIP3    H218343   4.033   1.816   2.340
 6134TIP3   OH218344   7.556   7.511   1.044
 6134TIP3    H118345   7.515   7.431   1.078
 6134TIP3    H218346   7.493   7.547   0.983
 6135TIP3   OH218347   5.368   2.568   5.262
 6135TIP3    H118348   5.362   2.589   5.355
 6135TIP3    H218349   5.442   2.619   5.230
 6136TIP3   OH218350   0.510   5.290   1.952
 6136TIP3    H118351   0.427   5.327   1.924
 6136TIP3    H218352   0.486   5.221   2.014
 6137TIP3   OH218353   3.613   0.908   2.812
 6137TIP3    H118354   3.626   0.988   2.863
 6137TIP3    H218355   3.522   0.912   2.783
 6138TIP3   OH218356   3.420   2.587   0.660
 6138TIP3    H118357   3.410   2.492   0.656
 6138TIP3    H218358   3.459   2.610   0.576
 6139TIP3   OH218359   0.561   0.441   6.169
 6139TIP3    H118360   0.634   0.387   6.199
 6139TIP3    H218361   0.581   0.529   6.202
 6140TIP3   OH218362   7.552   0.878   4.222
 6140TIP3    H118363   7.639   0.918   4.216
 6140TIP3    H218364   7.510   0.899   4.139
 6141TIP3   OH218365   4.425   4.439   2.097
 6141TIP3    H118366   4.424   4.522   2.049
 6141TIP3    H218367   4.415   4.372   2.028
 6142TIP3   OH218368   2.741   5.678   5.910
 6142TIP3    H118369   2.681   5.632   5.850
 6142TIP3    H218370   2.706   5.660   5.997
 6143TIP3   OH218371   7.584   6.402   0.143
 6143TIP3    H118372   7.530   6.332   0.178
 6143TIP3    H218373   7.522   6.463   0.103
 6144TIP3   OH218374   5.894   5.565   6.734
 6144TIP3    H118375   5.972   5.620   6.736
 6144TIP3    H218376   5.890   5.526   6.821
 6145TIP3   OH218377   0.060   4.611   4.876
 6145TIP3    H118378   0.147   4.648   4.892
 6145TIP3    H218379  -0.001   4.676   4.910
 6146TIP3   OH218380   7.034   6.772   2.395
 6146TIP3    H118381   6.942   6.797   2.405
 6146TIP3    H218382   7.033   6.700   2.332
 6147TIP3   OH218383   3.973   3.403   1.294
 6147TIP3    H118384   4.050   3.359   1.257
 6147TIP3    H218385   3.994   3.416   1.386
 6148TIP3   OH218386   8.247   0.166   6.391
 6148TIP3    H118387   8.197   0.246   6.380
 6148TIP3    H218388   8.320   0.190   6.449
 6149TIP3   OH218389   6.107   2.075   1.268
 6149TIP3    H118390   6.076   2.019   1.339
 6149TIP3    H218391   6.143   2.013   1.204
 6150TIP3   OH218392   3.341   6.692   1.184
 6150TIP3    H118393   3.351   6.625   1.116
 6150TIP3    H218394   3.251   6.682   1.215
 6151TIP3   OH218395   3.290   7.323   0.253
 6151TIP3    H118396   3.277   7.372   0.334
 6151TIP3    H218397   3.362   7.369   0.209
 6152TIP3   OH218398   3.600   7.582   6.478
 6152TIP3    H118399   3.543   7.509   6.501
 6152TIP3    H218400   3.553   7.660   6.506
 6153TIP3   OH218401   5.500   4.901   2.247
 6153TIP3    H118402   5.520   4.952   2.168
 6153TIP3    H218403   5.504   4.810   2.219
 6154TIP3   OH218404   6.891   2.602   4.590
 6154TIP3    H118405   6.832   2.541   4.546
 6154TIP3    H218406   6.956   2.625   4.523
 6155TIP3   OH218407   1.216   0.535   6.245
 6155TIP3    H118408   1.150   0.602   6.261
 6155TIP3    H218409   1.172   0.453   6.266
 6156TIP3   OH218410   8.247   4.102   6.249
 6156TIP3    H118411   8.281   4.096   6.339
 6156TIP3    H218412   8.319   4.071   6.194
 6157TIP3   OH218413   2.034   2.620   5.918
 6157TIP3    H118414   1.940   2.605   5.929
 6157TIP3    H218415   2.052   2.596   5.827
 6158TIP3   OH218416   2.427   1.026   3.807
 6158TIP3    H118417   2.355   0.966   3.791
 6158TIP3    H218418   2.471   1.035   3.722
 6159TIP3   OH218419   0.035   2.444   2.877
 6159TIP3    H118420   0.095   2.499   2.928
 6159TIP3    H218421   0.072   2.356   2.883
 6160TIP3   OH218422   2.847   2.122   6.279
 6160TIP3    H118423   2.781   2.057   6.303
 6160TIP3    H218424   2.930   2.075   6.282
 6161TIP3   OH218425   7.424   0.886   0.103
 6161TIP3    H118426   7.365   0.923   0.038
 6161TIP3    H218427   7.502   0.862   0.053
 6162TIP3   OH218428   7.657   5.432   4.631
 6162TIP3    H118429   7.744   5.457   4.663
 6162TIP3    H218430   7.648   5.480   4.548
 6163TIP3   OH218431   0.922   2.805   1.354
 6163TIP3    H118432   0.844   2.811   1.299
 6163TIP3    H218433   0.944   2.896   1.375
 6164TIP3   OH218434   4.367   7.794   3.167
 6164TIP3    H118435   4.392   7.719   3.222
 6164TIP3    H218436   4.302   7.841   3.219
 6165TIP3   OH218437   4.208   0.931   3.720
 6165TIP3    H118438   4.266   0.917   3.795
 6165TIP3    H218439   4.129   0.969   3.757
 6166TIP3   OH218440   5.934   0.267   0.208
 6166TIP3    H118441   5.920   0.241   0.299
 6166TIP3    H218442   5.955   0.360   0.212
 6167TIP3   OH218443   0.070   7.765   6.126
 6167TIP3    H118444   0.149   7.761   6.073
 6167TIP3    H218445   0.042   7.674   6.134
 6168TIP3   OH218446   7.819   3.570   3.611
 6168TIP3    H118447   7.857   3.571   3.524
 6168TIP3    H218448   7.855   3.647   3.655
 6169TIP3   OH218449   4.340   1.687   3.734
 6169TIP3    H118450   4.374   1.664   3.647
 6169TIP3    H218451   4.284   1.613   3.758
 6170TIP3   OH218452   0.558   0.737   3.951
 6170TIP3    H118453   0.579   0.824   3.985
 6170TIP3    H218454   0.640   0.708   3.909
 6171TIP3   OH218455   5.400   4.504   5.371
 6171TIP3    H118456   5.410   4.411   5.390
 6171TIP3    H218457   5.435   4.514   5.282
 6172TIP3   OH218458   3.904   2.906   1.406
 6172TIP3    H118459   3.902   2.816   1.373
 6172TIP3    H218460   3.959   2.953   1.344
 6173TIP3   OH218461   7.391   1.518   3.180
 6173TIP3    H118462   7.385   1.542   3.087
 6173TIP3    H218463   7.352   1.431   3.184
 6174TIP3   OH218464   3.673   7.460   3.970
 6174TIP3    H118465   3.708   7.527   4.029
 6174TIP3    H218466   3.726   7.468   3.891
 6175TIP3   OH218467   2.031   1.454   5.654
 6175TIP3    H118468   1.972   1.391   5.694
 6175TIP3    H218469   2.052   1.417   5.568
 6176TIP3   OH218470   5.880   2.723   5.210
 6176TIP3    H118471   5.909   2.739   5.120
 6176TIP3    H218472   5.929   2.644   5.237
 6177TIP3   OH218473   6.195   7.211   0.251
 6177TIP3    H118474   6.169   7.147   0.184
 6177TIP3    H218475   6.248   7.275   0.204
 6178TIP3   OH218476   3.463   3.519   5.143
 6178TIP3    H118477   3.557   3.517   5.160
 6178TIP3    H218478   3.454   3.492   5.052
 6179TIP3   OH218479   6.599   2.510   1.614
 6179TIP3    H118480   6.585   2.428   1.660
 6179TIP3    H218481   6.515   2.556   1.619
 6180TIP3   OH218482   5.357   3.076   2.081
 6180TIP3    H118483   5.302   3.052   2.155
 6180TIP3    H218484   5.415   3.144   2.115
 6181TIP3   OH218485   4.518   5.122   6.551
 6181TIP3    H118486   4.516   5.047   6.491
 6181TIP3    H218487   4.598   5.110   6.602
 6182TIP3   OH218488   8.221   3.440   1.040
 6182TIP3    H118489   8.242   3.485   1.122
 6182TIP3    H218490   8.191   3.353   1.068
 6183TIP3   OH218491   3.515   2.527   1.705
 6183TIP3    H118492   3.537   2.620   1.714
 6183TIP3    H218493   3.594   2.481   1.735
 6184TIP3   OH218494   1.377   1.912   3.964
 6184TIP3    H118495   1.377   2.004   3.989
 6184TIP3    H218496   1.470   1.890   3.954
 6185TIP3   OH218497   7.201   2.653   5.091
 6185TIP3    H118498   7.255   2.588   5.136
 6185TIP3    H218499   7.249   2.672   5.010
 6186TIP3   OH218500   2.129   4.269   2.763
 6186TIP3    H118501   2.093   4.287   2.676
 6186TIP3    H218502   2.178   4.348   2.785
 6187TIP3   OH218503   5.836   0.580   4.819
 6187TIP3    H118504   5.880   0.583   4.903
 6187TIP3    H218505   5.869   0.655   4.771
 6188TIP3   OH218506   0.558   1.969   1.092
 6188TIP3    H118507   0.592   1.923   1.015
 6188TIP3    H218508   0.489   1.912   1.125
 6189TIP3   OH218509   2.859   3.871   5.809
 6189TIP3    H118510   2.855   3.795   5.751
 6189TIP3    H218511   2.769   3.887   5.835
 6190TIP3   OH218512   5.906   2.448   3.969
 6190TIP3    H118513   5.937   2.435   3.880
 6190TIP3    H218514   5.967   2.397   4.023
 6191TIP3   OH218515   0.810   6.243   0.985
 6191TIP3    H118516   0.845   6.162   0.948
 6191TIP3    H218517   0.871   6.311   0.957
 6192TIP3   OH218518   1.856   0.195   1.065
 6192TIP3    H118519   1.858   0.250   1.144
 6192TIP3    H218520   1.878   0.255   0.994
 6193TIP3   OH218521   8.015   4.242   5.919
 6193TIP3    H118522   7.929   4.203   5.933
 6193TIP3    H218523   8.076   4.168   5.927
 6194TIP3   OH218524   7.304   7.551   0.870
 6194TIP3    H118525   7.242   7.552   0.797
 6194TIP3    H218526   7.249   7.544   0.948
 6195TIP3   OH218527   1.823   3.036   5.816
 6195TIP3    H118528   1.728   3.037   5.801
 6195TIP3    H218529   1.856   3.109   5.763
 6196TIP3   OH218530   7.110   1.629   6.602
 6196TIP3    H118531   7.172   1.572   6.648
 6196TIP3    H218532   7.073   1.574   6.534
 6197TIP3   OH218533   1.819   6.372   4.143
 6197TIP3    H118534   1.782   6.460   4.147
 6197TIP3    H218535   1.743   6.314   4.145
 6198TIP3   OH218536   6.162   3.546   3.409
 6198TIP3    H118537   6.223   3.508   3.346
 6198TIP3    H218538   6.077   3.511   3.384
 6199TIP3   OH218539   1.999   0.186   6.620
 6199TIP3    H118540   2.049   0.144   6.550
 6199TIP3    H218541   1.953   0.115   6.663
 6200TIP3   OH218542   0.548   4.448   1.645
 6200TIP3    H118543   0.456   4.424   1.644
 6200TIP3    H218544   0.550   4.534   1.688
 6201TIP3   OH218545   5.521   0.188   3.599
 6201TIP3    H118546   5.504   0.115   3.541
 6201TIP3    H218547   5.600   0.163   3.647
 6202TIP3   OH218548   2.383   6.296   0.710
 6202TIP3    H118549   2.335   6.230   0.661
 6202TIP3    H218550   2.465   6.252   0.735
 6203TIP3   OH218551   4.510   5.479   5.439
 6203TIP3    H118552   4.488   5.567   5.471
 6203TIP3    H218553   4.445   5.462   5.371
 6204TIP3   OH218554   2.903   0.174   5.877
 6204TIP3    H118555   2.835   0.108   5.865
 6204TIP3    H218556   2.977   0.141   5.826
 6205TIP3   OH218557   3.488   6.747   2.218
 6205TIP3    H118558   3.395   6.744   2.196
 6205TIP3    H218559   3.521   6.661   2.194
 6206TIP3   OH218560   2.153   3.818   5.854
 6206TIP3    H118561   2.241   3.824   5.817
 6206TIP3    H218562   2.163   3.851   5.944
 6207TIP3   OH218563   0.844   7.429   3.708
 6207TIP3    H118564   0.871   7.354   3.760
 6207TIP3    H218565   0.919   7.489   3.711
 6208TIP3   OH218566   6.760   6.282   4.659
 6208TIP3    H118567   6.764   6.340   4.582
 6208TIP3    H218568   6.725   6.337   4.729
 6209TIP3   OH218569   6.164   3.393   4.416
 6209TIP3    H118570   6.236   3.444   4.378
 6209TIP3    H218571   6.131   3.340   4.344
 6210TIP3   OH218572   0.918   2.953   2.749
 6210TIP3    H118573   0.980   2.920   2.814
 6210TIP3    H218574   0.935   2.901   2.671
 6211TIP3   OH218575   3.402   5.995   4.193
 6211TIP3    H118576   3.457   5.942   4.249
 6211TIP3    H218577   3.338   5.934   4.156
 6212TIP3   OH218578   2.783   7.289   6.155
 6212TIP3    H118579   2.697   7.250   6.138
 6212TIP3    H218580   2.825   7.292   6.069
 6213TIP3   OH218581   3.327   0.038   0.732
 6213TIP3    H118582   3.406   0.090   0.716
 6213TIP3    H218583   3.276   0.047   0.652
 6214TIP3   OH218584   5.915   2.916   4.316
 6214TIP3    H118585   5.987   2.967   4.280
 6214TIP3    H218586   5.957   2.838   4.352
 6215TIP3   OH218587   2.206   1.470   0.599
 6215TIP3    H118588   2.204   1.497   0.691
 6215TIP3    H218589   2.223   1.550   0.550
 6216TIP3   OH218590   4.250   7.718   4.520
 6216TIP3    H118591   4.344   7.737   4.529
 6216TIP3    H218592   4.239   7.698   4.427
 6217TIP3   OH218593   0.379   3.787   6.287
 6217TIP3    H118594   0.334   3.752   6.211
 6217TIP3    H218595   0.320   3.855   6.320
 6218TIP3   OH218596   4.783   5.873   0.623
 6218TIP3    H118597   4.747   5.806   0.565
 6218TIP3    H218598   4.755   5.846   0.711
 6219TIP3   OH218599   8.207   1.890   1.710
 6219TIP3    H118600   8.239   1.980   1.700
 6219TIP3    H218601   8.113   1.900   1.726
 6220TIP3   OH218602   4.625   3.458   1.803
 6220TIP3    H118603   4.669   3.542   1.820
 6220TIP3    H218604   4.551   3.457   1.864
 6221TIP3   OH218605   6.959   3.959   2.239
 6221TIP3    H118606   7.034   3.901   2.233
 6221TIP3    H218607   6.980   4.032   2.182
 6222TIP3   OH218608   7.212   0.628   5.040
 6222TIP3    H118609   7.305   0.624   5.064
 6222TIP3    H218610   7.212   0.638   4.945
 6223TIP3   OH218611   4.514   3.015   1.091
 6223TIP3    H118612   4.593   3.047   1.134
 6223TIP3    H218613   4.457   2.988   1.163
 6224TIP3   OH218614   4.111   7.256   0.049
 6224TIP3    H118615   4.118   7.214   0.135
 6224TIP3    H218616   4.061   7.336   0.066
 6225TIP3   OH218617   6.174   4.391   5.038
 6225TIP3    H118618   6.220   4.325   4.986
 6225TIP3    H218619   6.232   4.467   5.036
 6226TIP3   OH218620   3.229   1.749   0.313
 6226TIP3    H118621   3.312   1.719   0.276
 6226TIP3    H218622   3.253   1.792   0.395
 6227TIP3   OH218623   4.561   3.042   1.900
 6227TIP3    H118624   4.514   3.114   1.943
 6227TIP3    H218625   4.648   3.078   1.882
 6228TIP3   OH218626   1.982   4.006   6.372
 6228TIP3    H118627   1.942   4.024   6.288
 6228TIP3    H218628   2.070   3.975   6.350
 6229TIP3   OH218629   5.740   2.572   2.071
 6229TIP3    H118630   5.646   2.589   2.075
 6229TIP3    H218631   5.777   2.626   2.141
 6230TIP3   OH218632   3.953   6.765   0.065
 6230TIP3    H118633   3.903   6.755  -0.016
 6230TIP3    H218634   3.963   6.676   0.098
 6231TIP3   OH218635   2.495   4.724   1.537
 6231TIP3    H118636   2.488   4.749   1.445
 6231TIP3    H218637   2.405   4.703   1.563
 6232TIP3   OH218638   6.830   2.031   2.199
 6232TIP3    H118639   6.910   2.082   2.185
 6232TIP3    H218640   6.857   1.940   2.190
 6233TIP3   OH218641   2.602   0.549   5.756
 6233TIP3    H118642   2.691   0.520   5.777
 6233TIP3    H218643   2.613   0.610   5.683
 6234TIP3   OH218644   8.094   1.382   1.444
 6234TIP3    H118645   8.066   1.307   1.391
 6234TIP3    H218646   8.186   1.365   1.462
 6235TIP3   OH218647   2.313   4.364   5.656
 6235TIP3    H118648   2.373   4.436   5.635
 6235TIP3    H218649   2.323   4.352   5.750
 6236TIP3   OH218650   0.881   1.675   5.839
 6236TIP3    H118651   0.804   1.684   5.896
 6236TIP3    H218652   0.955   1.702   5.893
 6237TIP3   OH218653   6.796   2.667   0.510
 6237TIP3    H118654   6.809   2.656   0.416
 6237TIP3    H218655   6.862   2.730   0.537
 6238TIP3   OH218656   1.144   7.670   6.436
 6238TIP3    H118657   1.085   7.703   6.503
 6238TIP3    H218658   1.132   7.730   6.361
 6239TIP3   OH218659   3.325   7.661   2.226
 6239TIP3    H118660   3.296   7.738   2.275
 6239TIP3    H218661   3.261   7.593   2.247
 6240TIP3   OH218662   1.053   2.598   6.159
 6240TIP3    H118663   1.139   2.557   6.168
 6240TIP3    H218664   1.072   2.691   6.147
 6241TIP3   OH218665   1.531   1.765   6.134
 6241TIP3    H118666   1.496   1.846   6.170
 6241TIP3    H218667   1.460   1.729   6.081
 6242TIP3   OH218668   0.428   6.708   4.817
 6242TIP3    H118669   0.348   6.740   4.857
 6242TIP3    H218670   0.499   6.752   4.864
 6243TIP3   OH218671   5.593   4.539   0.261
 6243TIP3    H118672   5.631   4.464   0.216
 6243TIP3    H218673   5.644   4.614   0.231
 6244TIP3   OH218674   2.901   3.736   2.221
 6244TIP3    H118675   2.942   3.654   2.194
 6244TIP3    H218676   2.844   3.713   2.294
 6245TIP3   OH218677   7.563   4.435   2.299
 6245TIP3    H118678   7.571   4.429   2.394
 6245TIP3    H218679   7.623   4.368   2.266
 6246TIP3   OH218680   6.050   5.563   4.177
 6246TIP3    H118681   5.976   5.535   4.123
 6246TIP3    H218682   6.127   5.524   4.136
 6247TIP3   OH218683   6.460   0.101   4.310
 6247TIP3    H118684   6.472   0.048   4.231
 6247TIP3    H218685   6.531   0.073   4.368
 6248TIP3   OH218686   2.765   0.195   1.996
 6248TIP3    H118687   2.763   0.099   1.992
 6248TIP3    H218688   2.830   0.214   2.064
 6249TIP3   OH218689   4.248   0.378   0.051
 6249TIP3    H118690   4.228   0.291   0.016
 6249TIP3    H218691   4.216   0.439  -0.016
 6250TIP3   OH218692   1.702   7.122   2.185
 6250TIP3    H118693   1.613   7.154   2.167
 6250TIP3    H218694   1.731   7.083   2.102
 6251TIP3   OH218695   2.973   7.231   3.540
 6251TIP3    H118696   2.929   7.215   3.623
 6251TIP3    H218697   2.902   7.236   3.476
 6252TIP3   OH218698   2.632   3.325   1.857
 6252TIP3    H118699   2.631   3.368   1.943
 6252TIP3    H218700   2.595   3.390   1.797
 6253TIP3   OH218701   0.890   4.275   0.434
 6253TIP3    H118702   0.795   4.269   0.428
 6253TIP3    H218703   0.912   4.226   0.513
 6254TIP3   OH218704   0.395   4.292   2.594
 6254TIP3    H118705   0.402   4.270   2.687
 6254TIP3    H218706   0.381   4.387   2.592
 6255TIP3   OH218707   5.419   4.687   6.507
 6255TIP3    H118708   5.332   4.728   6.508
 6255TIP3    H218709   5.480   4.761   6.506
 6256TIP3   OH218710   1.815   3.200   6.410
 6256TIP3    H118711   1.873   3.140   6.362
 6256TIP3    H218712   1.832   3.182   6.502
 6257TIP3   OH218713   2.143   2.786   3.617
 6257TIP3    H118714   2.138   2.781   3.712
 6257TIP3    H218715   2.109   2.701   3.587
 6258TIP3   OH218716   2.372   4.638   4.226
 6258TIP3    H118717   2.332   4.626   4.139
 6258TIP3    H218718   2.464   4.617   4.213
 6259TIP3   OH218719   6.736   0.681   3.477
 6259TIP3    H118720   6.786   0.651   3.401
 6259TIP3    H218721   6.694   0.762   3.449
 6260TIP3   OH218722   6.056   1.481   5.934
 6260TIP3    H118723   6.086   1.393   5.910
 6260TIP3    H218724   5.988   1.502   5.870
 6261TIP3   OH218725   4.236   3.670   5.894
 6261TIP3    H118726   4.298   3.606   5.860
 6261TIP3    H218727   4.261   3.682   5.985
 6262TIP3   OH218728   6.584   5.577   2.000
 6262TIP3    H118729   6.659   5.627   1.969
 6262TIP3    H218730   6.602   5.561   2.093
 6263TIP3   OH218731   0.798   7.162   1.795
 6263TIP3    H118732   0.790   7.098   1.865
 6263TIP3    H218733   0.822   7.112   1.718
 6264TIP3   OH218734   2.497   3.111   1.428
 6264TIP3    H118735   2.435   3.038   1.434
 6264TIP3    H218736   2.484   3.146   1.340
 6265TIP3   OH218737   1.449   5.180   6.545
 6265TIP3    H118738   1.495   5.157   6.626
 6265TIP3    H218739   1.475   5.112   6.483
 6266TIP3   OH218740   2.449   2.642   1.705
 6266TIP3    H118741   2.362   2.680   1.693
 6266TIP3    H218742   2.449   2.610   1.795
 6267TIP3   OH218743   5.522   5.390   3.608
 6267TIP3    H118744   5.507   5.351   3.521
 6267TIP3    H218745   5.453   5.353   3.663
 6268TIP3   OH218746   4.649   5.768   3.094
 6268TIP3    H118747   4.717   5.704   3.113
 6268TIP3    H218748   4.665   5.792   3.002
 6269TIP3   OH218749   1.418   4.693   5.991
 6269TIP3    H118750   1.401   4.611   5.945
 6269TIP3    H218751   1.366   4.686   6.071
 6270TIP3   OH218752   3.407   6.521   5.335
 6270TIP3    H118753   3.318   6.496   5.361
 6270TIP3    H218754   3.415   6.489   5.245
 6271TIP3   OH218755   1.557   0.005   0.328
 6271TIP3    H118756   1.585   0.093   0.352
 6271TIP3    H218757   1.555   0.007   0.232
 6272TIP3   OH218758   6.565   1.755   4.862
 6272TIP3    H118759   6.522   1.840   4.872
 6272TIP3    H218760   6.658   1.776   4.858
 6273TIP3   OH218761   7.598   2.515   5.093
 6273TIP3    H118762   7.621   2.520   5.000
 6273TIP3    H218763   7.505   2.494   5.094
 6274TIP3   OH218764   7.953   0.961   3.749
 6274TIP3    H118765   8.032   0.911   3.768
 6274TIP3    H218766   7.979   1.021   3.679
 6275TIP3   OH218767   2.223   7.026   5.710
 6275TIP3    H118768   2.139   7.000   5.671
 6275TIP3    H218769   2.218   6.996   5.801
 6276TIP3   OH218770   8.167   5.672   4.933
 6276TIP3    H118771   8.199   5.756   4.965
 6276TIP3    H218772   8.207   5.607   4.991
 6277TIP3   OH218773   8.082   4.185   2.498
 6277TIP3    H118774   8.043   4.263   2.459
 6277TIP3    H218775   8.086   4.121   2.427
 6278TIP3   OH218776   0.351   5.361   0.555
 6278TIP3    H118777   0.348   5.302   0.480
 6278TIP3    H218778   0.287   5.430   0.534
 6279TIP3   OH218779   3.271   3.826   3.978
 6279TIP3    H118780   3.361   3.857   3.974
 6279TIP3    H218781   3.254   3.814   4.071
 6280TIP3   OH218782   4.183   3.933   5.368
 6280TIP3    H118783   4.100   3.908   5.409
 6280TIP3    H218784   4.169   4.022   5.336
 6281TIP3   OH218785   1.258   4.745   5.712
 6281TIP3    H118786   1.268   4.791   5.795
 6281TIP3    H218787   1.321   4.787   5.653
 6282TIP3   OH218788   5.939   6.817   5.078
 6282TIP3    H118789   5.974   6.898   5.041
 6282TIP3    H218790   5.844   6.831   5.082
 6283TIP3   OH218791   3.589   6.199   6.502
 6283TIP3    H118792   3.572   6.198   6.408
 6283TIP3    H218793   3.632   6.283   6.518
 6284TIP3   OH218794   5.014   2.037   1.990
 6284TIP3    H118795   5.085   2.022   2.052
 6284TIP3    H218796   4.943   2.071   2.043
 6285TIP3   OH218797   0.446   7.207   6.297
 6285TIP3    H118798   0.532   7.168   6.317
 6285TIP3    H218799   0.466   7.278   6.237
 6286TIP3   OH218800   4.517   5.073   0.316
 6286TIP3    H118801   4.598   5.062   0.267
 6286TIP3    H218802   4.472   5.145   0.272
 6287TIP3   OH218803   7.767   1.750   3.274
 6287TIP3    H118804   7.790   1.658   3.286
 6287TIP3    H218805   7.787   1.768   3.182
 6288TIP3   OH218806   7.710   2.985   0.861
 6288TIP3    H118807   7.706   2.904   0.913
 6288TIP3    H218808   7.770   2.964   0.789
 6289TIP3   OH218809   4.078   4.267   1.573
 6289TIP3    H118810   4.128   4.272   1.654
 6289TIP3    H218811   4.036   4.353   1.565
 6290TIP3   OH218812   0.909   2.464   5.769
 6290TIP3    H118813   0.912   2.369   5.779
 6290TIP3    H218814   1.000   2.491   5.761
 6291TIP3   OH218815   3.027   1.074   2.936
 6291TIP3    H118816   3.062   1.016   2.868
 6291TIP3    H218817   3.058   1.036   3.018
 6292TIP3   OH218818   4.464   1.325   3.704
 6292TIP3    H118819   4.385   1.306   3.654
 6292TIP3    H218820   4.494   1.410   3.672
 6293TIP3   OH218821   1.734   2.829   2.044
 6293TIP3    H118822   1.651   2.842   2.091
 6293TIP3    H218823   1.728   2.740   2.010
 6294TIP3   OH218824   6.665   4.631   0.796
 6294TIP3    H118825   6.619   4.611   0.877
 6294TIP3    H218826   6.609   4.595   0.727
 6295TIP3   OH218827   1.824   2.712   3.979
 6295TIP3    H118828   1.879   2.790   3.991
 6295TIP3    H218829   1.819   2.672   4.065
 6296TIP3   OH218830   6.163   6.338   2.785
 6296TIP3    H118831   6.148   6.244   2.787
 6296TIP3    H218832   6.194   6.360   2.873
 6297TIP3   OH218833   0.861   6.804   5.463
 6297TIP3    H118834   0.798   6.875   5.452
 6297TIP3    H218835   0.855   6.753   5.382
 6298TIP3   OH218836   2.498   1.634   1.719
 6298TIP3    H118837   2.403   1.632   1.734
 6298TIP3    H218838   2.534   1.670   1.800
 6299TIP3   OH218839   2.171   4.958   5.867
 6299TIP3    H118840   2.259   4.922   5.861
 6299TIP3    H218841   2.124   4.917   5.794
 6300TIP3   OH218842   0.500   5.907   0.267
 6300TIP3    H118843   0.520   5.871   0.180
 6300TIP3    H218844   0.547   5.990   0.270
 6301TIP3   OH218845   0.623   2.020   3.882
 6301TIP3    H118846   0.540   2.007   3.927
 6301TIP3    H218847   0.674   1.941   3.902
 6302TIP3   OH218848   4.559   5.338   0.812
 6302TIP3    H118849   4.613   5.260   0.827
 6302TIP3    H218850   4.621   5.403   0.780
 6303TIP3   OH218851   2.844   7.480   1.593
 6303TIP3    H118852   2.781   7.408   1.582
 6303TIP3    H218853   2.789   7.558   1.602
 6304TIP3   OH218854   5.761   5.523   4.253
 6304TIP3    H118855   5.706   5.562   4.322
 6304TIP3    H218856   5.724   5.556   4.171
 6305TIP3   OH218857   1.374   6.081   5.150
 6305TIP3    H118858   1.438   6.049   5.087
 6305TIP3    H218859   1.402   6.170   5.171
 6306TIP3   OH218860   0.495   4.223   3.337
 6306TIP3    H118861   0.405   4.251   3.358
 6306TIP3    H218862   0.486   4.131   3.313
 6307TIP3   OH218863   5.068   1.818   2.927
 6307TIP3    H118864   5.000   1.840   2.990
 6307TIP3    H218865   5.079   1.723   2.935
 6308TIP3   OH218866   0.269   3.145   3.357
 6308TIP3    H118867   0.240   3.138   3.448
 6308TIP3    H218868   0.230   3.069   3.314
 6309TIP3   OH218869   5.428   0.561   2.267
 6309TIP3    H118870   5.372   0.637   2.255
 6309TIP3    H218871   5.443   0.556   2.361
 6310TIP3   OH218872   5.322   7.748   4.909
 6310TIP3    H118873   5.390   7.749   4.842
 6310TIP3    H218874   5.333   7.832   4.955
 6311TIP3   OH218875   4.314   5.969   1.720
 6311TIP3    H118876   4.260   6.012   1.652
 6311TIP3    H218877   4.390   5.936   1.672
 6312TIP3   OH218878   3.350   2.341   1.763
 6312TIP3    H118879   3.408   2.411   1.732
 6312TIP3    H218880   3.347   2.352   1.858
 6313TIP3   OH218881   3.059   4.976   4.548
 6313TIP3    H118882   3.016   5.013   4.471
 6313TIP3    H218883   2.992   4.979   4.616
 6314TIP3   OH218884   5.659   0.353   0.678
 6314TIP3    H118885   5.641   0.380   0.588
 6314TIP3    H218886   5.605   0.410   0.732
 6315TIP3   OH218887   2.025   2.328   6.367
 6315TIP3    H118888   1.971   2.376   6.429
 6315TIP3    H218889   2.043   2.392   6.297
 6316TIP3   OH218890   3.333   0.948   2.824
 6316TIP3    H118891   3.291   1.027   2.792
 6316TIP3    H218892   3.264   0.882   2.824
 6317TIP3   OH218893   3.688   6.347   5.088
 6317TIP3    H118894   3.593   6.354   5.093
 6317TIP3    H218895   3.708   6.257   5.115
 6318TIP3   OH218896   4.409   3.813   0.748
 6318TIP3    H118897   4.354   3.799   0.670
 6318TIP3    H218898   4.443   3.725   0.769
 6319TIP3   OH218899   6.131   1.508   4.661
 6319TIP3    H118900   6.132   1.531   4.754
 6319TIP3    H218901   6.120   1.592   4.617
 6320TIP3   OH218902   4.841   7.474   3.130
 6320TIP3    H118903   4.874   7.563   3.116
 6320TIP3    H218904   4.787   7.457   3.053
 6321TIP3   OH218905   6.798   4.721   5.156
 6321TIP3    H118906   6.727   4.781   5.179
 6321TIP3    H218907   6.875   4.757   5.198
 6322TIP3   OH218908   2.972   2.503   1.601
 6322TIP3    H118909   3.003   2.542   1.519
 6322TIP3    H218910   3.041   2.442   1.625
 6323TIP3   OH218911   4.024   7.080   3.375
 6323TIP3    H118912   4.114   7.066   3.349
 6323TIP3    H218913   4.029   7.147   3.444
 6324TIP3   OH218914   0.845   2.649   0.615
 6324TIP3    H118915   0.901   2.727   0.620
 6324TIP3    H218916   0.763   2.676   0.656
 6325TIP3   OH218917   0.303   5.077   2.211
 6325TIP3    H118918   0.258   5.161   2.223
 6325TIP3    H218919   0.251   5.015   2.262
 6326TIP3   OH218920   6.971   7.128   5.028
 6326TIP3    H118921   6.924   7.130   5.111
 6326TIP3    H218922   7.009   7.040   5.024
 6327TIP3   OH218923   6.960   5.845   4.626
 6327TIP3    H118924   6.897   5.775   4.608
 6327TIP3    H218925   7.042   5.800   4.646
 6328TIP3   OH218926   6.063   2.486   1.662
 6328TIP3    H118927   5.996   2.522   1.720
 6328TIP3    H218928   6.023   2.406   1.627
 6329TIP3   OH218929   2.617   1.023   3.595
 6329TIP3    H118930   2.590   1.113   3.577
 6329TIP3    H218931   2.586   0.973   3.520
 6330TIP3   OH218932   4.408   7.478   0.587
 6330TIP3    H118933   4.350   7.410   0.620
 6330TIP3    H218934   4.384   7.488   0.495
 6331TIP3   OH218935   6.395   3.431   5.273
 6331TIP3    H118936   6.317   3.482   5.250
 6331TIP3    H218937   6.452   3.493   5.318
 6332TIP3   OH218938   2.463   2.442   1.928
 6332TIP3    H118939   2.403   2.445   2.002
 6332TIP3    H218940   2.550   2.432   1.967
 6333TIP3   OH218941   0.860   0.838   3.073
 6333TIP3    H118942   0.775   0.832   3.029
 6333TIP3    H218943   0.866   0.758   3.125
 6334TIP3   OH218944   3.253   7.165   5.437
 6334TIP3    H118945   3.331   7.201   5.479
 6334TIP3    H218946   3.279   7.153   5.345
 6335TIP3   OH218947   2.433   5.599   1.328
 6335TIP3    H118948   2.483   5.680   1.322
 6335TIP3    H218949   2.353   5.624   1.374
 6336TIP3   OH218950   2.265   3.506   0.356
 6336TIP3    H118951   2.180   3.551   0.355
 6336TIP3    H218952   2.267   3.457   0.274
 6337TIP3   OH218953   6.915   0.157   2.511
 6337TIP3    H118954   6.826   0.149   2.544
 6337TIP3    H218955   6.937   0.069   2.480
 6338TIP3   OH218956   4.123   7.260   4.013
 6338TIP3    H118957   4.168   7.210   3.945
 6338TIP3    H218958   4.063   7.316   3.965
 6339TIP3   OH218959   6.722   1.839   2.659
 6339TIP3    H118960   6.696   1.754   2.622
 6339TIP3    H218961   6.747   1.820   2.749
 6340TIP3   OH218962   8.193   1.964   6.166
 6340TIP3    H118963   8.154   1.999   6.246
 6340TIP3    H218964   8.126   1.904   6.131
 6341TIP3   OH218965   5.804   1.733   5.294
 6341TIP3    H118966   5.786   1.793   5.221
 6341TIP3    H218967   5.782   1.784   5.372
 6342TIP3   OH218968   3.944   7.288   1.763
 6342TIP3    H118969   3.960   7.246   1.679
 6342TIP3    H218970   4.015   7.352   1.771
 6343TIP3   OH218971   6.528   0.354   1.042
 6343TIP3    H118972   6.611   0.344   0.996
 6343TIP3    H218973   6.488   0.431   1.002
 6344TIP3   OH218974   3.061   6.128   4.311
 6344TIP3    H118975   3.137   6.147   4.256
 6344TIP3    H218976   2.995   6.191   4.283
 6345TIP3   OH218977   0.507   1.107   5.595
 6345TIP3    H118978   0.585   1.160   5.609
 6345TIP3    H218979   0.541   1.023   5.564
 6346TIP3   OH218980   0.841   1.440   3.244
 6346TIP3    H118981   0.891   1.385   3.305
 6346TIP3    H218982   0.779   1.488   3.300
 6347TIP3   OH218983   4.707   7.724   0.676
 6347TIP3    H118984   4.679   7.766   0.758
 6347TIP3    H218985   4.763   7.651   0.704
 6348TIP3   OH218986   7.490   5.670   1.439
 6348TIP3    H118987   7.485   5.687   1.345
 6348TIP3    H218988   7.578   5.637   1.452
 6349TIP3   OH218989   3.319   3.842   3.267
 6349TIP3    H118990   3.409   3.812   3.266
 6349TIP3    H218991   3.286   3.820   3.354
 6350TIP3   OH218992   4.868   3.708   5.782
 6350TIP3    H118993   4.875   3.617   5.809
 6350TIP3    H218994   4.791   3.710   5.726
 6351TIP3   OH218995   0.128   6.335   5.448
 6351TIP3    H118996   0.061   6.266   5.448
 6351TIP3    H218997   0.207   6.292   5.479
 6352TIP3   OH218998   6.945   0.437   3.628
 6352TIP3    H118999   6.996   0.358   3.643
 6352TIP3    H219000   6.854   0.407   3.625
 6353TIP3   OH219001   1.990   1.816   4.667
 6353TIP3    H119002   1.929   1.860   4.608
 6353TIP3    H219003   2.009   1.732   4.624
 6354TIP3   OH219004   2.143   5.208   1.352
 6354TIP3    H119005   2.138   5.246   1.264
 6354TIP3    H219006   2.214   5.144   1.347
 6355TIP3   OH219007   4.717   7.023   6.739
 6355TIP3    H119008   4.631   7.032   6.782
 6355TIP3    H219009   4.780   7.050   6.806
 6356TIP3   OH219010   1.029   3.532   6.208
 6356TIP3    H119011   1.113   3.519   6.164
 6356TIP3    H219012   1.045   3.603   6.269
 6357TIP3   OH219013   3.842   3.189   0.926
 6357TIP3    H119014   3.751   3.196   0.957
 6357TIP3    H219015   3.866   3.278   0.900
 6358TIP3   OH219016   4.058   5.833   2.241
 6358TIP3    H119017   4.007   5.762   2.202
 6358TIP3    H219018   4.043   5.824   2.336
 6359TIP3   OH219019   7.797   3.800   1.763
 6359TIP3    H119020   7.728   3.861   1.790
 6359TIP3    H219021   7.827   3.760   1.844
 6360TIP3   OH219022   0.592   1.296   1.220
 6360TIP3    H119023   0.536   1.282   1.144
 6360TIP3    H219024   0.622   1.209   1.245
 6361TIP3   OH219025   6.331   2.825   6.252
 6361TIP3    H119026   6.304   2.862   6.168
 6361TIP3    H219027   6.425   2.808   6.242
 6362TIP3   OH219028   3.584   4.292   3.355
 6362TIP3    H119029   3.636   4.214   3.331
 6362TIP3    H219030   3.646   4.365   3.347
 6363TIP3   OH219031   5.757   3.955   2.814
 6363TIP3    H119032   5.842   3.981   2.847
 6363TIP3    H219033   5.775   3.919   2.727
 6364TIP3   OH219034   3.858   3.766   3.344
 6364TIP3    H119035   3.885   3.692   3.289
 6364TIP3    H219036   3.824   3.725   3.424
 6365TIP3   OH219037   7.460   4.613   1.377
 6365TIP3    H119038   7.384   4.587   1.325
 6365TIP3    H219039   7.489   4.532   1.419
 6366TIP3   OH219040   6.095   7.170   0.669
 6366TIP3    H119041   6.097   7.241   0.605
 6366TIP3    H219042   6.149   7.202   0.742
 6367TIP3   OH219043   2.314   7.304   3.706
 6367TIP3    H119044   2.306   7.227   3.650
 6367TIP3    H219045   2.237   7.301   3.762
 6368TIP3   OH219046   7.171   6.578   2.520
 6368TIP3    H119047   7.264   6.600   2.509
 6368TIP3    H219048   7.124   6.653   2.483
 6369TIP3   OH219049   3.505   4.272   6.329
 6369TIP3    H119050   3.458   4.336   6.382
 6369TIP3    H219051   3.586   4.255   6.376
 6370TIP3   OH219052   5.899   4.132   0.254
 6370TIP3    H119053   5.836   4.059   0.249
 6370TIP3    H219054   5.896   4.160   0.345
 6371TIP3   OH219055   6.205   0.938   1.788
 6371TIP3    H119056   6.134   0.896   1.836
 6371TIP3    H219057   6.270   0.959   1.855
 6372TIP3   OH219058   3.169   1.192   1.333
 6372TIP3    H119059   3.238   1.141   1.291
 6372TIP3    H219060   3.206   1.280   1.341
 6373TIP3   OH219061   7.104   4.649   2.705
 6373TIP3    H119062   7.085   4.660   2.612
 6373TIP3    H219063   7.146   4.732   2.731
 6374TIP3   OH219064   7.332   4.177   4.315
 6374TIP3    H119065   7.415   4.224   4.320
 6374TIP3    H219066   7.353   4.087   4.338
 6375TIP3   OH219067   2.400   7.119   0.660
 6375TIP3    H119068   2.430   7.029   0.672
 6375TIP3    H219069   2.339   7.133   0.733
 6376TIP3   OH219070   4.122   6.846   5.812
 6376TIP3    H119071   4.160   6.870   5.728
 6376TIP3    H219072   4.176   6.775   5.844
 6377TIP3   OH219073   6.628   1.314   4.034
 6377TIP3    H119074   6.649   1.243   4.095
 6377TIP3    H219075   6.543   1.289   3.996
 6378TIP3   OH219076   7.307   1.437   1.061
 6378TIP3    H119077   7.311   1.342   1.070
 6378TIP3    H219078   7.332   1.454   0.970
 6379TIP3   OH219079   5.106   5.006   1.884
 6379TIP3    H119080   5.067   4.919   1.877
 6379TIP3    H219081   5.104   5.026   1.978
 6380TIP3   OH219082   6.040   1.408   2.456
 6380TIP3    H119083   6.032   1.414   2.551
 6380TIP3    H219084   6.132   1.430   2.438
 6381TIP3   OH219085   3.690   1.309   4.863
 6381TIP3    H119086   3.642   1.392   4.855
 6381TIP3    H219087   3.624   1.245   4.887
 6382TIP3   OH219088   7.652   5.950   5.590
 6382TIP3    H119089   7.651   6.019   5.656
 6382TIP3    H219090   7.623   5.993   5.510
 6383TIP3   OH219091   5.371   2.900   2.313
 6383TIP3    H119092   5.459   2.930   2.291
 6383TIP3    H219093   5.375   2.885   2.408
 6384TIP3   OH219094   2.003   7.342   1.617
 6384TIP3    H119095   1.998   7.437   1.615
 6384TIP3    H219096   1.920   7.312   1.581
 6385TIP3   OH219097   0.011   5.256   5.793
 6385TIP3    H119098   0.063   5.318   5.843
 6385TIP3    H219099  -0.066   5.305   5.765
 6386TIP3   OH219100   3.899   7.616   1.111
 6386TIP3    H119101   3.883   7.574   1.195
 6386TIP3    H219102   3.972   7.675   1.127
 6387TIP3   OH219103   7.368   1.612   4.407
 6387TIP3    H119104   7.447   1.560   4.393
 6387TIP3    H219105   7.322   1.607   4.323
 6388TIP3   OH219106   3.090   3.705   0.575
 6388TIP3    H119107   3.140   3.710   0.493
 6388TIP3    H219108   3.015   3.762   0.560
 6389TIP3   OH219109   1.074   5.634   5.579
 6389TIP3    H119110   1.120   5.717   5.582
 6389TIP3    H219111   1.118   5.584   5.510
 6390TIP3   OH219112   0.893   3.563   1.822
 6390TIP3    H119113   0.843   3.510   1.761
 6390TIP3    H219114   0.908   3.646   1.775
 6391TIP3   OH219115   4.776   5.007   6.093
 6391TIP3    H119116   4.811   4.930   6.138
 6391TIP3    H219117   4.851   5.046   6.048
 6392TIP3   OH219118   7.029   1.032   5.698
 6392TIP3    H119119   7.023   1.007   5.606
 6392TIP3    H219120   6.951   0.993   5.738
 6393TIP3   OH219121   1.462   1.884   6.556
 6393TIP3    H119122   1.483   1.806   6.505
 6393TIP3    H219123   1.483   1.861   6.647
 6394TIP3   OH219124   8.070   4.775   1.862
 6394TIP3    H119125   8.157   4.814   1.873
 6394TIP3    H219126   8.015   4.820   1.927
 6395TIP3   OH219127   3.462   4.856   5.470
 6395TIP3    H119128   3.474   4.951   5.480
 6395TIP3    H219129   3.470   4.840   5.376
 6396TIP3   OH219130   0.264   5.442   1.886
 6396TIP3    H119131   0.194   5.439   1.951
 6396TIP3    H219132   0.303   5.528   1.896
 6397TIP3   OH219133   2.883   2.435   0.443
 6397TIP3    H119134   2.978   2.435   0.432
 6397TIP3    H219135   2.863   2.348   0.478
 6398TIP3   OH219136   2.412   1.235   1.719
 6398TIP3    H119137   2.503   1.262   1.734
 6398TIP3    H219138   2.413   1.141   1.732
 6399TIP3   OH219139   0.974   0.289   2.412
 6399TIP3    H119140   0.919   0.361   2.383
 6399TIP3    H219141   1.039   0.329   2.469
 6400TIP3   OH219142   5.092   5.371   1.590
 6400TIP3    H119143   5.120   5.452   1.633
 6400TIP3    H219144   5.168   5.343   1.539
 6401TIP3   OH219145   7.388   4.467   6.634
 6401TIP3    H119146   7.294   4.476   6.619
 6401TIP3    H219147   7.394   4.426   6.720
 6402TIP3   OH219148   5.302   2.763   6.510
 6402TIP3    H119149   5.362   2.691   6.527
 6402TIP3    H219150   5.221   2.738   6.555
 6403TIP3   OH219151   1.901   5.347   3.299
 6403TIP3    H119152   1.836   5.280   3.277
 6403TIP3    H219153   1.985   5.300   3.296
 6404TIP3   OH219154   7.839   1.283   6.525
 6404TIP3    H119155   7.778   1.354   6.547
 6404TIP3    H219156   7.915   1.327   6.487
 6405TIP3   OH219157   1.816   3.163   3.977
 6405TIP3    H119158   1.856   3.213   4.048
 6405TIP3    H219159   1.724   3.156   4.000
 6406TIP3   OH219160   3.022   6.406   6.237
 6406TIP3    H119161   2.957   6.340   6.261
 6406TIP3    H219162   3.097   6.386   6.293
 6407TIP3   OH219163   4.322   6.021   4.221
 6407TIP3    H119164   4.384   6.089   4.250
 6407TIP3    H219165   4.236   6.055   4.246
 6408TIP3   OH219166   1.205   6.724   2.945
 6408TIP3    H119167   1.240   6.811   2.964
 6408TIP3    H219168   1.280   6.674   2.912
 6409TIP3   OH219169   4.272   4.196   4.497
 6409TIP3    H119170   4.182   4.220   4.476
 6409TIP3    H219171   4.310   4.171   4.413
 6410TIP3   OH219172   4.968  -0.007   1.470
 6410TIP3    H119173   4.926   0.007   1.385
 6410TIP3    H219174   4.963   0.077   1.514
 6411TIP3   OH219175   5.407   0.613   3.225
 6411TIP3    H119176   5.391   0.529   3.267
 6411TIP3    H219177   5.343   0.672   3.263
 6412TIP3   OH219178   4.444   2.791   6.608
 6412TIP3    H119179   4.434   2.795   6.513
 6412TIP3    H219180   4.356   2.771   6.640
 6413TIP3   OH219181   7.840   6.283   1.336
 6413TIP3    H119182   7.776   6.221   1.370
 6413TIP3    H219183   7.788   6.354   1.298
 6414TIP3   OH219184   2.849   6.410   2.409
 6414TIP3    H119185   2.809   6.401   2.322
 6414TIP3    H219186   2.782   6.377   2.469
 6415TIP3   OH219187   1.619   1.622   4.111
 6415TIP3    H119188   1.639   1.634   4.204
 6415TIP3    H219189   1.540   1.568   4.110
 6416TIP3   OH219190   3.750   1.360   2.898
 6416TIP3    H119191   3.676   1.386   2.952
 6416TIP3    H219192   3.822   1.414   2.928
 6417TIP3   OH219193   1.652   4.381   2.884
 6417TIP3    H119194   1.614   4.297   2.860
 6417TIP3    H219195   1.577   4.441   2.889
 6418TIP3   OH219196   4.976   6.044   0.380
 6418TIP3    H119197   4.968   6.139   0.380
 6418TIP3    H219198   4.912   6.014   0.315
 6419TIP3   OH219199   5.442   4.418   6.494
 6419TIP3    H119200   5.486   4.390   6.414
 6419TIP3    H219201   5.448   4.513   6.493
 6420TIP3   OH219202   0.092   2.150   2.251
 6420TIP3    H119203   0.087   2.179   2.160
 6420TIP3    H219204   0.022   2.198   2.295
 6421TIP3   OH219205   3.397   6.486   5.636
 6421TIP3    H119206   3.393   6.490   5.541
 6421TIP3    H219207   3.383   6.576   5.665
 6422TIP3   OH219208   7.413   2.979   5.288
 6422TIP3    H119209   7.499   2.994   5.328
 6422TIP3    H219210   7.433   2.932   5.207
 6423TIP3   OH219211   0.982   1.371   1.698
 6423TIP3    H119212   1.044   1.303   1.724
 6423TIP3    H219213   1.004   1.446   1.752
 6424TIP3   OH219214   5.192   2.027   3.180
 6424TIP3    H119215   5.183   2.120   3.199
 6424TIP3    H219216   5.214   2.023   3.087
 6425TIP3   OH219217   1.432   3.065   6.482
 6425TIP3    H119218   1.497   3.131   6.457
 6425TIP3    H219219   1.354   3.115   6.506
 6426TIP3   OH219220   7.085   0.805   3.136
 6426TIP3    H119221   7.112   0.793   3.045
 6426TIP3    H219222   7.126   0.887   3.163
 6427TIP3   OH219223   3.015   2.079   3.374
 6427TIP3    H119224   3.090   2.131   3.348
 6427TIP3    H219225   2.955   2.141   3.416
 6428TIP3   OH219226   5.303   6.555   3.176
 6428TIP3    H119227   5.380   6.610   3.166
 6428TIP3    H219228   5.336   6.475   3.218
 6429TIP3   OH219229   6.536   6.560   3.605
 6429TIP3    H119230   6.532   6.655   3.593
 6429TIP3    H219231   6.451   6.528   3.575
 6430TIP3   OH219232   7.552   3.436   3.036
 6430TIP3    H119233   7.494   3.370   3.073
 6430TIP3    H219234   7.517   3.453   2.949
 6431TIP3   OH219235   0.457   2.063   5.818
 6431TIP3    H119236   0.403   2.094   5.891
 6431TIP3    H219237   0.425   1.974   5.802
 6432TIP3   OH219238   3.863   0.027   2.709
 6432TIP3    H119239   3.950   0.063   2.725
 6432TIP3    H219240   3.879  -0.045   2.648
 6433TIP3   OH219241   6.497   0.601   6.098
 6433TIP3    H119242   6.463   0.666   6.037
 6433TIP3    H219243   6.517   0.651   6.177
 6434TIP3   OH219244   8.239   7.260   5.416
 6434TIP3    H119245   8.241   7.173   5.457
 6434TIP3    H219246   8.178   7.310   5.470
 6435TIP3   OH219247   7.153   5.859   0.914
 6435TIP3    H119248   7.182   5.942   0.951
 6435TIP3    H219249   7.191   5.857   0.826
 6436TIP3   OH219250   3.873   1.401   4.497
 6436TIP3    H119251   3.789   1.433   4.529
 6436TIP3    H219252   3.871   1.307   4.517
 6437TIP3   OH219253   7.270   7.509   1.328
 6437TIP3    H119254   7.281   7.441   1.394
 6437TIP3    H219255   7.253   7.589   1.379
 6438TIP3   OH219256   5.285   3.456   1.933
 6438TIP3    H119257   5.247   3.419   1.853
 6438TIP3    H219258   5.285   3.550   1.918
 6439TIP3   OH219259   2.256   3.440   6.180
 6439TIP3    H119260   2.324   3.412   6.119
 6439TIP3    H219261   2.256   3.372   6.248
 6440TIP3   OH219262   7.151   1.933   2.424
 6440TIP3    H119263   7.141   1.841   2.397
 6440TIP3    H219264   7.083   1.946   2.489
 6441TIP3   OH219265   8.072   7.440   3.752
 6441TIP3    H119266   8.068   7.490   3.671
 6441TIP3    H219267   8.038   7.353   3.728
 6442TIP3   OH219268   1.450   3.695   5.860
 6442TIP3    H119269   1.473   3.645   5.938
 6442TIP3    H219270   1.354   3.701   5.862
 6443TIP3   OH219271   6.326   7.568   2.166
 6443TIP3    H119272   6.276   7.634   2.117
 6443TIP3    H219273   6.259   7.513   2.207
 6444TIP3   OH219274   3.509   7.253   4.139
 6444TIP3    H119275   3.562   7.319   4.095
 6444TIP3    H219276   3.422   7.262   4.100
 6445TIP3   OH219277   1.821   2.342   5.770
 6445TIP3    H119278   1.780   2.303   5.693
 6445TIP3    H219279   1.847   2.430   5.743
 6446TIP3   OH219280   7.975   5.282   2.028
 6446TIP3    H119281   8.022   5.277   2.111
 6446TIP3    H219282   7.892   5.239   2.045
 6447TIP3   OH219283   6.824   2.244   1.314
 6447TIP3    H119284   6.784   2.248   1.401
 6447TIP3    H219285   6.804   2.156   1.282
 6448TIP3   OH219286   7.039   4.668   6.406
 6448TIP3    H119287   7.084   4.748   6.430
 6448TIP3    H219288   7.080   4.641   6.323
 6449TIP3   OH219289   4.497   4.888   5.337
 6449TIP3    H119290   4.503   4.793   5.325
 6449TIP3    H219291   4.490   4.900   5.432
 6450TIP3   OH219292   0.128   4.162   0.889
 6450TIP3    H119293   0.218   4.161   0.922
 6450TIP3    H219294   0.078   4.204   0.959
 6451TIP3   OH219295   3.904   5.473   4.681
 6451TIP3    H119296   3.850   5.520   4.617
 6451TIP3    H219297   3.901   5.382   4.653
 6452TIP3   OH219298   5.075   5.780   5.132
 6452TIP3    H119299   5.054   5.795   5.040
 6452TIP3    H219300   5.136   5.850   5.155
 6453TIP3   OH219301   2.553   0.464   1.562
 6453TIP3    H119302   2.538   0.372   1.543
 6453TIP3    H219303   2.566   0.467   1.657
 6454TIP3   OH219304   5.516   6.821   4.751
 6454TIP3    H119305   5.481   6.895   4.701
 6454TIP3    H219306   5.438   6.775   4.783
 6455TIP3   OH219307   6.355   1.364   5.465
 6455TIP3    H119308   6.372   1.398   5.377
 6455TIP3    H219309   6.267   1.326   5.459
 6456TIP3   OH219310   3.708   5.233   6.214
 6456TIP3    H119311   3.646   5.160   6.219
 6456TIP3    H219312   3.654   5.309   6.190
 6457TIP3   OH219313   0.157   1.408   1.239
 6457TIP3    H119314   0.123   1.496   1.256
 6457TIP3    H219315   0.080   1.356   1.218
 6458TIP3   OH219316   2.049   1.276   6.335
 6458TIP3    H119317   2.033   1.194   6.288
 6458TIP3    H219318   1.982   1.279   6.403
 6459TIP3   OH219319   8.276   6.194   0.636
 6459TIP3    H119320   8.316   6.124   0.583
 6459TIP3    H219321   8.191   6.210   0.593
 6460TIP3   OH219322   2.081   6.759   2.630
 6460TIP3    H119323   2.058   6.668   2.613
 6460TIP3    H219324   2.150   6.754   2.696
 6461TIP3   OH219325   6.763   3.365   1.028
 6461TIP3    H119326   6.745   3.344   0.936
 6461TIP3    H219327   6.758   3.461   1.032
 6462TIP3   OH219328   6.270   3.173   2.608
 6462TIP3    H119329   6.314   3.163   2.523
 6462TIP3    H219330   6.180   3.197   2.586
 6463TIP3   OH219331   7.462   2.634   1.610
 6463TIP3    H119332   7.422   2.568   1.553
 6463TIP3    H219333   7.547   2.597   1.633
 6464TIP3   OH219334   4.688   1.819   2.397
 6464TIP3    H119335   4.670   1.814   2.491
 6464TIP3    H219336   4.766   1.763   2.385
 6465TIP3   OH219337   3.729   6.900   4.112
 6465TIP3    H119338   3.820   6.896   4.142
 6465TIP3    H219339   3.735   6.907   4.017
 6466TIP3   OH219340   0.524   2.627   5.333
 6466TIP3    H119341   0.559   2.613   5.421
 6466TIP3    H219342   0.601   2.634   5.277
 6467TIP3   OH219343   5.137   6.212   0.147
 6467TIP3    H119344   5.146   6.117   0.146
 6467TIP3    H219345   5.222   6.243   0.177
 6468TIP3   OH219346   6.620   5.719   5.987
 6468TIP3    H119347   6.562   5.789   6.017
 6468TIP3    H219348   6.611   5.650   6.054
 6469TIP3   OH219349   3.566   7.768   0.222
 6469TIP3    H119350   3.580   7.861   0.203
 6469TIP3    H219351   3.475   7.752   0.197
 6470TIP3   OH219352   1.067   0.078   2.973
 6470TIP3    H119353   1.060   0.010   2.906
 6470TIP3    H219354   0.983   0.076   3.019
 6471TIP3   OH219355   6.191   5.085   3.225
 6471TIP3    H119356   6.114   5.048   3.181
 6471TIP3    H219357   6.260   5.021   3.212
 6472TIP3   OH219358   0.272   0.830   3.795
 6472TIP3    H119359   0.178   0.815   3.811
 6472TIP3    H219360   0.311   0.834   3.882
 6473TIP3   OH219361   4.861   7.777   4.715
 6473TIP3    H119362   4.791   7.718   4.743
 6473TIP3    H219363   4.941   7.737   4.748
 6474TIP3   OH219364   4.466   0.114   6.548
 6474TIP3    H119365   4.410   0.106   6.470
 6474TIP3    H219366   4.408   0.148   6.616
 6475TIP3   OH219367   4.594   4.399   1.661
 6475TIP3    H119368   4.616   4.465   1.596
 6475TIP3    H219369   4.534   4.444   1.721
 6476TIP3   OH219370   6.276   6.428   3.624
 6476TIP3    H119371   6.259   6.338   3.596
 6476TIP3    H219372   6.312   6.419   3.713
 6477TIP3   OH219373   5.519   7.765   5.710
 6477TIP3    H119374   5.438   7.766   5.761
 6477TIP3    H219375   5.492   7.740   5.621
 6478TIP3   OH219376   3.102   7.394   1.520
 6478TIP3    H119377   3.123   7.300   1.526
 6478TIP3    H219378   3.019   7.403   1.568
 6479TIP3   OH219379   4.626   5.586   3.790
 6479TIP3    H119380   4.655   5.574   3.699
 6479TIP3    H219381   4.531   5.579   3.786
 6480TIP3   OH219382   1.989   6.627   6.351
 6480TIP3    H119383   2.005   6.553   6.293
 6480TIP3    H219384   2.077   6.657   6.377
 6481TIP3   OH219385   2.188   1.117   3.498
 6481TIP3    H119386   2.163   1.202   3.463
 6481TIP3    H219387   2.139   1.054   3.446
 6482TIP3   OH219388   1.639   2.612   2.591
 6482TIP3    H119389   1.650   2.698   2.632
 6482TIP3    H219390   1.710   2.559   2.627
 6483TIP3   OH219391   5.628   4.870   6.486
 6483TIP3    H119392   5.641   4.962   6.465
 6483TIP3    H219393   5.716   4.836   6.501
 6484TIP3   OH219394   5.403   6.796   6.683
 6484TIP3    H119395   5.353   6.738   6.740
 6484TIP3    H219396   5.351   6.876   6.678
 6485TIP3   OH219397   3.639   0.468   5.852
 6485TIP3    H119398   3.627   0.477   5.758
 6485TIP3    H219399   3.734   0.476   5.865
 6486TIP3   OH219400   0.794   1.327   2.558
 6486TIP3    H119401   0.733   1.377   2.612
 6486TIP3    H219402   0.831   1.391   2.497
 6487TIP3   OH219403   3.430   2.272   5.780
 6487TIP3    H119404   3.505   2.317   5.820
 6487TIP3    H219405   3.390   2.224   5.852
 6488TIP3   OH219406   1.310   2.307   0.629
 6488TIP3    H119407   1.242   2.358   0.673
 6488TIP3    H219408   1.347   2.368   0.564
 6489TIP3   OH219409   2.850   5.721   0.895
 6489TIP3    H119410   2.911   5.681   0.834
 6489TIP3    H219411   2.906   5.757   0.964
 6490TIP3   OH219412   4.609   5.714   4.236
 6490TIP3    H119413   4.612   5.647   4.305
 6490TIP3    H219414   4.518   5.744   4.235
 6491TIP3   OH219415   2.461   5.406   1.566
 6491TIP3    H119416   2.469   5.469   1.639
 6491TIP3    H219417   2.454   5.461   1.488
 6492TIP3   OH219418   7.837   6.006   4.908
 6492TIP3    H119419   7.879   6.082   4.869
 6492TIP3    H219420   7.881   5.995   4.993
 6493TIP3   OH219421   6.870   4.771   3.920
 6493TIP3    H119422   6.886   4.683   3.887
 6493TIP3    H219423   6.944   4.790   3.977
 6494TIP3   OH219424   1.108   6.214   5.157
 6494TIP3    H119425   1.200   6.187   5.156
 6494TIP3    H219426   1.070   6.168   5.232
 6495TIP3   OH219427   2.936   6.111   2.777
 6495TIP3    H119428   3.028   6.137   2.784
 6495TIP3    H219429   2.910   6.136   2.689
 6496TIP3   OH219430   6.355   4.238   4.893
 6496TIP3    H119431   6.440   4.277   4.870
 6496TIP3    H219432   6.357   4.151   4.854
 6497TIP3   OH219433   8.027   2.069   6.371
 6497TIP3    H119434   7.985   1.988   6.401
 6497TIP3    H219435   8.065   2.108   6.450
 6498TIP3   OH219436   7.945   0.901   0.069
 6498TIP3    H119437   7.977   0.811   0.064
 6498TIP3    H219438   7.849   0.893   0.068
 6499TIP3   OH219439   6.189   1.657   0.417
 6499TIP3    H119440   6.168   1.732   0.362
 6499TIP3    H219441   6.279   1.634   0.394
 6500TIP3   OH219442   4.475   7.217   6.093
 6500TIP3    H119443   4.430   7.297   6.118
 6500TIP3    H219444   4.521   7.188   6.172
 6501TIP3   OH219445   2.384   0.585   3.424
 6501TIP3    H119446   2.315   0.642   3.457
 6501TIP3    H219447   2.418   0.630   3.347
 6502TIP3   OH219448   1.123   1.962   1.838
 6502TIP3    H119449   1.058   1.891   1.834
 6502TIP3    H219450   1.076   2.040   1.809
 6503TIP3   OH219451   7.686   3.385   4.354
 6503TIP3    H119452   7.699   3.349   4.442
 6503TIP3    H219453   7.749   3.338   4.300
 6504TIP3   OH219454   4.837   2.145   5.871
 6504TIP3    H119455   4.843   2.102   5.956
 6504TIP3    H219456   4.807   2.076   5.812
 6505TIP3   OH219457   5.940   2.621   4.683
 6505TIP3    H119458   5.935   2.526   4.691
 6505TIP3    H219459   6.023   2.637   4.638
 6506TIP3   OH219460   5.221   5.610   1.304
 6506TIP3    H119461   5.253   5.602   1.214
 6506TIP3    H219462   5.209   5.705   1.317
 6507TIP3   OH219463   0.345   2.622   4.313
 6507TIP3    H119464   0.366   2.530   4.327
 6507TIP3    H219465   0.388   2.645   4.231
 6508TIP3   OH219466   7.079   5.671   5.248
 6508TIP3    H119467   7.172   5.656   5.231
 6508TIP3    H219468   7.040   5.682   5.161
 6509TIP3   OH219469   5.795   3.121   3.370
 6509TIP3    H119470   5.824   3.116   3.461
 6509TIP3    H219471   5.846   3.055   3.324
 6510TIP3   OH219472   4.381   7.557   4.031
 6510TIP3    H119473   4.428   7.490   4.081
 6510TIP3    H219474   4.362   7.515   3.947
 6511TIP3   OH219475   7.645   6.190   5.044
 6511TIP3    H119476   7.568   6.214   5.095
 6511TIP3    H219477   7.638   6.096   5.031
 6512TIP3   OH219478   2.881   0.898   3.637
 6512TIP3    H119479   2.906   0.926   3.549
 6512TIP3    H219480   2.787   0.915   3.643
 6513TIP3   OH219481   6.899   4.422   2.405
 6513TIP3    H119482   6.816   4.393   2.444
 6513TIP3    H219483   6.877   4.449   2.317
 6514TIP3   OH219484   5.407   1.938   4.824
 6514TIP3    H119485   5.457   1.858   4.840
 6514TIP3    H219486   5.455   1.982   4.753
 6515TIP3   OH219487   6.774   4.107   5.609
 6515TIP3    H119488   6.754   4.015   5.623
 6515TIP3    H219489   6.690   4.152   5.617
 6516TIP3   OH219490   5.231   4.853   0.983
 6516TIP3    H119491   5.241   4.760   1.001
 6516TIP3    H219492   5.311   4.877   0.935
 6517TIP3   OH219493   3.766   4.248   1.853
 6517TIP3    H119494   3.681   4.283   1.827
 6517TIP3    H219495   3.749   4.204   1.936
 6518TIP3   OH219496   3.740   3.647   3.563
 6518TIP3    H119497   3.653   3.667   3.596
 6518TIP3    H219498   3.780   3.593   3.632
 6519TIP3   OH219499   6.520   4.202   3.633
 6519TIP3    H119500   6.527   4.165   3.546
 6519TIP3    H219501   6.595   4.262   3.640
 6520TIP3   OH219502   7.692   4.251   2.859
 6520TIP3    H119503   7.715   4.208   2.941
 6520TIP3    H219504   7.598   4.267   2.865
 6521TIP3   OH219505   7.429   6.839   3.596
 6521TIP3    H119506   7.377   6.919   3.593
 6521TIP3    H219507   7.498   6.856   3.660
 6522TIP3   OH219508   8.045   6.259   5.750
 6522TIP3    H119509   8.086   6.246   5.836
 6522TIP3    H219510   8.025   6.353   5.748
 6523TIP3   OH219511   3.178   2.890   3.722
 6523TIP3    H119512   3.198   2.841   3.642
 6523TIP3    H219513   3.262   2.898   3.767
 6524TIP3   OH219514   4.019   3.345   6.768
 6524TIP3    H119515   4.074   3.289   6.822
 6524TIP3    H219516   4.012   3.299   6.684
 6525TIP3   OH219517   5.687   5.658   4.016
 6525TIP3    H119518   5.703   5.581   3.961
 6525TIP3    H219519   5.618   5.706   3.970
 6526TIP3   OH219520   8.105   0.463   4.568
 6526TIP3    H119521   8.194   0.461   4.533
 6526TIP3    H219522   8.051   0.427   4.498
 6527TIP3   OH219523   5.517   5.826   2.064
 6527TIP3    H119524   5.448   5.891   2.077
 6527TIP3    H219525   5.508   5.767   2.139
 6528TIP3   OH219526   3.493   1.260   1.208
 6528TIP3    H119527   3.465   1.319   1.278
 6528TIP3    H219528   3.554   1.200   1.250
 6529TIP3   OH219529   8.107   5.688   4.158
 6529TIP3    H119530   8.086   5.647   4.074
 6529TIP3    H219531   8.091   5.782   4.143
 6530TIP3   OH219532   7.492   3.304   1.356
 6530TIP3    H119533   7.397   3.300   1.366
 6530TIP3    H219534   7.510   3.257   1.274
 6531TIP3   OH219535   8.084   7.374   1.919
 6531TIP3    H119536   8.040   7.341   1.997
 6531TIP3    H219537   8.174   7.343   1.927
 6532TIP3   OH219538   2.833   7.221   5.387
 6532TIP3    H119539   2.767   7.254   5.448
 6532TIP3    H219540   2.789   7.148   5.343
 6533TIP3   OH219541   3.774   1.492   2.626
 6533TIP3    H119542   3.760   1.584   2.648
 6533TIP3    H219543   3.808   1.453   2.707
 6534TIP3   OH219544   2.514   2.282   6.355
 6534TIP3    H119545   2.475   2.362   6.320
 6534TIP3    H219546   2.449   2.249   6.418
 6535TIP3   OH219547   0.928   0.092   6.145
 6535TIP3    H119548   0.922   0.187   6.155
 6535TIP3    H219549   0.840   0.060   6.165
 6536TIP3   OH219550   0.968   1.609   2.635
 6536TIP3    H119551   0.921   1.563   2.566
 6536TIP3    H219552   1.028   1.667   2.588
 6537TIP3   OH219553   8.264   6.961   4.858
 6537TIP3    H119554   8.264   6.979   4.763
 6537TIP3    H219555   8.232   7.043   4.897
 6538TIP3   OH219556   0.919   1.741   6.224
 6538TIP3    H119557   0.997   1.725   6.171
 6538TIP3    H219558   0.939   1.822   6.272
 6539TIP3   OH219559   5.519   4.802   1.368
 6539TIP3    H119560   5.542   4.753   1.289
 6539TIP3    H219561   5.427   4.781   1.383
 6540TIP3   OH219562   6.353   1.068   6.678
 6540TIP3    H119563   6.357   1.163   6.675
 6540TIP3    H219564   6.308   1.049   6.761
 6541TIP3   OH219565   4.918   5.647   3.101
 6541TIP3    H119566   4.958   5.560   3.102
 6541TIP3    H219567   4.993   5.707   3.099
 6542TIP3   OH219568   7.715   7.395   6.680
 6542TIP3    H119569   7.638   7.338   6.674
 6542TIP3    H219570   7.680   7.481   6.705
 6543TIP3   OH219571   5.591   5.857   5.137
 6543TIP3    H119572   5.636   5.921   5.192
 6543TIP3    H219573   5.509   5.839   5.183
 6544TIP3   OH219574   3.500   1.653   0.293
 6544TIP3    H119575   3.524   1.600   0.217
 6544TIP3    H219576   3.523   1.598   0.368
 6545TIP3   OH219577   1.165   3.334   2.524
 6545TIP3    H119578   1.164   3.242   2.551
 6545TIP3    H219579   1.074   3.351   2.496
 6546TIP3   OH219580   3.951   3.759   5.253
 6546TIP3    H119581   3.951   3.703   5.176
 6546TIP3    H219582   3.934   3.847   5.219
 6547TIP3   OH219583   1.708   1.984   1.822
 6547TIP3    H119584   1.723   1.985   1.728
 6547TIP3    H219585   1.613   1.984   1.831
 6548TIP3   OH219586   4.294   6.479   0.533
 6548TIP3    H119587   4.315   6.572   0.535
 6548TIP3    H219588   4.235   6.469   0.459
 6549TIP3   OH219589   4.889   2.293   1.352
 6549TIP3    H119590   4.926   2.361   1.409
 6549TIP3    H219591   4.905   2.326   1.263
 6550TIP3   OH219592   5.789   4.375   6.376
 6550TIP3    H119593   5.705   4.391   6.332
 6550TIP3    H219594   5.814   4.287   6.348
 6551TIP3   OH219595   8.095   1.577   5.661
 6551TIP3    H119596   8.114   1.670   5.671
 6551TIP3    H219597   8.000   1.571   5.658
 6552TIP3   OH219598   0.801   7.455   6.663
 6552TIP3    H119599   0.793   7.526   6.600
 6552TIP3    H219600   0.778   7.495   6.747
 6553TIP3   OH219601   3.842   2.625   4.266
 6553TIP3    H119602   3.872   2.543   4.227
 6553TIP3    H219603   3.922   2.674   4.285
 6554TIP3   OH219604   3.745   6.624   1.243
 6554TIP3    H119605   3.759   6.584   1.157
 6554TIP3    H219606   3.828   6.612   1.289
 6555TIP3   OH219607   6.792   4.613   5.721
 6555TIP3    H119608   6.743   4.531   5.727
 6555TIP3    H219609   6.780   4.643   5.631
 6556TIP3   OH219610   5.779   5.018   2.885
 6556TIP3    H119611   5.727   5.092   2.854
 6556TIP3    H219612   5.767   4.950   2.818
 6557TIP3   OH219613   3.724   4.443   4.066
 6557TIP3    H119614   3.724   4.491   3.983
 6557TIP3    H219615   3.667   4.368   4.050
 6558TIP3   OH219616   0.769   4.327   6.184
 6558TIP3    H119617   0.774   4.395   6.117
 6558TIP3    H219618   0.708   4.362   6.249
 6559TIP3   OH219619   2.406   2.945   4.437
 6559TIP3    H119620   2.326   2.924   4.484
 6559TIP3    H219621   2.473   2.890   4.478
 6560TIP3   OH219622   0.396   1.370   6.147
 6560TIP3    H119623   0.437   1.398   6.229
 6560TIP3    H219624   0.302   1.388   6.160
 6561TIP3   OH219625   2.640   5.868   2.615
 6561TIP3    H119626   2.689   5.889   2.535
 6561TIP3    H219627   2.666   5.778   2.635
 6562TIP3   OH219628   0.603   1.403   4.075
 6562TIP3    H119629   0.549   1.324   4.076
 6562TIP3    H219630   0.619   1.420   3.983
 6563TIP3   OH219631   5.761   4.373   1.058
 6563TIP3    H119632   5.684   4.317   1.044
 6563TIP3    H219633   5.782   4.407   0.971
 6564TIP3   OH219634   1.007   6.580   6.732
 6564TIP3    H119635   0.982   6.545   6.647
 6564TIP3    H219636   1.098   6.606   6.722
 6565TIP3   OH219637   7.017   2.138   3.712
 6565TIP3    H119638   7.030   2.050   3.677
 6565TIP3    H219639   6.923   2.144   3.729
 6566TIP3   OH219640   7.735   7.146   1.779
 6566TIP3    H119641   7.819   7.102   1.790
 6566TIP3    H219642   7.735   7.216   1.845
 6567TIP3   OH219643   6.597   6.597   1.797
 6567TIP3    H119644   6.692   6.586   1.789
 6567TIP3    H219645   6.578   6.677   1.748
 6568TIP3   OH219646   0.194   6.742   2.199
 6568TIP3    H119647   0.279   6.701   2.214
 6568TIP3    H219648   0.133   6.668   2.190
 6569TIP3   OH219649   4.308   4.920   5.080
 6569TIP3    H119650   4.348   4.874   5.153
 6569TIP3    H219651   4.366   4.902   5.006
 6570TIP3   OH219652   0.636   0.664   6.301
 6570TIP3    H119653   0.575   0.723   6.344
 6570TIP3    H219654   0.719   0.676   6.347
 6571TIP3   OH219655   6.883   7.831   2.513
 6571TIP3    H119656   6.814   7.782   2.468
 6571TIP3    H219657   6.944   7.764   2.543
 6572TIP3   OH219658   7.409   1.676   2.432
 6572TIP3    H119659   7.431   1.652   2.342
 6572TIP3    H219660   7.343   1.611   2.458
 6573TIP3   OH219661   6.019   1.946   3.297
 6573TIP3    H119662   5.946   1.998   3.329
 6573TIP3    H219663   5.995   1.924   3.207
 6574TIP3   OH219664  -0.012   1.299   5.365
 6574TIP3    H119665  -0.068   1.274   5.438
 6574TIP3    H219666   0.075   1.266   5.390
 6575TIP3   OH219667   4.322   2.959   0.609
 6575TIP3    H119668   4.381   2.954   0.684
 6575TIP3    H219669   4.237   2.932   0.643
 6576TIP3   OH219670   3.183   1.925   6.648
 6576TIP3    H119671   3.126   1.855   6.681
 6576TIP3    H219672   3.150   2.004   6.691
 6577TIP3   OH219673   6.220   6.772   6.287
 6577TIP3    H119674   6.272   6.753   6.365
 6577TIP3    H219675   6.241   6.863   6.266
 6578TIP3   OH219676   5.429   1.185   2.468
 6578TIP3    H119677   5.414   1.133   2.548
 6578TIP3    H219678   5.468   1.123   2.407
 6579TIP3   OH219679   0.866   3.740   4.574
 6579TIP3    H119680   0.956   3.711   4.587
 6579TIP3    H219681   0.870   3.797   4.497
 6580TIP3   OH219682   2.736   1.607   0.323
 6580TIP3    H119683   2.660   1.633   0.376
 6580TIP3    H219684   2.782   1.689   0.305
 6581TIP3   OH219685   6.779   6.662   5.682
 6581TIP3    H119686   6.842   6.596   5.708
 6581TIP3    H219687   6.793   6.675   5.589
 6582TIP3   OH219688   0.701   3.255   1.275
 6582TIP3    H119689   0.761   3.240   1.348
 6582TIP3    H219690   0.633   3.187   1.285
 6583TIP3   OH219691   5.253   5.089   1.491
 6583TIP3    H119692   5.319   5.154   1.467
 6583TIP3    H219693   5.286   5.049   1.571
 6584TIP3   OH219694   3.510   7.312   1.600
 6584TIP3    H119695   3.579   7.377   1.601
 6584TIP3    H219696   3.549   7.236   1.556
 6585TIP3   OH219697   6.740   1.104   4.180
 6585TIP3    H119698   6.832   1.095   4.153
 6585TIP3    H219699   6.696   1.030   4.138
 6586TIP3   OH219700   0.057   7.725   1.752
 6586TIP3    H119701  -0.018   7.695   1.804
 6586TIP3    H219702   0.117   7.763   1.816
 6587TIP3   OH219703   4.104   3.880   2.165
 6587TIP3    H119704   4.040   3.832   2.112
 6587TIP3    H219705   4.059   3.894   2.248
 6588TIP3   OH219706   1.044   0.458   5.575
 6588TIP3    H119707   1.011   0.413   5.497
 6588TIP3    H219708   1.066   0.387   5.636
 6589TIP3   OH219709   0.147   1.984   0.192
 6589TIP3    H119710   0.151   1.939   0.276
 6589TIP3    H219711   0.225   2.038   0.189
 6590TIP3   OH219712   2.484   0.321   2.261
 6590TIP3    H119713   2.406   0.276   2.293
 6590TIP3    H219714   2.556   0.262   2.283
 6591TIP3   OH219715   5.128   6.819   5.811
 6591TIP3    H119716   5.185   6.775   5.874
 6591TIP3    H219717   5.136   6.767   5.731
 6592TIP3   OH219718   3.115   1.791   3.861
 6592TIP3    H119719   3.206   1.821   3.863
 6592TIP3    H219720   3.117   1.705   3.904
 6593TIP3   OH219721   5.778   0.342   6.680
 6593TIP3    H119722   5.687   0.320   6.699
 6593TIP3    H219723   5.792   0.426   6.724
 6594TIP3   OH219724   6.032   1.988   4.649
 6594TIP3    H119725   6.126   1.982   4.661
 6594TIP3    H219726   6.009   1.912   4.596
 6595TIP3   OH219727   3.108   4.334   6.287
 6595TIP3    H119728   3.040   4.382   6.334
 6595TIP3    H219729   3.061   4.287   6.218
 6596TIP3   OH219730   1.077   1.920   0.203
 6596TIP3    H119731   1.106   2.007   0.232
 6596TIP3    H219732   1.117   1.859   0.265
 6597TIP3   OH219733   1.557   5.837   5.523
 6597TIP3    H119734   1.504   5.822   5.601
 6597TIP3    H219735   1.498   5.882   5.462
 6598TIP3   OH219736   1.152   6.795   5.386
 6598TIP3    H119737   1.213   6.868   5.379
 6598TIP3    H219738   1.068   6.835   5.408
 6599TIP3   OH219739   7.993   1.201   6.762
 6599TIP3    H119740   8.039   1.123   6.795
 6599TIP3    H219741   7.937   1.168   6.691
 6600TIP3   OH219742   7.105   7.554   5.843
 6600TIP3    H119743   7.200   7.548   5.829
 6600TIP3    H219744   7.067   7.544   5.756
 6601TIP3   OH219745   4.990   0.237   3.708
 6601TIP3    H119746   4.962   0.156   3.666
 6601TIP3    H219747   5.084   0.227   3.722
 6602TIP3   OH219748   0.167   5.838   0.744
 6602TIP3    H119749   0.120   5.854   0.662
 6602TIP3    H219750   0.238   5.902   0.744
 6603TIP3   OH219751   5.430   4.783   4.821
 6603TIP3    H119752   5.481   4.857   4.788
 6603TIP3    H219753   5.477   4.706   4.790
 6604TIP3   OH219754   1.232   4.667   4.862
 6604TIP3    H119755   1.205   4.758   4.875
 6604TIP3    H219756   1.222   4.651   4.768
 6605TIP3   OH219757   3.937   4.194   3.654
 6605TIP3    H119758   3.853   4.239   3.663
 6605TIP3    H219759   3.914   4.103   3.634
 6606TIP3   OH219760   3.095   2.885   3.009
 6606TIP3    H119761   3.014   2.873   2.960
 6606TIP3    H219762   3.152   2.934   2.950
 6607TIP3   OH219763   4.454   1.199   3.945
 6607TIP3    H119764   4.458   1.110   3.911
 6607TIP3    H219765   4.446   1.254   3.867
 6608TIP3   OH219766   5.380   3.363   3.470
 6608TIP3    H119767   5.352   3.364   3.379
 6608TIP3    H219768   5.359   3.450   3.503
 6609TIP3   OH219769   5.772   0.473   2.391
 6609TIP3    H119770   5.721   0.396   2.366
 6609TIP3    H219771   5.785   0.521   2.309
 6610TIP3   OH219772   3.645   1.851   1.668
 6610TIP3    H119773   3.709   1.886   1.731
 6610TIP3    H219774   3.593   1.789   1.720
 6611TIP3   OH219775   6.432   0.194   0.200
 6611TIP3    H119776   6.450   0.217   0.291
 6611TIP3    H219777   6.517   0.200   0.156
 6612TIP3   OH219778   3.192   6.430   0.215
 6612TIP3    H119779   3.177   6.524   0.202
 6612TIP3    H219780   3.106   6.390   0.200
 6613TIP3   OH219781   4.658   0.783   0.121
 6613TIP3    H119782   4.661   0.741   0.035
 6613TIP3    H219783   4.636   0.874   0.103
 6614TIP3   OH219784   5.597   0.443   3.426
 6614TIP3    H119785   5.685   0.417   3.455
 6614TIP3    H219786   5.539   0.376   3.461
 6615TIP3   OH219787   2.481   3.228   2.693
 6615TIP3    H119788   2.515   3.262   2.776
 6615TIP3    H219789   2.533   3.272   2.626
 6616TIP3   OH219790   7.449   0.588   5.157
 6616TIP3    H119791   7.503   0.629   5.225
 6616TIP3    H219792   7.400   0.520   5.204
 6617TIP3   OH219793   6.665   4.873   6.057
 6617TIP3    H119794   6.700   4.871   6.146
 6617TIP3    H219795   6.712   4.804   6.010
 6618TIP3   OH219796   6.493   6.775   1.195
 6618TIP3    H119797   6.536   6.835   1.256
 6618TIP3    H219798   6.537   6.691   1.209
 6619TIP3   OH219799   7.851   2.242   3.846
 6619TIP3    H119800   7.872   2.149   3.843
 6619TIP3    H219801   7.758   2.245   3.868
 6620TIP3   OH219802   4.209   1.159   0.107
 6620TIP3    H119803   4.257   1.231   0.066
 6620TIP3    H219804   4.117   1.177   0.088
 6621TIP3   OH219805   7.769   6.730   1.881
 6621TIP3    H119806   7.767   6.642   1.917
 6621TIP3    H219807   7.857   6.739   1.844
 6622TIP3   OH219808   3.325   3.346   2.358
 6622TIP3    H119809   3.413   3.313   2.344
 6622TIP3    H219810   3.282   3.279   2.411
 6623TIP3   OH219811   4.506   1.321   1.097
 6623TIP3    H119812   4.465   1.340   1.013
 6623TIP3    H219813   4.433   1.319   1.159
 6624TIP3   OH219814   6.695   5.291   0.868
 6624TIP3    H119815   6.600   5.287   0.873
 6624TIP3    H219816   6.721   5.337   0.948
 6625TIP3   OH219817   0.051   4.334   2.616
 6625TIP3    H119818   0.128   4.307   2.567
 6625TIP3    H219819  -0.018   4.274   2.588
 6626TIP3   OH219820   7.317   6.976   5.616
 6626TIP3    H119821   7.222   6.978   5.608
 6626TIP3    H219822   7.349   7.016   5.535
 6627TIP3   OH219823   7.607   3.850   4.245
 6627TIP3    H119824   7.642   3.774   4.291
 6627TIP3    H219825   7.536   3.882   4.301
 6628TIP3   OH219826   6.386   1.354   4.319
 6628TIP3    H119827   6.420   1.362   4.230
 6628TIP3    H219828   6.459   1.380   4.375
 6629TIP3   OH219829   0.513   1.176   2.505
 6629TIP3    H119830   0.504   1.270   2.521
 6629TIP3    H219831   0.604   1.157   2.524
 6630TIP3   OH219832   5.493   2.268   2.189
 6630TIP3    H119833   5.546   2.198   2.228
 6630TIP3    H219834   5.496   2.249   2.095
 6631TIP3   OH219835   1.573   7.437   0.887
 6631TIP3    H119836   1.542   7.410   0.974
 6631TIP3    H219837   1.666   7.456   0.900
 6632TIP3   OH219838   8.165   7.543   2.246
 6632TIP3    H119839   8.162   7.579   2.334
 6632TIP3    H219840   8.081   7.569   2.206
 6633TIP3   OH219841   2.347   6.952   4.373
 6633TIP3    H119842   2.431   6.918   4.403
 6633TIP3    H219843   2.327   6.903   4.293
 6634TIP3   OH219844   4.541   3.365   0.308
 6634TIP3    H119845   4.456   3.335   0.341
 6634TIP3    H219846   4.602   3.351   0.380
 6635TIP3   OH219847   7.638   0.845   2.481
 6635TIP3    H119848   7.580   0.830   2.406
 6635TIP3    H219849   7.584   0.827   2.558
 6636TIP3   OH219850   3.633   7.476   3.645
 6636TIP3    H119851   3.669   7.559   3.613
 6636TIP3    H219852   3.549   7.500   3.684
 6637TIP3   OH219853   2.471   3.611   6.188
 6637TIP3    H119854   2.479   3.559   6.108
 6637TIP3    H219855   2.379   3.601   6.213
 6638TIP3   OH219856   5.809   1.589   2.699
 6638TIP3    H119857   5.825   1.495   2.689
 6638TIP3    H219858   5.714   1.598   2.687
 6639TIP3   OH219859   7.229   7.707   1.538
 6639TIP3    H119860   7.180   7.762   1.477
 6639TIP3    H219861   7.257   7.767   1.607
 6640TIP3   OH219862   2.126   2.790   1.455
 6640TIP3    H119863   2.033   2.812   1.463
 6640TIP3    H219864   2.129   2.727   1.383
 6641TIP3   OH219865   5.279   6.714   1.856
 6641TIP3    H119866   5.265   6.769   1.933
 6641TIP3    H219867   5.371   6.729   1.833
 6642TIP3   OH219868   7.773   6.287   4.556
 6642TIP3    H119869   7.774   6.322   4.645
 6642TIP3    H219870   7.734   6.356   4.504
 6643TIP3   OH219871   2.635   3.217   4.076
 6643TIP3    H119872   2.584   3.164   4.015
 6643TIP3    H219873   2.659   3.157   4.147
 6644TIP3   OH219874   4.210   4.376   5.773
 6644TIP3    H119875   4.171   4.457   5.806
 6644TIP3    H219876   4.304   4.389   5.783
 6645TIP3   OH219877   1.203   1.265   0.796
 6645TIP3    H119878   1.238   1.177   0.784
 6645TIP3    H219879   1.266   1.308   0.855
 6646TIP3   OH219880   2.356   0.796   5.340
 6646TIP3    H119881   2.372   0.746   5.260
 6646TIP3    H219882   2.363   0.887   5.313
 6647TIP3   OH219883   0.704   5.127   1.450
 6647TIP3    H119884   0.613   5.126   1.420
 6647TIP3    H219885   0.698   5.143   1.545
 6648TIP3   OH219886   0.321   0.650   3.600
 6648TIP3    H119887   0.314   0.695   3.685
 6648TIP3    H219888   0.275   0.708   3.540
 6649TIP3   OH219889   2.195   4.660   3.256
 6649TIP3    H119890   2.157   4.748   3.261
 6649TIP3    H219891   2.185   4.634   3.165
 6650TIP3   OH219892   1.576   5.817   4.423
 6650TIP3    H119893   1.524   5.737   4.419
 6650TIP3    H219894   1.659   5.793   4.381
 6651TIP3   OH219895   6.067   3.351   5.360
 6651TIP3    H119896   6.109   3.330   5.443
 6651TIP3    H219897   6.105   3.435   5.333
 6652TIP3   OH219898   0.823   2.897   2.367
 6652TIP3    H119899   0.773   2.820   2.340
 6652TIP3    H219900   0.912   2.864   2.381
 6653TIP3   OH219901   0.797   4.807   1.370
 6653TIP3    H119902   0.705   4.832   1.368
 6653TIP3    H219903   0.801   4.736   1.434
 6654TIP3   OH219904   4.295   3.758   3.516
 6654TIP3    H119905   4.207   3.790   3.496
 6654TIP3    H219906   4.341   3.835   3.550
 6655TIP3   OH219907   5.264   6.216   2.891
 6655TIP3    H119908   5.176   6.180   2.879
 6655TIP3    H219909   5.319   6.141   2.911
 6656TIP3   OH219910   7.471   6.881   1.846
 6656TIP3    H119911   7.443   6.862   1.936
 6656TIP3    H219912   7.559   6.843   1.841
 6657TIP3   OH219913   4.995   5.665   3.485
 6657TIP3    H119914   5.047   5.606   3.431
 6657TIP3    H219915   5.037   5.662   3.571
 6658TIP3   OH219916   3.130   3.857   2.338
 6658TIP3    H119917   3.049   3.815   2.309
 6658TIP3    H219918   3.105   3.903   2.418
 6659TIP3   OH219919   3.067   7.255   5.996
 6659TIP3    H119920   3.139   7.317   5.986
 6659TIP3    H219921   3.067   7.233   6.089
 6660TIP3   OH219922   7.027   1.825   0.161
 6660TIP3    H119923   7.070   1.756   0.110
 6660TIP3    H219924   7.099   1.881   0.190
 6661TIP3   OH219925   5.827   1.513   4.954
 6661TIP3    H119926   5.836   1.419   4.965
 6661TIP3    H219927   5.916   1.548   4.961
 6662TIP3   OH219928   7.353   4.434   5.417
 6662TIP3    H119929   7.264   4.430   5.383
 6662TIP3    H219930   7.345   4.476   5.503
 6663TIP3   OH219931   6.131   7.635   3.212
 6663TIP3    H119932   6.077   7.696   3.162
 6663TIP3    H219933   6.172   7.690   3.279
 6664TIP3   OH219934   2.813   7.008   5.684
 6664TIP3    H119935   2.893   7.009   5.632
 6664TIP3    H219936   2.789   6.916   5.691
 6665TIP3   OH219937   3.862   1.662   0.346
 6665TIP3    H119938   3.828   1.601   0.279
 6665TIP3    H219939   3.896   1.736   0.295
 6666TIP3   OH219940   3.385   1.157   5.706
 6666TIP3    H119941   3.388   1.252   5.716
 6666TIP3    H219942   3.295   1.138   5.680
 6667TIP3   OH219943   3.515   0.166   4.355
 6667TIP3    H119944   3.510   0.248   4.404
 6667TIP3    H219945   3.503   0.192   4.264
 6668TIP3   OH219946   5.194   2.990   5.733
 6668TIP3    H119947   5.285   3.010   5.755
 6668TIP3    H219948   5.176   3.042   5.655
 6669TIP3   OH219949   2.007   7.443   2.638
 6669TIP3    H119950   1.934   7.472   2.583
 6669TIP3    H219951   2.082   7.495   2.608
 6670TIP3   OH219952   0.690   2.163   0.091
 6670TIP3    H119953   0.615   2.198   0.043
 6670TIP3    H219954   0.698   2.221   0.167
 6671TIP3   OH219955   3.907   0.417   0.535
 6671TIP3    H119956   3.925   0.358   0.608
 6671TIP3    H219957   3.931   0.504   0.568
 6672TIP3   OH219958   1.427   1.958   4.297
 6672TIP3    H119959   1.478   1.957   4.378
 6672TIP3    H219960   1.490   1.936   4.229
 6673TIP3   OH219961   3.653   5.963   5.690
 6673TIP3    H119962   3.568   5.926   5.668
 6673TIP3    H219963   3.704   5.889   5.722
 6674TIP3   OH219964   1.366   2.978   4.139
 6674TIP3    H119965   1.333   3.028   4.214
 6674TIP3    H219966   1.421   3.040   4.092
 6675TIP3   OH219967   6.755   6.356   2.876
 6675TIP3    H119968   6.686   6.390   2.819
 6675TIP3    H219969   6.709   6.317   2.950
 6676TIP3   OH219970   5.593   1.053   0.410
 6676TIP3    H119971   5.641   1.072   0.491
 6676TIP3    H219972   5.662   1.029   0.347
 6677TIP3   OH219973   4.812   5.841   6.446
 6677TIP3    H119974   4.903   5.812   6.439
 6677TIP3    H219975   4.779   5.837   6.356
 6678TIP3   OH219976   8.269   1.635   1.323
 6678TIP3    H119977   8.182   1.642   1.284
 6678TIP3    H219978   8.253   1.613   1.415
 6679TIP3   OH219979   6.365   5.880   5.368
 6679TIP3    H119980   6.450   5.854   5.404
 6679TIP3    H219981   6.364   5.841   5.280
 6680TIP3   OH219982   7.824   3.436   1.902
 6680TIP3    H119983   7.884   3.372   1.864
 6680TIP3    H219984   7.856   3.448   1.991
 6681TIP3   OH219985   4.287   7.187   1.433
 6681TIP3    H119986   4.308   7.176   1.341
 6681TIP3    H219987   4.319   7.274   1.455
 6682TIP3   OH219988   3.629   1.430   0.437
 6682TIP3    H119989   3.593   1.427   0.526
 6682TIP3    H219990   3.721   1.408   0.447
 6683TIP3   OH219991   4.230   7.385   4.353
 6683TIP3    H119992   4.143   7.420   4.331
 6683TIP3    H219993   4.230   7.380   4.448
 6684TIP3   OH219994   5.635   7.420   4.186
 6684TIP3    H119995   5.566   7.354   4.173
 6684TIP3    H219996   5.623   7.450   4.276
 6685TIP3   OH219997   1.519   3.742   1.230
 6685TIP3    H119998   1.453   3.678   1.203
 6685TIP3    H219999   1.570   3.758   1.151
 6686TIP3   OH220000   0.483   1.426   5.337
 6686TIP3    H120001   0.515   1.454   5.423
 6686TIP3    H220002   0.487   1.505   5.283
 6687TIP3   OH220003   1.451   1.230   3.484
 6687TIP3    H120004   1.480   1.294   3.418
 6687TIP3    H220005   1.532   1.188   3.513
 6688TIP3   OH220006   3.900   4.064   0.905
 6688TIP3    H120007   3.913   3.969   0.907
 6688TIP3    H220008   3.976   4.097   0.857
 6689TIP3   OH220009   6.191   3.291   1.718
 6689TIP3    H120010   6.166   3.383   1.730
 6689TIP3    H220011   6.193   3.254   1.806
 6690TIP3   OH220012   3.110   0.064   0.565
 6690TIP3    H120013   3.121   0.102   0.478
 6690TIP3    H220014   3.085   0.138   0.621
 6691TIP3   OH220015   2.020   4.704   5.288
 6691TIP3    H120016   2.024   4.647   5.211
 6691TIP3    H220017   1.958   4.661   5.347
 6692TIP3   OH220018   6.556   3.885   3.609
 6692TIP3    H120019   6.591   3.800   3.636
 6692TIP3    H220020   6.572   3.942   3.684
 6693TIP3   OH220021   1.645   4.178   5.673
 6693TIP3    H120022   1.552   4.202   5.670
 6693TIP3    H220023   1.650   4.108   5.738
 6694TIP3   OH220024   4.755   6.766   1.828
 6694TIP3    H120025   4.750   6.692   1.888
 6694TIP3    H220026   4.821   6.740   1.763
 6695TIP3   OH220027   6.757   1.189   0.721
 6695TIP3    H120028   6.785   1.108   0.680
 6695TIP3    H220029   6.738   1.248   0.648
 6696TIP3   OH220030   5.883   0.531   6.203
 6696TIP3    H120031   5.852   0.465   6.141
 6696TIP3    H220032   5.838   0.611   6.179
 6697TIP3   OH220033   1.802   1.098   5.197
 6697TIP3    H120034   1.844   1.021   5.158
 6697TIP3    H220035   1.709   1.075   5.202
 6698TIP3   OH220036   2.146   0.118   6.383
 6698TIP3    H120037   2.241   0.109   6.379
 6698TIP3    H220038   2.114   0.061   6.313
 6699TIP3   OH220039   8.108   4.932   3.061
 6699TIP3    H120040   8.094   4.951   3.154
 6699TIP3    H220041   8.159   4.851   3.060
 6700TIP3   OH220042   0.424   7.041   1.447
 6700TIP3    H120043   0.393   6.981   1.514
 6700TIP3    H220044   0.358   7.111   1.444
 6701TIP3   OH220045   0.272   3.453   0.985
 6701TIP3    H120046   0.299   3.454   0.893
 6701TIP3    H220047   0.353   3.438   1.034
 6702TIP3   OH220048   0.180   5.052   6.608
 6702TIP3    H120049   0.169   5.072   6.515
 6702TIP3    H220050   0.198   5.137   6.648
 6703TIP3   OH220051   0.360   5.392   4.548
 6703TIP3    H120052   0.284   5.449   4.561
 6703TIP3    H220053   0.340   5.344   4.468
 6704TIP3   OH220054   1.385   2.834   4.917
 6704TIP3    H120055   1.469   2.789   4.920
 6704TIP3    H220056   1.320   2.764   4.927
 6705TIP3   OH220057   7.134   1.281   1.626
 6705TIP3    H120058   7.116   1.188   1.637
 6705TIP3    H220059   7.070   1.311   1.561
 6706TIP3   OH220060   6.039   2.363   6.334
 6706TIP3    H120061   6.066   2.454   6.342
 6706TIP3    H220062   5.956   2.358   6.381
 6707TIP3   OH220063   6.200   3.728   2.506
 6707TIP3    H120064   6.292   3.704   2.497
 6707TIP3    H220065   6.201   3.804   2.563
 6708TIP3   OH220066   3.248   1.692   2.697
 6708TIP3    H120067   3.154   1.705   2.708
 6708TIP3    H220068   3.264   1.602   2.725
 6709TIP3   OH220069   1.775   1.905   1.243
 6709TIP3    H120070   1.699   1.962   1.230
 6709TIP3    H220071   1.775   1.847   1.167
 6710TIP3   OH220072   2.020   4.942   1.814
 6710TIP3    H120073   2.082   4.968   1.747
 6710TIP3    H220074   1.953   4.892   1.767
 6711TIP3   OH220075   7.399   3.130   1.051
 6711TIP3    H120076   7.389   3.054   1.108
 6711TIP3    H220077   7.338   3.195   1.085
 6712TIP3   OH220078   3.577   5.254   0.040
 6712TIP3    H120079   3.564   5.336  -0.006
 6712TIP3    H220080   3.571   5.278   0.133
 6713TIP3   OH220081   8.243   6.029   1.681
 6713TIP3    H120082   8.208   5.978   1.753
 6713TIP3    H220083   8.167   6.054   1.629
 6714TIP3   OH220084   3.603   7.603   5.887
 6714TIP3    H120085   3.527   7.661   5.889
 6714TIP3    H220086   3.575   7.523   5.932
 6715TIP3   OH220087   7.015   4.650   2.445
 6715TIP3    H120088   6.967   4.567   2.440
 6715TIP3    H220089   7.034   4.672   2.354
 6716TIP3   OH220090   1.006   6.242   2.153
 6716TIP3    H120091   0.947   6.291   2.095
 6716TIP3    H220092   1.092   6.281   2.137
 6717TIP3   OH220093   8.236   7.702   6.469
 6717TIP3    H120094   8.314   7.664   6.509
 6717TIP3    H220095   8.181   7.728   6.543
 6718TIP3   OH220096   7.171   5.254   4.555
 6718TIP3    H120097   7.177   5.348   4.539
 6718TIP3    H220098   7.139   5.218   4.472
 6719TIP3   OH220099   8.217   4.187   2.931
 6719TIP3    H120100   8.296   4.138   2.909
 6719TIP3    H220101   8.152   4.160   2.866
 6720TIP3   OH220102   4.466   1.400   0.816
 6720TIP3    H120103   4.484   1.484   0.773
 6720TIP3    H220104   4.549   1.351   0.809
 6721TIP3   OH220105   4.937   7.352   5.619
 6721TIP3    H120106   4.901   7.325   5.704
 6721TIP3    H220107   4.925   7.447   5.618
 6722TIP3   OH220108   2.996   3.580   3.394
 6722TIP3    H120109   3.025   3.491   3.374
 6722TIP3    H220110   3.072   3.622   3.434
 6723TIP3   OH220111   3.476   1.843   1.140
 6723TIP3    H120112   3.496   1.790   1.217
 6723TIP3    H220113   3.445   1.780   1.074
 6724TIP3   OH220114   4.717   0.110   0.814
 6724TIP3    H120115   4.698   0.203   0.823
 6724TIP3    H220116   4.800   0.097   0.860
 6725TIP3   OH220117   0.918   7.707   5.266
 6725TIP3    H120118   0.970   7.788   5.261
 6725TIP3    H220119   0.828   7.737   5.276
 6726TIP3   OH220120   2.039   5.538   5.874
 6726TIP3    H120121   2.027   5.516   5.782
 6726TIP3    H220122   2.051   5.634   5.874
 6727TIP3   OH220123   7.752   4.204   5.962
 6727TIP3    H120124   7.689   4.137   5.989
 6727TIP3    H220125   7.705   4.287   5.976
 6728TIP3   OH220126   1.919   1.334   3.199
 6728TIP3    H120127   1.892   1.416   3.158
 6728TIP3    H220128   1.997   1.356   3.250
 6729TIP3   OH220129   4.190   0.466   0.313
 6729TIP3    H120130   4.114   0.411   0.334
 6729TIP3    H220131   4.229   0.425   0.236
 6730TIP3   OH220132   8.242   0.997   1.090
 6730TIP3    H120133   8.319   1.054   1.079
 6730TIP3    H220134   8.278   0.911   1.109
 6731TIP3   OH220135   7.731   2.223   2.667
 6731TIP3    H120136   7.756   2.287   2.600
 6731TIP3    H220137   7.688   2.153   2.619
 6732TIP3   OH220138   6.759   7.375   3.800
 6732TIP3    H120139   6.679   7.423   3.776
 6732TIP3    H220140   6.830   7.436   3.781
 6733TIP3   OH220141   6.010   7.386   2.556
 6733TIP3    H120142   6.101   7.356   2.552
 6733TIP3    H220143   6.015   7.481   2.542
 6734TIP3   OH220144   0.526   0.634   2.478
 6734TIP3    H120145   0.611   0.603   2.510
 6734TIP3    H220146   0.486   0.557   2.438
 6735TIP3   OH220147   4.524   7.258   5.833
 6735TIP3    H120148   4.510   7.240   5.926
 6735TIP3    H220149   4.498   7.177   5.789
 6736TIP3   OH220150   4.510   3.658   6.421
 6736TIP3    H120151   4.425   3.689   6.453
 6736TIP3    H220152   4.572   3.686   6.487
 6737TIP3   OH220153   4.390   6.062   0.115
 6737TIP3    H120154   4.418   5.981   0.159
 6737TIP3    H220155   4.434   6.132   0.164
 6738TIP3   OH220156   2.952   6.139   2.491
 6738TIP3    H120157   3.012   6.193   2.440
 6738TIP3    H220158   2.879   6.197   2.513
 6739TIP3   OH220159   5.040   5.863   2.303
 6739TIP3    H120160   5.096   5.941   2.299
 6739TIP3    H220161   5.055   5.828   2.391
 6740TIP3   OH220162   2.346   3.776   1.234
 6740TIP3    H120163   2.414   3.840   1.210
 6740TIP3    H220164   2.268   3.805   1.186
 6741TIP3   OH220165   5.809   4.562   2.805
 6741TIP3    H120166   5.899   4.537   2.824
 6741TIP3    H220167   5.757   4.516   2.871
 6742TIP3   OH220168   4.634   5.691   0.433
 6742TIP3    H120169   4.620   5.626   0.363
 6742TIP3    H220170   4.633   5.639   0.514
 6743TIP3   OH220171   2.362   0.818   4.231
 6743TIP3    H120172   2.326   0.751   4.173
 6743TIP3    H220173   2.419   0.870   4.174
 6744TIP3   OH220174   6.743   2.861   3.902
 6744TIP3    H120175   6.812   2.847   3.838
 6744TIP3    H220176   6.750   2.954   3.925
 6745TIP3   OH220177   1.724   3.571   4.704
 6745TIP3    H120178   1.658   3.620   4.654
 6745TIP3    H220179   1.795   3.634   4.717
 6746TIP3   OH220180   5.849   1.316   2.922
 6746TIP3    H120181   5.873   1.405   2.947
 6746TIP3    H220182   5.763   1.302   2.961
 6747TIP3   OH220183   7.644   2.587   4.270
 6747TIP3    H120184   7.583   2.571   4.198
 6747TIP3    H220185   7.695   2.662   4.242
 6748TIP3   OH220186   2.006   6.273   3.537
 6748TIP3    H120187   1.977   6.329   3.465
 6748TIP3    H220188   1.981   6.185   3.511
 6749TIP3   OH220189   6.591   2.069   2.061
 6749TIP3    H120190   6.680   2.069   2.096
 6749TIP3    H220191   6.553   2.151   2.093
 6750TIP3   OH220192   2.212   7.625   3.015
 6750TIP3    H120193   2.302   7.659   3.010
 6750TIP3    H220194   2.221   7.535   3.046
 6751TIP3   OH220195   2.094   4.867   2.525
 6751TIP3    H120196   2.091   4.928   2.451
 6751TIP3    H220197   2.188   4.861   2.547
 6752TIP3   OH220198   3.616   0.576   5.318
 6752TIP3    H120199   3.535   0.628   5.319
 6752TIP3    H220200   3.608   0.518   5.393
 6753TIP3   OH220201   0.428   7.174   0.231
 6753TIP3    H120202   0.446   7.224   0.151
 6753TIP3    H220203   0.489   7.101   0.228
 6754TIP3   OH220204   4.976   5.651   4.459
 6754TIP3    H120205   4.968   5.578   4.397
 6754TIP3    H220206   4.972   5.729   4.405
 6755TIP3   OH220207   4.583   3.618   3.915
 6755TIP3    H120208   4.596   3.644   3.824
 6755TIP3    H220209   4.527   3.686   3.952
 6756TIP3   OH220210   1.112   4.174   4.560
 6756TIP3    H120211   1.201   4.199   4.586
 6756TIP3    H220212   1.110   4.079   4.571
 6757TIP3   OH220213   7.431   1.522   4.975
 6757TIP3    H120214   7.338   1.533   4.994
 6757TIP3    H220215   7.434   1.466   4.898
 6758TIP3   OH220216   2.355   6.589   6.651
 6758TIP3    H120217   2.440   6.577   6.693
 6758TIP3    H220218   2.291   6.574   6.721
 6759TIP3   OH220219   0.027   5.321   2.980
 6759TIP3    H120220  -0.020   5.280   3.053
 6759TIP3    H220221   0.103   5.363   3.021
 6760TIP3   OH220222   7.894   4.653   1.491
 6760TIP3    H120223   7.873   4.561   1.474
 6760TIP3    H220224   7.898   4.660   1.586
 6761TIP3   OH220225   1.619   7.198   1.167
 6761TIP3    H120226   1.579   7.253   1.235
 6761TIP3    H220227   1.557   7.126   1.155
 6762TIP3   OH220228   2.485   6.055   4.203
 6762TIP3    H120229   2.420   6.124   4.195
 6762TIP3    H220230   2.471   6.019   4.291
 6763TIP3   OH220231   2.133   3.248   5.986
 6763TIP3    H120232   2.122   3.316   6.051
 6763TIP3    H220233   2.067   3.266   5.919
 6764TIP3   OH220234   0.316   4.695   5.069
 6764TIP3    H120235   0.406   4.710   5.038
 6764TIP3    H220236   0.303   4.760   5.137
 6765TIP3   OH220237   0.940   3.605   2.348
 6765TIP3    H120238   0.989   3.594   2.267
 6765TIP3    H220239   1.001   3.577   2.417
 6766TIP3   OH220240   7.753   7.813   2.544
 6766TIP3    H120241   7.794   7.777   2.623
 6766TIP3    H220242   7.659   7.808   2.562
 6767TIP3   OH220243   5.991   7.533   5.468
 6767TIP3    H120244   5.969   7.493   5.383
 6767TIP3    H220245   5.989   7.627   5.451
 6768TIP3   OH220246   3.025   3.981   1.436
 6768TIP3    H120247   3.023   3.906   1.377
 6768TIP3    H220248   3.060   3.946   1.518
 6769TIP3   OH220249   4.181   1.065   6.494
 6769TIP3    H120250   4.155   1.006   6.423
 6769TIP3    H220251   4.169   1.153   6.457
 6770TIP3   OH220252   3.805   2.887   3.495
 6770TIP3    H120253   3.855   2.954   3.542
 6770TIP3    H220254   3.726   2.874   3.548
 6771TIP3   OH220255   5.029   6.112   2.855
 6771TIP3    H120256   4.972   6.123   2.931
 6771TIP3    H220257   4.974   6.068   2.790
 6772TIP3   OH220258   3.751   5.538   2.786
 6772TIP3    H120259   3.706   5.573   2.863
 6772TIP3    H220260   3.832   5.589   2.781
 6773TIP3   OH220261   4.186   4.125   2.946
 6773TIP3    H120262   4.108   4.142   3.000
 6773TIP3    H220263   4.165   4.166   2.862
 6774TIP3   OH220264   3.780   7.678   0.398
 6774TIP3    H120265   3.821   7.757   0.433
 6774TIP3    H220266   3.708   7.711   0.344
 6775TIP3   OH220267   4.591   1.793   2.655
 6775TIP3    H120268   4.514   1.849   2.660
 6775TIP3    H220269   4.613   1.774   2.746
 6776TIP3   OH220270   4.892   7.556   2.798
 6776TIP3    H120271   4.887   7.517   2.710
 6776TIP3    H220272   4.817   7.520   2.844
 6777TIP3   OH220273   6.966   4.425   3.493
 6777TIP3    H120274   6.874   4.417   3.519
 6777TIP3    H220275   7.012   4.361   3.547
 6778TIP3   OH220276   6.622   2.267   2.582
 6778TIP3    H120277   6.673   2.209   2.526
 6778TIP3    H220278   6.609   2.217   2.663
 6779TIP3   OH220279   4.867   6.636   3.959
 6779TIP3    H120280   4.778   6.605   3.943
 6779TIP3    H220281   4.899   6.663   3.874
 6780TIP3   OH220282   3.818   4.767   5.189
 6780TIP3    H120283   3.851   4.715   5.262
 6780TIP3    H220284   3.748   4.714   5.151
 6781TIP3   OH220285   1.485   0.325   4.646
 6781TIP3    H120286   1.428   0.336   4.722
 6781TIP3    H220287   1.449   0.249   4.600
 6782TIP3   OH220288   0.283   6.793   1.271
 6782TIP3    H120289   0.221   6.852   1.229
 6782TIP3    H220290   0.233   6.714   1.288
 6783TIP3   OH220291   5.949   5.030   2.469
 6783TIP3    H120292   6.010   4.957   2.459
 6783TIP3    H220293   5.872   4.991   2.510
 6784TIP3   OH220294   6.749   5.815   5.758
 6784TIP3    H120295   6.782   5.744   5.703
 6784TIP3    H220296   6.700   5.771   5.828
 6785TIP3   OH220297   2.554   4.488   1.282
 6785TIP3    H120298   2.509   4.563   1.243
 6785TIP3    H220299   2.582   4.519   1.368
 6786TIP3   OH220300   1.386   5.756   5.729
 6786TIP3    H120301   1.318   5.806   5.685
 6786TIP3    H220302   1.442   5.822   5.770
 6787TIP3   OH220303   3.056   7.007   4.017
 6787TIP3    H120304   3.000   7.084   4.027
 6787TIP3    H220305   3.023   6.963   3.939
 6788TIP3   OH220306   1.048   6.780   5.081
 6788TIP3    H120307   1.005   6.865   5.088
 6788TIP3    H220308   1.059   6.751   5.171
 6789TIP3   OH220309   6.116   0.558   1.751
 6789TIP3    H120310   6.131   0.639   1.703
 6789TIP3    H220311   6.093   0.587   1.840
 6790TIP3   OH220312   2.171   3.556   0.811
 6790TIP3    H120313   2.106   3.555   0.740
 6790TIP3    H220314   2.254   3.540   0.767
 6791TIP3   OH220315   6.956   1.730   1.467
 6791TIP3    H120316   6.999   1.815   1.459
 6791TIP3    H220317   7.023   1.667   1.438
 6792TIP3   OH220318   1.432   6.492   0.091
 6792TIP3    H120319   1.394   6.454   0.170
 6792TIP3    H220320   1.485   6.421   0.054
 6793TIP3   OH220321   6.511   5.706   4.698
 6793TIP3    H120322   6.559   5.674   4.774
 6793TIP3    H220323   6.572   5.694   4.625
 6794TIP3   OH220324   0.293   1.771   1.772
 6794TIP3    H120325   0.299   1.747   1.679
 6794TIP3    H220326   0.287   1.687   1.818
 6795TIP3   OH220327   5.978   2.339   4.914
 6795TIP3    H120328   6.072   2.331   4.897
 6795TIP3    H220329   5.940   2.363   4.829
 6796TIP3   OH220330   7.900   3.997   2.295
 6796TIP3    H120331   7.852   3.950   2.364
 6796TIP3    H220332   7.983   3.951   2.287
 6797TIP3   OH220333   8.024   2.662   4.602
 6797TIP3    H120334   7.959   2.593   4.592
 6797TIP3    H220335   8.046   2.688   4.512
 6798TIP3   OH220336   6.815   4.647   6.544
 6798TIP3    H120337   6.891   4.636   6.486
 6798TIP3    H220338   6.852   4.646   6.632
 6799TIP3   OH220339   7.529   6.285   1.265
 6799TIP3    H120340   7.513   6.379   1.264
 6799TIP3    H220341   7.576   6.269   1.347
 6800TIP3   OH220342   2.023   0.722   4.833
 6800TIP3    H120343   1.941   0.681   4.806
 6800TIP3    H220344   1.995   0.803   4.876
 6801TIP3   OH220345   0.787   4.949   6.033
 6801TIP3    H120346   0.764   5.011   6.102
 6801TIP3    H220347   0.711   4.892   6.026
 6802TIP3   OH220348   5.228   2.164   0.063
 6802TIP3    H120349   5.170   2.231   0.100
 6802TIP3    H220350   5.268   2.206  -0.013
 6803TIP3   OH220351   5.389   7.371   0.042
 6803TIP3    H120352   5.413   7.289   0.085
 6803TIP3    H220353   5.294   7.365   0.030
 6804TIP3   OH220354   1.500   4.706   3.910
 6804TIP3    H120355   1.575   4.715   3.968
 6804TIP3    H220356   1.489   4.793   3.871
 6805TIP3   OH220357   4.609   6.957   2.850
 6805TIP3    H120358   4.686   7.013   2.834
 6805TIP3    H220359   4.544   6.988   2.787
 6806TIP3   OH220360   4.552   6.912   2.055
 6806TIP3    H120361   4.637   6.943   2.025
 6806TIP3    H220362   4.547   6.943   2.146
 6807TIP3   OH220363   3.260   3.705   6.255
 6807TIP3    H120364   3.252   3.770   6.185
 6807TIP3    H220365   3.173   3.667   6.264
 6808TIP3   OH220366   3.112   5.321   4.106
 6808TIP3    H120367   3.112   5.226   4.116
 6808TIP3    H220368   3.166   5.336   4.029
 6809TIP3   OH220369   7.072   3.357   4.566
 6809TIP3    H120370   6.997   3.338   4.509
 6809TIP3    H220371   7.050   3.316   4.649
 6810TIP3   OH220372   5.037   7.304   3.219
 6810TIP3    H120373   4.965   7.358   3.187
 6810TIP3    H220374   5.109   7.321   3.157
 6811TIP3   OH220375   6.934   7.709   3.883
 6811TIP3    H120376   6.979   7.790   3.859
 6811TIP3    H220377   6.962   7.646   3.817
 6812TIP3   OH220378   6.909   1.698   3.963
 6812TIP3    H120379   6.929   1.792   3.958
 6812TIP3    H220380   6.908   1.678   4.056
 6813TIP3   OH220381   5.739   1.511   0.985
 6813TIP3    H120382   5.721   1.476   0.898
 6813TIP3    H220383   5.791   1.443   1.028
 6814TIP3   OH220384   2.290   2.388   1.739
 6814TIP3    H120385   2.362   2.384   1.802
 6814TIP3    H220386   2.265   2.481   1.738
 6815TIP3   OH220387   2.054   4.418   0.648
 6815TIP3    H120388   2.144   4.443   0.629
 6815TIP3    H220389   2.013   4.409   0.562
 6816TIP3   OH220390   2.831   3.621   5.653
 6816TIP3    H120391   2.897   3.552   5.656
 6816TIP3    H220392   2.765   3.589   5.591
 6817TIP3   OH220393   6.821   5.160   0.202
 6817TIP3    H120394   6.766   5.172   0.280
 6817TIP3    H220395   6.909   5.184   0.230
 6818TIP3   OH220396   1.682   1.361   1.841
 6818TIP3    H120397   1.745   1.398   1.780
 6818TIP3    H220398   1.709   1.395   1.927
 6819TIP3   OH220399   3.903   2.409   2.553
 6819TIP3    H120400   3.856   2.492   2.544
 6819TIP3    H220401   3.839   2.343   2.529
 6820TIP3   OH220402   3.659   0.747   5.602
 6820TIP3    H120403   3.616   0.825   5.565
 6820TIP3    H220404   3.662   0.764   5.696
 6821TIP3   OH220405   0.669   2.721   4.817
 6821TIP3    H120406   0.647   2.806   4.856
 6821TIP3    H220407   0.611   2.659   4.860
 6822TIP3   OH220408   3.851   6.179   4.030
 6822TIP3    H120409   3.892   6.106   4.076
 6822TIP3    H220410   3.767   6.191   4.074
 6823TIP3   OH220411   4.483   1.122   1.995
 6823TIP3    H120412   4.398   1.152   1.962
 6823TIP3    H220413   4.466   1.091   2.084
 6824TIP3   OH220414   7.818   2.259   6.275
 6824TIP3    H120415   7.866   2.218   6.347
 6824TIP3    H220416   7.838   2.203   6.199
 6825TIP3   OH220417   2.461   6.224   5.307
 6825TIP3    H120418   2.460   6.224   5.403
 6825TIP3    H220419   2.388   6.281   5.282
 6826TIP3   OH220420   3.673   3.382   6.226
 6826TIP3    H120421   3.637   3.452   6.281
 6826TIP3    H220422   3.768   3.386   6.242
 6827TIP3   OH220423   2.603   2.097   5.487
 6827TIP3    H120424   2.689   2.057   5.488
 6827TIP3    H220425   2.559   2.062   5.564
 6828TIP3   OH220426   7.106   2.327   4.609
 6828TIP3    H120427   7.099   2.276   4.528
 6828TIP3    H220428   7.140   2.412   4.581
 6829TIP3   OH220429   6.127   5.061   5.836
 6829TIP3    H120430   6.162   5.076   5.923
 6829TIP3    H220431   6.168   5.129   5.782
 6830TIP3   OH220432   0.902   5.348   2.166
 6830TIP3    H120433   0.924   5.277   2.105
 6830TIP3    H220434   0.836   5.400   2.120
 6831TIP3   OH220435   0.143   3.275   4.676
 6831TIP3    H120436   0.071   3.212   4.672
 6831TIP3    H220437   0.211   3.236   4.621
 6832TIP3   OH220438   3.593   5.913   6.024
 6832TIP3    H120439   3.681   5.902   5.986
 6832TIP3    H220440   3.539   5.850   5.977
 6833TIP3   OH220441   2.179   3.297   5.301
 6833TIP3    H120442   2.271   3.319   5.283
 6833TIP3    H220443   2.178   3.201   5.305
 6834TIP3   OH220444   0.553   1.382   6.393
 6834TIP3    H120445   0.608   1.424   6.327
 6834TIP3    H220446   0.614   1.327   6.443
 6835TIP3   OH220447   7.030   5.309   0.384
 6835TIP3    H120448   7.002   5.263   0.464
 6835TIP3    H220449   6.955   5.364   0.362
 6836TIP3   OH220450   0.912   6.206   6.694
 6836TIP3    H120451   0.884   6.268   6.761
 6836TIP3    H220452   0.837   6.197   6.636
 6837TIP3   OH220453   2.047   1.970   1.202
 6837TIP3    H120454   1.953   1.956   1.213
 6837TIP3    H220455   2.075   2.011   1.284
 6838TIP3   OH220456   4.021   5.166   4.638
 6838TIP3    H120457   4.044   5.073   4.626
 6838TIP3    H220458   3.948   5.181   4.578
 6839TIP3   OH220459   7.520   0.319   3.346
 6839TIP3    H120460   7.524   0.292   3.438
 6839TIP3    H220461   7.439   0.281   3.313
 6840TIP3   OH220462   5.502   1.716   1.976
 6840TIP3    H120463   5.513   1.660   2.053
 6840TIP3    H220464   5.582   1.768   1.972
 6841TIP3   OH220465   2.276   3.702   0.105
 6841TIP3    H120466   2.305   3.678   0.017
 6841TIP3    H220467   2.351   3.679   0.161
 6842TIP3   OH220468   5.358   2.819   1.962
 6842TIP3    H120469   5.368   2.902   2.008
 6842TIP3    H220470   5.264   2.810   1.946
 6843TIP3   OH220471   7.446   4.263   0.490
 6843TIP3    H120472   7.421   4.348   0.526
 6843TIP3    H220473   7.448   4.205   0.566
 6844TIP3   OH220474   3.902   5.610   2.152
 6844TIP3    H120475   3.871   5.631   2.064
 6844TIP3    H220476   3.922   5.517   2.149
 6845TIP3   OH220477   6.529   0.781   0.820
 6845TIP3    H120478   6.479   0.853   0.781
 6845TIP3    H220479   6.526   0.711   0.754
 6846TIP3   OH220480   5.097   6.344   3.950
 6846TIP3    H120481   5.154   6.413   3.917
 6846TIP3    H220482   5.039   6.388   4.012
 6847TIP3   OH220483   0.749   4.019   6.587
 6847TIP3    H120484   0.714   4.079   6.652
 6847TIP3    H220485   0.814   4.071   6.539
 6848TIP3   OH220486   2.295   0.235   4.065
 6848TIP3    H120487   2.344   0.277   4.136
 6848TIP3    H220488   2.332   0.147   4.059
 6849TIP3   OH220489   3.433   0.371   1.233
 6849TIP3    H120490   3.405   0.384   1.324
 6849TIP3    H220491   3.491   0.295   1.236
 6850TIP3   OH220492   3.320   3.809   5.613
 6850TIP3    H120493   3.227   3.803   5.591
 6850TIP3    H220494   3.348   3.718   5.620
 6851TIP3   OH220495   5.961   6.517   6.525
 6851TIP3    H120496   5.993   6.429   6.542
 6851TIP3    H220497   5.938   6.517   6.432
 6852TIP3   OH220498   2.393   1.740   2.033
 6852TIP3    H120499   2.469   1.768   1.980
 6852TIP3    H220500   2.388   1.646   2.020
 6853TIP3   OH220501   3.947   3.677   0.644
 6853TIP3    H120502   3.855   3.674   0.617
 6853TIP3    H220503   3.984   3.595   0.610
 6854TIP3   OH220504   1.125   5.704   2.110
 6854TIP3    H120505   1.176   5.774   2.150
 6854TIP3    H220506   1.116   5.638   2.180
 6855TIP3   OH220507   3.461   5.077   6.510
 6855TIP3    H120508   3.404   5.142   6.469
 6855TIP3    H220509   3.534   5.128   6.546
 6856TIP3   OH220510   3.391   6.714   4.166
 6856TIP3    H120511   3.368   6.689   4.256
 6856TIP3    H220512   3.430   6.800   4.175
 6857TIP3   OH220513   1.555   7.589   3.942
 6857TIP3    H120514   1.571   7.571   4.034
 6857TIP3    H220515   1.500   7.668   3.941
 6858TIP3   OH220516   1.953   7.324   2.373
 6858TIP3    H120517   1.885   7.263   2.403
 6858TIP3    H220518   1.913   7.410   2.380
 6859TIP3   OH220519   4.990   0.173   2.641
 6859TIP3    H120520   5.078   0.142   2.621
 6859TIP3    H220521   4.948   0.099   2.685
 6860TIP3   OH220522   3.566   1.936   6.604
 6860TIP3    H120523   3.513   1.980   6.538
 6860TIP3    H220524   3.542   1.978   6.687
 6861TIP3   OH220525   1.068   7.076   0.764
 6861TIP3    H120526   0.980   7.091   0.798
 6861TIP3    H220527   1.124   7.080   0.841
 6862TIP3   OH220528   1.930   3.124   0.509
 6862TIP3    H120529   2.024   3.121   0.489
 6862TIP3    H220530   1.891   3.170   0.435
 6863TIP3   OH220531   2.057   4.217   5.897
 6863TIP3    H120532   1.980   4.271   5.880
 6863TIP3    H220533   2.023   4.127   5.902
 6864TIP3   OH220534   5.507   3.412   6.655
 6864TIP3    H120535   5.585   3.440   6.703
 6864TIP3    H220536   5.434   3.455   6.700
 6865TIP3   OH220537   3.601   4.659   0.183
 6865TIP3    H120538   3.579   4.752   0.189
 6865TIP3    H220539   3.526   4.613   0.219
 6866TIP3   OH220540   5.957   4.919   5.598
 6866TIP3    H120541   5.967   4.906   5.503
 6866TIP3    H220542   6.045   4.904   5.633
 6867TIP3   OH220543   1.435   7.117   3.188
 6867TIP3    H120544   1.467   7.058   3.119
 6867TIP3    H220545   1.474   7.202   3.166
 6868TIP3   OH220546   0.256   3.588   1.263
 6868TIP3    H120547   0.219   3.676   1.262
 6868TIP3    H220548   0.317   3.587   1.189
 6869TIP3   OH220549   3.363   2.256   6.698
 6869TIP3    H120550   3.387   2.169   6.730
 6869TIP3    H220551   3.285   2.242   6.644
 6870TIP3   OH220552   5.716   5.913   4.457
 6870TIP3    H120553   5.634   5.937   4.500
 6870TIP3    H220554   5.690   5.853   4.387
 6871TIP3   OH220555   4.948   3.258   3.969
 6871TIP3    H120556   4.854   3.251   3.954
 6871TIP3    H220557   4.972   3.343   3.931
 6872TIP3   OH220558   0.877   7.350   4.123
 6872TIP3    H120559   0.905   7.258   4.121
 6872TIP3    H220560   0.959   7.399   4.122
 6873TIP3   OH220561   4.393   0.885   1.872
 6873TIP3    H120562   4.462   0.950   1.880
 6873TIP3    H220563   4.413   0.819   1.937
 6874TIP3   OH220564   0.137   2.100   1.251
 6874TIP3    H120565   0.175   2.048   1.180
 6874TIP3    H220566   0.061   2.142   1.212
 6875TIP3   OH220567   4.063   5.196   4.942
 6875TIP3    H120568   4.037   5.194   4.850
 6875TIP3    H220569   4.031   5.113   4.977
 6876TIP3   OH220570   5.834   1.147   3.399
 6876TIP3    H120571   5.785   1.066   3.386
 6876TIP3    H220572   5.771   1.206   3.441
 6877TIP3   OH220573   7.797   1.476   0.471
 6877TIP3    H120574   7.745   1.410   0.425
 6877TIP3    H220575   7.818   1.434   0.555
 6878TIP3   OH220576   3.014   7.250   0.138
 6878TIP3    H120577   3.083   7.307   0.170
 6878TIP3    H220578   3.055   7.200   0.068
 6879TIP3   OH220579   7.471   0.766   1.190
 6879TIP3    H120580   7.506   0.716   1.264
 6879TIP3    H220581   7.539   0.831   1.170
 6880TIP3   OH220582   3.704   4.419   5.307
 6880TIP3    H120583   3.671   4.330   5.295
 6880TIP3    H220584   3.709   4.455   5.219
 6881TIP3   OH220585   3.515   0.932   4.163
 6881TIP3    H120586   3.453   0.864   4.139
 6881TIP3    H220587   3.462   1.011   4.171
 6882TIP3   OH220588   5.981   3.222   2.860
 6882TIP3    H120589   5.926   3.286   2.814
 6882TIP3    H220590   6.010   3.269   2.938
 6883TIP3   OH220591   3.524   1.451   0.107
 6883TIP3    H120592   3.505   1.493   0.023
 6883TIP3    H220593   3.514   1.358   0.090
 6884TIP3   OH220594   7.003   6.179   4.178
 6884TIP3    H120595   7.017   6.111   4.244
 6884TIP3    H220596   6.965   6.133   4.104
 6885TIP3   OH220597   0.714   0.984   4.868
 6885TIP3    H120598   0.622   0.979   4.895
 6885TIP3    H220599   0.740   1.074   4.886
 6886TIP3   OH220600   5.517   1.693   3.038
 6886TIP3    H120601   5.439   1.714   2.987
 6886TIP3    H220602   5.497   1.725   3.126
 6887TIP3   OH220603   0.561   6.532   2.704
 6887TIP3    H120604   0.632   6.534   2.640
 6887TIP3    H220605   0.545   6.624   2.725
 6888TIP3   OH220606   6.346   1.987   0.835
 6888TIP3    H120607   6.270   2.036   0.802
 6888TIP3    H220608   6.409   1.992   0.763
 6889TIP3   OH220609   6.875   0.154   0.649
 6889TIP3    H120610   6.915   0.239   0.666
 6889TIP3    H220611   6.928   0.092   0.699
 6890TIP3   OH220612   1.184   5.106   5.394
 6890TIP3    H120613   1.159   5.031   5.449
 6890TIP3    H220614   1.128   5.098   5.317
 6891TIP3   OH220615   6.839   1.479   1.283
 6891TIP3    H120616   6.904   1.458   1.216
 6891TIP3    H220617   6.826   1.573   1.275
 6892TIP3   OH220618   0.592   2.154   2.177
 6892TIP3    H120619   0.524   2.089   2.194
 6892TIP3    H220620   0.657   2.139   2.246
 6893TIP3   OH220621   5.666   0.610   0.232
 6893TIP3    H120622   5.724   0.545   0.273
 6893TIP3    H220623   5.584   0.563   0.217
 6894TIP3   OH220624   6.688   1.387   6.591
 6894TIP3    H120625   6.655   1.301   6.618
 6894TIP3    H220626   6.662   1.446   6.662
 6895TIP3   OH220627   1.741   7.239   2.795
 6895TIP3    H120628   1.711   7.235   2.705
 6895TIP3    H220629   1.837   7.236   2.789
 6896TIP3   OH220630   5.201   3.124   1.865
 6896TIP3    H120631   5.270   3.171   1.818
 6896TIP3    H220632   5.242   3.097   1.948
 6897TIP3   OH220633   8.191   6.021   1.385
 6897TIP3    H120634   8.217   6.106   1.351
 6897TIP3    H220635   8.198   5.962   1.309
 6898TIP3   OH220636   5.511   7.620  -0.034
 6898TIP3    H120637   5.474   7.629  -0.122
 6898TIP3    H220638   5.472   7.539   0.000
 6899TIP3   OH220639   0.475   3.139   2.333
 6899TIP3    H120640   0.439   3.074   2.394
 6899TIP3    H220641   0.563   3.108   2.313
 6900TIP3   OH220642   7.760   5.957   3.265
 6900TIP3    H120643   7.691   5.892   3.276
 6900TIP3    H220644   7.803   5.933   3.183
 6901TIP3   OH220645   2.004   3.493   2.832
 6901TIP3    H120646   1.990   3.439   2.910
 6901TIP3    H220647   2.027   3.579   2.867
 6902TIP3   OH220648   7.631   2.542   3.190
 6902TIP3    H120649   7.668   2.455   3.175
 6902TIP3    H220650   7.550   2.542   3.139
 6903TIP3   OH220651   2.982   6.121   6.614
 6903TIP3    H120652   2.932   6.132   6.695
 6903TIP3    H220653   3.073   6.130   6.640
 6904TIP3   OH220654   6.614   5.764   3.374
 6904TIP3    H120655   6.625   5.689   3.316
 6904TIP3    H220656   6.526   5.797   3.355
 6905TIP3   OH220657   3.937   2.772   5.627
 6905TIP3    H120658   3.876   2.697   5.625
 6905TIP3    H220659   3.882   2.847   5.603
 6906TIP3   OH220660   3.177   4.236   1.316
 6906TIP3    H120661   3.242   4.254   1.384
 6906TIP3    H220662   3.153   4.144   1.329
 6907TIP3   OH220663   5.578   5.352   5.823
 6907TIP3    H120664   5.569   5.368   5.916
 6907TIP3    H220665   5.619   5.431   5.788
 6908TIP3   OH220666   1.066   7.242   6.459
 6908TIP3    H120667   1.093   7.153   6.481
 6908TIP3    H220668   1.145   7.294   6.469
 6909TIP3   OH220669   2.943   2.273   6.055
 6909TIP3    H120670   2.878   2.221   6.103
 6909TIP3    H220671   3.024   2.263   6.105
 6910TIP3   OH220672   1.151   3.280   5.717
 6910TIP3    H120673   1.080   3.300   5.777
 6910TIP3    H220674   1.206   3.359   5.717
 6911TIP3   OH220675   2.982   5.331   6.353
 6911TIP3    H120676   3.065   5.346   6.307
 6911TIP3    H220677   2.955   5.418   6.383
 6912TIP3   OH220678   3.439   1.273   0.361
 6912TIP3    H120679   3.511   1.334   0.371
 6912TIP3    H220680   3.361   1.329   0.353
 6913TIP3   OH220681   3.680   7.218   3.682
 6913TIP3    H120682   3.622   7.184   3.614
 6913TIP3    H220683   3.659   7.312   3.687
 6914TIP3   OH220684   4.475   2.586   3.726
 6914TIP3    H120685   4.428   2.668   3.743
 6914TIP3    H220686   4.565   2.605   3.752
 6915TIP3   OH220687   7.750   4.507   3.574
 6915TIP3    H120688   7.676   4.447   3.579
 6915TIP3    H220689   7.802   4.475   3.501
 6916TIP3   OH220690   8.069   5.228   3.103
 6916TIP3    H120691   8.019   5.278   3.167
 6916TIP3    H220692   8.041   5.137   3.116
 6917TIP3   OH220693   6.940   1.861   1.892
 6917TIP3    H120694   6.846   1.879   1.897
 6917TIP3    H220695   6.969   1.857   1.983
 6918TIP3   OH220696   7.005   6.569   2.753
 6918TIP3    H120697   7.066   6.631   2.794
 6918TIP3    H220698   7.039   6.556   2.665
 6919TIP3   OH220699   7.304   6.973   2.829
 6919TIP3    H120700   7.256   6.939   2.754
 6919TIP3    H220701   7.258   7.053   2.853
 6920TIP3   OH220702   5.531   7.094   1.005
 6920TIP3    H120703   5.627   7.104   1.008
 6920TIP3    H220704   5.517   7.000   1.015
 6921TIP3   OH220705   7.765   5.645   1.438
 6921TIP3    H120706   7.840   5.702   1.421
 6921TIP3    H220707   7.764   5.585   1.364
 6922TIP3   OH220708   3.992   0.705   0.572
 6922TIP3    H120709   4.069   0.729   0.520
 6922TIP3    H220710   3.917   0.734   0.519
 6923TIP3   OH220711   4.314   7.484   5.737
 6923TIP3    H120712   4.317   7.567   5.690
 6923TIP3    H220713   4.266   7.504   5.818
 6924TIP3   OH220714   4.316   2.741   5.760
 6924TIP3    H120715   4.240   2.683   5.757
 6924TIP3    H220716   4.384   2.689   5.803
 6925TIP3   OH220717   3.966   0.769   4.435
 6925TIP3    H120718   4.002   0.747   4.350
 6925TIP3    H220719   4.040   0.807   4.483
 6926TIP3   OH220720   5.651   1.703   4.421
 6926TIP3    H120721   5.688   1.642   4.485
 6926TIP3    H220722   5.660   1.658   4.337
 6927TIP3   OH220723   6.140   5.960   4.436
 6927TIP3    H120724   6.149   6.032   4.373
 6927TIP3    H220725   6.137   5.881   4.381
 6928TIP3   OH220726   2.717   7.463   6.719
 6928TIP3    H120727   2.684   7.476   6.631
 6928TIP3    H220728   2.785   7.396   6.710
 6929TIP3   OH220729   4.029   6.992   1.249
 6929TIP3    H120730   4.080   6.970   1.327
 6929TIP3    H220731   4.090   7.040   1.194
 6930TIP3   OH220732   0.796   2.307   1.076
 6930TIP3    H120733   0.707   2.292   1.106
 6930TIP3    H220734   0.789   2.314   0.981
 6931TIP3   OH220735   4.120   1.025   5.068
 6931TIP3    H120736   4.111   1.108   5.114
 6931TIP3    H220737   4.042   1.019   5.013
 6932TIP3   OH220738   2.019   1.958   6.385
 6932TIP3    H120739   2.041   1.887   6.325
 6932TIP3    H220740   1.955   1.919   6.445
 6933TIP3   OH220741   7.596   0.092   0.525
 6933TIP3    H120742   7.597   0.074   0.431
 6933TIP3    H220743   7.562   0.012   0.564
 6934TIP3   OH220744   5.732   5.931   3.003
 6934TIP3    H120745   5.814   5.948   3.049
 6934TIP3    H220746   5.757   5.917   2.912
 6935TIP3   OH220747   7.059   7.718   2.275
 6935TIP3    H120748   6.995   7.765   2.220
 6935TIP3    H220749   7.090   7.784   2.337
 6936TIP3   OH220750   7.090   2.114   1.092
 6936TIP3    H120751   7.055   2.185   1.038
 6936TIP3    H220752   7.013   2.072   1.129
 6937TIP3   OH220753   1.404   2.254   1.203
 6937TIP3    H120754   1.460   2.301   1.141
 6937TIP3    H220755   1.316   2.263   1.167
 6938TIP3   OH220756   3.939   7.523   0.174
 6938TIP3    H120757   4.018   7.499   0.222
 6938TIP3    H220758   3.895   7.586   0.231
 6939TIP3   OH220759   1.743   0.233   4.442
 6939TIP3    H120760   1.792   0.203   4.366
 6939TIP3    H220761   1.703   0.153   4.477
 6940TIP3   OH220762   4.612   6.753   2.536
 6940TIP3    H120763   4.667   6.701   2.595
 6940TIP3    H220764   4.600   6.836   2.582
 6941TIP3   OH220765   1.224   5.378   5.605
 6941TIP3    H120766   1.208   5.439   5.677
 6941TIP3    H220767   1.318   5.383   5.590
 6942TIP3   OH220768   6.334   6.356   0.262
 6942TIP3    H120769   6.286   6.386   0.339
 6942TIP3    H220770   6.275   6.375   0.189
 6943TIP3   OH220771   7.815   0.323   0.888
 6943TIP3    H120772   7.750   0.376   0.841
 6943TIP3    H220773   7.790   0.233   0.869
 6944TIP3   OH220774   5.558   2.208   6.028
 6944TIP3    H120775   5.630   2.230   6.087
 6944TIP3    H220776   5.538   2.289   5.983
 6945TIP3   OH220777   0.922   5.899   5.364
 6945TIP3    H120778   0.964   5.985   5.359
 6945TIP3    H220779   0.841   5.915   5.413
 6946TIP3   OH220780   4.081   5.020   5.191
 6946TIP3    H120781   4.158   4.965   5.175
 6946TIP3    H220782   4.019   4.993   5.123
 6947TIP3   OH220783   2.172   7.109   3.532
 6947TIP3    H120784   2.087   7.066   3.538
 6947TIP3    H220785   2.222   7.053   3.473
 6948TIP3   OH220786   7.821   0.066   4.042
 6948TIP3    H120787   7.756   0.128   4.007
 6948TIP3    H220788   7.784  -0.020   4.022
 6949TIP3   OH220789   2.603   6.783   6.464
 6949TIP3    H120790   2.693   6.753   6.467
 6949TIP3    H220791   2.568   6.766   6.552
 6950TIP3   OH220792   2.945   6.329   1.554
 6950TIP3    H120793   3.016   6.393   1.552
 6950TIP3    H220794   2.989   6.244   1.559
 6951TIP3   OH220795   1.092   6.461   5.999
 6951TIP3    H120796   1.089   6.422   6.087
 6951TIP3    H220797   1.014   6.429   5.955
 6952TIP3   OH220798   4.218   3.537   0.801
 6952TIP3    H120799   4.211   3.544   0.706
 6952TIP3    H220800   4.312   3.546   0.820
 6953TIP3   OH220801   3.976   5.162   5.403
 6953TIP3    H120802   3.967   5.253   5.377
 6953TIP3    H220803   4.001   5.116   5.323
 6954TIP3   OH220804   6.792   3.131   3.147
 6954TIP3    H120805   6.714   3.080   3.125
 6954TIP3    H220806   6.865   3.070   3.133
 6955TIP3   OH220807   6.628   4.459   4.332
 6955TIP3    H120808   6.712   4.441   4.374
 6955TIP3    H220809   6.600   4.542   4.369
 6956TIP3   OH220810   1.987   6.187   4.018
 6956TIP3    H120811   2.078   6.215   4.006
 6956TIP3    H220812   1.943   6.264   4.053
 6957TIP3   OH220813   1.041   1.977   6.135
 6957TIP3    H120814   1.054   2.035   6.210
 6957TIP3    H220815   1.074   2.028   6.061
 6958TIP3   OH220816   6.393   1.789   2.315
 6958TIP3    H120817   6.334   1.798   2.240
 6958TIP3    H220818   6.395   1.876   2.355
 6959TIP3   OH220819   3.668   2.155   5.579
 6959TIP3    H120820   3.599   2.110   5.530
 6959TIP3    H220821   3.622   2.219   5.632
 6960TIP3   OH220822   1.293   7.513   4.411
 6960TIP3    H120823   1.329   7.445   4.354
 6960TIP3    H220824   1.225   7.555   4.359
 6961TIP3   OH220825   6.072   4.538   3.473
 6961TIP3    H120826   6.002   4.531   3.407
 6961TIP3    H220827   6.147   4.571   3.424
 6962TIP3   OH220828   5.303   1.005   4.452
 6962TIP3    H120829   5.337   0.916   4.448
 6962TIP3    H220830   5.265   1.012   4.540
 6963TIP3   OH220831   7.396   7.012   3.992
 6963TIP3    H120832   7.309   7.004   3.952
 6963TIP3    H220833   7.401   6.938   4.052
 6964TIP3   OH220834   2.226   2.394   4.970
 6964TIP3    H120835   2.201   2.375   5.061
 6964TIP3    H220836   2.264   2.312   4.938
 6965TIP3   OH220837   5.988   1.349   3.974
 6965TIP3    H120838   5.898   1.321   3.991
 6965TIP3    H220839   6.042   1.280   4.012
 6966TIP3   OH220840   2.152   1.464   1.061
 6966TIP3    H120841   2.080   1.443   1.121
 6966TIP3    H220842   2.187   1.546   1.094
 6967TIP3   OH220843   4.139   7.471   1.802
 6967TIP3    H120844   4.164   7.523   1.725
 6967TIP3    H220845   4.221   7.457   1.849
 6968TIP3   OH220846   4.046   4.952   6.198
 6968TIP3    H120847   4.126   4.900   6.187
 6968TIP3    H220848   4.026   4.946   6.291
 6969TIP3   OH220849   1.749   4.512   4.363
 6969TIP3    H120850   1.768   4.424   4.395
 6969TIP3    H220851   1.795   4.570   4.424
 6970TIP3   OH220852   0.717   6.920   1.362
 6970TIP3    H120853   0.701   6.993   1.422
 6970TIP3    H220854   0.779   6.864   1.408
 6971TIP3   OH220855   4.379   3.496   5.769
 6971TIP3    H120856   4.468   3.465   5.750
 6971TIP3    H220857   4.323   3.419   5.754
 6972TIP3   OH220858   3.947   1.094   5.812
 6972TIP3    H120859   3.932   1.004   5.840
 6972TIP3    H220860   3.915   1.096   5.721
 6973TIP3   OH220861   0.397   5.719   1.919
 6973TIP3    H120862   0.353   5.743   1.837
 6973TIP3    H220863   0.345   5.761   1.988
 6974TIP3   OH220864   4.071   6.359   6.531
 6974TIP3    H120865   4.110   6.350   6.444
 6974TIP3    H220866   4.022   6.278   6.544
 6975TIP3   OH220867   7.764   3.449   6.625
 6975TIP3    H120868   7.829   3.398   6.578
 6975TIP3    H220869   7.735   3.515   6.562
 6976TIP3   OH220870   0.864   5.847   4.292
 6976TIP3    H120871   0.897   5.889   4.372
 6976TIP3    H220872   0.775   5.819   4.315
 6977TIP3   OH220873   5.575   6.474   1.820
 6977TIP3    H120874   5.496   6.453   1.868
 6977TIP3    H220875   5.623   6.533   1.878
 6978TIP3   OH220876   0.380   7.432   1.738
 6978TIP3    H120877   0.409   7.484   1.812
 6978TIP3    H220878   0.436   7.354   1.739
 6979TIP3   OH220879   5.561   1.973   2.801
 6979TIP3    H120880   5.506   1.987   2.724
 6979TIP3    H220881   5.646   2.010   2.777
 6980TIP3   OH220882   0.727   2.108   2.444
 6980TIP3    H120883   0.777   2.141   2.518
 6980TIP3    H220884   0.637   2.101   2.476
 6981TIP3   OH220885   0.509   6.453   1.300
 6981TIP3    H120886   0.603   6.445   1.280
 6981TIP3    H220887   0.495   6.394   1.374
 6982TIP3   OH220888   5.280   2.538   5.804
 6982TIP3    H120889   5.227   2.465   5.835
 6982TIP3    H220890   5.231   2.616   5.828
 6983TIP3   OH220891   4.622   3.654   2.224
 6983TIP3    H120892   4.605   3.733   2.173
 6983TIP3    H220893   4.535   3.618   2.243
 6984TIP3   OH220894   4.427   4.834   0.203
 6984TIP3    H120895   4.457   4.879   0.283
 6984TIP3    H220896   4.379   4.901   0.155
 6985TIP3   OH220897   0.634   4.050   3.094
 6985TIP3    H120898   0.723   4.069   3.122
 6985TIP3    H220899   0.587   4.029   3.175
 6986TIP3   OH220900   7.207   0.784   1.145
 6986TIP3    H120901   7.294   0.750   1.165
 6986TIP3    H220902   7.218   0.837   1.067
 6987TIP3   OH220903   6.498   6.208   1.028
 6987TIP3    H120904   6.404   6.214   1.045
 6987TIP3    H220905   6.506   6.142   0.960
 6988TIP3   OH220906   3.958   0.740   1.600
 6988TIP3    H120907   4.025   0.707   1.540
 6988TIP3    H220908   4.007   0.792   1.664
 6989TIP3   OH220909   5.624   6.611   2.679
 6989TIP3    H120910   5.584   6.562   2.752
 6989TIP3    H220911   5.651   6.543   2.617
 6990TIP3   OH220912   8.000   1.197   3.616
 6990TIP3    H120913   8.063   1.267   3.630
 6990TIP3    H220914   7.916   1.242   3.604
 6991TIP3   OH220915   3.328   1.429   2.883
 6991TIP3    H120916   3.382   1.382   2.947
 6991TIP3    H220917   3.247   1.449   2.931
 6992TIP3   OH220918   3.780   7.137   4.578
 6992TIP3    H120919   3.686   7.125   4.593
 6992TIP3    H220920   3.789   7.137   4.483
 6993TIP3   OH220921   4.134   1.880   3.743
 6993TIP3    H120922   4.105   1.892   3.833
 6993TIP3    H220923   4.201   1.812   3.748
 6994TIP3   OH220924   5.538   0.603   4.033
 6994TIP3    H120925   5.508   0.514   4.047
 6994TIP3    H220926   5.459   0.652   4.009
 6995TIP3   OH220927   0.131   2.335   4.902
 6995TIP3    H120928   0.095   2.419   4.873
 6995TIP3    H220929   0.080   2.311   4.979
 6996TIP3   OH220930   7.382   4.507   0.584
 6996TIP3    H120931   7.430   4.482   0.663
 6996TIP3    H220932   7.378   4.602   0.586
 6997TIP3   OH220933   4.154   5.420   5.774
 6997TIP3    H120934   4.215   5.396   5.705
 6997TIP3    H220935   4.124   5.337   5.810
 6998TIP3   OH220936   1.186   1.981   2.913
 6998TIP3    H120937   1.120   1.919   2.882
 6998TIP3    H220938   1.149   2.067   2.893
 6999TIP3   OH220939   0.397   3.103   2.990
 6999TIP3    H120940   0.467   3.088   2.927
 6999TIP3    H220941   0.443   3.126   3.071
 7000TIP3   OH220942   3.583   3.794   4.984
 7000TIP3    H120943   3.582   3.789   5.079
 7000TIP3    H220944   3.533   3.873   4.963
 7001TIP3   OH220945   5.430   1.809   4.251
 7001TIP3    H120946   5.421   1.805   4.156
 7001TIP3    H220947   5.481   1.889   4.267
 7002TIP3   OH220948   0.798   6.795   2.604
 7002TIP3    H120949   0.807   6.763   2.514
 7002TIP3    H220950   0.888   6.806   2.635
 7003TIP3   OH220951   2.116   7.730   3.840
 7003TIP3    H120952   2.126   7.795   3.910
 7003TIP3    H220953   2.188   7.668   3.854
 7004TIP3   OH220954   7.376   3.232   1.943
 7004TIP3    H120955   7.299   3.289   1.947
 7004TIP3    H220956   7.354   3.165   1.878
 7005TIP3   OH220957   1.309   6.742   6.073
 7005TIP3    H120958   1.326   6.836   6.067
 7005TIP3    H220959   1.394   6.701   6.062
 7006TIP3   OH220960   2.859   1.979   5.541
 7006TIP3    H120961   2.914   1.903   5.521
 7006TIP3    H220962   2.892   2.012   5.624
 7007TIP3   OH220963   2.748   0.952   5.412
 7007TIP3    H120964   2.724   0.930   5.322
 7007TIP3    H220965   2.743   1.047   5.417
 7008TIP3   OH220966   2.264   4.999   1.625
 7008TIP3    H120967   2.350   4.972   1.657
 7008TIP3    H220968   2.279   5.032   1.537
 7009TIP3   OH220969   0.144   4.768   0.213
 7009TIP3    H120970   0.232   4.762   0.250
 7009TIP3    H220971   0.111   4.853   0.242
 7010TIP3   OH220972   2.151   2.336   2.042
 7010TIP3    H120973   2.192   2.380   2.117
 7010TIP3    H220974   2.094   2.402   2.004
 7011TIP3   OH220975   5.615   4.456   2.964
 7011TIP3    H120976   5.605   4.384   3.026
 7011TIP3    H220977   5.572   4.530   3.007
 7012TIP3   OH220978   3.889   4.499   5.652
 7012TIP3    H120979   3.806   4.461   5.680
 7012TIP3    H220980   3.897   4.579   5.705
 7013TIP3   OH220981   6.863   4.009   4.212
 7013TIP3    H120982   6.904   4.054   4.286
 7013TIP3    H220983   6.864   4.072   4.141
 7014TIP3   OH220984   8.115   6.224   4.223
 7014TIP3    H120985   8.031   6.263   4.200
 7014TIP3    H220986   8.180   6.272   4.171
 7015TIP3   OH220987   8.213   1.092   2.167
 7015TIP3    H120988   8.203   1.074   2.261
 7015TIP3    H220989   8.291   1.042   2.142
 7016TIP3   OH220990   4.656   1.827   4.782
 7016TIP3    H120991   4.598   1.780   4.842
 7016TIP3    H220992   4.597   1.865   4.716
 7017TIP3   OH220993   0.057   0.473   5.620
 7017TIP3    H120994   0.144   0.473   5.661
 7017TIP3    H220995   0.008   0.409   5.671
 7018TIP3   OH220996   6.969   0.336   0.077
 7018TIP3    H120997   7.047   0.309   0.124
 7018TIP3    H220998   6.923   0.254   0.058
 7019TIP3   OH220999   6.640   3.860   5.642
 7019TIP3    H121000   6.698   3.832   5.571
 7019TIP3    H221001   6.632   3.784   5.699
 7020TIP3   OH221002   1.924   0.537   5.697
 7020TIP3    H121003   1.918   0.529   5.601
 7020TIP3    H221004   1.855   0.479   5.730
 7021TIP3   OH221005   5.862   3.973   3.127
 7021TIP3    H121006   5.783   3.926   3.099
 7021TIP3    H221007   5.935   3.919   3.097
 7022TIP3   OH221008   0.701   3.263   0.337
 7022TIP3    H121009   0.724   3.356   0.333
 7022TIP3    H221010   0.612   3.259   0.304
 7023TIP3   OH221011   3.414   1.576   4.373
 7023TIP3    H121012   3.337   1.535   4.412
 7023TIP3    H221013   3.380   1.652   4.325
 7024TIP3   OH221014  -0.008   4.750   5.823
 7024TIP3    H121015   0.004   4.667   5.778
 7024TIP3    H221016   0.002   4.816   5.755
 7025TIP3   OH221017   7.961   4.090   6.289
 7025TIP3    H121018   8.054   4.072   6.277
 7025TIP3    H221019   7.919   4.051   6.212
 7026TIP3   OH221020   0.383   2.401   3.806
 7026TIP3    H121021   0.301   2.394   3.756
 7026TIP3    H221022   0.356   2.390   3.897
 7027TIP3   OH221023   3.638   5.907   6.405
 7027TIP3    H121024   3.722   5.878   6.368
 7027TIP3    H221025   3.621   5.991   6.364
 7028TIP3   OH221026   3.619   5.305   6.574
 7028TIP3    H121027   3.667   5.365   6.518
 7028TIP3    H221028   3.577   5.362   6.639
 7029TIP3   OH221029   4.185   1.746   5.279
 7029TIP3    H121030   4.218   1.831   5.250
 7029TIP3    H221031   4.228   1.731   5.363
 7030TIP3   OH221032   7.655   4.277   1.523
 7030TIP3    H121033   7.666   4.182   1.524
 7030TIP3    H221034   7.577   4.290   1.468
 7031TIP3   OH221035   6.385   6.812   0.509
 7031TIP3    H121036   6.387   6.753   0.434
 7031TIP3    H221037   6.376   6.899   0.471
 7032TIP3   OH221038   1.688   7.276   2.531
 7032TIP3    H121039   1.679   7.325   2.449
 7032TIP3    H221040   1.600   7.242   2.549
 7033TIP3   OH221041   3.458   0.123   4.661
 7033TIP3    H121042   3.501   0.102   4.744
 7033TIP3    H221043   3.371   0.155   4.686
 7034TIP3   OH221044   4.916   2.566   0.848
 7034TIP3    H121045   4.879   2.560   0.761
 7034TIP3    H221046   5.011   2.559   0.835
 7035TIP3   OH221047   1.786   6.500   2.742
 7035TIP3    H121048   1.706   6.449   2.748
 7035TIP3    H221049   1.769   6.563   2.672
 7036TIP3   OH221050   3.765   0.747   4.906
 7036TIP3    H121051   3.821   0.695   4.848
 7036TIP3    H221052   3.823   0.777   4.976
 7037TIP3   OH221053   0.625   1.929   3.324
 7037TIP3    H121054   0.552   1.926   3.387
 7037TIP3    H221055   0.701   1.901   3.375
 7038TIP3   OH221056   1.441   0.124   5.485
 7038TIP3    H121057   1.488   0.043   5.506
 7038TIP3    H221058   1.428   0.166   5.570
 7039TIP3   OH221059   3.667   5.824   3.665
 7039TIP3    H121060   3.718   5.763   3.719
 7039TIP3    H221061   3.592   5.772   3.636
 7040TIP3   OH221062   7.297   6.459   5.119
 7040TIP3    H121063   7.382   6.487   5.153
 7040TIP3    H221064   7.306   6.364   5.108
 7041TIP3   OH221065   4.166   6.135   1.543
 7041TIP3    H121066   4.073   6.140   1.522
 7041TIP3    H221067   4.210   6.169   1.465
 7042TIP3   OH221068   6.603   5.252   3.605
 7042TIP3    H121069   6.543   5.188   3.645
 7042TIP3    H221070   6.631   5.307   3.678
 7043TIP3   OH221071   5.085   7.220   5.965
 7043TIP3    H121072   5.073   7.128   5.941
 7043TIP3    H221073   5.004   7.263   5.937
 7044TIP3   OH221074   1.597   0.984   4.615
 7044TIP3    H121075   1.651   0.908   4.638
 7044TIP3    H221076   1.524   0.946   4.564
 7045TIP3   OH221077   6.013   7.383   3.793
 7045TIP3    H121078   6.077   7.313   3.795
 7045TIP3    H221079   6.065   7.463   3.797
 7046TIP3   OH221080   1.708   1.435   2.452
 7046TIP3    H121081   1.631   1.480   2.485
 7046TIP3    H221082   1.728   1.478   2.369
 7047TIP3   OH221083   7.890   5.527   5.360
 7047TIP3    H121084   7.935   5.603   5.398
 7047TIP3    H221085   7.959   5.480   5.313
 7048TIP3   OH221086   5.795   0.256   4.355
 7048TIP3    H121087   5.867   0.218   4.406
 7048TIP3    H221088   5.734   0.289   4.421
 7049TIP3   OH221089   5.396   7.617   1.365
 7049TIP3    H121090   5.316   7.579   1.403
 7049TIP3    H221091   5.465   7.554   1.387
 7050TIP3   OH221092   6.054   5.091   0.009
 7050TIP3    H121093   6.146   5.104  -0.014
 7050TIP3    H221094   6.055   5.068   0.102
 7051TIP3   OH221095   1.381   7.779   1.903
 7051TIP3    H121096   1.290   7.753   1.916
 7051TIP3    H221097   1.376   7.868   1.868
 7052TIP3   OH221098   3.764   4.285   0.508
 7052TIP3    H121099   3.693   4.346   0.529
 7052TIP3    H221100   3.840   4.321   0.553
 7053TIP3   OH221101   6.319   7.066   2.629
 7053TIP3    H121102   6.245   7.037   2.577
 7053TIP3    H221103   6.280   7.110   2.705
 7054TIP3   OH221104   2.599   0.318   3.377
 7054TIP3    H121105   2.543   0.328   3.454
 7054TIP3    H221106   2.583   0.396   3.325
 7055TIP3   OH221107   3.847   2.765   0.504
 7055TIP3    H121108   3.850   2.744   0.598
 7055TIP3    H221109   3.912   2.707   0.465
 7056TIP3   OH221110   6.958   3.428   1.207
 7056TIP3    H121111   6.901   3.385   1.271
 7056TIP3    H221112   6.918   3.409   1.123
 7057TIP3   OH221113   3.801   3.971   3.862
 7057TIP3    H121114   3.766   3.952   3.950
 7057TIP3    H221115   3.871   3.907   3.850
 7058TIP3   OH221116   6.092   5.801   2.234
 7058TIP3    H121117   6.137   5.734   2.286
 7058TIP3    H221118   6.005   5.763   2.217
 7059TIP3   OH221119   8.102   4.462   5.766
 7059TIP3    H121120   8.087   4.406   5.842
 7059TIP3    H221121   8.015   4.498   5.746
 7060TIP3   OH221122   4.441   1.175   6.731
 7060TIP3    H121123   4.515   1.193   6.674
 7060TIP3    H221124   4.378   1.244   6.711
 7061TIP3   OH221125   7.040   2.305   0.350
 7061TIP3    H121126   7.005   2.323   0.263
 7061TIP3    H221127   6.971   2.333   0.410
 7062TIP3   OH221128   2.885   4.438   2.966
 7062TIP3    H121129   2.865   4.451   3.059
 7062TIP3    H221130   2.942   4.362   2.964
 7063TIP3   OH221131   6.051   6.629   5.228
 7063TIP3    H121132   6.104   6.582   5.164
 7063TIP3    H221133   6.018   6.705   5.180
 7064TIP3   OH221134   7.497   0.752   6.379
 7064TIP3    H121135   7.521   0.833   6.335
 7064TIP3    H221136   7.558   0.687   6.344
 7065TIP3   OH221137   6.123   2.353   1.196
 7065TIP3    H121138   6.109   2.426   1.257
 7065TIP3    H221139   6.097   2.275   1.245
 7066TIP3   OH221140   1.115   2.822   5.834
 7066TIP3    H121141   1.132   2.886   5.765
 7066TIP3    H221142   1.091   2.874   5.910
 7067TIP3   OH221143   2.564   1.635   4.416
 7067TIP3    H121144   2.544   1.543   4.429
 7067TIP3    H221145   2.547   1.676   4.501
 7068TIP3   OH221146   5.705   3.804   4.898
 7068TIP3    H121147   5.658   3.882   4.929
 7068TIP3    H221148   5.752   3.772   4.976
 7069TIP3   OH221149   5.697   6.065   4.843
 7069TIP3    H121150   5.762   5.995   4.831
 7069TIP3    H221151   5.742   6.130   4.896
 7070TIP3   OH221152   3.490   5.928   0.286
 7070TIP3    H121153   3.573   5.927   0.237
 7070TIP3    H221154   3.497   5.855   0.347
 7071TIP3   OH221155   8.243   2.985   1.274
 7071TIP3    H121156   8.324   2.934   1.272
 7071TIP3    H221157   8.192   2.945   1.344
 7072TIP3   OH221158   4.046   4.297   5.527
 7072TIP3    H121159   3.991   4.374   5.544
 7072TIP3    H221160   4.128   4.315   5.574
 7073TIP3   OH221161   7.467   3.844   6.223
 7073TIP3    H121162   7.451   3.893   6.304
 7073TIP3    H221163   7.480   3.754   6.251
 7074TIP3   OH221164   6.428   6.353   5.306
 7074TIP3    H121165   6.416   6.426   5.245
 7074TIP3    H221166   6.388   6.278   5.262
 7075TIP3   OH221167   2.122   7.138   4.670
 7075TIP3    H121168   2.032   7.163   4.692
 7075TIP3    H221169   2.123   7.042   4.678
 7076TIP3   OH221170   3.490   5.333   2.713
 7076TIP3    H121171   3.539   5.404   2.671
 7076TIP3    H221172   3.505   5.257   2.657
 7077TIP3   OH221173   3.345   7.695   5.852
 7077TIP3    H121174   3.328   7.788   5.870
 7077TIP3    H221175   3.362   7.692   5.758
 7078TIP3   OH221176   8.176   5.992   5.373
 7078TIP3    H121177   8.255   5.941   5.354
 7078TIP3    H221178   8.125   5.987   5.292
 7079TIP3   OH221179   7.066   7.636   6.162
 7079TIP3    H121180   7.019   7.625   6.080
 7079TIP3    H221181   7.142   7.578   6.155
 7080TIP3   OH221182   2.483   3.888   3.920
 7080TIP3    H121183   2.562   3.878   3.867
 7080TIP3    H221184   2.412   3.861   3.863
 7081TIP3   OH221185   1.721   2.891   1.232
 7081TIP3    H121186   1.685   2.887   1.143
 7081TIP3    H221187   1.671   2.961   1.274
 7082TIP3   OH221188   0.493   5.126   6.432
 7082TIP3    H121189   0.555   5.179   6.483
 7082TIP3    H221190   0.407   5.157   6.461
 7083TIP3   OH221191   0.558   7.288   1.323
 7083TIP3    H121192   0.568   7.205   1.277
 7083TIP3    H221193   0.497   7.338   1.268
 7084TIP3   OH221194   3.007   3.818   1.230
 7084TIP3    H121195   3.036   3.753   1.167
 7084TIP3    H221196   2.958   3.882   1.178
 7085TIP3   OH221197   7.175   5.881   3.467
 7085TIP3    H121198   7.087   5.913   3.448
 7085TIP3    H221199   7.165   5.786   3.472
 7086TIP3   OH221200   6.305   7.242   3.505
 7086TIP3    H121201   6.277   7.224   3.416
 7086TIP3    H221202   6.315   7.337   3.510
 7087TIP3   OH221203   0.432   2.288   2.725
 7087TIP3    H121204   0.459   2.223   2.789
 7087TIP3    H221205   0.415   2.367   2.776
 7088TIP3   OH221206   6.712   2.419   4.449
 7088TIP3    H121207   6.763   2.397   4.371
 7088TIP3    H221208   6.631   2.458   4.415
 7089TIP3   OH221209   3.728   0.293   3.731
 7089TIP3    H121210   3.790   0.235   3.775
 7089TIP3    H221211   3.648   0.287   3.784
 7090TIP3   OH221212   0.986   6.109   4.932
 7090TIP3    H121213   1.006   6.151   5.016
 7090TIP3    H221214   1.072   6.085   4.897
 7091TIP3   OH221215   2.716   1.853   2.251
 7091TIP3    H121216   2.799   1.810   2.273
 7091TIP3    H221217   2.724   1.941   2.288
 7092TIP3   OH221218   0.394   0.834   6.443
 7092TIP3    H121219   0.324   0.894   6.416
 7092TIP3    H221220   0.375   0.815   6.535
 7093TIP3   OH221221   1.200   0.148   2.709
 7093TIP3    H121222   1.258   0.151   2.633
 7093TIP3    H221223   1.170   0.057   2.712
 7094TIP3   OH221224   0.952   7.479   6.282
 7094TIP3    H121225   1.023   7.440   6.334
 7094TIP3    H221226   0.951   7.571   6.309
 7095TIP3   OH221227   8.130   3.613   6.087
 7095TIP3    H121228   8.041   3.598   6.119
 7095TIP3    H221229   8.176   3.653   6.161
 7096TIP3   OH221230   0.374   6.859   3.261
 7096TIP3    H121231   0.351   6.910   3.183
 7096TIP3    H221232   0.435   6.793   3.230
 7097TIP3   OH221233   6.610   0.974   1.733
 7097TIP3    H121234   6.679   0.910   1.752
 7097TIP3    H221235   6.655   1.044   1.684
 7098TIP3   OH221236   3.325   1.822   3.082
 7098TIP3    H121237   3.267   1.747   3.093
 7098TIP3    H221238   3.315   1.873   3.163
 7099TIP3   OH221239   5.317   1.012   0.947
 7099TIP3    H121240   5.339   1.034   1.038
 7099TIP3    H221241   5.401   1.003   0.903
 7100TIP3   OH221242   1.911   4.635   6.629
 7100TIP3    H121243   1.816   4.627   6.635
 7100TIP3    H221244   1.945   4.560   6.678
 7101TIP3   OH221245   5.399   0.263   0.599
 7101TIP3    H121246   5.377   0.194   0.535
 7101TIP3    H221247   5.475   0.229   0.646
 7102TIP3   OH221248   6.037   4.606   1.523
 7102TIP3    H121249   5.947   4.637   1.509
 7102TIP3    H221250   6.062   4.643   1.607
 7103TIP3   OH221251   4.275   0.333   5.411
 7103TIP3    H121252   4.363   0.322   5.375
 7103TIP3    H221253   4.218   0.339   5.335
 7104TIP3   OH221254   5.393   6.215   5.048
 7104TIP3    H121255   5.375   6.305   5.022
 7104TIP3    H221256   5.448   6.222   5.125
 7105TIP3   OH221257   6.970   1.120   1.113
 7105TIP3    H121258   6.939   1.074   1.035
 7105TIP3    H221259   7.058   1.151   1.088
 7106TIP3   OH221260   5.845   3.465   0.428
 7106TIP3    H121261   5.884   3.497   0.347
 7106TIP3    H221262   5.756   3.440   0.403
 7107TIP3   OH221263   2.056   6.506   3.724
 7107TIP3    H121264   2.058   6.411   3.714
 7107TIP3    H221265   2.090   6.522   3.812
 7108TIP3   OH221266   4.216   4.037   4.085
 7108TIP3    H121267   4.149   4.105   4.075
 7108TIP3    H221268   4.168   3.954   4.080
 7109TIP3   OH221269   0.459   7.099   4.951
 7109TIP3    H121270   0.459   7.071   5.043
 7109TIP3    H221271   0.535   7.157   4.944
 7110TIP3   OH221272   7.934   4.998   5.452
 7110TIP3    H121273   7.862   4.941   5.425
 7110TIP3    H221274   8.007   4.938   5.468
 7111TIP3   OH221275   2.000   6.480   0.671
 7111TIP3    H121276   2.070   6.474   0.736
 7111TIP3    H221277   2.003   6.571   0.641
 7112TIP3   OH221278   0.977   7.664   4.683
 7112TIP3    H121279   0.987   7.752   4.648
 7112TIP3    H221280   0.980   7.674   4.778
 7113TIP3   OH221281   6.411   3.775   2.914
 7113TIP3    H121282   6.483   3.717   2.890
 7113TIP3    H221283   6.444   3.863   2.897
 7114TIP3   OH221284   3.221   2.058   1.831
 7114TIP3    H121285   3.182   2.140   1.800
 7114TIP3    H221286   3.282   2.033   1.762
 7115TIP3   OH221287   0.460   1.525   2.053
 7115TIP3    H121288   0.453   1.499   1.961
 7115TIP3    H221289   0.408   1.605   2.059
 7116TIP3   OH221290   5.095   1.551   0.854
 7116TIP3    H121291   5.099   1.600   0.772
 7116TIP3    H221292   5.108   1.460   0.828
 7117TIP3   OH221293   3.436   3.201   3.026
 7117TIP3    H121294   3.369   3.158   2.973
 7117TIP3    H221295   3.447   3.287   2.987
 7118TIP3   OH221296   5.335   6.308   3.771
 7118TIP3    H121297   5.314   6.395   3.738
 7118TIP3    H221298   5.368   6.323   3.860
 7119TIP3   OH221299   2.264   5.803   3.042
 7119TIP3    H121300   2.292   5.762   2.960
 7119TIP3    H221301   2.269   5.897   3.025
 7120TIP3   OH221302   0.116   6.065   3.578
 7120TIP3    H121303   0.023   6.040   3.580
 7120TIP3    H221304   0.128   6.118   3.657
 7121TIP3   OH221305   4.949   5.179   1.761
 7121TIP3    H121306   5.022   5.228   1.723
 7121TIP3    H221307   4.990   5.106   1.806
 7122TIP3   OH221308   5.237   5.429   5.955
 7122TIP3    H121309   5.199   5.341   5.959
 7122TIP3    H221310   5.188   5.479   6.019
 7123TIP3   OH221311   6.030   2.370   0.727
 7123TIP3    H121312   6.034   2.402   0.637
 7123TIP3    H221313   6.069   2.440   0.780
 7124TIP3   OH221314   4.643   2.185   3.639
 7124TIP3    H121315   4.621   2.152   3.726
 7124TIP3    H221316   4.680   2.271   3.654
 7125TIP3   OH221317   4.751   3.303   0.152
 7125TIP3    H121318   4.823   3.268   0.206
 7125TIP3    H221319   4.682   3.323   0.215
 7126TIP3   OH221320   1.692   7.747   5.389
 7126TIP3    H121321   1.673   7.805   5.463
 7126TIP3    H221322   1.734   7.671   5.429
 7127TIP3   OH221323   4.259   2.790   4.975
 7127TIP3    H121324   4.211   2.728   4.920
 7127TIP3    H221325   4.276   2.865   4.917
 7128TIP3   OH221326   6.465   2.479   5.449
 7128TIP3    H121327   6.375   2.510   5.438
 7128TIP3    H221328   6.501   2.534   5.518
 7129TIP3   OH221329   5.446   0.612   1.993
 7129TIP3    H121330   5.359   0.576   1.973
 7129TIP3    H221331   5.480   0.555   2.062
 7130TIP3   OH221332   7.126   6.131   1.755
 7130TIP3    H121333   7.076   6.093   1.683
 7130TIP3    H221334   7.101   6.078   1.831
 7131TIP3   OH221335   3.012   4.177   3.503
 7131TIP3    H121336   2.949   4.249   3.504
 7131TIP3    H221337   2.960   4.099   3.523
 7132TIP3   OH221338   2.465   4.031   2.475
 7132TIP3    H121339   2.436   4.117   2.444
 7132TIP3    H221340   2.391   3.973   2.460
 7133TIP3   OH221341   7.489   4.101   3.926
 7133TIP3    H121342   7.437   4.173   3.893
 7133TIP3    H221343   7.459   4.024   3.877
 7134TIP3   OH221344   1.314   1.785   4.794
 7134TIP3    H121345   1.365   1.855   4.835
 7134TIP3    H221346   1.251   1.760   4.861
 7135TIP3   OH221347   5.071   3.489   1.742
 7135TIP3    H121348   5.139   3.528   1.686
 7135TIP3    H221349   5.023   3.564   1.777
 7136TIP3   OH221350   0.418   5.808   5.340
 7136TIP3    H121351   0.468   5.729   5.324
 7136TIP3    H221352   0.423   5.858   5.259
 7137TIP3   OH221353   1.344   4.195   4.980
 7137TIP3    H121354   1.434   4.212   5.009
 7137TIP3    H221355   1.299   4.279   4.988
 7138TIP3   OH221356   4.227   4.675   4.663
 7138TIP3    H121357   4.200   4.623   4.739
 7138TIP3    H221358   4.274   4.614   4.608
 7139TIP3   OH221359   1.820   4.327   5.817
 7139TIP3    H121360   1.864   4.400   5.773
 7139TIP3    H221361   1.750   4.301   5.758
 7140TIP3   OH221362   4.739   5.282   1.584
 7140TIP3    H121363   4.807   5.253   1.645
 7140TIP3    H221364   4.665   5.304   1.641
 7141TIP3   OH221365   0.939   1.067   0.798
 7141TIP3    H121366   1.031   1.089   0.811
 7141TIP3    H221367   0.890   1.133   0.847
 7142TIP3   OH221368   4.817   3.990   3.290
 7142TIP3    H121369   4.870   4.006   3.211
 7142TIP3    H221370   4.815   4.074   3.335
 7143TIP3   OH221371   0.940   2.513   4.440
 7143TIP3    H121372   0.859   2.563   4.427
 7143TIP3    H221373   0.936   2.485   4.531
 7144TIP3   OH221374   3.327   4.259   2.495
 7144TIP3    H121375   3.371   4.312   2.562
 7144TIP3    H221376   3.234   4.271   2.513
 7145TIP3   OH221377   6.160   6.244   3.449
 7145TIP3    H121378   6.104   6.321   3.440
 7145TIP3    H221379   6.200   6.233   3.362
 7146TIP3   OH221380   7.580   2.874   5.700
 7146TIP3    H121381   7.489   2.892   5.679
 7146TIP3    H221382   7.622   2.856   5.615
 7147TIP3   OH221383   2.178   2.707   3.870
 7147TIP3    H121384   2.096   2.735   3.910
 7147TIP3    H221385   2.219   2.651   3.936
 7148TIP3   OH221386   5.176   7.147   0.564
 7148TIP3    H121387   5.243   7.088   0.599
 7148TIP3    H221388   5.158   7.114   0.476
 7149TIP3   OH221389   4.944   6.203   2.189
 7149TIP3    H121390   4.869   6.237   2.140
 7149TIP3    H221391   5.014   6.196   2.125
 7150TIP3   OH221392   5.052   0.145   6.265
 7150TIP3    H121393   5.006   0.126   6.184
 7150TIP3    H221394   5.137   0.102   6.255
 7151TIP3   OH221395   4.393   7.756   0.676
 7151TIP3    H121396   4.422   7.693   0.611
 7151TIP3    H221397   4.425   7.841   0.644
 7152TIP3   OH221398   5.456   5.099   3.379
 7152TIP3    H121399   5.502   5.068   3.301
 7152TIP3    H221400   5.375   5.048   3.382
 7153TIP3   OH221401   5.773   6.013   5.330
 7153TIP3    H121402   5.841   6.011   5.262
 7153TIP3    H221403   5.820   5.992   5.411
 7154TIP3   OH221404   0.393   6.449   5.216
 7154TIP3    H121405   0.414   6.371   5.268
 7154TIP3    H221406   0.443   6.437   5.136
 7155TIP3   OH221407   2.724   4.766   3.247
 7155TIP3    H121408   2.803   4.818   3.260
 7155TIP3    H221409   2.686   4.800   3.167
 7156TIP3   OH221410   2.931   3.518   0.769
 7156TIP3    H121411   2.909   3.611   0.765
 7156TIP3    H221412   2.996   3.506   0.700
 7157TIP3   OH221413   1.621   6.237   1.610
 7157TIP3    H121414   1.553   6.173   1.632
 7157TIP3    H221415   1.669   6.197   1.538
 7158TIP3   OH221416   3.253   0.415   5.430
 7158TIP3    H121417   3.347   0.399   5.422
 7158TIP3    H221418   3.221   0.415   5.339
 7159TIP3   OH221419   6.231   4.860   4.145
 7159TIP3    H121420   6.143   4.893   4.127
 7159TIP3    H221421   6.248   4.798   4.074
 7160TIP3   OH221422   1.473   3.431   4.852
 7160TIP3    H121423   1.444   3.363   4.914
 7160TIP3    H221424   1.432   3.512   4.885
 7161TIP3   OH221425   6.730   0.551   2.983
 7161TIP3    H121426   6.753   0.470   2.938
 7161TIP3    H221427   6.687   0.605   2.916
 7162TIP3   OH221428   6.824   7.710   5.645
 7162TIP3    H121429   6.741   7.733   5.687
 7162TIP3    H221430   6.890   7.757   5.696
 7163TIP3   OH221431   4.866   6.421   6.083
 7163TIP3    H121432   4.878   6.478   6.159
 7163TIP3    H221433   4.905   6.469   6.010
 7164TIP3   OH221434   7.601   1.824   5.665
 7164TIP3    H121435   7.582   1.796   5.754
 7164TIP3    H221436   7.550   1.765   5.609
 7165TIP3   OH221437   1.551   0.465   2.943
 7165TIP3    H121438   1.496   0.387   2.947
 7165TIP3    H221439   1.498   0.529   2.896
 7166TIP3   OH221440   3.685   3.744   0.838
 7166TIP3    H121441   3.673   3.808   0.768
 7166TIP3    H221442   3.777   3.754   0.865
 7167TIP3   OH221443   7.030   3.686   0.901
 7167TIP3    H121444   7.087   3.715   0.972
 7167TIP3    H221445   7.075   3.610   0.864
 7168TIP3   OH221446   0.882   4.101   5.363
 7168TIP3    H121447   0.798   4.135   5.331
 7168TIP3    H221448   0.858   4.042   5.435
 7169TIP3   OH221449   1.726   1.146   0.462
 7169TIP3    H121450   1.739   1.059   0.500
 7169TIP3    H221451   1.750   1.207   0.532
 7170TIP3   OH221452   8.240   5.356   6.100
 7170TIP3    H121453   8.218   5.279   6.047
 7170TIP3    H221454   8.320   5.390   6.060
 7171TIP3   OH221455   2.678   3.897   3.092
 7171TIP3    H121456   2.611   3.871   3.029
 7171TIP3    H221457   2.720   3.973   3.052
 7172TIP3   OH221458   4.540   7.606   3.249
 7172TIP3    H121459   4.561   7.600   3.156
 7172TIP3    H221460   4.600   7.544   3.291
 7173TIP3   OH221461   4.757   4.594   1.258
 7173TIP3    H121462   4.695   4.528   1.226
 7173TIP3    H221463   4.734   4.605   1.350
 7174TIP3   OH221464   5.071   2.383   3.910
 7174TIP3    H121465   5.137   2.327   3.867
 7174TIP3    H221466   5.052   2.450   3.845
 7175TIP3   OH221467   7.193   1.986   0.866
 7175TIP3    H121468   7.195   2.009   0.959
 7175TIP3    H221469   7.111   2.024   0.834
 7176TIP3   OH221470   3.106   0.327   0.132
 7176TIP3    H121471   3.011   0.317   0.146
 7176TIP3    H221472   3.113   0.352   0.040
 7177TIP3   OH221473   2.035   2.488   6.155
 7177TIP3    H121474   2.014   2.418   6.093
 7177TIP3    H221475   2.058   2.563   6.100
 7178TIP3   OH221476   0.504   6.388   0.177
 7178TIP3    H121477   0.425   6.354   0.217
 7178TIP3    H221478   0.573   6.326   0.203
 7179TIP3   OH221479   0.557   3.644   3.264
 7179TIP3    H121480   0.575   3.571   3.205
 7179TIP3    H221481   0.470   3.675   3.239
 7180TIP3   OH221482   3.252   3.990   0.876
 7180TIP3    H121483   3.168   3.945   0.886
 7180TIP3    H221484   3.314   3.935   0.924
 7181TIP3   OH221485   2.134   0.494   2.975
 7181TIP3    H121486   2.040   0.508   2.984
 7181TIP3    H221487   2.171   0.523   3.058
 7182TIP3   OH221488   6.670   0.232   6.422
 7182TIP3    H121489   6.749   0.179   6.414
 7182TIP3    H221490   6.604   0.184   6.371
 7183TIP3   OH221491   6.264   2.927   4.679
 7183TIP3    H121492   6.225   2.891   4.599
 7183TIP3    H221493   6.340   2.975   4.649
 7184TIP3   OH221494   4.085   2.905   1.797
 7184TIP3    H121495   4.130   2.837   1.847
 7184TIP3    H221496   4.150   2.974   1.786
 7185TIP3   OH221497   1.412   1.176   2.277
 7185TIP3    H121498   1.402   1.271   2.288
 7185TIP3    H221499   1.331   1.149   2.233
 7186TIP3   OH221500   5.922   0.835   4.709
 7186TIP3    H121501   5.947   0.783   4.632
 7186TIP3    H221502   5.996   0.894   4.723
 7187TIP3   OH221503   7.036   4.700   0.140
 7187TIP3    H121504   7.070   4.681   0.052
 7187TIP3    H221505   7.051   4.620   0.189
 7188TIP3   OH221506   4.774   3.216   1.868
 7188TIP3    H121507   4.729   3.300   1.857
 7188TIP3    H221508   4.849   3.221   1.808
 7189TIP3   OH221509   7.119   4.909   6.416
 7189TIP3    H121510   7.209   4.931   6.441
 7189TIP3    H221511   7.092   4.980   6.359
 7190TIP3   OH221512   3.080   0.072   2.572
 7190TIP3    H121513   3.159   0.027   2.602
 7190TIP3    H221514   3.062   0.136   2.641
 7191TIP3   OH221515   8.224   0.700   0.219
 7191TIP3    H121516   8.196   0.611   0.239
 7191TIP3    H221517   8.293   0.689   0.153
 7192TIP3   OH221518   3.222   1.957   4.540
 7192TIP3    H121519   3.207   2.013   4.616
 7192TIP3    H221520   3.137   1.956   4.495
 7193TIP3   OH221521   4.018   3.469   2.890
 7193TIP3    H121522   4.079   3.441   2.959
 7193TIP3    H221523   3.941   3.501   2.938
 7194TIP3   OH221524   0.303   5.343   5.082
 7194TIP3    H121525   0.312   5.313   5.172
 7194TIP3    H221526   0.227   5.295   5.049
 7195TIP3   OH221527   2.050   3.528   1.894
 7195TIP3    H121528   1.991   3.454   1.883
 7195TIP3    H221529   2.136   3.488   1.908
 7196TIP3   OH221530   3.005   1.898   6.106
 7196TIP3    H121531   3.008   1.804   6.092
 7196TIP3    H221532   2.926   1.927   6.059
 7197TIP3   OH221533   6.522   4.387   0.125
 7197TIP3    H121534   6.477   4.350   0.201
 7197TIP3    H221535   6.600   4.429   0.160
 7198TIP3   OH221536   2.012   2.711   2.768
 7198TIP3    H121537   1.976   2.797   2.745
 7198TIP3    H221538   1.973   2.651   2.704
 7199TIP3   OH221539   6.912   0.227   1.212
 7199TIP3    H121540   6.991   0.275   1.186
 7199TIP3    H221541   6.873   0.281   1.281
 7200TIP3   OH221542   2.152   6.231   3.086
 7200TIP3    H121543   2.058   6.212   3.081
 7200TIP3    H221544   2.188   6.195   3.005
 7201TIP3   OH221545   4.430   0.414   3.131
 7201TIP3    H121546   4.486   0.350   3.087
 7201TIP3    H221547   4.492   0.471   3.178
 7202TIP3   OH221548   6.514   0.271   0.716
 7202TIP3    H121549   6.523   0.365   0.699
 7202TIP3    H221550   6.583   0.230   0.662
 7203TIP3   OH221551   1.645   2.269   4.504
 7203TIP3    H121552   1.552   2.289   4.491
 7203TIP3    H221553   1.672   2.327   4.575
 7204TIP3   OH221554   5.200   6.748   1.522
 7204TIP3    H121555   5.219   6.793   1.440
 7204TIP3    H221556   5.175   6.818   1.583
 7205TIP3   OH221557   2.425   6.543   1.409
 7205TIP3    H121558   2.509   6.540   1.363
 7205TIP3    H221559   2.415   6.635   1.436
 7206TIP3   OH221560   1.778   3.454   5.276
 7206TIP3    H121561   1.868   3.425   5.264
 7206TIP3    H221562   1.728   3.374   5.293
 7207TIP3   OH221563   1.577   1.026   0.876
 7207TIP3    H121564   1.616   1.005   0.791
 7207TIP3    H221565   1.611   0.959   0.935
 7208TIP3   OH221566   5.753   1.946   0.203
 7208TIP3    H121567   5.810   2.021   0.214
 7208TIP3    H221568   5.670   1.983   0.172
 7209TIP3   OH221569   2.191   2.781   0.693
 7209TIP3    H121570   2.171   2.870   0.720
 7209TIP3    H221571   2.201   2.786   0.598
 7210TIP3   OH221572   4.721   1.300   4.004
 7210TIP3    H121573   4.696   1.381   4.049
 7210TIP3    H221574   4.638   1.260   3.980
 7211TIP3   OH221575   1.216   5.462   4.070
 7211TIP3    H121576   1.123   5.471   4.088
 7211TIP3    H221577   1.244   5.388   4.124
 7212TIP3   OH221578   0.089   0.274   2.072
 7212TIP3    H121579   0.057   0.304   1.987
 7212TIP3    H221580   0.180   0.304   2.076
 7213TIP3   OH221581   3.248   1.366   6.146
 7213TIP3    H121582   3.238   1.271   6.148
 7213TIP3    H221583   3.199   1.397   6.222
 7214TIP3   OH221584   6.680   3.525   4.654
 7214TIP3    H121585   6.706   3.576   4.731
 7214TIP3    H221586   6.587   3.506   4.667
 7215TIP3   OH221587   7.635   1.977   1.206
 7215TIP3    H121588   7.650   2.054   1.261
 7215TIP3    H221589   7.623   1.905   1.268
 7216TIP3   OH221590   1.349   7.664   3.719
 7216TIP3    H121591   1.334   7.574   3.690
 7216TIP3    H221592   1.443   7.678   3.709
 7217TIP3   OH221593   3.936   7.070   5.780
 7217TIP3    H121594   4.013   7.014   5.771
 7217TIP3    H221595   3.870   7.029   5.725
 7218TIP3   OH221596   3.348   0.872   6.087
 7218TIP3    H121597   3.300   0.941   6.131
 7218TIP3    H221598   3.297   0.793   6.105
 7219TIP3   OH221599   1.750   1.967   0.235
 7219TIP3    H121600   1.701   1.894   0.196
 7219TIP3    H221601   1.718   1.972   0.325
 7220TIP3   OH221602   2.426   5.591   4.714
 7220TIP3    H121603   2.359   5.656   4.735
 7220TIP3    H221604   2.472   5.628   4.638
 7221TIP3   OH221605   0.808   0.497   2.342
 7221TIP3    H121606   0.733   0.491   2.284
 7221TIP3    H221607   0.830   0.591   2.344
 7222TIP3   OH221608   1.647   1.807   3.925
 7222TIP3    H121609   1.627   1.775   3.837
 7222TIP3    H221610   1.662   1.727   3.977
 7223TIP3   OH221611   1.981   7.216   2.033
 7223TIP3    H121612   2.012   7.207   2.123
 7223TIP3    H221613   1.934   7.300   2.033
 7224TIP3   OH221614   2.451   6.807   5.087
 7224TIP3    H121615   2.464   6.713   5.093
 7224TIP3    H221616   2.540   6.844   5.089
 7225TIP3   OH221617   3.839   4.531   1.175
 7225TIP3    H121618   3.847   4.609   1.121
 7225TIP3    H221619   3.924   4.488   1.169
 7226TIP3   OH221620   7.971   3.634   3.112
 7226TIP3    H121621   8.047   3.646   3.055
 7226TIP3    H221622   7.901   3.683   3.070
 7227TIP3   OH221623   3.957   6.829   5.431
 7227TIP3    H121624   3.908   6.892   5.380
 7227TIP3    H221625   4.000   6.880   5.500
 7228TIP3   OH221626   5.488   6.273   6.453
 7228TIP3    H121627   5.478   6.197   6.396
 7228TIP3    H221628   5.547   6.244   6.522
 7229TIP3   OH221629   3.042   6.806   4.265
 7229TIP3    H121630   3.004   6.863   4.332
 7229TIP3    H221631   3.047   6.861   4.187
 7230TIP3   OH221632   4.318   3.547   5.112
 7230TIP3    H121633   4.383   3.505   5.056
 7230TIP3    H221634   4.331   3.507   5.198
 7231TIP3   OH221635   5.693   2.210   1.881
 7231TIP3    H121636   5.711   2.168   1.797
 7231TIP3    H221637   5.748   2.163   1.943
 7232TIP3   OH221638   6.458   6.201   1.692
 7232TIP3    H121639   6.494   6.126   1.739
 7232TIP3    H221640   6.369   6.174   1.667
 7233TIP3   OH221641   1.608   6.626   1.016
 7233TIP3    H121642   1.677   6.578   0.970
 7233TIP3    H221643   1.655   6.689   1.070
 7234TIP3   OH221644   6.381   3.795   5.876
 7234TIP3    H121645   6.396   3.788   5.970
 7234TIP3    H221646   6.416   3.881   5.852
 7235TIP3   OH221647   4.204   2.518   4.594
 7235TIP3    H121648   4.165   2.435   4.622
 7235TIP3    H221649   4.220   2.506   4.500
 7236TIP3   OH221650   4.074   4.831   1.970
 7236TIP3    H121651   4.081   4.800   2.060
 7236TIP3    H221652   4.040   4.756   1.922
 7237TIP3   OH221653   1.953   6.597   3.495
 7237TIP3    H121654   1.996   6.626   3.576
 7237TIP3    H221655   1.929   6.506   3.512
 7238TIP3   OH221656   3.729   2.216   6.029
 7238TIP3    H121657   3.714   2.249   5.941
 7238TIP3    H221658   3.772   2.287   6.075
 7239TIP3   OH221659   4.476   7.727   6.754
 7239TIP3    H121660   4.443   7.808   6.715
 7239TIP3    H221661   4.452   7.659   6.692
 7240TIP3   OH221662   4.778   5.054   5.306
 7240TIP3    H121663   4.722   5.034   5.230
 7240TIP3    H221664   4.776   4.974   5.359
 7241TIP3   OH221665   1.467   0.675   2.596
 7241TIP3    H121666   1.525   0.744   2.628
 7241TIP3    H221667   1.521   0.595   2.600
 7242TIP3   OH221668   0.117   6.245   0.864
 7242TIP3    H121669   0.071   6.217   0.784
 7242TIP3    H221670   0.050   6.289   0.916
 7243TIP3   OH221671   6.154   7.425   4.124
 7243TIP3    H121672   6.179   7.384   4.041
 7243TIP3    H221673   6.063   7.452   4.111
 7244TIP3   OH221674   3.127   0.259   1.195
 7244TIP3    H121675   3.092   0.300   1.115
 7244TIP3    H221676   3.140   0.332   1.255
 7245TIP3   OH221677   3.125   6.543   5.168
 7245TIP3    H121678   3.042   6.590   5.158
 7245TIP3    H221679   3.158   6.534   5.079
 7246TIP3   OH221680   0.389   1.631   3.818
 7246TIP3    H121681   0.472   1.584   3.814
 7246TIP3    H221682   0.373   1.644   3.912
 7247TIP3   OH221683   0.421   2.429   6.022
 7247TIP3    H121684   0.513   2.433   5.996
 7247TIP3    H221685   0.393   2.341   5.996
 7248TIP3   OH221686   2.978   5.672   5.235
 7248TIP3    H121687   3.016   5.711   5.313
 7248TIP3    H221688   2.947   5.746   5.183
 7249TIP3   OH221689   5.663   6.318   3.550
 7249TIP3    H121690   5.691   6.409   3.557
 7249TIP3    H221691   5.695   6.288   3.465
 7250TIP3   OH221692   5.830   5.953   2.746
 7250TIP3    H121693   5.857   6.045   2.749
 7250TIP3    H221694   5.880   5.915   2.674
 7251TIP3   OH221695   7.475   0.798   3.206
 7251TIP3    H121696   7.440   0.736   3.268
 7251TIP3    H221697   7.441   0.883   3.234
 7252TIP3   OH221698   2.234   0.189   5.206
 7252TIP3    H121699   2.329   0.184   5.194
 7252TIP3    H221700   2.201   0.105   5.175
 7253TIP3   OH221701   8.018   5.886   1.954
 7253TIP3    H121702   7.984   5.898   1.866
 7253TIP3    H221703   7.953   5.829   1.997
 7254TIP3   OH221704   6.353   7.667   2.953
 7254TIP3    H121705   6.320   7.723   3.024
 7254TIP3    H221706   6.280   7.659   2.893
 7255TIP3   OH221707   4.272   0.468   6.164
 7255TIP3    H121708   4.275   0.563   6.170
 7255TIP3    H221709   4.344   0.445   6.104
 7256TIP3   OH221710   4.359   4.010   2.178
 7256TIP3    H121711   4.306   3.930   2.183
 7256TIP3    H221712   4.407   4.012   2.260
 7257TIP3   OH221713   6.089   7.055   5.301
 7257TIP3    H121714   6.172   7.007   5.301
 7257TIP3    H221715   6.091   7.108   5.380
 7258TIP3   OH221716   4.701   5.553   4.641
 7258TIP3    H121717   4.674   5.638   4.678
 7258TIP3    H221718   4.791   5.542   4.671
 7259TIP3   OH221719   2.401   2.024   4.142
 7259TIP3    H121720   2.407   1.930   4.158
 7259TIP3    H221721   2.307   2.042   4.141
 7260TIP3   OH221722   4.006   7.391   5.085
 7260TIP3    H121723   4.045   7.314   5.127
 7260TIP3    H221724   3.932   7.357   5.036
 7261TIP3   OH221725   5.016   2.060   2.515
 7261TIP3    H121726   5.069   2.131   2.550
 7261TIP3    H221727   5.031   2.064   2.420
 7262TIP3   OH221728   4.182   3.802   3.163
 7262TIP3    H121729   4.144   3.824   3.079
 7262TIP3    H221730   4.276   3.816   3.152
 7263TIP3   OH221731   5.645   6.849   5.892
 7263TIP3    H121732   5.570   6.821   5.840
 7263TIP3    H221733   5.633   6.943   5.904
 7264TIP3   OH221734   2.924   4.530   3.228
 7264TIP3    H121735   2.953   4.448   3.269
 7264TIP3    H221736   2.861   4.567   3.289
 7265TIP3   OH221737   8.089   5.955   4.169
 7265TIP3    H121738   8.103   5.920   4.257
 7265TIP3    H221739   8.101   6.049   4.179
 7266TIP3   OH221740   1.812   0.923   6.368
 7266TIP3    H121741   1.784   0.856   6.430
 7266TIP3    H221742   1.733   0.976   6.351
 7267TIP3   OH221743   8.195   3.609   2.288
 7267TIP3    H121744   8.263   3.675   2.273
 7267TIP3    H221745   8.180   3.611   2.383
 7268TIP3   OH221746   7.513   0.680   1.457
 7268TIP3    H121747   7.582   0.650   1.516
 7268TIP3    H221748   7.476   0.757   1.500
 7269TIP3   OH221749   3.530   6.168   2.356
 7269TIP3    H121750   3.624   6.153   2.351
 7269TIP3    H221751   3.508   6.152   2.448
 7270TIP3   OH221752   5.542   4.485   0.653
 7270TIP3    H121753   5.543   4.418   0.585
 7270TIP3    H221754   5.495   4.559   0.614
 7271TIP3   OH221755   1.623   0.375   1.487
 7271TIP3    H121756   1.684   0.302   1.477
 7271TIP3    H221757   1.536   0.336   1.476
 7272TIP3   OH221758   5.111   3.968   0.623
 7272TIP3    H121759   5.130   3.883   0.582
 7272TIP3    H221760   5.129   3.954   0.716
 7273TIP3   OH221761   6.961   4.703   0.838
 7273TIP3    H121762   7.051   4.703   0.869
 7273TIP3    H221763   6.929   4.615   0.857
 7274TIP3   OH221764   0.050   3.077   0.712
 7274TIP3    H121765   0.027   3.009   0.648
 7274TIP3    H221766  -0.034   3.100   0.753
 7275TIP3   OH221767   5.006   0.264   0.680
 7275TIP3    H121768   4.988   0.344   0.729
 7275TIP3    H221769   5.101   0.252   0.686
 7276TIP3   OH221770   4.044   1.721   6.571
 7276TIP3    H121771   4.065   1.796   6.516
 7276TIP3    H221772   3.950   1.711   6.563
 7277TIP3   OH221773   0.550   7.652   6.641
 7277TIP3    H121774   0.482   7.714   6.666
 7277TIP3    H221775   0.631   7.690   6.675
 7278TIP3   OH221776   2.625   2.807   1.885
 7278TIP3    H121777   2.702   2.845   1.925
 7278TIP3    H221778   2.637   2.820   1.791
 7279TIP3   OH221779   5.141   3.475   0.200
 7279TIP3    H121780   5.098   3.451   0.282
 7279TIP3    H221781   5.071   3.470   0.134
 7280TIP3   OH221782   1.158   4.354   0.395
 7280TIP3    H121783   1.159   4.450   0.396
 7280TIP3    H221784   1.067   4.330   0.378
 7281TIP3   OH221785   4.150   1.784   0.072
 7281TIP3    H121786   4.061   1.791   0.107
 7281TIP3    H221787   4.143   1.819  -0.017
 7282TIP3   OH221788   1.295   4.670   4.140
 7282TIP3    H121789   1.327   4.722   4.066
 7282TIP3    H221790   1.334   4.712   4.216
 7283TIP3   OH221791   1.323   1.022   1.803
 7283TIP3    H121792   1.302   1.114   1.814
 7283TIP3    H221793   1.418   1.018   1.809
 7284TIP3   OH221794   1.832   5.738   5.082
 7284TIP3    H121795   1.882   5.791   5.145
 7284TIP3    H221796   1.777   5.682   5.136
 7285TIP3   OH221797   4.780   3.783   2.609
 7285TIP3    H121798   4.788   3.696   2.570
 7285TIP3    H221799   4.694   3.782   2.651
 7286TIP3   OH221800   5.658   1.891   5.118
 7286TIP3    H121801   5.581   1.920   5.167
 7286TIP3    H221802   5.707   1.972   5.102
 7287TIP3   OH221803   2.137   3.607   1.370
 7287TIP3    H121804   2.208   3.669   1.379
 7287TIP3    H221805   2.136   3.584   1.277
 7288TIP3   OH221806   7.553   1.464   1.589
 7288TIP3    H121807   7.626   1.518   1.560
 7288TIP3    H221808   7.540   1.401   1.518
 7289TIP3   OH221809   0.410   4.147   0.976
 7289TIP3    H121810   0.381   4.123   1.065
 7289TIP3    H221811   0.448   4.234   0.986
 7290TIP3   OH221812   4.438   0.879   5.973
 7290TIP3    H121813   4.354   0.907   6.010
 7290TIP3    H221814   4.415   0.838   5.890
 7291TIP3   OH221815   3.504   0.709   0.460
 7291TIP3    H121816   3.411   0.710   0.484
 7291TIP3    H221817   3.548   0.678   0.539
 7292TIP3   OH221818   7.149   5.074   1.726
 7292TIP3    H121819   7.174   4.983   1.739
 7292TIP3    H221820   7.082   5.091   1.792
 7293TIP3   OH221821   4.709   3.299   4.498
 7293TIP3    H121822   4.792   3.252   4.508
 7293TIP3    H221823   4.642   3.233   4.515
 7294TIP3   OH221824   5.335   5.679   0.498
 7294TIP3    H121825   5.264   5.722   0.449
 7294TIP3    H221826   5.363   5.744   0.562
 7295TIP3   OH221827   2.672   6.283   5.557
 7295TIP3    H121828   2.712   6.361   5.519
 7295TIP3    H221829   2.686   6.292   5.651
 7296TIP3   OH221830   6.454   1.691   5.780
 7296TIP3    H121831   6.457   1.595   5.775
 7296TIP3    H221832   6.361   1.710   5.796
 7297TIP3   OH221833   3.451   2.800   0.897
 7297TIP3    H121834   3.497   2.734   0.844
 7297TIP3    H221835   3.454   2.765   0.986
 7298TIP3   OH221836   4.322   3.648   6.184
 7298TIP3    H121837   4.380   3.585   6.226
 7298TIP3    H221838   4.238   3.635   6.227
 7299TIP3   OH221839   6.475   6.403   2.843
 7299TIP3    H121840   6.404   6.404   2.907
 7299TIP3    H221841   6.455   6.475   2.784
 7300TIP3   OH221842   2.630   1.418   4.150
 7300TIP3    H121843   2.627   1.348   4.216
 7300TIP3    H221844   2.554   1.473   4.171
 7301TIP3   OH221845   0.701   0.539   4.471
 7301TIP3    H121846   0.607   0.543   4.455
 7301TIP3    H221847   0.710   0.491   4.553
 7302TIP3   OH221848   4.456   7.419   6.306
 7302TIP3    H121849   4.426   7.497   6.259
 7302TIP3    H221850   4.542   7.400   6.267
 7303TIP3   OH221851   6.241   5.466   6.642
 7303TIP3    H121852   6.244   5.546   6.589
 7303TIP3    H221853   6.209   5.398   6.582
 7304TIP3   OH221854   4.646   4.129   1.638
 7304TIP3    H121855   4.622   4.222   1.643
 7304TIP3    H221856   4.658   4.103   1.730
 7305TIP3   OH221857   3.934   7.165   2.360
 7305TIP3    H121858   3.854   7.163   2.307
 7305TIP3    H221859   3.991   7.225   2.313
 7306TIP3   OH221860   7.503   2.013   5.055
 7306TIP3    H121861   7.523   2.100   5.021
 7306TIP3    H221862   7.508   1.956   4.978
 7307TIP3   OH221863   4.460   5.992   2.249
 7307TIP3    H121864   4.454   5.969   2.342
 7307TIP3    H221865   4.548   5.967   2.224
 7308TIP3   OH221866   2.711   2.820   3.862
 7308TIP3    H121867   2.786   2.852   3.913
 7308TIP3    H221868   2.634   2.854   3.908
 7309TIP3   OH221869   5.805   3.932   5.487
 7309TIP3    H121870   5.723   3.893   5.457
 7309TIP3    H221871   5.826   3.884   5.567
 7310TIP3   OH221872   1.752   5.249   6.280
 7310TIP3    H121873   1.811   5.186   6.323
 7310TIP3    H221874   1.792   5.334   6.296
 7311TIP3   OH221875   4.095   3.905   3.407
 7311TIP3    H121876   4.128   3.890   3.318
 7311TIP3    H221877   4.006   3.872   3.406
 7312TIP3   OH221878   0.350   2.501   0.056
 7312TIP3    H121879   0.440   2.474   0.042
 7312TIP3    H221880   0.320   2.448   0.130
 7313TIP3   OH221881   6.680   1.668   1.493
 7313TIP3    H121882   6.649   1.682   1.403
 7313TIP3    H221883   6.766   1.710   1.495
 7314TIP3   OH221884   0.461   2.237   1.479
 7314TIP3    H121885   0.455   2.144   1.498
 7314TIP3    H221886   0.370   2.266   1.475
 7315TIP3   OH221887   7.548   4.912   5.156
 7315TIP3    H121888   7.581   4.894   5.068
 7315TIP3    H221889   7.627   4.912   5.211
 7316TIP3   OH221890   4.577   2.825   4.221
 7316TIP3    H121891   4.658   2.842   4.270
 7316TIP3    H221892   4.605   2.820   4.130
 7317TIP3   OH221893   2.970   5.261   0.883
 7317TIP3    H121894   2.962   5.241   0.789
 7317TIP3    H221895   3.019   5.343   0.886
 7318TIP3   OH221896   5.091   2.466   3.023
 7318TIP3    H121897   5.051   2.454   3.110
 7318TIP3    H221898   5.175   2.421   3.029
 7319TIP3   OH221899   1.397   6.998   4.516
 7319TIP3    H121900   1.401   6.980   4.610
 7319TIP3    H221901   1.488   6.994   4.487
 7320TIP3   OH221902   1.422   2.721   6.391
 7320TIP3    H121903   1.412   2.644   6.334
 7320TIP3    H221904   1.343   2.772   6.377
 7321TIP3   OH221905   6.610   5.856   5.195
 7321TIP3    H121906   6.661   5.849   5.114
 7321TIP3    H221907   6.632   5.776   5.243
 7322TIP3   OH221908   7.594   7.195   2.942
 7322TIP3    H121909   7.624   7.262   2.880
 7322TIP3    H221910   7.662   7.128   2.940
 7323TIP3   OH221911   1.174   2.273   5.369
 7323TIP3    H121912   1.168   2.189   5.413
 7323TIP3    H221913   1.234   2.324   5.424
 7324TIP3   OH221914   0.034   2.967   2.317
 7324TIP3    H121915   0.011   2.955   2.225
 7324TIP3    H221916   0.062   2.881   2.346
 7325TIP3   OH221917   1.037   6.512   5.618
 7325TIP3    H121918   0.991   6.487   5.537
 7325TIP3    H221919   1.000   6.455   5.685
 7326TIP3   OH221920   3.955   6.704   4.640
 7326TIP3    H121921   3.901   6.687   4.563
 7326TIP3    H221922   4.041   6.669   4.617
 7327TIP3   OH221923   2.737   7.340   0.477
 7327TIP3    H121924   2.745   7.333   0.382
 7327TIP3    H221925   2.660   7.395   0.491
 7328TIP3   OH221926   1.679   2.295   1.087
 7328TIP3    H121927   1.696   2.245   1.007
 7328TIP3    H221928   1.632   2.373   1.057
 7329TIP3   OH221929   4.699   0.161   6.360
 7329TIP3    H121930   4.607   0.150   6.386
 7329TIP3    H221931   4.729   0.238   6.410
 7330TIP3   OH221932   3.108   2.447   4.806
 7330TIP3    H121933   3.175   2.445   4.874
 7330TIP3    H221934   3.036   2.395   4.842
 7331TIP3   OH221935   2.885   3.429   0.474
 7331TIP3    H121936   2.963   3.383   0.443
 7331TIP3    H221937   2.859   3.485   0.401
 7332TIP3   OH221938   1.074   5.009   3.467
 7332TIP3    H121939   1.032   5.033   3.549
 7332TIP3    H221940   1.094   4.916   3.477
 7333TIP3   OH221941   6.550   2.905   1.458
 7333TIP3    H121942   6.634   2.864   1.482
 7333TIP3    H221943   6.571   2.958   1.381
 7334TIP3   OH221944   4.359   7.745   5.717
 7334TIP3    H121945   4.436   7.801   5.707
 7334TIP3    H221946   4.287   7.797   5.680
 7335TIP3   OH221947   3.139   4.103   4.411
 7335TIP3    H121948   3.145   4.024   4.465
 7335TIP3    H221949   3.208   4.093   4.346
 7336TIP3   OH221950   4.941   3.819   0.398
 7336TIP3    H121951   4.985   3.902   0.377
 7336TIP3    H221952   4.848   3.836   0.383
 7337TIP3   OH221953   3.198   3.323   2.074
 7337TIP3    H121954   3.192   3.247   2.015
 7337TIP3    H221955   3.231   3.287   2.156
 7338TIP3   OH221956   3.189   0.225   3.131
 7338TIP3    H121957   3.147   0.304   3.165
 7338TIP3    H221958   3.184   0.162   3.203
 7339TIP3   OH221959   2.621   0.114   2.360
 7339TIP3    H121960   2.689   0.046   2.356
 7339TIP3    H221961   2.642   0.164   2.439
 7340TIP3   OH221962   6.071   2.906   2.472
 7340TIP3    H121963   6.088   2.928   2.563
 7340TIP3    H221964   5.980   2.932   2.457
 7341TIP3   OH221965   3.715   4.188   2.699
 7341TIP3    H121966   3.780   4.118   2.709
 7341TIP3    H221967   3.661   4.182   2.778
 7342TIP3   OH221968   3.695   3.528   5.665
 7342TIP3    H121969   3.726   3.583   5.737
 7342TIP3    H221970   3.747   3.556   5.590
 7343TIP3   OH221971   1.684   4.172   3.648
 7343TIP3    H121972   1.773   4.202   3.630
 7343TIP3    H221973   1.648   4.151   3.562
 7344TIP3   OH221974   2.850   1.444   2.310
 7344TIP3    H121975   2.797   1.395   2.247
 7344TIP3    H221976   2.929   1.467   2.262
 7345TIP3   OH221977   4.999   0.694   4.425
 7345TIP3    H121978   4.908   0.679   4.452
 7345TIP3    H221979   5.023   0.776   4.468
 7346TIP3   OH221980   2.521   1.173   4.286
 7346TIP3    H121981   2.505   1.115   4.212
 7346TIP3    H221982   2.584   1.126   4.340
 7347TIP3   OH221983   3.485   3.958   5.877
 7347TIP3    H121984   3.461   3.990   5.790
 7347TIP3    H221985   3.502   3.864   5.864
 7348TIP3   OH221986   4.097   4.851   0.231
 7348TIP3    H121987   4.150   4.851   0.311
 7348TIP3    H221988   4.064   4.761   0.225
 7349TIP3   OH221989   4.609   0.571   3.254
 7349TIP3    H121990   4.613   0.639   3.187
 7349TIP3    H221991   4.660   0.607   3.327
 7350TIP3   OH221992   2.022   5.891   0.436
 7350TIP3    H121993   1.928   5.908   0.438
 7350TIP3    H221994   2.057   5.943   0.508
 7351TIP3   OH221995  -0.007   4.141   4.797
 7351TIP3    H121996   0.020   4.055   4.765
 7351TIP3    H221997   0.069   4.197   4.784
 7352TIP3   OH221998   2.791   6.963   0.317
 7352TIP3    H121999   2.696   6.953   0.321
 7352TIP3    H222000   2.809   6.989   0.227
 7353TIP3   OH222001   0.332   4.407   2.252
 7353TIP3    H122002   0.374   4.414   2.337
 7353TIP3    H222003   0.323   4.312   2.237
 7354TIP3   OH222004   3.163   0.044   3.346
 7354TIP3    H122005   3.070   0.028   3.362
 7354TIP3    H222006   3.206   0.011   3.425
 7355TIP3   OH222007   2.246   1.728   2.287
 7355TIP3    H122008   2.314   1.694   2.344
 7355TIP3    H222009   2.293   1.770   2.215
 7356TIP3   OH222010   0.452   4.796   1.401
 7356TIP3    H122011   0.382   4.735   1.426
 7356TIP3    H222012   0.521   4.780   1.465
 7357TIP3   OH222013   7.821   0.608   2.850
 7357TIP3    H122014   7.891   0.570   2.902
 7357TIP3    H222015   7.755   0.539   2.846
 7358TIP3   OH222016   2.073   5.316   1.084
 7358TIP3    H122017   2.128   5.394   1.096
 7358TIP3    H222018   2.135   5.248   1.058
 7359TIP3   OH222019   0.449   5.862   3.120
 7359TIP3    H122020   0.397   5.942   3.108
 7359TIP3    H222021   0.509   5.883   3.191
 7360TIP3   OH222022   0.947   4.996   0.493
 7360TIP3    H122023   0.907   4.921   0.449
 7360TIP3    H222024   0.874   5.058   0.504
 7361TIP3   OH222025   5.876   5.897   6.063
 7361TIP3    H122026   5.961   5.929   6.036
 7361TIP3    H222027   5.862   5.934   6.151
 7362TIP3   OH222028   1.964   7.780   3.060
 7362TIP3    H122029   1.907   7.727   3.116
 7362TIP3    H222030   2.028   7.717   3.025
 7363TIP3   OH222031   3.794   0.386   2.889
 7363TIP3    H122032   3.724   0.451   2.888
 7363TIP3    H222033   3.788   0.342   2.805
 7364TIP3   OH222034   0.990   5.911   2.668
 7364TIP3    H122035   1.050   5.894   2.740
 7364TIP3    H222036   0.970   5.824   2.632
 7365TIP3   OH222037   8.023   6.437   5.357
 7365TIP3    H122038   8.048   6.451   5.266
 7365TIP3    H222039   8.097   6.390   5.396
 7366TIP3   OH222040   7.135   2.764   0.273
 7366TIP3    H122041   7.121   2.684   0.324
 7366TIP3    H222042   7.181   2.733   0.194
 7367TIP3   OH222043   0.643   7.419   0.213
 7367TIP3    H122044   0.713   7.485   0.207
 7367TIP3    H222045   0.566   7.468   0.241
 7368TIP3   OH222046   3.471   7.703   4.656
 7368TIP3    H122047   3.482   7.712   4.561
 7368TIP3    H222048   3.452   7.793   4.686
 7369TIP3   OH222049   7.495   1.996   4.753
 7369TIP3    H122050   7.453   2.021   4.671
 7369TIP3    H222051   7.541   1.915   4.733
 7370TIP3   OH222052   5.238   4.888   3.396
 7370TIP3    H122053   5.168   4.953   3.395
 7370TIP3    H222054   5.193   4.804   3.394
 7371TIP3   OH222055   3.167   6.171   5.355
 7371TIP3    H122056   3.181   6.250   5.407
 7371TIP3    H222057   3.141   6.202   5.269
 7372TIP3   OH222058   1.414   3.695   1.812
 7372TIP3    H122059   1.348   3.667   1.748
 7372TIP3    H222060   1.492   3.712   1.760
 7373TIP3   OH222061   3.410   4.537   5.167
 7373TIP3    H122062   3.327   4.583   5.183
 7373TIP3    H222063   3.469   4.605   5.135
 7374TIP3   OH222064   3.420   0.828   3.209
 7374TIP3    H122065   3.418   0.774   3.288
 7374TIP3    H222066   3.408   0.765   3.137
 7375TIP3   OH222067   0.685   5.918   0.549
 7375TIP3    H122068   0.618   5.851   0.554
 7375TIP3    H222069   0.650   5.992   0.599
 7376TIP3   OH222070   5.961   5.813   1.823
 7376TIP3    H122071   5.895   5.874   1.856
 7376TIP3    H222072   6.043   5.843   1.864
 7377TIP3   OH222073   5.160   2.160   6.173
 7377TIP3    H122074   5.223   2.096   6.138
 7377TIP3    H222075   5.093   2.107   6.217
 7378TIP3   OH222076   1.773   1.769   1.002
 7378TIP3    H122077   1.732   1.716   0.934
 7378TIP3    H222078   1.847   1.717   1.032
 7379TIP3   OH222079   4.220   6.064   6.445
 7379TIP3    H122080   4.289   6.120   6.480
 7379TIP3    H222081   4.226   6.075   6.350
 7380TIP3   OH222082   4.119   1.910   4.463
 7380TIP3    H122083   4.062   1.987   4.457
 7380TIP3    H222084   4.153   1.912   4.552
 7381TIP3   OH222085   0.173   2.201   2.917
 7381TIP3    H122086   0.118   2.199   2.995
 7381TIP3    H222087   0.163   2.114   2.878
 7382TIP3   OH222088   4.450   4.160   2.943
 7382TIP3    H122089   4.362   4.143   2.910
 7382TIP3    H222090   4.500   4.083   2.918
 7383TIP3   OH222091   8.199   1.950   4.500
 7383TIP3    H122092   8.226   1.980   4.413
 7383TIP3    H222093   8.176   2.031   4.547
 7384TIP3   OH222094   2.202   7.218   2.512
 7384TIP3    H122095   2.258   7.248   2.440
 7384TIP3    H222096   2.133   7.284   2.517
 7385TIP3   OH222097   6.730   4.879   1.021
 7385TIP3    H122098   6.733   4.806   1.082
 7385TIP3    H222099   6.756   4.955   1.072
 7386TIP3   OH222100   2.951   1.793   0.266
 7386TIP3    H122101   2.923   1.871   0.313
 7386TIP3    H222102   3.047   1.797   0.267
 7387TIP3   OH222103   1.288   1.451   6.698
 7387TIP3    H122104   1.367   1.423   6.651
 7387TIP3    H222105   1.254   1.523   6.646
 7388TIP3   OH222106   5.438   4.511   0.914
 7388TIP3    H122107   5.413   4.420   0.899
 7388TIP3    H222108   5.490   4.535   0.837
 7389TIP3   OH222109   7.211   1.782   1.804
 7389TIP3    H122110   7.119   1.770   1.830
 7389TIP3    H222111   7.228   1.711   1.742
 7390TIP3   OH222112   2.823   3.999   1.745
 7390TIP3    H122113   2.861   3.913   1.730
 7390TIP3    H222114   2.816   4.006   1.840
 7391TIP3   OH222115   5.334   2.558   4.972
 7391TIP3    H122116   5.270   2.603   4.917
 7391TIP3    H222117   5.306   2.577   5.062
 7392TIP3   OH222118   2.996   7.625   0.219
 7392TIP3    H122119   3.011   7.694   0.284
 7392TIP3    H222120   2.901   7.617   0.214
 7393TIP3   OH222121   3.499   3.630   2.215
 7393TIP3    H122122   3.438   3.593   2.150
 7393TIP3    H222123   3.556   3.687   2.163
 7394TIP3   OH222124   0.337   2.356   0.309
 7394TIP3    H122125   0.368   2.266   0.298
 7394TIP3    H222126   0.405   2.399   0.359
 7395TIP3   OH222127   6.775   3.212   5.196
 7395TIP3    H122128   6.711   3.143   5.210
 7395TIP3    H222129   6.776   3.260   5.279
 7396TIP3   OH222130   2.763   7.454   3.713
 7396TIP3    H122131   2.668   7.439   3.704
 7396TIP3    H222132   2.801   7.366   3.712
 7397TIP3   OH222133   5.594   1.364   4.565
 7397TIP3    H122134   5.564   1.292   4.621
 7397TIP3    H222135   5.529   1.369   4.495
 7398TIP3   OH222136   6.872   7.528   5.968
 7398TIP3    H122137   6.954   7.533   5.918
 7398TIP3    H222138   6.811   7.484   5.909
 7399TIP3   OH222139   7.601   0.189   5.324
 7399TIP3    H122140   7.510   0.210   5.302
 7399TIP3    H222141   7.612   0.220   5.414
 7400TIP3   OH222142   0.183   5.447   5.965
 7400TIP3    H122143   0.248   5.478   6.028
 7400TIP3    H222144   0.230   5.444   5.881
 7401TIP3   OH222145   6.613   3.058   6.417
 7401TIP3    H122146   6.543   3.111   6.379
 7401TIP3    H222147   6.599   3.064   6.511
 7402TIP3   OH222148   3.751   4.509   3.303
 7402TIP3    H122149   3.832   4.480   3.346
 7402TIP3    H222150   3.765   4.488   3.211
 7403TIP3   OH222151   1.172   7.763   6.171
 7403TIP3    H122152   1.205   7.853   6.172
 7403TIP3    H222153   1.128   7.755   6.087
 7404TIP3   OH222154   1.004   4.047   4.883
 7404TIP3    H122155   1.047   4.090   4.957
 7404TIP3    H222156   0.946   4.114   4.847
 7405TIP3   OH222157   7.337   7.435   4.583
 7405TIP3    H122158   7.310   7.463   4.670
 7405TIP3    H222159   7.255   7.426   4.534
 7406TIP3   OH222160   5.585   2.371   5.566
 7406TIP3    H122161   5.564   2.315   5.491
 7406TIP3    H222162   5.680   2.379   5.564
 7407TIP3   OH222163   3.323   5.674   0.453
 7407TIP3    H122164   3.246   5.620   0.437
 7407TIP3    H222165   3.288   5.757   0.486
 7408TIP3   OH222166   5.789   7.410   1.073
 7408TIP3    H122167   5.743   7.472   1.130
 7408TIP3    H222168   5.783   7.326   1.119
 7409TIP3   OH222169   5.161   4.616   5.879
 7409TIP3    H122170   5.245   4.577   5.855
 7409TIP3    H222171   5.144   4.583   5.968
 7410TIP3   OH222172   4.637   7.695   4.328
 7410TIP3    H122173   4.607   7.732   4.411
 7410TIP3    H222174   4.715   7.746   4.306
 7411TIP3   OH222175   2.908   6.186   5.086
 7411TIP3    H122176   2.888   6.094   5.074
 7411TIP3    H222177   2.950   6.213   5.004
 7412TIP3   OH222178   7.088   5.575   3.166
 7412TIP3    H122179   7.073   5.498   3.221
 7412TIP3    H222180   7.047   5.647   3.215
 7413TIP3   OH222181   1.667   4.681   4.133
 7413TIP3    H122182   1.705   4.593   4.143
 7413TIP3    H222183   1.631   4.701   4.220
 7414TIP3   OH222184   7.124   5.666   3.749
 7414TIP3    H122185   7.208   5.703   3.775
 7414TIP3    H222186   7.135   5.572   3.755
 7415TIP3   OH222187   2.738   5.715   3.629
 7415TIP3    H122188   2.721   5.631   3.671
 7415TIP3    H222189   2.834   5.722   3.629
 7416TIP3   OH222190   6.854   6.707   5.051
 7416TIP3    H122191   6.849   6.684   4.958
 7416TIP3    H222192   6.925   6.652   5.085
 7417TIP3   OH222193   6.356   1.937   5.610
 7417TIP3    H122194   6.327   2.023   5.577
 7417TIP3    H222195   6.307   1.874   5.557
 7418TIP3   OH222196   7.619   2.587   6.571
 7418TIP3    H122197   7.656   2.669   6.605
 7418TIP3    H222198   7.692   2.545   6.526
 7419TIP3   OH222199   3.843   4.719   2.940
 7419TIP3    H122200   3.931   4.755   2.943
 7419TIP3    H222201   3.789   4.789   2.904
 7420TIP3   OH222202   7.280   6.179   3.331
 7420TIP3    H122203   7.332   6.257   3.316
 7420TIP3    H222204   7.196   6.198   3.288
 7421TIP3   OH222205   4.938   4.722   2.612
 7421TIP3    H122206   4.870   4.686   2.669
 7421TIP3    H222207   4.892   4.786   2.557
 7422TIP3   OH222208   2.942   7.449   5.249
 7422TIP3    H122209   2.921   7.362   5.284
 7422TIP3    H222210   2.859   7.496   5.252
 7423TIP3   OH222211   7.741   3.322   0.143
 7423TIP3    H122212   7.752   3.306   0.237
 7423TIP3    H222213   7.666   3.381   0.137
 7424TIP3   OH222214   8.195   6.685   4.233
 7424TIP3    H122215   8.150   6.628   4.172
 7424TIP3    H222216   8.162   6.773   4.214
 7425TIP3   OH222217   5.464   6.902   4.148
 7425TIP3    H122218   5.411   6.929   4.074
 7425TIP3    H222219   5.402   6.895   4.221
 7426TIP3   OH222220   7.223   1.498   5.363
 7426TIP3    H122221   7.191   1.432   5.302
 7426TIP3    H222222   7.203   1.463   5.449
 7427TIP3   OH222223   2.191   4.620   0.495
 7427TIP3    H122224   2.278   4.605   0.533
 7427TIP3    H222225   2.205   4.689   0.430
 7428TIP3   OH222226   4.753   6.127   0.526
 7428TIP3    H122227   4.780   6.173   0.447
 7428TIP3    H222228   4.801   6.044   0.522
 7429TIP3   OH222229  -0.017   7.224   5.060
 7429TIP3    H122230   0.014   7.311   5.033
 7429TIP3    H222231   0.056   7.187   5.109
 7430TIP3   OH222232   0.001   4.482   5.516
 7430TIP3    H122233  -0.027   4.403   5.562
 7430TIP3    H222234   0.046   4.534   5.582
 7431TIP3   OH222235   2.405   6.647   2.638
 7431TIP3    H122236   2.469   6.710   2.673
 7431TIP3    H222237   2.341   6.637   2.708
 7432TIP3   OH222238   5.493   2.000   3.718
 7432TIP3    H122239   5.545   2.080   3.708
 7432TIP3    H222240   5.426   2.022   3.783
 7433TIP3   OH222241   7.867   4.900   1.398
 7433TIP3    H122242   7.771   4.906   1.400
 7433TIP3    H222243   7.886   4.811   1.428
 7434TIP3   OH222244   4.878   0.727   3.728
 7434TIP3    H122245   4.870   0.633   3.740
 7434TIP3    H222246   4.842   0.764   3.808
 7435TIP3   OH222247   6.545   1.961   6.576
 7435TIP3    H122248   6.595   2.003   6.646
 7435TIP3    H222249   6.474   2.022   6.557
 7436TIP3   OH222250   4.790   2.533   3.906
 7436TIP3    H122251   4.797   2.584   3.986
 7436TIP3    H222252   4.861   2.565   3.851
 7437TIP3   OH222253   4.448   5.571   6.178
 7437TIP3    H122254   4.385   5.533   6.116
 7437TIP3    H222255   4.394   5.601   6.251
 7438TIP3   OH222256   4.847   4.382   4.446
 7438TIP3    H122257   4.931   4.417   4.417
 7438TIP3    H222258   4.821   4.320   4.378
 7439TIP3   OH222259   8.130   5.933   5.007
 7439TIP3    H122260   8.073   5.983   5.066
 7439TIP3    H222261   8.170   5.998   4.950
 7440TIP3   OH222262   7.868   6.844   5.249
 7440TIP3    H122263   7.912   6.841   5.334
 7440TIP3    H222264   7.937   6.822   5.186
 7441TIP3   OH222265   8.186   3.981   0.844
 7441TIP3    H122266   8.270   4.027   0.839
 7441TIP3    H222267   8.135   4.015   0.771
 7442TIP3   OH222268   8.266   2.157   2.553
 7442TIP3    H122269   8.251   2.087   2.617
 7442TIP3    H222270   8.353   2.190   2.575
 7443TIP3   OH222271   5.578   2.568   3.816
 7443TIP3    H122272   5.628   2.609   3.746
 7443TIP3    H222273   5.496   2.617   3.819
 7444TIP3   OH222274   7.742   4.117   2.632
 7444TIP3    H122275   7.812   4.068   2.675
 7444TIP3    H222276   7.715   4.182   2.698
 7445TIP3   OH222277   4.384   4.937   4.456
 7445TIP3    H122278   4.289   4.950   4.445
 7445TIP3    H222279   4.409   4.884   4.380
 7446TIP3   OH222280   7.634   2.993   4.878
 7446TIP3    H122281   7.649   3.026   4.790
 7446TIP3    H222282   7.575   3.057   4.918
 7447TIP3   OH222283   7.747   6.689   2.283
 7447TIP3    H122284   7.840   6.672   2.269
 7447TIP3    H222285   7.734   6.780   2.254
 7448TIP3   OH222286   4.134   5.847   2.588
 7448TIP3    H122287   4.224   5.832   2.616
 7448TIP3    H222288   4.137   5.931   2.542
 7449TIP3   OH222289   1.711   6.702   2.538
 7449TIP3    H122290   1.672   6.770   2.484
 7449TIP3    H222291   1.751   6.641   2.476
 7450TIP3   OH222292   5.975   6.950   6.440
 7450TIP3    H122293   5.953   6.879   6.500
 7450TIP3    H222294   6.061   6.981   6.469
 7451TIP3   OH222295   6.849   7.775   3.494
 7451TIP3    H122296   6.873   7.708   3.430
 7451TIP3    H222297   6.925   7.833   3.497
 7452TIP3   OH222298   4.269   4.171   1.099
 7452TIP3    H122299   4.341   4.153   1.159
 7452TIP3    H222300   4.241   4.084   1.070
 7453TIP3   OH222301   1.979   4.124   3.703
 7453TIP3    H122302   2.036   4.071   3.648
 7453TIP3    H222303   2.018   4.120   3.790
 7454TIP3   OH222304   1.640   3.324   1.654
 7454TIP3    H122305   1.568   3.271   1.688
 7454TIP3    H222306   1.598   3.384   1.593
 7455TIP3   OH222307   8.156   5.503   1.073
 7455TIP3    H122308   8.092   5.438   1.043
 7455TIP3    H222309   8.142   5.578   1.015
 7456TIP3   OH222310   2.627   0.151   0.802
 7456TIP3    H122311   2.569   0.225   0.822
 7456TIP3    H222312   2.715   0.185   0.816
 7457TIP3   OH222313   0.188   7.400   0.068
 7457TIP3    H122314   0.166   7.463   0.136
 7457TIP3    H222315   0.261   7.441   0.020
 7458TIP3   OH222316   6.683   4.059   4.493
 7458TIP3    H122317   6.625   3.983   4.503
 7458TIP3    H222318   6.639   4.114   4.428
 7459TIP3   OH222319   4.908   1.247   2.281
 7459TIP3    H122320   4.832   1.209   2.324
 7459TIP3    H222321   4.881   1.257   2.189
 7460TIP3   OH222322   7.599   3.080   1.759
 7460TIP3    H122323   7.622   3.117   1.674
 7460TIP3    H222324   7.509   3.048   1.747
 7461TIP3   OH222325   1.081   3.272   5.236
 7461TIP3    H122326   1.088   3.183   5.269
 7461TIP3    H222327   1.009   3.268   5.172
 7462TIP3   OH222328   2.416   7.053   2.566
 7462TIP3    H122329   2.332   7.097   2.579
 7462TIP3    H222330   2.418   7.032   2.473
 7463TIP3   OH222331   7.346   7.825   1.778
 7463TIP3    H122332   7.344   7.796   1.870
 7463TIP3    H222333   7.419   7.887   1.774
 7464TIP3   OH222334   3.527   0.679   2.516
 7464TIP3    H122335   3.512   0.748   2.451
 7464TIP3    H222336   3.571   0.724   2.589
 7465TIP3   OH222337   0.270   1.677   0.459
 7465TIP3    H122338   0.278   1.667   0.364
 7465TIP3    H222339   0.341   1.624   0.495
 7466TIP3   OH222340   3.917   2.018   1.283
 7466TIP3    H122341   3.834   2.011   1.330
 7466TIP3    H222342   3.917   1.944   1.222
 7467TIP3   OH222343   3.133   5.942   1.761
 7467TIP3    H122344   3.157   5.860   1.718
 7467TIP3    H222345   3.062   5.918   1.820
 7468TIP3   OH222346   1.505   1.907   1.543
 7468TIP3    H122347   1.426   1.932   1.495
 7468TIP3    H222348   1.567   1.978   1.527
 7469TIP3   OH222349   7.111   6.369   6.498
 7469TIP3    H122350   7.138   6.289   6.543
 7469TIP3    H222351   7.187   6.394   6.446
 7470TIP3   OH222352   7.573   3.041   3.421
 7470TIP3    H122353   7.511   3.000   3.481
 7470TIP3    H222354   7.575   3.133   3.449
 7471TIP3   OH222355   5.227   3.856   1.285
 7471TIP3    H122356   5.314   3.839   1.321
 7471TIP3    H222357   5.240   3.931   1.226
 7472TIP3   OH222358   7.701   0.967   5.910
 7472TIP3    H122359   7.744   1.046   5.877
 7472TIP3    H222360   7.610   0.993   5.923
 7473TIP3   OH222361   5.932   0.784   2.583
 7473TIP3    H122362   5.947   0.716   2.518
 7473TIP3    H222363   5.854   0.830   2.552
 7474TIP3   OH222364   5.811   1.085   4.655
 7474TIP3    H122365   5.723   1.108   4.684
 7474TIP3    H222366   5.821   0.992   4.676
 7475TIP3   OH222367   1.686   3.551   5.036
 7475TIP3    H122368   1.680   3.647   5.031
 7475TIP3    H222369   1.692   3.533   5.130
 7476TIP3   OH222370   1.278   5.910   4.556
 7476TIP3    H122371   1.278   5.953   4.470
 7476TIP3    H222372   1.320   5.826   4.541
 7477TIP3   OH222373   6.699   5.222   2.046
 7477TIP3    H122374   6.608   5.248   2.031
 7477TIP3    H222375   6.750   5.294   2.010
 7478TIP3   OH222376   7.824   7.711   1.236
 7478TIP3    H122377   7.794   7.785   1.184
 7478TIP3    H222378   7.786   7.634   1.192
 7479TIP3   OH222379   3.253   6.170   6.166
 7479TIP3    H122380   3.201   6.205   6.093
 7479TIP3    H222381   3.301   6.246   6.199
 7480TIP3   OH222382   6.233   6.207   1.080
 7480TIP3    H122383   6.193   6.294   1.087
 7480TIP3    H222384   6.160   6.147   1.068
 7481TIP3   OH222385   3.855   3.989   1.302
 7481TIP3    H122386   3.835   3.909   1.253
 7481TIP3    H222387   3.779   4.045   1.289
 7482TIP3   OH222388   4.931   1.400   4.670
 7482TIP3    H122389   4.916   1.481   4.718
 7482TIP3    H222390   4.905   1.419   4.580
 7483TIP3   OH222391   3.119   6.956   1.701
 7483TIP3    H122392   3.135   7.002   1.619
 7483TIP3    H222393   3.195   6.976   1.756
 7484TIP3   OH222394   3.846   2.385   5.575
 7484TIP3    H122395   3.853   2.398   5.480
 7484TIP3    H222396   3.888   2.301   5.591
 7485TIP3   OH222397   0.600   6.125   0.716
 7485TIP3    H122398   0.522   6.086   0.755
 7485TIP3    H222399   0.658   6.142   0.790
 7486TIP3   OH222400   2.677   3.513   3.661
 7486TIP3    H122401   2.749   3.465   3.702
 7486TIP3    H222402   2.601   3.494   3.716
 7487TIP3   OH222403   2.148   4.356   6.109
 7487TIP3    H122404   2.086   4.374   6.179
 7487TIP3    H222405   2.103   4.295   6.051
 7488TIP3   OH222406   4.241   0.598   4.617
 7488TIP3    H122407   4.256   0.538   4.544
 7488TIP3    H222408   4.312   0.579   4.679
 7489TIP3   OH222409   4.297   2.941   3.077
 7489TIP3    H122410   4.233   3.010   3.060
 7489TIP3    H222411   4.260   2.892   3.151
 7490TIP3   OH222412   3.453   1.800   2.848
 7490TIP3    H122413   3.448   1.760   2.935
 7490TIP3    H222414   3.379   1.763   2.800
 7491TIP3   OH222415   6.790   2.973   0.064
 7491TIP3    H122416   6.730   3.028   0.114
 7491TIP3    H222417   6.862   3.032   0.041
 7492TIP3   OH222418   4.362   1.549   3.485
 7492TIP3    H122419   4.274   1.548   3.446
 7492TIP3    H222420   4.420   1.572   3.412
 7493TIP3   OH222421   0.808   4.102   2.100
 7493TIP3    H122422   0.823   4.177   2.042
 7493TIP3    H222423   0.832   4.026   2.047
 7494TIP3   OH222424   3.892   4.062   5.765
 7494TIP3    H122425   3.985   4.083   5.776
 7494TIP3    H222426   3.854   4.074   5.852
 7495TIP3   OH222427   3.289   5.514   3.781
 7495TIP3    H122428   3.310   5.422   3.796
 7495TIP3    H222429   3.196   5.515   3.759
 7496TIP3   OH222430   2.974   1.312   2.525
 7496TIP3    H122431   2.911   1.263   2.578
 7496TIP3    H222432   2.921   1.348   2.454
 7497TIP3   OH222433   3.705   3.010   1.593
 7497TIP3    H122434   3.767   2.965   1.535
 7497TIP3    H222435   3.743   3.097   1.605
 7498TIP3   OH222436   3.157   4.439   5.854
 7498TIP3    H122437   3.151   4.493   5.775
 7498TIP3    H222438   3.224   4.374   5.833
 7499TIP3   OH222439   0.093   6.026   6.367
 7499TIP3    H122440   0.122   5.939   6.339
 7499TIP3    H222441   0.065   6.069   6.287
 7500TIP3   OH222442   5.522   7.421   6.569
 7500TIP3    H122443   5.458   7.412   6.640
 7500TIP3    H222444   5.476   7.389   6.492
 7501TIP3   OH222445   2.834   3.975   6.675
 7501TIP3    H122446   2.806   3.887   6.703
 7501TIP3    H222447   2.823   4.029   6.753
 7502TIP3   OH222448   6.630   2.128   2.813
 7502TIP3    H122449   6.583   2.094   2.889
 7502TIP3    H222450   6.709   2.169   2.850
 7503TIP3   OH222451   6.955   4.727   3.341
 7503TIP3    H122452   6.980   4.663   3.274
 7503TIP3    H222453   6.992   4.809   3.309
 7504TIP3   OH222454   8.008   6.528   4.083
 7504TIP3    H122455   7.934   6.471   4.104
 7504TIP3    H222456   8.049   6.487   4.007
 7505TIP3   OH222457   8.058   4.600   3.838
 7505TIP3    H122458   8.045   4.634   3.927
 7505TIP3    H222459   8.004   4.521   3.835
 7506TIP3   OH222460   8.226   0.306   1.836
 7506TIP3    H122461   8.211   0.399   1.855
 7506TIP3    H222462   8.211   0.297   1.742
 7507TIP3   OH222463   0.399   5.516   2.179
 7507TIP3    H122464   0.407   5.535   2.272
 7507TIP3    H222465   0.343   5.585   2.144
 7508TIP3   OH222466   6.075   2.237   2.429
 7508TIP3    H122467   6.005   2.299   2.447
 7508TIP3    H222468   6.143   2.289   2.386
 7509TIP3   OH222469   0.681   3.703   6.507
 7509TIP3    H122470   0.696   3.791   6.472
 7509TIP3    H222471   0.727   3.645   6.447
 7510TIP3   OH222472   4.852   5.839   0.922
 7510TIP3    H122473   4.946   5.858   0.919
 7510TIP3    H222474   4.846   5.745   0.900
 7511TIP3   OH222475   1.802   3.909   1.196
 7511TIP3    H122476   1.821   3.971   1.125
 7511TIP3    H222477   1.754   3.838   1.154
 7512TIP3   OH222478   3.036   7.247   1.060
 7512TIP3    H122479   3.014   7.310   0.991
 7512TIP3    H222480   3.019   7.294   1.142
 7513TIP3   OH222481   0.346  -0.006   4.850
 7513TIP3    H122482   0.377   0.034   4.932
 7513TIP3    H222483   0.317   0.067   4.797
 7514TIP3   OH222484   5.252   5.412   2.013
 7514TIP3    H122485   5.183   5.444   1.956
 7514TIP3    H222486   5.206   5.370   2.086
 7515TIP3   OH222487   2.593   3.141   2.327
 7515TIP3    H122488   2.650   3.090   2.385
 7515TIP3    H222489   2.594   3.229   2.365
 7516TIP3   OH222490   2.818   6.424   6.713
 7516TIP3    H122491   2.797   6.433   6.620
 7516TIP3    H222492   2.899   6.373   6.714
 7517TIP3   OH222493   4.921   5.777   0.045
 7517TIP3    H122494   4.922   5.684   0.070
 7517TIP3    H222495   4.849   5.814   0.095
 7518TIP3   OH222496   7.697   4.221   3.744
 7518TIP3    H122497   7.636   4.255   3.679
 7518TIP3    H222498   7.646   4.156   3.792
 7519TIP3   OH222499   5.428   2.138   4.094
 7519TIP3    H122500   5.449   2.141   4.188
 7519TIP3    H222501   5.383   2.221   4.077
 7520TIP3   OH222502   8.056   4.642   2.788
 7520TIP3    H122503   8.137   4.673   2.829
 7520TIP3    H222504   8.043   4.554   2.824
 7521TIP3   OH222505   5.270   5.209   6.658
 7521TIP3    H122506   5.286   5.277   6.723
 7521TIP3    H222507   5.203   5.245   6.600
 7522TIP3   OH222508   4.749   6.604   5.181
 7522TIP3    H122509   4.654   6.614   5.189
 7522TIP3    H222510   4.765   6.589   5.088
 7523TIP3   OH222511   3.488   6.051   3.752
 7523TIP3    H122512   3.553   6.012   3.694
 7523TIP3    H222513   3.415   6.075   3.695
 7524TIP3   OH222514   3.958   4.904   0.004
 7524TIP3    H122515   3.932   4.996   0.010
 7524TIP3    H222516   4.003   4.886   0.087
 7525TIP3   OH222517   5.843   4.052   3.411
 7525TIP3    H122518   5.849   4.025   3.319
 7525TIP3    H222519   5.829   3.971   3.459
 7526TIP3   OH222520   0.890   5.371   3.162
 7526TIP3    H122521   0.937   5.311   3.104
 7526TIP3    H222522   0.925   5.353   3.249
 7527TIP3   OH222523   4.809   2.923   5.514
 7527TIP3    H122524   4.773   2.858   5.574
 7527TIP3    H222525   4.789   2.888   5.427
 7528TIP3   OH222526   7.563   2.537   5.668
 7528TIP3    H122527   7.472   2.520   5.643
 7528TIP3    H222528   7.590   2.609   5.611
 7529TIP3   OH222529   7.340   7.473   5.698
 7529TIP3    H122530   7.430   7.469   5.730
 7529TIP3    H222531   7.330   7.563   5.667
 7530TIP3   OH222532   7.622   3.022   6.725
 7530TIP3    H122533   7.619   2.991   6.816
 7530TIP3    H222534   7.710   3.000   6.695
 7531TIP3   OH222535   5.568   3.930   0.554
 7531TIP3    H122536   5.520   3.977   0.622
 7531TIP3    H222537   5.635   3.881   0.602
 7532TIP3   OH222538   6.573   4.869   5.171
 7532TIP3    H122539   6.608   4.954   5.196
 7532TIP3    H222540   6.541   4.882   5.081
 7533TIP3   OH222541   4.993   4.102   2.125
 7533TIP3    H122542   4.906   4.114   2.087
 7533TIP3    H222543   5.006   4.179   2.180
 7534TIP3   OH222544   7.735   7.157   6.408
 7534TIP3    H122545   7.698   7.245   6.416
 7534TIP3    H222546   7.710   7.127   6.321
 7535TIP3   OH222547   1.073   5.768   4.136
 7535TIP3    H122548   1.093   5.677   4.158
 7535TIP3    H222549   1.002   5.792   4.196
 7536TIP3   OH222550   1.539   7.188   1.425
 7536TIP3    H122551   1.584   7.118   1.472
 7536TIP3    H222552   1.498   7.241   1.495
 7537TIP3   OH222553   6.600   0.212   1.335
 7537TIP3    H122554   6.606   0.269   1.259
 7537TIP3    H222555   6.506   0.195   1.345
 7538TIP3   OH222556   6.352   3.665   6.463
 7538TIP3    H122557   6.322   3.601   6.528
 7538TIP3    H222558   6.447   3.665   6.472
 7539TIP3   OH222559   5.125   5.639   5.368
 7539TIP3    H122560   5.090   5.550   5.370
 7539TIP3    H222561   5.072   5.684   5.303
 7540TIP3   OH222562   7.022   2.788   0.653
 7540TIP3    H122563   7.113   2.766   0.634
 7540TIP3    H222564   7.007   2.754   0.742
 7541TIP3   OH222565   2.003   0.392   4.748
 7541TIP3    H122566   1.908   0.395   4.733
 7541TIP3    H222567   2.041   0.383   4.660
 7542TIP3   OH222568   5.406   1.407   3.010
 7542TIP3    H122569   5.336   1.386   3.073
 7542TIP3    H222570   5.452   1.481   3.049
 7543TIP3   OH222571   5.629   0.118   6.491
 7543TIP3    H122572   5.636   0.202   6.446
 7543TIP3    H222573   5.613   0.142   6.583
 7544TIP3   OH222574   2.208   5.774   4.462
 7544TIP3    H122575   2.208   5.798   4.555
 7544TIP3    H222576   2.153   5.696   4.457
 7545TIP3   OH222577   1.036   6.215   3.033
 7545TIP3    H122578   1.080   6.136   3.063
 7545TIP3    H222579   1.092   6.249   2.963
 7546TIP3   OH222580   1.746   1.261   0.878
 7546TIP3    H122581   1.834   1.226   0.869
 7546TIP3    H222582   1.692   1.185   0.901
 7547TIP3   OH222583   4.134   6.966   6.505
 7547TIP3    H122584   4.045   7.002   6.497
 7547TIP3    H222585   4.141   6.940   6.596
 7548TIP3   OH222586   1.320   2.906   0.963
 7548TIP3    H122587   1.298   2.977   0.903
 7548TIP3    H222588   1.370   2.949   1.033
 7549TIP3   OH222589   2.185   2.725   4.310
 7549TIP3    H122590   2.129   2.787   4.263
 7549TIP3    H222591   2.139   2.709   4.392
 7550TIP3   OH222592   3.772   4.033   0.423
 7550TIP3    H122593   3.861   4.012   0.396
 7550TIP3    H222594   3.778   4.121   0.461
 7551TIP3   OH222595   6.334   1.490   5.961
 7551TIP3    H122596   6.241   1.473   5.946
 7551TIP3    H222597   6.377   1.453   5.884
 7552TIP3   OH222598   1.795   3.043   1.619
 7552TIP3    H122599   1.804   3.074   1.709
 7552TIP3    H222600   1.829   2.953   1.621
 7553TIP3   OH222601   0.163   0.392   5.243
 7553TIP3    H122602   0.167   0.326   5.312
 7553TIP3    H222603   0.098   0.456   5.275
 7554TIP3   OH222604   2.766   2.692   3.620
 7554TIP3    H122605   2.809   2.607   3.625
 7554TIP3    H222606   2.769   2.726   3.710
 7555TIP3   OH222607   2.094   2.566   3.174
 7555TIP3    H122608   2.011   2.609   3.193
 7555TIP3    H222609   2.150   2.588   3.249
 7556TIP3   OH222610   3.008   5.110   3.687
 7556TIP3    H122611   3.055   5.128   3.606
 7556TIP3    H222612   2.916   5.121   3.663
 7557TIP3   OH222613   5.175   7.396   0.247
 7557TIP3    H122614   5.086   7.385   0.280
 7557TIP3    H222615   5.211   7.307   0.245
 7558TIP3   OH222616   5.908   6.343   3.705
 7558TIP3    H122617   5.842   6.285   3.665
 7558TIP3    H222618   5.951   6.384   3.630
 7559TIP3   OH222619   1.027   3.086   6.404
 7559TIP3    H122620   1.012   3.112   6.495
 7559TIP3    H222621   1.084   3.155   6.370
 7560TIP3   OH222622   3.116   5.866   3.106
 7560TIP3    H122623   3.147   5.830   3.023
 7560TIP3    H222624   3.196   5.888   3.154
 7561TIP3   OH222625   4.484   5.578   2.859
 7561TIP3    H122626   4.442   5.614   2.781
 7561TIP3    H222627   4.566   5.627   2.868
 7562TIP3   OH222628   5.931   6.209   3.923
 7562TIP3    H122629   5.916   6.243   3.834
 7562TIP3    H222630   5.843   6.190   3.956
 7563TIP3   OH222631   6.631   0.589   3.964
 7563TIP3    H122632   6.585   0.574   4.046
 7563TIP3    H222633   6.565   0.574   3.896
 7564TIP3   OH222634   7.167   7.508   5.286
 7564TIP3    H122635   7.095   7.446   5.301
 7564TIP3    H222636   7.237   7.455   5.248
 7565TIP3   OH222637   1.017   0.738   3.659
 7565TIP3    H122638   1.103   0.734   3.618
 7565TIP3    H222639   1.028   0.798   3.733
 7566TIP3   OH222640   7.793   0.939   2.222
 7566TIP3    H122641   7.795   1.034   2.211
 7566TIP3    H222642   7.706   0.914   2.192
 7567TIP3   OH222643   6.971   4.434   0.913
 7567TIP3    H122644   6.930   4.356   0.878
 7567TIP3    H222645   6.998   4.409   1.002
 7568TIP3   OH222646   0.261   1.499   1.813
 7568TIP3    H122647   0.211   1.460   1.885
 7568TIP3    H222648   0.194   1.535   1.755
 7569TIP3   OH222649   4.015   5.670   1.396
 7569TIP3    H122650   3.979   5.620   1.323
 7569TIP3    H222651   4.094   5.621   1.421
 7570TIP3   OH222652   1.940   5.662   6.626
 7570TIP3    H122653   2.035   5.662   6.615
 7570TIP3    H222654   1.914   5.752   6.607
 7571TIP3   OH222655   7.075   7.162   5.810
 7571TIP3    H122656   7.086   7.240   5.755
 7571TIP3    H222657   7.030   7.193   5.888
 7572TIP3   OH222658   2.330   7.748   2.741
 7572TIP3    H122659   2.409   7.771   2.790
 7572TIP3    H222660   2.266   7.725   2.809
 7573TIP3   OH222661   3.023   0.590   1.202
 7573TIP3    H122662   3.053   0.567   1.289
 7573TIP3    H222663   3.102   0.593   1.149
 7574TIP3   OH222664   2.869   0.750   2.895
 7574TIP3    H122665   2.834   0.838   2.881
 7574TIP3    H222666   2.953   0.750   2.850
 7575TIP3   OH222667   3.928   6.534   5.471
 7575TIP3    H122668   3.913   6.626   5.451
 7575TIP3    H222669   3.844   6.492   5.453
 7576TIP3   OH222670   7.956   2.362   1.427
 7576TIP3    H122671   7.951   2.290   1.491
 7576TIP3    H222672   8.046   2.359   1.394
 7577TIP3   OH222673   1.033   3.596   3.974
 7577TIP3    H122674   1.003   3.531   4.037
 7577TIP3    H222675   1.065   3.545   3.899
 7578TIP3   OH222676   3.477   0.214   1.870
 7578TIP3    H122677   3.428   0.178   1.797
 7578TIP3    H222678   3.568   0.190   1.852
 7579TIP3   OH222679   6.572   6.247   6.566
 7579TIP3    H122680   6.658   6.239   6.608
 7579TIP3    H222681   6.512   6.205   6.627
 7580TIP3   OH222682   3.514   6.603   1.407
 7580TIP3    H122683   3.609   6.614   1.407
 7580TIP3    H222684   3.484   6.658   1.335
 7581TIP3   OH222685   2.592   7.698   3.622
 7581TIP3    H122686   2.536   7.755   3.570
 7581TIP3    H222687   2.622   7.630   3.561
 7582TIP3   OH222688   4.039   2.125   4.179
 7582TIP3    H122689   4.002   2.072   4.108
 7582TIP3    H222690   4.128   2.090   4.190
 7583TIP3   OH222691   6.450   5.973   0.484
 7583TIP3    H122692   6.361   5.977   0.521
 7583TIP3    H222693   6.460   6.056   0.438
 7584TIP3   OH222694   1.617   2.331   2.228
 7584TIP3    H122695   1.545   2.306   2.171
 7584TIP3    H222696   1.658   2.406   2.184
 7585TIP3   OH222697   6.815   0.524   1.123
 7585TIP3    H122698   6.740   0.509   1.181
 7585TIP3    H222699   6.809   0.454   1.057
 7586TIP3   OH222700   4.462   2.911   1.339
 7586TIP3    H122701   4.505   2.826   1.325
 7586TIP3    H222702   4.461   2.921   1.434
 7587TIP3   OH222703   6.119   5.551   5.051
 7587TIP3    H122704   6.121   5.623   5.114
 7587TIP3    H222705   6.193   5.568   4.993
 7588TIP3   OH222706   6.969   6.057   1.020
 7588TIP3    H122707   6.944   5.987   0.959
 7588TIP3    H222708   6.942   6.024   1.106
 7589TIP3   OH222709   2.622   6.068   5.845
 7589TIP3    H122710   2.715   6.066   5.867
 7589TIP3    H222711   2.599   6.161   5.845
 7590TIP3   OH222712   6.699   4.871   3.418
 7590TIP3    H122713   6.718   4.890   3.510
 7590TIP3    H222714   6.781   4.887   3.372
 7591TIP3   OH222715   8.242   3.964   2.689
 7591TIP3    H122716   8.256   3.870   2.682
 7591TIP3    H222717   8.153   3.977   2.656
 7592TIP3   OH222718   7.802   5.780   2.754
 7592TIP3    H122719   7.782   5.871   2.734
 7592TIP3    H222720   7.721   5.733   2.735
 7593TIP3   OH222721   3.702   1.521   1.539
 7593TIP3    H122722   3.763   1.448   1.524
 7593TIP3    H222723   3.662   1.501   1.624
 7594TIP3   OH222724   0.050   5.716   6.626
 7594TIP3    H122725   0.133   5.761   6.616
 7594TIP3    H222726  -0.016   5.779   6.597
 7595TIP3   OH222727   2.173   1.033   2.714
 7595TIP3    H122728   2.161   1.121   2.749
 7595TIP3    H222729   2.119   1.031   2.635
 7596TIP3   OH222730   6.804   0.063   1.759
 7596TIP3    H122731   6.712   0.062   1.735
 7596TIP3    H222732   6.844   0.128   1.700
 7597TIP3   OH222733   5.294   2.326   4.848
 7597TIP3    H122734   5.338   2.261   4.902
 7597TIP3    H222735   5.330   2.410   4.877
 7598TIP3   OH222736   6.784   7.233   0.480
 7598TIP3    H122737   6.727   7.245   0.404
 7598TIP3    H222738   6.726   7.204   0.550
 7599TIP3   OH222739   0.876   3.274   6.175
 7599TIP3    H122740   0.941   3.337   6.207
 7599TIP3    H222741   0.825   3.252   6.253
 7600TIP3   OH222742   1.243   7.641   3.089
 7600TIP3    H122743   1.158   7.606   3.115
 7600TIP3    H222744   1.257   7.604   3.001
 7601TIP3   OH222745   6.799   5.834   6.288
 7601TIP3    H122746   6.819   5.835   6.195
 7601TIP3    H222747   6.746   5.912   6.302
 7602TIP3   OH222748   2.773   1.044   1.656
 7602TIP3    H122749   2.808   1.087   1.578
 7602TIP3    H222750   2.679   1.062   1.652
 7603TIP3   OH222751   8.175   0.493   5.892
 7603TIP3    H122752   8.210   0.411   5.858
 7603TIP3    H222753   8.243   0.525   5.951
 7604TIP3   OH222754   3.619   1.048   5.148
 7604TIP3    H122755   3.561   1.061   5.073
 7604TIP3    H222756   3.590   1.114   5.211
 7605TIP3   OH222757   3.592   3.342   0.124
 7605TIP3    H122758   3.515   3.334   0.068
 7605TIP3    H222759   3.568   3.408   0.189
 7606TIP3   OH222760   0.108   1.343   0.667
 7606TIP3    H122761   0.147   1.422   0.705
 7606TIP3    H222762   0.036   1.321   0.727
 7607TIP3   OH222763   5.057   1.512   2.932
 7607TIP3    H122764   4.981   1.520   2.873
 7607TIP3    H222765   5.085   1.421   2.923
 7608TIP3   OH222766   2.492   7.463   1.321
 7608TIP3    H122767   2.422   7.511   1.277
 7608TIP3    H222768   2.562   7.457   1.257
 7609TIP3   OH222769   1.769   2.015   1.519
 7609TIP3    H122770   1.764   2.070   1.441
 7609TIP3    H222771   1.814   1.936   1.489
 7610TIP3   OH222772   3.389   4.976   4.639
 7610TIP3    H122773   3.320   4.995   4.703
 7610TIP3    H222774   3.345   4.927   4.570
 7611TIP3   OH222775   0.449   7.643   5.362
 7611TIP3    H122776   0.374   7.644   5.302
 7611TIP3    H222777   0.441   7.559   5.407
 7612TIP3   OH222778   2.701   3.813   1.185
 7612TIP3    H122779   2.684   3.765   1.104
 7612TIP3    H222780   2.621   3.863   1.201
 7613TIP3   OH222781   6.796   3.341   4.452
 7613TIP3    H122782   6.706   3.321   4.425
 7613TIP3    H222783   6.786   3.380   4.539
 7614TIP3   OH222784   2.933   3.394   2.144
 7614TIP3    H122785   2.964   3.414   2.233
 7614TIP3    H222786   3.010   3.406   2.089
 7615TIP3   OH222787   4.766   4.573   0.895
 7615TIP3    H122788   4.769   4.668   0.883
 7615TIP3    H222789   4.739   4.539   0.809
 7616TIP3   OH222790   7.976   6.968   5.574
 7616TIP3    H122791   8.015   6.899   5.520
 7616TIP3    H222792   7.967   7.043   5.515
 7617TIP3   OH222793   7.567   1.884   1.553
 7617TIP3    H122794   7.605   1.847   1.474
 7617TIP3    H222795   7.613   1.841   1.625
 7618TIP3   OH222796   3.364   4.257   0.264
 7618TIP3    H122797   3.369   4.200   0.187
 7618TIP3    H222798   3.437   4.230   0.319
 7619TIP3   OH222799   1.190   0.675   3.341
 7619TIP3    H122800   1.155   0.745   3.285
 7619TIP3    H222801   1.200   0.601   3.282
 7620TIP3   OH222802   7.844   0.146   1.713
 7620TIP3    H122803   7.816   0.061   1.679
 7620TIP3    H222804   7.939   0.138   1.723
 7621TIP3   OH222805   2.223   6.380   5.244
 7621TIP3    H122806   2.148   6.333   5.208
 7621TIP3    H222807   2.194   6.471   5.249
 7622TIP3   OH222808   6.442   0.368   2.212
 7622TIP3    H122809   6.455   0.292   2.269
 7622TIP3    H222810   6.510   0.430   2.237
 7623TIP3   OH222811   7.321   5.556   5.601
 7623TIP3    H122812   7.330   5.651   5.613
 7623TIP3    H222813   7.226   5.542   5.599
 7624TIP3   OH222814   1.643   0.823   1.123
 7624TIP3    H122815   1.679   0.911   1.120
 7624TIP3    H222816   1.641   0.801   1.216
 7625TIP3   OH222817   2.360   3.189   2.210
 7625TIP3    H122818   2.447   3.182   2.251
 7625TIP3    H222819   2.374   3.162   2.120
 7626TIP3   OH222820   3.175   4.320   4.587
 7626TIP3    H122821   3.152   4.246   4.530
 7626TIP3    H222822   3.140   4.397   4.542
 7627TIP3   OH222823   4.069   5.718   6.497
 7627TIP3    H122824   3.989   5.739   6.545
 7627TIP3    H222825   4.140   5.732   6.560
 7628TIP3   OH222826   3.532   4.882   1.025
 7628TIP3    H122827   3.491   4.850   1.105
 7628TIP3    H222828   3.564   4.969   1.046
 7629TIP3   OH222829   3.271   6.345   0.471
 7629TIP3    H122830   3.249   6.362   0.379
 7629TIP3    H222831   3.311   6.427   0.501
 7630TIP3   OH222832   7.555   4.353   3.276
 7630TIP3    H122833   7.607   4.294   3.222
 7630TIP3    H222834   7.570   4.440   3.239
 7631TIP3   OH222835   0.816   5.123   4.688
 7631TIP3    H122836   0.853   5.122   4.600
 7631TIP3    H222837   0.891   5.108   4.745
 7632TIP3   OH222838   2.763   1.533   4.740
 7632TIP3    H122839   2.835   1.472   4.759
 7632TIP3    H222840   2.784   1.568   4.654
 7633TIP3   OH222841   6.470   5.377   6.252
 7633TIP3    H122842   6.449   5.359   6.344
 7633TIP3    H222843   6.391   5.417   6.216
 7634TIP3   OH222844   7.751   5.257   5.033
 7634TIP3    H122845   7.845   5.256   5.019
 7634TIP3    H222846   7.739   5.294   5.120
 7635TIP3   OH222847   5.121   6.887   6.246
 7635TIP3    H122848   5.069   6.839   6.182
 7635TIP3    H222849   5.069   6.966   6.264
 7636TIP3   OH222850   7.154   7.315   5.548
 7636TIP3    H122851   7.228   7.357   5.593
 7636TIP3    H222852   7.097   7.387   5.523
 7637TIP3   OH222853   7.838   4.743   0.033
 7637TIP3    H122854   7.873   4.656   0.052
 7637TIP3    H222855   7.752   4.726  -0.005
 7638TIP3   OH222856   2.368   1.290   3.781
 7638TIP3    H122857   2.447   1.323   3.823
 7638TIP3    H222858   2.342   1.215   3.834
 7639TIP3   OH222859   4.838   3.423   2.875
 7639TIP3    H122860   4.840   3.329   2.893
 7639TIP3    H222861   4.803   3.429   2.786
 7640TIP3   OH222862   3.625   0.174   0.247
 7640TIP3    H122863   3.698   0.125   0.211
 7640TIP3    H222864   3.595   0.229   0.175
 7641TIP3   OH222865   0.048   6.188   0.225
 7641TIP3    H122866   0.013   6.121   0.167
 7641TIP3    H222867  -0.026   6.245   0.243
 7642TIP3   OH222868   5.481   4.974   4.216
 7642TIP3    H122869   5.486   5.059   4.260
 7642TIP3    H222870   5.389   4.963   4.195
 7643TIP3   OH222871   3.534   0.070   5.786
 7643TIP3    H122872   3.477   0.110   5.852
 7643TIP3    H222873   3.561  -0.013   5.825
 7644TIP3   OH222874   1.017   3.022   5.288
 7644TIP3    H122875   0.940   3.042   5.341
 7644TIP3    H222876   0.983   2.985   5.207
 7645TIP3   OH222877   0.385   0.288   5.471
 7645TIP3    H122878   0.429   0.226   5.530
 7645TIP3    H222879   0.415   0.374   5.501
 7646TIP3   OH222880   1.048   2.820   0.548
 7646TIP3    H122881   1.125   2.782   0.592
 7646TIP3    H222882   1.037   2.906   0.589
 7647TIP3   OH222883   7.118   5.526   1.147
 7647TIP3    H122884   7.149   5.491   1.064
 7647TIP3    H222885   7.098   5.618   1.128
 7648TIP3   OH222886   5.716   4.636   1.201
 7648TIP3    H122887   5.764   4.569   1.153
 7648TIP3    H222888   5.624   4.611   1.194
 7649TIP3   OH222889   6.357   6.052   3.542
 7649TIP3    H122890   6.377   5.998   3.465
 7649TIP3    H222891   6.341   6.139   3.506
 7650TIP3   OH222892   0.901   6.588   0.938
 7650TIP3    H122893   0.990   6.580   0.905
 7650TIP3    H222894   0.849   6.534   0.879
 7651TIP3   OH222895   6.985   2.355   0.100
 7651TIP3    H122896   7.016   2.438   0.061
 7651TIP3    H222897   7.017   2.288   0.040
 7652TIP3   OH222898   2.844   1.259   5.383
 7652TIP3    H122899   2.940   1.253   5.384
 7652TIP3    H222900   2.826   1.349   5.359
 7653TIP3   OH222901   2.391   5.005   4.545
 7653TIP3    H122902   2.437   5.037   4.622
 7653TIP3    H222903   2.420   4.915   4.534
 7654TIP3   OH222904   7.006   4.470   3.231
 7654TIP3    H122905   6.990   4.447   3.322
 7654TIP3    H222906   6.970   4.396   3.181
 7655TIP3   OH222907   3.942   4.499   4.916
 7655TIP3    H122908   3.980   4.586   4.911
 7655TIP3    H222909   4.017   4.440   4.921
 7656TIP3   OH222910   0.129   1.567   0.809
 7656TIP3    H122911   0.084   1.651   0.808
 7656TIP3    H222912   0.097   1.524   0.889
 7657TIP3   OH222913   2.751   5.200   3.943
 7657TIP3    H122914   2.690   5.148   3.891
 7657TIP3    H222915   2.835   5.193   3.896
 7658TIP3   OH222916   1.081   4.602   2.201
 7658TIP3    H122917   1.175   4.617   2.207
 7658TIP3    H222918   1.055   4.575   2.289
 7659TIP3   OH222919   8.239   2.707   2.992
 7659TIP3    H122920   8.221   2.797   2.964
 7659TIP3    H222921   8.277   2.665   2.914
 7660TIP3   OH222922   5.330   1.940   2.665
 7660TIP3    H122923   5.280   1.998   2.722
 7660TIP3    H222924   5.307   1.852   2.694
 7661TIP3   OH222925   5.882   1.544   3.402
 7661TIP3    H122926   5.911   1.505   3.485
 7661TIP3    H222927   5.820   1.480   3.366
 7662TIP3   OH222928   3.278   0.492   3.696
 7662TIP3    H122929   3.258   0.578   3.658
 7662TIP3    H222930   3.194   0.445   3.694
 7663TIP3   OH222931   0.023   1.132   3.705
 7663TIP3    H122932   0.060   1.081   3.777
 7663TIP3    H222933   0.068   1.100   3.627
 7664TIP3   OH222934   6.613   5.939   2.710
 7664TIP3    H122935   6.703   5.956   2.680
 7664TIP3    H222936   6.587   6.020   2.753
 7665TIP3   OH222937   7.478   5.536   6.729
 7665TIP3    H122938   7.482   5.631   6.737
 7665TIP3    H222939   7.490   5.519   6.636
 7666TIP3   OH222940   6.943   2.335   1.032
 7666TIP3    H122941   6.966   2.415   1.080
 7666TIP3    H222942   6.873   2.295   1.083
 7667TIP3   OH222943   3.615   1.145   4.615
 7667TIP3    H122944   3.538   1.089   4.629
 7667TIP3    H222945   3.586   1.232   4.646
 7668TIP3   OH222946   6.032   1.689   3.771
 7668TIP3    H122947   6.025   1.737   3.689
 7668TIP3    H222948   6.123   1.660   3.774
 7669TIP3   OH222949   6.380   1.993   1.869
 7669TIP3    H122950   6.398   2.017   1.959
 7669TIP3    H222951   6.320   2.060   1.837
 7670TIP3   OH222952   8.081   3.953   6.570
 7670TIP3    H122953   8.021   3.973   6.642
 7670TIP3    H222954   8.039   3.881   6.523
 7671TIP3   OH222955   7.460   5.417   0.479
 7671TIP3    H122956   7.492   5.477   0.412
 7671TIP3    H222957   7.443   5.335   0.433
 7672TIP3   OH222958   0.186  -0.010   2.128
 7672TIP3    H122959   0.158   0.082   2.132
 7672TIP3    H222960   0.167  -0.037   2.039
 7673TIP3   OH222961   4.846   1.387   5.438
 7673TIP3    H122962   4.772   1.447   5.442
 7673TIP3    H222963   4.882   1.400   5.350
 7674TIP3   OH222964   3.852   6.172   2.404
 7674TIP3    H122965   3.845   6.258   2.444
 7674TIP3    H222966   3.878   6.114   2.476
 7675TIP3   OH222967   4.104   4.174   5.286
 7675TIP3    H122968   4.035   4.194   5.223
 7675TIP3    H222969   4.085   4.231   5.360
 7676TIP3   OH222970   4.953   6.848   2.517
 7676TIP3    H122971   4.980   6.773   2.463
 7676TIP3    H222972   4.979   6.824   2.606
 7677TIP3   OH222973   2.984   3.271   6.542
 7677TIP3    H122974   2.928   3.262   6.465
 7677TIP3    H222975   2.994   3.366   6.553
 7678TIP3   OH222976   1.367   0.664   2.933
 7678TIP3    H122977   1.400   0.753   2.920
 7678TIP3    H222978   1.273   0.671   2.915
 7679TIP3   OH222979   3.014   2.448   4.557
 7679TIP3    H122980   3.066   2.487   4.627
 7679TIP3    H222981   3.073   2.444   4.482
 7680TIP3   OH222982   7.257   2.399   0.702
 7680TIP3    H122983   7.342   2.385   0.743
 7680TIP3    H222984   7.259   2.345   0.623
 7681TIP3   OH222985   7.383   2.856   1.100
 7681TIP3    H122986   7.459   2.873   1.156
 7681TIP3    H222987   7.362   2.764   1.114
 7682TIP3   OH222988   7.925   2.438   0.532
 7682TIP3    H122989   7.901   2.379   0.604
 7682TIP3    H222990   7.993   2.494   0.568
 7683TIP3   OH222991   7.289   6.058   2.392
 7683TIP3    H122992   7.348   6.015   2.454
 7683TIP3    H222993   7.202   6.049   2.430
 7684TIP3   OH222994   1.766   4.964   3.864
 7684TIP3    H122995   1.779   5.037   3.925
 7684TIP3    H222996   1.686   4.985   3.817
 7685TIP3   OH222997   4.826   3.498   4.343
 7685TIP3    H122998   4.762   3.505   4.272
 7685TIP3    H222999   4.779   3.450   4.412
 7686TIP3   OH223000   1.629   1.741   0.673
 7686TIP3    H123001   1.688   1.680   0.718
 7686TIP3    H223002   1.576   1.684   0.616
 7687TIP3   OH223003   7.760   1.812   1.016
 7687TIP3    H123004   7.733   1.880   1.077
 7687TIP3    H223005   7.680   1.763   0.998
 7688TIP3   OH223006   3.347   3.841   6.484
 7688TIP3    H123007   3.294   3.921   6.488
 7688TIP3    H223008   3.311   3.792   6.410
 7689TIP3   OH223009   2.198   2.042   6.583
 7689TIP3    H123010   2.134   2.010   6.519
 7689TIP3    H223011   2.201   1.973   6.650
 7690TIP3   OH223012   4.107   6.139   0.106
 7690TIP3    H123013   4.098   6.190   0.026
 7690TIP3    H223014   4.201   6.143   0.126
 7691TIP3   OH223015   6.113   2.889   6.382
 7691TIP3    H123016   6.182   2.886   6.316
 7691TIP3    H223017   6.041   2.936   6.339
 7692TIP3   OH223018   2.161   4.353   3.692
 7692TIP3    H123019   2.127   4.434   3.731
 7692TIP3    H223020   2.093   4.288   3.709
 7693TIP3   OH223021   5.825   4.229   3.043
 7693TIP3    H123022   5.737   4.232   3.079
 7693TIP3    H223023   5.852   4.137   3.049
 7694TIP3   OH223024   1.891   5.328   3.828
 7694TIP3    H123025   1.800   5.313   3.801
 7694TIP3    H223026   1.920   5.400   3.771
 7695TIP3   OH223027   1.534   7.629   4.230
 7695TIP3    H123028   1.581   7.574   4.292
 7695TIP3    H223029   1.578   7.714   4.234
 7696TIP3   OH223030   5.018   7.539   2.035
 7696TIP3    H123031   4.957   7.594   1.985
 7696TIP3    H223032   5.102   7.552   1.993
 7697TIP3   OH223033   1.715   3.618   2.429
 7697TIP3    H123034   1.720   3.522   2.428
 7697TIP3    H223035   1.785   3.647   2.372
 7698TIP3   OH223036   3.423   4.751   4.130
 7698TIP3    H123037   3.497   4.692   4.142
 7698TIP3    H223038   3.362   4.727   4.200
 7699TIP3   OH223039   1.549   5.213   3.363
 7699TIP3    H123040   1.634   5.177   3.338
 7699TIP3    H223041   1.518   5.258   3.285
 7700TIP3   OH223042   1.608   3.583   2.120
 7700TIP3    H123043   1.615   3.543   2.034
 7700TIP3    H223044   1.526   3.550   2.156
 7701TIP3   OH223045   3.581   7.275   5.309
 7701TIP3    H123046   3.502   7.243   5.266
 7701TIP3    H223047   3.553   7.296   5.398
 7702TIP3   OH223048   0.204   0.359   0.962
 7702TIP3    H123049   0.250   0.358   0.878
 7702TIP3    H223050   0.199   0.267   0.988
 7703TIP3   OH223051   0.338   3.870   2.040
 7703TIP3    H123052   0.424   3.906   2.062
 7703TIP3    H223053   0.313   3.913   1.958
 7704TIP3   OH223054   0.737   4.425   1.029
 7704TIP3    H123055   0.792   4.495   1.064
 7704TIP3    H223056   0.759   4.422   0.936
 7705TIP3   OH223057   1.819   4.327   1.537
 7705TIP3    H123058   1.764   4.281   1.601
 7705TIP3    H223059   1.908   4.307   1.564
 7706TIP3   OH223060   0.241   7.315   0.394
 7706TIP3    H123061   0.268   7.405   0.415
 7706TIP3    H223062   0.309   7.283   0.336
 7707TIP3   OH223063   0.753   0.895   0.368
 7707TIP3    H123064   0.721   0.855   0.287
 7707TIP3    H223065   0.811   0.965   0.339
 7708TIP3   OH223066   3.796   0.528   1.329
 7708TIP3    H123067   3.871   0.561   1.279
 7708TIP3    H223068   3.832   0.460   1.385
 7709TIP3   OH223069   5.973   0.072   6.371
 7709TIP3    H123070   5.978   0.132   6.445
 7709TIP3    H223071   5.930  -0.005   6.406
 7710TIP3   OH223072   1.081   7.629   3.662
 7710TIP3    H123073   1.020   7.702   3.673
 7710TIP3    H223074   1.168   7.669   3.666
 7711TIP3   OH223075   8.140   0.463   2.124
 7711TIP3    H123076   8.220   0.515   2.116
 7711TIP3    H223077   8.112   0.475   2.214
 7712TIP3   OH223078   4.419   2.647   0.807
 7712TIP3    H123079   4.472   2.670   0.883
 7712TIP3    H223080   4.338   2.612   0.844
 7713TIP3   OH223081   3.197   5.271   1.215
 7713TIP3    H123082   3.224   5.297   1.127
 7713TIP3    H223083   3.195   5.175   1.213
 7714TIP3   OH223084   5.245   7.483   4.094
 7714TIP3    H123085   5.315   7.549   4.101
 7714TIP3    H223086   5.214   7.490   4.004
 7715TIP3   OH223087   1.131   0.879   3.170
 7715TIP3    H123088   1.114   0.963   3.213
 7715TIP3    H223089   1.081   0.884   3.088
 7716TIP3   OH223090   4.023   0.432   6.289
 7716TIP3    H123091   4.112   0.447   6.258
 7716TIP3    H223092   3.986   0.520   6.297
 7717TIP3   OH223093   1.693   2.969   6.209
 7717TIP3    H123094   1.612   2.980   6.159
 7717TIP3    H223095   1.726   2.883   6.183
 7718TIP3   OH223096   4.449   6.909   6.063
 7718TIP3    H123097   4.452   6.912   6.158
 7718TIP3    H223098   4.433   6.999   6.036
 7719TIP3   OH223099   3.521   0.870   2.329
 7719TIP3    H123100   3.523   0.963   2.352
 7719TIP3    H223101   3.604   0.855   2.284
 7720TIP3   OH223102   6.099   7.551   4.951
 7720TIP3    H123103   6.120   7.521   4.862
 7720TIP3    H223104   6.052   7.633   4.938
 7721TIP3   OH223105   1.455   5.183   2.362
 7721TIP3    H123106   1.481   5.266   2.321
 7721TIP3    H223107   1.483   5.116   2.301
 7722TIP3   OH223108   4.291   3.011   5.891
 7722TIP3    H123109   4.298   2.925   5.850
 7722TIP3    H223110   4.201   3.039   5.876
 7723TIP3   OH223111   5.416   3.711   5.200
 7723TIP3    H123112   5.468   3.777   5.154
 7723TIP3    H223113   5.347   3.687   5.139
 7724TIP3   OH223114   1.670   0.410   5.648
 7724TIP3    H123115   1.575   0.417   5.656
 7724TIP3    H223116   1.689   0.438   5.558
 7725TIP3   OH223117   2.714   4.656   5.901
 7725TIP3    H123118   2.647   4.667   5.969
 7725TIP3    H223119   2.735   4.745   5.875
 7726TIP3   OH223120   6.709   3.051   4.903
 7726TIP3    H123121   6.757   3.132   4.918
 7726TIP3    H223122   6.617   3.077   4.907
 7727TIP3   OH223123   5.254   2.414   6.277
 7727TIP3    H123124   5.197   2.459   6.339
 7727TIP3    H223125   5.206   2.334   6.253
 7728TIP3   OH223126   3.808   3.279   1.526
 7728TIP3    H123127   3.895   3.292   1.563
 7728TIP3    H223128   3.750   3.331   1.582
 7729TIP3   OH223129   7.510   1.377   3.723
 7729TIP3    H123130   7.462   1.453   3.690
 7729TIP3    H223131   7.519   1.393   3.817
 7730TIP3   OH223132   4.533   6.068   2.939
 7730TIP3    H123133   4.613   6.021   2.962
 7730TIP3    H223134   4.564   6.148   2.896
 7731TIP3   OH223135   6.042   3.198   4.217
 7731TIP3    H123136   6.116   3.202   4.156
 7731TIP3    H223137   5.965   3.193   4.160
 7732TIP3   OH223138   5.388   3.430   4.303
 7732TIP3    H123139   5.382   3.361   4.369
 7732TIP3    H223140   5.342   3.504   4.341
 7733TIP3   OH223141   2.348   7.222   2.266
 7733TIP3    H123142   2.317   7.150   2.211
 7733TIP3    H223143   2.354   7.297   2.206
 7734TIP3   OH223144   4.477   0.753   4.406
 7734TIP3    H123145   4.420   0.676   4.409
 7734TIP3    H223146   4.442   0.807   4.336
 7735TIP3   OH223147   8.092   5.369   5.670
 7735TIP3    H123148   8.070   5.457   5.639
 7735TIP3    H223149   8.012   5.318   5.656
 7736TIP3   OH223150   6.447   7.148   1.150
 7736TIP3    H123151   6.400   7.075   1.109
 7736TIP3    H223152   6.528   7.156   1.100
 7737TIP3   OH223153   7.755   2.557   3.425
 7737TIP3    H123154   7.698   2.563   3.348
 7737TIP3    H223155   7.699   2.583   3.498
 7738TIP3   OH223156   0.553   5.343   3.272
 7738TIP3    H123157   0.567   5.438   3.269
 7738TIP3    H223158   0.538   5.324   3.365
 7739TIP3   OH223159   6.358   6.635   2.179
 7739TIP3    H123160   6.432   6.626   2.240
 7739TIP3    H223161   6.305   6.705   2.216
 7740TIP3   OH223162   2.817   4.298   0.500
 7740TIP3    H123163   2.795   4.210   0.471
 7740TIP3    H223164   2.833   4.347   0.419
 7741TIP3   OH223165   5.212   5.443   3.829
 7741TIP3    H123166   5.288   5.433   3.885
 7741TIP3    H223167   5.221   5.375   3.763
 7742TIP3   OH223168   4.741   0.763   0.455
 7742TIP3    H123169   4.676   0.803   0.512
 7742TIP3    H223170   4.739   0.670   0.477
 7743TIP3   OH223171   5.839   4.441   6.089
 7743TIP3    H123172   5.841   4.521   6.037
 7743TIP3    H223173   5.905   4.456   6.157
 7744TIP3   OH223174   3.974   7.588   4.107
 7744TIP3    H123175   3.992   7.563   4.198
 7744TIP3    H223176   3.979   7.506   4.058
 7745TIP3   OH223177   4.652   2.785   2.834
 7745TIP3    H123178   4.692   2.705   2.868
 7745TIP3    H223179   4.596   2.755   2.763
 7746TIP3   OH223180   5.177   3.560   3.440
 7746TIP3    H123181   5.148   3.491   3.500
 7746TIP3    H223182   5.128   3.545   3.360
 7747TIP3   OH223183   6.718   3.080   2.807
 7747TIP3    H123184   6.777   3.016   2.847
 7747TIP3    H223185   6.638   3.031   2.789
 7748TIP3   OH223186   5.265   2.118   4.694
 7748TIP3    H123187   5.293   2.201   4.732
 7748TIP3    H223188   5.283   2.053   4.762
 7749TIP3   OH223189   5.445   7.304   1.199
 7749TIP3    H123190   5.493   7.346   1.127
 7749TIP3    H223191   5.466   7.211   1.191
 7750TIP3   OH223192   5.102   4.185   3.314
 7750TIP3    H123193   5.172   4.246   3.292
 7750TIP3    H223194   5.035   4.239   3.356
 7751TIP3   OH223195   0.165   3.540   0.366
 7751TIP3    H123196   0.074   3.568   0.380
 7751TIP3    H223197   0.191   3.586   0.286
 7752TIP3   OH223198   6.158   6.344   6.298
 7752TIP3    H123199   6.246   6.371   6.271
 7752TIP3    H223200   6.172   6.270   6.356
 7753TIP3   OH223201   2.066   5.521   4.690
 7753TIP3    H123202   2.138   5.582   4.679
 7753TIP3    H223203   2.035   5.502   4.602
 7754TIP3   OH223204   4.934   5.439   5.635
 7754TIP3    H123205   4.960   5.353   5.600
 7754TIP3    H223206   4.898   5.485   5.559
 7755TIP3   OH223207   2.223   2.895   3.361
 7755TIP3    H123208   2.243   2.824   3.300
 7755TIP3    H223209   2.193   2.850   3.440
 7756TIP3   OH223210   7.773   1.304   1.016
 7756TIP3    H123211   7.705   1.311   0.949
 7756TIP3    H223212   7.855   1.308   0.967
 7757TIP3   OH223213   1.301   3.081   4.387
 7757TIP3    H123214   1.383   3.057   4.432
 7757TIP3    H223215   1.309   3.175   4.373
 7758TIP3   OH223216   2.046   4.883   3.206
 7758TIP3    H123217   1.973   4.884   3.268
 7758TIP3    H223218   2.018   4.823   3.137
 7759TIP3   OH223219   1.358   6.928   5.648
 7759TIP3    H123220   1.389   6.966   5.730
 7759TIP3    H223221   1.310   6.849   5.674
 7760TIP3   OH223222   6.107   4.274   2.154
 7760TIP3    H123223   6.133   4.216   2.082
 7760TIP3    H223224   6.015   4.293   2.138
 7761TIP3   OH223225   4.861   6.853   5.539
 7761TIP3    H123226   4.929   6.785   5.538
 7761TIP3    H223227   4.862   6.890   5.451
 7762TIP3   OH223228   2.603   7.269   5.186
 7762TIP3    H123229   2.601   7.212   5.109
 7762TIP3    H223230   2.629   7.355   5.153
 7763TIP3   OH223231   7.612   6.763   5.158
 7763TIP3    H123232   7.696   6.803   5.177
 7763TIP3    H223233   7.599   6.699   5.228
 7764TIP3   OH223234   6.535   1.557   4.095
 7764TIP3    H123235   6.526   1.613   4.018
 7764TIP3    H223236   6.586   1.482   4.065
 7765TIP3   OH223237   1.565   3.189   1.970
 7765TIP3    H123238   1.571   3.284   1.971
 7765TIP3    H223239   1.653   3.160   1.944
 7766TIP3   OH223240   4.365   2.512   5.904
 7766TIP3    H123241   4.334   2.422   5.889
 7766TIP3    H223242   4.423   2.504   5.980
 7767TIP3   OH223243   5.334   4.807   0.174
 7767TIP3    H123244   5.357   4.881   0.230
 7767TIP3    H223245   5.366   4.833   0.087
 7768TIP3   OH223246   1.515   5.047   0.756
 7768TIP3    H123247   1.536   5.125   0.808
 7768TIP3    H223248   1.514   4.975   0.820
 7769TIP3   OH223249   4.292   7.706   2.446
 7769TIP3    H123250   4.310   7.726   2.354
 7769TIP3    H223251   4.223   7.639   2.443
 7770TIP3   OH223252   7.409   6.681   3.358
 7770TIP3    H123253   7.369   6.739   3.292
 7770TIP3    H223254   7.402   6.731   3.440
 7771TIP3   OH223255   6.794   0.371   4.739
 7771TIP3    H123256   6.730   0.322   4.791
 7771TIP3    H223257   6.751   0.455   4.722
 7772TIP3   OH223258   4.668   5.287   4.616
 7772TIP3    H123259   4.707   5.252   4.696
 7772TIP3    H223260   4.682   5.381   4.621
 7773TIP3   OH223261   8.008   5.211   2.818
 7773TIP3    H123262   8.059   5.226   2.898
 7773TIP3    H223263   8.069   5.232   2.747
 7774TIP3   OH223264   6.087   5.908   5.577
 7774TIP3    H123265   6.072   5.881   5.487
 7774TIP3    H223266   6.002   5.940   5.607
 7775TIP3   OH223267   1.855   0.015   3.541
 7775TIP3    H123268   1.931   0.057   3.581
 7775TIP3    H223269   1.812   0.086   3.494
 7776TIP3   OH223270   0.670   6.178   4.158
 7776TIP3    H123271   0.751   6.192   4.208
 7776TIP3    H223272   0.614   6.128   4.217
 7777TIP3   OH223273   2.089   4.875   0.681
 7777TIP3    H123274   2.083   4.821   0.602
 7777TIP3    H223275   2.165   4.842   0.728
 7778TIP3   OH223276   6.308   1.049   5.222
 7778TIP3    H123277   6.402   1.060   5.240
 7778TIP3    H223278   6.270   1.134   5.245
 7779TIP3   OH223279   3.683   5.596   1.479
 7779TIP3    H123280   3.713   5.581   1.390
 7779TIP3    H223281   3.722   5.680   1.504
 7780TIP3   OH223282   2.144   1.650   5.830
 7780TIP3    H123283   2.239   1.640   5.831
 7780TIP3    H223284   2.112   1.574   5.783
 7781TIP3   OH223285   6.667   0.315   1.622
 7781TIP3    H123286   6.751   0.345   1.586
 7781TIP3    H223287   6.611   0.301   1.545
 7782TIP3   OH223288   4.953   5.803   4.841
 7782TIP3    H123289   4.930   5.713   4.863
 7782TIP3    H223290   4.918   5.816   4.753
 7783TIP3   OH223291   1.154   3.956   3.785
 7783TIP3    H123292   1.193   3.882   3.831
 7783TIP3    H223293   1.158   4.028   3.849
 7784TIP3   OH223294   4.474   5.302   0.526
 7784TIP3    H123295   4.383   5.314   0.553
 7784TIP3    H223296   4.525   5.359   0.583
 7785TIP3   OH223297   3.129   2.262   3.719
 7785TIP3    H123298   3.038   2.234   3.735
 7785TIP3    H223299   3.174   2.181   3.694
 7786TIP3   OH223300   7.924   2.356   3.301
 7786TIP3    H123301   8.009   2.383   3.266
 7786TIP3    H223302   7.890   2.434   3.345
 7787TIP3   OH223303   3.153   2.463   1.351
 7787TIP3    H123304   3.222   2.477   1.416
 7787TIP3    H223305   3.141   2.549   1.310
 7788TIP3   OH223306   5.750   4.291   5.152
 7788TIP3    H123307   5.790   4.378   5.151
 7788TIP3    H223308   5.713   4.282   5.240
 7789TIP3   OH223309   4.178   4.505   3.266
 7789TIP3    H123310   4.164   4.593   3.300
 7789TIP3    H223311   4.113   4.451   3.311
 7790TIP3   OH223312   5.655   3.623   5.789
 7790TIP3    H123313   5.722   3.597   5.726
 7790TIP3    H223314   5.699   3.621   5.874
 7791TIP3   OH223315   2.760   3.358   1.320
 7791TIP3    H123316   2.765   3.431   1.258
 7791TIP3    H223317   2.734   3.283   1.267
 7792TIP3   OH223318   6.178   2.993   2.965
 7792TIP3    H123319   6.106   3.044   2.927
 7792TIP3    H223320   6.176   2.910   2.917
 7793TIP3   OH223321   3.656   7.201   2.518
 7793TIP3    H123322   3.650   7.206   2.423
 7793TIP3    H223323   3.744   7.166   2.534
 7794TIP3   OH223324   1.995   2.212   4.649
 7794TIP3    H123325   2.012   2.269   4.573
 7794TIP3    H223326   2.039   2.130   4.627
 7795TIP3   OH223327   5.066   5.988   6.566
 7795TIP3    H123328   5.156   6.016   6.582
 7795TIP3    H223329   5.034   5.960   6.651
 7796TIP3   OH223330   0.519   3.199   3.217
 7796TIP3    H123331   0.436   3.240   3.241
 7796TIP3    H223332   0.559   3.175   3.301
 7797TIP3   OH223333   7.970   7.401   6.064
 7797TIP3    H123334   8.017   7.447   6.134
 7797TIP3    H223335   8.039   7.377   6.002
 7798TIP3   OH223336   2.366   0.364   0.918
 7798TIP3    H123337   2.367   0.271   0.942
 7798TIP3    H223338   2.358   0.364   0.822
 7799TIP3   OH223339   1.602   2.311   1.824
 7799TIP3    H123340   1.568   2.223   1.839
 7799TIP3    H223341   1.662   2.301   1.749
 7800TIP3   OH223342   3.852   3.590   3.804
 7800TIP3    H123343   3.928   3.583   3.860
 7800TIP3    H223344   3.778   3.570   3.861
 7801TIP3   OH223345   3.774   7.169   4.298
 7801TIP3    H123346   3.709   7.205   4.236
 7801TIP3    H223347   3.842   7.132   4.242
 7802TIP3   OH223348   7.049   1.525   0.654
 7802TIP3    H123349   7.054   1.508   0.560
 7802TIP3    H223350   7.059   1.620   0.662
 7803TIP3   OH223351   6.733   5.814   3.085
 7803TIP3    H123352   6.798   5.823   3.015
 7803TIP3    H223353   6.666   5.756   3.047
 7804TIP3   OH223354   4.847   6.792   4.204
 7804TIP3    H123355   4.851   6.746   4.120
 7804TIP3    H223356   4.865   6.883   4.182
 7805TIP3   OH223357   5.410   4.894   5.848
 7805TIP3    H123358   5.355   4.957   5.894
 7805TIP3    H223359   5.362   4.874   5.768
 7806TIP3   OH223360   2.872   2.863   3.442
 7806TIP3    H123361   2.848   2.936   3.500
 7806TIP3    H223362   2.825   2.788   3.477
 7807TIP3   OH223363   8.179   1.336   1.181
 7807TIP3    H123364   8.191   1.388   1.102
 7807TIP3    H223365   8.125   1.391   1.238
 7808TIP3   OH223366   0.830   4.247   4.891
 7808TIP3    H123367   0.745   4.268   4.930
 7808TIP3    H223368   0.872   4.332   4.876
 7809TIP3   OH223369   1.923   6.320   5.289
 7809TIP3    H123370   1.911   6.413   5.303
 7809TIP3    H223371   1.896   6.280   5.372
 7810TIP3   OH223372   2.008   4.450   0.380
 7810TIP3    H123373   1.997   4.481   0.290
 7810TIP3    H223374   2.089   4.492   0.410
 7811TIP3   OH223375   6.374   0.828   2.089
 7811TIP3    H123376   6.463   0.798   2.071
 7811TIP3    H223377   6.335   0.757   2.141
 7812TIP3   OH223378   8.185   5.849   0.833
 7812TIP3    H123379   8.140   5.933   0.835
 7812TIP3    H223380   8.276   5.871   0.811
 7813TIP3   OH223381   6.112   5.275   1.373
 7813TIP3    H123382   6.020   5.249   1.364
 7813TIP3    H223383   6.154   5.198   1.413
 7814TIP3   OH223384   0.307   1.330   6.500
 7814TIP3    H123385   0.398   1.321   6.470
 7814TIP3    H223386   0.264   1.250   6.471
 7815TIP3   OH223387   4.447   0.249   0.846
 7815TIP3    H123388   4.499   0.328   0.859
 7815TIP3    H223389   4.357   0.281   0.835
 7816TIP3   OH223390   1.569   2.350   6.294
 7816TIP3    H123391   1.520   2.268   6.288
 7816TIP3    H223392   1.661   2.323   6.291
 7817TIP3   OH223393   1.509   5.715   3.869
 7817TIP3    H123394   1.595   5.719   3.828
 7817TIP3    H223395   1.524   5.743   3.959
 7818TIP3   OH223396   6.856   2.268   4.692
 7818TIP3    H123397   6.829   2.324   4.765
 7818TIP3    H223398   6.947   2.293   4.675
 7819TIP3   OH223399   2.507   0.049   4.277
 7819TIP3    H123400   2.491   0.017   4.188
 7819TIP3    H223401   2.508   0.145   4.267
 7820TIP3   OH223402   0.791   4.022   4.419
 7820TIP3    H123403   0.762   4.039   4.329
 7820TIP3    H223404   0.803   4.109   4.457
 7821TIP3   OH223405   2.747   6.490   6.457
 7821TIP3    H123406   2.683   6.444   6.403
 7821TIP3    H223407   2.781   6.558   6.399
 7822TIP3   OH223408   2.203   6.683   6.082
 7822TIP3    H123409   2.274   6.685   6.146
 7822TIP3    H223410   2.156   6.601   6.101
 7823TIP3   OH223411   4.868   5.861   5.296
 7823TIP3    H123412   4.835   5.943   5.259
 7823TIP3    H223413   4.880   5.803   5.221
 7824TIP3   OH223414   6.184   2.692   4.118
 7824TIP3    H123415   6.217   2.641   4.044
 7824TIP3    H223416   6.164   2.778   4.081
 7825TIP3   OH223417   0.629   6.147   3.895
 7825TIP3    H123418   0.640   6.130   3.989
 7825TIP3    H223419   0.716   6.171   3.865
 7826TIP3   OH223420   7.759   5.761   4.509
 7826TIP3    H123421   7.815   5.786   4.435
 7826TIP3    H223422   7.742   5.843   4.555
 7827TIP3   OH223423   8.240   4.208   2.013
 7827TIP3    H123424   8.275   4.279   2.067
 7827TIP3    H223425   8.152   4.193   2.048
 7828TIP3   OH223426   2.705   3.885   4.423
 7828TIP3    H123427   2.658   3.842   4.352
 7828TIP3    H223428   2.797   3.884   4.394
 7829TIP3   OH223429   3.926   0.237   3.452
 7829TIP3    H123430   3.973   0.153   3.459
 7829TIP3    H223431   3.969   0.293   3.517
 7830TIP3   OH223432   5.058   2.801   6.211
 7830TIP3    H123433   5.136   2.759   6.248
 7830TIP3    H223434   5.068   2.894   6.232
 7831TIP3   OH223435   3.116   1.906   0.708
 7831TIP3    H123436   3.134   1.813   0.691
 7831TIP3    H223437   3.020   1.913   0.699
 7832TIP3   OH223438   2.983   4.951   3.259
 7832TIP3    H123439   3.042   4.957   3.184
 7832TIP3    H223440   3.035   4.909   3.328
 7833TIP3   OH223441   6.715   5.209   6.362
 7833TIP3    H123442   6.761   5.179   6.284
 7833TIP3    H223443   6.743   5.149   6.431
 7834TIP3   OH223444   1.610   5.925   0.062
 7834TIP3    H123445   1.577   5.979   0.134
 7834TIP3    H223446   1.548   5.941  -0.009
 7835TIP3   OH223447   7.882   3.202   5.429
 7835TIP3    H123448   7.896   3.202   5.524
 7835TIP3    H223449   7.939   3.272   5.396
 7836TIP3   OH223450   1.098   6.717   2.311
 7836TIP3    H123451   1.006   6.719   2.339
 7836TIP3    H223452   1.102   6.776   2.236
 7837TIP3   OH223453   4.304   3.782   2.826
 7837TIP3    H123454   4.223   3.830   2.846
 7837TIP3    H223455   4.307   3.713   2.892
 7838TIP3   OH223456   7.494   4.629   1.839
 7838TIP3    H123457   7.442   4.679   1.776
 7838TIP3    H223458   7.570   4.601   1.790
 7839TIP3   OH223459   6.644   5.187   2.430
 7839TIP3    H123460   6.599   5.163   2.511
 7839TIP3    H223461   6.574   5.203   2.367
 7840TIP3   OH223462   7.240   0.144   2.888
 7840TIP3    H123463   7.157   0.176   2.924
 7840TIP3    H223464   7.216   0.064   2.841
 7841TIP3   OH223465   2.331   3.737   4.352
 7841TIP3    H123466   2.336   3.816   4.299
 7841TIP3    H223467   2.243   3.704   4.337
 7842TIP3   OH223468   0.672   3.599   5.457
 7842TIP3    H123469   0.628   3.596   5.542
 7842TIP3    H223470   0.765   3.605   5.479
 7843TIP3   OH223471   1.007   2.397   6.586
 7843TIP3    H123472   0.929   2.450   6.577
 7843TIP3    H223473   1.067   2.429   6.519
 7844TIP3   OH223474   6.154   1.229   4.173
 7844TIP3    H123475   6.144   1.301   4.236
 7844TIP3    H223476   6.171   1.152   4.226
 7845TIP3   OH223477   6.227   1.118   1.008
 7845TIP3    H123478   6.227   1.142   1.101
 7845TIP3    H223479   6.315   1.084   0.992
 7846TIP3   OH223480   7.308   1.206   1.845
 7846TIP3    H123481   7.241   1.166   1.902
 7846TIP3    H223482   7.259   1.248   1.775
 7847TIP3   OH223483   4.853   6.611   1.595
 7847TIP3    H123484   4.911   6.663   1.540
 7847TIP3    H223485   4.911   6.563   1.654
 7848TIP3   OH223486   3.597   2.551   1.278
 7848TIP3    H123487   3.561   2.473   1.319
 7848TIP3    H223488   3.677   2.520   1.234
 7849TIP3   OH223489   5.098   7.604   4.779
 7849TIP3    H123490   5.092   7.527   4.835
 7849TIP3    H223491   5.165   7.658   4.820
 7850TIP3   OH223492   2.854   5.020   1.698
 7850TIP3    H123493   2.949   5.022   1.685
 7850TIP3    H223494   2.818   5.006   1.610
 7851TIP3   OH223495   2.264   7.323   4.850
 7851TIP3    H123496   2.307   7.368   4.923
 7851TIP3    H223497   2.298   7.367   4.771
 7852TIP3   OH223498   2.403   5.335   4.936
 7852TIP3    H123499   2.311   5.343   4.960
 7852TIP3    H223500   2.439   5.423   4.950
 7853TIP3   OH223501   0.411   6.604   3.940
 7853TIP3    H123502   0.438   6.528   3.993
 7853TIP3    H223503   0.493   6.639   3.905
 7854TIP3   OH223504   0.089   6.871   5.442
 7854TIP3    H123505   0.081   6.809   5.369
 7854TIP3    H223506   0.183   6.878   5.458
 7855TIP3   OH223507   0.731   5.619   4.103
 7855TIP3    H123508   0.709   5.610   4.195
 7855TIP3    H223509   0.648   5.641   4.060
 7856TIP3   OH223510   2.833   5.139   4.816
 7856TIP3    H123511   2.780   5.183   4.882
 7856TIP3    H223512   2.843   5.050   4.848
 7857TIP3   OH223513   1.507   4.609   1.001
 7857TIP3    H123514   1.599   4.596   1.024
 7857TIP3    H223515   1.486   4.696   1.035
 7858TIP3   OH223516   0.785   3.765   3.883
 7858TIP3    H123517   0.822   3.685   3.845
 7858TIP3    H223518   0.793   3.751   3.978
 7859TIP3   OH223519   4.519   6.634   2.118
 7859TIP3    H123520   4.536   6.728   2.107
 7859TIP3    H223521   4.495   6.603   2.031
 7860TIP3   OH223522   0.714   5.178   5.395
 7860TIP3    H123523   0.665   5.229   5.330
 7860TIP3    H223524   0.717   5.236   5.472
 7861TIP3   OH223525   3.665   3.441   2.875
 7861TIP3    H123526   3.676   3.498   2.951
 7861TIP3    H223527   3.580   3.466   2.838
 7862TIP3   OH223528   7.155   3.270   1.103
 7862TIP3    H123529   7.097   3.336   1.142
 7862TIP3    H223530   7.105   3.188   1.109
 7863TIP3   OH223531   5.803   6.467   5.496
 7863TIP3    H123532   5.789   6.550   5.451
 7863TIP3    H223533   5.796   6.400   5.428
 7864TIP3   OH223534   2.020   0.710   6.010
 7864TIP3    H123535   2.043   0.623   5.977
 7864TIP3    H223536   2.070   0.770   5.955
 7865TIP3   OH223537   5.817   5.737   0.577
 7865TIP3    H123538   5.764   5.694   0.511
 7865TIP3    H223539   5.817   5.676   0.651
 7866TIP3   OH223540   1.968   3.756   5.669
 7866TIP3    H123541   2.044   3.772   5.725
 7866TIP3    H223542   1.893   3.757   5.729
 7867TIP3   OH223543   0.622   1.737   4.530
 7867TIP3    H123544   0.709   1.759   4.563
 7867TIP3    H223545   0.596   1.658   4.579
 7868TIP3   OH223546   2.785   2.876   5.224
 7868TIP3    H123547   2.848   2.881   5.297
 7868TIP3    H223548   2.753   2.786   5.226
 7869TIP3   OH223549   6.671   0.130   3.901
 7869TIP3    H123550   6.714   0.137   3.816
 7869TIP3    H223551   6.626   0.214   3.913
 7870TIP3   OH223552   1.115   4.208   2.389
 7870TIP3    H123553   1.079   4.285   2.433
 7870TIP3    H223554   1.082   4.214   2.300
 7871TIP3   OH223555   2.791   0.100   5.348
 7871TIP3    H123556   2.830   0.145   5.423
 7871TIP3    H223557   2.739   0.167   5.304
 7872TIP3   OH223558   3.963   0.463   3.892
 7872TIP3    H123559   3.918   0.426   3.968
 7872TIP3    H223560   3.895   0.476   3.827
 7873TIP3   OH223561   7.180   2.802   3.744
 7873TIP3    H123562   7.127   2.769   3.816
 7873TIP3    H223563   7.254   2.742   3.738
 7874TIP3   OH223564   5.063   1.861   6.155
 7874TIP3    H123565   5.151   1.840   6.185
 7874TIP3    H223566   5.041   1.792   6.093
 7875TIP3   OH223567   0.543   6.082   6.767
 7875TIP3    H123568   0.538   6.176   6.783
 7875TIP3    H223569   0.495   6.069   6.685
 7876TIP3   OH223570   2.431   3.277   5.199
 7876TIP3    H123571   2.518   3.313   5.211
 7876TIP3    H223572   2.419   3.274   5.104
 7877TIP3   OH223573   4.455   3.501   4.437
 7877TIP3    H123574   4.515   3.427   4.447
 7877TIP3    H223575   4.500   3.574   4.481
 7878TIP3   OH223576   4.197   0.383   0.844
 7878TIP3    H123577   4.122   0.335   0.810
 7878TIP3    H223578   4.196   0.466   0.796
 7879TIP3   OH223579   5.951   4.063   4.707
 7879TIP3    H123580   5.910   3.976   4.700
 7879TIP3    H223581   5.963   4.076   4.801
 7880TIP3   OH223582   3.032   5.090   2.841
 7880TIP3    H123583   2.939   5.076   2.827
 7880TIP3    H223584   3.074   5.058   2.760
 7881TIP3   OH223585   0.407   5.303   0.809
 7881TIP3    H123586   0.394   5.325   0.717
 7881TIP3    H223587   0.451   5.380   0.846
 7882TIP3   OH223588   7.610   6.562   0.557
 7882TIP3    H123589   7.609   6.651   0.592
 7882TIP3    H223590   7.539   6.517   0.602
 7883TIP3   OH223591   0.073   1.362   4.068
 7883TIP3    H123592   0.057   1.449   4.106
 7883TIP3    H223593   0.129   1.380   3.992
 7884TIP3   OH223594   4.753   6.063   4.893
 7884TIP3    H123595   4.721   5.987   4.940
 7884TIP3    H223596   4.682   6.088   4.834
 7885TIP3   OH223597   1.257   7.586   1.510
 7885TIP3    H123598   1.163   7.574   1.522
 7885TIP3    H223599   1.292   7.592   1.598
 7886TIP3   OH223600   4.627   7.208   4.135
 7886TIP3    H123601   4.597   7.287   4.180
 7886TIP3    H223602   4.574   7.137   4.173
 7887TIP3   OH223603   6.635   3.652   2.295
 7887TIP3    H123604   6.590   3.604   2.225
 7887TIP3    H223605   6.642   3.742   2.261
 7888TIP3   OH223606   0.344   4.517   4.225
 7888TIP3    H123607   0.303   4.603   4.217
 7888TIP3    H223608   0.315   4.469   4.147
 7889TIP3   OH223609   6.074   0.424   2.907
 7889TIP3    H123610   6.142   0.484   2.878
 7889TIP3    H223611   6.084   0.419   3.002
 7890TIP3   OH223612   7.557   3.174   6.054
 7890TIP3    H123613   7.616   3.187   6.128
 7890TIP3    H223614   7.604   3.115   5.995
 7891TIP3   OH223615   1.499   5.353   6.152
 7891TIP3    H123616   1.577   5.315   6.194
 7891TIP3    H223617   1.499   5.315   6.064
 7892TIP3   OH223618   5.129   6.153   3.247
 7892TIP3    H123619   5.063   6.221   3.263
 7892TIP3    H223620   5.081   6.082   3.206
 7893TIP3   OH223621   7.110   0.986   4.367
 7893TIP3    H123622   7.084   1.078   4.375
 7893TIP3    H223623   7.030   0.941   4.338
 7894TIP3   OH223624   0.052   5.938   0.469
 7894TIP3    H123625   0.101   5.901   0.396
 7894TIP3    H223626  -0.024   5.981   0.429
 7895TIP3   OH223627   1.029   7.000   2.167
 7895TIP3    H123628   1.035   6.982   2.261
 7895TIP3    H223629   1.113   6.968   2.132
 7896TIP3   OH223630   1.880   0.858   3.148
 7896TIP3    H123631   1.815   0.801   3.106
 7896TIP3    H223632   1.874   0.940   3.099
 7897TIP3   OH223633   5.078   3.809   6.523
 7897TIP3    H123634   5.096   3.789   6.615
 7897TIP3    H223635   5.164   3.826   6.484
 7898TIP3   OH223636   8.233   2.304   3.397
 7898TIP3    H123637   8.176   2.266   3.465
 7898TIP3    H223638   8.301   2.350   3.446
 7899TIP3   OH223639   8.150   1.409   4.328
 7899TIP3    H123640   8.193   1.434   4.410
 7899TIP3    H223641   8.181   1.472   4.263
 7900TIP3   OH223642   2.274   3.022   3.919
 7900TIP3    H123643   2.248   3.113   3.903
 7900TIP3    H223644   2.191   2.975   3.932
 7901TIP3   OH223645   2.399   0.291   6.094
 7901TIP3    H123646   2.343   0.216   6.108
 7901TIP3    H223647   2.393   0.342   6.175
 7902TIP3   OH223648   1.817   6.169   6.577
 7902TIP3    H123649   1.731   6.127   6.587
 7902TIP3    H223650   1.814   6.210   6.490
 7903TIP3   OH223651   6.178   0.364   1.546
 7903TIP3    H123652   6.103   0.370   1.487
 7903TIP3    H223653   6.163   0.432   1.612
 7904TIP3   OH223654   4.183   3.658   1.041
 7904TIP3    H123655   4.171   3.573   0.998
 7904TIP3    H223656   4.270   3.653   1.080
 7905TIP3   OH223657   0.796   0.819   1.357
 7905TIP3    H123658   0.806   0.837   1.450
 7905TIP3    H223659   0.862   0.752   1.338
 7906TIP3   OH223660   2.327   1.443   4.577
 7906TIP3    H123661   2.324   1.369   4.518
 7906TIP3    H223662   2.237   1.475   4.581
 7907TIP3   OH223663   2.502   0.040   5.099
 7907TIP3    H123664   2.508  -0.029   5.033
 7907TIP3    H223665   2.567   0.105   5.070
 7908TIP3   OH223666   4.331   0.157   2.856
 7908TIP3    H123667   4.310   0.247   2.879
 7908TIP3    H223668   4.409   0.164   2.802
 7909TIP3   OH223669   4.948   6.995   3.528
 7909TIP3    H123670   4.853   6.987   3.533
 7909TIP3    H223671   4.965   7.029   3.441
 7910TIP3   OH223672   1.592   1.091   6.607
 7910TIP3    H123673   1.603   1.112   6.514
 7910TIP3    H223674   1.560   1.001   6.607
 7911TIP3   OH223675   4.353   2.258   0.845
 7911TIP3    H123676   4.367   2.297   0.931
 7911TIP3    H223677   4.262   2.229   0.846
 7912TIP3   OH223678   3.069   1.023   0.388
 7912TIP3    H123679   3.065   1.106   0.341
 7912TIP3    H223680   3.126   1.041   0.464
 7913TIP3   OH223681   3.403   2.163   2.264
 7913TIP3    H123682   3.338   2.173   2.195
 7913TIP3    H223683   3.481   2.208   2.231
 7914TIP3   OH223684   3.015   0.259   5.500
 7914TIP3    H123685   2.972   0.333   5.543
 7914TIP3    H223686   3.087   0.298   5.451
 7915TIP3   OH223687   6.644   0.882   0.186
 7915TIP3    H123688   6.580   0.948   0.159
 7915TIP3    H223689   6.644   0.818   0.115
 7916TIP3   OH223690   7.363   4.559   0.202
 7916TIP3    H123691   7.310   4.568   0.122
 7916TIP3    H223692   7.305   4.589   0.272
 7917TIP3   OH223693   1.739   4.273   4.045
 7917TIP3    H123694   1.669   4.335   4.023
 7917TIP3    H223695   1.696   4.187   4.043
 7918TIP3   OH223696   1.316   6.045   2.003
 7918TIP3    H123697   1.370   6.116   2.036
 7918TIP3    H223698   1.287   5.999   2.082
 7919TIP3   OH223699   6.928   5.123   2.896
 7919TIP3    H123700   6.990   5.069   2.847
 7919TIP3    H223701   6.916   5.077   2.979
 7920TIP3   OH223702   7.611   3.950   1.928
 7920TIP3    H123703   7.560   4.030   1.944
 7920TIP3    H223704   7.701   3.980   1.924
 7921TIP3   OH223705   6.627   7.192   3.204
 7921TIP3    H123706   6.718   7.173   3.181
 7921TIP3    H223707   6.616   7.158   3.293
 7922TIP3   OH223708   1.234   0.265   5.995
 7922TIP3    H123709   1.215   0.238   6.085
 7922TIP3    H223710   1.322   0.231   5.978
 7923TIP3   OH223711   0.787   7.381   0.995
 7923TIP3    H123712   0.817   7.459   0.948
 7923TIP3    H223713   0.807   7.308   0.936
 7924TIP3   OH223714   5.443   2.133   1.632
 7924TIP3    H123715   5.366   2.075   1.631
 7924TIP3    H223716   5.429   2.192   1.558
 7925TIP3   OH223717   1.140   2.309   5.093
 7925TIP3    H123718   1.206   2.356   5.042
 7925TIP3    H223719   1.168   2.319   5.184
 7926TIP3   OH223720   3.390   3.938   1.486
 7926TIP3    H123721   3.296   3.935   1.507
 7926TIP3    H223722   3.395   3.901   1.398
 7927TIP3   OH223723   4.379   5.532   4.659
 7927TIP3    H123724   4.473   5.515   4.650
 7927TIP3    H223725   4.357   5.502   4.747
 7928TIP3   OH223726   3.940   2.386   4.165
 7928TIP3    H123727   3.973   2.302   4.195
 7928TIP3    H223728   3.984   2.401   4.081
 7929TIP3   OH223729   5.742   3.758   2.181
 7929TIP3    H123730   5.773   3.670   2.158
 7929TIP3    H223731   5.658   3.766   2.137
 7930TIP3   OH223732   5.190   0.631   0.996
 7930TIP3    H123733   5.099   0.660   1.004
 7930TIP3    H223734   5.229   0.692   0.934
 7931TIP3   OH223735   2.087   7.464   5.464
 7931TIP3    H123736   2.118   7.529   5.401
 7931TIP3    H223737   2.048   7.395   5.410
 7932TIP3   OH223738   1.187   4.673   3.815
 7932TIP3    H123739   1.282   4.677   3.800
 7932TIP3    H223740   1.167   4.580   3.807
 7933TIP3   OH223741   2.666   5.778   3.347
 7933TIP3    H123742   2.672   5.799   3.440
 7933TIP3    H223743   2.582   5.732   3.338
 7934TIP3   OH223744   0.992   5.690   0.068
 7934TIP3    H123745   0.964   5.730   0.150
 7934TIP3    H223746   0.914   5.690   0.013
 7935TIP3   OH223747   7.351   5.669   2.373
 7935TIP3    H123748   7.412   5.690   2.302
 7935TIP3    H223749   7.353   5.746   2.430
 7936TIP3   OH223750   6.277   2.007   0.051
 7936TIP3    H123751   6.218   2.082   0.042
 7936TIP3    H223752   6.318   1.998  -0.035
 7937TIP3   OH223753   2.718   0.549   1.302
 7937TIP3    H123754   2.668   0.500   1.366
 7937TIP3    H223755   2.801   0.502   1.295
 7938TIP3   OH223756   0.748   7.570   3.040
 7938TIP3    H123757   0.681   7.520   2.993
 7938TIP3    H223758   0.733   7.661   3.012
 7939TIP3   OH223759   3.719   4.534   5.072
 7939TIP3    H123760   3.798   4.501   5.030
 7939TIP3    H223761   3.654   4.539   5.002
 7940TIP3   OH223762   7.665   0.443   2.182
 7940TIP3    H123763   7.703   0.499   2.115
 7940TIP3    H223764   7.698   0.355   2.162
 7941TIP3   OH223765   0.026   7.326   2.289
 7941TIP3    H123766   0.019   7.269   2.213
 7941TIP3    H223767  -0.012   7.409   2.260
 7942TIP3   OH223768   6.409   2.879   5.940
 7942TIP3    H123769   6.477   2.881   6.007
 7942TIP3    H223770   6.438   2.941   5.873
 7943TIP3   OH223771   2.983   1.450   5.592
 7943TIP3    H123772   2.989   1.391   5.517
 7943TIP3    H223773   2.987   1.537   5.554
 7944TIP3   OH223774   6.638   2.852   1.098
 7944TIP3    H123775   6.572   2.911   1.134
 7944TIP3    H223776   6.653   2.884   1.009
 7945TIP3   OH223777   5.717   0.080   1.365
 7945TIP3    H123778   5.763   0.011   1.317
 7945TIP3    H223779   5.752   0.075   1.454
 7946TIP3   OH223780   6.570   7.681   2.786
 7946TIP3    H123781   6.538   7.725   2.707
 7946TIP3    H223782   6.491   7.645   2.827
 7947TIP3   OH223783   1.412   7.295   6.331
 7947TIP3    H123784   1.378   7.379   6.298
 7947TIP3    H223785   1.502   7.291   6.298
 7948TIP3   OH223786   1.272   0.745   3.586
 7948TIP3    H123787   1.259   0.708   3.498
 7948TIP3    H223788   1.292   0.837   3.570
 7949TIP3   OH223789   7.670   0.753   5.707
 7949TIP3    H123790   7.593   0.809   5.697
 7949TIP3    H223791   7.726   0.801   5.769
 7950TIP3   OH223792   6.833   3.973   3.417
 7950TIP3    H123793   6.750   3.972   3.464
 7950TIP3    H223794   6.900   3.973   3.486
 7951TIP3   OH223795   1.453   3.473   3.150
 7951TIP3    H123796   1.400   3.409   3.197
 7951TIP3    H223797   1.412   3.557   3.169
 7952TIP3   OH223798   3.535   7.696   5.048
 7952TIP3    H123799   3.500   7.692   4.959
 7952TIP3    H223800   3.552   7.789   5.062
 7953TIP3   OH223801   4.059   6.221   5.493
 7953TIP3    H123802   4.154   6.214   5.499
 7953TIP3    H223803   4.039   6.308   5.527
 7954TIP3   OH223804   1.780   6.841   1.139
 7954TIP3    H123805   1.848   6.787   1.180
 7954TIP3    H223806   1.824   6.923   1.117
 7955TIP3   OH223807   6.152   0.282  -0.002
 7955TIP3    H123808   6.192   0.363   0.030
 7955TIP3    H223809   6.081   0.264   0.060
 7956TIP3   OH223810   2.715   4.922   1.487
 7956TIP3    H123811   2.638   4.879   1.523
 7956TIP3    H223812   2.722   4.889   1.398
 7957TIP3   OH223813   6.404   3.573   4.715
 7957TIP3    H123814   6.405   3.594   4.809
 7957TIP3    H223815   6.339   3.633   4.678
 7958TIP3   OH223816   1.087   7.659   4.283
 7958TIP3    H123817   1.125   7.623   4.203
 7958TIP3    H223818   0.997   7.680   4.260
 7959TIP3   OH223819   5.061   1.210   2.552
 7959TIP3    H123820   5.105   1.287   2.587
 7959TIP3    H223821   4.997   1.245   2.489
 7960TIP3   OH223822   3.305   0.705   1.154
 7960TIP3    H123823   3.389   0.666   1.134
 7960TIP3    H223824   3.302   0.785   1.102
 7961TIP3   OH223825   5.096   5.264   2.181
 7961TIP3    H123826   5.064   5.206   2.250
 7961TIP3    H223827   5.018   5.310   2.151
 7962TIP3   OH223828   7.655   6.937   2.138
 7962TIP3    H123829   7.632   7.030   2.138
 7962TIP3    H223830   7.681   6.919   2.048
 7963TIP3   OH223831   5.615   7.766   2.543
 7963TIP3    H123832   5.677   7.839   2.538
 7963TIP3    H223833   5.664   7.695   2.583
 7964TIP3   OH223834   1.037   0.048   4.168
 7964TIP3    H123835   0.984   0.115   4.213
 7964TIP3    H223836   1.060   0.089   4.084
 7965TIP3   OH223837   1.049   4.416   6.480
 7965TIP3    H123838   1.135   4.416   6.522
 7965TIP3    H223839   1.055   4.484   6.413
 7966TIP3   OH223840   1.874   4.722   1.707
 7966TIP3    H123841   1.782   4.735   1.684
 7966TIP3    H223842   1.919   4.716   1.623
 7967TIP3   OH223843   4.163   0.179   0.345
 7967TIP3    H123844   4.258   0.165   0.337
 7967TIP3    H223845   4.144   0.160   0.437
 7968TIP3   OH223846   1.770   4.863   3.325
 7968TIP3    H123847   1.774   4.791   3.389
 7968TIP3    H223848   1.684   4.854   3.285
 7969TIP3   OH223849   4.488   7.055   4.333
 7969TIP3    H123850   4.403   7.026   4.299
 7969TIP3    H223851   4.522   6.979   4.380
 7970TIP3   OH223852   0.889   3.380   0.037
 7970TIP3    H123853   0.815   3.415   0.087
 7970TIP3    H223854   0.905   3.294   0.076
 7971TIP3   OH223855   6.829   7.674   5.275
 7971TIP3    H123856   6.842   7.580   5.266
 7971TIP3    H223857   6.849   7.693   5.367
 7972TIP3   OH223858   7.055   2.192   6.304
 7972TIP3    H123859   6.983   2.206   6.243
 7972TIP3    H223860   7.021   2.223   6.388
 7973TIP3   OH223861   0.498   7.316   1.045
 7973TIP3    H123862   0.424   7.365   1.009
 7973TIP3    H223863   0.572   7.338   0.989
 7974TIP3   OH223864   0.411   0.527   4.331
 7974TIP3    H123865   0.437   0.483   4.250
 7974TIP3    H223866   0.409   0.620   4.308
 7975TIP3   OH223867   5.180   4.283   6.305
 7975TIP3    H123868   5.214   4.204   6.346
 7975TIP3    H223869   5.255   4.344   6.306
 7976TIP3   OH223870   3.776   1.230   1.473
 7976TIP3    H123871   3.754   1.138   1.478
 7976TIP3    H223872   3.868   1.231   1.447
 7977TIP3   OH223873   6.501   4.180   5.667
 7977TIP3    H123874   6.505   4.136   5.752
 7977TIP3    H223875   6.407   4.193   5.652
 7978TIP3   OH223876   2.776   1.470   6.597
 7978TIP3    H123877   2.706   1.451   6.660
 7978TIP3    H223878   2.788   1.388   6.549
 7979TIP3   OH223879   3.018   2.544   6.720
 7979TIP3    H123880   3.008   2.466   6.774
 7979TIP3    H223881   2.947   2.602   6.748
 7980TIP3   OH223882   7.308   2.231   0.217
 7980TIP3    H123883   7.250   2.276   0.278
 7980TIP3    H223884   7.366   2.300   0.184
 7981TIP3   OH223885   6.266   4.904   0.458
 7981TIP3    H123886   6.222   4.896   0.543
 7981TIP3    H223887   6.195   4.923   0.397
 7982TIP3   OH223888   4.977   6.699   2.139
 7982TIP3    H123889   4.908   6.727   2.198
 7982TIP3    H223890   5.058   6.721   2.185
 7983TIP3   OH223891   5.676   7.704   2.872
 7983TIP3    H123892   5.594   7.668   2.837
 7983TIP3    H223893   5.649   7.776   2.928
 7984TIP3   OH223894   2.529   3.985   3.447
 7984TIP3    H123895   2.530   3.899   3.489
 7984TIP3    H223896   2.476   3.973   3.369
 7985TIP3   OH223897   1.302   1.356   1.190
 7985TIP3    H123898   1.216   1.365   1.148
 7985TIP3    H223899   1.297   1.413   1.267
 7986TIP3   OH223900   4.004   5.943   1.287
 7986TIP3    H123901   4.068   5.880   1.320
 7986TIP3    H223902   3.956   5.895   1.219
 7987TIP3   OH223903   4.705   4.872   3.044
 7987TIP3    H123904   4.714   4.912   2.957
 7987TIP3    H223905   4.752   4.932   3.102
 7988TIP3   OH223906   6.382   4.617   1.687
 7988TIP3    H123907   6.472   4.646   1.678
 7988TIP3    H223908   6.374   4.543   1.627
 7989TIP3   OH223909   4.996   7.400   6.259
 7989TIP3    H123910   4.922   7.372   6.206
 7989TIP3    H223911   5.071   7.350   6.225
 7990TIP3   OH223912   2.226   3.317   3.809
 7990TIP3    H123913   2.215   3.283   3.720
 7990TIP3    H223914   2.144   3.363   3.827
 7991TIP3   OH223915   6.956   4.183   1.771
 7991TIP3    H123916   6.918   4.099   1.745
 7991TIP3    H223917   6.991   4.167   1.859
 7992TIP3   OH223918   4.682   4.174   2.577
 7992TIP3    H123919   4.675   4.186   2.482
 7992TIP3    H223920   4.776   4.159   2.592
 7993TIP3   OH223921   0.570   7.590   1.200
 7993TIP3    H123922   0.605   7.505   1.173
 7993TIP3    H223923   0.595   7.650   1.130
 7994TIP3   OH223924   2.018   5.828   4.897
 7994TIP3    H123925   1.980   5.916   4.887
 7994TIP3    H223926   1.963   5.785   4.963
 7995TIP3   OH223927   6.136   1.502   0.769
 7995TIP3    H123928   6.050   1.521   0.730
 7995TIP3    H223929   6.156   1.413   0.740
 7996TIP3   OH223930   5.770   3.632   3.181
 7996TIP3    H123931   5.734   3.706   3.133
 7996TIP3    H223932   5.709   3.560   3.165
 7997TIP3   OH223933   1.940   7.122   1.779
 7997TIP3    H123934   1.936   7.207   1.734
 7997TIP3    H223935   1.961   7.144   1.870
 7998TIP3   OH223936   0.280   4.944   3.327
 7998TIP3    H123937   0.296   4.850   3.334
 7998TIP3    H223938   0.295   4.964   3.234
 7999TIP3   OH223939   1.338   4.225   0.244
 7999TIP3    H123940   1.283   4.278   0.302
 7999TIP3    H223941   1.294   4.229   0.159
 8000TIP3   OH223942   4.342   6.671   3.784
 8000TIP3    H123943   4.387   6.682   3.868
 8000TIP3    H223944   4.280   6.600   3.800
 8001TIP3   OH223945   8.148   0.390   3.997
 8001TIP3    H123946   8.224   0.363   3.946
 8001TIP3    H223947   8.122   0.311   4.045
 8002TIP3   OH223948   2.275   2.930   0.068
 8002TIP3    H123949   2.353   2.904   0.118
 8002TIP3    H223950   2.202   2.910   0.127
 8003TIP3   OH223951   3.699   4.350   3.675
 8003TIP3    H123952   3.687   4.438   3.709
 8003TIP3    H223953   3.614   4.307   3.689
 8004TIP3   OH223954   5.012   4.958   1.522
 8004TIP3    H123955   5.051   4.879   1.484
 8004TIP3    H223956   5.080   5.024   1.514
 8005TIP3   OH223957   4.146   5.944   3.274
 8005TIP3    H123958   4.135   5.874   3.339
 8005TIP3    H223959   4.240   5.943   3.255
 8006TIP3   OH223960   1.004   0.131   2.006
 8006TIP3    H123961   1.016   0.159   2.097
 8006TIP3    H223962   0.938   0.191   1.972
 8007TIP3   OH223963   1.724   6.552   4.673
 8007TIP3    H123964   1.662   6.542   4.745
 8007TIP3    H223965   1.680   6.514   4.597
 8008TIP3   OH223966   4.246   3.915   0.969
 8008TIP3    H123967   4.205   3.832   0.996
 8008TIP3    H223968   4.310   3.889   0.903
 8009TIP3   OH223969   2.443   2.182   5.752
 8009TIP3    H123970   2.421   2.182   5.845
 8009TIP3    H223971   2.498   2.105   5.740
 8010TIP3   OH223972   8.025   1.270   4.905
 8010TIP3    H123973   8.022   1.210   4.980
 8010TIP3    H223974   8.070   1.220   4.836
 8011TIP3   OH223975   5.071   4.780   0.530
 8011TIP3    H123976   4.990   4.732   0.511
 8011TIP3    H223977   5.070   4.853   0.469
 8012TIP3   OH223978   4.341   0.623   0.668
 8012TIP3    H123979   4.338   0.668   0.584
 8012TIP3    H223980   4.274   0.667   0.721
 8013TIP3   OH223981   6.196   6.096   0.559
 8013TIP3    H123982   6.211   6.165   0.624
 8013TIP3    H223983   6.156   6.141   0.485
 8014TIP3   OH223984   3.169   7.068   0.288
 8014TIP3    H123985   3.152   7.065   0.382
 8014TIP3    H223986   3.175   7.162   0.268
 8015TIP3   OH223987   6.618   0.893   4.073
 8015TIP3    H123988   6.646   0.816   4.023
 8015TIP3    H223989   6.577   0.856   4.151
 8016TIP3   OH223990   5.352   5.888   5.292
 8016TIP3    H123991   5.301   5.866   5.370
 8016TIP3    H223992   5.304   5.959   5.251
 8017TIP3   OH223993   1.204   0.767   0.754
 8017TIP3    H123994   1.239   0.716   0.828
 8017TIP3    H223995   1.230   0.717   0.676
 8018TIP3   OH223996   6.858   1.846   5.037
 8018TIP3    H123997   6.887   1.757   5.017
 8018TIP3    H223998   6.887   1.861   5.127
 8019TIP3   OH223999   3.110   7.730   4.301
 8019TIP3    H124000   3.079   7.685   4.380
 8019TIP3    H224001   3.103   7.823   4.322
 8020TIP3   OH224002   7.979   5.919   3.851
 8020TIP3    H124003   8.037   5.982   3.894
 8020TIP3    H224004   8.037   5.869   3.794
 8021TIP3   OH224005   1.057   5.202   1.720
 8021TIP3    H124006   1.117   5.251   1.664
 8021TIP3    H224007   0.975   5.251   1.715
 8022TIP3   OH224008   7.715   1.133   2.947
 8022TIP3    H124009   7.736   1.045   2.978
 8022TIP3    H224010   7.661   1.119   2.869
 8023TIP3   OH224011   1.306   7.488   1.795
 8023TIP3    H124012   1.333   7.515   1.882
 8023TIP3    H224013   1.210   7.490   1.798
 8024TIP3   OH224014   1.385   4.448   5.881
 8024TIP3    H124015   1.328   4.385   5.926
 8024TIP3    H224016   1.385   4.419   5.790
 8025TIP3   OH224017   4.156   2.787   5.476
 8025TIP3    H124018   4.117   2.814   5.393
 8025TIP3    H224019   4.082   2.754   5.528
 8026TIP3   OH224020   2.693   2.585   3.310
 8026TIP3    H124021   2.626   2.607   3.245
 8026TIP3    H224022   2.650   2.520   3.367
 8027TIP3   OH224023   2.189   4.223   5.478
 8027TIP3    H124024   2.242   4.268   5.543
 8027TIP3    H224025   2.104   4.266   5.482
 8028TIP3   OH224026   2.314   2.500   5.487
 8028TIP3    H124027   2.247   2.521   5.422
 8028TIP3    H224028   2.265   2.482   5.568
 8029TIP3   OH224029   2.422   4.461   4.758
 8029TIP3    H124030   2.501   4.427   4.715
 8029TIP3    H224031   2.455   4.525   4.821
 8030TIP3   OH224032   4.347   6.510   2.750
 8030TIP3    H124033   4.317   6.598   2.730
 8030TIP3    H224034   4.329   6.499   2.843
 8031TIP3   OH224035   6.777   7.558   4.600
 8031TIP3    H124036   6.765   7.605   4.517
 8031TIP3    H224037   6.870   7.568   4.620
 8032TIP3   OH224038   1.925   6.904   4.697
 8032TIP3    H124039   1.950   6.813   4.682
 8032TIP3    H224040   1.866   6.901   4.772
 8033TIP3   OH224041   1.563   4.361   6.536
 8033TIP3    H124042   1.614   4.286   6.568
 8033TIP3    H224043   1.550   4.343   6.443
 8034TIP3   OH224044   4.744   0.691   6.334
 8034TIP3    H124045   4.701   0.652   6.258
 8034TIP3    H224046   4.725   0.630   6.406
 8035TIP3   OH224047   6.411   1.743   0.627
 8035TIP3    H124048   6.410   1.760   0.533
 8035TIP3    H224049   6.333   1.789   0.660
 8036TIP3   OH224050   5.011   7.521   5.152
 8036TIP3    H124051   5.102   7.506   5.177
 8036TIP3    H224052   4.978   7.584   5.216
 8037TIP3   OH224053   2.822   1.145   6.645
 8037TIP3    H124054   2.802   1.160   6.553
 8037TIP3    H224055   2.766   1.071   6.670
 8038TIP3   OH224056   5.217   0.598   4.115
 8038TIP3    H124057   5.190   0.512   4.083
 8038TIP3    H224058   5.139   0.653   4.105
 8039TIP3   OH224059   3.441   5.601   1.604
 8039TIP3    H124060   3.437   5.515   1.647
 8039TIP3    H224061   3.525   5.601   1.557
 8040TIP3   OH224062   4.901   4.841   1.854
 8040TIP3    H124063   4.920   4.787   1.778
 8040TIP3    H224064   4.812   4.873   1.839
 8041TIP3   OH224065   5.892   5.238   2.275
 8041TIP3    H124066   5.979   5.278   2.275
 8041TIP3    H224067   5.906   5.151   2.314
 8042TIP3   OH224068   6.205   4.031   2.021
 8042TIP3    H124069   6.165   4.066   1.942
 8042TIP3    H224070   6.135   3.978   2.061
 8043TIP3   OH224071   3.514   4.806   5.821
 8043TIP3    H124072   3.553   4.777   5.903
 8043TIP3    H224073   3.464   4.731   5.789
 8044TIP3   OH224074   0.589   6.436   2.223
 8044TIP3    H124075   0.647   6.453   2.297
 8044TIP3    H224076   0.532   6.365   2.253
 8045TIP3   OH224077   4.005   4.428   3.474
 8045TIP3    H124078   4.048   4.346   3.451
 8045TIP3    H224079   3.981   4.417   3.566
 8046TIP3   OH224080   4.119   2.728   6.415
 8046TIP3    H124081   4.030   2.761   6.402
 8046TIP3    H224082   4.122   2.705   6.508
 8047TIP3   OH224083   4.959   6.746   6.056
 8047TIP3    H124084   4.986   6.703   5.974
 8047TIP3    H224085   4.866   6.764   6.045
 8048TIP3   OH224086   0.179   4.471   5.733
 8048TIP3    H124087   0.233   4.476   5.655
 8048TIP3    H224088   0.229   4.516   5.801
 8049TIP3   OH224089   4.607   2.112   6.082
 8049TIP3    H124090   4.645   2.198   6.099
 8049TIP3    H224091   4.677   2.050   6.104
 8050TIP3   OH224092   7.978   4.941   5.956
 8050TIP3    H124093   7.928   4.981   6.027
 8050TIP3    H224094   7.919   4.943   5.881
 8051TIP3   OH224095   5.465   1.495   4.358
 8051TIP3    H124096   5.434   1.574   4.401
 8051TIP3    H224097   5.506   1.525   4.277
 8052TIP3   OH224098   6.803   0.666   0.494
 8052TIP3    H124099   6.866   0.622   0.436
 8052TIP3    H224100   6.718   0.652   0.452
 8053TIP3   OH224101   7.509   3.499   5.109
 8053TIP3    H124102   7.464   3.558   5.170
 8053TIP3    H224103   7.558   3.439   5.166
 8054TIP3   OH224104   0.922   1.566   0.263
 8054TIP3    H124105   0.888   1.477   0.258
 8054TIP3    H224106   1.011   1.556   0.299
 8055TIP3   OH224107   1.783   0.063   3.873
 8055TIP3    H124108   1.839   0.141   3.870
 8055TIP3    H224109   1.699   0.093   3.838
 8056TIP3   OH224110   4.515   6.951   3.646
 8056TIP3    H124111   4.555   6.919   3.727
 8056TIP3    H224112   4.483   6.873   3.602
 8057TIP3   OH224113   1.066   4.852   5.502
 8057TIP3    H124114   1.114   4.812   5.575
 8057TIP3    H224115   0.990   4.892   5.544
 8058TIP3   OH224116   6.079   1.421   2.736
 8058TIP3    H124117   6.038   1.364   2.801
 8058TIP3    H224118   6.145   1.470   2.785
 8059TIP3   OH224119   5.221   4.305   2.556
 8059TIP3    H124120   5.126   4.316   2.568
 8059TIP3    H224121   5.260   4.362   2.622
 8060TIP3   OH224122   7.480   4.427   2.013
 8060TIP3    H124123   7.476   4.508   1.961
 8060TIP3    H224124   7.530   4.451   2.090
 8061TIP3   OH224125   2.793   7.787   5.763
 8061TIP3    H124126   2.715   7.842   5.761
 8061TIP3    H224127   2.828   7.798   5.851
 8062TIP3   OH224128   0.604   0.845   0.118
 8062TIP3    H124129   0.568   0.877   0.035
 8062TIP3    H224130   0.528   0.820   0.170
 8063TIP3   OH224131   0.051   6.982   3.380
 8063TIP3    H124132   0.124   6.980   3.442
 8063TIP3    H224133   0.092   6.969   3.294
 8064TIP3   OH224134   0.939   3.146   6.687
 8064TIP3    H124135   0.932   3.076   6.752
 8064TIP3    H224136   0.883   3.216   6.722
 8065TIP3   OH224137   7.190   2.102   5.325
 8065TIP3    H124138   7.236   2.020   5.308
 8065TIP3    H224139   7.247   2.149   5.387
 8066TIP3   OH224140   4.118   5.471   2.815
 8066TIP3    H124141   4.113   5.543   2.878
 8066TIP3    H224142   4.127   5.392   2.870
 8067TIP3   OH224143   4.783   2.937   0.765
 8067TIP3    H124144   4.796   2.928   0.860
 8067TIP3    H224145   4.729   2.862   0.741
 8068TIP3   OH224146   6.487   5.842   6.350
 8068TIP3    H124147   6.464   5.852   6.443
 8068TIP3    H224148   6.527   5.925   6.326
 8069TIP3   OH224149   7.428   7.661   4.254
 8069TIP3    H124150   7.481   7.637   4.331
 8069TIP3    H224151   7.343   7.620   4.270
 8070TIP3   OH224152   1.771   0.291   4.951
 8070TIP3    H124153   1.762   0.230   4.877
 8070TIP3    H224154   1.681   0.313   4.975
 8071TIP3   OH224155   5.394   7.349   1.465
 8071TIP3    H124156   5.422   7.344   1.373
 8071TIP3    H224157   5.460   7.300   1.513
 8072TIP3   OH224158   6.059   4.650   1.787
 8072TIP3    H124159   6.059   4.556   1.805
 8072TIP3    H224160   6.022   4.689   1.866
 8073TIP3   OH224161   7.921   7.306   3.541
 8073TIP3    H124162   7.839   7.258   3.547
 8073TIP3    H224163   7.988   7.239   3.533
 8074TIP3   OH224164   0.128   6.970   2.599
 8074TIP3    H124165   0.054   6.973   2.538
 8074TIP3    H224166   0.100   6.911   2.668
 8075TIP3   OH224167   8.134   2.695   0.018
 8075TIP3    H124168   8.171   2.773   0.059
 8075TIP3    H224169   8.208   2.635   0.008
 8076TIP3   OH224170   4.861   3.303   2.255
 8076TIP3    H124171   4.821   3.387   2.234
 8076TIP3    H224172   4.953   3.314   2.229
 8077TIP3   OH224173   3.085   4.219   5.627
 8077TIP3    H124174   3.168   4.266   5.632
 8077TIP3    H224175   3.019   4.288   5.627
 8078TIP3   OH224176   5.736   7.571   6.791
 8078TIP3    H124177   5.769   7.636   6.728
 8078TIP3    H224178   5.747   7.487   6.746
 8079TIP3   OH224179   0.240   7.318   0.933
 8079TIP3    H124180   0.262   7.236   0.889
 8079TIP3    H224181   0.223   7.379   0.862
 8080TIP3   OH224182   4.239   4.703   0.827
 8080TIP3    H124183   4.278   4.721   0.912
 8080TIP3    H224184   4.213   4.789   0.793
 8081TIP3   OH224185   6.151   3.701   4.170
 8081TIP3    H124186   6.061   3.713   4.199
 8081TIP3    H224187   6.158   3.607   4.154
 8082TIP3   OH224188   6.901   5.625   5.023
 8082TIP3    H124189   6.846   5.700   5.000
 8082TIP3    H224190   6.854   5.582   5.095
 8083TIP3   OH224191   1.062   6.357   0.835
 8083TIP3    H124192   1.049   6.358   0.740
 8083TIP3    H224193   1.126   6.287   0.849
 8084TIP3   OH224194   1.691   7.496   0.199
 8084TIP3    H124195   1.654   7.407   0.202
 8084TIP3    H224196   1.644   7.543   0.268
 8085TIP3   OH224197   7.727   7.187   5.629
 8085TIP3    H124198   7.692   7.186   5.540
 8085TIP3    H224199   7.652   7.164   5.684
 8086TIP3   OH224200   0.292   0.292   1.416
 8086TIP3    H124201   0.248   0.291   1.501
 8086TIP3    H224202   0.272   0.379   1.379
 8087TIP3   OH224203   2.952   5.470   5.842
 8087TIP3    H124204   2.943   5.473   5.937
 8087TIP3    H224205   2.921   5.556   5.812
 8088TIP3   OH224206   7.606   7.323   2.666
 8088TIP3    H124207   7.525   7.366   2.694
 8088TIP3    H224208   7.581   7.231   2.656
 8089TIP3   OH224209   2.715   1.231   6.377
 8089TIP3    H124210   2.678   1.164   6.320
 8089TIP3    H224211   2.802   1.248   6.341
 8090TIP3   OH224212   6.531   1.191   5.284
 8090TIP3    H124213   6.564   1.273   5.246
 8090TIP3    H224214   6.493   1.218   5.367
 8091TIP3   OH224215   6.130   6.494   0.726
 8091TIP3    H124216   6.199   6.443   0.768
 8091TIP3    H224217   6.049   6.456   0.759
 8092TIP3   OH224218   2.517   3.856   2.884
 8092TIP3    H124219   2.445   3.799   2.910
 8092TIP3    H224220   2.476   3.941   2.866
 8093TIP3   OH224221   6.248   0.335   0.680
 8093TIP3    H124222   6.334   0.305   0.710
 8093TIP3    H224223   6.189   0.312   0.751
 8094TIP3   OH224224   6.057   4.880   6.246
 8094TIP3    H124225   6.139   4.834   6.263
 8094TIP3    H224226   5.991   4.811   6.242
 8095TIP3   OH224227   7.455   4.750   6.112
 8095TIP3    H124228   7.545   4.738   6.082
 8095TIP3    H224229   7.435   4.842   6.092
 8096TIP3   OH224230   0.815   6.626   1.445
 8096TIP3    H124231   0.856   6.619   1.359
 8096TIP3    H224232   0.873   6.577   1.504
 8097TIP3   OH224233   2.268   1.257   4.378
 8097TIP3    H124234   2.354   1.224   4.351
 8097TIP3    H224235   2.206   1.211   4.322
 8098TIP3   OH224236   0.859   7.760   6.709
 8098TIP3    H124237   0.814   7.837   6.744
 8098TIP3    H224238   0.931   7.745   6.770
 8099TIP3   OH224239   3.366   5.345   6.396
 8099TIP3    H124240   3.347   5.431   6.434
 8099TIP3    H224241   3.414   5.365   6.315
 8100TIP3   OH224242   2.453   3.459   3.802
 8100TIP3    H124243   2.378   3.401   3.813
 8100TIP3    H224244   2.466   3.498   3.888
 8101TIP3   OH224245   8.190   0.219   0.857
 8101TIP3    H124246   8.146   0.293   0.817
 8101TIP3    H224247   8.245   0.257   0.925
 8102TIP3   OH224248   1.944   1.735   2.791
 8102TIP3    H124249   2.013   1.793   2.825
 8102TIP3    H224250   1.873   1.794   2.766
 8103TIP3   OH224251   6.081   5.458   0.328
 8103TIP3    H124252   5.998   5.420   0.300
 8103TIP3    H224253   6.103   5.412   0.409
 8104TIP3   OH224254   6.217   5.341   4.808
 8104TIP3    H124255   6.129   5.339   4.845
 8104TIP3    H224256   6.248   5.431   4.824
 8105TIP3   OH224257   4.613   4.373   2.274
 8105TIP3    H124258   4.534   4.375   2.220
 8105TIP3    H224259   4.632   4.280   2.287
 8106TIP3   OH224260   0.502   0.214   3.443
 8106TIP3    H124261   0.457   0.142   3.486
 8106TIP3    H224262   0.518   0.183   3.354
 8107TIP3   OH224263   5.894   6.179   0.569
 8107TIP3    H124264   5.970   6.155   0.622
 8107TIP3    H224265   5.866   6.264   0.603
 8108TIP3   OH224266   2.713   3.475   2.919
 8108TIP3    H124267   2.731   3.544   2.854
 8108TIP3    H224268   2.618   3.462   2.913
 8109TIP3   OH224269   0.529   0.447   4.669
 8109TIP3    H124270   0.506   0.400   4.749
 8109TIP3    H224271   0.453   0.502   4.649
 8110TIP3   OH224272   4.064   1.231   1.433
 8110TIP3    H124273   4.058   1.293   1.505
 8110TIP3    H224274   4.081   1.284   1.356
 8111TIP3   OH224275   7.572   3.217   2.140
 8111TIP3    H124276   7.648   3.165   2.115
 8111TIP3    H224277   7.510   3.205   2.068
 8112TIP3   OH224278   0.142   1.958   4.729
 8112TIP3    H124279   0.132   1.951   4.824
 8112TIP3    H224280   0.089   2.034   4.706
 8113TIP3   OH224281   7.393   3.524   3.303
 8113TIP3    H124282   7.481   3.558   3.317
 8113TIP3    H224283   7.338   3.569   3.367
 8114TIP3   OH224284   6.751   6.112   3.081
 8114TIP3    H124285   6.840   6.085   3.060
 8114TIP3    H224286   6.706   6.032   3.104
 8115TIP3   OH224287   2.042   2.250   2.866
 8115TIP3    H124288   2.065   2.236   2.774
 8115TIP3    H224289   2.067   2.340   2.884
 8116TIP3   OH224290   8.162   0.159   6.090
 8116TIP3    H124291   8.089   0.220   6.083
 8116TIP3    H224292   8.233   0.211   6.128
 8117TIP3   OH224293   7.221   5.078   0.745
 8117TIP3    H124294   7.311   5.106   0.759
 8117TIP3    H224295   7.186   5.065   0.833
 8118TIP3   OH224296   6.013   0.744   3.157
 8118TIP3    H124297   6.057   0.678   3.103
 8118TIP3    H224298   5.979   0.695   3.232
 8119TIP3   OH224299   5.424   3.107   5.916
 8119TIP3    H124300   5.369   3.184   5.930
 8119TIP3    H224301   5.381   3.038   5.966
 8120TIP3   OH224302   3.947   3.289   6.360
 8120TIP3    H124303   3.922   3.237   6.436
 8120TIP3    H224304   4.040   3.272   6.349
 8121TIP3   OH224305   0.128   4.628   0.544
 8121TIP3    H124306   0.181   4.569   0.598
 8121TIP3    H224307   0.096   4.574   0.472
 8122TIP3   OH224308   0.915   2.206   1.435
 8122TIP3    H124309   0.850   2.275   1.427
 8122TIP3    H224310   0.882   2.149   1.505
 8123TIP3   OH224311   7.985   4.522   5.431
 8123TIP3    H124312   8.051   4.510   5.363
 8123TIP3    H224313   7.988   4.440   5.481
 8124TIP3   OH224314   5.001   5.895   4.321
 8124TIP3    H124315   4.924   5.922   4.271
 8124TIP3    H224316   5.075   5.931   4.272
 8125TIP3   OH224317   4.271   5.490   5.306
 8125TIP3    H124318   4.212   5.437   5.253
 8125TIP3    H224319   4.214   5.550   5.354
 8126TIP3   OH224320   2.598   2.946   2.935
 8126TIP3    H124321   2.618   3.036   2.960
 8126TIP3    H224322   2.518   2.953   2.883
 8127TIP3   OH224323   4.575   3.962   6.608
 8127TIP3    H124324   4.597   3.870   6.628
 8127TIP3    H224325   4.635   4.013   6.663
 8128TIP3   OH224326   1.437   1.413   5.851
 8128TIP3    H124327   1.504   1.454   5.796
 8128TIP3    H224328   1.452   1.319   5.843
 8129TIP3   OH224329   7.717   7.087   4.871
 8129TIP3    H124330   7.630   7.116   4.845
 8129TIP3    H224331   7.713   6.992   4.867
 8130TIP3   OH224332   3.892   6.923   6.646
 8130TIP3    H124333   3.828   6.866   6.689
 8130TIP3    H224334   3.974   6.905   6.691
 8131TIP3   OH224335   0.579   4.885   6.497
 8131TIP3    H124336   0.581   4.851   6.408
 8131TIP3    H224337   0.540   4.972   6.489
 8132TIP3   OH224338   2.207   2.313   1.147
 8132TIP3    H124339   2.139   2.353   1.200
 8132TIP3    H224340   2.242   2.243   1.202
 8133TIP3   OH224341   3.544   3.614   3.069
 8133TIP3    H124342   3.474   3.551   3.086
 8133TIP3    H224343   3.536   3.678   3.140
 8134TIP3   OH224344   5.806   5.755   0.266
 8134TIP3    H124345   5.845   5.834   0.303
 8134TIP3    H224346   5.881   5.698   0.245
 8135TIP3   OH224347   6.529   1.681   1.717
 8135TIP3    H124348   6.588   1.643   1.652
 8135TIP3    H224349   6.455   1.714   1.667
 8136TIP3   OH224350   5.434   0.686   5.209
 8136TIP3    H124351   5.457   0.671   5.117
 8136TIP3    H224352   5.468   0.608   5.254
 8137TIP3   OH224353   6.082   3.799   3.506
 8137TIP3    H124354   5.988   3.794   3.491
 8137TIP3    H224355   6.115   3.712   3.483
 8138TIP3   OH224356   2.255   4.498   5.018
 8138TIP3    H124357   2.273   4.545   5.099
 8138TIP3    H224358   2.230   4.566   4.956
 8139TIP3   OH224359   6.941   0.166   5.695
 8139TIP3    H124360   6.856   0.151   5.736
 8139TIP3    H224361   6.926   0.239   5.635
 8140TIP3   OH224362   0.101   5.464   4.524
 8140TIP3    H124363   0.014   5.428   4.507
 8140TIP3    H224364   0.138   5.481   4.437
 8141TIP3   OH224365   1.287   3.478   0.020
 8141TIP3    H124366   1.352   3.414   0.050
 8141TIP3    H224367   1.252   3.516   0.101
 8142TIP3   OH224368   2.123   1.461   3.725
 8142TIP3    H124369   2.203   1.436   3.771
 8142TIP3    H224370   2.078   1.520   3.786
 8143TIP3   OH224371   3.374   2.829   3.008
 8143TIP3    H124372   3.289   2.792   3.028
 8143TIP3    H224373   3.355   2.902   2.949
 8144TIP3   OH224374   5.426   7.037   4.620
 8144TIP3    H124375   5.441   7.016   4.528
 8144TIP3    H224376   5.340   7.078   4.621
 8145TIP3   OH224377   5.623   3.701   3.658
 8145TIP3    H124378   5.528   3.700   3.645
 8145TIP3    H224379   5.643   3.615   3.694
 8146TIP3   OH224380   3.869   7.564   6.378
 8146TIP3    H124381   3.777   7.566   6.405
 8146TIP3    H224382   3.875   7.629   6.309
 8147TIP3   OH224383   4.950   5.155   2.881
 8147TIP3    H124384   4.989   5.181   2.797
 8147TIP3    H224385   4.861   5.130   2.859
 8148TIP3   OH224386   0.317   6.705   2.570
 8148TIP3    H124387   0.361   6.737   2.491
 8148TIP3    H224388   0.299   6.784   2.621
 8149TIP3   OH224389   0.341   4.123   1.257
 8149TIP3    H124390   0.248   4.101   1.254
 8149TIP3    H224391   0.345   4.204   1.307
 8150TIP3   OH224392   4.643   0.684   5.846
 8150TIP3    H124393   4.688   0.750   5.898
 8150TIP3    H224394   4.709   0.656   5.782
 8151TIP3   OH224395   5.951   1.177   1.690
 8151TIP3    H124396   5.878   1.238   1.704
 8151TIP3    H224397   5.940   1.110   1.758
 8152TIP3   OH224398   0.580   3.722   0.815
 8152TIP3    H124399   0.586   3.812   0.783
 8152TIP3    H224400   0.667   3.684   0.799
 8153TIP3   OH224401   8.260   5.907   2.129
 8153TIP3    H124402   8.299   5.973   2.187
 8153TIP3    H224403   8.165   5.920   2.139
 8154TIP3   OH224404   5.095   2.863   1.100
 8154TIP3    H124405   5.129   2.908   1.177
 8154TIP3    H224406   5.135   2.908   1.026
 8155TIP3   OH224407   0.699   6.100   0.250
 8155TIP3    H124408   0.776   6.120   0.198
 8155TIP3    H224409   0.711   6.148   0.332
 8156TIP3   OH224410   3.371   5.955   3.176
 8156TIP3    H124411   3.450   5.913   3.142
 8156TIP3    H224412   3.403   6.014   3.244
 8157TIP3   OH224413   7.804   7.654   0.610
 8157TIP3    H124414   7.895   7.664   0.639
 8157TIP3    H224415   7.762   7.738   0.633
 8158TIP3   OH224416   2.550   0.973   0.876
 8158TIP3    H124417   2.614   1.030   0.833
 8158TIP3    H224418   2.473   0.976   0.819
 8159TIP3   OH224419   1.381   5.766   3.140
 8159TIP3    H124420   1.306   5.707   3.142
 8159TIP3    H224421   1.386   5.796   3.050
 8160TIP3   OH224422   3.044   5.661   2.014
 8160TIP3    H124423   3.014   5.615   2.093
 8160TIP3    H224424   3.085   5.593   1.961
 8161TIP3   OH224425   3.136   0.412   5.168
 8161TIP3    H124426   3.167   0.355   5.098
 8161TIP3    H224427   3.045   0.433   5.144
 8162TIP3   OH224428   6.062   0.280   2.000
 8162TIP3    H124429   5.971   0.265   2.023
 8162TIP3    H224430   6.105   0.196   2.013
 8163TIP3   OH224431   7.581   0.260   4.389
 8163TIP3    H124432   7.620   0.339   4.351
 8163TIP3    H224433   7.495   0.253   4.348
 8164TIP3   OH224434   5.404   1.041   6.346
 8164TIP3    H124435   5.449   1.027   6.262
 8164TIP3    H224436   5.380   0.953   6.375
 8165TIP3   OH224437   7.050   7.361   3.423
 8165TIP3    H124438   7.060   7.442   3.373
 8165TIP3    H224439   7.050   7.292   3.358
 8166TIP3   OH224440   0.524   5.771   0.032
 8166TIP3    H124441   0.445   5.723   0.008
 8166TIP3    H224442   0.526   5.845  -0.028
 8167TIP3   OH224443   4.682   6.755   5.973
 8167TIP3    H124444   4.655   6.739   5.883
 8167TIP3    H224445   4.601   6.779   6.019
 8168TIP3   OH224446   5.620   1.237   3.062
 8168TIP3    H124447   5.649   1.269   3.148
 8168TIP3    H224448   5.529   1.265   3.056
 8169TIP3   OH224449   1.920   5.804   6.182
 8169TIP3    H124450   1.824   5.812   6.178
 8169TIP3    H224451   1.949   5.886   6.222
 8170TIP3   OH224452   5.399   6.890   3.717
 8170TIP3    H124453   5.355   6.830   3.657
 8170TIP3    H224454   5.338   6.900   3.791
 8171TIP3   OH224455   0.158   2.400   1.241
 8171TIP3    H124456   0.112   2.316   1.230
 8171TIP3    H224457   0.198   2.394   1.328
 8172TIP3   OH224458   7.256   3.125   5.060
 8172TIP3    H124459   7.171   3.108   5.101
 8172TIP3    H224460   7.255   3.072   4.980
 8173TIP3   OH224461   6.176   0.112   2.891
 8173TIP3    H124462   6.250   0.148   2.843
 8173TIP3    H224463   6.104   0.172   2.873
 8174TIP3   OH224464   6.895   6.821   6.624
 8174TIP3    H124465   6.813   6.870   6.612
 8174TIP3    H224466   6.904   6.770   6.544
 8175TIP3   OH224467   6.319   4.770   6.294
 8175TIP3    H124468   6.345   4.681   6.317
 8175TIP3    H224469   6.386   4.825   6.334
 8176TIP3   OH224470   6.898   3.745   4.570
 8176TIP3    H124471   6.963   3.728   4.638
 8176TIP3    H224472   6.817   3.764   4.617
 8177TIP3   OH224473   1.064   7.500   5.362
 8177TIP3    H124474   1.000   7.567   5.339
 8177TIP3    H224475   1.144   7.549   5.381
 8178TIP3   OH224476   7.997   0.493   1.231
 8178TIP3    H124477   8.078   0.461   1.192
 8178TIP3    H224478   7.982   0.578   1.189
 8179TIP3   OH224479   6.168   4.474   5.729
 8179TIP3    H124480   6.120   4.395   5.756
 8179TIP3    H224481   6.125   4.546   5.774
 8180TIP3   OH224482   1.020   5.363   1.160
 8180TIP3    H124483   0.993   5.279   1.122
 8180TIP3    H224484   0.951   5.384   1.223
 8181TIP3   OH224485   5.007   4.601   1.734
 8181TIP3    H124486   4.973   4.512   1.728
 8181TIP3    H224487   5.032   4.611   1.825
 8182TIP3   OH224488   4.439   3.358   6.234
 8182TIP3    H124489   4.486   3.390   6.156
 8182TIP3    H224490   4.507   3.313   6.285
 8183TIP3   OH224491   3.755   2.122   0.217
 8183TIP3    H124492   3.753   2.176   0.296
 8183TIP3    H224493   3.664   2.093   0.206
 8184TIP3   OH224494   3.137   5.777   6.397
 8184TIP3    H124495   3.204   5.845   6.389
 8184TIP3    H224496   3.183   5.695   6.381
 8185TIP3   OH224497   3.408   0.953   4.586
 8185TIP3    H124498   3.319   0.919   4.591
 8185TIP3    H224499   3.462   0.883   4.624
 8186TIP3   OH224500   2.926   6.225   1.807
 8186TIP3    H124501   2.905   6.273   1.727
 8186TIP3    H224502   3.021   6.215   1.805
 8187TIP3   OH224503   0.447   5.751   6.019
 8187TIP3    H124504   0.491   5.728   5.937
 8187TIP3    H224505   0.354   5.743   6.000
 8188TIP3   OH224506   1.404   5.634   4.544
 8188TIP3    H124507   1.458   5.612   4.620
 8188TIP3    H224508   1.387   5.550   4.502
 8189TIP3   OH224509   8.178   3.548   0.414
 8189TIP3    H124510   8.181   3.597   0.497
 8189TIP3    H224511   8.085   3.528   0.402
 8190TIP3   OH224512   5.259   0.783   2.323
 8190TIP3    H124513   5.247   0.830   2.241
 8190TIP3    H224514   5.225   0.842   2.390
 8191TIP3   OH224515   1.403   7.014   6.142
 8191TIP3    H124516   1.458   7.025   6.220
 8191TIP3    H224517   1.324   7.063   6.161
 8192TIP3   OH224518   5.755   0.793   3.029
 8192TIP3    H124519   5.817   0.791   3.101
 8192TIP3    H224520   5.781   0.721   2.972
 8193TIP3   OH224521   0.292   2.827   3.981
 8193TIP3    H124522   0.203   2.828   3.946
 8193TIP3    H224523   0.285   2.869   4.067
 8194TIP3   OH224524   6.142   2.972   3.995
 8194TIP3    H124525   6.215   2.961   3.934
 8194TIP3    H224526   6.103   3.056   3.971
 8195TIP3   OH224527   6.129   7.209   6.731
 8195TIP3    H124528   6.038   7.238   6.729
 8195TIP3    H224529   6.132   7.137   6.667
 8196TIP3   OH224530   2.265   2.557   4.073
 8196TIP3    H124531   2.222   2.474   4.051
 8196TIP3    H224532   2.234   2.577   4.161
 8197TIP3   OH224533   2.568   1.847   6.717
 8197TIP3    H124534   2.552   1.773   6.659
 8197TIP3    H224535   2.510   1.916   6.684
 8198TIP3   OH224536   0.497   6.767   2.847
 8198TIP3    H124537   0.524   6.818   2.923
 8198TIP3    H224538   0.484   6.832   2.778
 8199TIP3   OH224539   3.968   3.525   4.275
 8199TIP3    H124540   4.017   3.578   4.339
 8199TIP3    H224541   3.888   3.500   4.321
 8200TIP3   OH224542   4.623   0.232   3.072
 8200TIP3    H124543   4.666   0.147   3.080
 8200TIP3    H224544   4.691   0.296   3.093
 8201TIP3   OH224545   1.108   7.570   1.108
 8201TIP3    H124546   1.065   7.601   1.187
 8201TIP3    H224547   1.073   7.625   1.038
 8202TIP3   OH224548   4.603   0.121   5.239
 8202TIP3    H124549   4.548   0.077   5.304
 8202TIP3    H224550   4.647   0.050   5.194
 8203TIP3   OH224551   8.178   5.148   5.534
 8203TIP3    H124552   8.088   5.142   5.502
 8203TIP3    H224553   8.171   5.197   5.616
 8204TIP3   OH224554   6.030   5.498   3.796
 8204TIP3    H124555   6.101   5.512   3.858
 8204TIP3    H224556   5.974   5.433   3.838
 8205TIP3   OH224557   2.442   3.461   2.925
 8205TIP3    H124558   2.367   3.516   2.906
 8205TIP3    H224559   2.412   3.402   2.995
 8206TIP3   OH224560   4.052   6.828   2.311
 8206TIP3    H124561   4.000   6.798   2.236
 8206TIP3    H224562   4.120   6.761   2.321
 8207TIP3   OH224563   7.841   2.464   4.588
 8207TIP3    H124564   7.848   2.486   4.495
 8207TIP3    H224565   7.769   2.402   4.593
 8208TIP3   OH224566   2.767   4.549   1.106
 8208TIP3    H124567   2.837   4.484   1.105
 8208TIP3    H224568   2.700   4.512   1.164
 8209TIP3   OH224569   2.863   6.934   6.432
 8209TIP3    H124570   2.806   6.941   6.355
 8209TIP3    H224571   2.949   6.913   6.397
 8210TIP3   OH224572   2.204   1.200   0.970
 8210TIP3    H124573   2.290   1.186   1.011
 8210TIP3    H224574   2.171   1.280   1.011
 8211TIP3   OH224575   3.378   7.063   4.468
 8211TIP3    H124576   3.434   7.052   4.391
 8211TIP3    H224577   3.293   7.089   4.432
 8212TIP3   OH224578   3.036   1.709   6.720
 8212TIP3    H124579   3.002   1.675   6.637
 8212TIP3    H224580   2.958   1.722   6.774
 8213TIP3   OH224581   5.510   4.305   5.982
 8213TIP3    H124582   5.545   4.355   5.908
 8213TIP3    H224583   5.437   4.255   5.946
 8214TIP3   OH224584   6.395   2.065   5.295
 8214TIP3    H124585   6.478   2.034   5.258
 8214TIP3    H224586   6.421   2.119   5.370
 8215TIP3   OH224587   7.534   6.313   2.791
 8215TIP3    H124588   7.607   6.265   2.831
 8215TIP3    H224589   7.574   6.393   2.757
 8216TIP3   OH224590   2.133   2.113   0.433
 8216TIP3    H124591   2.173   2.199   0.421
 8216TIP3    H224592   2.060   2.129   0.493
 8217TIP3   OH224593   4.652   0.697   2.980
 8217TIP3    H124594   4.703   0.764   3.025
 8217TIP3    H224595   4.711   0.664   2.912
 8218TIP3   OH224596   2.847   4.778   3.944
 8218TIP3    H124597   2.789   4.708   3.914
 8218TIP3    H224598   2.884   4.815   3.864
 8219TIP3   OH224599   6.637   2.450   0.912
 8219TIP3    H124600   6.629   2.380   0.848
 8219TIP3    H224601   6.683   2.410   0.985
 8220TIP3   OH224602   3.754   5.902   0.611
 8220TIP3    H124603   3.676   5.953   0.591
 8220TIP3    H224604   3.796   5.888   0.526
 8221TIP3   OH224605   6.345   2.527   3.944
 8221TIP3    H124606   6.439   2.543   3.950
 8221TIP3    H224607   6.322   2.553   3.855
 8222TIP3   OH224608   0.561   1.561   4.741
 8222TIP3    H124609   0.468   1.538   4.744
 8222TIP3    H224610   0.607   1.480   4.759
 8223TIP3   OH224611   7.450   7.703   6.324
 8223TIP3    H124612   7.514   7.750   6.270
 8223TIP3    H224613   7.391   7.661   6.261
 8224TIP3   OH224614   5.785   6.850   0.937
 8224TIP3    H124615   5.806   6.884   0.850
 8224TIP3    H224616   5.859   6.875   0.992
 8225TIP3   OH224617   2.830   2.060   3.950
 8225TIP3    H124618   2.817   2.067   3.856
 8225TIP3    H224619   2.794   1.975   3.973
 8226TIP3   OH224620   2.521   2.259   0.420
 8226TIP3    H124621   2.497   2.272   0.328
 8226TIP3    H224622   2.598   2.201   0.416
 8227TIP3   OH224623   8.228   4.414   1.494
 8227TIP3    H124624   8.149   4.468   1.501
 8227TIP3    H224625   8.212   4.341   1.554
 8228TIP3   OH224626   1.548   3.147   0.953
 8228TIP3    H124627   1.619   3.187   0.904
 8228TIP3    H224628   1.576   3.056   0.967
 8229TIP3   OH224629   2.978   0.588   6.035
 8229TIP3    H124630   3.047   0.643   6.072
 8229TIP3    H224631   2.920   0.649   5.990
 8230TIP3   OH224632   4.544   7.537   5.869
 8230TIP3    H124633   4.485   7.568   5.800
 8230TIP3    H224634   4.562   7.446   5.845
 8231TIP3   OH224635   2.270   0.747   2.068
 8231TIP3    H124636   2.362   0.769   2.080
 8231TIP3    H224637   2.230   0.762   2.154
 8232TIP3   OH224638   3.407   0.293   3.416
 8232TIP3    H124639   3.363   0.243   3.486
 8232TIP3    H224640   3.337   0.344   3.375
 8233TIP3   OH224641   7.103   1.187   0.521
 8233TIP3    H124642   7.193   1.206   0.495
 8233TIP3    H224643   7.051   1.207   0.444
 8234TIP3   OH224644   4.906   2.840   3.132
 8234TIP3    H124645   4.983   2.824   3.077
 8234TIP3    H224646   4.844   2.771   3.108
 8235TIP3   OH224647   7.515   0.330   5.881
 8235TIP3    H124648   7.472   0.319   5.966
 8235TIP3    H224649   7.475   0.409   5.844
 8236TIP3   OH224650   6.338   1.845   4.630
 8236TIP3    H124651   6.373   1.793   4.703
 8236TIP3    H224652   6.368   1.934   4.647
 8237TIP3   OH224653   6.204   4.157   2.375
 8237TIP3    H124654   6.167   4.192   2.294
 8237TIP3    H224655   6.141   4.091   2.403
 8238TIP3   OH224656   7.055   3.445   0.703
 8238TIP3    H124657   7.022   3.462   0.615
 8238TIP3    H224658   7.043   3.351   0.715
 8239TIP3   OH224659   5.304   5.104   3.978
 8239TIP3    H124660   5.286   5.018   4.015
 8239TIP3    H224661   5.223   5.153   3.990
 8240TIP3   OH224662   0.348   4.979   0.741
 8240TIP3    H124663   0.440   4.997   0.760
 8240TIP3    H224664   0.300   5.015   0.816
 8241TIP3   OH224665   4.364   5.808   6.566
 8241TIP3    H124666   4.349   5.866   6.491
 8241TIP3    H224667   4.444   5.842   6.607
 8242TIP3   OH224668   2.523   0.745   1.555
 8242TIP3    H124669   2.512   0.650   1.552
 8242TIP3    H224670   2.613   0.758   1.584
 8243TIP3   OH224671   3.996   5.777   0.931
 8243TIP3    H124672   4.036   5.862   0.951
 8243TIP3    H224673   3.918   5.774   0.987
 8244TIP3   OH224674   2.113   5.738   2.355
 8244TIP3    H124675   2.052   5.736   2.429
 8244TIP3    H224676   2.173   5.810   2.375
 8245TIP3   OH224677   8.295   5.795   1.878
 8245TIP3    H124678   8.231   5.732   1.844
 8245TIP3    H224679   8.259   5.823   1.962
 8246TIP3   OH224680   4.030   5.878   5.023
 8246TIP3    H124681   3.988   5.894   5.107
 8246TIP3    H224682   4.045   5.965   4.985
 8247TIP3   OH224683   0.188   3.264   1.160
 8247TIP3    H124684   0.172   3.288   1.251
 8247TIP3    H224685   0.193   3.348   1.114
 8248TIP3   OH224686   6.370   3.352   0.693
 8248TIP3    H124687   6.355   3.412   0.620
 8248TIP3    H224688   6.363   3.265   0.654
 8249TIP3   OH224689   2.957   6.358   0.574
 8249TIP3    H124690   2.900   6.415   0.521
 8249TIP3    H224691   3.039   6.406   0.581
 8250TIP3   OH224692   1.462   2.375   4.790
 8250TIP3    H124693   1.418   2.456   4.766
 8250TIP3    H224694   1.493   2.389   4.879
 8251TIP3   OH224695   2.884   1.959   4.742
 8251TIP3    H124696   2.959   1.974   4.801
 8251TIP3    H224697   2.861   2.046   4.710
 8252TIP3   OH224698   1.160   2.520   0.725
 8252TIP3    H124699   1.091   2.544   0.787
 8252TIP3    H224700   1.208   2.601   0.710
 8253TIP3   OH224701   1.072   6.294   6.228
 8253TIP3    H124702   1.161   6.264   6.210
 8253TIP3    H224703   1.064   6.288   6.324
 8254TIP3   OH224704   0.651   7.519   2.646
 8254TIP3    H124705   0.604   7.447   2.687
 8254TIP3    H224706   0.742   7.505   2.669
 8255TIP3   OH224707   1.779   5.665   5.461
 8255TIP3    H124708   1.795   5.753   5.496
 8255TIP3    H224709   1.701   5.675   5.405
 8256TIP3   OH224710   3.153   0.111   0.314
 8256TIP3    H124711   3.222   0.057   0.273
 8256TIP3    H224712   3.167   0.198   0.277
 8257TIP3   OH224713   8.062   6.953   6.520
 8257TIP3    H124714   8.073   7.031   6.573
 8257TIP3    H224715   7.968   6.932   6.528
 8258TIP3   OH224716   1.680   3.847   6.131
 8258TIP3    H124717   1.725   3.763   6.130
 8258TIP3    H224718   1.596   3.830   6.174
 8259TIP3   OH224719   0.404   1.003   1.281
 8259TIP3    H124720   0.418   0.910   1.300
 8259TIP3    H224721   0.489   1.043   1.301
 8260TIP3   OH224722   2.285   4.127   1.667
 8260TIP3    H124723   2.242   4.195   1.720
 8260TIP3    H224724   2.378   4.141   1.681
 8261TIP3   OH224725   1.963   5.373   2.214
 8261TIP3    H124726   1.922   5.402   2.296
 8261TIP3    H224727   2.041   5.428   2.205
 8262TIP3   OH224728   6.816   5.707   1.911
 8262TIP3    H124729   6.803   5.767   1.985
 8262TIP3    H224730   6.845   5.764   1.840
 8263TIP3   OH224731   4.031   5.482   4.376
 8263TIP3    H124732   4.015   5.447   4.463
 8263TIP3    H224733   4.125   5.477   4.365
 8264TIP3   OH224734   8.106   2.103   4.792
 8264TIP3    H124735   8.189   2.134   4.757
 8264TIP3    H224736   8.052   2.181   4.799
 8265TIP3   OH224737   3.826   0.961   4.234
 8265TIP3    H124738   3.758   1.028   4.239
 8265TIP3    H224739   3.805   0.900   4.304
 8266TIP3   OH224740   5.442   7.619   0.653
 8266TIP3    H124741   5.526   7.574   0.646
 8266TIP3    H224742   5.379   7.551   0.677
 8267TIP3   OH224743   6.666   2.098   1.591
 8267TIP3    H124744   6.718   2.058   1.661
 8267TIP3    H224745   6.613   2.026   1.556
 8268TIP3   OH224746   4.329   7.412   1.068
 8268TIP3    H124747   4.389   7.417   0.994
 8268TIP3    H224748   4.343   7.494   1.116
 8269TIP3   OH224749   5.717   2.490   6.701
 8269TIP3    H124750   5.628   2.525   6.705
 8269TIP3    H224751   5.747   2.493   6.792
 8270TIP3   OH224752   4.798   6.134   3.030
 8270TIP3    H124753   4.776   6.204   3.091
 8270TIP3    H224754   4.855   6.076   3.080
 8271TIP3   OH224755   2.980   0.842   6.194
 8271TIP3    H124756   2.944   0.876   6.112
 8271TIP3    H224757   2.927   0.883   6.262
 8272TIP3   OH224758   4.027   0.119   3.733
 8272TIP3    H124759   4.065   0.031   3.731
 8272TIP3    H224760   3.956   0.112   3.797
 8273TIP3   OH224761   0.217   1.608   2.291
 8273TIP3    H124762   0.126   1.578   2.286
 8273TIP3    H224763   0.255   1.556   2.362
 8274TIP3   OH224764   8.169   4.850   6.635
 8274TIP3    H124765   8.142   4.767   6.595
 8274TIP3    H224766   8.238   4.826   6.696
 8275TIP3   OH224767   7.970   2.107   4.138
 8275TIP3    H124768   7.947   2.072   4.052
 8275TIP3    H224769   7.933   2.195   4.139
 8276TIP3   OH224770   4.764   7.096   0.242
 8276TIP3    H124771   4.802   7.041   0.174
 8276TIP3    H224772   4.821   7.084   0.318
 8277TIP3   OH224773   1.930   2.016   3.798
 8277TIP3    H124774   1.917   2.111   3.794
 8277TIP3    H224775   1.903   1.991   3.886
 8278TIP3   OH224776   0.106   5.820   3.395
 8278TIP3    H124777   0.089   5.786   3.483
 8278TIP3    H224778   0.061   5.904   3.392
 8279TIP3   OH224779   6.016   5.428   5.443
 8279TIP3    H124780   5.992   5.339   5.468
 8279TIP3    H224781   6.093   5.418   5.387
 8280TIP3   OH224782   5.492   6.222   2.407
 8280TIP3    H124783   5.441   6.184   2.478
 8280TIP3    H224784   5.540   6.148   2.370
 8281TIP3   OH224785   5.628   1.555   0.234
 8281TIP3    H124786   5.714   1.596   0.238
 8281TIP3    H224787   5.638   1.473   0.283
 8282TIP3   OH224788   4.936   2.174   3.435
 8282TIP3    H124789   4.993   2.202   3.363
 8282TIP3    H224790   4.913   2.083   3.413
 8283TIP3   OH224791   5.401   5.114   4.613
 8283TIP3    H124792   5.487   5.074   4.623
 8283TIP3    H224793   5.406   5.162   4.530
 8284TIP3   OH224794   4.644   1.183   2.365
 8284TIP3    H124795   4.598   1.101   2.352
 8284TIP3    H224796   4.585   1.250   2.331
 8285TIP3   OH224797   6.594   3.499   6.716
 8285TIP3    H124798   6.604   3.404   6.718
 8285TIP3    H224799   6.522   3.517   6.777
 8286TIP3   OH224800   0.982   0.954   1.185
 8286TIP3    H124801   0.927   0.893   1.233
 8286TIP3    H224802   1.027   1.004   1.252
 8287TIP3   OH224803   1.324   3.525   5.673
 8287TIP3    H124804   1.392   3.573   5.721
 8287TIP3    H224805   1.278   3.592   5.622
 8288TIP3   OH224806   6.122   4.907   1.679
 8288TIP3    H124807   6.184   4.940   1.744
 8288TIP3    H224808   6.124   4.812   1.691
 8289TIP3   OH224809   3.462   5.383   1.777
 8289TIP3    H124810   3.437   5.302   1.733
 8289TIP3    H224811   3.532   5.358   1.836
 8290TIP3   OH224812   3.632   2.348   0.936
 8290TIP3    H124813   3.668   2.261   0.950
 8290TIP3    H224814   3.570   2.361   1.008
 8291TIP3   OH224815   7.834   6.535   5.911
 8291TIP3    H124816   7.926   6.544   5.885
 8291TIP3    H224817   7.837   6.480   5.989
 8292TIP3   OH224818   7.482   1.761   1.036
 8292TIP3    H124819   7.446   1.692   1.091
 8292TIP3    H224820   7.445   1.842   1.072
 8293TIP3   OH224821   5.321   2.856   1.632
 8293TIP3    H124822   5.280   2.897   1.708
 8293TIP3    H224823   5.405   2.902   1.622
 8294TIP3   OH224824   1.293   2.722   2.575
 8294TIP3    H124825   1.363   2.787   2.584
 8294TIP3    H224826   1.328   2.643   2.617
 8295TIP3   OH224827   0.361   3.507   2.889
 8295TIP3    H124828   0.311   3.435   2.851
 8295TIP3    H224829   0.429   3.464   2.941
 8296TIP3   OH224830   2.449   1.600   5.206
 8296TIP3    H124831   2.424   1.640   5.289
 8296TIP3    H224832   2.534   1.638   5.185
 8297TIP3   OH224833   2.764   2.986   2.500
 8297TIP3    H124834   2.743   2.893   2.510
 8297TIP3    H224835   2.745   3.024   2.586
 8298TIP3   OH224836   4.151   6.647   1.165
 8298TIP3    H124837   4.092   6.582   1.205
 8298TIP3    H224838   4.180   6.701   1.239
 8299TIP3   OH224839   5.854   1.753   6.520
 8299TIP3    H124840   5.806   1.677   6.487
 8299TIP3    H224841   5.946   1.726   6.519
 8300TIP3   OH224842   2.161   7.128   4.107
 8300TIP3    H124843   2.189   7.048   4.062
 8300TIP3    H224844   2.239   7.156   4.154
 8301TIP3   OH224845   4.949   4.499   5.583
 8301TIP3    H124846   4.877   4.436   5.582
 8301TIP3    H224847   4.956   4.529   5.492
 8302TIP3   OH224848   5.777   6.573   0.835
 8302TIP3    H124849   5.740   6.594   0.749
 8302TIP3    H224850   5.785   6.658   0.878
 8303TIP3   OH224851   1.335   2.351   0.071
 8303TIP3    H124852   1.387   2.271   0.070
 8303TIP3    H224853   1.245   2.321   0.078
 8304TIP3   OH224854   5.660   5.170   0.113
 8304TIP3    H124855   5.656   5.131   0.026
 8304TIP3    H224856   5.594   5.239   0.111
 8305TIP3   OH224857   6.997   0.071   3.401
 8305TIP3    H124858   7.012   0.119   3.482
 8305TIP3    H224859   7.018  -0.020   3.423
 8306TIP3   OH224860   3.018   0.657   4.877
 8306TIP3    H124861   3.084   0.620   4.820
 8306TIP3    H224862   2.961   0.708   4.819
 8307TIP3   OH224863   8.052   3.867   3.945
 8307TIP3    H124864   8.101   3.805   3.999
 8307TIP3    H224865   8.034   3.941   4.004
 8308TIP3   OH224866   1.853   4.999   4.837
 8308TIP3    H124867   1.840   5.032   4.926
 8308TIP3    H224868   1.836   4.905   4.843
 8309TIP3   OH224869   6.430   3.074   1.659
 8309TIP3    H124870   6.391   3.148   1.612
 8309TIP3    H224871   6.452   3.011   1.590
 8310TIP3   OH224872   3.937   4.440   1.841
 8310TIP3    H124873   3.874   4.368   1.848
 8310TIP3    H224874   4.022   4.398   1.847
 8311TIP3   OH224875   6.061   5.524   1.453
 8311TIP3    H124876   6.099   5.436   1.446
 8311TIP3    H224877   6.022   5.526   1.540
 8312TIP3   OH224878   4.260   3.516   3.028
 8312TIP3    H124879   4.307   3.434   3.043
 8312TIP3    H224880   4.308   3.580   3.081
 8313TIP3   OH224881   1.732   6.092   5.585
 8313TIP3    H124882   1.669   6.100   5.515
 8313TIP3    H224883   1.783   6.014   5.563
 8314TIP3   OH224884   5.584   1.471   4.853
 8314TIP3    H124885   5.601   1.490   4.761
 8314TIP3    H224886   5.671   1.468   4.894
 8315TIP3   OH224887   1.605   2.077   4.023
 8315TIP3    H124888   1.662   2.001   4.019
 8315TIP3    H224889   1.598   2.107   3.932
 8316TIP3   OH224890   7.235   5.764   0.446
 8316TIP3    H124891   7.304   5.830   0.440
 8316TIP3    H224892   7.213   5.743   0.355
 8317TIP3   OH224893   1.504   4.621   1.444
 8317TIP3    H124894   1.448   4.676   1.388
 8317TIP3    H224895   1.572   4.589   1.385
 8318TIP3   OH224896   4.998   4.140   1.504
 8318TIP3    H124897   4.918   4.158   1.553
 8318TIP3    H224898   4.968   4.094   1.425
 8319TIP3   OH224899   0.668   0.930   5.181
 8319TIP3    H124900   0.644   1.019   5.204
 8319TIP3    H224901   0.737   0.906   5.244
 8320TIP3   OH224902   4.753   0.267   2.459
 8320TIP3    H124903   4.745   0.334   2.528
 8320TIP3    H224904   4.814   0.203   2.495
 8321TIP3   OH224905   6.230   2.319   4.848
 8321TIP3    H124906   6.279   2.310   4.767
 8321TIP3    H224907   6.297   2.317   4.917
 8322TIP3   OH224908   5.830   3.457   2.787
 8322TIP3    H124909   5.808   3.451   2.694
 8322TIP3    H224910   5.885   3.535   2.793
 8323TIP3   OH224911   7.741   1.197   2.294
 8323TIP3    H124912   7.656   1.225   2.258
 8323TIP3    H224913   7.795   1.276   2.289
 8324TIP3   OH224914   4.281   3.775   1.961
 8324TIP3    H124915   4.286   3.821   1.877
 8324TIP3    H224916   4.218   3.826   2.013
 8325TIP3   OH224917   7.219   4.451   1.790
 8325TIP3    H124918   7.310   4.480   1.787
 8325TIP3    H224919   7.220   4.363   1.753
 8326TIP3   OH224920   5.215   0.370   6.562
 8326TIP3    H124921   5.242   0.281   6.584
 8326TIP3    H224922   5.242   0.381   6.471
 8327TIP3   OH224923   3.548   1.895   3.459
 8327TIP3    H124924   3.482   1.929   3.399
 8327TIP3    H224925   3.593   1.973   3.492
 8328TIP3   OH224926   2.570   4.193   3.897
 8328TIP3    H124927   2.518   4.171   3.819
 8328TIP3    H224928   2.509   4.239   3.954
 8329TIP3   OH224929   7.096   3.688   3.074
 8329TIP3    H124930   7.149   3.744   3.131
 8329TIP3    H224931   7.157   3.655   3.009
 8330TIP3   OH224932   0.717   5.114   5.000
 8330TIP3    H124933   0.670   5.180   4.949
 8330TIP3    H224934   0.651   5.048   5.021
 8331TIP3   OH224935   3.965   6.462   0.082
 8331TIP3    H124936   3.875   6.467   0.047
 8331TIP3    H224937   4.020   6.486   0.007
 8332TIP3   OH224938   1.087   0.077   1.583
 8332TIP3    H124939   1.177   0.090   1.553
 8332TIP3    H224940   1.095   0.017   1.657
 8333TIP3   OH224941   0.213   6.850   4.279
 8333TIP3    H124942   0.240   6.808   4.361
 8333TIP3    H224943   0.178   6.779   4.226
 8334TIP3   OH224944   2.438   6.827   3.105
 8334TIP3    H124945   2.496   6.878   3.162
 8334TIP3    H224946   2.395   6.893   3.050
 8335TIP3   OH224947   5.798   2.912   4.047
 8335TIP3    H124948   5.831   2.911   4.137
 8335TIP3    H224949   5.785   2.819   4.026
 8336TIP3   OH224950   3.882   0.681   0.126
 8336TIP3    H124951   3.890   0.639   0.211
 8336TIP3    H224952   3.788   0.679   0.107
 8337TIP3   OH224953   4.198   7.637   5.414
 8337TIP3    H124954   4.214   7.726   5.384
 8337TIP3    H224955   4.152   7.648   5.498
 8338TIP3   OH224956   6.219   5.329   2.985
 8338TIP3    H124957   6.244   5.237   2.978
 8338TIP3    H224958   6.149   5.330   3.051
 8339TIP3   OH224959   2.995   0.217   6.367
 8339TIP3    H124960   3.043   0.265   6.300
 8339TIP3    H224961   2.903   0.228   6.344
 8340TIP3   OH224962   5.296   1.358   4.517
 8340TIP3    H124963   5.310   1.433   4.460
 8340TIP3    H224964   5.328   1.386   4.603
 8341TIP3   OH224965   1.460   1.827   2.265
 8341TIP3    H124966   1.409   1.907   2.260
 8341TIP3    H224967   1.449   1.796   2.355
 8342TIP3   OH224968   2.868   7.363   4.393
 8342TIP3    H124969   2.851   7.432   4.458
 8342TIP3    H224970   2.885   7.410   4.312
 8343TIP3   OH224971   7.457   6.892   3.048
 8343TIP3    H124972   7.432   6.922   2.961
 8343TIP3    H224973   7.536   6.941   3.069
 8344TIP3   OH224974   3.678   6.969   0.906
 8344TIP3    H124975   3.712   7.041   0.853
 8344TIP3    H224976   3.747   6.951   0.970
 8345TIP3   OH224977   1.180   3.750   6.687
 8345TIP3    H124978   1.116   3.806   6.729
 8345TIP3    H224979   1.202   3.684   6.754
 8346TIP3   OH224980   8.189   3.719   3.270
 8346TIP3    H124981   8.097   3.713   3.244
 8346TIP3    H224982   8.188   3.697   3.363
 8347TIP3   OH224983   2.937   5.917   1.991
 8347TIP3    H124984   2.953   5.825   2.014
 8347TIP3    H224985   2.842   5.927   1.993
 8348TIP3   OH224986   4.770   3.016   4.422
 8348TIP3    H124987   4.790   3.054   4.337
 8348TIP3    H224988   4.675   3.030   4.433
 8349TIP3   OH224989   7.288   2.836   4.111
 8349TIP3    H124990   7.277   2.929   4.092
 8349TIP3    H224991   7.222   2.792   4.056
 8350TIP3   OH224992   0.836   4.818   0.302
 8350TIP3    H124993   0.790   4.740   0.335
 8350TIP3    H224994   0.911   4.783   0.255
 8351TIP3   OH224995   4.550   1.672   6.570
 8351TIP3    H124996   4.594   1.757   6.579
 8351TIP3    H224997   4.459   1.690   6.595
 8352TIP3   OH224998   5.814   2.486   5.434
 8352TIP3    H124999   5.876   2.432   5.386
 8352TIP3    H225000   5.853   2.496   5.521
 8353TIP3   OH225001   6.663   6.141   3.792
 8353TIP3    H125002   6.603   6.174   3.726
 8353TIP3    H225003   6.676   6.215   3.852
 8354TIP3   OH225004   0.264   4.617   1.475
 8354TIP3    H125005   0.293   4.539   1.523
 8354TIP3    H225006   0.170   4.605   1.463
 8355TIP3   OH225007   2.736   0.862   0.031
 8355TIP3    H125008   2.715   0.947  -0.009
 8355TIP3    H225009   2.758   0.806  -0.043
 8356TIP3   OH225010   1.300   5.819   3.686
 8356TIP3    H125011   1.357   5.774   3.624
 8356TIP3    H225012   1.351   5.824   3.766
 8357TIP3   OH225013   1.403   3.270   5.956
 8357TIP3    H125014   1.420   3.198   6.018
 8357TIP3    H225015   1.380   3.226   5.874
 8358TIP3   OH225016   1.046   5.514   2.335
 8358TIP3    H125017   0.979   5.464   2.287
 8358TIP3    H225018   1.117   5.451   2.347
 8359TIP3   OH225019   3.281   0.450   0.334
 8359TIP3    H125020   3.215   0.395   0.290
 8359TIP3    H225021   3.328   0.493   0.263
 8360TIP3   OH225022   5.917   3.604   0.663
 8360TIP3    H125023   5.965   3.657   0.600
 8360TIP3    H225024   5.874   3.537   0.610
 8361TIP3   OH225025   5.602   6.655   4.216
 8361TIP3    H125026   5.578   6.747   4.205
 8361TIP3    H225027   5.569   6.631   4.302
 8362TIP3   OH225028   4.643   3.819   5.954
 8362TIP3    H125029   4.730   3.795   5.922
 8362TIP3    H225030   4.638   3.778   6.041
 8363TIP3   OH225031   5.650   1.182   5.782
 8363TIP3    H125032   5.586   1.121   5.818
 8363TIP3    H225033   5.600   1.260   5.760
 8364TIP3   OH225034   3.994   6.653   5.075
 8364TIP3    H125035   3.902   6.639   5.097
 8364TIP3    H225036   3.994   6.730   5.019
 8365TIP3   OH225037   7.219   4.601   4.532
 8365TIP3    H125038   7.233   4.647   4.449
 8365TIP3    H225039   7.276   4.648   4.594
 8366TIP3   OH225040   0.270   6.137   5.616
 8366TIP3    H125041   0.233   6.056   5.651
 8366TIP3    H225042   0.362   6.116   5.598
 8367TIP3   OH225043   4.631   5.199   3.166
 8367TIP3    H125044   4.623   5.128   3.231
 8367TIP3    H225045   4.651   5.154   3.084
 8368TIP3   OH225046   7.960   6.571   2.167
 8368TIP3    H125047   7.987   6.517   2.242
 8368TIP3    H225048   8.012   6.537   2.094
 8369TIP3   OH225049   1.258   5.458   4.995
 8369TIP3    H125050   1.243   5.404   5.072
 8369TIP3    H225051   1.315   5.528   5.026
 8370TIP3   OH225052   8.286   2.473   5.622
 8370TIP3    H125053   8.291   2.423   5.541
 8370TIP3    H225054   8.261   2.561   5.594
 8371TIP3   OH225055   7.740   4.815   0.392
 8371TIP3    H125056   7.835   4.824   0.379
 8371TIP3    H225057   7.706   4.798   0.304
 8372TIP3   OH225058   6.722   2.031   4.579
 8372TIP3    H125059   6.768   2.115   4.576
 8372TIP3    H225060   6.751   1.991   4.661
 8373TIP3   OH225061   6.945   4.417   0.079
 8373TIP3    H125062   6.889   4.391   0.006
 8373TIP3    H225063   7.027   4.445   0.037
 8374TIP3   OH225064   2.636   5.957   3.670
 8374TIP3    H125065   2.691   5.993   3.739
 8374TIP3    H225066   2.661   5.864   3.665
 8375TIP3   OH225067   5.430   1.579   0.912
 8375TIP3    H125068   5.369   1.653   0.903
 8375TIP3    H225069   5.504   1.615   0.960
 8376TIP3   OH225070   4.125   7.678   2.818
 8376TIP3    H125071   4.073   7.685   2.738
 8376TIP3    H225072   4.117   7.764   2.860
 8377TIP3   OH225073   1.834   6.094   2.794
 8377TIP3    H125074   1.872   6.117   2.878
 8377TIP3    H225075   1.855   6.001   2.782
 8378TIP3   OH225076   2.137   1.123   3.101
 8378TIP3    H125077   2.044   1.139   3.121
 8378TIP3    H225078   2.146   1.146   3.009
 8379TIP3   OH225079   4.108   6.558   2.469
 8379TIP3    H125080   4.128   6.468   2.446
 8379TIP3    H225081   4.187   6.590   2.513
 8380TIP3   OH225082   5.833   1.781   1.775
 8380TIP3    H125083   5.779   1.819   1.706
 8380TIP3    H225084   5.796   1.815   1.856
 8381TIP3   OH225085   1.042   6.546   6.455
 8381TIP3    H125086   1.094   6.624   6.437
 8381TIP3    H225087   1.105   6.474   6.445
 8382TIP3   OH225088   6.858   1.034   6.630
 8382TIP3    H125089   6.765   1.035   6.653
 8382TIP3    H225090   6.862   1.074   6.543
 8383TIP3   OH225091   2.870   0.327   3.089
 8383TIP3    H125092   2.814   0.251   3.103
 8383TIP3    H225093   2.838   0.367   3.009
 8384TIP3   OH225094   2.188   5.380   3.328
 8384TIP3    H125095   2.280   5.406   3.335
 8384TIP3    H225096   2.164   5.353   3.417
 8385TIP3   OH225097   2.373   2.190   1.564
 8385TIP3    H125098   2.454   2.152   1.597
 8385TIP3    H225099   2.347   2.253   1.632
 8386TIP3   OH225100   6.017   6.292   6.072
 8386TIP3    H125101   5.996   6.199   6.083
 8386TIP3    H225102   6.041   6.322   6.159
 8387TIP3   OH225103   2.166   2.271   2.544
 8387TIP3    H125104   2.237   2.230   2.495
 8387TIP3    H225105   2.184   2.365   2.539
 8388TIP3   OH225106   2.024   1.554   2.531
 8388TIP3    H125107   2.048   1.500   2.456
 8388TIP3    H225108   1.943   1.516   2.564
 8389TIP3   OH225109   2.005   4.802   4.228
 8389TIP3    H125110   1.951   4.865   4.181
 8389TIP3    H225111   2.058   4.855   4.287
 8390TIP3   OH225112   1.623   3.117   2.716
 8390TIP3    H125113   1.596   3.207   2.700
 8390TIP3    H225114   1.706   3.126   2.763
 8391TIP3   OH225115   6.755   7.098   4.821
 8391TIP3    H125116   6.845   7.105   4.853
 8391TIP3    H225117   6.713   7.178   4.853
 8392TIP3   OH225118   1.773   2.008   4.613
 8392TIP3    H125119   1.686   2.046   4.623
 8392TIP3    H225120   1.827   2.079   4.579
 8393TIP3   OH225121   7.174   1.318   3.511
 8393TIP3    H125122   7.101   1.259   3.492
 8393TIP3    H225123   7.244   1.260   3.540
 8394TIP3   OH225124   0.776   2.630   1.576
 8394TIP3    H125125   0.784   2.615   1.482
 8394TIP3    H225126   0.829   2.709   1.592
 8395TIP3   OH225127   5.599   2.783   0.086
 8395TIP3    H125128   5.576   2.868   0.123
 8395TIP3    H225129   5.628   2.731   0.161
 8396TIP3   OH225130   6.670   1.067   5.011
 8396TIP3    H125131   6.594   1.111   5.050
 8396TIP3    H225132   6.634   1.022   4.934
 8397TIP3   OH225133   0.726   4.527   4.555
 8397TIP3    H125134   0.630   4.534   4.548
 8397TIP3    H225135   0.759   4.580   4.483
 8398TIP3   OH225136   3.490   0.701   3.454
 8398TIP3    H125137   3.427   0.712   3.525
 8398TIP3    H225138   3.526   0.614   3.467
 8399TIP3   OH225139   6.749   2.822   5.814
 8399TIP3    H125140   6.737   2.729   5.833
 8399TIP3    H225141   6.789   2.858   5.893
 8400TIP3   OH225142   0.810   5.505   2.767
 8400TIP3    H125143   0.896   5.467   2.785
 8400TIP3    H225144   0.830   5.586   2.719
 8401TIP3   OH225145   1.083   1.347   6.404
 8401TIP3    H125146   1.104   1.441   6.408
 8401TIP3    H225147   1.154   1.305   6.454
 8402TIP3   OH225148   8.178   3.392   5.838
 8402TIP3    H125149   8.252   3.434   5.882
 8402TIP3    H225150   8.118   3.463   5.817
 8403TIP3   OH225151   1.703   4.138   0.725
 8403TIP3    H125152   1.728   4.229   0.706
 8403TIP3    H225153   1.638   4.145   0.795
 8404TIP3   OH225154   5.437   1.780   3.962
 8404TIP3    H125155   5.398   1.707   3.914
 8404TIP3    H225156   5.522   1.795   3.921
 8405TIP3   OH225157   4.932   4.033   5.588
 8405TIP3    H125158   4.843   4.042   5.553
 8405TIP3    H225159   4.929   4.077   5.673
 8406TIP3   OH225160   2.447   6.721   1.763
 8406TIP3    H125161   2.517   6.764   1.715
 8406TIP3    H225162   2.401   6.792   1.808
 8407TIP3   OH225163   6.438   4.911   1.017
 8407TIP3    H125164   6.527   4.874   1.015
 8407TIP3    H225165   6.448   4.995   1.063
 8408TIP3   OH225166   2.847   6.639   6.267
 8408TIP3    H125167   2.856   6.688   6.186
 8408TIP3    H225168   2.916   6.572   6.263
 8409TIP3   OH225169   0.837   5.653   1.184
 8409TIP3    H125170   0.902   5.708   1.227
 8409TIP3    H225171   0.835   5.572   1.235
 8410TIP3   OH225172   2.611   1.389   3.879
 8410TIP3    H125173   2.601   1.394   3.974
 8410TIP3    H225174   2.701   1.356   3.867
 8411TIP3   OH225175   2.541   7.123   4.539
 8411TIP3    H125176   2.455   7.105   4.577
 8411TIP3    H225177   2.536   7.085   4.451
 8412TIP3   OH225178   7.748   3.726   5.718
 8412TIP3    H125179   7.654   3.710   5.731
 8412TIP3    H225180   7.759   3.818   5.739
 8413TIP3   OH225181   3.247   7.042   6.544
 8413TIP3    H125182   3.311   7.002   6.486
 8413TIP3    H225183   3.206   6.969   6.590
 8414TIP3   OH225184   2.716   1.971   3.404
 8414TIP3    H125185   2.754   1.888   3.375
 8414TIP3    H225186   2.744   2.034   3.337
 8415TIP3   OH225187   3.133   2.742   1.396
 8415TIP3    H125188   3.101   2.786   1.475
 8415TIP3    H225189   3.181   2.811   1.348
 8416TIP3   OH225190   7.112   1.010   1.661
 8416TIP3    H125191   7.159   0.976   1.585
 8416TIP3    H225192   7.141   0.955   1.734
 8417TIP3   OH225193   1.371   2.813   3.155
 8417TIP3    H125194   1.446   2.867   3.131
 8417TIP3    H225195   1.396   2.724   3.131
 8418TIP3   OH225196   7.723   5.282   3.745
 8418TIP3    H125197   7.781   5.212   3.715
 8418TIP3    H225198   7.773   5.328   3.812
 8419TIP3   OH225199   4.672   6.489   4.649
 8419TIP3    H125200   4.667   6.409   4.596
 8419TIP3    H225201   4.583   6.502   4.681
 8420TIP3   OH225202   7.792   0.231   2.058
 8420TIP3    H125203   7.814   0.161   2.119
 8420TIP3    H225204   7.876   0.263   2.026
 8421TIP3   OH225205   4.100   6.327   4.121
 8421TIP3    H125206   4.027   6.273   4.090
 8421TIP3    H225207   4.091   6.326   4.216
 8422TIP3   OH225208   6.897   3.874   5.217
 8422TIP3    H125209   6.875   3.923   5.138
 8422TIP3    H225210   6.958   3.932   5.264
 8423TIP3   OH225211   4.796   1.810   1.529
 8423TIP3    H125212   4.788   1.905   1.526
 8423TIP3    H225213   4.887   1.793   1.506
 8424TIP3   OH225214   7.299   1.545   1.662
 8424TIP3    H125215   7.242   1.470   1.678
 8424TIP3    H225216   7.388   1.511   1.674
 8425TIP3   OH225217   2.601   7.713   5.514
 8425TIP3    H125218   2.605   7.680   5.604
 8425TIP3    H225219   2.657   7.791   5.515
 8426TIP3   OH225220   3.218   5.462   5.763
 8426TIP3    H125221   3.130   5.496   5.776
 8426TIP3    H225222   3.204   5.370   5.738
 8427TIP3   OH225223   3.034   5.003   1.449
 8427TIP3    H125224   2.991   4.922   1.420
 8427TIP3    H225225   3.097   4.974   1.515
 8428TIP3   OH225226   7.571   7.517   2.112
 8428TIP3    H125227   7.483   7.501   2.076
 8428TIP3    H225228   7.570   7.476   2.198
 8429TIP3   OH225229   0.649   7.810   0.287
 8429TIP3    H125230   0.695   7.751   0.347
 8429TIP3    H225231   0.711   7.882   0.272
 8430TIP3   OH225232   7.436   6.598   3.037
 8430TIP3    H125233   7.488   6.545   2.977
 8430TIP3    H225234   7.470   6.687   3.027
 8431TIP3   OH225235   6.854   0.676   3.216
 8431TIP3    H125236   6.812   0.710   3.137
 8431TIP3    H225237   6.941   0.716   3.215
 8432TIP3   OH225238   7.136   6.013   5.212
 8432TIP3    H125239   7.106   5.948   5.276
 8432TIP3    H225240   7.120   5.972   5.127
 8433TIP3   OH225241   7.644   6.405   6.633
 8433TIP3    H125242   7.628   6.323   6.587
 8433TIP3    H225243   7.558   6.447   6.637
 8434TIP3   OH225244   5.443   3.722   2.131
 8434TIP3    H125245   5.418   3.706   2.041
 8434TIP3    H225246   5.436   3.817   2.141
 8435TIP3   OH225247   2.196   6.529   3.068
 8435TIP3    H125248   2.107   6.513   3.038
 8435TIP3    H225249   2.237   6.443   3.073
 8436TIP3   OH225250   6.264   5.280   2.693
 8436TIP3    H125251   6.265   5.246   2.783
 8436TIP3    H225252   6.317   5.359   2.697
 8437TIP3   OH225253   3.740   6.322   3.699
 8437TIP3    H125254   3.719   6.298   3.789
 8437TIP3    H225255   3.760   6.239   3.656
 8438TIP3   OH225256   7.950   4.706   4.091
 8438TIP3    H125257   7.879   4.643   4.101
 8438TIP3    H225258   8.015   4.680   4.156
 8439TIP3   OH225259   7.984   7.056   6.119
 8439TIP3    H125260   8.033   7.096   6.047
 8439TIP3    H225261   7.892   7.065   6.095
 8440TIP3   OH225262   6.346   3.725   1.239
 8440TIP3    H125263   6.404   3.717   1.162
 8440TIP3    H225264   6.262   3.752   1.203
 8441TIP3   OH225265   4.332   0.943   4.274
 8441TIP3    H125266   4.334   1.028   4.317
 8441TIP3    H225267   4.257   0.948   4.215
 8442TIP3   OH225268   1.555   5.560   4.769
 8442TIP3    H125269   1.611   5.637   4.773
 8442TIP3    H225270   1.505   5.562   4.851
 8443TIP3   OH225271   6.222   4.483   0.933
 8443TIP3    H125272   6.220   4.578   0.948
 8443TIP3    H225273   6.162   4.447   0.997
 8444TIP3   OH225274   4.547   2.212   2.798
 8444TIP3    H125275   4.594   2.135   2.829
 8444TIP3    H225276   4.597   2.286   2.831
 8445TIP3   OH225277   6.668   6.686   2.076
 8445TIP3    H125278   6.612   6.651   2.007
 8445TIP3    H225279   6.676   6.616   2.140
 8446TIP3   OH225280   6.849   2.318   2.914
 8446TIP3    H125281   6.928   2.291   2.867
 8446TIP3    H225282   6.820   2.396   2.868
 8447TIP3   OH225283   7.992   0.673   4.057
 8447TIP3    H125284   7.911   0.633   4.026
 8447TIP3    H225285   8.060   0.607   4.043
 8448TIP3   OH225286   1.971   6.870   5.773
 8448TIP3    H125287   2.000   6.779   5.781
 8448TIP3    H225288   1.886   6.864   5.731
 8449TIP3   OH225289   1.561   5.432   1.636
 8449TIP3    H125290   1.655   5.416   1.633
 8449TIP3    H225291   1.530   5.376   1.707
 8450TIP3   OH225292   0.676   2.504   5.526
 8450TIP3    H125293   0.767   2.531   5.515
 8450TIP3    H225294   0.681   2.411   5.550
 8451TIP3   OH225295   5.331   5.982   6.575
 8451TIP3    H125296   5.369   5.950   6.657
 8451TIP3    H225297   5.370   5.926   6.507
 8452TIP3   OH225298   5.711   1.243   6.354
 8452TIP3    H125299   5.686   1.150   6.352
 8452TIP3    H225300   5.657   1.284   6.287
 8453TIP3   OH225301   8.064   4.618   0.519
 8453TIP3    H125302   8.050   4.697   0.467
 8453TIP3    H225303   8.003   4.554   0.482
 8454TIP3   OH225304   1.548   0.619   6.763
 8454TIP3    H125305   1.494   0.688   6.725
 8454TIP3    H225306   1.499   0.539   6.748
 8455TIP3   OH225307   1.078   0.830   0.414
 8455TIP3    H125308   1.133   0.909   0.409
 8455TIP3    H225309   0.991   0.863   0.438
 8456TIP3   OH225310   1.012   3.642   2.052
 8456TIP3    H125311   1.086   3.698   2.028
 8456TIP3    H225312   0.962   3.632   1.971
 8457TIP3   OH225313   5.010   6.285   4.958
 8457TIP3    H125314   5.032   6.193   4.943
 8457TIP3    H225315   5.057   6.333   4.889
 8458TIP3   OH225316   1.554   4.053   4.026
 8458TIP3    H125317   1.462   4.050   4.054
 8458TIP3    H225318   1.569   3.969   3.983
 8459TIP3   OH225319   1.553   2.703   3.620
 8459TIP3    H125320   1.489   2.703   3.548
 8459TIP3    H225321   1.512   2.650   3.688
 8460TIP3   OH225322   6.822   1.409   4.499
 8460TIP3    H125323   6.748   1.434   4.443
 8460TIP3    H225324   6.814   1.465   4.576
 8461TIP3   OH225325   5.917   7.505   2.856
 8461TIP3    H125326   5.909   7.455   2.937
 8461TIP3    H225327   5.845   7.568   2.859
 8462TIP3   OH225328   5.158   4.626   3.508
 8462TIP3    H125329   5.126   4.547   3.551
 8462TIP3    H225330   5.115   4.698   3.554
 8463TIP3   OH225331   0.986   4.164   0.138
 8463TIP3    H125332   1.015   4.143   0.227
 8463TIP3    H225333   0.966   4.257   0.140
 8464TIP3   OH225334   1.228   5.057   0.435
 8464TIP3    H125335   1.259   5.147   0.446
 8464TIP3    H225336   1.135   5.060   0.458
 8465TIP3   OH225337   1.444   2.967   4.671
 8465TIP3    H125338   1.450   2.952   4.765
 8465TIP3    H225339   1.356   2.938   4.648
 8466TIP3   OH225340   5.724   5.367   0.993
 8466TIP3    H125341   5.656   5.435   0.997
 8466TIP3    H225342   5.765   5.369   1.079
 8467TIP3   OH225343   2.438   7.797   3.213
 8467TIP3    H125344   2.463   7.729   3.151
 8467TIP3    H225345   2.347   7.818   3.191
 8468TIP3   OH225346   0.970   5.818   3.652
 8468TIP3    H125347   0.965   5.805   3.746
 8468TIP3    H225348   1.059   5.848   3.636
 8469TIP3   OH225349   8.220   3.724   0.188
 8469TIP3    H125350   8.203   3.647   0.244
 8469TIP3    H225351   8.243   3.687   0.103
 8470TIP3   OH225352   4.974   5.186   0.665
 8470TIP3    H125353   4.949   5.234   0.744
 8470TIP3    H225354   4.892   5.149   0.632
 8471TIP3   OH225355   7.424   5.988   1.630
 8471TIP3    H125356   7.358   5.920   1.646
 8471TIP3    H225357   7.374   6.069   1.621
 8472TIP3   OH225358   7.112   0.407   1.011
 8472TIP3    H125359   7.115   0.439   1.101
 8472TIP3    H225360   7.121   0.486   0.958
 8473TIP3   OH225361   6.371   2.586   0.975
 8473TIP3    H125362   6.358   2.563   1.066
 8473TIP3    H225363   6.461   2.557   0.955
 8474TIP3   OH225364   3.123   2.802   6.014
 8474TIP3    H125365   3.030   2.823   6.012
 8474TIP3    H225366   3.137   2.747   5.936
 8475TIP3   OH225367   3.611   7.481   1.951
 8475TIP3    H125368   3.625   7.423   2.026
 8475TIP3    H225369   3.656   7.437   1.879
 8476TIP3   OH225370   5.846   7.229   6.313
 8476TIP3    H125371   5.778   7.238   6.247
 8476TIP3    H225372   5.849   7.135   6.331
 8477TIP3   OH225373   7.827   1.435   6.041
 8477TIP3    H125374   7.782   1.491   6.104
 8477TIP3    H225375   7.801   1.469   5.956
 8478TIP3   OH225376   5.085   7.364   6.603
 8478TIP3    H125377   4.993   7.340   6.592
 8478TIP3    H225378   5.134   7.288   6.570
 8479TIP3   OH225379   7.374   5.793   6.478
 8479TIP3    H125380   7.387   5.729   6.408
 8479TIP3    H225381   7.282   5.783   6.502
 8480TIP3   OH225382   1.690   5.930   6.337
 8480TIP3    H125383   1.726   6.005   6.290
 8480TIP3    H225384   1.597   5.950   6.347
 8481TIP3   OH225385   0.682   7.634   4.994
 8481TIP3    H125386   0.672   7.583   4.914
 8481TIP3    H225387   0.705   7.569   5.061
 8482TIP3   OH225388   5.883   2.578   3.229
 8482TIP3    H125389   5.887   2.662   3.184
 8482TIP3    H225390   5.855   2.516   3.162
 8483TIP3   OH225391   0.341   6.553   4.423
 8483TIP3    H125392   0.292   6.598   4.491
 8483TIP3    H225393   0.278   6.538   4.353
 8484TIP3   OH225394   1.543   5.428   2.626
 8484TIP3    H125395   1.543   5.448   2.720
 8484TIP3    H225396   1.536   5.332   2.622
 8485TIP3   OH225397   1.354   3.990   2.783
 8485TIP3    H125398   1.316   4.051   2.846
 8485TIP3    H225399   1.280   3.959   2.731
 8486TIP3   OH225400   7.406   1.384   2.322
 8486TIP3    H125401   7.379   1.389   2.414
 8486TIP3    H225402   7.384   1.294   2.296
 8487TIP3   OH225403   1.564   3.949   5.831
 8487TIP3    H125404   1.513   3.870   5.849
 8487TIP3    H225405   1.572   3.992   5.916
 8488TIP3   OH225406   2.547   4.984   4.775
 8488TIP3    H125407   2.471   4.979   4.833
 8488TIP3    H225408   2.618   4.945   4.826
 8489TIP3   OH225409   6.128   2.097   1.735
 8489TIP3    H125410   6.185   2.103   1.658
 8489TIP3    H225411   6.121   2.003   1.752
 8490TIP3   OH225412   5.506   6.653   3.925
 8490TIP3    H125413   5.564   6.683   3.995
 8490TIP3    H225414   5.551   6.676   3.844
 8491TIP3   OH225415   6.955   0.485   0.356
 8491TIP3    H125416   6.932   0.453   0.269
 8491TIP3    H225417   7.048   0.465   0.366
 8492TIP3   OH225418   8.003   3.622   5.835
 8492TIP3    H125419   7.916   3.589   5.812
 8492TIP3    H225420   8.002   3.629   5.931
 8493TIP3   OH225421   5.985   0.788   4.418
 8493TIP3    H125422   5.977   0.709   4.366
 8493TIP3    H225423   5.906   0.838   4.400
 8494TIP3   OH225424   0.541   7.054   2.958
 8494TIP3    H125425   0.600   7.106   3.012
 8494TIP3    H225426   0.590   7.037   2.878
 8495TIP3   OH225427   1.405   4.280   5.623
 8495TIP3    H125428   1.430   4.272   5.531
 8495TIP3    H225429   1.330   4.222   5.633
 8496TIP3   OH225430   5.025   5.185   1.246
 8496TIP3    H125431   4.988   5.203   1.332
 8496TIP3    H225432   4.959   5.129   1.203
 8497TIP3   OH225433   3.958   0.414   3.218
 8497TIP3    H125434   3.972   0.485   3.279
 8497TIP3    H225435   3.973   0.334   3.269
 8498TIP3   OH225436   1.619   4.043   1.922
 8498TIP3    H125437   1.700   4.091   1.907
 8498TIP3    H225438   1.640   3.952   1.902
 8499TIP3   OH225439   3.420   6.820   0.928
 8499TIP3    H125440   3.386   6.801   1.015
 8499TIP3    H225441   3.499   6.871   0.944
 8500TIP3   OH225442   4.742   5.163   3.709
 8500TIP3    H125443   4.670   5.189   3.652
 8500TIP3    H225444   4.813   5.223   3.687
 8501TIP3   OH225445   6.303   2.445   6.017
 8501TIP3    H125446   6.244   2.374   6.041
 8501TIP3    H225447   6.360   2.456   6.093
 8502TIP3   OH225448   3.071   6.359   2.053
 8502TIP3    H125449   3.139   6.345   1.987
 8502TIP3    H225450   3.044   6.450   2.042
 8503TIP3   OH225451   8.113   3.568   3.498
 8503TIP3    H125452   8.119   3.473   3.500
 8503TIP3    H225453   8.111   3.594   3.591
 8504TIP3   OH225454   0.161   3.993   2.938
 8504TIP3    H125455   0.161   3.914   2.884
 8504TIP3    H225456   0.180   3.962   3.026
 8505TIP3   OH225457   6.717   6.684   0.985
 8505TIP3    H125458   6.772   6.759   0.964
 8505TIP3    H225459   6.633   6.704   0.944
 8506TIP3   OH225460   7.230   5.446   6.471
 8506TIP3    H125461   7.138   5.458   6.448
 8506TIP3    H225462   7.257   5.368   6.423
 8507TIP3   OH225463   0.829   1.334   0.885
 8507TIP3    H125464   0.746   1.379   0.870
 8507TIP3    H225465   0.818   1.290   0.969
 8508TIP3   OH225466   3.375   5.037   2.617
 8508TIP3    H125467   3.287   5.075   2.622
 8508TIP3    H225468   3.380   5.000   2.529
 8509TIP3   OH225469   1.802   0.815   3.862
 8509TIP3    H125470   1.754   0.740   3.896
 8509TIP3    H225471   1.838   0.858   3.940
 8510TIP3   OH225472   3.587   7.120   6.539
 8510TIP3    H125473   3.590   7.146   6.447
 8510TIP3    H225474   3.560   7.199   6.586
 8511TIP3   OH225475   4.946   0.635   5.967
 8511TIP3    H125476   4.924   0.727   5.984
 8511TIP3    H225477   4.981   0.603   6.050
 8512TIP3   OH225478   0.564   6.882   2.110
 8512TIP3    H125479   0.647   6.913   2.074
 8512TIP3    H225480   0.511   6.961   2.122
 8513TIP3   OH225481   7.725   5.717   5.716
 8513TIP3    H125482   7.793   5.727   5.783
 8513TIP3    H225483   7.695   5.806   5.700
 8514TIP3   OH225484   1.488   1.430   3.286
 8514TIP3    H125485   1.442   1.485   3.223
 8514TIP3    H225486   1.580   1.439   3.263
 8515TIP3   OH225487   8.212   3.546   2.001
 8515TIP3    H125488   8.187   3.578   2.088
 8515TIP3    H225489   8.289   3.492   2.017
 8516TIP3   OH225490   0.940   6.625   2.924
 8516TIP3    H125491   1.013   6.685   2.935
 8516TIP3    H225492   0.868   6.666   2.974
 8517TIP3   OH225493   0.330   4.502   4.865
 8517TIP3    H125494   0.335   4.581   4.812
 8517TIP3    H225495   0.329   4.534   4.956
 8518TIP3   OH225496   4.040   1.674   1.266
 8518TIP3    H125497   4.009   1.731   1.195
 8518TIP3    H225498   3.977   1.688   1.337
 8519TIP3   OH225499   1.771   3.726   2.893
 8519TIP3    H125500   1.729   3.641   2.902
 8519TIP3    H225501   1.740   3.759   2.808
 8520TIP3   OH225502   4.819   5.509   6.594
 8520TIP3    H125503   4.740   5.533   6.545
 8520TIP3    H225504   4.811   5.557   6.677
 8521TIP3   OH225505   0.841   0.748   1.608
 8521TIP3    H125506   0.751   0.715   1.613
 8521TIP3    H225507   0.895   0.669   1.612
 8522TIP3   OH225508   2.369   1.026   0.633
 8522TIP3    H125509   2.420   0.963   0.582
 8522TIP3    H225510   2.403   1.111   0.606
 8523TIP3   OH225511   8.038   6.794   1.733
 8523TIP3    H125512   8.123   6.832   1.712
 8523TIP3    H225513   8.050   6.700   1.722
 8524TIP3   OH225514   6.106   0.382   3.162
 8524TIP3    H125515   6.199   0.407   3.159
 8524TIP3    H225516   6.106   0.297   3.207
 8525TIP3   OH225517   5.738   5.254   2.576
 8525TIP3    H125518   5.701   5.249   2.665
 8525TIP3    H225519   5.700   5.179   2.531
 8526TIP3   OH225520   3.696   4.940   3.676
 8526TIP3    H125521   3.736   5.018   3.714
 8526TIP3    H225522   3.651   4.971   3.598
 8527TIP3   OH225523   5.357   3.631   5.466
 8527TIP3    H125524   5.363   3.630   5.370
 8527TIP3    H225525   5.436   3.586   5.495
 8528TIP3   OH225526   0.603   0.832   2.981
 8528TIP3    H125527   0.548   0.813   2.905
 8528TIP3    H225528   0.602   0.928   2.987
 8529TIP3   OH225529   8.302   1.636   1.609
 8529TIP3    H125530   8.261   1.581   1.677
 8529TIP3    H225531   8.253   1.718   1.613
 8530TIP3   OH225532   1.168   4.439   5.014
 8530TIP3    H125533   1.167   4.521   4.964
 8530TIP3    H225534   1.104   4.454   5.084
 8531TIP3   OH225535   2.703   2.733   2.574
 8531TIP3    H125536   2.713   2.666   2.642
 8531TIP3    H225537   2.609   2.734   2.555
 8532TIP3   OH225538   5.837   3.976   6.293
 8532TIP3    H125539   5.926   3.998   6.320
 8532TIP3    H225540   5.826   3.884   6.316
 8533TIP3   OH225541   5.959   2.894   3.236
 8533TIP3    H125542   6.024   2.823   3.231
 8533TIP3    H225543   5.904   2.881   3.159
 8534TIP3   OH225544   7.395   2.107   4.112
 8534TIP3    H125545   7.427   2.025   4.150
 8534TIP3    H225546   7.320   2.081   4.059
 8535TIP3   OH225547   0.134   0.442   3.535
 8535TIP3    H125548   0.179   0.364   3.568
 8535TIP3    H225549   0.193   0.514   3.556
 8536TIP3   OH225550   5.280   0.839   4.984
 8536TIP3    H125551   5.371   0.869   4.987
 8536TIP3    H225552   5.272   0.781   5.060
 8537TIP3   OH225553   3.019   4.006   3.841
 8537TIP3    H125554   2.945   4.053   3.803
 8537TIP3    H225555   3.040   4.054   3.921
 8538TIP3   OH225556   2.839   5.934   1.190
 8538TIP3    H125557   2.836   6.030   1.181
 8538TIP3    H225558   2.895   5.906   1.117
 8539TIP3   OH225559   4.831   3.842   2.318
 8539TIP3    H125560   4.782   3.848   2.399
 8539TIP3    H225561   4.917   3.808   2.344
 8540TIP3   OH225562   3.026   5.822   0.093
 8540TIP3    H125563   3.109   5.783   0.120
 8540TIP3    H225564   3.049   5.909   0.062
 8541TIP3   OH225565   3.834   7.233   0.299
 8541TIP3    H125566   3.800   7.232   0.389
 8541TIP3    H225567   3.906   7.169   0.300
 8542TIP3   OH225568   3.925   3.972   1.599
 8542TIP3    H125569   3.945   4.061   1.571
 8542TIP3    H225570   3.909   3.924   1.518
 8543TIP3   OH225571   7.051   3.288   6.530
 8543TIP3    H125572   7.027   3.300   6.439
 8543TIP3    H225573   6.980   3.236   6.567
 8544TIP3   OH225574   1.534   6.327   2.449
 8544TIP3    H125575   1.602   6.345   2.385
 8544TIP3    H225576   1.484   6.408   2.456
 8545TIP3   OH225577   3.394   4.001   4.913
 8545TIP3    H125578   3.304   3.980   4.887
 8545TIP3    H225579   3.407   4.091   4.884
 8546TIP3   OH225580   7.712   0.652   3.196
 8546TIP3    H125581   7.660   0.732   3.201
 8546TIP3    H225582   7.799   0.681   3.169
 8547TIP3   OH225583   2.442   6.138   5.573
 8547TIP3    H125584   2.525   6.186   5.571
 8547TIP3    H225585   2.458   6.066   5.635
 8548TIP3   OH225586   5.504   3.280   2.399
 8548TIP3    H125587   5.510   3.274   2.304
 8548TIP3    H225588   5.413   3.259   2.419
 8549TIP3   OH225589   2.207   5.059   0.364
 8549TIP3    H125590   2.279   5.010   0.405
 8549TIP3    H225591   2.250   5.133   0.321
 8550TIP3   OH225592   3.386   0.981   6.437
 8550TIP3    H125593   3.452   1.050   6.445
 8550TIP3    H225594   3.413   0.930   6.361
 8551TIP3   OH225595   1.476   5.702   3.526
 8551TIP3    H125596   1.536   5.693   3.452
 8551TIP3    H225597   1.508   5.638   3.591
 8552TIP3   OH225598   5.698   6.984   3.177
 8552TIP3    H125599   5.638   6.924   3.133
 8552TIP3    H225600   5.763   6.927   3.218
 8553TIP3   OH225601   2.396   6.842   4.131
 8553TIP3    H125602   2.446   6.879   4.058
 8553TIP3    H225603   2.448   6.767   4.160
 8554TIP3   OH225604   1.605   4.557   2.428
 8554TIP3    H125605   1.592   4.522   2.340
 8554TIP3    H225606   1.632   4.481   2.480
 8555TIP3   OH225607   2.159   5.229   3.565
 8555TIP3    H125608   2.198   5.291   3.627
 8555TIP3    H225609   2.096   5.180   3.617
 8556TIP3   OH225610   4.840   7.268   6.546
 8556TIP3    H125611   4.779   7.267   6.472
 8556TIP3    H225612   4.827   7.183   6.589
 8557TIP3   OH225613   4.400   3.968   0.098
 8557TIP3    H125614   4.316   4.002   0.066
 8557TIP3    H225615   4.415   4.016   0.180
 8558TIP3   OH225616   2.917   0.906   4.444
 8558TIP3    H125617   2.949   0.996   4.440
 8558TIP3    H225618   2.822   0.915   4.456
 8559TIP3   OH225619   7.538   4.393   1.160
 8559TIP3    H125620   7.507   4.341   1.234
 8559TIP3    H225621   7.570   4.328   1.097
 8560TIP3   OH225622   5.147   3.095   3.520
 8560TIP3    H125623   5.063   3.088   3.476
 8560TIP3    H225624   5.212   3.071   3.454
 8561TIP3   OH225625   7.479   3.223   4.941
 8561TIP3    H125626   7.510   3.304   4.979
 8561TIP3    H225627   7.406   3.196   4.996
 8562TIP3   OH225628   8.027   0.401   3.739
 8562TIP3    H125629   8.064   0.429   3.823
 8562TIP3    H225630   8.057   0.467   3.676
 8563TIP3   OH225631   6.775   4.300   3.681
 8563TIP3    H125632   6.761   4.275   3.589
 8563TIP3    H225633   6.802   4.219   3.724
 8564TIP3   OH225634   0.118   5.455   3.459
 8564TIP3    H125635   0.055   5.488   3.395
 8564TIP3    H225636   0.195   5.509   3.447
 8565TIP3   OH225637   4.109   1.574   0.822
 8565TIP3    H125638   4.173   1.634   0.784
 8565TIP3    H225639   4.149   1.488   0.812
 8566TIP3   OH225640   3.074   5.021   6.207
 8566TIP3    H125641   3.025   5.009   6.288
 8566TIP3    H225642   3.094   5.115   6.205
 8567TIP3   OH225643   0.338   6.328   2.335
 8567TIP3    H125644   0.312   6.325   2.427
 8567TIP3    H225645   0.339   6.236   2.308
 8568TIP3   OH225646   8.146   1.341   0.460
 8568TIP3    H125647   8.208   1.268   0.460
 8568TIP3    H225648   8.200   1.419   0.452
 8569TIP3   OH225649   6.532   7.505   6.084
 8569TIP3    H125650   6.602   7.556   6.125
 8569TIP3    H225651   6.574   7.423   6.058
 8570TIP3   OH225652   1.865   4.288   1.283
 8570TIP3    H125653   1.897   4.351   1.219
 8570TIP3    H225654   1.881   4.330   1.368
 8571TIP3   OH225655   6.148   2.237   3.340
 8571TIP3    H125656   6.169   2.144   3.350
 8571TIP3    H225657   6.052   2.240   3.345
 8572TIP3   OH225658   6.037   4.828   4.454
 8572TIP3    H125659   6.022   4.741   4.419
 8572TIP3    H225660   5.952   4.871   4.451
 8573TIP3   OH225661   2.640   3.534   5.472
 8573TIP3    H125662   2.577   3.604   5.459
 8573TIP3    H225663   2.660   3.502   5.384
 8574TIP3   OH225664   3.198   2.027   2.089
 8574TIP3    H125665   3.173   1.939   2.118
 8574TIP3    H225666   3.199   2.021   1.994
 8575TIP3   OH225667   5.294   4.304   2.135
 8575TIP3    H125668   5.279   4.330   2.044
 8575TIP3    H225669   5.295   4.387   2.183
 8576TIP3   OH225670   5.183   6.424   4.821
 8576TIP3    H125671   5.225   6.465   4.897
 8576TIP3    H225672   5.234   6.346   4.804
 8577TIP3   OH225673   0.754   3.185   5.439
 8577TIP3    H125674   0.723   3.103   5.399
 8577TIP3    H225675   0.777   3.161   5.528
 8578TIP3   OH225676   8.150   2.401   2.189
 8578TIP3    H125677   8.112   2.359   2.266
 8578TIP3    H225678   8.162   2.492   2.214
 8579TIP3   OH225679   5.106   6.786   4.556
 8579TIP3    H125680   5.041   6.755   4.493
 8579TIP3    H225681   5.060   6.852   4.608
 8580TIP3   OH225682   2.157   3.719   3.853
 8580TIP3    H125683   2.224   3.756   3.795
 8580TIP3    H225684   2.074   3.741   3.810
 8581TIP3   OH225685   6.064   4.515   1.196
 8581TIP3    H125686   6.091   4.594   1.243
 8581TIP3    H225687   5.974   4.501   1.224
 8582TIP3   OH225688   0.942   6.443   5.357
 8582TIP3    H125689   0.899   6.516   5.313
 8582TIP3    H225690   1.032   6.444   5.325
 8583TIP3   OH225691   2.856   1.801   0.610
 8583TIP3    H125692   2.804   1.869   0.568
 8583TIP3    H225693   2.804   1.775   0.686
 8584TIP3   OH225694   5.681   0.792   4.925
 8584TIP3    H125695   5.736   0.841   4.986
 8584TIP3    H225696   5.710   0.701   4.933
 8585TIP3   OH225697   7.840   5.985   6.004
 8585TIP3    H125698   7.788   6.039   5.945
 8585TIP3    H225699   7.928   5.986   5.966
 8586TIP3   OH225700   5.181   5.151   0.486
 8586TIP3    H125701   5.108   5.167   0.545
 8586TIP3    H225702   5.224   5.236   0.477
 8587TIP3   OH225703   4.907   1.403   5.163
 8587TIP3    H125704   4.913   1.365   5.075
 8587TIP3    H225705   4.909   1.497   5.148
 8588TIP3   OH225706   6.220   7.721   1.948
 8588TIP3    H125707   6.253   7.737   1.860
 8588TIP3    H225708   6.125   7.717   1.938
 8589TIP3   OH225709   6.405   0.757   5.219
 8589TIP3    H125710   6.446   0.798   5.295
 8589TIP3    H225711   6.313   0.785   5.224
 8590TIP3   OH225712   1.743   6.849   5.623
 8590TIP3    H125713   1.690   6.898   5.560
 8590TIP3    H225714   1.684   6.779   5.654
 8591TIP3   OH225715   5.978   7.164   0.964
 8591TIP3    H125716   5.987   7.073   0.995
 8591TIP3    H225717   6.053   7.209   1.002
 8592TIP3   OH225718   2.851   4.987   5.397
 8592TIP3    H125719   2.768   4.946   5.374
 8592TIP3    H225720   2.826   5.068   5.443
 8593TIP3   OH225721   5.077   5.953   3.908
 8593TIP3    H125722   5.139   5.988   3.843
 8593TIP3    H225723   5.077   6.018   3.978
 8594TIP3   OH225724   7.179   5.305   5.752
 8594TIP3    H125725   7.142   5.279   5.667
 8594TIP3    H225726   7.166   5.400   5.755
 8595TIP3   OH225727   7.486   4.426   2.575
 8595TIP3    H125728   7.422   4.483   2.617
 8595TIP3    H225729   7.563   4.431   2.632
 8596TIP3   OH225730   5.279   1.863   1.040
 8596TIP3    H125731   5.337   1.823   1.104
 8596TIP3    H225732   5.208   1.902   1.092
 8597TIP3   OH225733   4.345   7.299   3.503
 8597TIP3    H125734   4.359   7.282   3.409
 8597TIP3    H225735   4.313   7.215   3.537
 8598TIP3   OH225736   3.223   6.818   0.208
 8598TIP3    H125737   3.203   6.911   0.205
 8598TIP3    H225738   3.273   6.806   0.289
 8599TIP3   OH225739   7.532   0.230   6.249
 8599TIP3    H125740   7.592   0.230   6.324
 8599TIP3    H225741   7.445   0.229   6.288
 8600TIP3   OH225742   3.772   1.655   0.888
 8600TIP3    H125743   3.773   1.563   0.915
 8600TIP3    H225744   3.806   1.654   0.799
 8601TIP3   OH225745   7.970   6.091   4.610
 8601TIP3    H125746   8.000   6.100   4.700
 8601TIP3    H225747   7.920   6.171   4.593
 8602TIP3   OH225748   4.671   0.887   6.576
 8602TIP3    H125749   4.577   0.884   6.594
 8602TIP3    H225750   4.678   0.922   6.487
 8603TIP3   OH225751   4.375   7.433   4.639
 8603TIP3    H125752   4.451   7.454   4.693
 8603TIP3    H225753   4.308   7.496   4.666
 8604TIP3   OH225754   5.567   6.278   6.127
 8604TIP3    H125755   5.582   6.362   6.171
 8604TIP3    H225756   5.632   6.277   6.056
 8605TIP3   OH225757   7.427   4.405   4.653
 8605TIP3    H125758   7.412   4.323   4.607
 8605TIP3    H225759   7.345   4.423   4.699
 8606TIP3   OH225760   6.437   4.674   0.401
 8606TIP3    H125761   6.523   4.666   0.359
 8606TIP3    H225762   6.415   4.767   0.394
 8607TIP3   OH225763   1.587   2.853   0.985
 8607TIP3    H125764   1.500   2.861   0.947
 8607TIP3    H225765   1.636   2.802   0.921
 8608TIP3   OH225766   7.838   3.284   3.453
 8608TIP3    H125767   7.746   3.267   3.431
 8608TIP3    H225768   7.860   3.363   3.403
 8609TIP3   OH225769   6.065   2.044   3.800
 8609TIP3    H125770   5.976   2.080   3.802
 8609TIP3    H225771   6.060   1.974   3.735
 8610TIP3   OH225772   1.579   1.432   2.812
 8610TIP3    H125773   1.588   1.505   2.874
 8610TIP3    H225774   1.521   1.466   2.744
 8611TIP3   OH225775   4.638   3.067   5.677
 8611TIP3    H125776   4.566   3.010   5.649
 8611TIP3    H225777   4.692   3.078   5.599
 8612TIP3   OH225778   2.447   5.455   3.407
 8612TIP3    H125779   2.472   5.524   3.345
 8612TIP3    H225780   2.497   5.378   3.379
 8613TIP3   OH225781   6.722   3.890   2.961
 8613TIP3    H125782   6.678   3.968   2.926
 8613TIP3    H225783   6.785   3.923   3.024
 8614TIP3   OH225784   7.894   0.120   6.739
 8614TIP3    H125785   7.886   0.093   6.648
 8614TIP3    H225786   7.904   0.038   6.788
 8615TIP3   OH225787   2.388   1.900   6.456
 8615TIP3    H125788   2.346   1.975   6.501
 8615TIP3    H225789   2.327   1.877   6.387
 8616TIP3   OH225790   2.833   7.157   1.410
 8616TIP3    H125791   2.741   7.172   1.432
 8616TIP3    H225792   2.832   7.077   1.356
 8617TIP3   OH225793   8.115   5.946   6.031
 8617TIP3    H125794   8.096   5.878   6.096
 8617TIP3    H225795   8.171   6.009   6.077
 8618TIP3   OH225796   5.518   2.238   5.060
 8618TIP3    H125797   5.453   2.238   5.131
 8618TIP3    H225798   5.599   2.264   5.102
 8619TIP3   OH225799   8.276   7.257   0.171
 8619TIP3    H125800   8.357   7.299   0.141
 8619TIP3    H225801   8.251   7.309   0.248
 8620TIP3   OH225802   2.671   6.572   0.208
 8620TIP3    H125803   2.759   6.557   0.172
 8620TIP3    H225804   2.634   6.641   0.154
 8621TIP3   OH225805   7.571   3.541   0.101
 8621TIP3    H125806   7.510   3.507   0.036
 8621TIP3    H225807   7.515   3.577   0.170
 8622TIP3   OH225808   4.025   7.479   3.448
 8622TIP3    H125809   3.991   7.543   3.510
 8622TIP3    H225810   4.010   7.394   3.490
 8623TIP3   OH225811   4.017   2.834   3.796
 8623TIP3    H125812   4.039   2.904   3.734
 8623TIP3    H225813   3.992   2.760   3.742
 8624TIP3   OH225814   0.646   6.476   3.052
 8624TIP3    H125815   0.728   6.428   3.040
 8624TIP3    H225816   0.585   6.437   2.990
 8625TIP3   OH225817   7.571   4.752   0.180
 8625TIP3    H125818   7.536   4.826   0.130
 8625TIP3    H225819   7.501   4.687   0.178
 8626TIP3   OH225820   2.357   2.128   2.394
 8626TIP3    H125821   2.356   2.033   2.403
 8626TIP3    H225822   2.343   2.144   2.301
 8627TIP3   OH225823   5.723   0.971   6.389
 8627TIP3    H125824   5.669   0.937   6.318
 8627TIP3    H225825   5.688   0.928   6.467
 8628TIP3   OH225826   2.543   2.444   0.631
 8628TIP3    H125827   2.524   2.388   0.555
 8628TIP3    H225828   2.621   2.405   0.670
 8629TIP3   OH225829   2.068   3.390   1.572
 8629TIP3    H125830   2.133   3.448   1.532
 8629TIP3    H225831   2.044   3.329   1.502
 8630TIP3   OH225832   6.969   7.323   0.311
 8630TIP3    H125833   6.953   7.249   0.252
 8630TIP3    H225834   6.933   7.295   0.395
 8631TIP3   OH225835   4.377   5.426   2.626
 8631TIP3    H125836   4.380   5.515   2.593
 8631TIP3    H225837   4.292   5.419   2.671
 8632TIP3   OH225838   1.971   4.869   3.579
 8632TIP3    H125839   1.925   4.785   3.584
 8632TIP3    H225840   1.938   4.919   3.653
 8633TIP3   OH225841   2.805   0.883   6.393
 8633TIP3    H125842   2.724   0.865   6.344
 8633TIP3    H225843   2.775   0.895   6.483
 8634TIP3   OH225844   2.676   1.969   5.245
 8634TIP3    H125845   2.625   1.990   5.323
 8634TIP3    H225846   2.764   1.951   5.279
 8635TIP3   OH225847   5.500   2.074   0.626
 8635TIP3    H125848   5.499   2.057   0.720
 8635TIP3    H225849   5.459   2.160   0.617
 8636TIP3   OH225850   4.449   0.647   6.753
 8636TIP3    H125851   4.444   0.710   6.681
 8636TIP3    H225852   4.509   0.579   6.721
 8637TIP3   OH225853   3.018   7.594   2.094
 8637TIP3    H125854   3.056   7.532   2.156
 8637TIP3    H225855   2.992   7.540   2.019
 8638TIP3   OH225856   5.997   2.641   3.451
 8638TIP3    H125857   5.947   2.628   3.371
 8638TIP3    H225858   6.082   2.673   3.421
 8639TIP3   OH225859   0.499   3.120   4.176
 8639TIP3    H125860   0.472   3.039   4.217
 8639TIP3    H225861   0.488   3.187   4.244
 8640TIP3   OH225862   5.251   6.437   5.331
 8640TIP3    H125863   5.173   6.387   5.306
 8640TIP3    H225864   5.221   6.495   5.402
 8641TIP3   OH225865   5.207   5.280   2.436
 8641TIP3    H125866   5.206   5.260   2.343
 8641TIP3    H225867   5.167   5.204   2.478
 8642TIP3   OH225868   6.042   6.080   1.545
 8642TIP3    H125869   6.056   5.985   1.547
 8642TIP3    H225870   6.061   6.105   1.455
 8643TIP3   OH225871   4.247   7.164   1.163
 8643TIP3    H125872   4.237   7.256   1.137
 8643TIP3    H225873   4.275   7.120   1.083
 8644TIP3   OH225874   7.887   4.317   0.917
 8644TIP3    H125875   7.848   4.380   0.856
 8644TIP3    H225876   7.964   4.285   0.871
 8645TIP3   OH225877   6.210   0.385   4.480
 8645TIP3    H125878   6.141   0.379   4.414
 8645TIP3    H225879   6.178   0.450   4.543
 8646TIP3   OH225880   7.473   7.358   6.369
 8646TIP3    H125881   7.474   7.342   6.464
 8646TIP3    H225882   7.559   7.393   6.350
 8647TIP3   OH225883   2.384   5.882   3.569
 8647TIP3    H125884   2.472   5.888   3.608
 8647TIP3    H225885   2.330   5.941   3.622
 8648TIP3   OH225886   1.842   7.671   0.799
 8648TIP3    H125887   1.876   7.758   0.816
 8648TIP3    H225888   1.859   7.622   0.880
 8649TIP3   OH225889   7.844   3.014   3.418
 8649TIP3    H125890   7.878   3.090   3.464
 8649TIP3    H225891   7.750   3.028   3.412
 8650TIP3   OH225892   6.114   1.876   0.244
 8650TIP3    H125893   6.039   1.878   0.185
 8650TIP3    H225894   6.186   1.912   0.191
 8651TIP3   OH225895   4.694   2.075   3.356
 8651TIP3    H125896   4.689   2.120   3.271
 8651TIP3    H225897   4.686   2.146   3.420
 8652TIP3   OH225898   6.244   2.541   6.644
 8652TIP3    H125899   6.180   2.476   6.674
 8652TIP3    H225900   6.319   2.489   6.616
 8653TIP3   OH225901   5.664   1.409   3.319
 8653TIP3    H125902   5.587   1.465   3.311
 8653TIP3    H225903   5.663   1.379   3.410
 8654TIP3   OH225904   6.152   4.451   2.374
 8654TIP3    H125905   6.113   4.393   2.440
 8654TIP3    H225906   6.127   4.412   2.291
 8655TIP3   OH225907   6.521   0.023   1.793
 8655TIP3    H125908   6.465   0.092   1.759
 8655TIP3    H225909   6.486   0.005   1.881
 8656TIP3   OH225910   7.936   7.733   4.765
 8656TIP3    H125911   7.871   7.803   4.776
 8656TIP3    H225912   8.017   7.779   4.743
 8657TIP3   OH225913   7.806   6.095   2.072
 8657TIP3    H125914   7.722   6.062   2.103
 8657TIP3    H225915   7.789   6.126   1.984
 8658TIP3   OH225916   4.868   7.460   1.411
 8658TIP3    H125917   4.829   7.389   1.360
 8658TIP3    H225918   4.818   7.461   1.493
 8659TIP3   OH225919   7.509   3.359   5.777
 8659TIP3    H125920   7.488   3.306   5.700
 8659TIP3    H225921   7.460   3.319   5.849
 8660TIP3   OH225922   6.435   7.448   6.606
 8660TIP3    H125923   6.399   7.359   6.613
 8660TIP3    H225924   6.487   7.458   6.686
 8661TIP3   OH225925   0.126   3.774   2.205
 8661TIP3    H125926   0.165   3.763   2.291
 8661TIP3    H225927   0.195   3.814   2.152
 8662TIP3   OH225928   7.455   6.717   5.437
 8662TIP3    H125929   7.486   6.630   5.415
 8662TIP3    H225930   7.368   6.723   5.398
 8663TIP3   OH225931   3.447   3.470   6.668
 8663TIP3    H125932   3.364   3.426   6.648
 8663TIP3    H225933   3.514   3.412   6.632
 8664TIP3   OH225934   3.348   0.994   3.472
 8664TIP3    H125935   3.358   1.087   3.493
 8664TIP3    H225936   3.401   0.982   3.393
 8665TIP3   OH225937   3.181   2.812   4.966
 8665TIP3    H125938   3.195   2.817   4.872
 8665TIP3    H225939   3.102   2.759   4.976
 8666TIP3   OH225940   5.179   3.394   4.918
 8666TIP3    H125941   5.145   3.307   4.939
 8666TIP3    H225942   5.127   3.454   4.972
 8667TIP3   OH225943   3.964   0.688   4.704
 8667TIP3    H125944   4.058   0.677   4.689
 8667TIP3    H225945   3.927   0.705   4.618
 8668TIP3   OH225946   7.209   0.772   4.004
 8668TIP3    H125947   7.163   0.746   3.924
 8668TIP3    H225948   7.199   0.697   4.063
 8669TIP3   OH225949   3.862   7.222   0.840
 8669TIP3    H125950   3.799   7.284   0.877
 8669TIP3    H225951   3.946   7.250   0.875
 8670TIP3   OH225952   8.125   4.135   3.351
 8670TIP3    H125953   8.216   4.143   3.322
 8670TIP3    H225954   8.132   4.112   3.444
 8671TIP3   OH225955   5.604   6.394   1.555
 8671TIP3    H125956   5.595   6.453   1.630
 8671TIP3    H225957   5.674   6.334   1.580
 8672TIP3   OH225958   4.870   0.365   5.931
 8672TIP3    H125959   4.896   0.453   5.955
 8672TIP3    H225960   4.891   0.358   5.838
 8673TIP3   OH225961   0.327   2.711   1.743
 8673TIP3    H125962   0.416   2.723   1.710
 8673TIP3    H225963   0.336   2.650   1.816
 8674TIP3   OH225964   2.013   3.166   4.498
 8674TIP3    H125965   2.023   3.098   4.564
 8674TIP3    H225966   2.079   3.232   4.521
 8675TIP3   OH225967   0.936   0.324   5.348
 8675TIP3    H125968   0.990   0.246   5.339
 8675TIP3    H225969   0.863   0.309   5.288
 8676TIP3   OH225970   2.444   3.355   4.231
 8676TIP3    H125971   2.488   3.289   4.177
 8676TIP3    H225972   2.434   3.313   4.317
 8677TIP3   OH225973   3.496   0.722   4.941
 8677TIP3    H125974   3.589   0.733   4.922
 8677TIP3    H225975   3.475   0.635   4.907
 8678TIP3   OH225976   6.437   2.705   5.099
 8678TIP3    H125977   6.358   2.707   5.045
 8678TIP3    H225978   6.507   2.684   5.037
 8679TIP3   OH225979   7.334   6.094   0.949
 8679TIP3    H125980   7.349   6.187   0.929
 8679TIP3    H225981   7.388   6.047   0.885
 8680TIP3   OH225982   6.507   1.113   0.108
 8680TIP3    H125983   6.462   1.191   0.141
 8680TIP3    H225984   6.476   1.103   0.018
 8681TIP3   OH225985   4.741   3.371   1.114
 8681TIP3    H125986   4.724   3.424   1.192
 8681TIP3    H225987   4.816   3.317   1.138
 8682TIP3   OH225988   7.331   0.383   5.649
 8682TIP3    H125989   7.255   0.414   5.699
 8682TIP3    H225990   7.343   0.448   5.581
 8683TIP3   OH225991   5.539   6.783   1.762
 8683TIP3    H125992   5.544   6.877   1.779
 8683TIP3    H225993   5.630   6.753   1.764
 8684TIP3   OH225994   6.079   7.763   4.331
 8684TIP3    H125995   6.001   7.770   4.275
 8684TIP3    H225996   6.089   7.669   4.346
 8685TIP3   OH225997   6.503   3.726   2.539
 8685TIP3    H125998   6.516   3.726   2.444
 8685TIP3    H225999   6.519   3.817   2.565
 8686TIP3   OH226000   4.926   4.733   2.259
 8686TIP3    H126001   4.860   4.777   2.311
 8686TIP3    H226002   4.973   4.678   2.321
 8687TIP3   OH226003   1.864   2.457   0.531
 8687TIP3    H126004   1.861   2.514   0.454
 8687TIP3    H226005   1.783   2.407   0.527
 8688TIP3   OH226006   3.263   7.650   1.527
 8688TIP3    H126007   3.314   7.640   1.607
 8688TIP3    H226008   3.212   7.569   1.520
 8689TIP3   OH226009   2.240   0.441   0.110
 8689TIP3    H126010   2.284   0.448   0.025
 8689TIP3    H226011   2.202   0.528   0.124
 8690TIP3   OH226012   1.537   3.936   2.531
 8690TIP3    H126013   1.453   3.960   2.569
 8690TIP3    H226014   1.530   3.959   2.438
 8691TIP3   OH226015   0.533   7.601   4.299
 8691TIP3    H126016   0.505   7.521   4.344
 8691TIP3    H226017   0.564   7.570   4.214
 8692TIP3   OH226018   1.179   6.298   4.063
 8692TIP3    H126019   1.253   6.248   4.098
 8692TIP3    H226020   1.167   6.369   4.126
 8693TIP3   OH226021   4.688   4.165   0.170
 8693TIP3    H126022   4.753   4.225   0.134
 8693TIP3    H226023   4.709   4.081   0.129
 8694TIP3   OH226024   2.368   1.476   4.177
 8694TIP3    H126025   2.304   1.529   4.129
 8694TIP3    H226026   2.336   1.386   4.169
 8695TIP3   OH226027   0.277   4.991   2.748
 8695TIP3    H126028   0.300   5.084   2.736
 8695TIP3    H226029   0.197   4.993   2.800
 8696TIP3   OH226030   3.064   7.682   6.173
 8696TIP3    H126031   3.018   7.682   6.257
 8696TIP3    H226032   3.156   7.668   6.196
 8697TIP3   OH226033   4.311   4.667   3.898
 8697TIP3    H126034   4.240   4.678   3.962
 8697TIP3    H226035   4.308   4.574   3.876
 8698TIP3   OH226036   5.000   1.063   5.280
 8698TIP3    H126037   5.051   0.997   5.327
 8698TIP3    H226038   5.063   1.107   5.224
 8699TIP3   OH226039   8.009   1.737   0.522
 8699TIP3    H126040   7.927   1.704   0.484
 8699TIP3    H226041   8.068   1.745   0.448
 8700TIP3   OH226042   1.437   3.640   2.392
 8700TIP3    H126043   1.532   3.649   2.405
 8700TIP3    H226044   1.406   3.600   2.473
 8701TIP3   OH226045   5.933   7.508   5.197
 8701TIP3    H126046   5.992   7.533   5.126
 8701TIP3    H226047   5.869   7.450   5.156
 8702TIP3   OH226048   0.574   5.729   1.217
 8702TIP3    H126049   0.569   5.822   1.193
 8702TIP3    H226050   0.660   5.701   1.185
 8703TIP3   OH226051   0.396   4.403   1.349
 8703TIP3    H126052   0.415   4.398   1.255
 8703TIP3    H226053   0.350   4.486   1.360
 8704TIP3   OH226054   6.933   7.014   4.080
 8704TIP3    H126055   6.881   6.938   4.106
 8704TIP3    H226056   6.869   7.079   4.053
 8705TIP3   OH226057   1.557   7.645   1.745
 8705TIP3    H126058   1.499   7.685   1.810
 8705TIP3    H226059   1.623   7.598   1.795
 8706TIP3   OH226060   2.758   6.437   2.839
 8706TIP3    H126061   2.729   6.526   2.858
 8706TIP3    H226062   2.836   6.448   2.784
 8707TIP3   OH226063   6.440   6.029   1.423
 8707TIP3    H126064   6.401   5.952   1.464
 8707TIP3    H226065   6.369   6.093   1.418
 8708TIP3   OH226066   5.344   7.793   0.949
 8708TIP3    H126067   5.367   7.874   0.904
 8708TIP3    H226068   5.425   7.742   0.949
 8709TIP3   OH226069   2.274   4.037   2.987
 8709TIP3    H126070   2.189   4.073   2.964
 8709TIP3    H226071   2.337   4.101   2.953
 8710TIP3   OH226072   6.349   3.742   5.387
 8710TIP3    H126073   6.260   3.766   5.412
 8710TIP3    H226074   6.394   3.826   5.376
 8711TIP3   OH226075   1.215   4.924   2.765
 8711TIP3    H126076   1.294   4.902   2.716
 8711TIP3    H226077   1.247   4.952   2.851
 8712TIP3   OH226078   1.447   1.647   6.388
 8712TIP3    H126079   1.418   1.570   6.339
 8712TIP3    H226080   1.519   1.683   6.336
 8713TIP3   OH226081   2.298   4.966   4.113
 8713TIP3    H126082   2.382   4.985   4.155
 8713TIP3    H226083   2.242   4.934   4.184
 8714TIP3   OH226084   3.644   1.323   3.655
 8714TIP3    H126085   3.654   1.342   3.748
 8714TIP3    H226086   3.732   1.301   3.625
 8715TIP3   OH226087   7.961   6.596   0.194
 8715TIP3    H126088   7.908   6.660   0.242
 8715TIP3    H226089   8.043   6.592   0.243
 8716TIP3   OH226090   2.230   5.462   5.128
 8716TIP3    H126091   2.175   5.424   5.059
 8716TIP3    H226092   2.235   5.555   5.106
 8717TIP3   OH226093   5.541   5.679   0.121
 8717TIP3    H126094   5.575   5.756   0.168
 8717TIP3    H226095   5.474   5.714   0.063
 8718TIP3   OH226096   8.013   0.783   1.151
 8718TIP3    H126097   8.080   0.753   1.090
 8718TIP3    H226098   8.046   0.868   1.182
 8719TIP3   OH226099   4.557   3.125   4.950
 8719TIP3    H126100   4.555   3.032   4.925
 8719TIP3    H226101   4.613   3.128   5.027
 8720TIP3   OH226102   7.929   7.799   5.532
 8720TIP3    H126103   7.977   7.762   5.458
 8720TIP3    H226104   7.837   7.784   5.511
 8721TIP3   OH226105   7.448   6.852   2.464
 8721TIP3    H126106   7.520   6.864   2.403
 8721TIP3    H226107   7.454   6.760   2.490
 8722TIP3   OH226108   0.370   5.148   0.374
 8722TIP3    H126109   0.346   5.069   0.422
 8722TIP3    H226110   0.345   5.130   0.283
 8723TIP3   OH226111   4.712   2.724   2.159
 8723TIP3    H126112   4.723   2.630   2.145
 8723TIP3    H226113   4.662   2.730   2.241
 8724TIP3   OH226114   0.335   6.745   5.221
 8724TIP3    H126115   0.409   6.710   5.271
 8724TIP3    H226116   0.297   6.668   5.178
 8725TIP3   OH226117   3.592   2.296   5.094
 8725TIP3    H126118   3.686   2.285   5.104
 8725TIP3    H226119   3.582   2.357   5.020
 8726TIP3   OH226120   0.886   3.214   3.062
 8726TIP3    H126121   0.927   3.291   3.022
 8726TIP3    H226122   0.916   3.215   3.152
 8727TIP3   OH226123   5.991   5.304   3.209
 8727TIP3    H126124   5.921   5.341   3.262
 8727TIP3    H226125   6.057   5.374   3.204
 8728TIP3   OH226126   6.134   5.751   4.681
 8728TIP3    H126127   6.193   5.795   4.619
 8728TIP3    H226128   6.093   5.682   4.629
 8729TIP3   OH226129   2.668   6.858   1.634
 8729TIP3    H126130   2.696   6.912   1.707
 8729TIP3    H226131   2.603   6.911   1.587
 8730TIP3   OH226132   3.909   2.706   1.607
 8730TIP3    H126133   3.967   2.662   1.670
 8730TIP3    H226134   3.950   2.791   1.591
 8731TIP3   OH226135   3.480   2.923   4.195
 8731TIP3    H126136   3.416   2.977   4.150
 8731TIP3    H226137   3.559   2.928   4.141
 8732TIP3   OH226138   5.834   7.157   5.383
 8732TIP3    H126139   5.890   7.186   5.455
 8732TIP3    H226140   5.887   7.092   5.336
 8733TIP3   OH226141   5.790   2.392   0.529
 8733TIP3    H126142   5.700   2.422   0.523
 8733TIP3    H226143   5.843   2.471   0.522
 8734TIP3   OH226144   5.858   7.356   0.778
 8734TIP3    H126145   5.912   7.283   0.810
 8734TIP3    H226146   5.884   7.431   0.831
 8735TIP3   OH226147   1.507   7.758   3.052
 8735TIP3    H126148   1.536   7.840   3.011
 8735TIP3    H226149   1.422   7.780   3.092
 8736TIP3   OH226150   7.838   7.181   0.813
 8736TIP3    H126151   7.778   7.137   0.753
 8736TIP3    H226152   7.917   7.127   0.811
 8737TIP3   OH226153   6.480   6.197   4.985
 8737TIP3    H126154   6.571   6.170   4.998
 8737TIP3    H226155   6.485   6.292   4.972
 8738TIP3   OH226156   6.155   1.305   1.913
 8738TIP3    H126157   6.195   1.322   1.828
 8738TIP3    H226158   6.092   1.234   1.896
 8739TIP3   OH226159   7.153   2.847   5.279
 8739TIP3    H126160   7.235   2.894   5.266
 8739TIP3    H226161   7.148   2.787   5.204
 8740TIP3   OH226162   0.890   2.630   4.949
 8740TIP3    H126163   0.894   2.539   4.977
 8740TIP3    H226164   0.816   2.633   4.888
 8741TIP3   OH226165   3.895   3.766   0.202
 8741TIP3    H126166   3.888   3.809   0.287
 8741TIP3    H226167   3.988   3.766   0.183
 8742TIP3   OH226168   2.420   0.029   3.302
 8742TIP3    H126169   2.332   0.066   3.297
 8742TIP3    H226170   2.446   0.042   3.393
 8743TIP3   OH226171   3.867   6.473   3.986
 8743TIP3    H126172   3.858   6.378   3.981
 8743TIP3    H226173   3.777   6.505   3.995
 8744TIP3   OH226174   2.713   5.270   0.992
 8744TIP3    H126175   2.708   5.354   1.038
 8744TIP3    H226176   2.800   5.270   0.953
 8745TIP3   OH226177   0.302   0.386   6.706
 8745TIP3    H126178   0.315   0.310   6.762
 8745TIP3    H226179   0.250   0.354   6.633
 8746TIP3   OH226180   2.186   1.773   2.918
 8746TIP3    H126181   2.231   1.849   2.880
 8746TIP3    H226182   2.191   1.787   3.013
 8747TIP3   OH226183   2.058   1.174   3.744
 8747TIP3    H126184   2.110   1.253   3.757
 8747TIP3    H226185   2.089   1.139   3.661
 8748TIP3   OH226186   1.817   3.291   0.300
 8748TIP3    H126187   1.766   3.360   0.343
 8748TIP3    H226188   1.845   3.330   0.217
 8749TIP3   OH226189   4.492   3.327   6.622
 8749TIP3    H126190   4.557   3.259   6.638
 8749TIP3    H226191   4.543   3.402   6.591
 8750TIP3   OH226192   4.557   2.546   0.608
 8750TIP3    H126193   4.497   2.585   0.671
 8750TIP3    H226194   4.537   2.452   0.610
 8751TIP3   OH226195   1.852   1.618   5.067
 8751TIP3    H126196   1.840   1.655   5.154
 8751TIP3    H226197   1.810   1.681   5.008
 8752TIP3   OH226198   3.734   2.737   0.002
 8752TIP3    H126199   3.814   2.685   0.004
 8752TIP3    H226200   3.713   2.751   0.095
 8753TIP3   OH226201   0.324   7.140   2.506
 8753TIP3    H126202   0.251   7.081   2.525
 8753TIP3    H226203   0.283   7.217   2.467
 8754TIP3   OH226204   2.958   0.855   0.740
 8754TIP3    H126205   2.941   0.835   0.648
 8754TIP3    H226206   2.900   0.795   0.788
 8755TIP3   OH226207   7.762   2.906   0.268
 8755TIP3    H126208   7.849   2.865   0.260
 8755TIP3    H226209   7.739   2.896   0.360
 8756TIP3   OH226210   2.519   1.072   1.990
 8756TIP3    H126211   2.435   1.100   2.025
 8756TIP3    H226212   2.500   1.044   1.901
 8757TIP3   OH226213   3.767   3.297   3.863
 8757TIP3    H126214   3.687   3.337   3.830
 8757TIP3    H226215   3.750   3.203   3.859
 8758TIP3   OH226216   1.551   3.724   4.540
 8758TIP3    H126217   1.528   3.815   4.559
 8758TIP3    H226218   1.628   3.730   4.484
 8759TIP3   OH226219   7.426   2.471   2.731
 8759TIP3    H126220   7.373   2.530   2.678
 8759TIP3    H226221   7.517   2.498   2.715
 8760TIP3   OH226222   2.211   0.808   2.889
 8760TIP3    H126223   2.179   0.882   2.837
 8760TIP3    H226224   2.136   0.778   2.939
 8761TIP3   OH226225   0.087   0.326   3.825
 8761TIP3    H126226   0.137   0.291   3.752
 8761TIP3    H226227   0.097   0.421   3.817
 8762TIP3   OH226228   7.448   0.946   6.111
 8762TIP3    H126229   7.522   0.980   6.161
 8762TIP3    H226230   7.469   0.853   6.098
 8763TIP3   OH226231   2.260   5.532   4.100
 8763TIP3    H126232   2.230   5.618   4.132
 8763TIP3    H226233   2.354   5.544   4.087
 8764TIP3   OH226234   0.542   7.195   4.150
 8764TIP3    H126235   0.591   7.230   4.225
 8764TIP3    H226236   0.528   7.103   4.172
 8765TIP3   OH226237   4.430   1.302   4.202
 8765TIP3    H126238   4.418   1.268   4.113
 8765TIP3    H226239   4.519   1.277   4.225
 8766TIP3   OH226240   1.238   0.156   6.254
 8766TIP3    H126241   1.152   0.177   6.290
 8766TIP3    H226242   1.276   0.094   6.316
 8767TIP3   OH226243   1.819   6.689   1.766
 8767TIP3    H126244   1.903   6.676   1.722
 8767TIP3    H226245   1.837   6.673   1.858
 8768TIP3   OH226246   7.907   6.868   4.750
 8768TIP3    H126247   7.842   6.890   4.683
 8768TIP3    H226248   7.989   6.907   4.717
 8769TIP3   OH226249   4.821   5.870   3.496
 8769TIP3    H126250   4.887   5.801   3.485
 8769TIP3    H226251   4.828   5.894   3.589
 8770TIP3   OH226252   7.136   6.699   2.949
 8770TIP3    H126253   7.199   6.771   2.942
 8770TIP3    H226254   7.137   6.676   3.042
 8771TIP3   OH226255   8.006   0.787   2.110
 8771TIP3    H126256   7.935   0.778   2.173
 8771TIP3    H226257   8.078   0.825   2.160
 8772TIP3   OH226258   6.101   4.342   1.454
 8772TIP3    H126259   6.019   4.320   1.411
 8772TIP3    H226260   6.091   4.434   1.478
 8773TIP3   OH226261   0.297   0.751   5.560
 8773TIP3    H126262   0.342   0.679   5.515
 8773TIP3    H226263   0.359   0.778   5.628
 8774TIP3   OH226264   4.228   7.332   6.126
 8774TIP3    H126265   4.191   7.277   6.057
 8774TIP3    H226266   4.184   7.303   6.206
 8775TIP3   OH226267   3.157   1.646   0.633
 8775TIP3    H126268   3.165   1.563   0.681
 8775TIP3    H226269   3.087   1.630   0.570
 8776TIP3   OH226270   7.531   1.925   2.917
 8776TIP3    H126271   7.518   1.915   2.823
 8776TIP3    H226272   7.445   1.906   2.955
 8777TIP3   OH226273   1.783   4.726   4.853
 8777TIP3    H126274   1.692   4.736   4.825
 8777TIP3    H226275   1.776   4.682   4.938
 8778TIP3   OH226276   1.878   7.097   1.057
 8778TIP3    H126277   1.811   7.152   1.097
 8778TIP3    H226278   1.961   7.136   1.084
 8779TIP3   OH226279   5.380   6.423   2.641
 8779TIP3    H126280   5.302   6.381   2.605
 8779TIP3    H226281   5.421   6.467   2.566
 8780TIP3   OH226282   5.224   5.733   1.989
 8780TIP3    H126283   5.286   5.684   2.043
 8780TIP3    H226284   5.279   5.786   1.931
 8781TIP3   OH226285   2.041   3.927   1.406
 8781TIP3    H126286   2.065   3.991   1.340
 8781TIP3    H226287   1.980   3.867   1.362
 8782TIP3   OH226288   3.428   7.541   5.261
 8782TIP3    H126289   3.492   7.576   5.199
 8782TIP3    H226290   3.364   7.496   5.207
 8783TIP3   OH226291   0.281   0.439   2.883
 8783TIP3    H126292   0.326   0.523   2.894
 8783TIP3    H226293   0.348   0.381   2.845
 8784TIP3   OH226294   6.069   5.600   4.458
 8784TIP3    H126295   6.042   5.602   4.366
 8784TIP3    H226296   6.049   5.511   4.487
 8785TIP3   OH226297   4.651   4.693   5.721
 8785TIP3    H126298   4.697   4.641   5.787
 8785TIP3    H226299   4.717   4.756   5.690
 8786TIP3   OH226300   0.686   6.247   0.486
 8786TIP3    H126301   0.781   6.249   0.497
 8786TIP3    H226302   0.652   6.227   0.573
 8787TIP3   OH226303   5.095   2.805   1.844
 8787TIP3    H126304   5.028   2.848   1.897
 8787TIP3    H226305   5.059   2.718   1.826
 8788TIP3   OH226306   4.413   7.185   3.927
 8788TIP3    H126307   4.408   7.100   3.971
 8788TIP3    H226308   4.488   7.229   3.967
 8789TIP3   OH226309   5.097   7.135   5.280
 8789TIP3    H126310   5.126   7.188   5.354
 8789TIP3    H226311   5.166   7.146   5.214
 8790TIP3   OH226312   4.512   1.819   5.642
 8790TIP3    H126313   4.541   1.879   5.710
 8790TIP3    H226314   4.592   1.774   5.613
 8791TIP3   OH226315   2.876   6.321   3.884
 8791TIP3    H126316   2.948   6.380   3.903
 8791TIP3    H226317   2.825   6.366   3.816
 8792TIP3   OH226318   7.909   4.341   3.386
 8792TIP3    H126319   7.981   4.278   3.383
 8792TIP3    H226320   7.892   4.363   3.295
 8793TIP3   OH226321   2.190   3.884   1.635
 8793TIP3    H126322   2.228   3.971   1.650
 8793TIP3    H226323   2.151   3.890   1.548
 8794TIP3   OH226324   1.211   6.478   1.178
 8794TIP3    H126325   1.265   6.411   1.219
 8794TIP3    H226326   1.176   6.436   1.100
 8795TIP3   OH226327   5.860   2.110   5.409
 8795TIP3    H126328   5.939   2.129   5.358
 8795TIP3    H226329   5.788   2.141   5.353
 8796TIP3   OH226330   4.461   2.880   6.349
 8796TIP3    H126331   4.482   2.811   6.286
 8796TIP3    H226332   4.446   2.958   6.296
 8797TIP3   OH226333   4.738   5.908   2.265
 8797TIP3    H126334   4.795   5.908   2.341
 8797TIP3    H226335   4.790   5.950   2.196
 8798TIP3   OH226336   0.469   1.576   3.341
 8798TIP3    H126337   0.451   1.485   3.364
 8798TIP3    H226338   0.416   1.627   3.403
 8799TIP3   OH226339   0.883   5.046   1.220
 8799TIP3    H126340   0.825   5.088   1.284
 8799TIP3    H226341   0.887   4.954   1.248
 8800TIP3   OH226342   3.519   3.045   1.325
 8800TIP3    H126343   3.556   2.966   1.366
 8800TIP3    H226344   3.591   3.109   1.328
 8801TIP3   OH226345   2.313   5.021   3.399
 8801TIP3    H126346   2.280   4.932   3.409
 8801TIP3    H226347   2.251   5.075   3.448
 8802TIP3   OH226348   5.979   0.331   0.801
 8802TIP3    H126349   5.890   0.338   0.766
 8802TIP3    H226350   5.967   0.301   0.891
 8803TIP3   OH226351   3.156   2.628   0.706
 8803TIP3    H126352   3.155   2.605   0.799
 8803TIP3    H226353   3.249   2.629   0.682
 8804TIP3   OH226354   8.268   5.281   0.518
 8804TIP3    H126355   8.181   5.244   0.535
 8804TIP3    H226356   8.311   5.282   0.603
 8805TIP3   OH226357   5.526   3.929   4.646
 8805TIP3    H126358   5.474   3.889   4.576
 8805TIP3    H226359   5.616   3.904   4.626
 8806TIP3   OH226360   6.645   0.493   3.677
 8806TIP3    H126361   6.587   0.417   3.668
 8806TIP3    H226362   6.654   0.527   3.588
 8807TIP3   OH226363   5.760   0.980   2.475
 8807TIP3    H126364   5.731   1.055   2.527
 8807TIP3    H226365   5.683   0.953   2.426
 8808TIP3   OH226366   4.980   2.118   0.821
 8808TIP3    H126367   5.061   2.112   0.769
 8808TIP3    H226368   4.944   2.029   0.817
 8809TIP3   OH226369   1.941   2.052   5.709
 8809TIP3    H126370   1.875   2.086   5.649
 8809TIP3    H226371   2.021   2.100   5.686
 8810TIP3   OH226372   1.741   0.429   4.629
 8810TIP3    H126373   1.766   0.370   4.558
 8810TIP3    H226374   1.659   0.393   4.662
 8811TIP3   OH226375   1.867   5.283   1.511
 8811TIP3    H126376   1.945   5.336   1.529
 8811TIP3    H226377   1.858   5.284   1.416
 8812TIP3   OH226378   0.677   6.750   6.002
 8812TIP3    H126379   0.717   6.741   6.088
 8812TIP3    H226380   0.750   6.772   5.944
 8813TIP3   OH226381   2.597   3.656   2.305
 8813TIP3    H126382   2.668   3.682   2.363
 8813TIP3    H226383   2.551   3.738   2.286
 8814TIP3   OH226384   6.685   4.708   4.741
 8814TIP3    H126385   6.687   4.765   4.665
 8814TIP3    H226386   6.776   4.685   4.757
 8815TIP3   OH226387   6.806   5.190   4.415
 8815TIP3    H126388   6.800   5.231   4.329
 8815TIP3    H226389   6.869   5.243   4.463
 8816TIP3   OH226390   1.402   6.264   5.667
 8816TIP3    H126391   1.487   6.297   5.637
 8816TIP3    H226392   1.371   6.330   5.729
 8817TIP3   OH226393   4.506   6.282   3.811
 8817TIP3    H126394   4.439   6.244   3.754
 8817TIP3    H226395   4.457   6.319   3.885
 8818TIP3   OH226396   4.017   0.196   6.127
 8818TIP3    H126397   4.031   0.284   6.163
 8818TIP3    H226398   4.094   0.179   6.073
 8819TIP3   OH226399   5.979   1.060   5.922
 8819TIP3    H126400   5.904   1.104   5.881
 8819TIP3    H226401   5.960   1.064   6.015
 8820TIP3   OH226402   4.194   0.619   1.283
 8820TIP3    H126403   4.242   0.696   1.316
 8820TIP3    H226404   4.242   0.593   1.204
 8821TIP3   OH226405   6.248   7.645   6.434
 8821TIP3    H126406   6.274   7.728   6.475
 8821TIP3    H226407   6.324   7.588   6.443
 8822TIP3   OH226408   4.055   3.117   2.689
 8822TIP3    H126409   3.999   3.183   2.648
 8822TIP3    H226410   4.000   3.079   2.757
 8823TIP3   OH226411   6.291   1.619   1.824
 8823TIP3    H126412   6.306   1.644   1.915
 8823TIP3    H226413   6.377   1.626   1.782
 8824TIP3   OH226414   3.508   5.328   5.898
 8824TIP3    H126415   3.426   5.366   5.869
 8824TIP3    H226416   3.493   5.233   5.897
 8825TIP3   OH226417   1.047   5.750   4.602
 8825TIP3    H126418   1.135   5.773   4.574
 8825TIP3    H226419   1.059   5.703   4.685
 8826TIP3   OH226420   5.272   2.954   5.316
 8826TIP3    H126421   5.244   2.874   5.360
 8826TIP3    H226422   5.263   2.934   5.223
 8827TIP3   OH226423   6.064   2.528   5.083
 8827TIP3    H126424   6.036   2.456   5.027
 8827TIP3    H226425   6.107   2.589   5.023
 8828TIP3   OH226426   3.170   3.658   4.192
 8828TIP3    H126427   3.100   3.691   4.248
 8828TIP3    H226428   3.126   3.597   4.132
 8829TIP3   OH226429   5.236   4.877   1.284
 8829TIP3    H126430   5.251   4.901   1.193
 8829TIP3    H226431   5.232   4.960   1.331
 8830TIP3   OH226432   1.065   5.368   5.916
 8830TIP3    H126433   1.058   5.348   6.010
 8830TIP3    H226434   1.140   5.427   5.910
 8831TIP3   OH226435   7.331   1.971   5.735
 8831TIP3    H126436   7.419   1.941   5.710
 8831TIP3    H226437   7.347   2.044   5.795
 8832TIP3   OH226438   6.447   6.259   4.631
 8832TIP3    H126439   6.460   6.165   4.619
 8832TIP3    H226440   6.526   6.288   4.678
 8833TIP3   OH226441   5.343   4.376   4.885
 8833TIP3    H126442   5.281   4.344   4.951
 8833TIP3    H226443   5.301   4.359   4.801
 8834TIP3   OH226444   7.911   1.777   3.620
 8834TIP3    H126445   7.936   1.812   3.534
 8834TIP3    H226446   7.928   1.848   3.681
 8835TIP3   OH226447   7.397   1.828   2.681
 8835TIP3    H126448   7.320   1.842   2.735
 8835TIP3    H226449   7.369   1.765   2.614
 8836TIP3   OH226450   3.303   6.747   3.765
 8836TIP3    H126451   3.291   6.697   3.684
 8836TIP3    H226452   3.397   6.741   3.783
 8837TIP3   OH226453   3.693   2.179   0.708
 8837TIP3    H126454   3.701   2.085   0.689
 8837TIP3    H226455   3.773   2.218   0.673
 8838TIP3   OH226456   3.187   5.124   5.280
 8838TIP3    H126457   3.264   5.168   5.315
 8838TIP3    H226458   3.158   5.180   5.207
 8839TIP3   OH226459   4.408   3.819   4.001
 8839TIP3    H126460   4.327   3.827   4.052
 8839TIP3    H226461   4.460   3.895   4.027
 8840TIP3   OH226462   2.766   1.715   0.059
 8840TIP3    H126463   2.730   1.682   0.141
 8840TIP3    H226464   2.850   1.754   0.083
 8841TIP3   OH226465   0.499   6.344   1.869
 8841TIP3    H126466   0.467   6.254   1.882
 8841TIP3    H226467   0.453   6.395   1.936
 8842TIP3   OH226468   5.108   7.656   4.300
 8842TIP3    H126469   5.033   7.701   4.338
 8842TIP3    H226470   5.079   7.632   4.212
 8843TIP3   OH226471   0.608   2.238   5.652
 8843TIP3    H126472   0.623   2.315   5.707
 8843TIP3    H226473   0.555   2.180   5.707
 8844TIP3   OH226474   8.033   1.056   3.349
 8844TIP3    H126475   8.051   1.108   3.427
 8844TIP3    H226476   7.995   0.975   3.382
 8845TIP3   OH226477   5.100   2.479   6.495
 8845TIP3    H126478   5.020   2.430   6.475
 8845TIP3    H226479   5.076   2.536   6.568
 8846TIP3   OH226480   5.062   3.759   5.592
 8846TIP3    H126481   5.057   3.851   5.568
 8846TIP3    H226482   4.990   3.745   5.653
 8847TIP3   OH226483   3.697   7.274   0.083
 8847TIP3    H126484   3.634   7.221   0.131
 8847TIP3    H226485   3.776   7.272   0.136
 8848TIP3   OH226486   4.595   1.049   6.121
 8848TIP3    H126487   4.581   0.969   6.070
 8848TIP3    H226488   4.512   1.096   6.115
 8849TIP3   OH226489   1.228   1.996   1.476
 8849TIP3    H126490   1.136   1.990   1.449
 8849TIP3    H226491   1.245   2.090   1.479
 8850TIP3   OH226492   7.998   1.482   6.718
 8850TIP3    H126493   7.980   1.396   6.756
 8850TIP3    H226494   8.024   1.536   6.793
 8851TIP3   OH226495   0.981   5.283   6.605
 8851TIP3    H126496   0.890   5.265   6.628
 8851TIP3    H226497   1.029   5.275   6.688
 8852TIP3   OH226498   0.136   6.831   0.577
 8852TIP3    H126499   0.173   6.794   0.497
 8852TIP3    H226500   0.152   6.925   0.570
 8853TIP3   OH226501   4.544   0.648   5.582
 8853TIP3    H126502   4.623   0.601   5.557
 8853TIP3    H226503   4.557   0.670   5.675
 8854TIP3   OH226504   3.695   1.321   3.924
 8854TIP3    H126505   3.716   1.256   3.990
 8854TIP3    H226506   3.661   1.396   3.973
 8855TIP3   OH226507   5.815   1.601   2.274
 8855TIP3    H126508   5.737   1.627   2.225
 8855TIP3    H226509   5.791   1.518   2.316
 8856TIP3   OH226510   3.110   4.699   3.085
 8856TIP3    H126511   3.045   4.635   3.115
 8856TIP3    H226512   3.061   4.757   3.027
 8857TIP3   OH226513   3.235   2.324   0.853
 8857TIP3    H126514   3.265   2.346   0.941
 8857TIP3    H226515   3.314   2.325   0.800
 8858TIP3   OH226516   6.228   4.032   1.336
 8858TIP3    H126517   6.321   4.037   1.313
 8858TIP3    H226518   6.224   3.970   1.408
 8859TIP3   OH226519   5.187   0.541   0.417
 8859TIP3    H126520   5.097   0.515   0.394
 8859TIP3    H226521   5.242   0.474   0.377
 8860TIP3   OH226522   4.003   3.818   6.015
 8860TIP3    H126523   3.957   3.883   6.067
 8860TIP3    H226524   4.091   3.814   6.052
 8861TIP3   OH226525   3.897   3.878   4.381
 8861TIP3    H126526   3.811   3.851   4.413
 8861TIP3    H226527   3.958   3.851   4.450
 8862TIP3   OH226528   2.773   6.624   3.627
 8862TIP3    H126529   2.774   6.624   3.531
 8862TIP3    H226530   2.693   6.577   3.650
 8863TIP3   OH226531   0.375   6.181   5.319
 8863TIP3    H126532   0.420   6.162   5.401
 8863TIP3    H226533   0.435   6.150   5.251
 8864TIP3   OH226534   1.772   0.520   6.278
 8864TIP3    H126535   1.855   0.564   6.297
 8864TIP3    H226536   1.798   0.440   6.232
 8865TIP3   OH226537   7.590   6.796   2.762
 8865TIP3    H126538   7.554   6.861   2.702
 8865TIP3    H226539   7.632   6.848   2.831
 8866TIP3   OH226540   7.715   4.350   4.535
 8866TIP3    H126541   7.625   4.351   4.567
 8866TIP3    H226542   7.752   4.432   4.566
 8867TIP3   OH226543   1.413   1.469   2.276
 8867TIP3    H126544   1.472   1.487   2.202
 8867TIP3    H226545   1.326   1.491   2.242
 8868TIP3   OH226546   7.870   4.555   1.863
 8868TIP3    H126547   7.960   4.582   1.842
 8868TIP3    H226548   7.816   4.608   1.804
 8869TIP3   OH226549   2.663   3.941   4.149
 8869TIP3    H126550   2.586   3.933   4.093
 8869TIP3    H226551   2.715   4.010   4.109
 8870TIP3   OH226552   4.846   4.378   0.557
 8870TIP3    H126553   4.772   4.331   0.594
 8870TIP3    H226554   4.810   4.461   0.525
 8871TIP3   OH226555   4.950   0.955   4.485
 8871TIP3    H126556   4.989   1.015   4.421
 8871TIP3    H226557   4.869   0.999   4.512
 8872TIP3   OH226558   0.359   4.693   2.151
 8872TIP3    H126559   0.395   4.606   2.169
 8872TIP3    H226560   0.301   4.679   2.076
 8873TIP3   OH226561   3.013   3.450   2.851
 8873TIP3    H126562   2.929   3.447   2.897
 8873TIP3    H226563   3.034   3.359   2.832
 8874TIP3   OH226564   2.198   2.142   5.636
 8874TIP3    H126565   2.203   2.061   5.585
 8874TIP3    H226566   2.285   2.150   5.676
 8875TIP3   OH226567   0.288   6.409   2.073
 8875TIP3    H126568   0.217   6.351   2.043
 8875TIP3    H226569   0.299   6.388   2.165
 8876TIP3   OH226570   2.059   2.893   5.921
 8876TIP3    H126571   1.973   2.924   5.893
 8876TIP3    H226572   2.046   2.799   5.936
 8877TIP3   OH226573   1.452   4.575   1.894
 8877TIP3    H126574   1.465   4.539   1.807
 8877TIP3    H226575   1.356   4.578   1.905
 8878TIP3   OH226576   6.490   0.979   1.014
 8878TIP3    H126577   6.579   1.011   1.034
 8878TIP3    H226578   6.504   0.908   0.951
 8879TIP3   OH226579   7.822   0.366   5.216
 8879TIP3    H126580   7.903   0.315   5.214
 8879TIP3    H226581   7.757   0.305   5.250
 8880TIP3   OH226582   8.286   0.278   0.494
 8880TIP3    H126583   8.191   0.290   0.493
 8880TIP3    H226584   8.298   0.191   0.532
 8881TIP3   OH226585   4.647   7.484   1.964
 8881TIP3    H126586   4.612   7.546   2.028
 8881TIP3    H226587   4.653   7.401   2.012
 8882TIP3   OH226588   4.699   1.457   3.153
 8882TIP3    H126589   4.668   1.366   3.148
 8882TIP3    H226590   4.794   1.450   3.151
 8883TIP3   OH226591   1.003   5.378   0.570
 8883TIP3    H126592   0.925   5.413   0.613
 8883TIP3    H226593   1.049   5.330   0.639
 8884TIP3   OH226594   3.160   7.674   4.990
 8884TIP3    H126595   3.068   7.700   4.986
 8884TIP3    H226596   3.207   7.757   4.999
 8885TIP3   OH226597   1.436   5.172   3.915
 8885TIP3    H126598   1.357   5.165   3.968
 8885TIP3    H226599   1.487   5.241   3.957
 8886TIP3   OH226600   2.736   6.249   2.600
 8886TIP3    H126601   2.677   6.174   2.604
 8886TIP3    H226602   2.713   6.302   2.676
 8887TIP3   OH226603   7.944   7.106   4.027
 8887TIP3    H126604   7.983   7.122   3.941
 8887TIP3    H226605   7.850   7.101   4.009
 8888TIP3   OH226606   0.496   1.596   0.183
 8888TIP3    H126607   0.477   1.507   0.151
 8888TIP3    H226608   0.413   1.626   0.219
 8889TIP3   OH226609   5.378   4.844   6.242
 8889TIP3    H126610   5.313   4.905   6.205
 8889TIP3    H226611   5.432   4.899   6.299
 8890TIP3   OH226612   0.133   2.638   5.837
 8890TIP3    H126613   0.216   2.598   5.810
 8890TIP3    H226614   0.066   2.588   5.791
 8891TIP3   OH226615   4.852   1.462   2.730
 8891TIP3    H126616   4.816   1.376   2.708
 8891TIP3    H226617   4.781   1.506   2.777
 8892TIP3   OH226618   6.808   0.138   3.614
 8892TIP3    H126619   6.802   0.123   3.520
 8892TIP3    H226620   6.894   0.103   3.638
 8893TIP3   OH226621   4.329   7.092   0.899
 8893TIP3    H126622   4.350   7.053   0.814
 8893TIP3    H226623   4.273   7.167   0.879
 8894TIP3   OH226624   4.885   6.220   4.692
 8894TIP3    H126625   4.822   6.292   4.706
 8894TIP3    H226626   4.890   6.175   4.776
 8895TIP3   OH226627   2.240   0.319   6.581
 8895TIP3    H126628   2.186   0.388   6.542
 8895TIP3    H226629   2.186   0.284   6.652
 8896TIP3   OH226630   7.548   1.120   1.883
 8896TIP3    H126631   7.591   1.081   1.807
 8896TIP3    H226632   7.462   1.148   1.850
 8897TIP3   OH226633   7.066   3.758   6.513
 8897TIP3    H126634   7.075   3.663   6.504
 8897TIP3    H226635   7.156   3.791   6.506
 8898TIP3   OH226636   1.468   6.267   2.010
 8898TIP3    H126637   1.544   6.224   1.970
 8898TIP3    H226638   1.451   6.342   1.953
 8899TIP3   OH226639   2.915   4.098   2.341
 8899TIP3    H126640   2.964   4.045   2.404
 8899TIP3    H226641   2.981   4.158   2.306
 8900TIP3   OH226642   3.015   4.697   5.491
 8900TIP3    H126643   2.929   4.690   5.449
 8900TIP3    H226644   3.016   4.783   5.532
 8901TIP3   OH226645   0.636   6.215   4.495
 8901TIP3    H126646   0.684   6.295   4.474
 8901TIP3    H226647   0.694   6.168   4.555
 8902TIP3   OH226648   1.702   3.201   3.529
 8902TIP3    H126649   1.772   3.226   3.588
 8902TIP3    H226650   1.660   3.126   3.571
 8903TIP3   OH226651   1.303   1.011   3.600
 8903TIP3    H126652   1.293   1.079   3.533
 8903TIP3    H226653   1.398   0.996   3.604
 8904TIP3   OH226654   1.158   5.590   2.882
 8904TIP3    H126655   1.193   5.506   2.851
 8904TIP3    H226656   1.192   5.654   2.818
 8905TIP3   OH226657   3.056   6.788   1.001
 8905TIP3    H126658   3.073   6.695   0.984
 8905TIP3    H226659   3.036   6.791   1.095
 8906TIP3   OH226660   3.670   4.984   0.600
 8906TIP3    H126661   3.666   5.076   0.627
 8906TIP3    H226662   3.579   4.956   0.596
 8907TIP3   OH226663   3.095   1.790   3.417
 8907TIP3    H126664   3.138   1.706   3.433
 8907TIP3    H226665   3.034   1.800   3.490
 8908TIP3   OH226666   0.512   6.326   1.526
 8908TIP3    H126667   0.591   6.339   1.579
 8908TIP3    H226668   0.493   6.232   1.532
 8909TIP3   OH226669   5.874   1.699   0.272
 8909TIP3    H126670   5.829   1.781   0.254
 8909TIP3    H226671   5.965   1.724   0.288
 8910TIP3   OH226672   2.842   6.474   5.382
 8910TIP3    H126673   2.774   6.444   5.322
 8910TIP3    H226674   2.836   6.570   5.380
 8911TIP3   OH226675   7.570   3.772   4.835
 8911TIP3    H126676   7.602   3.760   4.925
 8911TIP3    H226677   7.584   3.865   4.817
 8912TIP3   OH226678   7.841   1.131   6.166
 8912TIP3    H126679   7.872   1.198   6.104
 8912TIP3    H226680   7.910   1.127   6.233
 8913TIP3   OH226681   7.243   1.042   3.925
 8913TIP3    H126682   7.305   1.087   3.983
 8913TIP3    H226683   7.253   0.949   3.948
 8914TIP3   OH226684   7.672   5.379   3.455
 8914TIP3    H126685   7.591   5.419   3.424
 8914TIP3    H226686   7.682   5.411   3.545
 8915TIP3   OH226687   2.640   3.417   3.355
 8915TIP3    H126688   2.610   3.469   3.430
 8915TIP3    H226689   2.670   3.483   3.291
 8916TIP3   OH226690   4.819   5.055   1.120
 8916TIP3    H126691   4.781   5.143   1.119
 8916TIP3    H226692   4.751   5.000   1.161
 8917TIP3   OH226693   3.551   2.572   0.428
 8917TIP3    H126694   3.636   2.561   0.470
 8917TIP3    H226695   3.564   2.642   0.365
 8918TIP3   OH226696   6.380   6.341   5.728
 8918TIP3    H126697   6.401   6.401   5.657
 8918TIP3    H226698   6.327   6.393   5.789
 8919TIP3   OH226699   7.970   5.330   1.624
 8919TIP3    H126700   7.988   5.240   1.653
 8919TIP3    H226701   8.024   5.384   1.682
 8920TIP3   OH226702   1.645   1.998   4.925
 8920TIP3    H126703   1.733   2.030   4.942
 8920TIP3    H226704   1.658   1.909   4.891
 8921TIP3   OH226705   7.463   3.161   4.233
 8921TIP3    H126706   7.374   3.149   4.267
 8921TIP3    H226707   7.460   3.246   4.188
 8922TIP3   OH226708   4.889   7.052   4.126
 8922TIP3    H126709   4.953   7.119   4.151
 8922TIP3    H226710   4.809   7.102   4.106
 8923TIP3   OH226711   0.472   5.721   1.565
 8923TIP3    H126712   0.413   5.720   1.641
 8923TIP3    H226713   0.430   5.663   1.501
 8924TIP3   OH226714   3.249   7.168   2.926
 8924TIP3    H126715   3.214   7.202   2.844
 8924TIP3    H226716   3.224   7.075   2.926
 8925TIP3   OH226717   1.778   1.945   3.565
 8925TIP3    H126718   1.826   1.983   3.638
 8925TIP3    H226719   1.844   1.928   3.498
 8926TIP3   OH226720   0.245   6.514   1.268
 8926TIP3    H126721   0.229   6.514   1.173
 8926TIP3    H226722   0.338   6.491   1.276
 8927TIP3   OH226723   4.584   4.487   0.660
 8927TIP3    H126724   4.592   4.581   0.677
 8927TIP3    H226725   4.490   4.472   0.652
 8928TIP3   OH226726   3.569   2.233   2.033
 8928TIP3    H126727   3.505   2.305   2.029
 8928TIP3    H226728   3.569   2.196   1.945
 8929TIP3   OH226729   5.365   2.461   2.312
 8929TIP3    H126730   5.413   2.397   2.259
 8929TIP3    H226731   5.367   2.541   2.260
 8930TIP3   OH226732   1.473   6.268   0.639
 8930TIP3    H126733   1.562   6.304   0.632
 8930TIP3    H226734   1.430   6.322   0.705
 8931TIP3   OH226735   4.591   2.608   4.645
 8931TIP3    H126736   4.566   2.572   4.730
 8931TIP3    H226737   4.521   2.670   4.624
 8932TIP3   OH226738   4.131   1.390   1.222
 8932TIP3    H126739   4.118   1.481   1.250
 8932TIP3    H226740   4.066   1.376   1.153
 8933TIP3   OH226741   5.136   4.850   5.210
 8933TIP3    H126742   5.154   4.789   5.138
 8933TIP3    H226743   5.057   4.897   5.181
 8934TIP3   OH226744   8.072   3.781   2.530
 8934TIP3    H126745   7.992   3.744   2.491
 8934TIP3    H226746   8.120   3.704   2.560
 8935TIP3   OH226747   0.294   5.098   0.977
 8935TIP3    H126748   0.352   5.160   0.933
 8935TIP3    H226749   0.250   5.149   1.045
 8936TIP3   OH226750   1.017   2.484   0.471
 8936TIP3    H126751   0.929   2.515   0.490
 8936TIP3    H226752   1.068   2.504   0.550
 8937TIP3   OH226753   7.090   5.957   4.933
 8937TIP3    H126754   7.048   6.021   4.876
 8937TIP3    H226755   7.177   5.944   4.895
 8938TIP3   OH226756   1.531   4.709   0.174
 8938TIP3    H126757   1.573   4.780   0.126
 8938TIP3    H226758   1.448   4.746   0.205
 8939TIP3   OH226759   7.069   2.385   1.352
 8939TIP3    H126760   7.036   2.379   1.442
 8939TIP3    H226761   7.018   2.321   1.303
 8940TIP3   OH226762   8.280   3.435   4.837
 8940TIP3    H126763   8.204   3.403   4.787
 8940TIP3    H226764   8.355   3.398   4.791
 8941TIP3   OH226765   3.823   1.060   5.555
 8941TIP3    H126766   3.786   1.140   5.518
 8941TIP3    H226767   3.747   1.006   5.578
 8942TIP3   OH226768   3.792   0.776   1.834
 8942TIP3    H126769   3.786   0.743   1.744
 8942TIP3    H226770   3.706   0.816   1.850
 8943TIP3   OH226771   1.468   6.007   5.728
 8943TIP3    H126772   1.552   6.017   5.683
 8943TIP3    H226773   1.420   6.087   5.709
 8944TIP3   OH226774   2.348   2.824   1.956
 8944TIP3    H126775   2.438   2.820   1.925
 8944TIP3    H226776   2.302   2.879   1.892
 8945TIP3   OH226777   3.276   0.418   6.365
 8945TIP3    H126778   3.294   0.325   6.349
 8945TIP3    H226779   3.245   0.420   6.456
 8946TIP3   OH226780   1.119   3.972   1.531
 8946TIP3    H126781   1.168   3.962   1.613
 8946TIP3    H226782   1.171   3.927   1.466
 8947TIP3   OH226783   7.080   4.294   1.126
 8947TIP3    H126784   7.045   4.232   1.061
 8947TIP3    H226785   7.019   4.288   1.200
 8948TIP3   OH226786   1.888   2.753   5.112
 8948TIP3    H126787   1.936   2.730   5.032
 8948TIP3    H226788   1.797   2.733   5.090
 8949TIP3   OH226789   5.141   2.558   2.168
 8949TIP3    H126790   5.149   2.539   2.075
 8949TIP3    H226791   5.131   2.653   2.173
 8950TIP3   OH226792   1.050   1.581   4.226
 8950TIP3    H126793   1.101   1.662   4.226
 8950TIP3    H226794   1.010   1.579   4.313
 8951TIP3   OH226795   0.325   2.088   3.647
 8951TIP3    H126796   0.272   2.098   3.567
 8951TIP3    H226797   0.363   2.174   3.662
 8952TIP3   OH226798   0.570   4.786   6.059
 8952TIP3    H126799   0.496   4.827   6.014
 8952TIP3    H226800   0.536   4.767   6.147
 8953TIP3   OH226801   8.181   3.189   3.284
 8953TIP3    H126802   8.230   3.258   3.240
 8953TIP3    H226803   8.232   3.110   3.268
 8954TIP3   OH226804   0.523   5.674   2.956
 8954TIP3    H126805   0.607   5.718   2.944
 8954TIP3    H226806   0.473   5.731   3.014
 8955TIP3   OH226807   1.764   4.173   3.326
 8955TIP3    H126808   1.728   4.157   3.238
 8955TIP3    H226809   1.757   4.088   3.370
 8956TIP3   OH226810   2.403   7.302   4.258
 8956TIP3    H126811   2.474   7.364   4.277
 8956TIP3    H226812   2.353   7.297   4.339
 8957TIP3   OH226813   1.660   7.350   5.475
 8957TIP3    H126814   1.655   7.371   5.381
 8957TIP3    H226815   1.666   7.255   5.478
 8958TIP3   OH226816   6.285   3.338   5.580
 8958TIP3    H126817   6.341   3.405   5.540
 8958TIP3    H226818   6.283   3.362   5.673
 8959TIP3   OH226819   5.678   4.180   0.785
 8959TIP3    H126820   5.603   4.206   0.732
 8959TIP3    H226821   5.649   4.101   0.831
 8960TIP3   OH226822   4.832   4.512   6.433
 8960TIP3    H126823   4.739   4.504   6.409
 8960TIP3    H226824   4.853   4.430   6.477
 8961TIP3   OH226825   3.260   4.628   0.634
 8961TIP3    H126826   3.225   4.687   0.568
 8961TIP3    H226827   3.333   4.676   0.673
 8962TIP3   OH226828   3.277   3.738   0.090
 8962TIP3    H126829   3.191   3.771   0.116
 8962TIP3    H226830   3.269   3.723  -0.004
 8963TIP3   OH226831   7.637   2.953   4.357
 8963TIP3    H126832   7.726   2.928   4.332
 8963TIP3    H226833   7.622   3.036   4.310
 8964TIP3   OH226834   0.058   6.777   2.820
 8964TIP3    H126835  -0.002   6.711   2.786
 8964TIP3    H226836   0.127   6.726   2.862
 8965TIP3   OH226837   4.519   0.449   1.328
 8965TIP3    H126838   4.526   0.354   1.339
 8965TIP3    H226839   4.442   0.462   1.273
 8966TIP3   OH226840   3.222   4.971   2.218
 8966TIP3    H126841   3.219   5.055   2.263
 8966TIP3    H226842   3.314   4.959   2.196
 8967TIP3   OH226843   0.519   1.410   1.729
 8967TIP3    H126844   0.430   1.441   1.746
 8967TIP3    H226845   0.533   1.427   1.635
 8968TIP3   OH226846   4.021   1.106   6.070
 8968TIP3    H126847   3.947   1.051   6.096
 8968TIP3    H226848   4.003   1.127   5.978
 8969TIP3   OH226849   0.348   3.872   5.383
 8969TIP3    H126850   0.413   3.837   5.323
 8969TIP3    H226851   0.360   3.967   5.380
 8970TIP3   OH226852   6.150   6.466   1.427
 8970TIP3    H126853   6.115   6.555   1.415
 8970TIP3    H226854   6.131   6.445   1.518
 8971TIP3   OH226855   5.911   6.754   4.038
 8971TIP3    H126856   5.867   6.687   3.985
 8971TIP3    H226857   5.918   6.715   4.125
 8972TIP3   OH226858   1.712   0.376   4.069
 8972TIP3    H126859   1.785   0.363   4.009
 8972TIP3    H226860   1.735   0.454   4.119
 8973TIP3   OH226861   6.541   2.986   3.680
 8973TIP3    H126862   6.561   3.076   3.655
 8973TIP3    H226863   6.617   2.958   3.732
 8974TIP3   OH226864   4.647   4.076   4.640
 8974TIP3    H126865   4.666   4.084   4.547
 8974TIP3    H226866   4.674   4.160   4.677
 8975TIP3   OH226867   6.828   2.322   2.358
 8975TIP3    H126868   6.803   2.248   2.301
 8975TIP3    H226869   6.848   2.281   2.442
 8976TIP3   OH226870   5.360   6.115   6.228
 8976TIP3    H126871   5.422   6.176   6.188
 8976TIP3    H226872   5.291   6.170   6.263
 8977TIP3   OH226873   0.607   3.456   3.069
 8977TIP3    H126874   0.671   3.513   3.026
 8977TIP3    H226875   0.648   3.370   3.070
 8978TIP3   OH226876   8.223   5.616   3.288
 8978TIP3    H126877   8.132   5.592   3.273
 8978TIP3    H226878   8.222   5.711   3.296
 8979TIP3   OH226879   6.839   1.537   3.704
 8979TIP3    H126880   6.826   1.609   3.766
 8979TIP3    H226881   6.922   1.497   3.730
 8980TIP3   OH226882   1.485   5.175   1.232
 8980TIP3    H126883   1.422   5.246   1.242
 8980TIP3    H226884   1.480   5.126   1.313
 8981TIP3   OH226885   4.596   1.818   1.721
 8981TIP3    H126886   4.635   1.828   1.808
 8981TIP3    H226887   4.670   1.810   1.662
 8982TIP3   OH226888   5.084   2.763   5.508
 8982TIP3    H126889   5.054   2.776   5.418
 8982TIP3    H226890   5.016   2.708   5.547
 8983TIP3   OH226891   4.274   5.183   2.518
 8983TIP3    H126892   4.224   5.184   2.599
 8983TIP3    H226893   4.334   5.257   2.525
 8984TIP3   OH226894   0.615   2.746   0.744
 8984TIP3    H126895   0.569   2.811   0.690
 8984TIP3    H226896   0.550   2.678   0.761
 8985TIP3   OH226897   0.595   5.237   3.775
 8985TIP3    H126898   0.583   5.143   3.782
 8985TIP3    H226899   0.677   5.255   3.822
 8986TIP3   OH226900   4.641   0.464   0.128
 8986TIP3    H126901   4.573   0.506   0.180
 8986TIP3    H226902   4.723   0.497   0.165
 8987TIP3   OH226903   5.410   3.507   6.078
 8987TIP3    H126904   5.424   3.563   6.154
 8987TIP3    H226905   5.319   3.522   6.054
 8988TIP3   OH226906   1.840   5.339   5.082
 8988TIP3    H126907   1.892   5.374   5.010
 8988TIP3    H226908   1.842   5.244   5.069
 8989TIP3   OH226909   3.702   4.140   6.500
 8989TIP3    H126910   3.640   4.182   6.559
 8989TIP3    H226911   3.701   4.048   6.524
 8990TIP3   OH226912   5.238   1.112   5.829
 8990TIP3    H126913   5.228   1.133   5.736
 8990TIP3    H226914   5.274   1.192   5.868
 8991TIP3   OH226915   5.616   4.815   0.696
 8991TIP3    H126916   5.641   4.793   0.606
 8991TIP3    H226917   5.520   4.807   0.696
 8992TIP3   OH226918   0.491   1.217   0.326
 8992TIP3    H126919   0.555   1.251   0.389
 8992TIP3    H226920   0.437   1.158   0.378
 8993TIP3   OH226921   3.208   0.660   5.085
 8993TIP3    H126922   3.157   0.657   5.003
 8993TIP3    H226923   3.195   0.574   5.124
 8994TIP3   OH226924   0.679   6.692   1.757
 8994TIP3    H126925   0.684   6.616   1.699
 8994TIP3    H226926   0.617   6.665   1.826
 8995TIP3   OH226927   0.691   0.079   5.362
 8995TIP3    H126928   0.783   0.055   5.376
 8995TIP3    H226929   0.694   0.144   5.292
 8996TIP3   OH226930   6.405   7.088   0.404
 8996TIP3    H126931   6.362   7.117   0.323
 8996TIP3    H226932   6.392   7.160   0.465
 8997TIP3   OH226933   8.060   7.723   0.699
 8997TIP3    H126934   8.136   7.675   0.666
 8997TIP3    H226935   8.096   7.807   0.729
 8998TIP3   OH226936   0.272   3.050   5.313
 8998TIP3    H126937   0.284   3.137   5.351
 8998TIP3    H226938   0.257   2.993   5.388
 8999TIP3   OH226939   0.338   2.891   4.809
 8999TIP3    H126940   0.420   2.902   4.856
 8999TIP3    H226941   0.357   2.825   4.742
 9000TIP3   OH226942   7.133   1.294   5.189
 9000TIP3    H126943   7.113   1.336   5.105
 9000TIP3    H226944   7.212   1.244   5.172
 9001TIP3   OH226945   6.186   1.800   5.434
 9001TIP3    H126946   6.206   1.821   5.343
 9001TIP3    H226947   6.173   1.705   5.435
 9002TIP3   OH226948   1.758   2.151   2.365
 9002TIP3    H126949   1.726   2.223   2.311
 9002TIP3    H226950   1.767   2.077   2.305
 9003TIP3   OH226951   0.532   6.072   5.520
 9003TIP3    H126952   0.593   6.143   5.537
 9003TIP3    H226953   0.576   6.018   5.454
 9004TIP3   OH226954   4.473   1.919   1.036
 9004TIP3    H126955   4.486   1.948   1.126
 9004TIP3    H226956   4.492   1.825   1.037
 9005TIP3   OH226957   8.175   2.241   0.843
 9005TIP3    H126958   8.125   2.322   0.832
 9005TIP3    H226959   8.112   2.171   0.824
 9006TIP3   OH226960   7.068   6.867   4.962
 9006TIP3    H126961   7.119   6.839   5.039
 9006TIP3    H226962   7.043   6.785   4.919
 9007TIP3   OH226963   2.493   1.362   6.754
 9007TIP3    H126964   2.586   1.370   6.773
 9007TIP3    H226965   2.480   1.269   6.736
 9008TIP3   OH226966   4.290   5.906   0.856
 9008TIP3    H126967   4.371   5.948   0.883
 9008TIP3    H226968   4.223   5.945   0.912
 9009TIP3   OH226969   5.272   3.398   4.658
 9009TIP3    H126970   5.187   3.410   4.616
 9009TIP3    H226971   5.258   3.425   4.749
 9010TIP3   OH226972   5.350   1.205   2.031
 9010TIP3    H126973   5.441   1.180   2.044
 9010TIP3    H226974   5.324   1.248   2.113
 9011TIP3   OH226975   4.202   1.808   0.432
 9011TIP3    H126976   4.231   1.724   0.397
 9011TIP3    H226977   4.215   1.870   0.361
 9012TIP3   OH226978   5.711   7.576   4.790
 9012TIP3    H126979   5.745   7.655   4.832
 9012TIP3    H226980   5.758   7.504   4.835
 9013TIP3   OH226981   3.877   5.216   3.275
 9013TIP3    H126982   3.903   5.306   3.255
 9013TIP3    H226983   3.835   5.185   3.194
 9014TIP3   OH226984   8.264   1.534   3.611
 9014TIP3    H126985   8.179   1.503   3.579
 9014TIP3    H226986   8.250   1.549   3.704
 9015TIP3   OH226987   7.340   0.634   5.508
 9015TIP3    H126988   7.341   0.671   5.596
 9015TIP3    H226989   7.430   0.642   5.477
 9016TIP3   OH226990   1.368   4.150   6.189
 9016TIP3    H126991   1.278   4.121   6.174
 9016TIP3    H226992   1.359   4.229   6.242
 9017TIP3   OH226993   5.953   7.148   1.889
 9017TIP3    H126994   6.030   7.197   1.859
 9017TIP3    H226995   5.961   7.063   1.845
 9018TIP3   OH226996   7.166   3.976   5.382
 9018TIP3    H126997   7.182   3.995   5.289
 9018TIP3    H226998   7.119   4.052   5.414
 9019TIP3   OH226999   2.548   6.101   0.812
 9019TIP3    H127000   2.629   6.151   0.807
 9019TIP3    H227001   2.575   6.010   0.805
 9020TIP3   OH227002   4.622   4.351   1.233
 9020TIP3    H127003   4.641   4.259   1.213
 9020TIP3    H227004   4.575   4.383   1.156
 9021TIP3   OH227005   7.360   4.694   4.789
 9021TIP3    H127006   7.314   4.764   4.835
 9021TIP3    H227007   7.309   4.615   4.809
 9022TIP3   OH227008   4.228   7.722   0.147
 9022TIP3    H127009   4.173   7.769   0.084
 9022TIP3    H227010   4.221   7.774   0.227
 9023TIP3   OH227011   6.443   1.232   3.603
 9023TIP3    H127012   6.359   1.258   3.641
 9023TIP3    H227013   6.421   1.208   3.513
 9024TIP3   OH227014   2.310   1.524   6.631
 9024TIP3    H127015   2.381   1.585   6.617
 9024TIP3    H227016   2.348   1.454   6.684
 9025TIP3   OH227017   3.153   4.291   4.854
 9025TIP3    H127018   3.076   4.344   4.875
 9025TIP3    H227019   3.154   4.288   4.758
 9026TIP3   OH227020   7.889   0.574   1.957
 9026TIP3    H127021   7.945   0.543   2.028
 9026TIP3    H227022   7.935   0.650   1.921
 9027TIP3   OH227023   6.049   2.118   6.665
 9027TIP3    H127024   6.045   2.109   6.569
 9027TIP3    H227025   6.018   2.207   6.681
 9028TIP3   OH227026   4.353   1.360   5.748
 9028TIP3    H127027   4.271   1.398   5.716
 9028TIP3    H227028   4.332   1.328   5.836
 9029TIP3   OH227029   4.603   6.753   5.696
 9029TIP3    H127030   4.597   6.668   5.651
 9029TIP3    H227031   4.684   6.791   5.663
 9030TIP3   OH227032   1.159   3.552   5.383
 9030TIP3    H127033   1.065   3.542   5.397
 9030TIP3    H227034   1.193   3.463   5.378
 9031TIP3   OH227035   2.305   4.130   4.596
 9031TIP3    H127036   2.223   4.082   4.598
 9031TIP3    H227037   2.364   4.076   4.543
 9032TIP3   OH227038   4.596   5.151   4.332
 9032TIP3    H127039   4.628   5.197   4.254
 9032TIP3    H227040   4.630   5.062   4.323
 9033TIP3   OH227041   3.998   1.328   0.985
 9033TIP3    H127042   3.981   1.270   0.912
 9033TIP3    H227043   4.014   1.414   0.945
 9034TIP3   OH227044   4.766   1.833   1.943
 9034TIP3    H127045   4.813   1.756   1.974
 9034TIP3    H227046   4.832   1.902   1.938
 9035TIP3   OH227047   7.871   7.532   6.473
 9035TIP3    H127048   7.817   7.482   6.412
 9035TIP3    H227049   7.854   7.492   6.558
 9036TIP3   OH227050   8.234   7.539   4.720
 9036TIP3    H127051   8.201   7.466   4.668
 9036TIP3    H227052   8.239   7.613   4.659
 9037TIP3   OH227053   2.227   0.912   2.290
 9037TIP3    H127054   2.222   1.000   2.254
 9037TIP3    H227055   2.171   0.914   2.368
 9038TIP3   OH227056   6.516   6.224   0.383
 9038TIP3    H127057   6.445   6.266   0.335
 9038TIP3    H227058   6.519   6.269   0.467
 9039TIP3   OH227059   4.565   2.330   4.564
 9039TIP3    H127060   4.583   2.420   4.592
 9039TIP3    H227061   4.487   2.337   4.508
 9040TIP3   OH227062   2.348   1.264   0.283
 9040TIP3    H127063   2.375   1.228   0.367
 9040TIP3    H227064   2.311   1.190   0.235
 9041TIP3   OH227065   0.984   7.101   4.106
 9041TIP3    H127066   1.070   7.108   4.148
 9041TIP3    H227067   0.938   7.033   4.157
 9042TIP3   OH227068   6.654   3.646   3.758
 9042TIP3    H127069   6.600   3.571   3.732
 9042TIP3    H227070   6.742   3.623   3.728
 9043TIP3   OH227071   6.410   4.068   4.112
 9043TIP3    H127072   6.430   4.048   4.020
 9043TIP3    H227073   6.336   4.127   4.109
 9044TIP3   OH227074   8.178   4.495   1.943
 9044TIP3    H127075   8.161   4.563   1.878
 9044TIP3    H227076   8.201   4.418   1.891
 9045TIP3   OH227077   1.766   5.616   2.168
 9045TIP3    H127078   1.767   5.688   2.231
 9045TIP3    H227079   1.808   5.652   2.090
 9046TIP3   OH227080   2.417   6.335   1.636
 9046TIP3    H127081   2.462   6.394   1.697
 9046TIP3    H227082   2.399   6.389   1.560
 9047TIP3   OH227083   2.148   3.492   1.080
 9047TIP3    H127084   2.214   3.423   1.092
 9047TIP3    H227085   2.158   3.519   0.989
 9048TIP3   OH227086   4.860   1.588   6.757
 9048TIP3    H127087   4.794   1.656   6.740
 9048TIP3    H227088   4.910   1.583   6.675
 9049TIP3   OH227089   4.474   1.420   1.560
 9049TIP3    H127090   4.509   1.367   1.632
 9049TIP3    H227091   4.417   1.483   1.603
 9050TIP3   OH227092   8.281   4.445   6.269
 9050TIP3    H127093   8.208   4.398   6.229
 9050TIP3    H227094   8.269   4.536   6.242
 9051TIP3   OH227095   7.628   1.025   0.332
 9051TIP3    H127096   7.646   1.009   0.240
 9051TIP3    H227097   7.604   0.940   0.368
 9052TIP3   OH227098   2.638   7.754   6.013
 9052TIP3    H127099   2.702   7.824   6.024
 9052TIP3    H227100   2.644   7.703   6.093
 9053TIP3   OH227101   5.337   2.324   1.403
 9053TIP3    H127102   5.325   2.410   1.444
 9053TIP3    H227103   5.431   2.319   1.385
 9054TIP3   OH227104   1.192   6.791   2.059
 9054TIP3    H127105   1.193   6.696   2.072
 9054TIP3    H227106   1.284   6.816   2.055
 9055TIP3   OH227107   5.909   1.236   0.321
 9055TIP3    H127108   5.936   1.182   0.396
 9055TIP3    H227109   5.916   1.326   0.353
 9056TIP3   OH227110   3.423   5.831   5.653
 9056TIP3    H127111   3.406   5.754   5.706
 9056TIP3    H227112   3.352   5.891   5.674
 9057TIP3   OH227113   6.674   6.332   5.738
 9057TIP3    H127114   6.601   6.394   5.743
 9057TIP3    H227115   6.632   6.247   5.725
 9058TIP3   OH227116   5.500   5.964   4.641
 9058TIP3    H127117   5.427   5.918   4.682
 9058TIP3    H227118   5.549   6.001   4.714
 9059TIP3   OH227119   2.225   5.328   0.788
 9059TIP3    H127120   2.308   5.298   0.753
 9059TIP3    H227121   2.215   5.281   0.871
 9060TIP3   OH227122   6.257   4.261   3.616
 9060TIP3    H127123   6.317   4.186   3.616
 9060TIP3    H227124   6.313   4.337   3.629
 9061TIP3   OH227125   3.264   4.853   0.159
 9061TIP3    H127126   3.189   4.909   0.176
 9061TIP3    H227127   3.235   4.766   0.187
 9062TIP3   OH227128   5.074   4.315   2.280
 9062TIP3    H127129   5.154   4.285   2.238
 9062TIP3    H227130   5.102   4.345   2.367
 9063TIP3   OH227131   2.446   4.445   5.334
 9063TIP3    H127132   2.516   4.505   5.306
 9063TIP3    H227133   2.369   4.501   5.342
 9064TIP3   OH227134   6.356   5.908   2.858
 9064TIP3    H127135   6.358   5.836   2.921
 9064TIP3    H227136   6.433   5.960   2.880
 9065TIP3   OH227137   3.290   7.431   2.549
 9065TIP3    H127138   3.320   7.347   2.583
 9065TIP3    H227139   3.370   7.480   2.530
 9066TIP3   OH227140   1.614   6.735   0.337
 9066TIP3    H127141   1.688   6.718   0.395
 9066TIP3    H227142   1.544   6.766   0.396
 9067TIP3   OH227143   3.245   4.761   4.860
 9067TIP3    H127144   3.195   4.842   4.861
 9067TIP3    H227145   3.336   4.788   4.876
 9068TIP3   OH227146   4.720   6.392   4.979
 9068TIP3    H127147   4.811   6.368   4.994
 9068TIP3    H227148   4.724   6.468   4.920
 9069TIP3   OH227149   3.621   2.742   3.283
 9069TIP3    H127150   3.641   2.836   3.276
 9069TIP3    H227151   3.618   2.711   3.192
 9070TIP3   OH227152   5.060   1.103   1.477
 9070TIP3    H127153   4.985   1.109   1.536
 9070TIP3    H227154   5.127   1.157   1.518
 9071TIP3   OH227155   7.449   3.498   4.268
 9071TIP3    H127156   7.532   3.468   4.306
 9071TIP3    H227157   7.390   3.506   4.342
 9072TIP3   OH227158   1.901   3.912   5.155
 9072TIP3    H127159   1.871   3.837   5.103
 9072TIP3    H227160   1.862   3.898   5.241
 9073TIP3   OH227161   6.994   1.923   2.645
 9073TIP3    H127162   7.039   1.862   2.704
 9073TIP3    H227163   6.902   1.919   2.672
 9074TIP3   OH227164   5.783   1.749   6.808
 9074TIP3    H127165   5.702   1.698   6.811
 9074TIP3    H227166   5.793   1.773   6.716
 9075TIP3   OH227167   7.569   2.237   3.401
 9075TIP3    H127168   7.656   2.217   3.434
 9075TIP3    H227169   7.583   2.260   3.309
 9076TIP3   OH227170   7.179   0.833   6.627
 9076TIP3    H127171   7.252   0.771   6.630
 9076TIP3    H227172   7.221   0.919   6.626
 9077TIP3   OH227173   4.113   3.401   5.502
 9077TIP3    H127174   4.128   3.313   5.536
 9077TIP3    H227175   4.030   3.428   5.540
 9078TIP3   OH227176   6.479   4.484   3.165
 9078TIP3    H127177   6.540   4.492   3.238
 9078TIP3    H227178   6.395   4.465   3.206
 9079TIP3   OH227179   8.037   6.774   5.034
 9079TIP3    H127180   8.015   6.681   5.030
 9079TIP3    H227181   8.043   6.802   4.943
 9080TIP3   OH227182   0.346   1.830   5.705
 9080TIP3    H127183   0.372   1.778   5.781
 9080TIP3    H227184   0.266   1.788   5.674
 9081TIP3   OH227185   7.515   6.352   5.542
 9081TIP3    H127186   7.545   6.319   5.626
 9081TIP3    H227187   7.426   6.383   5.558
 9082TIP3   OH227188   0.950   4.210   3.762
 9082TIP3    H127189   0.875   4.157   3.789
 9082TIP3    H227190   0.945   4.288   3.817
 9083TIP3   OH227191   7.460   5.950   0.475
 9083TIP3    H127192   7.391   6.017   0.468
 9083TIP3    H227193   7.541   6.000   0.484
 9084TIP3   OH227194   2.646   7.593   0.554
 9084TIP3    H127195   2.639   7.657   0.625
 9084TIP3    H227196   2.558   7.591   0.515
 9085TIP3   OH227197   1.834   7.538   5.067
 9085TIP3    H127198   1.896   7.486   5.016
 9085TIP3    H227199   1.872   7.626   5.068
 9086TIP3   OH227200   1.106   5.211   0.752
 9086TIP3    H127201   1.155   5.243   0.828
 9086TIP3    H227202   1.036   5.157   0.789
 9087TIP3   OH227203   0.319   6.564   5.629
 9087TIP3    H127204   0.405   6.581   5.667
 9087TIP3    H227205   0.338   6.528   5.543
 9088TIP3   OH227206   7.151   0.995   0.742
 9088TIP3    H127207   7.131   0.939   0.667
 9088TIP3    H227208   7.136   1.084   0.710
 9089TIP3   OH227209   5.591   5.548   6.389
 9089TIP3    H127210   5.572   5.478   6.452
 9089TIP3    H227211   5.520   5.544   6.326
 9090TIP3   OH227212   7.070   0.942   2.839
 9090TIP3    H127213   7.034   1.030   2.833
 9090TIP3    H227214   7.165   0.955   2.835
 9091TIP3   OH227215   2.081   5.122   3.047
 9091TIP3    H127216   2.176   5.123   3.064
 9091TIP3    H227217   2.045   5.066   3.116
 9092TIP3   OH227218   3.738   5.119   2.529
 9092TIP3    H127219   3.788   5.182   2.581
 9092TIP3    H227220   3.675   5.173   2.481
 9093TIP3   OH227221   0.572   4.134   6.132
 9093TIP3    H127222   0.609   4.220   6.114
 9093TIP3    H227223   0.647   4.075   6.138
 9094TIP3   OH227224   3.984   4.608   0.163
 9094TIP3    H127225   3.994   4.586   0.070
 9094TIP3    H227226   3.898   4.573   0.187
 9095TIP3   OH227227   5.928   4.305   0.563
 9095TIP3    H127228   5.846   4.259   0.546
 9095TIP3    H227229   5.902   4.385   0.608
 9096TIP3   OH227230   3.006   2.503   4.109
 9096TIP3    H127231   2.979   2.412   4.116
 9096TIP3    H227232   2.942   2.552   4.159
 9097TIP3   OH227233   7.922   1.316   0.747
 9097TIP3    H127234   7.975   1.394   0.732
 9097TIP3    H227235   7.949   1.255   0.678
 9098TIP3   OH227236   1.420   0.828   4.821
 9098TIP3    H127237   1.351   0.894   4.819
 9098TIP3    H227238   1.460   0.837   4.908
 9099TIP3   OH227239   2.019   1.038   6.209
 9099TIP3    H127240   1.948   1.001   6.261
 9099TIP3    H227241   1.975   1.094   6.145
 9100TIP3   OH227242   3.257   5.453   2.800
 9100TIP3    H127243   3.188   5.416   2.744
 9100TIP3    H227244   3.337   5.412   2.767
 9101TIP3   OH227245   1.854   0.888   0.488
 9101TIP3    H127246   1.928   0.947   0.501
 9101TIP3    H227247   1.875   0.811   0.540
 9102TIP3   OH227248   7.533   3.173   6.505
 9102TIP3    H127249   7.439   3.164   6.519
 9102TIP3    H227250   7.570   3.091   6.539
 9103TIP3   OH227251   7.102   7.356   1.986
 9103TIP3    H127252   7.076   7.418   2.055
 9103TIP3    H227253   7.106   7.272   2.031
 9104TIP3   OH227254   0.448   4.482   2.831
 9104TIP3    H127255   0.357   4.472   2.802
 9104TIP3    H227256   0.478   4.392   2.847
 9105TIP3   OH227257   5.473   5.789   3.977
 9105TIP3    H127258   5.415   5.748   4.041
 9105TIP3    H227259   5.494   5.874   4.016
 9106TIP3   OH227260   8.234   3.697   5.605
 9106TIP3    H127261   8.239   3.696   5.700
 9106TIP3    H227262   8.279   3.776   5.578
 9107TIP3   OH227263   3.508   4.024   3.534
 9107TIP3    H127264   3.494   4.111   3.571
 9107TIP3    H227265   3.601   4.022   3.513
 9108TIP3   OH227266   1.774   5.681   1.685
 9108TIP3    H127267   1.805   5.772   1.687
 9108TIP3    H227268   1.819   5.642   1.610
 9109TIP3   OH227269   5.425   7.574   1.690
 9109TIP3    H127270   5.334   7.602   1.703
 9109TIP3    H227271   5.417   7.480   1.671
 9110TIP3   OH227272   7.382   7.352   3.466
 9110TIP3    H127273   7.353   7.293   3.396
 9110TIP3    H227274   7.465   7.316   3.495
 9111TIP3   OH227275   2.339   6.437   6.424
 9111TIP3    H127276   2.360   6.484   6.343
 9111TIP3    H227277   2.326   6.506   6.489
 9112TIP3   OH227278   1.204   1.825   4.206
 9112TIP3    H127279   1.230   1.841   4.115
 9112TIP3    H227280   1.257   1.886   4.257
 9113TIP3   OH227281   0.015   1.450   6.450
 9113TIP3    H127282   0.054   1.444   6.538
 9113TIP3    H227283   0.081   1.496   6.398
 9114TIP3   OH227284   6.853   0.971   3.915
 9114TIP3    H127285   6.821   0.892   3.872
 9114TIP3    H227286   6.778   1.031   3.915
 9115TIP3   OH227287   4.557   3.208   2.530
 9115TIP3    H127288   4.568   3.216   2.435
 9115TIP3    H227289   4.472   3.165   2.541
 9116TIP3   OH227290   7.154   0.079   3.906
 9116TIP3    H127291   7.208   0.003   3.927
 9116TIP3    H227292   7.078   0.072   3.965
 9117TIP3   OH227293   5.556   1.659   2.452
 9117TIP3    H127294   5.556   1.659   2.548
 9117TIP3    H227295   5.520   1.573   2.428
 9118TIP3   OH227296   1.189   2.482   2.068
 9118TIP3    H127297   1.215   2.555   2.124
 9118TIP3    H227298   1.269   2.430   2.057
 9119TIP3   OH227299   4.565   0.561   6.090
 9119TIP3    H127300   4.567   0.575   5.995
 9119TIP3    H227301   4.582   0.468   6.101
 9120TIP3   OH227302   6.512   4.499   4.713
 9120TIP3    H127303   6.488   4.514   4.622
 9120TIP3    H227304   6.581   4.564   4.730
 9121TIP3   OH227305   6.432   1.416   5.724
 9121TIP3    H127306   6.403   1.379   5.641
 9121TIP3    H227307   6.528   1.409   5.722
 9122TIP3   OH227308   7.877   5.697   0.028
 9122TIP3    H127309   7.871   5.644   0.108
 9122TIP3    H227310   7.857   5.786   0.057
 9123TIP3   OH227311   1.838   6.581   5.981
 9123TIP3    H127312   1.876   6.660   6.019
 9123TIP3    H227313   1.899   6.511   6.004
 9124TIP3   OH227314   4.522   3.565   0.810
 9124TIP3    H127315   4.507   3.477   0.844
 9124TIP3    H227316   4.608   3.590   0.844
 9125TIP3   OH227317   7.539   5.134   5.359
 9125TIP3    H127318   7.618   5.188   5.351
 9125TIP3    H227319   7.486   5.180   5.424
 9126TIP3   OH227320   6.387   6.274   6.115
 9126TIP3    H127321   6.480   6.266   6.093
 9126TIP3    H227322   6.341   6.252   6.035
 9127TIP3   OH227323   1.923   1.453   4.824
 9127TIP3    H127324   1.835   1.444   4.788
 9127TIP3    H227325   1.911   1.504   4.904
 9128TIP3   OH227326   0.526   4.277   3.016
 9128TIP3    H127327   0.522   4.199   3.072
 9128TIP3    H227328   0.619   4.299   3.012
 9129TIP3   OH227329   7.829   3.899   5.418
 9129TIP3    H127330   7.796   3.911   5.507
 9129TIP3    H227331   7.897   3.967   5.409
 9130TIP3   OH227332   8.236   4.672   3.037
 9130TIP3    H127333   8.331   4.674   3.044
 9130TIP3    H227334   8.208   4.611   3.106
 9131TIP3   OH227335   1.206   0.987   4.737
 9131TIP3    H127336   1.184   1.080   4.725
 9131TIP3    H227337   1.134   0.940   4.696
 9132TIP3   OH227338   3.536   1.275   6.686
 9132TIP3    H127339   3.584   1.358   6.692
 9132TIP3    H227340   3.560   1.240   6.600
 9133TIP3   OH227341   4.054   1.331   5.286
 9133TIP3    H127342   4.139   1.342   5.327
 9133TIP3    H227343   3.999   1.290   5.353
 9134TIP3   OH227344   7.089   5.026   4.691
 9134TIP3    H127345   7.154   5.020   4.761
 9134TIP3    H227346   7.116   5.102   4.639
 9135TIP3   OH227347   3.874   4.031   6.144
 9135TIP3    H127348   3.791   4.033   6.098
 9135TIP3    H227349   3.890   4.123   6.168
 9136TIP3   OH227350   0.214   7.208   4.844
 9136TIP3    H127351   0.156   7.133   4.858
 9136TIP3    H227352   0.302   7.172   4.853
 9137TIP3   OH227353   6.071   4.359   2.648
 9137TIP3    H127354   6.040   4.269   2.634
 9137TIP3    H227355   6.055   4.375   2.741
 9138TIP3   OH227356   1.852   5.057   5.129
 9138TIP3    H127357   1.837   5.116   5.202
 9138TIP3    H227358   1.772   5.003   5.125
 9139TIP3   OH227359   1.360   6.954   4.789
 9139TIP3    H127360   1.402   7.032   4.825
 9139TIP3    H227361   1.362   6.890   4.860
 9140TIP3   OH227362   8.245   6.624   3.303
 9140TIP3    H127363   8.334   6.645   3.330
 9140TIP3    H227364   8.253   6.543   3.252
 9141TIP3   OH227365   7.923   4.066   0.698
 9141TIP3    H127366   7.884   3.983   0.725
 9141TIP3    H227367   7.929   4.060   0.603
 9142TIP3   OH227368   5.744   2.188   2.397
 9142TIP3    H127369   5.799   2.168   2.321
 9142TIP3    H227370   5.762   2.280   2.417
 9143TIP3   OH227371   0.493   2.624   3.674
 9143TIP3    H127372   0.486   2.546   3.730
 9143TIP3    H227373   0.562   2.676   3.714
 9144TIP3   OH227374   1.220   2.467   2.376
 9144TIP3    H127375   1.128   2.441   2.377
 9144TIP3    H227376   1.218   2.558   2.346
 9145TIP3   OH227377   4.543   6.999   2.308
 9145TIP3    H127378   4.499   7.084   2.305
 9145TIP3    H227379   4.576   6.992   2.397
 9146TIP3   OH227380   0.575   2.361   2.495
 9146TIP3    H127381   0.538   2.323   2.575
 9146TIP3    H227382   0.501   2.402   2.451
 9147TIP3   OH227383   3.154   1.098   4.423
 9147TIP3    H127384   3.174   1.158   4.494
 9147TIP3    H227385   3.137   1.014   4.466
 9148TIP3   OH227386   5.018   3.073   5.459
 9148TIP3    H127387   5.083   3.020   5.412
 9148TIP3    H227388   4.944   3.015   5.471
 9149TIP3   OH227389   4.028   3.249   4.254
 9149TIP3    H127390   4.088   3.176   4.242
 9149TIP3    H227391   4.060   3.296   4.331
 9150TIP3   OH227392   0.409   0.902   5.107
 9150TIP3    H127393   0.368   0.932   5.188
 9150TIP3    H227394   0.500   0.888   5.130
 9151TIP3   OH227395   6.007   4.616   0.382
 9151TIP3    H127396   5.964   4.619   0.297
 9151TIP3    H227397   5.956   4.677   0.437
 9152TIP3   OH227398  -0.010   4.307   3.931
 9152TIP3    H127399  -0.057   4.374   3.981
 9152TIP3    H227400   0.082   4.327   3.945
 9153TIP3   OH227401   3.937   3.103   1.211
 9153TIP3    H127402   3.941   3.142   1.123
 9153TIP3    H227403   3.865   3.150   1.253
 9154TIP3   OH227404   5.659   5.007   2.495
 9154TIP3    H127405   5.688   4.926   2.535
 9154TIP3    H227406   5.641   4.984   2.404
 9155TIP3   OH227407   0.755   0.727   1.069
 9155TIP3    H127408   0.795   0.725   0.982
 9155TIP3    H227409   0.800   0.797   1.115
 9156TIP3   OH227410   6.765   6.484   2.584
 9156TIP3    H127411   6.759   6.391   2.562
 9156TIP3    H227412   6.834   6.489   2.649
 9157TIP3   OH227413   5.841   6.267   4.954
 9157TIP3    H127414   5.788   6.344   4.934
 9157TIP3    H227415   5.921   6.278   4.904
 9158TIP3   OH227416   6.648   0.870   5.944
 9158TIP3    H127417   6.566   0.866   5.895
 9158TIP3    H227418   6.707   0.813   5.896
 9159TIP3   OH227419   1.584   7.003   6.354
 9159TIP3    H127420   1.559   7.051   6.433
 9159TIP3    H227421   1.679   6.992   6.361
 9160TIP3   OH227422   2.798   2.855   3.108
 9160TIP3    H127423   2.713   2.867   3.066
 9160TIP3    H227424   2.780   2.801   3.185
 9161TIP3   OH227425   5.381   4.753   4.405
 9161TIP3    H127426   5.294   4.773   4.438
 9161TIP3    H227427   5.415   4.837   4.374
 9162TIP3   OH227428   4.332   7.258   5.594
 9162TIP3    H127429   4.386   7.189   5.633
 9162TIP3    H227430   4.322   7.323   5.664
 9163TIP3   OH227431   7.828   7.104   6.701
 9163TIP3    H127432   7.831   7.198   6.719
 9163TIP3    H227433   7.803   7.098   6.609
 9164TIP3   OH227434   8.219   1.916   3.055
 9164TIP3    H127435   8.128   1.889   3.052
 9164TIP3    H227436   8.228   1.966   3.136
 9165TIP3   OH227437   6.549   7.023   1.414
 9165TIP3    H127438   6.480   7.048   1.475
 9165TIP3    H227439   6.521   7.059   1.330
 9166TIP3   OH227440   0.943   5.439   1.593
 9166TIP3    H127441   0.888   5.436   1.671
 9166TIP3    H227442   1.005   5.510   1.609
 9167TIP3   OH227443   6.438   4.895   4.878
 9167TIP3    H127444   6.439   4.905   4.782
 9167TIP3    H227445   6.384   4.818   4.893
 9168TIP3   OH227446   2.194   0.607   5.571
 9168TIP3    H127447   2.142   0.539   5.529
 9168TIP3    H227448   2.232   0.564   5.648
 9169TIP3   OH227449   6.033   7.502   4.403
 9169TIP3    H127450   6.059   7.437   4.337
 9169TIP3    H227451   5.937   7.503   4.399
 9170TIP3   OH227452   3.009   0.151   3.954
 9170TIP3    H127453   2.940   0.217   3.959
 9170TIP3    H227454   2.978   0.089   3.887
 9171TIP3   OH227455   3.103   2.115   0.399
 9171TIP3    H127456   3.016   2.082   0.375
 9171TIP3    H227457   3.096   2.135   0.493
 9172TIP3   OH227458   3.455   1.246   5.292
 9172TIP3    H127459   3.481   1.296   5.369
 9172TIP3    H227460   3.404   1.173   5.327
 9173TIP3   OH227461   6.382   0.821   1.627
 9173TIP3    H127462   6.303   0.855   1.669
 9173TIP3    H227463   6.452   0.881   1.652
 9174TIP3   OH227464   8.189   0.236   5.515
 9174TIP3    H127465   8.278   0.205   5.527
 9174TIP3    H227466   8.198   0.330   5.501
 9175TIP3   OH227467   3.817   4.121   5.520
 9175TIP3    H127468   3.828   4.100   5.613
 9175TIP3    H227469   3.901   4.161   5.494
 9176TIP3   OH227470   1.597   2.944   0.198
 9176TIP3    H127471   1.544   2.998   0.256
 9176TIP3    H227472   1.557   2.955   0.112
 9177TIP3   OH227473   2.361   7.641   6.405
 9177TIP3    H127474   2.422   7.711   6.378
 9177TIP3    H227475   2.276   7.684   6.407
 9178TIP3   OH227476   6.534   1.731   0.895
 9178TIP3    H127477   6.483   1.734   0.814
 9178TIP3    H227478   6.509   1.649   0.937
 9179TIP3   OH227479   0.052   6.355   4.035
 9179TIP3    H127480   0.099   6.390   4.111
 9179TIP3    H227481   0.084   6.406   3.961
 9180TIP3   OH227482   2.960   2.873   1.965
 9180TIP3    H127483   2.925   2.961   1.949
 9180TIP3    H227484   2.974   2.870   2.060
 9181TIP3   OH227485   7.408   0.585   3.385
 9181TIP3    H127486   7.456   0.503   3.371
 9181TIP3    H227487   7.322   0.568   3.347
 9182TIP3   OH227488   3.084   0.863   5.234
 9182TIP3    H127489   3.103   0.787   5.178
 9182TIP3    H227490   2.991   0.881   5.220
 9183TIP3   OH227491   5.342   5.747   2.497
 9183TIP3    H127492   5.419   5.764   2.552
 9183TIP3    H227493   5.274   5.805   2.533
 9184TIP3   OH227494   8.298   7.010   6.321
 9184TIP3    H127495   8.328   6.922   6.300
 9184TIP3    H227496   8.219   6.997   6.372
 9185TIP3   OH227497   3.742   1.462   3.236
 9185TIP3    H127498   3.720   1.539   3.288
 9185TIP3    H227499   3.666   1.450   3.179
 9186TIP3   OH227500   1.054   7.361   1.869
 9186TIP3    H127501   1.006   7.298   1.815
 9186TIP3    H227502   0.987   7.402   1.924
 9187TIP3   OH227503   7.672   7.030   4.218
 9187TIP3    H127504   7.746   7.077   4.257
 9187TIP3    H227505   7.645   7.085   4.145
 9188TIP3   OH227506   2.671   0.898   6.684
 9188TIP3    H127507   2.701   0.822   6.734
 9188TIP3    H227508   2.598   0.866   6.632
 9189TIP3   OH227509   5.262   1.621   6.614
 9189TIP3    H127510   5.218   1.646   6.533
 9189TIP3    H227511   5.204   1.653   6.683
 9190TIP3   OH227512   3.506   6.014   4.639
 9190TIP3    H127513   3.416   6.039   4.617
 9190TIP3    H227514   3.501   5.921   4.658
 9191TIP3   OH227515   6.644   6.630   0.016
 9191TIP3    H127516   6.616   6.652  -0.073
 9191TIP3    H227517   6.594   6.551   0.038
 9192TIP3   OH227518   1.181   4.249   4.165
 9192TIP3    H127519   1.244   4.178   4.171
 9192TIP3    H227520   1.105   4.210   4.122
 9193TIP3   OH227521   5.699   4.101   2.134
 9193TIP3    H127522   5.657   4.045   2.068
 9193TIP3    H227523   5.626   4.147   2.176
 9194TIP3   OH227524   4.708   3.171   0.421
 9194TIP3    H127525   4.652   3.093   0.416
 9194TIP3    H227526   4.727   3.181   0.515
 9195TIP3   OH227527   1.962   1.335   5.129
 9195TIP3    H127528   1.893   1.271   5.113
 9195TIP3    H227529   1.919   1.420   5.124
 9196TIP3   OH227530   2.961   2.946   0.788
 9196TIP3    H127531   2.967   2.995   0.871
 9196TIP3    H227532   2.973   3.013   0.720
 9197TIP3   OH227533   6.226   5.272   3.423
 9197TIP3    H127534   6.242   5.224   3.504
 9197TIP3    H227535   6.211   5.204   3.357
 9198TIP3   OH227536   4.975   0.038   4.959
 9198TIP3    H127537   5.050   0.033   5.018
 9198TIP3    H227538   4.950   0.131   4.959
 9199TIP3   OH227539   1.041   1.287   2.304
 9199TIP3    H127540   1.098   1.216   2.276
 9199TIP3    H227541   0.985   1.249   2.371
 9200TIP3   OH227542   0.670   1.759   6.501
 9200TIP3    H127543   0.627   1.682   6.541
 9200TIP3    H227544   0.740   1.782   6.563
 9201TIP3   OH227545   2.418   6.387   2.526
 9201TIP3    H127546   2.442   6.468   2.571
 9201TIP3    H227547   2.369   6.337   2.592
 9202TIP3   OH227548   0.510   4.974   5.332
 9202TIP3    H127549   0.421   4.976   5.367
 9202TIP3    H227550   0.553   5.049   5.373
 9203TIP3   OH227551   5.305   7.593   6.251
 9203TIP3    H127552   5.343   7.517   6.294
 9203TIP3    H227553   5.374   7.659   6.252
 9204TIP3   OH227554   1.396   5.943   1.589
 9204TIP3    H127555   1.310   5.916   1.555
 9204TIP3    H227556   1.400   5.905   1.677
 9205TIP3   OH227557   3.220   2.200   4.691
 9205TIP3    H127558   3.161   2.275   4.692
 9205TIP3    H227559   3.299   2.231   4.647
 9206TIP3   OH227560   3.111   6.735   4.809
 9206TIP3    H127561   3.015   6.735   4.801
 9206TIP3    H227562   3.142   6.788   4.736
 9207TIP3   OH227563   0.299   3.708   3.197
 9207TIP3    H127564   0.288   3.613   3.205
 9207TIP3    H227565   0.212   3.744   3.210
 9208TIP3   OH227566   0.389   7.181   3.496
 9208TIP3    H127567   0.335   7.108   3.528
 9208TIP3    H227568   0.342   7.212   3.418
 9209TIP3   OH227569   4.825   5.989   6.124
 9209TIP3    H127570   4.870   5.993   6.040
 9209TIP3    H227571   4.743   6.036   6.109
 9210TIP3   OH227572   6.763   4.264   2.730
 9210TIP3    H127573   6.779   4.172   2.712
 9210TIP3    H227574   6.759   4.270   2.825
 9211TIP3   OH227575   8.103   0.460   2.385
 9211TIP3    H127576   8.152   0.378   2.387
 9211TIP3    H227577   8.129   0.505   2.466
 9212TIP3   OH227578   5.880   2.623   1.813
 9212TIP3    H127579   5.912   2.651   1.898
 9212TIP3    H227580   5.831   2.698   1.780
 9213TIP3   OH227581   0.091   7.228   6.659
 9213TIP3    H127582   0.111   7.230   6.752
 9213TIP3    H227583   0.174   7.206   6.617
 9214TIP3   OH227584   5.629   2.245   2.640
 9214TIP3    H127585   5.663   2.185   2.574
 9214TIP3    H227586   5.554   2.287   2.599
 9215TIP3   OH227587   2.927   4.487   6.442
 9215TIP3    H127588   2.910   4.554   6.377
 9215TIP3    H227589   2.841   4.461   6.474
 9216TIP3   OH227590   5.468   2.811   2.957
 9216TIP3    H127591   5.503   2.842   2.874
 9216TIP3    H227592   5.504   2.722   2.966
 9217TIP3   OH227593   3.528   6.886   6.716
 9217TIP3    H127594   3.547   6.963   6.662
 9217TIP3    H227595   3.608   6.834   6.712
 9218TIP3   OH227596   0.829   3.484   1.196
 9218TIP3    H127597   0.770   3.557   1.214
 9218TIP3    H227598   0.783   3.407   1.230
 9219TIP3   OH227599   0.597   5.518   0.492
 9219TIP3    H127600   0.520   5.464   0.510
 9219TIP3    H227601   0.588   5.542   0.400
 9220TIP3   OH227602   2.473   3.830   0.447
 9220TIP3    H127603   2.502   3.870   0.529
 9220TIP3    H227604   2.392   3.785   0.470
 9221TIP3   OH227605   3.745   5.539   6.454
 9221TIP3    H127606   3.789   5.605   6.509
 9221TIP3    H227607   3.750   5.575   6.365
 9222TIP3   OH227608   5.214   0.656   6.196
 9222TIP3    H127609   5.252   0.655   6.108
 9222TIP3    H227610   5.172   0.742   6.203
 9223TIP3   OH227611   1.000   2.894   5.046
 9223TIP3    H127612   0.950   2.814   5.028
 9223TIP3    H227613   0.987   2.948   4.968
 9224TIP3   OH227614   1.053   4.901   3.940
 9224TIP3    H127615   1.020   4.935   3.856
 9224TIP3    H227616   1.106   4.826   3.916
 9225TIP3   OH227617   7.705   3.673   1.010
 9225TIP3    H127618   7.725   3.584   0.982
 9225TIP3    H227619   7.791   3.712   1.028
 9226TIP3   OH227620   2.220   2.239   5.257
 9226TIP3    H127621   2.171   2.157   5.255
 9226TIP3    H227622   2.171   2.295   5.318
 9227TIP3   OH227623   1.099   3.077   1.776
 9227TIP3    H127624   1.076   3.170   1.773
 9227TIP3    H227625   1.181   3.074   1.826
 9228TIP3   OH227626   3.095   4.258   2.892
 9228TIP3    H127627   3.159   4.263   2.962
 9228TIP3    H227628   3.102   4.341   2.846
 9229TIP3   OH227629   7.385   2.584   1.102
 9229TIP3    H127630   7.324   2.531   1.153
 9229TIP3    H227631   7.361   2.567   1.011
 9230TIP3   OH227632   1.608   1.878   5.619
 9230TIP3    H127633   1.679   1.848   5.675
 9230TIP3    H227634   1.566   1.797   5.588
 9231TIP3   OH227635   7.826   4.198   6.530
 9231TIP3    H127636   7.825   4.214   6.625
 9231TIP3    H227637   7.920   4.192   6.509
 9232TIP3   OH227638   0.103   6.641   5.761
 9232TIP3    H127639   0.107   6.735   5.779
 9232TIP3    H227640   0.191   6.619   5.731
 9233TIP3   OH227641   6.659   3.853   1.979
 9233TIP3    H127642   6.638   3.766   1.944
 9233TIP3    H227643   6.599   3.912   1.934
 9234TIP3   OH227644   7.748   6.734   0.399
 9234TIP3    H127645   7.790   6.773   0.476
 9234TIP3    H227646   7.678   6.680   0.435
 9235TIP3   OH227647   6.795   6.998   1.700
 9235TIP3    H127648   6.827   7.037   1.782
 9235TIP3    H227649   6.817   7.062   1.633
 9236TIP3   OH227650   6.499   7.465   0.385
 9236TIP3    H127651   6.545   7.386   0.357
 9236TIP3    H227652   6.426   7.474   0.323
 9237TIP3   OH227653   0.872   6.773   5.743
 9237TIP3    H127654   0.908   6.747   5.658
 9237TIP3    H227655   0.946   6.768   5.803
 9238TIP3   OH227656   3.115   0.770   1.812
 9238TIP3    H127657   3.030   0.787   1.852
 9238TIP3    H227658   3.175   0.763   1.887
 9239TIP3   OH227659   1.215   5.740   0.366
 9239TIP3    H127660   1.269   5.662   0.376
 9239TIP3    H227661   1.125   5.708   0.369
 9240TIP3   OH227662   5.704   1.754   3.529
 9240TIP3    H127663   5.640   1.793   3.470
 9240TIP3    H227664   5.758   1.698   3.474
 9241TIP3   OH227665   1.788   0.457   3.337
 9241TIP3    H127666   1.796   0.420   3.249
 9241TIP3    H227667   1.721   0.524   3.330
 9242TIP3   OH227668   0.716   5.907   3.586
 9242TIP3    H127669   0.807   5.880   3.601
 9242TIP3    H227670   0.686   5.938   3.671
 9243TIP3   OH227671   0.864   7.706   0.611
 9243TIP3    H127672   0.852   7.792   0.651
 9243TIP3    H227673   0.946   7.714   0.561
 9244TIP3   OH227674   3.024   7.042   0.880
 9244TIP3    H127675   3.051   6.957   0.916
 9244TIP3    H227676   3.045   7.105   0.949
 9245TIP3   OH227677   6.156   4.555   6.593
 9245TIP3    H127678   6.084   4.562   6.531
 9245TIP3    H227679   6.234   4.543   6.538
 9246TIP3   OH227680   3.042   5.494   3.640
 9246TIP3    H127681   3.000   5.578   3.657
 9246TIP3    H227682   2.971   5.436   3.612
 9247TIP3   OH227683   0.262   1.708   0.193
 9247TIP3    H127684   0.268   1.668   0.106
 9247TIP3    H227685   0.253   1.802   0.175
 9248TIP3   OH227686   7.483   1.249   6.422
 9248TIP3    H127687   7.415   1.256   6.355
 9248TIP3    H227688   7.557   1.209   6.376
 9249TIP3   OH227689   5.139   7.694   5.467
 9249TIP3    H127690   5.177   7.701   5.379
 9249TIP3    H227691   5.150   7.781   5.505
 9250TIP3   OH227692   5.030   0.722   2.893
 9250TIP3    H127693   5.073   0.648   2.936
 9250TIP3    H227694   5.097   0.759   2.836
 9251TIP3   OH227695   6.658   5.347   5.361
 9251TIP3    H127696   6.575   5.318   5.398
 9251TIP3    H227697   6.707   5.382   5.435
 9252TIP3   OH227698   2.809   4.366   3.472
 9252TIP3    H127699   2.724   4.343   3.510
 9252TIP3    H227700   2.833   4.447   3.515
 9253TIP3   OH227701   3.020   0.684   0.039
 9253TIP3    H127702   2.927   0.672   0.059
 9253TIP3    H227703   3.061   0.704   0.123
 9254TIP3   OH227704   5.739   7.195   3.576
 9254TIP3    H127705   5.825   7.211   3.538
 9254TIP3    H227706   5.681   7.255   3.530
 9255TIP3   OH227707   4.941   0.325   6.445
 9255TIP3    H127708   5.035   0.332   6.464
 9255TIP3    H227709   4.937   0.261   6.374
 9256TIP3   OH227710   4.066   0.486   1.493
 9256TIP3    H127711   4.119   0.521   1.565
 9256TIP3    H227712   4.098   0.532   1.416
 9257TIP3   OH227713   6.263   3.786   1.490
 9257TIP3    H127714   6.266   3.747   1.403
 9257TIP3    H227715   6.353   3.779   1.523
 9258TIP3   OH227716   6.270   4.889   5.645
 9258TIP3    H127717   6.297   4.916   5.733
 9258TIP3    H227718   6.333   4.932   5.586
 9259TIP3   OH227719   8.192   1.252   2.669
 9259TIP3    H127720   8.199   1.262   2.574
 9259TIP3    H227721   8.103   1.221   2.683
 9260TIP3   OH227722   4.264   5.271   5.138
 9260TIP3    H127723   4.256   5.204   5.206
 9260TIP3    H227724   4.199   5.246   5.072
 9261TIP3   OH227725   0.902   4.784   4.650
 9261TIP3    H127726   0.866   4.785   4.562
 9261TIP3    H227727   0.997   4.785   4.637
 9262TIP3   OH227728   4.053   5.793   5.564
 9262TIP3    H127729   4.016   5.734   5.497
 9262TIP3    H227730   3.984   5.858   5.578
 9263TIP3   OH227731   0.523   3.539   2.427
 9263TIP3    H127732   0.547   3.630   2.410
 9263TIP3    H227733   0.528   3.531   2.523
 9264TIP3   OH227734   8.017   6.614   1.167
 9264TIP3    H127735   8.097   6.571   1.136
 9264TIP3    H227736   8.046   6.669   1.239
 9265TIP3   OH227737   2.642   1.095   2.627
 9265TIP3    H127738   2.578   1.030   2.654
 9265TIP3    H227739   2.591   1.174   2.610
 9266TIP3   OH227740   1.664   6.490   6.455
 9266TIP3    H127741   1.728   6.430   6.415
 9266TIP3    H227742   1.581   6.442   6.452
 9267TIP3   OH227743   4.231   3.238   6.405
 9267TIP3    H127744   4.309   3.270   6.360
 9267TIP3    H227745   4.210   3.308   6.467
 9268TIP3   OH227746   3.841   5.252   5.959
 9268TIP3    H127747   3.811   5.265   6.049
 9268TIP3    H227748   3.925   5.297   5.955
 9269TIP3   OH227749   7.462   1.596   5.235
 9269TIP3    H127750   7.380   1.555   5.263
 9269TIP3    H227751   7.460   1.590   5.140
 9270TIP3   OH227752   4.842   2.194   4.034
 9270TIP3    H127753   4.894   2.270   4.059
 9270TIP3    H227754   4.878   2.122   4.085
 9271TIP3   OH227755   7.442   4.752   0.777
 9271TIP3    H127756   7.529   4.759   0.815
 9271TIP3    H227757   7.455   4.776   0.685
 9272TIP3   OH227758   2.334   1.409   2.596
 9272TIP3    H127759   2.283   1.387   2.518
 9272TIP3    H227760   2.293   1.489   2.629
 9273TIP3   OH227761   7.015   1.753   1.156
 9273TIP3    H127762   7.060   1.688   1.210
 9273TIP3    H227763   7.005   1.710   1.071
 9274TIP3   OH227764   6.997   5.453   4.232
 9274TIP3    H127765   7.022   5.493   4.315
 9274TIP3    H227766   7.038   5.367   4.233
 9275TIP3   OH227767   7.647   0.238   5.592
 9275TIP3    H127768   7.729   0.194   5.614
 9275TIP3    H227769   7.670   0.331   5.591
 9276TIP3   OH227770   2.379   2.990   1.686
 9276TIP3    H127771   2.426   2.920   1.641
 9276TIP3    H227772   2.326   3.032   1.619
 9277TIP3   OH227773   1.013   4.179   5.141
 9277TIP3    H127774   0.961   4.247   5.098
 9277TIP3    H227775   0.967   4.162   5.223
 9278TIP3   OH227776   7.280   2.135   4.861
 9278TIP3    H127777   7.365   2.099   4.839
 9278TIP3    H227778   7.217   2.069   4.831
 9279TIP3   OH227779   3.853   4.301   0.188
 9279TIP3    H127780   3.812   4.221   0.155
 9279TIP3    H227781   3.806   4.321   0.269
 9280TIP3   OH227782   7.460   0.296   3.622
 9280TIP3    H127783   7.470   0.201   3.619
 9280TIP3    H227784   7.549   0.330   3.634
 9281TIP3   OH227785   0.562   6.598   4.573
 9281TIP3    H127786   0.495   6.592   4.505
 9281TIP3    H227787   0.515   6.627   4.651
 9282TIP3   OH227788   0.677   3.155   5.984
 9282TIP3    H127789   0.748   3.148   6.049
 9282TIP3    H227790   0.649   3.065   5.970
 9283TIP3   OH227791   6.745   2.262   5.879
 9283TIP3    H127792   6.657   2.298   5.883
 9283TIP3    H227793   6.751   2.222   5.792
 9284TIP3   OH227794   3.419   7.196   2.649
 9284TIP3    H127795   3.488   7.199   2.583
 9284TIP3    H227796   3.457   7.148   2.722
 9285TIP3   OH227797   3.343   4.526   0.242
 9285TIP3    H127798   3.255   4.526   0.204
 9285TIP3    H227799   3.363   4.434   0.256
 9286TIP3   OH227800   6.173   7.792   4.683
 9286TIP3    H127801   6.185   7.868   4.627
 9286TIP3    H227802   6.180   7.717   4.624
 9287TIP3   OH227803   4.715   1.167   3.677
 9287TIP3    H127804   4.652   1.232   3.710
 9287TIP3    H227805   4.800   1.198   3.708
 9288TIP3   OH227806   2.893   4.715   0.691
 9288TIP3    H127807   2.943   4.795   0.671
 9288TIP3    H227808   2.946   4.670   0.757
 9289TIP3   OH227809   0.976   1.379   1.420
 9289TIP3    H127810   0.967   1.369   1.514
 9289TIP3    H227811   1.048   1.441   1.409
 9290TIP3   OH227812   3.822   0.838   5.864
 9290TIP3    H127813   3.868   0.766   5.907
 9290TIP3    H227814   3.750   0.860   5.923
 9291TIP3   OH227815   1.846   3.580   6.688
 9291TIP3    H127816   1.861   3.646   6.755
 9291TIP3    H227817   1.752   3.582   6.672
 9292TIP3   OH227818   8.024   1.499   4.043
 9292TIP3    H127819   8.092   1.557   4.075
 9292TIP3    H227820   8.064   1.455   3.968
 9293TIP3   OH227821   3.965   6.223   5.171
 9293TIP3    H127822   3.989   6.314   5.159
 9293TIP3    H227823   3.975   6.183   5.085
 9294TIP3   OH227824   5.574   2.832   0.693
 9294TIP3    H127825   5.659   2.843   0.651
 9294TIP3    H227826   5.555   2.918   0.731
 9295TIP3   OH227827   2.238   1.629   2.679
 9295TIP3    H127828   2.215   1.665   2.765
 9295TIP3    H227829   2.155   1.626   2.632
 9296TIP3   OH227830   4.985   5.519   1.379
 9296TIP3    H127831   5.072   5.549   1.353
 9296TIP3    H227832   5.002   5.450   1.444
 9297TIP3   OH227833   3.776   5.529   1.221
 9297TIP3    H127834   3.843   5.463   1.241
 9297TIP3    H227835   3.706   5.480   1.178
 9298TIP3   OH227836   6.665   7.465   6.428
 9298TIP3    H127837   6.590   7.470   6.487
 9298TIP3    H227838   6.654   7.382   6.382
 9299TIP3   OH227839   2.020   1.326   5.405
 9299TIP3    H127840   2.017   1.337   5.310
 9299TIP3    H227841   1.929   1.312   5.431
 9300TIP3   OH227842   0.227   5.644   5.182
 9300TIP3    H127843   0.233   5.608   5.271
 9300TIP3    H227844   0.309   5.618   5.140
 9301TIP3   OH227845   7.100   2.534   6.556
 9301TIP3    H127846   7.192   2.536   6.532
 9301TIP3    H227847   7.097   2.486   6.638
 9302TIP3   OH227848   2.087   7.330   0.895
 9302TIP3    H127849   2.111   7.384   0.970
 9302TIP3    H227850   2.066   7.392   0.826
 9303TIP3   OH227851   5.455   0.786   4.422
 9303TIP3    H127852   5.424   0.702   4.387
 9303TIP3    H227853   5.529   0.761   4.479
 9304TIP3   OH227854   4.389   0.929   6.645
 9304TIP3    H127855   4.390   1.016   6.686
 9304TIP3    H227856   4.317   0.932   6.583
 9305TIP3   OH227857   4.465   0.771   6.260
 9305TIP3    H127858   4.467   0.702   6.326
 9305TIP3    H227859   4.529   0.743   6.194
 9306TIP3   OH227860   3.137   4.924   1.695
 9306TIP3    H127861   3.107   4.854   1.754
 9306TIP3    H227862   3.228   4.901   1.676
 9307TIP3   OH227863   6.597   6.574   3.059
 9307TIP3    H127864   6.690   6.573   3.083
 9307TIP3    H227865   6.560   6.499   3.106
 9308TIP3   OH227866   1.642   6.852   3.185
 9308TIP3    H127867   1.691   6.790   3.130
 9308TIP3    H227868   1.656   6.937   3.144
 9309TIP3   OH227869   1.736   1.888   2.773
 9309TIP3    H127870   1.705   1.978   2.778
 9309TIP3    H227871   1.731   1.866   2.680
 9310TIP3   OH227872   6.274   1.943   3.340
 9310TIP3    H127873   6.179   1.951   3.342
 9310TIP3    H227874   6.294   1.897   3.259
 9311TIP3   OH227875   5.783   6.676   5.327
 9311TIP3    H127876   5.753   6.766   5.341
 9311TIP3    H227877   5.878   6.683   5.317
 9312TIP3   OH227878   1.116   2.184   4.835
 9312TIP3    H127879   1.192   2.144   4.792
 9312TIP3    H227880   1.142   2.192   4.927
 9313TIP3   OH227881   1.114   6.266   6.492
 9313TIP3    H127882   1.037   6.284   6.547
 9313TIP3    H227883   1.184   6.247   6.555
 9314TIP3   OH227884   8.108   6.809   5.811
 9314TIP3    H127885   8.038   6.873   5.795
 9314TIP3    H227886   8.185   6.846   5.768
 9315TIP3   OH227887   7.888   1.182   3.895
 9315TIP3    H127888   7.968   1.234   3.905
 9315TIP3    H227889   7.913   1.112   3.833
 9316TIP3   OH227890   4.323   6.681   0.104
 9316TIP3    H127891   4.392   6.719   0.158
 9316TIP3    H227892   4.276   6.757   0.070
 9317TIP3   OH227893   4.581   3.686   4.599
 9317TIP3    H127894   4.537   3.713   4.680
 9317TIP3    H227895   4.668   3.727   4.604
 9318TIP3   OH227896   7.349   3.842   1.891
 9318TIP3    H127897   7.374   3.755   1.922
 9318TIP3    H227898   7.430   3.892   1.894
 9319TIP3   OH227899   6.645   3.420   6.289
 9319TIP3    H127900   6.721   3.364   6.304
 9319TIP3    H227901   6.628   3.413   6.195
 9320TIP3   OH227902   8.016   0.978   2.827
 9320TIP3    H127903   7.954   0.937   2.766
 9320TIP3    H227904   7.983   1.067   2.838
 9321TIP3   OH227905   3.063   0.547   0.558
 9321TIP3    H127906   3.102   0.633   0.575
 9321TIP3    H227907   3.138   0.487   0.555
 9322TIP3   OH227908   3.473   6.604   4.939
 9322TIP3    H127909   3.421   6.675   4.976
 9322TIP3    H227910   3.545   6.648   4.893
 9323TIP3   OH227911   0.030   2.212   4.674
 9323TIP3    H127912  -0.006   2.268   4.605
 9323TIP3    H227913   0.095   2.267   4.717
 9324TIP3   OH227914   0.533   1.534   6.654
 9324TIP3    H127915   0.493   1.471   6.594
 9324TIP3    H227916   0.495   1.514   6.739
 9325TIP3   OH227917   7.937   2.764   3.457
 9325TIP3    H127918   7.917   2.854   3.431
 9325TIP3    H227919   7.864   2.712   3.425
 9326TIP3   OH227920   7.315   3.771   5.057
 9326TIP3    H127921   7.341   3.683   5.031
 9326TIP3    H227922   7.364   3.789   5.137
 9327TIP3   OH227923   5.742   0.144   1.645
 9327TIP3    H127924   5.704   0.229   1.621
 9327TIP3    H227925   5.830   0.165   1.677
 9328TIP3   OH227926   4.076   0.565   3.002
 9328TIP3    H127927   4.039   0.481   3.030
 9328TIP3    H227928   4.000   0.623   2.994
 9329TIP3   OH227929   8.034   2.200   4.496
 9329TIP3    H127930   8.065   2.251   4.570
 9329TIP3    H227931   8.013   2.265   4.429
 9330TIP3   OH227932   5.843   4.357   6.644
 9330TIP3    H127933   5.810   4.378   6.556
 9330TIP3    H227934   5.845   4.442   6.689
 9331TIP3   OH227935   4.628   1.705   4.341
 9331TIP3    H127936   4.546   1.663   4.315
 9331TIP3    H227937   4.655   1.659   4.421
 9332TIP3   OH227938   0.846   7.732   3.845
 9332TIP3    H127939   0.834   7.698   3.756
 9332TIP3    H227940   0.760   7.766   3.869
 9333TIP3   OH227941   4.469   6.211   0.463
 9333TIP3    H127942   4.421   6.220   0.381
 9333TIP3    H227943   4.547   6.160   0.440
 9334TIP3   OH227944   2.582   6.465   0.642
 9334TIP3    H127945   2.560   6.546   0.690
 9334TIP3    H227946   2.497   6.421   0.630
 9335TIP3   OH227947   4.224   3.116   4.863
 9335TIP3    H127948   4.185   3.197   4.832
 9335TIP3    H227949   4.246   3.133   4.954
 9336TIP3   OH227950   5.050   4.450   6.131
 9336TIP3    H127951   5.096   4.527   6.165
 9336TIP3    H227952   5.082   4.377   6.184
 9337TIP3   OH227953   6.523   4.585   1.031
 9337TIP3    H127954   6.452   4.621   0.978
 9337TIP3    H227955   6.491   4.499   1.058
 9338TIP3   OH227956   1.453   4.538   4.963
 9338TIP3    H127957   1.385   4.475   4.985
 9338TIP3    H227958   1.406   4.618   4.940
 9339TIP3   OH227959   8.279   4.718   1.450
 9339TIP3    H127960   8.361   4.767   1.453
 9339TIP3    H227961   8.212   4.785   1.440
 9340TIP3   OH227962   6.836   0.640   5.406
 9340TIP3    H127963   6.922   0.622   5.369
 9340TIP3    H227964   6.777   0.641   5.330
 9341TIP3   OH227965   4.574   0.510   3.914
 9341TIP3    H127966   4.550   0.566   3.840
 9341TIP3    H227967   4.592   0.571   3.986
 9342TIP3   OH227968   7.346   1.106   0.328
 9342TIP3    H127969   7.404   1.169   0.371
 9342TIP3    H227970   7.401   1.065   0.261
 9343TIP3   OH227971   3.133   6.995   5.192
 9343TIP3    H127972   3.073   6.923   5.174
 9343TIP3    H227973   3.114   7.060   5.124
 9344TIP3   OH227974   1.176   5.496   0.972
 9344TIP3    H127975   1.118   5.482   1.048
 9344TIP3    H227976   1.212   5.409   0.954
 9345TIP3   OH227977   7.708   2.189   0.184
 9345TIP3    H127978   7.646   2.234   0.243
 9345TIP3    H227979   7.652   2.133   0.130
 9346TIP3   OH227980   4.795   3.739   5.337
 9346TIP3    H127981   4.735   3.712   5.405
 9346TIP3    H227982   4.873   3.684   5.349
 9347TIP3   OH227983   0.688   2.217   3.169
 9347TIP3    H127984   0.765   2.160   3.174
 9347TIP3    H227985   0.666   2.235   3.260
 9348TIP3   OH227986   1.805   0.116   3.272
 9348TIP3    H127987   1.764   0.033   3.247
 9348TIP3    H227988   1.757   0.183   3.223
 9349TIP3   OH227989   1.295   1.774   0.026
 9349TIP3    H127990   1.255   1.687   0.029
 9349TIP3    H227991   1.222   1.835   0.040
 9350TIP3   OH227992   6.639   6.554   2.351
 9350TIP3    H127993   6.576   6.483   2.339
 9350TIP3    H227994   6.680   6.535   2.436
 9351TIP3   OH227995   2.733   7.297   3.092
 9351TIP3    H127996   2.789   7.229   3.055
 9351TIP3    H227997   2.648   7.254   3.104
 9352TIP3   OH227998   3.521   5.744   4.717
 9352TIP3    H127999   3.564   5.688   4.652
 9352TIP3    H228000   3.444   5.694   4.745
 9353TIP3   OH228001   6.448   7.735   0.503
 9353TIP3    H128002   6.360   7.772   0.507
 9353TIP3    H228003   6.437   7.651   0.460
 9354TIP3   OH228004   4.703   5.146   0.565
 9354TIP3    H128005   4.620   5.181   0.532
 9354TIP3    H228006   4.683   5.117   0.654
 9355TIP3   OH228007   6.806   7.477   3.103
 9355TIP3    H128008   6.756   7.457   3.182
 9355TIP3    H228009   6.873   7.540   3.133
 9356TIP3   OH228010   1.866   4.368   3.806
 9356TIP3    H128011   1.838   4.352   3.896
 9356TIP3    H228012   1.887   4.281   3.771
 9357TIP3   OH228013   2.400   4.640   2.444
 9357TIP3    H128014   2.352   4.675   2.369
 9357TIP3    H228015   2.463   4.580   2.406
 9358TIP3   OH228016   7.717   4.026   1.464
 9358TIP3    H128017   7.753   3.947   1.503
 9358TIP3    H228018   7.655   3.995   1.398
 9359TIP3   OH228019   2.829   4.639   6.231
 9359TIP3    H128020   2.800   4.725   6.200
 9359TIP3    H228021   2.759   4.580   6.203
 9360TIP3   OH228022   3.392   2.808   1.970
 9360TIP3    H128023   3.488   2.814   1.971
 9360TIP3    H228024   3.368   2.805   2.063
 9361TIP3   OH228025   4.684   1.677   0.859
 9361TIP3    H128026   4.608   1.667   0.917
 9361TIP3    H228027   4.753   1.625   0.901
 9362TIP3   OH228028   5.864   2.197   0.239
 9362TIP3    H128029   5.846   2.289   0.219
 9362TIP3    H228030   5.809   2.177   0.315
 9363TIP3   OH228031   3.711   6.460   6.504
 9363TIP3    H128032   3.771   6.533   6.521
 9363TIP3    H228033   3.756   6.408   6.438
 9364TIP3   OH228034   1.072   4.311   2.144
 9364TIP3    H128035   1.118   4.393   2.125
 9364TIP3    H228036   0.981   4.328   2.119
 9365TIP3   OH228037   6.394   5.509   3.367
 9365TIP3    H128038   6.464   5.523   3.303
 9365TIP3    H228039   6.374   5.415   3.361
 9366TIP3   OH228040   2.743   4.359   1.477
 9366TIP3    H128041   2.776   4.292   1.417
 9366TIP3    H228042   2.650   4.341   1.485
 9367TIP3   OH228043   6.374   3.414   3.277
 9367TIP3    H128044   6.451   3.436   3.225
 9367TIP3    H228045   6.356   3.323   3.255
 9368TIP3   OH228046   3.587   1.660   1.315
 9368TIP3    H128047   3.599   1.611   1.233
 9368TIP3    H228048   3.646   1.617   1.377
 9369TIP3   OH228049   5.095   7.615   0.467
 9369TIP3    H128050   5.139   7.662   0.538
 9369TIP3    H228051   5.124   7.659   0.387
 9370TIP3   OH228052   2.564   4.814   5.171
 9370TIP3    H128053   2.557   4.909   5.168
 9370TIP3    H228054   2.618   4.791   5.095
 9371TIP3   OH228055   1.508   1.395   6.535
 9371TIP3    H128056   1.579   1.395   6.600
 9371TIP3    H228057   1.551   1.411   6.452
 9372TIP3   OH228058   0.155   2.779   5.445
 9372TIP3    H128059   0.174   2.712   5.379
 9372TIP3    H228060   0.064   2.763   5.470
 9373TIP3   OH228061   2.365   7.579   3.788
 9373TIP3    H128062   2.455   7.577   3.756
 9373TIP3    H228063   2.349   7.489   3.819
 9374TIP3   OH228064   0.583   4.382   5.928
 9374TIP3    H128065   0.640   4.327   5.874
 9374TIP3    H228066   0.640   4.451   5.962
 9375TIP3   OH228067   5.898   6.489   2.224
 9375TIP3    H128068   5.994   6.490   2.218
 9375TIP3    H228069   5.875   6.397   2.230
 9376TIP3   OH228070   4.622   6.726   6.408
 9376TIP3    H128071   4.715   6.734   6.431
 9376TIP3    H228072   4.576   6.741   6.490
 9377TIP3   OH228073   4.553   6.036   0.824
 9377TIP3    H128074   4.615   6.042   0.751
 9377TIP3    H228075   4.576   6.109   0.881
 9378TIP3   OH228076   2.659   5.125   3.005
 9378TIP3    H128077   2.582   5.181   3.000
 9378TIP3    H228078   2.716   5.168   3.068
 9379TIP3   OH228079   8.137   5.763   3.677
 9379TIP3    H128080   8.123   5.821   3.602
 9379TIP3    H228081   8.231   5.765   3.692
 9380TIP3   OH228082   3.957   4.514   2.208
 9380TIP3    H128083   3.999   4.436   2.174
 9380TIP3    H228084   4.029   4.567   2.242
 9381TIP3   OH228085   0.246   5.647   6.407
 9381TIP3    H128086   0.278   5.711   6.470
 9381TIP3    H228087   0.199   5.700   6.342
 9382TIP3   OH228088   6.597   3.898   4.948
 9382TIP3    H128089   6.642   3.947   4.879
 9382TIP3    H228090   6.572   3.965   5.012
 9383TIP3   OH228091   1.755   2.438   4.778
 9383TIP3    H128092   1.846   2.465   4.794
 9383TIP3    H228093   1.703   2.496   4.832
 9384TIP3   OH228094   3.998   2.896   5.273
 9384TIP3    H128095   3.945   2.840   5.216
 9384TIP3    H228096   4.001   2.980   5.229
 9385TIP3   OH228097   7.094   0.187   4.287
 9385TIP3    H128098   7.069   0.123   4.353
 9385TIP3    H228099   7.046   0.162   4.208
 9386TIP3   OH228100   6.489   0.828   3.055
 9386TIP3    H128101   6.454   0.872   2.978
 9386TIP3    H228102   6.576   0.798   3.028
 9387TIP3   OH228103   0.598   3.337   4.671
 9387TIP3    H128104   0.568   3.362   4.758
 9387TIP3    H228105   0.624   3.246   4.680
 9388TIP3   OH228106   0.167   5.302   5.494
 9388TIP3    H128107   0.080   5.287   5.532
 9388TIP3    H228108   0.201   5.214   5.479
 9389TIP3   OH228109   1.708   6.133   6.129
 9389TIP3    H128110   1.664   6.201   6.079
 9389TIP3    H228111   1.777   6.101   6.071
 9390TIP3   OH228112   3.897   1.001   3.425
 9390TIP3    H128113   3.955   0.926   3.430
 9390TIP3    H228114   3.815   0.971   3.465
 9391TIP3   OH228115   1.034   2.997   3.719
 9391TIP3    H128116   0.967   2.931   3.701
 9391TIP3    H228117   1.055   2.985   3.812
 9392TIP3   OH228118   2.483   7.832   3.879
 9392TIP3    H128119   2.414   7.787   3.928
 9392TIP3    H228120   2.482   7.789   3.793
 9393TIP3   OH228121   7.950   6.325   6.621
 9393TIP3    H128122   7.857   6.310   6.638
 9393TIP3    H228123   7.975   6.393   6.684
 9394TIP3   OH228124   0.705   2.368   4.749
 9394TIP3    H128125   0.660   2.309   4.688
 9394TIP3    H228126   0.795   2.373   4.717
 9395TIP3   OH228127   7.217   5.406   3.717
 9395TIP3    H128128   7.308   5.394   3.745
 9395TIP3    H228129   7.166   5.390   3.796
 9396TIP3   OH228130   6.821   2.866   1.727
 9396TIP3    H128131   6.765   2.832   1.798
 9396TIP3    H228132   6.807   2.804   1.655
 9397TIP3   OH228133   3.905   7.050   2.596
 9397TIP3    H128134   3.913   7.079   2.505
 9397TIP3    H228135   3.947   6.964   2.597
 9398TIP3   OH228136   4.112   6.329   3.436
 9398TIP3    H128137   4.050   6.371   3.496
 9398TIP3    H228138   4.063   6.257   3.397
 9399TIP3   OH228139   6.202   3.518   6.103
 9399TIP3    H128140   6.141   3.525   6.177
 9399TIP3    H228141   6.149   3.479   6.033
 9400TIP3   OH228142   0.929   7.341   0.692
 9400TIP3    H128143   0.995   7.348   0.761
 9400TIP3    H228144   0.854   7.390   0.724
 9401TIP3   OH228145   5.102   0.417   2.537
 9401TIP3    H128146   5.082   0.329   2.569
 9401TIP3    H228147   5.161   0.453   2.602
 9402TIP3   OH228148   7.813   0.631   5.276
 9402TIP3    H128149   7.773   0.662   5.195
 9402TIP3    H228150   7.829   0.538   5.262
 9403TIP3   OH228151   4.352   3.616   2.258
 9403TIP3    H128152   4.273   3.586   2.213
 9403TIP3    H228153   4.324   3.626   2.349
 9404TIP3   OH228154   6.451   2.796   3.485
 9404TIP3    H128155   6.468   2.862   3.418
 9404TIP3    H228156   6.479   2.837   3.567
 9405TIP3   OH228157   6.927   4.237   3.091
 9405TIP3    H128158   6.902   4.147   3.111
 9405TIP3    H228159   6.992   4.229   3.021
 9406TIP3   OH228160   4.476   4.293   6.475
 9406TIP3    H128161   4.393   4.319   6.435
 9406TIP3    H228162   4.538   4.359   6.445
 9407TIP3   OH228163   2.921   1.976   1.951
 9407TIP3    H128164   2.944   1.924   1.873
 9407TIP3    H228165   2.958   1.927   2.024
 9408TIP3   OH228166   3.725   0.051   1.752
 9408TIP3    H128167   3.754   0.007   1.831
 9408TIP3    H228168   3.725  -0.017   1.685
 9409TIP3   OH228169   7.227   3.561   4.471
 9409TIP3    H128170   7.155   3.512   4.510
 9409TIP3    H228171   7.222   3.647   4.512
 9410TIP3   OH228172   2.960   5.056   5.127
 9410TIP3    H128173   2.911   4.978   5.102
 9410TIP3    H228174   3.007   5.031   5.206
 9411TIP3   OH228175   4.915   0.749   6.595
 9411TIP3    H128176   4.846   0.816   6.590
 9411TIP3    H228177   4.868   0.666   6.591
 9412TIP3   OH228178   6.453   0.677   4.972
 9412TIP3    H128179   6.468   0.693   5.065
 9412TIP3    H228180   6.490   0.753   4.927
 9413TIP3   OH228181   0.094   2.030   1.516
 9413TIP3    H128182   0.110   2.035   1.421
 9413TIP3    H228183   0.088   1.936   1.534
 9414TIP3   OH228184   4.112   4.821   2.250
 9414TIP3    H128185   4.166   4.748   2.279
 9414TIP3    H228186   4.058   4.843   2.326
 9415TIP3   OH228187   6.787   5.628   1.387
 9415TIP3    H128188   6.772   5.642   1.293
 9415TIP3    H228189   6.838   5.547   1.391
 9416TIP3   OH228190   1.251   5.472   6.192
 9416TIP3    H128191   1.212   5.427   6.268
 9416TIP3    H228192   1.335   5.428   6.179
 9417TIP3   OH228193   7.297   7.167   3.287
 9417TIP3    H128194   7.217   7.128   3.252
 9417TIP3    H228195   7.332   7.219   3.215
 9418TIP3   OH228196   8.073   7.006   3.221
 9418TIP3    H128197   8.106   6.944   3.156
 9418TIP3    H228198   8.011   6.955   3.273
 9419TIP3   OH228199   4.832   7.234   5.903
 9419TIP3    H128200   4.842   7.141   5.881
 9419TIP3    H228201   4.743   7.255   5.875
 9420TIP3   OH228202   6.754   2.702   1.503
 9420TIP3    H128203   6.729   2.627   1.556
 9420TIP3    H228204   6.780   2.664   1.419
 9421TIP3   OH228205   6.212   2.736   4.877
 9421TIP3    H128206   6.126   2.777   4.885
 9421TIP3    H228207   6.229   2.732   4.783
 9422TIP3   OH228208   5.937   3.216   0.524
 9422TIP3    H128209   5.899   3.297   0.492
 9422TIP3    H228210   5.984   3.179   0.449
 9423TIP3   OH228211   2.192   4.072   3.493
 9423TIP3    H128212   2.282   4.071   3.460
 9423TIP3    H228213   2.141   4.108   3.420
 9424TIP3   OH228214   0.256   3.284   2.725
 9424TIP3    H128215   0.189   3.215   2.730
 9424TIP3    H228216   0.339   3.237   2.721
 9425TIP3   OH228217   7.223   7.309   2.350
 9425TIP3    H128218   7.219   7.377   2.416
 9425TIP3    H228219   7.168   7.342   2.278
 9426TIP3   OH228220   4.249   0.346   3.904
 9426TIP3    H128221   4.160   0.322   3.879
 9426TIP3    H228222   4.252   0.441   3.894
 9427TIP3   OH228223   0.279   3.425   3.352
 9427TIP3    H128224   0.209   3.442   3.288
 9427TIP3    H228225   0.295   3.331   3.344
 9428TIP3   OH228226   0.789   1.978   4.146
 9428TIP3    H128227   0.800   2.046   4.079
 9428TIP3    H228228   0.779   1.897   4.097
 9429TIP3   OH228229   0.835   3.921   5.602
 9429TIP3    H128230   0.830   3.842   5.656
 9429TIP3    H228231   0.818   3.993   5.663
 9430TIP3   OH228232   0.512   7.595   0.837
 9430TIP3    H128233   0.500   7.671   0.780
 9430TIP3    H228234   0.574   7.625   0.904
 9431TIP3   OH228235   1.734   2.563   1.933
 9431TIP3    H128236   1.698   2.474   1.940
 9431TIP3    H228237   1.828   2.552   1.948
 9432TIP3   OH228238   0.222   0.982   0.060
 9432TIP3    H128239   0.138   1.006   0.102
 9432TIP3    H228240   0.273   0.942   0.130
 9433TIP3   OH228241   2.872   7.205   6.429
 9433TIP3    H128242   2.850   7.207   6.336
 9433TIP3    H228243   2.879   7.112   6.450
 9434TIP3   OH228244   2.294   0.355   1.266
 9434TIP3    H128245   2.317   0.308   1.346
 9434TIP3    H228246   2.378   0.387   1.232
 9435TIP3   OH228247   4.649   3.695   5.578
 9435TIP3    H128248   4.614   3.611   5.551
 9435TIP3    H228249   4.572   3.746   5.604
 9436TIP3   OH228250   1.586   4.239   0.401
 9436TIP3    H128251   1.615   4.327   0.378
 9436TIP3    H228252   1.515   4.221   0.339
 9437TIP3   OH228253   8.083   6.917   1.150
 9437TIP3    H128254   8.012   6.887   1.207
 9437TIP3    H228255   8.092   7.010   1.171
 9438TIP3   OH228256   4.201   0.985   5.372
 9438TIP3    H128257   4.118   0.962   5.331
 9438TIP3    H228258   4.247   0.902   5.385
 9439TIP3   OH228259   4.356   4.475   5.520
 9439TIP3    H128260   4.321   4.466   5.608
 9439TIP3    H228261   4.279   4.494   5.465
 9440TIP3   OH228262   2.772   6.311   0.796
 9440TIP3    H128263   2.863   6.296   0.771
 9440TIP3    H228264   2.737   6.366   0.725
 9441TIP3   OH228265   4.161   7.307   0.660
 9441TIP3    H128266   4.094   7.334   0.597
 9441TIP3    H228267   4.117   7.308   0.744
 9442TIP3   OH228268   1.710   3.995   5.361
 9442TIP3    H128269   1.624   4.027   5.388
 9442TIP3    H228270   1.771   4.032   5.424
 9443TIP3   OH228271   3.228   6.030   4.528
 9443TIP3    H128272   3.203   6.025   4.435
 9443TIP3    H228273   3.232   6.123   4.547
 9444TIP3   OH228274   3.743   0.794   5.209
 9444TIP3    H128275   3.691   0.723   5.247
 9444TIP3    H228276   3.679   0.847   5.161
 9445TIP3   OH228277   2.566   4.640   4.900
 9445TIP3    H128278   2.606   4.709   4.847
 9445TIP3    H228279   2.632   4.619   4.966
 9446TIP3   OH228280   3.618   6.203   5.602
 9446TIP3    H128281   3.654   6.183   5.515
 9446TIP3    H228282   3.627   6.121   5.651
 9447TIP3   OH228283   2.158   0.448   5.204
 9447TIP3    H128284   2.122   0.465   5.117
 9447TIP3    H228285   2.175   0.354   5.205
 9448TIP3   OH228286   4.623   1.337   4.404
 9448TIP3    H128287   4.611   1.407   4.468
 9448TIP3    H228288   4.700   1.364   4.353
 9449TIP3   OH228289   8.156   4.262   0.519
 9449TIP3    H128290   8.185   4.171   0.509
 9449TIP3    H228291   8.135   4.271   0.612
 9450TIP3   OH228292   6.844   1.593   0.141
 9450TIP3    H128293   6.820   1.509   0.180
 9450TIP3    H228294   6.830   1.580   0.047
 9451TIP3   OH228295   1.969   3.574   0.587
 9451TIP3    H128296   1.877   3.559   0.608
 9451TIP3    H228297   1.969   3.601   0.495
 9452TIP3   OH228298   8.278   5.907   2.702
 9452TIP3    H128299   8.371   5.915   2.681
 9452TIP3    H228300   8.258   5.815   2.685
 9453TIP3   OH228301   7.409   2.352   1.580
 9453TIP3    H128302   7.487   2.317   1.624
 9453TIP3    H228303   7.378   2.279   1.526
 9454TIP3   OH228304   5.299   2.985   3.313
 9454TIP3    H128305   5.389   2.956   3.300
 9454TIP3    H228306   5.250   2.906   3.333
 9455TIP3   OH228307   1.958   1.375   1.275
 9455TIP3    H128308   1.869   1.359   1.245
 9455TIP3    H228309   1.994   1.287   1.292
 9456TIP3   OH228310   7.502   4.669   5.666
 9456TIP3    H128311   7.563   4.601   5.638
 9456TIP3    H228312   7.513   4.739   5.601
 9457TIP3   OH228313   5.362   6.911   5.060
 9457TIP3    H128314   5.317   6.863   5.129
 9457TIP3    H228315   5.299   6.917   4.989
 9458TIP3   OH228316   3.790   4.453   4.693
 9458TIP3    H128317   3.705   4.470   4.734
 9458TIP3    H228318   3.852   4.449   4.767
 9459TIP3   OH228319   2.467   7.404   2.913
 9459TIP3    H128320   2.378   7.408   2.948
 9459TIP3    H228321   2.517   7.354   2.978
 9460TIP3   OH228322   7.681   4.652   2.194
 9460TIP3    H128323   7.633   4.588   2.247
 9460TIP3    H228324   7.613   4.713   2.164
 9461TIP3   OH228325   8.202   4.551   2.438
 9461TIP3    H128326   8.241   4.551   2.350
 9461TIP3    H228327   8.237   4.472   2.479
 9462TIP3   OH228328   5.566   3.551   4.598
 9462TIP3    H128329   5.657   3.555   4.569
 9462TIP3    H228330   5.546   3.457   4.602
 9463TIP3   OH228331   5.420   1.515   3.350
 9463TIP3    H128332   5.351   1.448   3.341
 9463TIP3    H228333   5.372   1.596   3.365
 9464TIP3   OH228334   6.586   5.548   1.200
 9464TIP3    H128335   6.535   5.553   1.119
 9464TIP3    H228336   6.675   5.530   1.171
 9465TIP3   OH228337   6.317   0.532   0.934
 9465TIP3    H128338   6.346   0.589   1.006
 9465TIP3    H228339   6.267   0.590   0.876
 9466TIP3   OH228340   5.001   0.390   5.690
 9466TIP3    H128341   4.933   0.354   5.632
 9466TIP3    H228342   5.077   0.402   5.633
 9467TIP3   OH228343   8.250   6.264   2.905
 9467TIP3    H128344   8.197   6.343   2.906
 9467TIP3    H228345   8.200   6.202   2.851
 9468TIP3   OH228346   4.581   7.105   5.416
 9468TIP3    H128347   4.664   7.152   5.421
 9468TIP3    H228348   4.599   7.030   5.359
 9469TIP3   OH228349   1.843   3.152   2.487
 9469TIP3    H128350   1.857   3.225   2.546
 9469TIP3    H228351   1.925   3.145   2.438
 9470TIP3   OH228352   4.683   0.896   1.951
 9470TIP3    H128353   4.667   0.988   1.970
 9470TIP3    H228354   4.621   0.849   2.007
 9471TIP3   OH228355   7.835   0.787   6.547
 9471TIP3    H128356   7.807   0.879   6.540
 9471TIP3    H228357   7.891   0.774   6.471
 9472TIP3   OH228358   3.744   5.890   2.880
 9472TIP3    H128359   3.805   5.846   2.821
 9472TIP3    H228360   3.666   5.907   2.827
 9473TIP3   OH228361   2.665   1.602   6.206
 9473TIP3    H128362   2.679   1.556   6.122
 9473TIP3    H228363   2.602   1.547   6.252
 9474TIP3   OH228364   7.889   6.382   1.911
 9474TIP3    H128365   7.972   6.346   1.941
 9474TIP3    H228366   7.908   6.419   1.825
 9475TIP3   OH228367   0.113   4.028   1.536
 9475TIP3    H128368   0.098   4.102   1.476
 9475TIP3    H228369   0.194   4.051   1.582
 9476TIP3   OH228370   4.816   3.688   0.040
 9476TIP3    H128371   4.798   3.686   0.134
 9476TIP3    H228372   4.769   3.766   0.008
 9477TIP3   OH228373   3.006   2.497   5.142
 9477TIP3    H128374   3.008   2.413   5.188
 9477TIP3    H228375   3.091   2.501   5.097
 9478TIP3   OH228376   1.590   0.075   6.228
 9478TIP3    H128377   1.584   0.094   6.322
 9478TIP3    H228378   1.574  -0.019   6.222
 9479TIP3   OH228379   2.826   5.910   5.116
 9479TIP3    H128380   2.765   5.842   5.087
 9479TIP3    H228381   2.779   5.956   5.186
 9480TIP3   OH228382   6.662   5.234   2.932
 9480TIP3    H128383   6.621   5.190   2.858
 9480TIP3    H228384   6.754   5.208   2.927
 9481TIP3   OH228385   0.504   6.078   5.095
 9481TIP3    H128386   0.532   6.108   5.008
 9481TIP3    H228387   0.420   6.036   5.079
 9482TIP3   OH228388   4.793   3.952   3.892
 9482TIP3    H128389   4.866   4.014   3.892
 9482TIP3    H228390   4.732   3.987   3.827
 9483TIP3   OH228391   6.582   7.779   6.385
 9483TIP3    H128392   6.532   7.790   6.303
 9483TIP3    H228393   6.632   7.698   6.371
 9484TIP3   OH228394   1.169   4.115   6.488
 9484TIP3    H128395   1.206   4.185   6.541
 9484TIP3    H228396   1.141   4.159   6.408
 9485TIP3   OH228397   7.645   7.390   1.457
 9485TIP3    H128398   7.709   7.408   1.388
 9485TIP3    H228399   7.614   7.477   1.483
 9486TIP3   OH228400   2.940   3.254   4.531
 9486TIP3    H128401   2.900   3.313   4.467
 9486TIP3    H228402   3.034   3.269   4.523
 9487TIP3   OH228403   7.198   6.651   1.727
 9487TIP3    H128404   7.144   6.587   1.681
 9487TIP3    H228405   7.173   6.642   1.819
 9488TIP3   OH228406   2.825   4.597   3.630
 9488TIP3    H128407   2.790   4.566   3.713
 9488TIP3    H228408   2.904   4.646   3.654
 9489TIP3   OH228409   0.745   1.989   0.623
 9489TIP3    H128410   0.790   1.961   0.543
 9489TIP3    H228411   0.796   1.949   0.694
 9490TIP3   OH228412   0.576   1.383   5.938
 9490TIP3    H128413   0.547   1.443   5.869
 9490TIP3    H228414   0.506   1.388   6.004
 9491TIP3   OH228415   1.539   6.528   3.495
 9491TIP3    H128416   1.591   6.448   3.487
 9491TIP3    H228417   1.548   6.553   3.587
 9492TIP3   OH228418   7.398   4.973   0.293
 9492TIP3    H128419   7.305   4.995   0.284
 9492TIP3    H228420   7.434   4.985   0.205
 9493TIP3   OH228421   2.912   5.710   2.460
 9493TIP3    H128422   2.860   5.781   2.422
 9493TIP3    H228423   2.994   5.752   2.487
 9494TIP3   OH228424   1.513   3.328   0.114
 9494TIP3    H128425   1.583   3.357   0.173
 9494TIP3    H228426   1.463   3.265   0.166
 9495TIP3   OH228427   6.298   7.503   3.425
 9495TIP3    H128428   6.340   7.501   3.339
 9495TIP3    H228429   6.274   7.595   3.439
 9496TIP3   OH228430   0.553   1.739   5.342
 9496TIP3    H128431   0.527   1.827   5.368
 9496TIP3    H228432   0.622   1.752   5.277
 9497TIP3   OH228433   4.998   6.383   1.829
 9497TIP3    H128434   4.945   6.463   1.832
 9497TIP3    H228435   5.070   6.404   1.770
 9498TIP3   OH228436   0.617   1.040   4.237
 9498TIP3    H128437   0.634   1.074   4.149
 9498TIP3    H228438   0.582   0.952   4.223
 9499TIP3   OH228439   2.515   5.668   1.681
 9499TIP3    H128440   2.583   5.701   1.740
 9499TIP3    H228441   2.485   5.745   1.633
 9500TIP3   OH228442   8.185   2.629   2.489
 9500TIP3    H128443   8.132   2.555   2.460
 9500TIP3    H228444   8.150   2.704   2.442
 9501TIP3   OH228445   3.550   6.726   3.447
 9501TIP3    H128446   3.568   6.637   3.477
 9501TIP3    H228447   3.459   6.743   3.472
 9502TIP3   OH228448   5.539   2.871   3.231
 9502TIP3    H128449   5.498   2.864   3.145
 9502TIP3    H228450   5.633   2.878   3.212
 9503TIP3   OH228451   7.376   1.429   0.296
 9503TIP3    H128452   7.378   1.522   0.319
 9503TIP3    H228453   7.465   1.398   0.310
 9504TIP3   OH228454   2.837   7.200   2.537
 9504TIP3    H128455   2.823   7.175   2.629
 9504TIP3    H228456   2.754   7.240   2.511
 9505TIP3   OH228457   1.920   3.442   0.075
 9505TIP3    H128458   1.965   3.415  -0.006
 9505TIP3    H228459   1.906   3.536   0.065
 9506TIP3   OH228460   1.157   6.421   0.296
 9506TIP3    H128461   1.118   6.388   0.377
 9506TIP3    H228462   1.251   6.404   0.306
 9507TIP3   OH228463   3.863   6.863   1.081
 9507TIP3    H128464   3.910   6.786   1.047
 9507TIP3    H228465   3.921   6.899   1.148
 9508TIP3   OH228466   4.976   5.189   5.456
 9508TIP3    H128467   5.037   5.127   5.497
 9508TIP3    H228468   4.929   5.136   5.391
 9509TIP3   OH228469   0.105   0.446   4.524
 9509TIP3    H128470   0.096   0.359   4.563
 9509TIP3    H228471   0.122   0.429   4.432
 9510TIP3   OH228472   0.449   5.543   1.355
 9510TIP3    H128473   0.390   5.521   1.283
 9510TIP3    H228474   0.505   5.612   1.320
 9511TIP3   OH228475   7.989   7.044   1.825
 9511TIP3    H128476   7.978   6.974   1.761
 9511TIP3    H228477   8.061   7.097   1.791
 9512TIP3   OH228478   1.540   4.794   4.754
 9512TIP3    H128479   1.478   4.735   4.712
 9512TIP3    H228480   1.552   4.865   4.691
 9513TIP3   OH228481   3.358   7.436   4.686
 9513TIP3    H128482   3.376   7.530   4.684
 9513TIP3    H228483   3.393   7.403   4.603
 9514TIP3   OH228484   3.901   1.823   1.085
 9514TIP3    H128485   3.839   1.768   1.036
 9514TIP3    H228486   3.923   1.894   1.025
 9515TIP3   OH228487   0.791   7.441   1.731
 9515TIP3    H128488   0.759   7.461   1.643
 9515TIP3    H228489   0.775   7.347   1.741
 9516TIP3   OH228490   0.856   1.312   5.383
 9516TIP3    H128491   0.796   1.268   5.445
 9516TIP3    H228492   0.940   1.268   5.396
 9517TIP3   OH228493   5.444   1.572   5.897
 9517TIP3    H128494   5.519   1.623   5.868
 9517TIP3    H228495   5.369   1.611   5.851
 9518TIP3   OH228496   7.350   5.847   5.571
 9518TIP3    H128497   7.307   5.925   5.535
 9518TIP3    H228498   7.441   5.854   5.541
 9519TIP3   OH228499   5.776   0.254   6.174
 9519TIP3    H128500   5.701   0.284   6.225
 9519TIP3    H228501   5.846   0.244   6.239
 9520TIP3   OH228502   0.594   0.376   6.609
 9520TIP3    H128503   0.504   0.384   6.580
 9520TIP3    H228504   0.620   0.464   6.633
 9521TIP3   OH228505   4.839   7.102   2.793
 9521TIP3    H128506   4.919   7.051   2.799
 9521TIP3    H228507   4.862   7.187   2.831
 9522TIP3   OH228508   0.150   6.531   4.790
 9522TIP3    H128509   0.242   6.503   4.791
 9522TIP3    H228510   0.149   6.611   4.843
 9523TIP3   OH228511   1.374   3.995   1.710
 9523TIP3    H128512   1.459   4.001   1.753
 9523TIP3    H228513   1.329   4.076   1.734
 9524TIP3   OH228514   1.657   5.649   6.220
 9524TIP3    H128515   1.648   5.703   6.142
 9524TIP3    H228516   1.593   5.683   6.281
 9525TIP3   OH228517   4.439   5.280   2.898
 9525TIP3    H128518   4.353   5.282   2.942
 9525TIP3    H228519   4.448   5.367   2.860
 9526TIP3   OH228520   4.925   5.270   2.576
 9526TIP3    H128521   4.901   5.240   2.488
 9526TIP3    H228522   4.856   5.332   2.599
 9527TIP3   OH228523   6.357   4.482   6.335
 9527TIP3    H128524   6.323   4.399   6.368
 9527TIP3    H228525   6.360   4.472   6.240
 9528TIP3   OH228526   4.325   7.605   1.274
 9528TIP3    H128527   4.360   7.695   1.270
 9528TIP3    H228528   4.240   7.614   1.318
 9529TIP3   OH228529   3.743   2.866   4.078
 9529TIP3    H128530   3.772   2.780   4.049
 9529TIP3    H228531   3.788   2.879   4.162
 9530TIP3   OH228532   2.506   1.733   4.664
 9530TIP3    H128533   2.414   1.745   4.688
 9530TIP3    H228534   2.556   1.770   4.737
 9531TIP3   OH228535   8.257   6.182   6.600
 9531TIP3    H128536   8.333   6.167   6.544
 9531TIP3    H228537   8.200   6.239   6.549
 9532TIP3   OH228538   7.840   0.934   4.207
 9532TIP3    H128539   7.920   0.982   4.229
 9532TIP3    H228540   7.832   0.942   4.112
 9533TIP3   OH228541   5.216   4.047   2.932
 9533TIP3    H128542   5.182   4.116   2.875
 9533TIP3    H228543   5.151   4.038   3.002
 9534TIP3   OH228544   2.905   1.717   2.412
 9534TIP3    H128545   2.878   1.630   2.385
 9534TIP3    H228546   3.001   1.714   2.414
 9535TIP3   OH228547   4.693   3.700   6.636
 9535TIP3    H128548   4.665   3.631   6.696
 9535TIP3    H228549   4.787   3.706   6.649
 9536TIP3   OH228550   8.007   3.841   4.253
 9536TIP3    H128551   8.058   3.776   4.205
 9536TIP3    H228552   8.033   3.830   4.345
 9537TIP3   OH228553   0.514   7.810   1.391
 9537TIP3    H128554   0.497   7.885   1.335
 9537TIP3    H228555   0.500   7.734   1.335
 9538TIP3   OH228556   6.607   1.065   0.438
 9538TIP3    H128557   6.685   1.092   0.391
 9538TIP3    H228558   6.541   1.052   0.370
 9539TIP3   OH228559   5.140   2.892   1.371
 9539TIP3    H128560   5.102   2.881   1.458
 9539TIP3    H228561   5.234   2.885   1.385
 9540TIP3   OH228562   7.749   6.526   1.229
 9540TIP3    H128563   7.728   6.518   1.136
 9540TIP3    H228564   7.842   6.550   1.230
 9541TIP3   OH228565   3.499   7.326   4.440
 9541TIP3    H128566   3.564   7.395   4.451
 9541TIP3    H228567   3.545   7.257   4.391
 9542TIP3   OH228568   7.921   7.305   2.123
 9542TIP3    H128569   7.890   7.329   2.210
 9542TIP3    H228570   7.866   7.354   2.063
 9543TIP3   OH228571   5.328   7.027   3.121
 9543TIP3    H128572   5.350   7.113   3.086
 9543TIP3    H228573   5.311   6.973   3.044
 9544TIP3   OH228574   3.861   6.407   1.041
 9544TIP3    H128575   3.796   6.383   0.975
 9544TIP3    H228576   3.868   6.329   1.097
 9545TIP3   OH228577   7.109   6.458   4.456
 9545TIP3    H128578   7.131   6.434   4.546
 9545TIP3    H228579   7.098   6.553   4.458
 9546TIP3   OH228580   4.059   6.539   2.084
 9546TIP3    H128581   3.975   6.585   2.083
 9546TIP3    H228582   4.109   6.581   2.154
 9547TIP3   OH228583   4.987   2.361   0.102
 9547TIP3    H128584   4.949   2.418   0.035
 9547TIP3    H228585   4.929   2.370   0.177
 9548TIP3   OH228586   0.536   6.347   3.729
 9548TIP3    H128587   0.604   6.409   3.703
 9548TIP3    H228588   0.576   6.297   3.800
 9549TIP3   OH228589   0.583   3.965   5.857
 9549TIP3    H128590   0.671   3.989   5.886
 9549TIP3    H228591   0.558   3.892   5.914
 9550TIP3   OH228592   1.941   3.076   5.492
 9550TIP3    H128593   2.005   3.131   5.538
 9550TIP3    H228594   1.993   3.030   5.425
 9551TIP3   OH228595   1.035   0.348   6.318
 9551TIP3    H128596   0.950   0.346   6.275
 9551TIP3    H228597   1.015   0.349   6.412
 9552TIP3   OH228598   1.937   5.906   5.648
 9552TIP3    H128599   1.939   5.862   5.733
 9552TIP3    H228600   2.026   5.898   5.615
 9553TIP3   OH228601   4.021   1.350   3.281
 9553TIP3    H128602   3.965   1.371   3.206
 9553TIP3    H228603   4.033   1.433   3.326
 9554TIP3   OH228604   3.470   4.412   4.319
 9554TIP3    H128605   3.471   4.345   4.387
 9554TIP3    H228606   3.387   4.458   4.332
 9555TIP3   OH228607   4.665   5.071   0.885
 9555TIP3    H128608   4.750   5.034   0.909
 9555TIP3    H228609   4.604   5.037   0.950
 9556TIP3   OH228610   8.089   1.816   5.297
 9556TIP3    H128611   8.078   1.879   5.368
 9556TIP3    H228612   8.002   1.777   5.285
 9557TIP3   OH228613   1.486   5.570   2.866
 9557TIP3    H128614   1.433   5.619   2.803
 9557TIP3    H228615   1.552   5.632   2.896
 9558TIP3   OH228616   7.819   6.688   6.471
 9558TIP3    H128617   7.803   6.751   6.401
 9558TIP3    H228618   7.903   6.647   6.448
 9559TIP3   OH228619   6.230   4.922   1.938
 9559TIP3    H128620   6.316   4.919   1.896
 9559TIP3    H228621   6.236   4.858   2.009
 9560TIP3   OH228622   8.017   6.507   1.710
 9560TIP3    H128623   8.055   6.490   1.624
 9560TIP3    H228624   8.079   6.468   1.772
 9561TIP3   OH228625   5.961   5.569   1.697
 9561TIP3    H128626   5.951   5.510   1.771
 9561TIP3    H228627   5.980   5.655   1.737
 9562TIP3   OH228628   6.918   0.775   6.660
 9562TIP3    H128629   7.013   0.781   6.659
 9562TIP3    H228630   6.889   0.865   6.676
 9563TIP3   OH228631   7.132   3.321   5.810
 9563TIP3    H128632   7.194   3.368   5.865
 9563TIP3    H228633   7.186   3.281   5.742
 9564TIP3   OH228634   0.074   5.438   6.600
 9564TIP3    H128635   0.059   5.532   6.609
 9564TIP3    H228636   0.041   5.417   6.512
 9565TIP3   OH228637   2.267   4.448   4.410
 9565TIP3    H128638   2.204   4.519   4.427
 9565TIP3    H228639   2.324   4.483   4.342
 9566TIP3   OH228640   6.098   4.825   4.857
 9566TIP3    H128641   6.067   4.884   4.788
 9566TIP3    H228642   6.160   4.767   4.812
 9567TIP3   OH228643   5.302   4.489   2.742
 9567TIP3    H128644   5.324   4.565   2.795
 9567TIP3    H228645   5.385   4.442   2.730
 9568TIP3   OH228646   2.076   0.148   3.609
 9568TIP3    H128647   2.115   0.200   3.538
 9568TIP3    H228648   2.128   0.171   3.686
 9569TIP3   OH228649   6.661   1.205   0.971
 9569TIP3    H128650   6.701   1.195   0.884
 9569TIP3    H228651   6.567   1.202   0.954
 9570TIP3   OH228652   6.831   0.725   3.747
 9570TIP3    H128653   6.775   0.652   3.773
 9570TIP3    H228654   6.813   0.737   3.654
 9571TIP3   OH228655   1.159   5.816   1.515
 9571TIP3    H128656   1.066   5.818   1.495
 9571TIP3    H228657   1.173   5.732   1.558
 9572TIP3   OH228658   2.010   4.537   4.194
 9572TIP3    H128659   1.936   4.487   4.227
 9572TIP3    H228660   1.991   4.628   4.218
 9573TIP3   OH228661   5.249   4.544   4.108
 9573TIP3    H128662   5.207   4.574   4.028
 9573TIP3    H228663   5.280   4.456   4.087
 9574TIP3   OH228664   1.665   5.794   6.578
 9574TIP3    H128665   1.665   5.824   6.487
 9574TIP3    H228666   1.680   5.700   6.572
 9575TIP3   OH228667   0.815   6.268   3.359
 9575TIP3    H128668   0.873   6.315   3.299
 9575TIP3    H228669   0.866   6.257   3.439
 9576TIP3   OH228670   5.912   1.033   2.258
 9576TIP3    H128671   5.859   1.023   2.179
 9576TIP3    H228672   5.856   1.004   2.330
 9577TIP3   OH228673   0.545   5.687   5.761
 9577TIP3    H128674   0.478   5.737   5.714
 9577TIP3    H228675   0.559   5.609   5.707
 9578TIP3   OH228676   7.814   0.079   1.292
 9578TIP3    H128677   7.861   0.011   1.244
 9578TIP3    H228678   7.817   0.155   1.235
 9579TIP3   OH228679   5.977   1.819   2.717
 9579TIP3    H128680   5.913   1.747   2.716
 9579TIP3    H228681   6.046   1.789   2.658
 9580TIP3   OH228682   4.144   3.121   5.512
 9580TIP3    H128683   4.062   3.114   5.464
 9580TIP3    H228684   4.125   3.081   5.597
 9581TIP3   OH228685   8.212   6.575   0.821
 9581TIP3    H128686   8.217   6.490   0.865
 9581TIP3    H228687   8.232   6.638   0.889
 9582TIP3   OH228688   1.183   4.472   1.831
 9582TIP3    H128689   1.192   4.526   1.752
 9582TIP3    H228690   1.094   4.489   1.862
 9583TIP3   OH228691   0.686   6.125   6.496
 9583TIP3    H128692   0.594   6.138   6.473
 9583TIP3    H228693   0.735   6.170   6.426
 9584TIP3   OH228694   4.117   4.953   5.876
 9584TIP3    H128695   4.115   4.948   5.781
 9584TIP3    H228696   4.025   4.945   5.903
 9585TIP3   OH228697   6.790   1.420   2.804
 9585TIP3    H128698   6.697   1.420   2.785
 9585TIP3    H228699   6.798   1.469   2.886
 9586TIP3   OH228700   2.278   1.695   1.196
 9586TIP3    H128701   2.285   1.740   1.281
 9586TIP3    H228702   2.291   1.764   1.131
 9587TIP3   OH228703   5.270   3.330   0.521
 9587TIP3    H128704   5.178   3.304   0.522
 9587TIP3    H228705   5.318   3.247   0.528
 9588TIP3   OH228706   2.125   3.638   4.858
 9588TIP3    H128707   2.185   3.587   4.912
 9588TIP3    H228708   2.163   3.726   4.856
 9589TIP3   OH228709   2.852   2.684   4.345
 9589TIP3    H128710   2.777   2.721   4.299
 9589TIP3    H228711   2.815   2.613   4.398
 9590TIP3   OH228712   1.698   3.000   4.271
 9590TIP3    H128713   1.768   2.940   4.298
 9590TIP3    H228714   1.683   3.056   4.348
 9591TIP3   OH228715   1.142   3.361   4.586
 9591TIP3    H128716   1.191   3.440   4.563
 9591TIP3    H228717   1.065   3.394   4.634
 9592TIP3   OH228718   7.152   6.724   5.463
 9592TIP3    H128719   7.155   6.794   5.398
 9592TIP3    H228720   7.063   6.728   5.499
 9593TIP3   OH228721   3.326   5.729   4.438
 9593TIP3    H128722   3.309   5.637   4.461
 9593TIP3    H228723   3.285   5.779   4.508
 9594TIP3   OH228724   1.961   0.194   5.903
 9594TIP3    H128725   1.917   0.152   5.830
 9594TIP3    H228726   2.053   0.199   5.876
 9595TIP3   OH228727   6.585   6.965   2.703
 9595TIP3    H128728   6.565   6.895   2.766
 9595TIP3    H228729   6.501   7.008   2.687
 9596TIP3   OH228730   5.687   5.964   0.638
 9596TIP3    H128731   5.696   6.030   0.707
 9596TIP3    H228732   5.751   5.897   0.661
 9597TIP3   OH228733   1.467   0.829   4.268
 9597TIP3    H128734   1.427   0.840   4.354
 9597TIP3    H228735   1.424   0.894   4.213
 9598TIP3   OH228736   2.640   0.706   4.669
 9598TIP3    H128737   2.547   0.703   4.647
 9598TIP3    H228738   2.683   0.663   4.595
 9599TIP3   OH228739   4.537   6.013   2.520
 9599TIP3    H128740   4.624   5.973   2.527
 9599TIP3    H228741   4.554   6.107   2.526
 9600TIP3   OH228742   7.729   0.754   5.037
 9600TIP3    H128743   7.668   0.744   4.964
 9600TIP3    H228744   7.738   0.849   5.048
 9601TIP3   OH228745   0.520   2.672   3.116
 9601TIP3    H128746   0.531   2.733   3.043
 9601TIP3    H228747   0.492   2.727   3.189
 9602TIP3   OH228748   2.855   6.086   5.425
 9602TIP3    H128749   2.892   6.129   5.347
 9602TIP3    H228750   2.779   6.139   5.447
 9603TIP3   OH228751   6.628   3.615   6.485
 9603TIP3    H128752   6.608   3.559   6.559
 9603TIP3    H228753   6.659   3.555   6.417
 9604TIP3   OH228754   7.200   6.918   5.254
 9604TIP3    H128755   7.173   7.009   5.264
 9604TIP3    H228756   7.266   6.920   5.184
 9605TIP3   OH228757   7.591   7.630   0.232
 9605TIP3    H128758   7.518   7.595   0.181
 9605TIP3    H228759   7.585   7.587   0.317
 9606TIP3   OH228760   0.911   0.286   0.751
 9606TIP3    H128761   0.989   0.259   0.703
 9606TIP3    H228762   0.841   0.230   0.717
 9607TIP3   OH228763   1.990   4.727   1.446
 9607TIP3    H128764   2.081   4.701   1.458
 9607TIP3    H228765   1.994   4.820   1.423
 9608TIP3   OH228766   2.567   4.842   0.029
 9608TIP3    H128767   2.613   4.796  -0.041
 9608TIP3    H228768   2.637   4.882   0.081
 9609TIP3   OH228769   4.090   2.876   4.062
 9609TIP3    H128770   4.037   2.895   3.985
 9609TIP3    H228771   4.173   2.922   4.047
 9610TIP3   OH228772   6.337   2.232   5.624
 9610TIP3    H128773   6.374   2.285   5.553
 9610TIP3    H228774   6.247   2.263   5.633
 9611TIP3   OH228775   6.216   7.750   0.205
 9611TIP3    H128776   6.303   7.778   0.174
 9611TIP3    H228777   6.156   7.778   0.137
 9612TIP3   OH228778   3.744   0.379   4.099
 9612TIP3    H128779   3.747   0.285   4.119
 9612TIP3    H228780   3.719   0.420   4.182
 9613TIP3   OH228781   5.640   4.976   4.738
 9613TIP3    H128782   5.677   5.014   4.818
 9613TIP3    H228783   5.698   4.904   4.716
 9614TIP3   OH228784   1.863   5.193   5.684
 9614TIP3    H128785   1.813   5.197   5.765
 9614TIP3    H228786   1.951   5.221   5.708
 9615TIP3   OH228787   1.466   0.387   5.104
 9615TIP3    H128788   1.429   0.468   5.141
 9615TIP3    H228789   1.399   0.357   5.043
 9616TIP3   OH228790   4.138   0.369   6.573
 9616TIP3    H128791   4.184   0.317   6.507
 9616TIP3    H228792   4.055   0.392   6.530
 9617TIP3   OH228793   7.076   1.738   2.844
 9617TIP3    H128794   7.013   1.782   2.901
 9617TIP3    H228795   7.157   1.737   2.894
 9618TIP3   OH228796   0.314   3.361   2.348
 9618TIP3    H128797   0.383   3.422   2.373
 9618TIP3    H228798   0.360   3.278   2.333
 9619TIP3   OH228799   2.634   2.637   6.510
 9619TIP3    H128800   2.677   2.561   6.550
 9619TIP3    H228801   2.569   2.599   6.452
 9620TIP3   OH228802   5.859   1.663   4.015
 9620TIP3    H128803   5.949   1.649   3.986
 9620TIP3    H228804   5.818   1.713   3.944
 9621TIP3   OH228805   6.989   6.459   6.726
 9621TIP3    H128806   7.037   6.529   6.770
 9621TIP3    H228807   7.029   6.453   6.639
 9622TIP3   OH228808   5.046   3.368   2.527
 9622TIP3    H128809   5.034   3.433   2.458
 9622TIP3    H228810   4.959   3.358   2.566
 9623TIP3   OH228811   1.758   4.657   1.078
 9623TIP3    H128812   1.811   4.733   1.053
 9623TIP3    H228813   1.778   4.644   1.171
 9624TIP3   OH228814   4.574   4.029   4.069
 9624TIP3    H128815   4.571   4.107   4.013
 9624TIP3    H228816   4.667   4.019   4.091
 9625TIP3   OH228817   3.717   6.283   3.322
 9625TIP3    H128818   3.722   6.370   3.282
 9625TIP3    H228819   3.807   6.252   3.323
 9626TIP3   OH228820   6.676   3.608   2.889
 9626TIP3    H128821   6.716   3.559   2.961
 9626TIP3    H228822   6.708   3.698   2.900
 9627TIP3   OH228823   7.352   2.925   5.558
 9627TIP3    H128824   7.285   2.857   5.563
 9627TIP3    H228825   7.364   2.941   5.464
 9628TIP3   OH228826   1.603   4.830   6.152
 9628TIP3    H128827   1.653   4.750   6.165
 9628TIP3    H228828   1.534   4.806   6.090
 9629TIP3   OH228829   7.387   1.673   1.445
 9629TIP3    H128830   7.366   1.637   1.531
 9629TIP3    H228831   7.417   1.762   1.463
 9630TIP3   OH228832   2.153   0.143   1.172
 9630TIP3    H128833   2.214   0.214   1.191
 9630TIP3    H228834   2.093   0.180   1.107
 9631TIP3   OH228835   6.868   2.781   0.253
 9631TIP3    H128836   6.860   2.856   0.195
 9631TIP3    H228837   6.960   2.780   0.279
 9632TIP3   OH228838   5.960   6.316   4.512
 9632TIP3    H128839   6.049   6.347   4.529
 9632TIP3    H228840   5.954   6.234   4.561
 9633TIP3   OH228841   1.988   3.459   3.486
 9633TIP3    H128842   1.973   3.378   3.535
 9633TIP3    H228843   1.968   3.436   3.395
 9634TIP3   OH228844   2.891   4.546   6.793
 9634TIP3    H128845   2.933   4.627   6.764
 9634TIP3    H228846   2.888   4.491   6.715
 9635TIP3   OH228847  -0.024   7.834   4.807
 9635TIP3    H128848   0.060   7.863   4.843
 9635TIP3    H228849   0.000   7.781   4.731
 9636TIP3   OH228850   7.705   1.579   5.359
 9636TIP3    H128851   7.762   1.629   5.301
 9636TIP3    H228852   7.617   1.598   5.329
 9637TIP3   OH228853   3.016   3.154   3.036
 9637TIP3    H128854   3.058   3.143   2.951
 9637TIP3    H228855   3.015   3.065   3.073
 9638TIP3   OH228856   2.390   7.255   0.182
 9638TIP3    H128857   2.302   7.228   0.210
 9638TIP3    H228858   2.449   7.204   0.236
 9639TIP3   OH228859   3.758   3.352   4.598
 9639TIP3    H128860   3.700   3.408   4.548
 9639TIP3    H228861   3.758   3.269   4.550
 9640TIP3   OH228862   6.527   3.840   4.415
 9640TIP3    H128863   6.583   3.764   4.400
 9640TIP3    H228864   6.512   3.876   4.328
 9641TIP3   OH228865   3.274   5.597   4.703
 9641TIP3    H128866   3.196   5.644   4.674
 9641TIP3    H228867   3.243   5.509   4.724
 9642TIP3   OH228868   3.913   1.425   5.059
 9642TIP3    H128869   3.966   1.410   5.137
 9642TIP3    H228870   3.826   1.392   5.082
 9643TIP3   OH228871   6.148   5.810   1.168
 9643TIP3    H128872   6.232   5.856   1.159
 9643TIP3    H228873   6.131   5.811   1.262
 9644TIP3   OH228874   2.325   5.458   2.436
 9644TIP3    H128875   2.271   5.442   2.514
 9644TIP3    H228876   2.316   5.378   2.384
 9645TIP3   OH228877   2.560   1.572   0.780
 9645TIP3    H128878   2.535   1.538   0.866
 9645TIP3    H228879   2.507   1.652   0.771
 9646TIP3   OH228880   4.192   6.832   4.393
 9646TIP3    H128881   4.195   6.927   4.384
 9646TIP3    H228882   4.108   6.806   4.355
 9647TIP3   OH228883   7.034   1.727   5.986
 9647TIP3    H128884   7.025   1.820   5.965
 9647TIP3    H228885   7.009   1.681   5.906
 9648TIP3   OH228886   3.839   0.128   5.242
 9648TIP3    H128887   3.845   0.164   5.331
 9648TIP3    H228888   3.927   0.138   5.206
 9649TIP3   OH228889   0.496   2.931   5.189
 9649TIP3    H128890   0.430   2.975   5.242
 9649TIP3    H228891   0.470   2.839   5.190
 9650TIP3   OH228892   1.863   3.241   3.306
 9650TIP3    H128893   1.807   3.197   3.370
 9650TIP3    H228894   1.907   3.170   3.259
 9651TIP3   OH228895   1.762   1.792   6.417
 9651TIP3    H128896   1.790   1.701   6.406
 9651TIP3    H228897   1.791   1.816   6.505
 9652TIP3   OH228898   0.711   2.769   4.549
 9652TIP3    H128899   0.646   2.724   4.496
 9652TIP3    H228900   0.707   2.726   4.634
 9653TIP3   OH228901   4.486   4.009   5.848
 9653TIP3    H128902   4.551   3.939   5.852
 9653TIP3    H228903   4.433   3.988   5.771
 9654TIP3   OH228904   2.173   3.039   5.023
 9654TIP3    H128905   2.258   2.995   5.016
 9654TIP3    H228906   2.153   3.037   5.117
 9655TIP3   OH228907   8.134   6.564   2.777
 9655TIP3    H128908   8.143   6.584   2.870
 9655TIP3    H228909   8.053   6.514   2.771
 9656TIP3   OH228910   2.451   2.664   0.795
 9656TIP3    H128911   2.360   2.690   0.779
 9656TIP3    H228912   2.467   2.592   0.734
 9657TIP3   OH228913   5.913   1.552   0.657
 9657TIP3    H128914   5.845   1.619   0.648
 9657TIP3    H228915   5.911   1.505   0.574
 9658TIP3   OH228916   6.059   2.084   4.315
 9658TIP3    H128917   6.103   2.022   4.373
 9658TIP3    H228918   6.124   2.107   4.250
 9659TIP3   OH228919   1.799   6.025   4.850
 9659TIP3    H128920   1.752   6.062   4.925
 9659TIP3    H228921   1.807   6.098   4.789
 9660TIP3   OH228922   0.686   0.491   1.273
 9660TIP3    H128923   0.679   0.562   1.210
 9660TIP3    H228924   0.768   0.447   1.250
 9661TIP3   OH228925   8.222   4.385   0.089
 9661TIP3    H128926   8.293   4.393   0.152
 9661TIP3    H228927   8.196   4.475   0.071
 9662TIP3   OH228928   6.853   6.644   4.782
 9662TIP3    H128929   6.818   6.580   4.720
 9662TIP3    H228930   6.874   6.720   4.729
 9663TIP3   OH228931   0.656   4.027   5.128
 9663TIP3    H128932   0.704   4.011   5.047
 9663TIP3    H228933   0.576   4.071   5.099
 9664TIP3   OH228934   2.785   1.446   1.075
 9664TIP3    H128935   2.738   1.516   1.030
 9664TIP3    H228936   2.798   1.479   1.164
 9665TIP3   OH228937   2.884   0.306   1.469
 9665TIP3    H128938   2.904   0.221   1.508
 9665TIP3    H228939   2.817   0.343   1.526
 9666TIP3   OH228940   3.790   7.471   5.347
 9666TIP3    H128941   3.716   7.419   5.315
 9666TIP3    H228942   3.833   7.501   5.267
 9667TIP3   OH228943   6.324   2.494   1.721
 9667TIP3    H128944   6.242   2.474   1.675
 9667TIP3    H228945   6.322   2.438   1.798
 9668TIP3   OH228946   7.636   1.001   6.283
 9668TIP3    H128947   7.659   1.008   6.375
 9668TIP3    H228948   7.711   1.039   6.237
 9669TIP3   OH228949   2.938   2.846   5.453
 9669TIP3    H128950   2.850   2.855   5.488
 9669TIP3    H228951   2.972   2.766   5.493
 9670TIP3   OH228952   7.808   3.700   3.927
 9670TIP3    H128953   7.881   3.754   3.958
 9670TIP3    H228954   7.739   3.764   3.906
 9671TIP3   OH228955   5.296   2.647   3.782
 9671TIP3    H128956   5.266   2.591   3.711
 9671TIP3    H228957   5.271   2.736   3.756
 9672TIP3   OH228958   8.193   2.215   1.593
 9672TIP3    H128959   8.218   2.286   1.652
 9672TIP3    H228960   8.273   2.164   1.582
 9673TIP3   OH228961   6.258   2.125   1.498
 9673TIP3    H128962   6.350   2.133   1.476
 9673TIP3    H228963   6.212   2.128   1.414
 9674TIP3   OH228964   4.168   7.141   2.037
 9674TIP3    H128965   4.249   7.162   1.991
 9674TIP3    H228966   4.117   7.090   1.974
 9675TIP3   OH228967   7.874   7.153   4.417
 9675TIP3    H128968   7.908   7.185   4.501
 9675TIP3    H228969   7.898   7.221   4.354
 9676TIP3   OH228970   0.788   1.087   4.445
 9676TIP3    H128971   0.775   0.993   4.450
 9676TIP3    H228972   0.731   1.115   4.374
 9677TIP3   OH228973   0.388   4.628   0.927
 9677TIP3    H128974   0.329   4.689   0.970
 9677TIP3    H228975   0.338   4.591   0.855
 9678TIP3   OH228976   7.332   2.422   5.173
 9678TIP3    H128977   7.367   2.388   5.255
 9678TIP3    H228978   7.245   2.381   5.165
 9679TIP3   OH228979   2.173   2.049   3.364
 9679TIP3    H128980   2.150   2.142   3.360
 9679TIP3    H228981   2.240   2.044   3.431
 9680TIP3   OH228982   2.021   7.443   4.856
 9680TIP3    H128983   2.056   7.528   4.829
 9680TIP3    H228984   2.098   7.385   4.855
 9681TIP3   OH228985   3.498   0.266   5.346
 9681TIP3    H128986   3.563   0.247   5.413
 9681TIP3    H228987   3.490   0.184   5.296
 9682TIP3   OH228988   7.119   0.719   3.761
 9682TIP3    H128989   7.027   0.696   3.745
 9682TIP3    H228990   7.169   0.645   3.726
 9683TIP3   OH228991   0.220   4.945   0.490
 9683TIP3    H128992   0.261   4.958   0.575
 9683TIP3    H228993   0.225   4.851   0.474
 9684TIP3   OH228994   6.947   3.415   5.602
 9684TIP3    H128995   7.018   3.376   5.653
 9684TIP3    H228996   6.972   3.507   5.592
 9685TIP3   OH228997   8.091   4.987   5.047
 9685TIP3    H128998   8.101   4.964   5.139
 9685TIP3    H228999   8.003   4.958   5.024
 9686TIP3   OH229000   7.797   1.357   3.594
 9686TIP3    H129001   7.746   1.382   3.517
 9686TIP3    H229002   7.733   1.351   3.665
 9687TIP3   OH229003   8.065   7.105   4.646
 9687TIP3    H129004   8.092   7.036   4.585
 9687TIP3    H229005   8.102   7.185   4.610
 9688TIP3   OH229006   5.278   7.779   3.886
 9688TIP3    H129007   5.225   7.842   3.936
 9688TIP3    H229008   5.350   7.757   3.945
 9689TIP3   OH229009   4.083   1.512   4.024
 9689TIP3    H129010   4.095   1.607   4.019
 9689TIP3    H229011   4.032   1.499   4.104
 9690TIP3   OH229012   7.579   5.531   4.997
 9690TIP3    H129013   7.572   5.491   5.084
 9690TIP3    H229014   7.664   5.503   4.964
 9691TIP3   OH229015   2.519   1.271   3.553
 9691TIP3    H129016   2.451   1.241   3.615
 9691TIP3    H229017   2.530   1.364   3.572
 9692TIP3   OH229018   5.261   3.881   5.416
 9692TIP3    H129019   5.281   3.910   5.505
 9692TIP3    H229020   5.244   3.787   5.425
 9693TIP3   OH229021   3.483   5.217   2.978
 9693TIP3    H129022   3.459   5.260   2.896
 9693TIP3    H229023   3.412   5.239   3.038
 9694TIP3   OH229024   3.941   4.960   3.435
 9694TIP3    H129025   3.851   4.952   3.402
 9694TIP3    H229026   3.950   5.053   3.457
 9695TIP3   OH229027   4.653   7.003   0.875
 9695TIP3    H129028   4.637   7.090   0.911
 9695TIP3    H229029   4.744   6.985   0.896
 9696TIP3   OH229030   2.745   6.936   5.345
 9696TIP3    H129031   2.659   6.908   5.375
 9696TIP3    H229032   2.806   6.872   5.382
 9697TIP3   OH229033   0.561   1.033   3.967
 9697TIP3    H129034   0.615   1.073   3.899
 9697TIP3    H229035   0.488   1.094   3.980
 9698TIP3   OH229036   3.363   4.276   5.744
 9698TIP3    H129037   3.416   4.330   5.685
 9698TIP3    H229038   3.392   4.186   5.728
 9699TIP3   OH229039   5.467   1.058   2.718
 9699TIP3    H129040   5.499   1.143   2.748
 9699TIP3    H229041   5.535   0.996   2.745
 9700TIP3   OH229042   0.362   6.091   2.145
 9700TIP3    H129043   0.310   6.087   2.065
 9700TIP3    H229044   0.422   6.017   2.139
 9701TIP3   OH229045   5.208   1.734   3.459
 9701TIP3    H129046   5.293   1.739   3.503
 9701TIP3    H229047   5.170   1.651   3.490
 9702TIP3   OH229048   8.113   1.084   6.357
 9702TIP3    H129049   8.195   1.044   6.388
 9702TIP3    H229050   8.051   1.012   6.352
 9703TIP3   OH229051   0.227   6.685   0.342
 9703TIP3    H129052   0.275   6.617   0.390
 9703TIP3    H229053   0.295   6.748   0.316
 9704TIP3   OH229054   4.325   4.034   5.583
 9704TIP3    H129055   4.276   3.968   5.534
 9704TIP3    H229056   4.356   4.095   5.517
 9705TIP3   OH229057   5.745   5.622   3.507
 9705TIP3    H129058   5.825   5.644   3.556
 9705TIP3    H229059   5.725   5.702   3.459
 9706TIP3   OH229060   1.352   5.915   4.028
 9706TIP3    H129061   1.380   6.003   4.053
 9706TIP3    H229062   1.273   5.929   3.975
 9707TIP3   OH229063   5.459   0.351   1.812
 9707TIP3    H129064   5.438   0.262   1.840
 9707TIP3    H229065   5.378   0.400   1.824
 9708TIP3   OH229066   3.202   3.146   1.528
 9708TIP3    H129067   3.290   3.124   1.560
 9708TIP3    H229068   3.183   3.232   1.565
 9709TIP3   OH229069   1.078   2.624   3.930
 9709TIP3    H129070   1.012   2.693   3.940
 9709TIP3    H229071   1.084   2.610   3.836
 9710TIP3   OH229072   3.434   2.347   4.592
 9710TIP3    H129073   3.522   2.386   4.587
 9710TIP3    H229074   3.375   2.420   4.576
 9711TIP3   OH229075   7.277   1.754   3.317
 9711TIP3    H129076   7.356   1.804   3.335
 9711TIP3    H229077   7.306   1.684   3.258
 9712TIP3   OH229078   3.136   4.584   6.671
 9712TIP3    H129079   3.094   4.562   6.588
 9712TIP3    H229080   3.201   4.650   6.648
 9713TIP3   OH229081   4.399   0.915   0.810
 9713TIP3    H129082   4.313   0.875   0.801
 9713TIP3    H229083   4.410   0.929   0.904
 9714TIP3   OH229084   1.223   2.445   2.664
 9714TIP3    H129085   1.191   2.460   2.575
 9714TIP3    H229086   1.205   2.353   2.681
 9715TIP3   OH229087   3.609   0.753   4.660
 9715TIP3    H129088   3.632   0.663   4.685
 9715TIP3    H229089   3.639   0.807   4.733
 9716TIP3   OH229090   7.710   0.078   0.781
 9716TIP3    H129091   7.627   0.098   0.823
 9716TIP3    H229092   7.695   0.093   0.688
 9717TIP3   OH229093   1.836   6.449   5.040
 9717TIP3    H129094   1.783   6.522   5.007
 9717TIP3    H229095   1.875   6.483   5.121
 9718TIP3   OH229096   0.386   1.993   1.951
 9718TIP3    H129097   0.370   1.928   1.883
 9718TIP3    H229098   0.346   1.956   2.029
 9719TIP3   OH229099   0.636   3.662   1.202
 9719TIP3    H129100   0.585   3.597   1.154
 9719TIP3    H229101   0.586   3.743   1.192
 9720TIP3   OH229102   0.339   2.074   4.026
 9720TIP3    H129103   0.286   2.036   3.956
 9720TIP3    H229104   0.371   1.999   4.076
 9721TIP3   OH229105   3.036   2.133   5.737
 9721TIP3    H129106   3.073   2.217   5.766
 9721TIP3    H229107   3.009   2.090   5.818
 9722TIP3   OH229108   6.976   5.011   4.180
 9722TIP3    H129109   7.025   4.929   4.172
 9722TIP3    H229110   6.884   4.984   4.182
 9723TIP3   OH229111   0.129   5.326   0.269
 9723TIP3    H129112   0.151   5.238   0.239
 9723TIP3    H229113   0.074   5.312   0.346
 9724TIP3   OH229114   2.135   4.764   4.852
 9724TIP3    H129115   2.066   4.814   4.897
 9724TIP3    H229116   2.217   4.798   4.888
 9725TIP3   OH229117   2.171   1.266   1.538
 9725TIP3    H129118   2.113   1.268   1.614
 9725TIP3    H229119   2.252   1.226   1.571
 9726TIP3   OH229120   5.132   5.802   1.024
 9726TIP3    H129121   5.092   5.874   1.073
 9726TIP3    H229122   5.225   5.807   1.046
 9727TIP3   OH229123   2.078   0.534   1.225
 9727TIP3    H129124   2.146   0.568   1.166
 9727TIP3    H229125   2.123   0.467   1.276
 9728TIP3   OH229126   7.694   5.043   3.176
 9728TIP3    H129127   7.665   4.971   3.120
 9728TIP3    H229128   7.636   5.116   3.153
 9729TIP3   OH229129   4.317   3.065   2.590
 9729TIP3    H129130   4.234   3.069   2.637
 9729TIP3    H229131   4.315   2.980   2.545
 9730TIP3   OH229132   1.177   2.572   1.793
 9730TIP3    H129133   1.194   2.667   1.798
 9730TIP3    H229134   1.172   2.544   1.885
 9731TIP3   OH229135   1.721   5.379   5.443
 9731TIP3    H129136   1.784   5.306   5.443
 9731TIP3    H229137   1.743   5.429   5.522
 9732TIP3   OH229138   3.633   2.867   6.283
 9732TIP3    H129139   3.655   2.955   6.253
 9732TIP3    H229140   3.718   2.822   6.288
 9733TIP3   OH229141   4.071   6.904   6.193
 9733TIP3    H129142   4.097   6.912   6.285
 9733TIP3    H229143   4.109   6.821   6.164
 9734TIP3   OH229144   3.657   4.727   6.720
 9734TIP3    H129145   3.697   4.684   6.796
 9734TIP3    H229146   3.568   4.692   6.716
 9735TIP3   OH229147   1.020   0.698   0.176
 9735TIP3    H129148   1.106   0.691   0.134
 9735TIP3    H229149   1.040   0.728   0.265
 9736TIP3   OH229150   7.503   5.579   5.332
 9736TIP3    H129151   7.530   5.667   5.306
 9736TIP3    H229152   7.449   5.592   5.410
 9737TIP3   OH229153   4.031   0.399   4.290
 9737TIP3    H129154   3.964   0.461   4.260
 9737TIP3    H229155   4.038   0.335   4.219
 9738TIP3   OH229156   6.584   1.437   3.768
 9738TIP3    H129157   6.679   1.426   3.761
 9738TIP3    H229158   6.548   1.363   3.718
 9739TIP3   OH229159   5.228   2.550   0.487
 9739TIP3    H129160   5.196   2.639   0.472
 9739TIP3    H229161   5.156   2.506   0.532
 9740TIP3   OH229162   3.509   7.468   0.176
 9740TIP3    H129163   3.588   7.432   0.135
 9740TIP3    H229164   3.541   7.524   0.247
 9741TIP3   OH229165   1.174   6.693   4.177
 9741TIP3    H129166   1.118   6.618   4.197
 9741TIP3    H229167   1.257   6.674   4.220
 9742TIP3   OH229168   5.186   7.708   1.140
 9742TIP3    H129169   5.257   7.666   1.188
 9742TIP3    H229170   5.229   7.773   1.085
 9743TIP3   OH229171   1.866   0.283   2.940
 9743TIP3    H129172   1.860   0.224   2.865
 9743TIP3    H229173   1.953   0.323   2.931
 9744TIP3   OH229174   5.116   1.248   2.918
 9744TIP3    H129175   5.092   1.202   2.838
 9744TIP3    H229176   5.190   1.198   2.953
 9745TIP3   OH229177   0.378   1.846   4.472
 9745TIP3    H129178   0.308   1.797   4.516
 9745TIP3    H229179   0.458   1.800   4.497
 9746TIP3   OH229180   1.002   2.009   4.562
 9746TIP3    H129181   0.996   2.031   4.469
 9746TIP3    H229182   0.917   2.035   4.598
 9747TIP3   OH229183   1.315   0.687   0.088
 9747TIP3    H129184   1.328   0.665  -0.005
 9747TIP3    H229185   1.385   0.750   0.108
 9748TIP3   OH229186   0.266   1.069   5.260
 9748TIP3    H129187   0.274   1.133   5.330
 9748TIP3    H229188   0.257   1.121   5.180
 9749TIP3   OH229189   2.405   7.836   3.494
 9749TIP3    H129190   2.409   7.829   3.398
 9749TIP3    H229191   2.313   7.819   3.515
 9750TIP3   OH229192   0.990   2.393   3.151
 9750TIP3    H129193   0.913   2.443   3.127
 9750TIP3    H229194   0.958   2.327   3.213
 9751TIP3   OH229195   7.428   6.383   3.258
 9751TIP3    H129196   7.517   6.398   3.227
 9751TIP3    H229197   7.380   6.461   3.232
 9752TIP3   OH229198   3.538   4.127   4.447
 9752TIP3    H129199   3.616   4.172   4.481
 9752TIP3    H229200   3.519   4.061   4.514
 9753TIP3   OH229201   2.183   7.684   0.086
 9753TIP3    H129202   2.136   7.707   0.166
 9753TIP3    H229203   2.128   7.617   0.045
 9754TIP3   OH229204   2.324   5.373   5.899
 9754TIP3    H129205   2.309   5.430   5.824
 9754TIP3    H229206   2.324   5.432   5.974
 9755TIP3   OH229207   2.909   2.663   6.360
 9755TIP3    H129208   2.998   2.683   6.333
 9755TIP3    H229209   2.917   2.586   6.416
 9756TIP3   OH229210   1.365   2.988   2.797
 9756TIP3    H129211   1.390   3.005   2.888
 9756TIP3    H229212   1.435   3.027   2.745
 9757TIP3   OH229213   5.687   4.813   2.715
 9757TIP3    H129214   5.604   4.802   2.761
 9757TIP3    H229215   5.720   4.724   2.703
 9758TIP3   OH229216   5.910   0.936   5.094
 9758TIP3    H129217   5.923   0.937   5.189
 9758TIP3    H229218   5.996   0.960   5.058
 9759TIP3   OH229219   4.066   4.411   4.516
 9759TIP3    H129220   4.019   4.361   4.449
 9759TIP3    H229221   3.999   4.438   4.578
 9760TIP3   OH229222   7.929   0.235   2.454
 9760TIP3    H129223   7.921   0.268   2.544
 9760TIP3    H229224   7.940   0.314   2.401
 9761TIP3   OH229225   2.838   2.258   0.185
 9761TIP3    H129226   2.824   2.199   0.260
 9761TIP3    H229227   2.865   2.201   0.114
 9762TIP3   OH229228   0.305   7.503   1.327
 9762TIP3    H129229   0.236   7.569   1.323
 9762TIP3    H229230   0.376   7.539   1.273
 9763TIP3   OH229231   5.437   0.000   0.120
 9763TIP3    H129232   5.514   0.051   0.094
 9763TIP3    H229233   5.363   0.054   0.093
 9764TIP3   OH229234   5.229   0.503   4.481
 9764TIP3    H129235   5.293   0.497   4.410
 9764TIP3    H229236   5.164   0.566   4.450
 9765TIP3   OH229237   0.357   6.655   6.476
 9765TIP3    H129238   0.339   6.680   6.386
 9765TIP3    H229239   0.271   6.646   6.517
 9766TIP3   OH229240   7.069   2.060   1.684
 9766TIP3    H129241   7.026   2.021   1.761
 9766TIP3    H229242   7.162   2.060   1.707
 9767TIP3   OH229243   6.215   3.469   1.305
 9767TIP3    H129244   6.185   3.553   1.341
 9767TIP3    H229245   6.292   3.492   1.252
 9768TIP3   OH229246   3.992   2.135   4.926
 9768TIP3    H129247   4.068   2.121   4.870
 9768TIP3    H229248   3.931   2.065   4.903
 9769TIP3   OH229249   3.751   7.215   1.962
 9769TIP3    H129250   3.705   7.143   1.920
 9769TIP3    H229251   3.817   7.242   1.898
 9770TIP3   OH229252   6.432   2.622   4.651
 9770TIP3    H129253   6.491   2.697   4.660
 9770TIP3    H229254   6.489   2.546   4.662
 9771TIP3   OH229255   3.978   6.164   4.886
 9771TIP3    H129256   3.951   6.158   4.794
 9771TIP3    H229257   4.020   6.249   4.894
 9772TIP3   OH229258   2.382   5.350   6.320
 9772TIP3    H129259   2.341   5.264   6.319
 9772TIP3    H229260   2.465   5.337   6.365
 9773TIP3   OH229261   5.729   1.330   1.715
 9773TIP3    H129262   5.679   1.342   1.635
 9773TIP3    H229263   5.667   1.289   1.776
 9774TIP3   OH229264   3.345   3.335   6.335
 9774TIP3    H129265   3.259   3.330   6.293
 9774TIP3    H229266   3.396   3.264   6.295
 9775TIP3   OH229267   0.871   6.024   0.809
 9775TIP3    H129268   0.900   6.009   0.719
 9775TIP3    H229269   0.871   5.937   0.849
 9776TIP3   OH229270   7.613   7.563   3.089
 9776TIP3    H129271   7.684   7.528   3.036
 9776TIP3    H229272   7.657   7.597   3.167
 9777TIP3   OH229273   0.140   1.076   3.442
 9777TIP3    H129274   0.081   1.043   3.373
 9777TIP3    H229275   0.159   1.166   3.416
 9778TIP3   OH229276   1.258   1.526   3.461
 9778TIP3    H129277   1.327   1.488   3.406
 9778TIP3    H229278   1.291   1.516   3.550
 9779TIP3   OH229279   6.827   1.086   0.261
 9779TIP3    H129280   6.778   1.022   0.209
 9779TIP3    H229281   6.888   1.033   0.311
 9780TIP3   OH229282   3.062   4.339   2.557
 9780TIP3    H129283   2.986   4.285   2.580
 9780TIP3    H229284   3.072   4.398   2.632
 9781TIP3   OH229285   7.270   4.419   3.542
 9781TIP3    H129286   7.207   4.350   3.525
 9781TIP3    H229287   7.253   4.446   3.632
 9782TIP3   OH229288   0.379   6.367   4.799
 9782TIP3    H129289   0.341   6.298   4.745
 9782TIP3    H229290   0.460   6.329   4.834
 9783TIP3   OH229291   5.572   3.020   1.600
 9783TIP3    H129292   5.541   3.088   1.541
 9783TIP3    H229293   5.614   3.067   1.672
 9784TIP3   OH229294   8.260   3.214   1.967
 9784TIP3    H129295   8.311   3.258   1.899
 9784TIP3    H229296   8.320   3.206   2.040
 9785TIP3   OH229297   3.541   2.780   3.566
 9785TIP3    H129298   3.461   2.746   3.527
 9785TIP3    H229299   3.588   2.702   3.596
 9786TIP3   OH229300   1.347   5.042   5.812
 9786TIP3    H129301   1.403   5.107   5.854
 9786TIP3    H229302   1.310   5.087   5.736
 9787TIP3   OH229303   1.643   2.020   0.716
 9787TIP3    H129304   1.663   2.042   0.807
 9787TIP3    H229305   1.662   1.926   0.709
 9788TIP3   OH229306   4.260   5.530   6.377
 9788TIP3    H129307   4.201   5.596   6.414
 9788TIP3    H229308   4.261   5.460   6.442
 9789TIP3   OH229309   0.492   1.748   2.724
 9789TIP3    H129310   0.406   1.734   2.763
 9789TIP3    H229311   0.499   1.843   2.712
 9790TIP3   OH229312   1.390   6.677   4.677
 9790TIP3    H129313   1.429   6.754   4.636
 9790TIP3    H229314   1.298   6.679   4.649
 9791TIP3   OH229315   5.708   7.618   6.482
 9791TIP3    H129316   5.649   7.545   6.503
 9791TIP3    H229317   5.667   7.661   6.407
 9792TIP3   OH229318   4.742   3.169   3.529
 9792TIP3    H129319   4.700   3.219   3.599
 9792TIP3    H229320   4.730   3.078   3.554
 9793TIP3   OH229321   3.106   2.257   1.652
 9793TIP3    H129322   3.194   2.281   1.681
 9793TIP3    H229323   3.114   2.241   1.558
 9794TIP3   OH229324   5.448   7.692   5.440
 9794TIP3    H129325   5.363   7.649   5.428
 9794TIP3    H229326   5.477   7.713   5.351
 9795TIP3   OH229327   8.156   5.384   4.177
 9795TIP3    H129328   8.224   5.437   4.136
 9795TIP3    H229329   8.184   5.374   4.268
 9796TIP3   OH229330   2.922   7.199   1.703
 9796TIP3    H129331   2.895   7.197   1.611
 9796TIP3    H229332   3.009   7.161   1.702
 9797TIP3   OH229333   8.120   6.488   5.110
 9797TIP3    H129334   8.215   6.485   5.124
 9797TIP3    H229335   8.100   6.408   5.063
 9798TIP3   OH229336   0.758   4.688   2.089
 9798TIP3    H129337   0.806   4.734   2.158
 9798TIP3    H229338   0.728   4.758   2.031
 9799TIP3   OH229339   5.255   7.066   1.048
 9799TIP3    H129340   5.336   7.093   1.006
 9799TIP3    H229341   5.233   7.138   1.107
 9800TIP3   OH229342   1.016   2.964   3.998
 9800TIP3    H129343   0.939   2.915   4.028
 9800TIP3    H229344   1.058   2.994   4.079
 9801TIP3   OH229345   6.122   6.039   0.836
 9801TIP3    H129346   6.167   5.956   0.827
 9801TIP3    H229347   6.064   6.027   0.911
 9802TIP3   OH229348   3.345   5.718   5.010
 9802TIP3    H129349   3.390   5.643   5.048
 9802TIP3    H229350   3.272   5.680   4.961
 9803TIP3   OH229351   5.979   2.335   2.716
 9803TIP3    H129352   6.016   2.311   2.801
 9803TIP3    H229353   6.049   2.315   2.653
 9804TIP3   OH229354   6.988   7.665   4.719
 9804TIP3    H129355   7.045   7.597   4.755
 9804TIP3    H229356   7.002   7.741   4.776
 9805TIP3   OH229357   8.068   1.972   5.528
 9805TIP3    H129358   8.095   2.054   5.569
 9805TIP3    H229359   7.973   1.972   5.535
 9806TIP3   OH229360   2.276   0.352   3.306
 9806TIP3    H129361   2.341   0.308   3.251
 9806TIP3    H229362   2.320   0.429   3.340
 9807TIP3   OH229363   4.484   1.514   5.416
 9807TIP3    H129364   4.518   1.454   5.482
 9807TIP3    H229365   4.521   1.482   5.333
 9808TIP3   OH229366   1.487   7.747   2.690
 9808TIP3    H129367   1.508   7.820   2.748
 9808TIP3    H229368   1.493   7.669   2.746
 9809TIP3   OH229369   4.948   3.136   3.328
 9809TIP3    H129370   4.965   3.044   3.306
 9809TIP3    H229371   4.876   3.132   3.391
 9810TIP3   OH229372   1.094   1.949   3.276
 9810TIP3    H129373   1.190   1.939   3.273
 9810TIP3    H229374   1.063   1.865   3.311
 9811TIP3   OH229375   3.787   7.591   2.885
 9811TIP3    H129376   3.803   7.574   2.978
 9811TIP3    H229377   3.784   7.505   2.845
 9812TIP3   OH229378   5.988   4.896   4.041
 9812TIP3    H129379   5.983   4.815   3.991
 9812TIP3    H229380   5.905   4.941   4.023
 9813TIP3   OH229381   7.750   1.694   6.083
 9813TIP3    H129382   7.672   1.683   6.029
 9813TIP3    H229383   7.717   1.706   6.172
 9814TIP3   OH229384   0.114   0.851   0.587
 9814TIP3    H129385   0.177   0.796   0.542
 9814TIP3    H229386   0.165   0.899   0.651
 9815TIP3   OH229387   7.678   7.672   5.528
 9815TIP3    H129388   7.597   7.711   5.560
 9815TIP3    H229389   7.652   7.620   5.452
 9816TIP3   OH229390   3.094   2.030   4.869
 9816TIP3    H129391   3.095   2.072   4.954
 9816TIP3    H229392   3.136   2.093   4.810
 9817TIP3   OH229393   6.578   7.755   3.433
 9817TIP3    H129394   6.669   7.775   3.456
 9817TIP3    H229395   6.585   7.678   3.376
 9818TIP3   OH229396   3.140   1.578   4.925
 9818TIP3    H129397   3.178   1.561   5.011
 9818TIP3    H229398   3.051   1.542   4.930
 9819TIP3   OH229399   4.333   5.850   1.221
 9819TIP3    H129400   4.287   5.875   1.140
 9819TIP3    H229401   4.391   5.924   1.239
 9820TIP3   OH229402   4.344   7.514   2.187
 9820TIP3    H129403   4.439   7.506   2.194
 9820TIP3    H229404   4.329   7.607   2.168
 9821TIP3   OH229405   5.112   2.822   2.202
 9821TIP3    H129406   5.042   2.877   2.236
 9821TIP3    H229407   5.193   2.860   2.238
 9822TIP3   OH229408   6.966   6.446   3.331
 9822TIP3    H129409   7.024   6.452   3.255
 9822TIP3    H229410   6.884   6.486   3.302
 9823TIP3   OH229411   3.817   7.588   0.691
 9823TIP3    H129412   3.788   7.533   0.763
 9823TIP3    H229413   3.879   7.649   0.731
 9824TIP3   OH229414   7.008   3.397   6.034
 9824TIP3    H129415   7.041   3.349   5.957
 9824TIP3    H229416   7.013   3.489   6.009
 9825TIP3   OH229417   5.403   3.738   4.485
 9825TIP3    H129418   5.467   3.688   4.536
 9825TIP3    H229419   5.428   3.722   4.394
 9826TIP3   OH229420   7.891   4.404   1.442
 9826TIP3    H129421   7.802   4.381   1.467
 9826TIP3    H229422   7.935   4.319   1.431
 9827TIP3   OH229423   2.621   5.254   6.441
 9827TIP3    H129424   2.678   5.308   6.497
 9827TIP3    H229425   2.555   5.220   6.500
 9828TIP3   OH229426   1.082   2.864   3.194
 9828TIP3    H129427   1.070   2.893   3.104
 9828TIP3    H229428   1.162   2.812   3.192
 9829TIP3   OH229429   6.882   4.205   5.890
 9829TIP3    H129430   6.929   4.231   5.969
 9829TIP3    H229431   6.950   4.204   5.822
 9830TIP3   OH229432   3.527   6.107   6.213
 9830TIP3    H129433   3.445   6.127   6.168
 9830TIP3    H229434   3.569   6.040   6.158
 9831TIP3   OH229435   4.409   4.676   1.543
 9831TIP3    H129436   4.393   4.665   1.450
 9831TIP3    H229437   4.328   4.648   1.586
 9832TIP3   OH229438   0.247   5.246   4.754
 9832TIP3    H129439   0.271   5.160   4.789
 9832TIP3    H229440   0.327   5.278   4.712
 9833TIP3   OH229441   4.429   0.701   4.116
 9833TIP3    H129442   4.351   0.663   4.158
 9833TIP3    H229443   4.403   0.792   4.097
 9834TIP3   OH229444   2.216   2.156   3.752
 9834TIP3    H129445   2.135   2.120   3.718
 9834TIP3    H229446   2.276   2.082   3.756
 9835TIP3   OH229447   7.873   5.677   3.528
 9835TIP3    H129448   7.858   5.661   3.435
 9835TIP3    H229449   7.951   5.732   3.530
 9836TIP3   OH229450   6.172   0.424   1.187
 9836TIP3    H129451   6.241   0.490   1.190
 9836TIP3    H229452   6.216   0.344   1.161
 9837TIP3   OH229453   8.216   0.733   4.806
 9837TIP3    H129454   8.270   0.746   4.884
 9837TIP3    H229455   8.149   0.670   4.834
 9838TIP3   OH229456   1.540   7.230   3.619
 9838TIP3    H129457   1.551   7.137   3.637
 9838TIP3    H229458   1.628   7.261   3.599
 9839TIP3   OH229459   5.814   4.516   2.510
 9839TIP3    H129460   5.843   4.525   2.601
 9839TIP3    H229461   5.736   4.460   2.515
 9840TIP3   OH229462   2.750   7.636   4.462
 9840TIP3    H129463   2.769   7.696   4.390
 9840TIP3    H229464   2.832   7.630   4.511
 9841TIP3   OH229465   7.359   1.995   1.721
 9841TIP3    H129466   7.448   1.967   1.702
 9841TIP3    H229467   7.308   1.914   1.726
 9842TIP3   OH229468   0.380   3.761   1.014
 9842TIP3    H129469   0.443   3.750   0.943
 9842TIP3    H229470   0.295   3.753   0.971
 9843TIP3   OH229471   6.606   6.029   5.409
 9843TIP3    H129472   6.628   6.009   5.317
 9843TIP3    H229473   6.522   6.076   5.404
 9844TIP3   OH229474   8.175   0.245   2.872
 9844TIP3    H129475   8.201   0.241   2.964
 9844TIP3    H229476   8.103   0.181   2.865
 9845TIP3   OH229477   0.044   5.491   0.078
 9845TIP3    H129478   0.080   5.424   0.137
 9845TIP3    H229479  -0.040   5.514   0.118
 9846TIP3   OH229480   3.729   0.520   6.139
 9846TIP3    H129481   3.660   0.563   6.090
 9846TIP3    H229482   3.708   0.537   6.231
 9847TIP3   OH229483   4.641   2.568   6.336
 9847TIP3    H129484   4.690   2.636   6.382
 9847TIP3    H229485   4.663   2.488   6.384
 9848TIP3   OH229486   1.868   0.617   4.164
 9848TIP3    H129487   1.865   0.600   4.259
 9848TIP3    H229488   1.834   0.706   4.155
 9849TIP3   OH229489   5.508   4.292   1.759
 9849TIP3    H129490   5.493   4.369   1.704
 9849TIP3    H229491   5.440   4.297   1.826
 9850TIP3   OH229492   6.717   0.166   6.027
 9850TIP3    H129493   6.735   0.251   6.067
 9850TIP3    H229494   6.672   0.187   5.945
 9851TIP3   OH229495   4.504   2.270   6.527
 9851TIP3    H129496   4.446   2.288   6.454
 9851TIP3    H229497   4.487   2.179   6.551
 9852TIP3   OH229498   2.854   0.901   4.809
 9852TIP3    H129499   2.838   0.993   4.830
 9852TIP3    H229500   2.797   0.883   4.735
 9853TIP3   OH229501   2.495   5.198   1.140
 9853TIP3    H129502   2.563   5.205   1.072
 9853TIP3    H229503   2.544   5.180   1.220
 9854TIP3   OH229504   5.230   5.829   4.498
 9854TIP3    H129505   5.138   5.811   4.482
 9854TIP3    H229506   5.248   5.791   4.584
 9855TIP3   OH229507   2.388   6.028   4.472
 9855TIP3    H129508   2.386   5.937   4.502
 9855TIP3    H229509   2.349   6.078   4.544
 9856TIP3   OH229510   5.532   1.194   1.827
 9856TIP3    H129511   5.509   1.106   1.795
 9856TIP3    H229512   5.457   1.220   1.879
 9857TIP3   OH229513   5.728   1.864   2.019
 9857TIP3    H129514   5.795   1.932   2.010
 9857TIP3    H229515   5.714   1.858   2.114
 9858TIP3   OH229516   5.126   4.773   2.070
 9858TIP3    H129517   5.052   4.755   2.012
 9858TIP3    H229518   5.087   4.772   2.158
 9859TIP3   OH229519   6.871   7.277   1.114
 9859TIP3    H129520   6.888   7.290   1.207
 9859TIP3    H229521   6.892   7.185   1.098
 9860TIP3   OH229522   3.500   4.892   3.198
 9860TIP3    H129523   3.495   4.882   3.103
 9860TIP3    H229524   3.410   4.883   3.227
 9861TIP3   OH229525   5.613   3.911   2.381
 9861TIP3    H129526   5.601   3.998   2.341
 9861TIP3    H229527   5.646   3.856   2.310
 9862TIP3   OH229528   3.416   1.138   4.361
 9862TIP3    H129529   3.327   1.170   4.375
 9862TIP3    H229530   3.425   1.065   4.422
 9863TIP3   OH229531   1.290   2.869   3.886
 9863TIP3    H129532   1.252   2.937   3.942
 9863TIP3    H229533   1.246   2.881   3.802
 9864TIP3   OH229534   1.275   0.813   1.413
 9864TIP3    H129535   1.286   0.813   1.317
 9864TIP3    H229536   1.337   0.879   1.444
 9865TIP3   OH229537   8.253   0.581   1.858
 9865TIP3    H129538   8.246   0.638   1.935
 9865TIP3    H229539   8.179   0.606   1.803
 9866TIP3   OH229540   4.494   1.501   6.125
 9866TIP3    H129541   4.458   1.427   6.174
 9866TIP3    H229542   4.575   1.468   6.087
 9867TIP3   OH229543   8.206   1.811   2.293
 9867TIP3    H129544   8.183   1.801   2.385
 9867TIP3    H229545   8.122   1.815   2.247
 9868TIP3   OH229546   2.780   4.136   2.964
 9868TIP3    H129547   2.860   4.123   2.913
 9868TIP3    H229548   2.811   4.161   3.051
 9869TIP3   OH229549   6.459   7.345   1.332
 9869TIP3    H129550   6.435   7.407   1.263
 9869TIP3    H229551   6.447   7.259   1.292
 9870TIP3   OH229552   7.697   4.772   5.975
 9870TIP3    H129553   7.683   4.843   5.913
 9870TIP3    H229554   7.745   4.705   5.925
 9871TIP3   OH229555   0.188   1.026   4.688
 9871TIP3    H129556   0.201   0.952   4.629
 9871TIP3    H229557   0.129   1.085   4.641
 9872TIP3   OH229558   4.401   5.006   4.043
 9872TIP3    H129559   4.368   5.081   4.092
 9872TIP3    H229560   4.332   4.985   3.980
 9873TIP3   OH229561   7.785   2.003   5.560
 9873TIP3    H129562   7.734   1.994   5.479
 9873TIP3    H229563   7.720   1.993   5.630
 9874TIP3   OH229564   6.520   4.197   4.341
 9874TIP3    H129565   6.491   4.164   4.256
 9874TIP3    H229566   6.528   4.292   4.328
 9875TIP3   OH229567   5.182   0.406   5.905
 9875TIP3    H129568   5.108   0.432   5.850
 9875TIP3    H229569   5.235   0.485   5.912
 9876TIP3   OH229570   5.301   2.586   5.526
 9876TIP3    H129571   5.331   2.586   5.617
 9876TIP3    H229572   5.236   2.657   5.522
 9877TIP3   OH229573   5.613   3.947   0.972
 9877TIP3    H129574   5.696   3.904   0.993
 9877TIP3    H229575   5.546   3.888   1.009
 9878TIP3   OH229576   5.436   1.267  -0.009
 9878TIP3    H129577   5.420   1.193   0.050
 9878TIP3    H229578   5.528   1.258  -0.034
 9879TIP3   OH229579   6.920   5.816   6.587
 9879TIP3    H129580   6.938   5.814   6.493
 9879TIP3    H229581   6.832   5.854   6.594
 9880TIP3   OH229582   2.166   5.619   1.176
 9880TIP3    H129583   2.171   5.631   1.271
 9880TIP3    H229584   2.248   5.575   1.153
 9881TIP3   OH229585   6.825   4.051   1.139
 9881TIP3    H129586   6.776   4.130   1.119
 9881TIP3    H229587   6.883   4.039   1.063
 9882TIP3   OH229588   1.737   3.190   5.307
 9882TIP3    H129589   1.684   3.111   5.304
 9882TIP3    H229590   1.813   3.167   5.361
 9883TIP3   OH229591   1.009   6.537   1.909
 9883TIP3    H129592   1.074   6.563   1.844
 9883TIP3    H229593   1.030   6.445   1.927
 9884TIP3   OH229594   6.676   6.892   4.101
 9884TIP3    H129595   6.631   6.939   4.172
 9884TIP3    H229596   6.606   6.870   4.039
 9885TIP3   OH229597   4.907   4.210   5.799
 9885TIP3    H129598   4.923   4.196   5.892
 9885TIP3    H229599   4.984   4.258   5.767
 9886TIP3   OH229600   0.999   4.044   2.878
 9886TIP3    H129601   0.981   3.959   2.918
 9886TIP3    H229602   0.986   4.029   2.784
 9887TIP3   OH229603   0.637   7.564   0.498
 9887TIP3    H129604   0.718   7.564   0.549
 9887TIP3    H229605   0.640   7.482   0.448
 9888TIP3   OH229606   1.654   4.565   0.349
 9888TIP3    H129607   1.601   4.610   0.284
 9888TIP3    H229608   1.744   4.588   0.328
 9889TIP3   OH229609   5.568   0.374   2.059
 9889TIP3    H129610   5.558   0.356   1.965
 9889TIP3    H229611   5.662   0.383   2.071
 9890TIP3   OH229612   2.341   4.024   3.263
 9890TIP3    H129613   2.285   3.946   3.270
 9890TIP3    H229614   2.345   4.042   3.169
 9891TIP3   OH229615   0.216   3.760   3.609
 9891TIP3    H129616   0.195   3.667   3.601
 9891TIP3    H229617   0.154   3.794   3.673
 9892TIP3   OH229618   6.767   6.152   5.033
 9892TIP3    H129619   6.826   6.179   4.962
 9892TIP3    H229620   6.795   6.205   5.108
 9893TIP3   OH229621   5.788   3.624   6.035
 9893TIP3    H129622   5.864   3.658   6.082
 9893TIP3    H229623   5.784   3.532   6.058
 9894TIP3   OH229624   8.168   7.230   4.112
 9894TIP3    H129625   8.211   7.254   4.030
 9894TIP3    H229626   8.076   7.222   4.088
 9895TIP3   OH229627   3.179   0.827   5.775
 9895TIP3    H129628   3.197   0.910   5.730
 9895TIP3    H229629   3.170   0.852   5.867
 9896TIP3   OH229630   1.802   0.164   5.683
 9896TIP3    H129631   1.746   0.241   5.685
 9896TIP3    H229632   1.814   0.144   5.590
 9897TIP3   OH229633   4.359   4.149   3.236
 9897TIP3    H129634   4.352   4.156   3.141
 9897TIP3    H229635   4.441   4.103   3.251
 9898TIP3   OH229636   6.984   2.188   2.575
 9898TIP3    H129637   7.054   2.250   2.598
 9898TIP3    H229638   7.023   2.102   2.586
 9899TIP3   OH229639   5.407   5.045   0.788
 9899TIP3    H129640   5.352   5.112   0.827
 9899TIP3    H229641   5.493   5.087   0.778
 9900TIP3   OH229642   7.160   1.846   3.818
 9900TIP3    H129643   7.221   1.773   3.809
 9900TIP3    H229644   7.097   1.833   3.747
 9901TIP3   OH229645   6.976   5.237   6.557
 9901TIP3    H129646   7.062   5.195   6.548
 9901TIP3    H229647   6.976   5.306   6.491
 9902TIP3   OH229648   1.823   5.761   0.876
 9902TIP3    H129649   1.798   5.724   0.961
 9902TIP3    H229650   1.768   5.716   0.813
 9903TIP3   OH229651   2.740   4.920   5.797
 9903TIP3    H129652   2.786   4.957   5.872
 9903TIP3    H229653   2.744   4.988   5.730
 9904TIP3   OH229654   3.210   2.860   5.357
 9904TIP3    H129655   3.226   2.915   5.280
 9904TIP3    H229656   3.119   2.878   5.380
 9905TIP3   OH229657   2.985   7.372   1.281
 9905TIP3    H129658   2.926   7.314   1.329
 9905TIP3    H229659   3.024   7.428   1.348
 9906TIP3   OH229660   7.105   0.162   3.623
 9906TIP3    H129661   7.092   0.154   3.718
 9906TIP3    H229662   7.197   0.138   3.610
 9907TIP3   OH229663   4.346   6.742   3.521
 9907TIP3    H129664   4.270   6.705   3.474
 9907TIP3    H229665   4.340   6.706   3.609
 9908TIP3   OH229666   5.867   4.209   2.336
 9908TIP3    H129667   5.839   4.153   2.264
 9908TIP3    H229668   5.815   4.289   2.327
 9909TIP3   OH229669   3.236   6.695   2.165
 9909TIP3    H129670   3.178   6.641   2.219
 9909TIP3    H229671   3.234   6.653   2.079
 9910TIP3   OH229672   5.353   5.703   5.787
 9910TIP3    H129673   5.259   5.708   5.771
 9910TIP3    H229674   5.364   5.629   5.846
 9911TIP3   OH229675   4.970   2.432   6.067
 9911TIP3    H129676   4.925   2.509   6.032
 9911TIP3    H229677   5.045   2.420   6.009
 9912TIP3   OH229678   7.349   1.498   1.938
 9912TIP3    H129679   7.277   1.539   1.889
 9912TIP3    H229680   7.317   1.410   1.959
 9913TIP3   OH229681   2.912   1.680   6.451
 9913TIP3    H129682   2.834   1.624   6.457
 9913TIP3    H229683   2.882   1.760   6.409
 9914TIP3   OH229684   3.802   2.750   5.133
 9914TIP3    H129685   3.829   2.673   5.083
 9914TIP3    H229686   3.737   2.716   5.195
 9915TIP3   OH229687   6.772   0.283   0.373
 9915TIP3    H129688   6.830   0.211   0.395
 9915TIP3    H229689   6.806   0.358   0.423
 9916TIP3   OH229690   0.974   2.515   5.469
 9916TIP3    H129691   0.974   2.449   5.400
 9916TIP3    H229692   1.063   2.512   5.505
 9917TIP3   OH229693   4.322   7.258   6.485
 9917TIP3    H129694   4.376   7.299   6.418
 9917TIP3    H229695   4.232   7.271   6.455
 9918TIP3   OH229696   0.983   7.434   0.420
 9918TIP3    H129697   1.013   7.523   0.439
 9918TIP3    H229698   0.981   7.390   0.505
 9919TIP3   OH229699   3.210   3.075   6.602
 9919TIP3    H129700   3.146   3.138   6.568
 9919TIP3    H229701   3.250   3.038   6.523
 9920TIP3   OH229702   4.193   1.821   6.302
 9920TIP3    H129703   4.112   1.870   6.310
 9920TIP3    H229704   4.260   1.888   6.289
 9921TIP3   OH229705   5.243   3.307   5.915
 9921TIP3    H129706   5.193   3.379   5.954
 9921TIP3    H229707   5.250   3.329   5.822
 9922TIP3   OH229708   4.830   1.951   6.054
 9922TIP3    H129709   4.918   1.913   6.057
 9922TIP3    H229710   4.775   1.880   6.022
 9923TIP3   OH229711   0.051   6.519   2.236
 9923TIP3    H129712   0.008   6.434   2.231
 9923TIP3    H229713   0.090   6.521   2.324
 9924TIP3   OH229714   6.576   1.225   1.390
 9924TIP3    H129715   6.615   1.158   1.333
 9924TIP3    H229716   6.500   1.181   1.429
 9925TIP3   OH229717   1.358   3.773   5.278
 9925TIP3    H129718   1.318   3.860   5.273
 9925TIP3    H229719   1.287   3.716   5.307
 9926TIP3   OH229720   6.142   6.792   2.341
 9926TIP3    H129721   6.129   6.805   2.247
 9926TIP3    H229722   6.122   6.877   2.380
 9927TIP3   OH229723   4.329   7.406   3.787
 9927TIP3    H129724   4.345   7.318   3.821
 9927TIP3    H229725   4.359   7.402   3.696
 9928TIP3   OH229726   7.568   6.292   6.100
 9928TIP3    H129727   7.644   6.347   6.118
 9928TIP3    H229728   7.601   6.222   6.044
 9929TIP3   OH229729   1.149   5.866   5.027
 9929TIP3    H129730   1.150   5.841   4.934
 9929TIP3    H229731   1.180   5.957   5.027
 9930TIP3   OH229732   1.431   3.269   5.555
 9930TIP3    H129733   1.441   3.300   5.465
 9930TIP3    H229734   1.410   3.348   5.605
 9931TIP3   OH229735  -0.016   0.184   4.662
 9931TIP3    H129736  -0.064   0.103   4.675
 9931TIP3    H229737   0.076   0.160   4.673
 9932TIP3   OH229738   6.946   3.662   5.052
 9932TIP3    H129739   6.976   3.577   5.084
 9932TIP3    H229740   6.951   3.720   5.128
 9933TIP3   OH229741   3.059   3.885   5.972
 9933TIP3    H129742   3.144   3.880   5.930
 9933TIP3    H229743   2.996   3.874   5.901
 9934TIP3   OH229744   4.748   4.819   0.502
 9934TIP3    H129745   4.686   4.831   0.574
 9934TIP3    H229746   4.755   4.905   0.461
 9935TIP3   OH229747   7.463   5.270   2.104
 9935TIP3    H129748   7.374   5.263   2.069
 9935TIP3    H229749   7.509   5.322   2.039
 9936TIP3   OH229750   3.894   1.236   3.589
 9936TIP3    H129751   3.935   1.181   3.655
 9936TIP3    H229752   3.886   1.180   3.512
 9937TIP3   OH229753   6.814   3.697   0.250
 9937TIP3    H129754   6.797   3.789   0.233
 9937TIP3    H229755   6.727   3.657   0.255
 9938TIP3   OH229756   2.113   7.028   3.822
 9938TIP3    H129757   2.090   7.007   3.732
 9938TIP3    H229758   2.064   6.964   3.875
 9939TIP3   OH229759   1.723   3.244   5.020
 9939TIP3    H129760   1.709   3.151   5.002
 9939TIP3    H229761   1.741   3.248   5.114
 9940TIP3   OH229762   0.813   3.991   1.054
 9940TIP3    H129763   0.882   4.056   1.061
 9940TIP3    H229764   0.766   3.997   1.137
 9941TIP3   OH229765   7.731   5.276   2.835
 9941TIP3    H129766   7.728   5.361   2.877
 9941TIP3    H229767   7.824   5.260   2.819
 9942TIP3   OH229768   0.760   7.227   3.257
 9942TIP3    H129769   0.690   7.170   3.289
 9942TIP3    H229770   0.831   7.214   3.319
 9943TIP3   OH229771   3.841   0.879   0.775
 9943TIP3    H129772   3.776   0.827   0.822
 9943TIP3    H229773   3.850   0.835   0.691
 9944TIP3   OH229774   0.514   3.475   5.261
 9944TIP3    H129775   0.437   3.482   5.317
 9944TIP3    H229776   0.577   3.535   5.300
 9945TIP3   OH229777   1.690   2.923   6.475
 9945TIP3    H129778   1.596   2.931   6.487
 9945TIP3    H229779   1.703   2.928   6.381
 9946TIP3   OH229780   7.293   2.547   1.812
 9946TIP3    H129781   7.260   2.478   1.755
 9946TIP3    H229782   7.386   2.555   1.789
 9947TIP3   OH229783   6.559   3.067   0.192
 9947TIP3    H129784   6.611   3.142   0.223
 9947TIP3    H229785   6.539   3.088   0.101
 9948TIP3   OH229786   3.044   0.715   3.157
 9948TIP3    H129787   2.983   0.704   3.083
 9948TIP3    H229788   3.012   0.653   3.223
 9949TIP3   OH229789   0.182   7.699   0.151
 9949TIP3    H129790   0.276   7.710   0.137
 9949TIP3    H229791   0.142   7.752   0.082
 9950TIP3   OH229792   3.597   7.776   0.689
 9950TIP3    H129793   3.633   7.839   0.752
 9950TIP3    H229794   3.668   7.715   0.673
 9951TIP3   OH229795   4.412   5.603   5.100
 9951TIP3    H129796   4.370   5.611   5.186
 9951TIP3    H229797   4.361   5.661   5.044
 9952TIP3   OH229798   3.672   3.011   3.167
 9952TIP3    H129799   3.699   3.059   3.089
 9952TIP3    H229800   3.644   3.080   3.228
 9953TIP3   OH229801   5.584   3.304   4.175
 9953TIP3    H129802   5.537   3.376   4.217
 9953TIP3    H229803   5.514   3.247   4.142
 9954TIP3   OH229804   7.085   7.015   1.829
 9954TIP3    H129805   7.044   6.929   1.821
 9954TIP3    H229806   7.074   7.039   1.921
 9955TIP3   OH229807   6.811   6.032   0.001
 9955TIP3    H129808   6.817   6.093   0.075
 9955TIP3    H229809   6.827   5.946   0.041
 9956TIP3   OH229810   2.833   1.519   3.115
 9956TIP3    H129811   2.841   1.531   3.020
 9956TIP3    H229812   2.842   1.424   3.128
 9957TIP3   OH229813   6.204   0.870   2.603
 9957TIP3    H129814   6.115   0.849   2.631
 9957TIP3    H229815   6.201   0.963   2.581
 9958TIP3   OH229816   7.451   0.163   4.055
 9958TIP3    H129817   7.415   0.078   4.030
 9958TIP3    H229818   7.493   0.196   3.975
 9959TIP3   OH229819   5.317   3.720   1.857
 9959TIP3    H129820   5.357   3.780   1.795
 9959TIP3    H229821   5.223   3.736   1.851
 9960TIP3   OH229822   3.956   0.491   4.981
 9960TIP3    H129823   3.969   0.585   4.967
 9960TIP3    H229824   3.878   0.486   5.036
 9961TIP3   OH229825   3.753   6.121   3.070
 9961TIP3    H129826   3.741   6.083   3.157
 9961TIP3    H229827   3.760   6.046   3.011
 9962TIP3   OH229828   5.787   4.701   1.454
 9962TIP3    H129829   5.700   4.740   1.463
 9962TIP3    H229830   5.798   4.688   1.359
 9963TIP3   OH229831   7.031   3.278   2.533
 9963TIP3    H129832   6.991   3.354   2.491
 9963TIP3    H229833   7.001   3.203   2.481
 9964TIP3   OH229834   5.788   0.479   4.158
 9964TIP3    H129835   5.744   0.403   4.196
 9964TIP3    H229836   5.718   0.535   4.126
 9965TIP3   OH229837   6.840   7.784   2.088
 9965TIP3    H129838   6.855   7.722   2.016
 9965TIP3    H229839   6.748   7.774   2.110
 9966TIP3   OH229840   6.151   4.277   1.153
 9966TIP3    H129841   6.166   4.250   1.243
 9966TIP3    H229842   6.091   4.352   1.160
 9967TIP3   OH229843   1.247   5.965   0.211
 9967TIP3    H129844   1.240   5.891   0.271
 9967TIP3    H229845   1.174   6.023   0.237
 9968TIP3   OH229846   2.085   7.518   1.107
 9968TIP3    H129847   2.153   7.583   1.123
 9968TIP3    H229848   2.066   7.480   1.193
 9969TIP3   OH229849   2.615   4.068   5.130
 9969TIP3    H129850   2.540   4.127   5.121
 9969TIP3    H229851   2.666   4.106   5.201
 9970TIP3   OH229852   4.911   7.732   3.039
 9970TIP3    H129853   4.923   7.827   3.043
 9970TIP3    H229854   4.909   7.712   2.945
 9971TIP3   OH229855   2.476   4.342   0.826
 9971TIP3    H129856   2.474   4.426   0.872
 9971TIP3    H229857   2.529   4.285   0.881
 9972TIP3   OH229858   4.493   7.448   0.849
 9972TIP3    H129859   4.466   7.455   0.758
 9972TIP3    H229860   4.568   7.387   0.847
 9973TIP3   OH229861   7.044   2.472   3.788
 9973TIP3    H129862   7.082   2.389   3.758
 9973TIP3    H229863   7.032   2.523   3.708
 9974TIP3   OH229864   6.770   5.009   6.532
 9974TIP3    H129865   6.756   4.952   6.608
 9974TIP3    H229866   6.831   5.076   6.563
 9975TIP3   OH229867   3.495   2.065   0.100
 9975TIP3    H129868   3.400   2.078   0.095
 9975TIP3    H229869   3.518   2.025   0.016
 9976TIP3   OH229870   5.264   3.057   4.025
 9976TIP3    H129871   5.277   3.140   3.979
 9976TIP3    H229872   5.351   3.032   4.055
 9977TIP3   OH229873   5.365   1.455   2.498
 9977TIP3    H129874   5.389   1.363   2.484
 9977TIP3    H229875   5.273   1.452   2.524
 9978TIP3   OH229876   3.465   4.257   3.740
 9978TIP3    H129877   3.374   4.227   3.753
 9978TIP3    H229878   3.474   4.333   3.798
 9979TIP3   OH229879   6.945   5.419   4.525
 9979TIP3    H129880   6.930   5.400   4.617
 9979TIP3    H229881   6.894   5.498   4.508
 9980TIP3   OH229882   5.829   3.538   5.033
 9980TIP3    H129883   5.836   3.630   5.059
 9980TIP3    H229884   5.874   3.534   4.948
 9981TIP3   OH229885   3.366   3.552   1.719
 9981TIP3    H129886   3.315   3.479   1.684
 9981TIP3    H229887   3.358   3.621   1.653
 9982TIP3   OH229888   8.125   4.841   4.326
 9982TIP3    H129889   8.214   4.842   4.290
 9982TIP3    H229890   8.076   4.903   4.272
 9983TIP3   OH229891   7.259   5.189   6.613
 9983TIP3    H129892   7.230   5.266   6.662
 9983TIP3    H229893   7.320   5.225   6.548
 9984TIP3   OH229894   0.686   2.827   5.581
 9984TIP3    H129895   0.594   2.840   5.602
 9984TIP3    H229896   0.724   2.790   5.660
 9985TIP3   OH229897   6.017   6.084   5.094
 9985TIP3    H129898   5.974   6.154   5.045
 9985TIP3    H229899   6.025   6.012   5.032
 9986TIP3   OH229900   5.868   3.766   4.171
 9986TIP3    H129901   5.881   3.764   4.076
 9986TIP3    H229902   5.815   3.688   4.190
 9987TIP3   OH229903   3.782   1.926   0.656
 9987TIP3    H129904   3.725   1.852   0.635
 9987TIP3    H229905   3.855   1.919   0.595
 9988TIP3   OH229906   4.267   2.247   6.017
 9988TIP3    H129907   4.290   2.164   6.057
 9988TIP3    H229908   4.209   2.224   5.944
 9989TIP3   OH229909   2.797   5.984   6.186
 9989TIP3    H129910   2.775   5.941   6.269
 9989TIP3    H229911   2.847   5.918   6.138
 9990TIP3   OH229912   0.459   6.355   4.068
 9990TIP3    H129913   0.488   6.353   3.976
 9990TIP3    H229914   0.531   6.315   4.117
 9991TIP3   OH229915   2.398   4.348   4.029
 9991TIP3    H129916   2.303   4.349   4.038
 9991TIP3    H229917   2.430   4.359   4.119
 9992TIP3   OH229918   4.098   3.252   5.975
 9992TIP3    H129919   4.068   3.334   5.935
 9992TIP3    H229920   4.029   3.230   6.037
 9993TIP3   OH229921   5.508   4.192   5.037
 9993TIP3    H129922   5.456   4.257   4.990
 9993TIP3    H229923   5.562   4.244   5.097
 9994TIP3   OH229924   1.415   6.034   0.509
 9994TIP3    H129925   1.475   6.028   0.434
 9994TIP3    H229926   1.436   6.119   0.549
 9995TIP3   OH229927   4.056   1.703   4.847
 9995TIP3    H129928   4.020   1.673   4.763
 9995TIP3    H229929   3.980   1.704   4.905
 9996TIP3   OH229930   1.504   5.055   1.484
 9996TIP3    H129931   1.472   5.018   1.566
 9996TIP3    H229932   1.591   5.017   1.472
 9997TIP3   OH229933   0.045   2.151   4.018
 9997TIP3    H129934   0.104   2.110   3.955
 9997TIP3    H229935  -0.011   2.208   3.965
 9998TIP3   OH229936   1.268   6.659   6.657
 9998TIP3    H129937   1.335   6.694   6.599
 9998TIP3    H229938   1.256   6.726   6.724
 9999TIP3   OH229939   6.390   1.234   4.918
 9999TIP3    H129940   6.297   1.234   4.894
 9999TIP3    H229941   6.423   1.317   4.885
10000TIP3   OH229942   4.548   5.926   5.829
10000TIP3    H129943   4.546   6.022   5.824
10000TIP3    H229944   4.457   5.900   5.827
10001TIP3   OH229945   0.165   7.036   0.123
10001TIP3    H129946   0.243   7.072   0.167
10001TIP3    H229947   0.092   7.087   0.158
10002TIP3   OH229948   7.142   7.377   0.108
10002TIP3    H129949   7.109   7.340   0.191
10002TIP3    H229950   7.157   7.300   0.053
10003TIP3   OH229951   2.297   1.240   2.045
10003TIP3    H129952   2.220   1.224   1.991
10003TIP3    H229953   2.268   1.221   2.134
10004TIP3   OH229954   6.831   4.536   6.163
10004TIP3    H129955   6.799   4.608   6.109
10004TIP3    H229956   6.919   4.517   6.128
10005TIP3   OH229957   7.242   6.579   3.898
10005TIP3    H129958   7.326   6.613   3.931
10005TIP3    H229959   7.228   6.498   3.948
10006TIP3   OH229960   6.923   5.021   1.502
10006TIP3    H129961   6.993   5.059   1.556
10006TIP3    H229962   6.910   4.933   1.538
10007TIP3   OH229963   4.649   2.555   2.428
10007TIP3    H129964   4.613   2.640   2.404
10007TIP3    H229965   4.574   2.495   2.426
10008TIP3   OH229966   2.585   0.236   5.911
10008TIP3    H129967   2.551   0.237   6.001
10008TIP3    H229968   2.632   0.318   5.902
10009TIP3   OH229969   0.973   6.660   1.228
10009TIP3    H129970   0.967   6.667   1.133
10009TIP3    H229971   1.062   6.630   1.244
10010TIP3   OH229972   2.384   3.935   5.745
10010TIP3    H129973   2.356   4.004   5.805
10010TIP3    H229974   2.332   3.947   5.666
10011TIP3   OH229975   1.244   1.271   3.222
10011TIP3    H129976   1.324   1.299   3.266
10011TIP3    H229977   1.179   1.266   3.291
10012TIP3   OH229978   6.450   6.676   4.888
10012TIP3    H129979   6.491   6.762   4.900
10012TIP3    H229980   6.356   6.695   4.887
10013TIP3   OH229981   7.525   2.782   2.704
10013TIP3    H129982   7.619   2.769   2.715
10013TIP3    H229983   7.516   2.876   2.687
10014TIP3   OH229984   5.714   1.076   3.918
10014TIP3    H129985   5.798   1.059   3.875
10014TIP3    H229986   5.650   1.027   3.866
10015TIP3   OH229987   5.756   7.499   2.552
10015TIP3    H129988   5.700   7.436   2.598
10015TIP3    H229989   5.839   7.452   2.540
10016TIP3   OH229990   6.402   6.308   3.849
10016TIP3    H129991   6.393   6.320   3.943
10016TIP3    H229992   6.333   6.245   3.826
10017TIP3   OH229993   3.163   3.875   1.650
10017TIP3    H129994   3.126   3.787   1.660
10017TIP3    H229995   3.224   3.884   1.723
10018TIP3   OH229996   0.961   4.497   5.187
10018TIP3    H129997   0.961   4.588   5.159
10018TIP3    H229998   0.941   4.501   5.281
10019TIP3   OH229999   6.091   6.863   2.064
10019TIP3    H130000   6.067   6.787   2.012
10019TIP3    H230001   6.141   6.918   2.005
10020TIP3   OH230002   2.208   6.944   5.091
10020TIP3    H130003   2.184   6.949   5.184
10020TIP3    H230004   2.303   6.931   5.092
10021TIP3   OH230005   2.439   3.770   1.663
10021TIP3    H130006   2.471   3.844   1.612
10021TIP3    H230007   2.344   3.780   1.664
10022TIP3   OH230008   1.857   0.870   6.773
10022TIP3    H130009   1.792   0.872   6.843
10022TIP3    H230010   1.814   0.821   6.702
10023TIP3   OH230011   3.640   6.848   3.089
10023TIP3    H130012   3.554   6.871   3.054
10023TIP3    H230013   3.653   6.907   3.163
10024TIP3   OH230014   6.146   7.617   3.751
10024TIP3    H130015   6.141   7.691   3.691
10024TIP3    H230016   6.196   7.650   3.826
10025TIP3   OH230017   1.512   0.954   1.479
10025TIP3    H130018   1.533   0.889   1.546
10025TIP3    H230019   1.475   1.027   1.528
10026TIP3   OH230020   7.503   7.374   4.191
10026TIP3    H130021   7.417   7.331   4.189
10026TIP3    H230022   7.484   7.466   4.209
10027TIP3   OH230023   6.286   2.839   6.624
10027TIP3    H130024   6.223   2.842   6.553
10027TIP3    H230025   6.293   2.746   6.646
10028TIP3   OH230026   0.473   3.982   5.617
10028TIP3    H130027   0.517   3.965   5.700
10028TIP3    H230028   0.419   3.905   5.602
10029TIP3   OH230029   3.510   0.225   6.002
10029TIP3    H130030   3.591   0.223   6.052
10029TIP3    H230031   3.519   0.301   5.944
10030TIP3   OH230032   5.349   7.675   3.601
10030TIP3    H130033   5.328   7.756   3.555
10030TIP3    H230034   5.291   7.675   3.677
10031TIP3   OH230035   0.362   1.820   1.215
10031TIP3    H130036   0.322   1.811   1.301
10031TIP3    H230037   0.289   1.817   1.153
10032TIP3   OH230038   6.856   1.724   6.661
10032TIP3    H130039   6.814   1.644   6.694
10032TIP3    H230040   6.948   1.701   6.652
10033TIP3   OH230041   1.645   7.267   5.978
10033TIP3    H130042   1.642   7.270   6.074
10033TIP3    H230043   1.707   7.197   5.958
10034TIP3   OH230044   7.453   6.262   2.292
10034TIP3    H130045   7.467   6.216   2.209
10034TIP3    H230046   7.362   6.243   2.314
10035TIP3   OH230047   4.445   4.585   1.840
10035TIP3    H130048   4.470   4.676   1.852
10035TIP3    H230049   4.359   4.588   1.800
10036TIP3   OH230050   4.961   1.621   6.483
10036TIP3    H130051   4.990   1.549   6.427
10036TIP3    H230052   4.873   1.643   6.451
10037TIP3   OH230053   7.156   6.627   1.070
10037TIP3    H130054   7.127   6.659   1.155
10037TIP3    H230055   7.249   6.609   1.082
10038TIP3   OH230056   4.228   1.039   2.954
10038TIP3    H130057   4.215   0.994   3.037
10038TIP3    H230058   4.188   0.982   2.889
10039TIP3   OH230059   2.964   5.861   3.337
10039TIP3    H130060   3.018   5.880   3.261
10039TIP3    H230061   2.929   5.774   3.321
10040TIP3   OH230062   5.064   4.075   4.244
10040TIP3    H130063   5.122   4.082   4.319
10040TIP3    H230064   5.060   3.982   4.224
10041TIP3   OH230065   2.198   3.223   4.710
10041TIP3    H130066   2.137   3.150   4.718
10041TIP3    H230067   2.166   3.288   4.772
10042TIP3   OH230068   5.378   2.589   3.170
10042TIP3    H130069   5.421   2.554   3.249
10042TIP3    H230070   5.438   2.568   3.099
10043TIP3   OH230071   2.447   0.483   6.672
10043TIP3    H130072   2.382   0.434   6.622
10043TIP3    H230073   2.397   0.551   6.717
10044TIP3   OH230074   4.961   6.557   6.308
10044TIP3    H130075   5.042   6.592   6.272
10044TIP3    H230076   4.942   6.613   6.384
10045TIP3   OH230077   0.998   2.103   2.426
10045TIP3    H130078   0.904   2.113   2.414
10045TIP3    H230079   1.037   2.149   2.352
10046TIP3   OH230080   6.430   4.005   5.428
10046TIP3    H130081   6.441   4.090   5.385
10046TIP3    H230082   6.504   3.998   5.487
10047TIP3   OH230083   4.199   0.025   3.970
10047TIP3    H130084   4.224   0.102   3.918
10047TIP3    H230085   4.206   0.055   4.061
10048TIP3   OH230086   1.201   1.097   2.129
10048TIP3    H130087   1.213   1.142   2.045
10048TIP3    H230088   1.204   1.004   2.107
10049TIP3   OH230089   5.909   4.507   5.091
10049TIP3    H130090   5.991   4.482   5.048
10049TIP3    H230091   5.935   4.575   5.154
10050TIP3   OH230092   2.150   4.879   1.132
10050TIP3    H130093   2.151   4.975   1.124
10050TIP3    H230094   2.225   4.859   1.189
10051TIP3   OH230095   6.389   5.598   5.098
10051TIP3    H130096   6.397   5.505   5.077
10051TIP3    H230097   6.472   5.636   5.069
10052TIP3   OH230098   1.230   2.080   3.619
10052TIP3    H130099   1.315   2.037   3.607
10052TIP3    H230100   1.178   2.016   3.667
10053TIP3   OH230101   7.670   2.864   1.238
10053TIP3    H130102   7.740   2.838   1.179
10053TIP3    H230103   7.715   2.911   1.309
10054TIP3   OH230104   4.342   6.438   1.040
10054TIP3    H130105   4.318   6.529   1.054
10054TIP3    H230106   4.297   6.413   0.959
10055TIP3   OH230107   6.812   1.632   6.122
10055TIP3    H130108   6.892   1.681   6.105
10055TIP3    H230109   6.785   1.660   6.209
10056TIP3   OH230110   2.797   4.325   2.230
10056TIP3    H130111   2.851   4.404   2.227
10056TIP3    H230112   2.850   4.262   2.278
10057TIP3   OH230113   4.560   6.213   5.753
10057TIP3    H130114   4.593   6.272   5.822
10057TIP3    H230115   4.598   6.247   5.672
10058TIP3   OH230116   3.071   7.485   3.612
10058TIP3    H130117   3.015   7.535   3.553
10058TIP3    H230118   3.039   7.395   3.603
10059TIP3   OH230119   4.569   6.709   4.108
10059TIP3    H130120   4.603   6.723   4.196
10059TIP3    H230121   4.564   6.614   4.099
10060TIP3   OH230122   3.792   7.453   5.625
10060TIP3    H130123   3.720   7.510   5.652
10060TIP3    H230124   3.786   7.452   5.529
10061TIP3   OH230125   5.760   4.163   5.981
10061TIP3    H130126   5.726   4.251   6.000
10061TIP3    H230127   5.802   4.136   6.063
10062TIP3   OH230128   8.175   3.932   2.340
10062TIP3    H130129   8.264   3.939   2.374
10062TIP3    H230130   8.123   3.903   2.414
10063TIP3   OH230131   2.327   1.236   6.378
10063TIP3    H130132   2.233   1.247   6.391
10063TIP3    H230133   2.335   1.186   6.297
10064TIP3   OH230134   4.615   3.736   3.506
10064TIP3    H130135   4.569   3.765   3.585
10064TIP3    H230136   4.558   3.669   3.469
10065TIP3   OH230137   0.522   6.211   0.992
10065TIP3    H130138   0.607   6.253   1.003
10065TIP3    H230139   0.468   6.277   0.948
10066TIP3   OH230140   0.913   2.592   6.416
10066TIP3    H130141   0.974   2.571   6.345
10066TIP3    H230142   0.875   2.676   6.392
10067TIP3   OH230143   2.963   6.469   2.657
10067TIP3    H130144   2.990   6.561   2.659
10067TIP3    H230145   2.913   6.460   2.576
10068TIP3   OH230146   2.096   5.098   2.745
10068TIP3    H130147   2.036   5.033   2.708
10068TIP3    H230148   2.085   5.090   2.840
10069TIP3   OH230149   4.724   7.623   6.813
10069TIP3    H130150   4.785   7.655   6.746
10069TIP3    H230151   4.646   7.678   6.802
10070TIP3   OH230152   7.033   3.864   2.875
10070TIP3    H130153   7.116   3.897   2.909
10070TIP3    H230154   6.998   3.810   2.946
10071TIP3   OH230155   1.217   3.200   6.613
10071TIP3    H130156   1.131   3.169   6.643
10071TIP3    H230157   1.240   3.270   6.674
10072TIP3   OH230158   7.453   0.130   0.874
10072TIP3    H130159   7.423   0.127   0.964
10072TIP3    H230160   7.392   0.190   0.830
10073TIP3   OH230161   4.212   5.454   1.398
10073TIP3    H130162   4.276   5.525   1.398
10073TIP3    H230163   4.255   5.382   1.353
10074TIP3   OH230164   4.345   1.961   3.579
10074TIP3    H130165   4.297   1.928   3.655
10074TIP3    H230166   4.436   1.937   3.596
10075TIP3   OH230167   8.259   6.327   4.704
10075TIP3    H130168   8.319   6.392   4.740
10075TIP3    H230169   8.197   6.378   4.652
10076TIP3   OH230170   7.229   6.208   1.365
10076TIP3    H130171   7.314   6.217   1.323
10076TIP3    H230172   7.167   6.249   1.304
10077TIP3   OH230173   2.559   6.852   0.786
10077TIP3    H130174   2.634   6.907   0.769
10077TIP3    H230175   2.547   6.856   0.881
10078TIP3   OH230176   1.498   6.563   2.643
10078TIP3    H130177   1.552   6.619   2.587
10078TIP3    H230178   1.503   6.603   2.730
10079TIP3   OH230179   0.690   3.574   4.391
10079TIP3    H130180   0.770   3.555   4.440
10079TIP3    H230181   0.627   3.601   4.458
10080TIP3   OH230182   7.472   7.740   5.697
10080TIP3    H130183   7.415   7.817   5.694
10080TIP3    H230184   7.529   7.755   5.772
10081TIP3   OH230185   8.180   3.165   6.018
10081TIP3    H130186   8.253   3.119   5.978
10081TIP3    H230187   8.154   3.231   5.953
10082TIP3   OH230188   3.188   4.447   1.668
10082TIP3    H130189   3.199   4.526   1.614
10082TIP3    H230190   3.111   4.404   1.632
10083TIP3   OH230191   0.785   6.731   4.093
10083TIP3    H130192   0.820   6.660   4.039
10083TIP3    H230193   0.753   6.795   4.029
10084TIP3   OH230194   4.881   4.812   6.238
10084TIP3    H130195   4.964   4.793   6.281
10084TIP3    H230196   4.853   4.727   6.202
10085TIP3   OH230197   3.584   3.236   5.309
10085TIP3    H130198   3.608   3.223   5.217
10085TIP3    H230199   3.490   3.221   5.312
10086TIP3   OH230200   1.818   3.085   1.936
10086TIP3    H130201   1.873   3.143   1.988
10086TIP3    H230202   1.811   3.006   1.989
10087TIP3   OH230203   4.332   6.776   4.650
10087TIP3    H130204   4.292   6.808   4.569
10087TIP3    H230205   4.288   6.825   4.719
10088TIP3   OH230206   5.149   4.351   5.746
10088TIP3    H130207   5.237   4.372   5.713
10088TIP3    H230208   5.092   4.413   5.700
10089TIP3   OH230209   4.545   2.602   1.800
10089TIP3    H130210   4.504   2.677   1.756
10089TIP3    H230211   4.630   2.635   1.829
10090TIP3   OH230212   5.673   6.928   6.403
10090TIP3    H130213   5.706   6.917   6.314
10090TIP3    H230214   5.748   6.904   6.459
10091TIP3   OH230215   5.121   6.454   4.493
10091TIP3    H130216   5.199   6.490   4.453
10091TIP3    H230217   5.057   6.525   4.491
10092TIP3   OH230218   5.480   5.378   0.677
10092TIP3    H130219   5.443   5.432   0.747
10092TIP3    H230220   5.433   5.406   0.598
10093TIP3   OH230221   1.644   1.426   6.293
10093TIP3    H130222   1.731   1.435   6.255
10093TIP3    H230223   1.636   1.333   6.314
10094TIP3   OH230224   1.437   2.988   6.750
10094TIP3    H130225   1.389   2.984   6.667
10094TIP3    H230226   1.496   3.062   6.740
10095TIP3   OH230227   2.071   3.204   0.193
10095TIP3    H130228   2.001   3.241   0.246
10095TIP3    H230229   2.137   3.176   0.257
10096TIP3   OH230230   0.916   5.102   5.197
10096TIP3    H130231   0.848   5.126   5.260
10096TIP3    H230232   0.870   5.094   5.114
10097TIP3   OH230233   4.863   1.862   0.785
10097TIP3    H130234   4.864   1.862   0.690
10097TIP3    H230235   4.806   1.789   0.809
10098TIP3   OH230236   2.455   5.896   5.731
10098TIP3    H130237   2.525   5.943   5.777
10098TIP3    H230238   2.489   5.808   5.717
10099TIP3   OH230239   3.105   4.702   6.167
10099TIP3    H130240   3.019   4.683   6.128
10099TIP3    H230241   3.088   4.774   6.227
10100TIP3   OH230242   1.965   3.680   2.369
10100TIP3    H130243   2.012   3.615   2.316
10100TIP3    H230244   2.019   3.691   2.447
10101TIP3   OH230245   4.016   5.016   5.618
10101TIP3    H130246   3.991   5.073   5.545
10101TIP3    H230247   3.945   4.952   5.624
10102TIP3   OH230248   2.733   7.237   3.415
10102TIP3    H130249   2.736   7.144   3.394
10102TIP3    H230250   2.719   7.281   3.331
10103TIP3   OH230251   4.919   5.832   5.758
10103TIP3    H130252   4.951   5.921   5.746
10103TIP3    H230253   4.996   5.776   5.745
10104TIP3   OH230254   1.854   7.277   4.700
10104TIP3    H130255   1.911   7.336   4.749
10104TIP3    H230256   1.766   7.308   4.718
10105TIP3   OH230257   3.512   5.343   4.884
10105TIP3    H130258   3.484   5.405   4.952
10105TIP3    H230259   3.599   5.315   4.911
10106TIP3   OH230260   7.892   6.803   0.618
10106TIP3    H130261   7.890   6.829   0.710
10106TIP3    H230262   7.984   6.781   0.601
10107TIP3   OH230263   3.532   1.309   1.478
10107TIP3    H130264   3.621   1.279   1.462
10107TIP3    H230265   3.540   1.403   1.491
10108TIP3   OH230266   1.725   2.164   5.526
10108TIP3    H130267   1.656   2.099   5.539
10108TIP3    H230268   1.716   2.190   5.434
10109TIP3   OH230269   8.263   1.606   3.886
10109TIP3    H130270   8.221   1.688   3.861
10109TIP3    H230271   8.280   1.615   3.980
10110TIP3   OH230272   8.313   3.170   5.644
10110TIP3    H130273   8.310   3.264   5.629
10110TIP3    H230274   8.233   3.151   5.693
10111TIP3   OH230275   7.057   1.097   3.429
10111TIP3    H130276   6.976   1.070   3.386
10111TIP3    H230277   7.051   1.061   3.517
10112TIP3   OH230278   2.521   2.425   2.373
10112TIP3    H130279   2.544   2.357   2.436
10112TIP3    H230280   2.602   2.443   2.326
10113TIP3   OH230281   3.880   1.025   0.304
10113TIP3    H130282   3.790   1.054   0.315
10113TIP3    H230283   3.925   1.052   0.384
10114TIP3   OH230284   5.645   6.005   6.379
10114TIP3    H130285   5.692   5.957   6.447
10114TIP3    H230286   5.606   5.937   6.324
10115TIP3   OH230287   7.461   6.671   4.773
10115TIP3    H130288   7.473   6.578   4.795
10115TIP3    H230289   7.423   6.669   4.685
10116TIP3   OH230290   7.659   3.434   5.531
10116TIP3    H130291   7.744   3.438   5.574
10116TIP3    H230292   7.597   3.465   5.597
10117TIP3   OH230293   2.228   7.361   3.059
10117TIP3    H130294   2.158   7.328   3.003
10117TIP3    H230295   2.193   7.354   3.148
10118TIP3   OH230296   4.154   1.263   4.885
10118TIP3    H130297   4.112   1.188   4.841
10118TIP3    H230298   4.088   1.295   4.946
10119TIP3   OH230299   1.687   1.972   2.165
10119TIP3    H130300   1.702   1.975   2.071
10119TIP3    H230301   1.600   1.934   2.175
10120TIP3   OH230302   3.149   2.179   6.335
10120TIP3    H130303   3.197   2.103   6.368
10120TIP3    H230304   3.127   2.228   6.414
10121TIP3   OH230305   2.346   4.783   0.740
10121TIP3    H130306   2.368   4.820   0.825
10121TIP3    H230307   2.358   4.688   0.752
10122TIP3   OH230308   3.172   3.155   3.460
10122TIP3    H130309   3.187   3.213   3.385
10122TIP3    H230310   3.187   3.067   3.426
10123TIP3   OH230311   6.093   2.337   5.679
10123TIP3    H130312   6.015   2.392   5.674
10123TIP3    H230313   6.121   2.342   5.770
10124TIP3   OH230314   3.679   4.980   5.311
10124TIP3    H130315   3.754   5.034   5.337
10124TIP3    H230316   3.719   4.902   5.273
10125TIP3   OH230317   6.073   3.195   5.849
10125TIP3    H130318   5.987   3.202   5.889
10125TIP3    H230319   6.115   3.123   5.896
10126TIP3   OH230320   7.087   2.902   6.424
10126TIP3    H130321   7.017   2.844   6.454
10126TIP3    H230322   7.150   2.843   6.382
10127TIP3   OH230323   6.976   4.204   2.075
10127TIP3    H130324   6.941   4.265   2.140
10127TIP3    H230325   7.066   4.234   2.060
10128TIP3   OH230326   3.955   5.396   6.734
10128TIP3    H130327   3.932   5.305   6.754
10128TIP3    H230328   3.874   5.445   6.747
10129TIP3   OH230329   5.071   0.570   3.281
10129TIP3    H130330   5.129   0.619   3.340
10129TIP3    H230331   5.030   0.505   3.338
10130TIP3   OH230332   3.147   7.029   5.753
10130TIP3    H130333   3.203   7.102   5.777
10130TIP3    H230334   3.116   7.050   5.665
10131TIP3   OH230335   2.510   0.445   0.180
10131TIP3    H130336   2.414   0.446   0.177
10131TIP3    H230337   2.533   0.359   0.214
10132TIP3   OH230338   7.451   5.273   1.470
10132TIP3    H130339   7.388   5.201   1.476
10132TIP3    H230340   7.534   5.231   1.450
10133TIP3   OH230341   6.583   3.412   3.097
10133TIP3    H130342   6.569   3.349   3.026
10133TIP3    H230343   6.669   3.450   3.079
10134TIP3   OH230344   4.085   1.106   0.466
10134TIP3    H130345   4.155   1.159   0.429
10134TIP3    H230346   4.123   1.019   0.475
10135TIP3   OH230347   5.911   6.041   4.595
10135TIP3    H130348   5.849   5.997   4.537
10135TIP3    H230349   5.996   6.002   4.576
10136TIP3   OH230350   1.353   7.297   3.859
10136TIP3    H130351   1.396   7.350   3.926
10136TIP3    H230352   1.410   7.302   3.783
10137TIP3   OH230353   2.060   4.521   5.648
10137TIP3    H130354   2.150   4.490   5.637
10137TIP3    H230355   2.006   4.453   5.607
10138TIP3   OH230356   1.402   3.477   6.301
10138TIP3    H130357   1.469   3.545   6.295
10138TIP3    H230358   1.450   3.400   6.332
10139TIP3   OH230359   7.592   7.484   0.502
10139TIP3    H130360   7.651   7.537   0.554
10139TIP3    H230361   7.530   7.448   0.566
10140TIP3   OH230362   1.855   0.122   2.709
10140TIP3    H130363   1.864   0.174   2.630
10140TIP3    H230364   1.875   0.033   2.682
10141TIP3   OH230365   3.031   7.700   4.042
10141TIP3    H130366   3.057   7.769   3.981
10141TIP3    H230367   3.058   7.732   4.128
10142TIP3   OH230368   6.310   5.319   0.180
10142TIP3    H130369   6.242   5.276   0.128
10142TIP3    H230370   6.274   5.405   0.201
10143TIP3   OH230371   0.519   5.555   5.347
10143TIP3    H130372   0.527   5.476   5.294
10143TIP3    H230373   0.609   5.574   5.375
10144TIP3   OH230374   7.150   3.785   2.644
10144TIP3    H130375   7.102   3.809   2.723
10144TIP3    H230376   7.161   3.868   2.597
10145TIP3   OH230377   0.218   6.781   4.569
10145TIP3    H130378   0.143   6.839   4.554
10145TIP3    H230379   0.270   6.826   4.635
10146TIP3   OH230380   5.755   3.893   0.231
10146TIP3    H130381   5.718   3.811   0.263
10146TIP3    H230382   5.763   3.880   0.136
10147TIP3   OH230383   6.691   3.596   1.837
10147TIP3    H130384   6.714   3.570   1.748
10147TIP3    H230385   6.623   3.534   1.864
10148TIP3   OH230386   5.923   0.636   6.456
10148TIP3    H130387   5.908   0.617   6.364
10148TIP3    H230388   5.837   0.662   6.490
10149TIP3   OH230389   0.161   1.488   4.803
10149TIP3    H130390   0.087   1.505   4.861
10149TIP3    H230391   0.217   1.429   4.853
10150TIP3   OH230392   3.436   3.113   5.647
10150TIP3    H130393   3.394   3.157   5.574
10150TIP3    H230394   3.515   3.164   5.664
10151TIP3   OH230395   7.102   5.345   1.623
10151TIP3    H130396   7.140   5.359   1.537
10151TIP3    H230397   7.104   5.250   1.635
10152TIP3   OH230398   3.623   5.504   3.882
10152TIP3    H130399   3.614   5.473   3.972
10152TIP3    H230400   3.550   5.565   3.870
10153TIP3   OH230401   6.782   3.746   5.421
10153TIP3    H130402   6.715   3.687   5.387
10153TIP3    H230403   6.833   3.771   5.344
10154TIP3   OH230404   2.067   3.118   2.054
10154TIP3    H130405   2.080   3.192   1.995
10154TIP3    H230406   2.105   3.146   2.137
10155TIP3   OH230407   5.997   6.532   5.671
10155TIP3    H130408   6.069   6.540   5.608
10155TIP3    H230409   5.925   6.494   5.620
10156TIP3   OH230410   2.722   0.904   3.146
10156TIP3    H130411   2.725   0.935   3.055
10156TIP3    H230412   2.665   0.966   3.191
10157TIP3   OH230413   5.316   2.733   6.237
10157TIP3    H130414   5.347   2.774   6.318
10157TIP3    H230415   5.325   2.639   6.253
10158TIP3   OH230416   3.409   4.840   0.761
10158TIP3    H130417   3.481   4.844   0.825
10158TIP3    H230418   3.330   4.847   0.813
10159TIP3   OH230419   6.369   1.928   2.689
10159TIP3    H130420   6.343   1.853   2.636
10159TIP3    H230421   6.464   1.918   2.699
10160TIP3   OH230422   7.110   0.196   2.271
10160TIP3    H130423   7.078   0.271   2.221
10160TIP3    H230424   7.140   0.233   2.354
10161TIP3   OH230425   0.047   2.444   1.717
10161TIP3    H130426   0.050   2.527   1.669
10161TIP3    H230427  -0.004   2.463   1.796
10162TIP3   OH230428   1.955   6.765   2.030
10162TIP3    H130429   1.951   6.675   2.062
10162TIP3    H230430   2.030   6.767   1.972
10163TIP3   OH230431   2.540   4.104   0.957
10163TIP3    H130432   2.455   4.078   0.923
10163TIP3    H230433   2.523   4.131   1.047
10164TIP3   OH230434   5.167   5.622   0.164
10164TIP3    H130435   5.155   5.703   0.214
10164TIP3    H230436   5.191   5.651   0.076
10165TIP3   OH230437   1.600   4.239   1.708
10165TIP3    H130438   1.535   4.284   1.655
10165TIP3    H230439   1.587   4.146   1.689
10166TIP3   OH230440   1.110   2.593   3.331
10166TIP3    H130441   1.034   2.621   3.281
10166TIP3    H230442   1.111   2.497   3.322
10167TIP3   OH230443   3.444   1.676   1.802
10167TIP3    H130444   3.417   1.667   1.893
10167TIP3    H230445   3.511   1.609   1.790
10168TIP3   OH230446   3.391   0.529   5.934
10168TIP3    H130447   3.336   0.544   5.856
10168TIP3    H230448   3.477   0.508   5.898
10169TIP3   OH230449   6.688   5.674   2.764
10169TIP3    H130450   6.619   5.633   2.712
10169TIP3    H230451   6.677   5.768   2.749
10170TIP3   OH230452   7.666   2.729   5.463
10170TIP3    H130453   7.731   2.666   5.432
10170TIP3    H230454   7.631   2.768   5.384
10171TIP3   OH230455   4.138   4.612   5.959
10171TIP3    H130456   4.078   4.632   6.030
10171TIP3    H230457   4.123   4.681   5.895
10172TIP3   OH230458   1.531   2.365   2.639
10172TIP3    H130459   1.478   2.337   2.564
10172TIP3    H230460   1.569   2.448   2.612
10173TIP3   OH230461   0.487   0.149   5.675
10173TIP3    H130462   0.574   0.109   5.684
10173TIP3    H230463   0.464   0.176   5.763
10174TIP3   OH230464   0.149   0.663   1.040
10174TIP3    H130465   0.199   0.673   0.959
10174TIP3    H230466   0.059   0.683   1.014
10175TIP3   OH230467   3.857   2.980   4.313
10175TIP3    H130468   3.832   3.045   4.378
10175TIP3    H230469   3.935   3.016   4.271
10176TIP3   OH230470   0.140   5.296   2.238
10176TIP3    H130471   0.119   5.268   2.327
10176TIP3    H230472   0.099   5.382   2.229
10177TIP3   OH230473   7.983   2.031   0.485
10177TIP3    H130474   8.021   1.943   0.479
10177TIP3    H230475   8.037   2.085   0.428
10178TIP3   OH230476   3.999   3.335   3.672
10178TIP3    H130477   3.955   3.407   3.718
10178TIP3    H230478   4.079   3.374   3.638
10179TIP3   OH230479   2.065   1.242   1.828
10179TIP3    H130480   2.029   1.238   1.917
10179TIP3    H230481   2.004   1.191   1.775
10180TIP3   OH230482   5.719   6.395   2.520
10180TIP3    H130483   5.680   6.331   2.460
10180TIP3    H230484   5.805   6.413   2.482
10181TIP3   OH230485   6.890   2.773   3.276
10181TIP3    H130486   6.796   2.760   3.290
10181TIP3    H230487   6.913   2.708   3.209
10182TIP3   OH230488   1.138   1.540   4.651
10182TIP3    H130489   1.081   1.577   4.584
10182TIP3    H230490   1.079   1.512   4.721
10183TIP3   OH230491   4.856   1.971   4.942
10183TIP3    H130492   4.778   1.931   4.904
10183TIP3    H230493   4.929   1.926   4.901
10184TIP3   OH230494   5.899   7.589   0.904
10184TIP3    H130495   5.865   7.527   0.969
10184TIP3    H230496   5.941   7.657   0.957
10185TIP3   OH230497   4.102   0.487   2.586
10185TIP3    H130498   4.121   0.439   2.506
10185TIP3    H230499   4.041   0.556   2.560
10186TIP3   OH230500   3.553   3.331   5.787
10186TIP3    H130501   3.524   3.373   5.868
10186TIP3    H230502   3.615   3.394   5.749
10187TIP3   OH230503   7.494   7.736   1.221
10187TIP3    H130504   7.549   7.799   1.174
10187TIP3    H230505   7.526   7.651   1.191
10188TIP3   OH230506   1.821   3.922   3.443
10188TIP3    H130507   1.796   3.837   3.480
10188TIP3    H230508   1.901   3.904   3.394
10189TIP3   OH230509   2.337   4.140   0.239
10189TIP3    H130510   2.349   4.117   0.147
10189TIP3    H230511   2.294   4.064   0.278
10190TIP3   OH230512   3.702   3.254   5.037
10190TIP3    H130513   3.690   3.167   5.000
10190TIP3    H230514   3.754   3.239   5.116
10191TIP3   OH230515   2.131   7.267   6.574
10191TIP3    H130516   2.208   7.211   6.565
10191TIP3    H230517   2.133   7.322   6.496
10192TIP3   OH230518   5.097   1.644   3.825
10192TIP3    H130519   5.025   1.623   3.884
10192TIP3    H230520   5.099   1.740   3.823
10193TIP3   OH230521   0.262   2.712   5.112
10193TIP3    H130522   0.201   2.775   5.073
10193TIP3    H230523   0.322   2.690   5.040
10194TIP3   OH230524   6.453   3.496   2.110
10194TIP3    H130525   6.494   3.443   2.041
10194TIP3    H230526   6.380   3.540   2.066
10195TIP3   OH230527   6.170   1.228   0.235
10195TIP3    H130528   6.079   1.256   0.232
10195TIP3    H230529   6.206   1.271   0.313
10196TIP3   OH230530   0.076   4.187   3.175
10196TIP3    H130531   0.112   4.276   3.180
10196TIP3    H230532   0.054   4.176   3.082
10197TIP3   OH230533   5.119   1.203   0.907
10197TIP3    H130534   5.131   1.109   0.919
10197TIP3    H230535   5.121   1.239   0.996
10198TIP3   OH230536   5.898   2.825   6.625
10198TIP3    H130537   5.942   2.784   6.699
10198TIP3    H230538   5.881   2.753   6.564
10199TIP3   OH230539   8.028   1.850   3.356
10199TIP3    H130540   8.104   1.792   3.352
10199TIP3    H230541   7.955   1.795   3.327
10200TIP3   OH230542   7.510   5.731   3.002
10200TIP3    H130543   7.492   5.825   3.007
10200TIP3    H230544   7.483   5.705   2.914
10201TIP3   OH230545   3.995   2.573   0.374
10201TIP3    H130546   3.971   2.481   0.383
10201TIP3    H230547   4.079   2.572   0.329
10202TIP3   OH230548   1.620   3.668   5.393
10202TIP3    H130549   1.533   3.636   5.369
10202TIP3    H230550   1.680   3.622   5.335
10203TIP3   OH230551   7.056   5.092   2.409
10203TIP3    H130552   7.005   5.139   2.343
10203TIP3    H230553   6.992   5.052   2.467
10204TIP3   OH230554   8.180   2.663   5.058
10204TIP3    H130555   8.200   2.632   4.970
10204TIP3    H230556   8.180   2.758   5.051
10205TIP3   OH230557   0.318   6.479   3.161
10205TIP3    H130558   0.224   6.466   3.167
10205TIP3    H230559   0.342   6.521   3.244
10206TIP3   OH230560   5.864   6.459   6.269
10206TIP3    H130561   5.879   6.372   6.232
10206TIP3    H230562   5.778   6.453   6.309
10207TIP3   OH230563   1.332   0.505   3.706
10207TIP3    H130564   1.310   0.524   3.797
10207TIP3    H230565   1.325   0.589   3.661
10208TIP3   OH230566   4.381   7.730   2.694
10208TIP3    H130567   4.370   7.732   2.599
10208TIP3    H230568   4.295   7.706   2.727
10209TIP3   OH230569   3.708   4.583   0.674
10209TIP3    H130570   3.785   4.612   0.722
10209TIP3    H230571   3.647   4.657   0.679
10210TIP3   OH230572   8.009   4.826   4.583
10210TIP3    H130573   8.058   4.844   4.502
10210TIP3    H230574   7.967   4.909   4.605
10211TIP3   OH230575   1.087   2.367   4.265
10211TIP3    H130576   1.051   2.279   4.265
10211TIP3    H230577   1.035   2.415   4.330
10212TIP3   OH230578   4.732   5.645   2.246
10212TIP3    H130579   4.746   5.740   2.243
10212TIP3    H230580   4.736   5.617   2.154
10213TIP3   OH230581   0.668   1.651   1.385
10213TIP3    H130582   0.722   1.610   1.317
10213TIP3    H230583   0.619   1.719   1.339
10214TIP3   OH230584   1.432   3.800   6.270
10214TIP3    H130585   1.388   3.857   6.334
10214TIP3    H230586   1.500   3.756   6.320
10215TIP3   OH230587   5.826   0.643   0.975
10215TIP3    H130588   5.786   0.668   0.892
10215TIP3    H230589   5.903   0.591   0.950
10216TIP3   OH230590   2.444   0.569   2.379
10216TIP3    H130591   2.452   0.490   2.325
10216TIP3    H230592   2.390   0.541   2.453
10217TIP3   OH230593   3.925   0.432   5.955
10217TIP3    H130594   3.902   0.491   6.026
10217TIP3    H230595   4.020   0.440   5.946
10218TIP3   OH230596   3.441   1.152   4.896
10218TIP3    H130597   3.398   1.067   4.897
10218TIP3    H230598   3.372   1.214   4.872
10219TIP3   OH230599   0.907   0.738   2.450
10219TIP3    H130600   1.001   0.741   2.432
10219TIP3    H230601   0.871   0.811   2.399
10220TIP3   OH230602   6.843   5.926   1.735
10220TIP3    H130603   6.890   5.970   1.806
10220TIP3    H230604   6.809   5.997   1.681
10221TIP3   OH230605   6.729   7.430   2.262
10221TIP3    H130606   6.680   7.348   2.256
10221TIP3    H230607   6.730   7.451   2.355
10222TIP3   OH230608   2.065   1.051   0.540
10222TIP3    H130609   2.155   1.031   0.515
10222TIP3    H230610   2.052   1.141   0.512
10223TIP3   OH230611   3.370   5.787   0.863
10223TIP3    H130612   3.430   5.734   0.916
10223TIP3    H230613   3.337   5.727   0.796
10224TIP3   OH230614   5.027   2.366   4.283
10224TIP3    H130615   4.943   2.330   4.312
10224TIP3    H230616   5.083   2.359   4.360
10225TIP3   OH230617   7.717   6.941   4.565
10225TIP3    H130618   7.647   6.963   4.626
10225TIP3    H230619   7.697   6.992   4.486
10226TIP3   OH230620   7.197   5.024   5.336
10226TIP3    H130621   7.141   5.049   5.410
10226TIP3    H230622   7.136   5.015   5.263
10227TIP3   OH230623   8.053   4.425   6.109
10227TIP3    H130624   8.032   4.493   6.044
10227TIP3    H230625   8.032   4.343   6.064
10228TIP3   OH230626   5.350   5.243   2.754
10228TIP3    H130627   5.320   5.316   2.700
10228TIP3    H230628   5.346   5.167   2.696
10229TIP3   OH230629   4.750   4.446   2.051
10229TIP3    H130630   4.706   4.419   2.131
10229TIP3    H230631   4.727   4.378   1.987
10230TIP3   OH230632   3.551   3.954   1.726
10230TIP3    H130633   3.510   3.964   1.640
10230TIP3    H230634   3.484   3.985   1.787
10231TIP3   OH230635   4.317   2.279   6.324
10231TIP3    H130636   4.332   2.355   6.268
10231TIP3    H230637   4.239   2.301   6.374
10232TIP3   OH230638   0.167   6.692   1.531
10232TIP3    H130639   0.226   6.616   1.531
10232TIP3    H230640   0.225   6.767   1.546
10233TIP3   OH230641   6.351   4.516   4.477
10233TIP3    H130642   6.289   4.465   4.425
10233TIP3    H230643   6.387   4.580   4.415
10234TIP3   OH230644   5.544   3.246   5.298
10234TIP3    H130645   5.565   3.277   5.210
10234TIP3    H230646   5.623   3.262   5.349
10235TIP3   OH230647   1.916   3.582   0.933
10235TIP3    H130648   1.841   3.565   0.989
10235TIP3    H230649   1.985   3.525   0.968
10236TIP3   OH230650   8.281   7.385   3.900
10236TIP3    H130651   8.328   7.460   3.935
10236TIP3    H230652   8.199   7.421   3.866
10237TIP3   OH230653   0.113   2.130   5.543
10237TIP3    H130654   0.101   2.044   5.503
10237TIP3    H230655   0.123   2.112   5.637
10238TIP3   OH230656   1.277   2.394   0.966
10238TIP3    H130657   1.360   2.370   0.925
10238TIP3    H230658   1.219   2.414   0.892
10239TIP3   OH230659   7.632   0.555   1.857
10239TIP3    H130660   7.720   0.570   1.892
10239TIP3    H230661   7.638   0.470   1.813
10240TIP3   OH230662   7.576   5.899   4.875
10240TIP3    H130663   7.597   5.806   4.885
10240TIP3    H230664   7.661   5.943   4.884
10241TIP3   OH230665   3.683   0.154   3.449
10241TIP3    H130666   3.663   0.168   3.542
10241TIP3    H230667   3.766   0.200   3.435
10242TIP3   OH230668   2.758   0.254   2.569
10242TIP3    H130669   2.750   0.348   2.588
10242TIP3    H230670   2.839   0.247   2.518
10243TIP3   OH230671   4.041   0.958   1.353
10243TIP3    H130672   4.064   1.044   1.387
10243TIP3    H230673   3.964   0.932   1.404
10244TIP3   OH230674   5.485   0.981   4.163
10244TIP3    H130675   5.457   1.059   4.210
10244TIP3    H230676   5.509   0.919   4.231
10245TIP3   OH230677   2.556   2.732   4.175
10245TIP3    H130678   2.469   2.717   4.211
10245TIP3    H230679   2.574   2.653   4.123
10246TIP3   OH230680   4.933   5.960   3.227
10246TIP3    H130681   4.996   5.892   3.202
10246TIP3    H230682   4.896   5.930   3.310
10247TIP3   OH230683   6.228   2.135   2.137
10247TIP3    H130684   6.185   2.050   2.127
10247TIP3    H230685   6.275   2.128   2.220
10248TIP3   OH230686   5.194   2.756   4.804
10248TIP3    H130687   5.188   2.716   4.717
10248TIP3    H230688   5.227   2.845   4.787
10249TIP3   OH230689   0.972   0.047   5.303
10249TIP3    H130690   1.032  -0.009   5.351
10249TIP3    H230691   0.994   0.033   5.211
10250TIP3   OH230692   1.235   7.646   4.012
10250TIP3    H130693   1.250   7.632   3.919
10250TIP3    H230694   1.269   7.733   4.029
10251TIP3   OH230695   6.400   4.657   6.733
10251TIP3    H130696   6.453   4.648   6.654
10251TIP3    H230697   6.312   4.631   6.706
10252TIP3   OH230698   1.403   1.642   4.578
10252TIP3    H130699   1.340   1.570   4.582
10252TIP3    H230700   1.395   1.686   4.663
10253TIP3   OH230701   1.352   1.230   0.154
10253TIP3    H130702   1.430   1.178   0.138
10253TIP3    H230703   1.377   1.320   0.131
10254TIP3   OH230704   2.992   0.950   0.104
10254TIP3    H130705   3.009   0.966   0.197
10254TIP3    H230706   2.898   0.931   0.100
10255TIP3   OH230707   2.048   4.394   1.681
10255TIP3    H130708   2.088   4.348   1.755
10255TIP3    H230709   1.975   4.442   1.720
10256TIP3   OH230710   0.644   0.888   6.689
10256TIP3    H130711   0.590   0.905   6.766
10256TIP3    H230712   0.723   0.940   6.704
10257TIP3   OH230713   2.452   5.583   2.152
10257TIP3    H130714   2.537   5.578   2.108
10257TIP3    H230715   2.466   5.537   2.235
10258TIP3   OH230716   5.228   6.373   0.395
10258TIP3    H130717   5.232   6.322   0.476
10258TIP3    H230718   5.134   6.380   0.376
10259TIP3   OH230719   1.140   4.733   3.491
10259TIP3    H130720   1.141   4.655   3.546
10259TIP3    H230721   1.232   4.756   3.481
10260TIP3   OH230722   3.862   5.627   3.833
10260TIP3    H130723   3.781   5.580   3.854
10260TIP3    H230724   3.883   5.677   3.912
10261TIP3   OH230725   6.219   2.319   1.927
10261TIP3    H130726   6.205   2.250   1.990
10261TIP3    H230727   6.165   2.294   1.851
10262TIP3   OH230728   6.573   0.707   2.450
10262TIP3    H130729   6.579   0.801   2.467
10262TIP3    H230730   6.482   0.694   2.421
10263TIP3   OH230731   7.041   5.603   0.826
10263TIP3    H130732   7.062   5.696   0.818
10263TIP3    H230733   7.122   5.558   0.801
10264TIP3   OH230734   0.886   5.154   4.130
10264TIP3    H130735   0.798   5.181   4.156
10264TIP3    H230736   0.898   5.069   4.172
10265TIP3   OH230737   5.261   7.452   3.793
10265TIP3    H130738   5.237   7.382   3.733
10265TIP3    H230739   5.344   7.423   3.832
10266TIP3   OH230740   7.013   0.670   2.883
10266TIP3    H130741   6.928   0.647   2.922
10266TIP3    H230742   7.016   0.766   2.886
10267TIP3   OH230743   5.953   5.203   0.964
10267TIP3    H130744   5.918   5.289   0.939
10267TIP3    H230745   5.909   5.183   1.046
10268TIP3   OH230746   8.011   1.617   6.464
10268TIP3    H130747   7.985   1.546   6.406
10268TIP3    H230748   8.023   1.576   6.550
10269TIP3   OH230749   7.763   1.712   3.992
10269TIP3    H130750   7.803   1.790   3.954
10269TIP3    H230751   7.835   1.650   4.000
10270TIP3   OH230752   3.567   5.202   2.092
10270TIP3    H130753   3.554   5.130   2.031
10270TIP3    H230754   3.631   5.259   2.049
10271TIP3   OH230755   8.264   5.592   0.792
10271TIP3    H130756   8.270   5.596   0.696
10271TIP3    H230757   8.237   5.679   0.819
10272TIP3   OH230758   1.896   5.600   4.144
10272TIP3    H130759   1.928   5.635   4.061
10272TIP3    H230760   1.826   5.540   4.120
10273TIP3   OH230761   0.088   2.309   2.013
10273TIP3    H130762  -0.001   2.338   2.035
10273TIP3    H230763   0.141   2.388   2.015
10274TIP3   OH230764   0.100   0.290   2.705
10274TIP3    H130765   0.020   0.300   2.756
10274TIP3    H230766   0.165   0.341   2.752
10275TIP3   OH230767   0.481   3.040   3.900
10275TIP3    H130768   0.427   2.962   3.915
10275TIP3    H230769   0.486   3.081   3.986
10276TIP3   OH230770   4.906   4.244   5.051
10276TIP3    H130771   4.837   4.304   5.023
10276TIP3    H230772   4.881   4.160   5.013
10277TIP3   OH230773   2.074   3.590   6.030
10277TIP3    H130774   2.113   3.671   5.997
10277TIP3    H230775   2.142   3.553   6.087
10278TIP3   OH230776   2.155   7.551   0.688
10278TIP3    H130777   2.122   7.501   0.614
10278TIP3    H230778   2.178   7.636   0.651
10279TIP3   OH230779   6.542   7.122   6.730
10279TIP3    H130780   6.607   7.118   6.799
10279TIP3    H230781   6.470   7.175   6.767
10280TIP3   OH230782   3.450   5.929   5.175
10280TIP3    H130783   3.420   5.883   5.253
10280TIP3    H230784   3.426   5.872   5.102
10281TIP3   OH230785   5.770   0.613   2.150
10281TIP3    H130786   5.860   0.643   2.138
10281TIP3    H230787   5.724   0.641   2.070
10282TIP3   OH230788   1.445   0.869   6.451
10282TIP3    H130789   1.482   0.931   6.388
10282TIP3    H230790   1.466   0.783   6.414
10283TIP3   OH230791   6.332   1.140   4.516
10283TIP3    H130792   6.305   1.084   4.444
10283TIP3    H230793   6.427   1.147   4.508
10284TIP3   OH230794   6.275   2.236   0.990
10284TIP3    H130795   6.305   2.314   0.944
10284TIP3    H230796   6.238   2.269   1.072
10285TIP3   OH230797   8.120   0.948   5.984
10285TIP3    H130798   8.051   0.993   6.033
10285TIP3    H230799   8.177   1.019   5.954
10286TIP3   OH230800   6.733   2.098   5.642
10286TIP3    H130801   6.784   2.032   5.689
10286TIP3    H230802   6.788   2.123   5.568
10287TIP3   OH230803   0.124   6.045   2.307
10287TIP3    H130804   0.154   6.010   2.390
10287TIP3    H230805   0.204   6.053   2.254
10288TIP3   OH230806   0.381   0.855   0.285
10288TIP3    H130807   0.392   0.917   0.357
10288TIP3    H230808   0.316   0.792   0.317
10289TIP3   OH230809   5.491   7.043   5.586
10289TIP3    H130810   5.504   7.097   5.664
10289TIP3    H230811   5.400   7.016   5.590
10290TIP3   OH230812   0.139   2.676   1.144
10290TIP3    H130813   0.105   2.594   1.108
10290TIP3    H230814   0.134   2.738   1.070
10291TIP3   OH230815   4.885   6.376   6.500
10291TIP3    H130816   4.878   6.287   6.465
10291TIP3    H230817   4.888   6.432   6.423
10292TIP3   OH230818   6.447   0.217   2.916
10292TIP3    H130819   6.510   0.155   2.880
10292TIP3    H230820   6.440   0.193   3.009
10293TIP3   OH230821   3.564   0.069   4.946
10293TIP3    H130822   3.649   0.035   4.920
10293TIP3    H230823   3.516  -0.008   4.977
10294TIP3   OH230824   8.102   2.859   4.818
10294TIP3    H130825   8.054   2.831   4.740
10294TIP3    H230826   8.037   2.858   4.888
10295TIP3   OH230827   2.689   7.382   5.653
10295TIP3    H130828   2.643   7.444   5.710
10295TIP3    H230829   2.701   7.304   5.708
10296TIP3   OH230830   3.809   3.024   5.922
10296TIP3    H130831   3.844   2.946   5.965
10296TIP3    H230832   3.766   2.991   5.843
10297TIP3   OH230833   5.953   3.543   2.141
10297TIP3    H130834   6.044   3.570   2.159
10297TIP3    H230835   5.944   3.549   2.046
10298TIP3   OH230836   2.911   3.119   4.860
10298TIP3    H130837   2.956   3.045   4.820
10298TIP3    H230838   2.967   3.194   4.842
10299TIP3   OH230839   5.353   5.017   1.749
10299TIP3    H130840   5.401   5.083   1.800
10299TIP3    H230841   5.266   5.013   1.790
10300TIP3   OH230842   1.280   2.167   3.998
10300TIP3    H130843   1.193   2.201   3.974
10300TIP3    H230844   1.341   2.217   3.944
10301TIP3   OH230845   3.487   7.161   6.280
10301TIP3    H130846   3.427   7.131   6.212
10301TIP3    H230847   3.499   7.255   6.261
10302TIP3   OH230848   0.319   0.882   2.994
10302TIP3    H130849   0.393   0.853   3.047
10302TIP3    H230850   0.313   0.976   3.011
10303TIP3   OH230851   5.176   0.175   4.124
10303TIP3    H130852   5.254   0.224   4.098
10303TIP3    H230853   5.199   0.083   4.110
10304TIP3   OH230854   2.768   4.020   3.567
10304TIP3    H130855   2.677   4.007   3.542
10304TIP3    H230856   2.817   3.963   3.508
10305TIP3   OH230857   3.818   7.252   3.243
10305TIP3    H130858   3.739   7.222   3.289
10305TIP3    H230859   3.890   7.207   3.288
10306TIP3   OH230860   0.484   6.028   1.556
10306TIP3    H130861   0.465   5.943   1.518
10306TIP3    H230862   0.580   6.034   1.554
10307TIP3   OH230863   4.865   4.096   0.480
10307TIP3    H130864   4.838   4.186   0.460
10307TIP3    H230865   4.956   4.104   0.509
10308TIP3   OH230866   7.274   6.132   5.479
10308TIP3    H130867   7.220   6.158   5.553
10308TIP3    H230868   7.254   6.196   5.411
10309TIP3   OH230869   6.377   5.890   3.261
10309TIP3    H130870   6.400   5.822   3.197
10309TIP3    H230871   6.289   5.867   3.290
10310TIP3   OH230872   0.742   4.041   0.214
10310TIP3    H130873   0.746   4.134   0.236
10310TIP3    H230874   0.825   4.024   0.169
10311TIP3   OH230875   1.726   7.179   5.236
10311TIP3    H130876   1.729   7.168   5.141
10311TIP3    H230877   1.783   7.254   5.253
10312TIP3   OH230878   5.811   0.207   3.115
10312TIP3    H130879   5.797   0.115   3.140
10312TIP3    H230880   5.897   0.206   3.072
10313TIP3   OH230881   2.830   7.810   2.079
10313TIP3    H130882   2.888   7.738   2.103
10313TIP3    H230883   2.768   7.816   2.152
10314TIP3   OH230884   3.996   7.065   4.157
10314TIP3    H130885   4.074   7.010   4.152
10314TIP3    H230886   4.008   7.130   4.087
10315TIP3   OH230887   7.641   7.782   2.864
10315TIP3    H130888   7.605   7.781   2.775
10315TIP3    H230889   7.568   7.753   2.920
10316TIP3   OH230890   1.699   3.482   3.710
10316TIP3    H130891   1.625   3.441   3.754
10316TIP3    H230892   1.767   3.415   3.709
10317TIP3   OH230893   4.414   2.445   3.155
10317TIP3    H130894   4.412   2.530   3.199
10317TIP3    H230895   4.418   2.465   3.062
10318TIP3   OH230896   2.673   0.789   4.265
10318TIP3    H130897   2.618   0.832   4.331
10318TIP3    H230898   2.706   0.861   4.211
10319TIP3   OH230899   8.247   4.138  -0.018
10319TIP3    H130900   8.223   4.230  -0.006
10319TIP3    H230901   8.231   4.098   0.068
10320TIP3   OH230902   1.833   7.073   4.952
10320TIP3    H130903   1.918   7.115   4.945
10320TIP3    H230904   1.770   7.142   4.930
10321TIP3   OH230905   4.985   6.901   5.270
10321TIP3    H130906   4.994   6.997   5.274
10321TIP3    H230907   5.073   6.868   5.283
10322TIP3   OH230908   4.657   2.891   3.968
10322TIP3    H130909   4.581   2.927   3.923
10322TIP3    H230910   4.714   2.859   3.898
10323TIP3   OH230911   3.334   7.452   2.892
10323TIP3    H130912   3.306   7.486   2.807
10323TIP3    H230913   3.279   7.375   2.907
10324TIP3   OH230914   2.176   6.115   0.202
10324TIP3    H130915   2.148   6.130   0.111
10324TIP3    H230916   2.095   6.123   0.253
10325TIP3   OH230917   2.955   2.746   0.231
10325TIP3    H130918   2.900   2.812   0.189
10325TIP3    H230919   2.950   2.671   0.172
10326TIP3   OH230920   1.280   2.844   1.732
10326TIP3    H130921   1.261   2.937   1.720
10326TIP3    H230922   1.374   2.836   1.714
10327TIP3   OH230923   5.792   0.407   2.654
10327TIP3    H130924   5.705   0.367   2.656
10327TIP3    H230925   5.803   0.438   2.565
10328TIP3   OH230926   0.154   4.115   5.053
10328TIP3    H130927   0.153   4.114   4.958
10328TIP3    H230928   0.230   4.061   5.077
10329TIP3   OH230929   6.880   1.982   4.805
10329TIP3    H130930   6.880   2.077   4.816
10329TIP3    H230931   6.882   1.948   4.895
10330TIP3   OH230932   7.477   0.486   4.877
10330TIP3    H130933   7.483   0.390   4.881
10330TIP3    H230934   7.462   0.513   4.967
10331TIP3   OH230935   3.369   3.972   1.928
10331TIP3    H130936   3.401   4.049   1.975
10331TIP3    H230937   3.281   3.958   1.962
10332TIP3   OH230938   3.894   2.667   3.369
10332TIP3    H130939   3.811   2.650   3.323
10332TIP3    H230940   3.881   2.753   3.409
10333TIP3   OH230941   6.971   5.879   0.177
10333TIP3    H130942   6.945   5.797   0.219
10333TIP3    H230943   6.979   5.942   0.249
10334TIP3   OH230944   1.233   3.890   4.998
10334TIP3    H130945   1.191   3.912   4.915
10334TIP3    H230946   1.161   3.869   5.057
10335TIP3   OH230947   0.592   5.796   0.874
10335TIP3    H130948   0.688   5.797   0.868
10335TIP3    H230949   0.573   5.852   0.949
10336TIP3   OH230950   4.177   2.732   3.236
10336TIP3    H130951   4.188   2.700   3.146
10336TIP3    H230952   4.091   2.701   3.262
10337TIP3   OH230953   8.235   1.543   2.228
10337TIP3    H130954   8.217   1.637   2.230
10337TIP3    H230955   8.181   1.510   2.156
10338TIP3   OH230956   4.869   6.484   0.837
10338TIP3    H130957   4.897   6.542   0.767
10338TIP3    H230958   4.940   6.487   0.901
10339TIP3   OH230959   6.609   5.508   4.854
10339TIP3    H130960   6.570   5.441   4.797
10339TIP3    H230961   6.680   5.462   4.899
10340TIP3   OH230962   1.441   2.173   3.063
10340TIP3    H130963   1.450   2.175   2.968
10340TIP3    H230964   1.380   2.244   3.083
10341TIP3   OH230965   6.856   2.944   4.670
10341TIP3    H130966   6.782   2.976   4.721
10341TIP3    H230967   6.832   2.962   4.579
10342TIP3   OH230968   6.771   5.600   6.410
10342TIP3    H130969   6.693   5.596   6.464
10342TIP3    H230970   6.772   5.689   6.375
10343TIP3   OH230971   3.989   7.683   2.552
10343TIP3    H130972   3.986   7.588   2.537
10343TIP3    H230973   3.995   7.720   2.465
10344TIP3   OH230974   1.149   1.249   1.886
10344TIP3    H130975   1.079   1.266   1.950
10344TIP3    H230976   1.180   1.336   1.861
10345TIP3   OH230977   1.599   2.360   4.099
10345TIP3    H130978   1.523   2.318   4.140
10345TIP3    H230979   1.654   2.287   4.070
10346TIP3   OH230980   5.894   2.671   0.837
10346TIP3    H130981   5.858   2.708   0.756
10346TIP3    H230982   5.986   2.655   0.817
10347TIP3   OH230983   4.598   3.464   3.116
10347TIP3    H130984   4.571   3.410   3.042
10347TIP3    H230985   4.676   3.420   3.151
10348TIP3   OH230986   0.323   6.073   0.835
10348TIP3    H130987   0.386   6.114   0.894
10348TIP3    H230988   0.240   6.119   0.853
10349TIP3   OH230989   1.286   2.358   3.203
10349TIP3    H130990   1.263   2.346   3.295
10349TIP3    H230991   1.209   2.399   3.164
10350TIP3   OH230992   0.853   4.917   3.152
10350TIP3    H130993   0.898   4.942   3.071
10350TIP3    H230994   0.764   4.896   3.125
10351TIP3   OH230995   3.133   1.595   3.088
10351TIP3    H130996   3.043   1.627   3.076
10351TIP3    H230997   3.125   1.526   3.153
10352TIP3   OH230998   5.782   4.385   3.933
10352TIP3    H130999   5.856   4.378   3.873
10352TIP3    H231000   5.793   4.470   3.975
10353TIP3   OH231001   3.565   4.525   4.837
10353TIP3    H131002   3.480   4.492   4.807
10353TIP3    H231003   3.568   4.615   4.805
10354TIP3   OH231004   2.550   3.603   4.267
10354TIP3    H131005   2.519   3.519   4.234
10354TIP3    H231006   2.470   3.650   4.292
10355TIP3   OH231007   3.584   7.354   6.004
10355TIP3    H131008   3.515   7.378   6.066
10355TIP3    H231009   3.654   7.318   6.059
10356TIP3   OH231010   7.969   5.927   1.183
10356TIP3    H131011   7.881   5.893   1.166
10356TIP3    H231012   8.019   5.850   1.211
10357TIP3   OH231013   1.146   1.357   5.678
10357TIP3    H131014   1.225   1.343   5.626
10357TIP3    H231015   1.158   1.302   5.755
10358TIP3   OH231016   4.810   0.279   5.517
10358TIP3    H131017   4.759   0.343   5.468
10358TIP3    H231018   4.746   0.213   5.544
10359TIP3   OH231019   0.373   5.969   0.534
10359TIP3    H131020   0.414   5.994   0.451
10359TIP3    H231021   0.400   5.879   0.548
10360TIP3   OH231022   6.444   2.482   4.340
10360TIP3    H131023   6.384   2.557   4.333
10360TIP3    H231024   6.387   2.406   4.343
10361TIP3   OH231025   7.586   4.540   5.268
10361TIP3    H131026   7.506   4.553   5.319
10361TIP3    H231027   7.563   4.473   5.204
10362TIP3   OH231028   1.830   7.209   6.514
10362TIP3    H131029   1.893   7.276   6.541
10362TIP3    H231030   1.823   7.150   6.589
10363TIP3   OH231031   6.933   2.148   5.430
10363TIP3    H131032   6.881   2.177   5.355
10363TIP3    H231033   7.020   2.131   5.394
10364TIP3   OH231034   7.482   3.190   3.816
10364TIP3    H131035   7.549   3.164   3.879
10364TIP3    H231036   7.523   3.260   3.765
10365TIP3   OH231037   7.531   5.832   5.307
10365TIP3    H131038   7.496   5.921   5.309
10365TIP3    H231039   7.595   5.833   5.235
10366TIP3   OH231040   6.849   7.402   5.266
10366TIP3    H131041   6.772   7.392   5.322
10366TIP3    H231042   6.836   7.339   5.195
10367TIP3   OH231043   4.468   7.213   3.009
10367TIP3    H131044   4.452   7.277   2.939
10367TIP3    H231045   4.489   7.132   2.963
10368TIP3   OH231046   5.663   5.107   1.139
10368TIP3    H131047   5.575   5.142   1.131
10368TIP3    H231048   5.664   5.030   1.081
10369TIP3   OH231049   2.805   7.626   2.556
10369TIP3    H131050   2.768   7.638   2.469
10369TIP3    H231051   2.859   7.704   2.571
10370TIP3   OH231052   1.676   6.115   1.916
10370TIP3    H131053   1.738   6.142   1.848
10370TIP3    H231054   1.705   6.028   1.942
10371TIP3   OH231055   7.124   0.569   5.748
10371TIP3    H131056   7.129   0.610   5.835
10371TIP3    H231057   7.036   0.533   5.743
10372TIP3   OH231058   1.153   0.215   0.095
10372TIP3    H131059   1.209   0.251   0.027
10372TIP3    H231060   1.206   0.222   0.175
10373TIP3   OH231061   2.555   5.332   1.875
10373TIP3    H131062   2.476   5.385   1.877
10373TIP3    H231063   2.588   5.335   1.965
10374TIP3   OH231064   0.779   2.880   3.813
10374TIP3    H131065   0.785   2.842   3.900
10374TIP3    H231066   0.738   2.966   3.826
10375TIP3   OH231067   0.296   4.387   3.104
10375TIP3    H131068   0.283   4.377   3.198
10375TIP3    H231069   0.379   4.344   3.086
10376TIP3   OH231070   8.000   3.324   2.503
10376TIP3    H131071   8.057   3.247   2.504
10376TIP3    H231072   7.975   3.335   2.411
10377TIP3   OH231073   4.301   1.188   6.104
10377TIP3    H131074   4.213   1.150   6.102
10377TIP3    H231075   4.306   1.235   6.187
10378TIP3   OH231076   3.161   7.464   3.178
10378TIP3    H131077   3.076   7.484   3.139
10378TIP3    H231078   3.142   7.398   3.245
10379TIP3   OH231079   3.763   6.393   2.145
10379TIP3    H131080   3.829   6.372   2.211
10379TIP3    H231081   3.700   6.449   2.192
10380TIP3   OH231082   7.679   0.818   0.027
10380TIP3    H131083   7.653   0.727   0.017
10380TIP3    H231084   7.690   0.850  -0.062
10381TIP3   OH231085   7.195   5.368   0.157
10381TIP3    H131086   7.129   5.332   0.216
10381TIP3    H231087   7.275   5.318   0.177
10382TIP3   OH231088   2.796   3.027   4.558
10382TIP3    H131089   2.847   2.974   4.619
10382TIP3    H231090   2.848   3.107   4.547
10383TIP3   OH231091   6.824   3.492   2.430
10383TIP3    H131092   6.770   3.477   2.508
10383TIP3    H231093   6.765   3.534   2.367
10384TIP3   OH231094   5.330   4.535   2.297
10384TIP3    H131095   5.304   4.585   2.374
10384TIP3    H231096   5.426   4.543   2.294
10385TIP3   OH231097   3.927   5.451   3.140
10385TIP3    H131098   3.967   5.492   3.217
10385TIP3    H231099   3.996   5.452   3.074
10386TIP3   OH231100   2.814   7.000   6.717
10386TIP3    H131101   2.751   7.072   6.707
10386TIP3    H231102   2.823   6.963   6.629
10387TIP3   OH231103   3.119   6.649   1.666
10387TIP3    H131104   3.027   6.622   1.669
10387TIP3    H231105   3.116   6.744   1.669
10388TIP3   OH231106   3.968   2.592  -0.011
10388TIP3    H131107   3.957   2.523   0.055
10388TIP3    H231108   4.062   2.593  -0.030
10389TIP3   OH231109   0.773   6.450   2.470
10389TIP3    H131110   0.785   6.464   2.564
10389TIP3    H231111   0.816   6.366   2.453
10390TIP3   OH231112   8.039   0.518   2.977
10390TIP3    H131113   8.116   0.552   2.931
10390TIP3    H231114   8.073   0.443   3.026
10391TIP3   OH231115   8.121   3.195   1.136
10391TIP3    H131116   8.040   3.185   1.186
10391TIP3    H231117   8.175   3.120   1.162
10392TIP3   OH231118   1.635   5.847   6.035
10392TIP3    H131119   1.592   5.933   6.043
10392TIP3    H231120   1.649   5.837   5.941
10393TIP3   OH231121   3.193   6.370   3.022
10393TIP3    H131122   3.218   6.458   2.993
10393TIP3    H231123   3.165   6.325   2.942
10394TIP3   OH231124   0.145   4.006   0.425
10394TIP3    H131125   0.056   3.987   0.454
10394TIP3    H231126   0.198   3.938   0.466
10395TIP3   OH231127   5.258   7.071   4.046
10395TIP3    H131128   5.224   7.011   3.980
10395TIP3    H231129   5.185   7.130   4.064
10396TIP3   OH231130   5.148   1.030   1.241
10396TIP3    H131131   5.116   1.044   1.330
10396TIP3    H231132   5.112   1.104   1.191
10397TIP3   OH231133   1.288   2.564   1.205
10397TIP3    H131134   1.370   2.543   1.250
10397TIP3    H231135   1.284   2.504   1.131
10398TIP3   OH231136   7.079   6.250   3.142
10398TIP3    H131137   7.134   6.275   3.068
10398TIP3    H231138   7.032   6.172   3.112
10399TIP3   OH231139   5.510   3.597   1.205
10399TIP3    H131140   5.592   3.562   1.241
10399TIP3    H231141   5.441   3.552   1.254
10400TIP3   OH231142   5.018   5.956   1.855
10400TIP3    H131143   4.979   5.886   1.908
10400TIP3    H231144   4.980   5.944   1.768
10401TIP3   OH231145   1.976   1.807   2.338
10401TIP3    H131146   1.978   1.826   2.432
10401TIP3    H231147   2.062   1.769   2.319
10402TIP3   OH231148   2.247   6.057   2.874
10402TIP3    H131149   2.324   6.006   2.851
10402TIP3    H231150   2.178   6.022   2.818
10403TIP3   OH231151   1.897   0.158   4.219
10403TIP3    H131152   1.901   0.062   4.217
10403TIP3    H231153   1.840   0.181   4.145
10404TIP3   OH231154   5.549   4.542   4.765
10404TIP3    H131155   5.509   4.461   4.798
10404TIP3    H231156   5.643   4.525   4.767
10405TIP3   OH231157   3.484   5.936   2.805
10405TIP3    H131158   3.430   5.885   2.745
10405TIP3    H231159   3.434   5.939   2.886
10406TIP3   OH231160   4.755   5.898   0.257
10406TIP3    H131161   4.697   5.972   0.240
10406TIP3    H231162   4.704   5.839   0.312
10407TIP3   OH231163   2.980   4.249   1.633
10407TIP3    H131164   2.898   4.292   1.658
10407TIP3    H231165   2.953   4.181   1.571
10408TIP3   OH231166   6.722   2.110   3.749
10408TIP3    H131167   6.712   2.204   3.731
10408TIP3    H231168   6.654   2.068   3.697
10409TIP3   OH231169   5.119   0.394   1.127
10409TIP3    H131170   5.132   0.451   1.051
10409TIP3    H231171   5.091   0.453   1.197
10410TIP3   OH231172   8.200   0.643   2.577
10410TIP3    H131173   8.209   0.738   2.567
10410TIP3    H231174   8.187   0.631   2.671
10411TIP3   OH231175   5.917   1.705   6.061
10411TIP3    H131176   5.913   1.759   5.982
10411TIP3    H231177   6.000   1.657   6.053
10412TIP3   OH231178   1.812   5.350   4.349
10412TIP3    H131179   1.893   5.303   4.372
10412TIP3    H231180   1.806   5.420   4.413
10413TIP3   OH231181   7.891   1.318   5.559
10413TIP3    H131182   7.969   1.291   5.607
10413TIP3    H231183   7.851   1.237   5.528
10414TIP3   OH231184   4.591   0.176   1.802
10414TIP3    H131185   4.560   0.104   1.748
10414TIP3    H231186   4.549   0.163   1.887
10415TIP3   OH231187   4.640   5.001   4.725
10415TIP3    H131188   4.708   5.043   4.777
10415TIP3    H231189   4.686   4.934   4.674
10416TIP3   OH231190   3.788   4.347   1.435
10416TIP3    H131191   3.844   4.335   1.358
10416TIP3    H231192   3.750   4.260   1.450
10417TIP3   OH231193   6.765   7.667   0.184
10417TIP3    H131194   6.674   7.667   0.154
10417TIP3    H231195   6.759   7.674   0.280
10418TIP3   OH231196   0.815   7.108   0.863
10418TIP3    H131197   0.786   7.027   0.904
10418TIP3    H231198   0.774   7.107   0.776
10419TIP3   OH231199   2.036   4.223   3.290
10419TIP3    H131200   1.947   4.237   3.323
10419TIP3    H231201   2.025   4.202   3.197
10420TIP3   OH231202   6.767   5.427   0.195
10420TIP3    H131203   6.782   5.385   0.111
10420TIP3    H231204   6.680   5.396   0.222
10421TIP3   OH231205   6.342   1.513   0.946
10421TIP3    H131206   6.274   1.525   0.880
10421TIP3    H231207   6.364   1.420   0.941
10422TIP3   OH231208   0.890   6.945   4.567
10422TIP3    H131209   0.797   6.923   4.553
10422TIP3    H231210   0.931   6.929   4.483
10423TIP3   OH231211   1.858   2.145   0.562
10423TIP3    H131212   1.793   2.110   0.623
10423TIP3    H231213   1.859   2.239   0.579
10424TIP3   OH231214   4.607   0.106   2.767
10424TIP3    H131215   4.645   0.189   2.739
10424TIP3    H231216   4.638   0.093   2.856
10425TIP3   OH231217   8.095   6.838   3.486
10425TIP3    H131218   8.167   6.897   3.465
10425TIP3    H231219   8.119   6.755   3.444
10426TIP3   OH231220   5.604   1.258   2.172
10426TIP3    H131221   5.659   1.270   2.250
10426TIP3    H231222   5.665   1.264   2.099
10427TIP3   OH231223   1.545   2.910   2.546
10427TIP3    H131224   1.599   2.866   2.481
10427TIP3    H231225   1.589   2.994   2.561
10428TIP3   OH231226   7.165   0.597   0.807
10428TIP3    H131227   7.218   0.621   0.731
10428TIP3    H231228   7.087   0.652   0.801
10429TIP3   OH231229   4.936   5.769   2.055
10429TIP3    H131230   4.960   5.799   2.143
10429TIP3    H231231   5.006   5.708   2.031
10430TIP3   OH231232   2.150   6.777   0.186
10430TIP3    H131233   2.107   6.696   0.213
10430TIP3    H231234   2.228   6.749   0.137
10431TIP3   OH231235   7.210   1.414   5.618
10431TIP3    H131236   7.272   1.382   5.684
10431TIP3    H231237   7.126   1.375   5.641
10432TIP3   OH231238   1.904   3.857   3.750
10432TIP3    H131239   1.872   3.803   3.678
10432TIP3    H231240   1.909   3.946   3.714
10433TIP3   OH231241   1.106   7.700   0.145
10433TIP3    H131242   1.143   7.786   0.164
10433TIP3    H231243   1.159   7.666   0.074
10434TIP3   OH231244   7.967   5.680   0.870
10434TIP3    H131245   7.964   5.611   0.804
10434TIP3    H231246   8.042   5.734   0.846
10435TIP3   OH231247   3.394   6.423   3.229
10435TIP3    H131248   3.445   6.479   3.170
10435TIP3    H231249   3.303   6.437   3.203
10436TIP3   OH231250   2.664   4.603   4.199
10436TIP3    H131251   2.697   4.645   4.279
10436TIP3    H231252   2.743   4.573   4.154
10437TIP3   OH231253   5.605   0.207   0.065
10437TIP3    H131254   5.555   0.271   0.115
10437TIP3    H231255   5.689   0.201   0.111
10438TIP3   OH231256   4.628   1.534   4.575
10438TIP3    H131257   4.633   1.504   4.666
10438TIP3    H231258   4.544   1.579   4.570
10439TIP3   OH231259   1.306   6.549   2.388
10439TIP3    H131260   1.242   6.604   2.342
10439TIP3    H231261   1.283   6.558   2.481
10440TIP3   OH231262   3.105   6.893   4.564
10440TIP3    H131263   3.065   6.968   4.519
10440TIP3    H231264   3.192   6.925   4.589
10441TIP3   OH231265   4.076   7.134   6.010
10441TIP3    H131266   4.119   7.060   6.053
10441TIP3    H231267   4.033   7.095   5.933
10442TIP3   OH231268   0.619   3.981   4.667
10442TIP3    H131269   0.692   4.013   4.614
10442TIP3    H231270   0.563   3.935   4.605
10443TIP3   OH231271   0.668   3.950   6.331
10443TIP3    H131272   0.579   3.917   6.317
10443TIP3    H231273   0.669   3.979   6.422
10444TIP3   OH231274   1.791   2.592   0.291
10444TIP3    H131275   1.698   2.605   0.311
10444TIP3    H231276   1.815   2.670   0.240
10445TIP3   OH231277   7.396   2.547   4.123
10445TIP3    H131278   7.343   2.624   4.141
10445TIP3    H231279   7.466   2.578   4.066
10446TIP3   OH231280   0.681   4.521   5.654
10446TIP3    H131281   0.726   4.598   5.692
10446TIP3    H231282   0.597   4.555   5.624
10447TIP3   OH231283   7.284   1.858   3.030
10447TIP3    H131284   7.310   1.824   3.116
10447TIP3    H231285   7.230   1.934   3.049
10448TIP3   OH231286   6.322   7.754   1.677
10448TIP3    H131287   6.339   7.663   1.700
10448TIP3    H231288   6.409   7.792   1.663
10449TIP3   OH231289   3.325   5.787   2.273
10449TIP3    H131290   3.273   5.857   2.234
10449TIP3    H231291   3.386   5.761   2.204
10450TIP3   OH231292   4.647   7.672   4.831
10450TIP3    H131293   4.554   7.652   4.844
10450TIP3    H231294   4.693   7.597   4.868
10451TIP3   OH231295   1.297   3.098   1.214
10451TIP3    H131296   1.264   3.168   1.270
10451TIP3    H231297   1.231   3.090   1.144
10452TIP3   OH231298   3.145   3.392   1.650
10452TIP3    H131299   3.138   3.456   1.579
10452TIP3    H231300   3.072   3.413   1.709
10453TIP3   OH231301   3.449   3.429   4.598
10453TIP3    H131302   3.509   3.446   4.525
10453TIP3    H231303   3.381   3.496   4.589
10454TIP3   OH231304   3.543   4.819   4.779
10454TIP3    H131305   3.631   4.856   4.771
10454TIP3    H231306   3.490   4.869   4.716
10455TIP3   OH231307   6.138   4.283   0.226
10455TIP3    H131308   6.091   4.345   0.172
10455TIP3    H231309   6.070   4.236   0.274
10456TIP3   OH231310   1.322   6.615   6.349
10456TIP3    H131311   1.368   6.623   6.266
10456TIP3    H231312   1.371   6.671   6.409
10457TIP3   OH231313   0.559   3.704   6.765
10457TIP3    H131314   0.613   3.645   6.818
10457TIP3    H231315   0.599   3.702   6.678
10458TIP3   OH231316   0.398   2.621   0.864
10458TIP3    H131317   0.303   2.606   0.855
10458TIP3    H231318   0.427   2.551   0.923
10459TIP3   OH231319   2.691   5.474   0.569
10459TIP3    H131320   2.715   5.486   0.477
10459TIP3    H231321   2.762   5.422   0.606
10460TIP3   OH231322   0.520   7.593   1.935
10460TIP3    H131323   0.478   7.657   1.993
10460TIP3    H231324   0.547   7.644   1.859
10461TIP3   OH231325   3.903   1.743   1.480
10461TIP3    H131326   3.829   1.709   1.531
10461TIP3    H231327   3.909   1.835   1.504
10462TIP3   OH231328   4.966   1.937   4.640
10462TIP3    H131329   5.011   1.939   4.555
10462TIP3    H231330   4.911   2.016   4.639
10463TIP3   OH231331   0.929   3.655   5.619
10463TIP3    H131332   0.999   3.649   5.685
10463TIP3    H231333   0.919   3.566   5.587
10464TIP3   OH231334   8.297   0.192   1.184
10464TIP3    H131335   8.211   0.164   1.216
10464TIP3    H231336   8.284   0.282   1.156
10465TIP3   OH231337   7.512   5.238   3.127
10465TIP3    H131338   7.427   5.260   3.088
10465TIP3    H231339   7.571   5.306   3.096
10466TIP3   OH231340   6.812   4.825   6.289
10466TIP3    H131341   6.820   4.729   6.290
10466TIP3    H231342   6.888   4.857   6.337
10467TIP3   OH231343   0.685   6.021   2.273
10467TIP3    H131344   0.637   5.987   2.198
10467TIP3    H231345   0.776   5.995   2.257
10468TIP3   OH231346   0.670   7.815   3.244
10468TIP3    H131347   0.699   7.724   3.236
10468TIP3    H231348   0.575   7.809   3.253
10469TIP3   OH231349   1.231   4.967   2.193
10469TIP3    H131350   1.145   4.980   2.233
10469TIP3    H231351   1.260   4.882   2.227
10470TIP3   OH231352   4.922   4.805   0.976
10470TIP3    H131353   5.009   4.835   0.947
10470TIP3    H231354   4.892   4.873   1.036
10471TIP3   OH231355   4.276   4.030   0.522
10471TIP3    H131356   4.321   3.954   0.485
10471TIP3    H231357   4.327   4.105   0.493
10472TIP3   OH231358   3.964   6.876   4.909
10472TIP3    H131359   3.921   6.961   4.900
10472TIP3    H231360   3.951   6.834   4.824
10473TIP3   OH231361   8.018   5.388   4.703
10473TIP3    H131362   8.103   5.409   4.740
10473TIP3    H231363   7.982   5.321   4.762
10474TIP3   OH231364   5.930   0.247   1.041
10474TIP3    H131365   5.995   0.186   1.077
10474TIP3    H231366   5.881   0.277   1.118
10475TIP3   OH231367   5.710   1.152   0.680
10475TIP3    H131368   5.783   1.150   0.741
10475TIP3    H231369   5.684   1.245   0.678
10476TIP3   OH231370   6.245   0.215   4.164
10476TIP3    H131371   6.182   0.276   4.201
10476TIP3    H231372   6.299   0.189   4.239
10477TIP3   OH231373   5.150   5.078   4.733
10477TIP3    H131374   5.236   5.090   4.693
10477TIP3    H231375   5.153   4.989   4.769
10478TIP3   OH231376   0.095   6.477   5.209
10478TIP3    H131377   0.058   6.426   5.282
10478TIP3    H231378   0.189   6.473   5.223
10479TIP3   OH231379   7.921   7.006   5.843
10479TIP3    H131380   7.844   6.950   5.852
10479TIP3    H231381   7.931   7.018   5.749
10480TIP3   OH231382   3.115   4.041   0.074
10480TIP3    H131383   3.204   4.006   0.070
10480TIP3    H231384   3.111   4.084   0.160
10481TIP3   OH231385   7.748   0.642   0.942
10481TIP3    H131386   7.782   0.625   1.030
10481TIP3    H231387   7.813   0.699   0.902
10482TIP3   OH231388   3.258   2.467   5.053
10482TIP3    H131389   3.350   2.464   5.027
10482TIP3    H231390   3.255   2.418   5.135
10483TIP3   OH231391   6.623   4.658   2.987
10483TIP3    H131392   6.682   4.588   3.014
10483TIP3    H231393   6.539   4.636   3.027
10484TIP3   OH231394   7.226   0.381   3.183
10484TIP3    H131395   7.158   0.346   3.240
10484TIP3    H231396   7.280   0.305   3.160
10485TIP3   OH231397   2.403   5.578   0.781
10485TIP3    H131398   2.321   5.539   0.750
10485TIP3    H231399   2.382   5.612   0.868
10486TIP3   OH231400   0.199   3.195   5.093
10486TIP3    H131401   0.148   3.162   5.018
10486TIP3    H231402   0.187   3.129   5.161
10487TIP3   OH231403   0.918   2.086   6.602
10487TIP3    H131404   0.933   2.152   6.669
10487TIP3    H231405   0.982   2.105   6.534
10488TIP3   OH231406   4.849   5.898   3.757
10488TIP3    H131407   4.928   5.929   3.802
10488TIP3    H231408   4.791   5.870   3.828
10489TIP3   OH231409   2.536   2.928   0.236
10489TIP3    H131410   2.580   2.922   0.320
10489TIP3    H231411   2.529   3.022   0.219
10490TIP3   OH231412   7.999   1.524   3.595
10490TIP3    H131413   7.928   1.460   3.595
10490TIP3    H231414   7.960   1.602   3.635
10491TIP3   OH231415   6.620   5.838   1.005
10491TIP3    H131416   6.704   5.842   0.961
10491TIP3    H231417   6.578   5.759   0.971
10492TIP3   OH231418   1.556   0.317   0.988
10492TIP3    H131419   1.599   0.274   1.062
10492TIP3    H231420   1.591   0.406   0.988
10493TIP3   OH231421   2.422   6.389   2.881
10493TIP3    H131422   2.497   6.331   2.871
10493TIP3    H231423   2.454   6.460   2.936
10494TIP3   OH231424   0.656   5.118   6.215
10494TIP3    H131425   0.580   5.091   6.266
10494TIP3    H231426   0.644   5.213   6.204
10495TIP3   OH231427   6.351   1.123   1.497
10495TIP3    H131428   6.338   1.181   1.573
10495TIP3    H231429   6.269   1.075   1.490
10496TIP3   OH231430   2.597   3.236   3.654
10496TIP3    H131431   2.546   3.313   3.680
10496TIP3    H231432   2.673   3.237   3.712
10497TIP3   OH231433   5.387   3.788   0.988
10497TIP3    H131434   5.426   3.745   1.064
10497TIP3    H231435   5.362   3.716   0.930
10498TIP3   OH231436   0.107   1.763   5.569
10498TIP3    H131437   0.082   1.826   5.501
10498TIP3    H231438   0.151   1.693   5.521
10499TIP3   OH231439   0.500   6.822   2.377
10499TIP3    H131440   0.526   6.846   2.288
10499TIP3    H231441   0.569   6.857   2.432
10500TIP3   OH231442   6.092   1.553   1.627
10500TIP3    H131443   6.158   1.553   1.558
10500TIP3    H231444   6.142   1.547   1.708
10501TIP3   OH231445   2.813   1.948   5.886
10501TIP3    H131446   2.733   1.897   5.890
10501TIP3    H231447   2.785   2.038   5.900
10502TIP3   OH231448   2.439   1.059   5.304
10502TIP3    H131449   2.443   1.142   5.257
10502TIP3    H231450   2.402   1.081   5.390
10503TIP3   OH231451   7.207   4.820   1.828
10503TIP3    H131452   7.222   4.804   1.735
10503TIP3    H231453   7.286   4.788   1.871
10504TIP3   OH231454   0.869   6.239   1.362
10504TIP3    H131455   0.823   6.306   1.311
10504TIP3    H231456   0.913   6.288   1.431
10505TIP3   OH231457   0.237   1.590   2.794
10505TIP3    H131458   0.146   1.577   2.821
10505TIP3    H231459   0.244   1.547   2.709
10506TIP3   OH231460   0.583   4.497   0.087
10506TIP3    H131461   0.658   4.450   0.049
10506TIP3    H231462   0.608   4.589   0.083
10507TIP3   OH231463   7.166   4.441   1.493
10507TIP3    H131464   7.110   4.421   1.418
10507TIP3    H231465   7.106   4.479   1.558
10508TIP3   OH231466   3.428   2.449   1.459
10508TIP3    H131467   3.411   2.355   1.468
10508TIP3    H231468   3.466   2.474   1.544
10509TIP3   OH231469   1.864   4.592   4.595
10509TIP3    H131470   1.814   4.568   4.673
10509TIP3    H231471   1.878   4.687   4.603
10510TIP3   OH231472   3.822   4.117   4.145
10510TIP3    H131473   3.785   4.029   4.144
10510TIP3    H231474   3.756   4.171   4.100
10511TIP3   OH231475   5.063   4.519   4.320
10511TIP3    H131476   5.118   4.510   4.242
10511TIP3    H231477   5.117   4.569   4.381
10512TIP3   OH231478   1.905   5.942   5.234
10512TIP3    H131479   1.881   6.015   5.178
10512TIP3    H231480   1.982   5.973   5.282
10513TIP3   OH231481   4.209   0.843   4.496
10513TIP3    H131482   4.224   0.762   4.545
10513TIP3    H231483   4.285   0.851   4.439
10514TIP3   OH231484   3.137   3.094   2.251
10514TIP3    H131485   3.092   3.009   2.245
10514TIP3    H231486   3.230   3.072   2.254
10515TIP3   OH231487   7.685   4.636   1.118
10515TIP3    H131488   7.621   4.572   1.149
10515TIP3    H231489   7.670   4.642   1.024
10516TIP3   OH231490   7.257   0.264   2.506
10516TIP3    H131491   7.339   0.286   2.462
10516TIP3    H231492   7.273   0.284   2.598
10517TIP3   OH231493   2.024   1.990   0.209
10517TIP3    H131494   1.932   1.987   0.235
10517TIP3    H231495   2.067   2.039   0.279
10518TIP3   OH231496   0.191   4.854   5.294
10518TIP3    H131497   0.189   4.802   5.374
10518TIP3    H231498   0.143   4.802   5.230
10519TIP3   OH231499   5.697   7.241   1.860
10519TIP3    H131500   5.692   7.331   1.891
10519TIP3    H231501   5.780   7.208   1.895
10520TIP3   OH231502   4.202   1.325   0.777
10520TIP3    H131503   4.162   1.243   0.805
10520TIP3    H231504   4.286   1.329   0.824
10521TIP3   OH231505   5.417   5.238   1.888
10521TIP3    H131506   5.400   5.320   1.934
10521TIP3    H231507   5.468   5.263   1.811
10522TIP3   OH231508   1.760   0.630   4.847
10522TIP3    H131509   1.684   0.675   4.882
10522TIP3    H231510   1.728   0.582   4.771
10523TIP3   OH231511   0.120   6.084   5.900
10523TIP3    H131512   0.079   6.152   5.846
10523TIP3    H231513   0.076   6.003   5.873
10524TIP3   OH231514   0.452   3.480   0.795
10524TIP3    H131515   0.482   3.571   0.796
10524TIP3    H231516   0.425   3.464   0.704
10525TIP3   OH231517   8.266   2.565   4.795
10525TIP3    H131518   8.332   2.578   4.728
10525TIP3    H231519   8.200   2.632   4.777
10526TIP3   OH231520   0.277   0.886   1.728
10526TIP3    H131521   0.269   0.969   1.774
10526TIP3    H231522   0.364   0.853   1.751
10527TIP3   OH231523   5.644   7.560   1.512
10527TIP3    H131524   5.725   7.596   1.548
10527TIP3    H231525   5.588   7.545   1.588
10528TIP3   OH231526   3.090   3.036   4.269
10528TIP3    H131527   3.172   3.017   4.224
10528TIP3    H231528   3.075   3.129   4.253
10529TIP3   OH231529   6.893   3.408   3.727
10529TIP3    H131530   6.951   3.351   3.777
10529TIP3    H231531   6.947   3.484   3.704
10530TIP3   OH231532   4.249   1.054   2.192
10530TIP3    H131533   4.189   1.064   2.119
10530TIP3    H231534   4.227   1.127   2.251
10531TIP3   OH231535   0.357   2.340   6.582
10531TIP3    H131536   0.305   2.335   6.502
10531TIP3    H231537   0.326   2.420   6.625
10532TIP3   OH231538   2.905   3.735   1.684
10532TIP3    H131539   2.852   3.729   1.605
10532TIP3    H231540   2.855   3.687   1.751
10533TIP3   OH231541   0.070   1.921   5.344
10533TIP3    H131542  -0.007   1.921   5.287
10533TIP3    H231543   0.142   1.894   5.288
10534TIP3   OH231544   2.442   3.136   1.954
10534TIP3    H131545   2.451   3.070   1.885
10534TIP3    H231546   2.472   3.217   1.913
10535TIP3   OH231547   5.602   3.835   6.144
10535TIP3    H131548   5.679   3.850   6.091
10535TIP3    H231549   5.628   3.767   6.207
10536TIP3   OH231550   3.310   0.569   4.443
10536TIP3    H131551   3.367   0.619   4.385
10536TIP3    H231552   3.241   0.536   4.386
10537TIP3   OH231553   6.518   5.308   4.697
10537TIP3    H131554   6.454   5.287   4.765
10537TIP3    H231555   6.568   5.227   4.686
10538TIP3   OH231556   7.995   1.134   1.306
10538TIP3    H131557   7.983   1.135   1.211
10538TIP3    H231558   8.077   1.085   1.320
10539TIP3   OH231559   5.928   5.177   5.512
10539TIP3    H131560   5.973   5.093   5.526
10539TIP3    H231561   5.845   5.167   5.559
10540TIP3   OH231562   0.903   5.982   4.542
10540TIP3    H131563   0.967   5.913   4.561
10540TIP3    H231564   0.818   5.938   4.552
10541TIP3   OH231565   6.085   3.279   2.021
10541TIP3    H131566   6.045   3.366   2.011
10541TIP3    H231567   6.130   3.284   2.105
10542TIP3   OH231568   0.153   6.472   3.762
10542TIP3    H131569   0.179   6.448   3.673
10542TIP3    H231570   0.225   6.440   3.817
10543TIP3   OH231571   2.309   3.856   3.669
10543TIP3    H131572   2.229   3.882   3.623
10543TIP3    H231573   2.346   3.786   3.616
10544TIP3   OH231574   4.271   0.551   4.309
10544TIP3    H131575   4.287   0.459   4.333
10544TIP3    H231576   4.187   0.549   4.264
10545TIP3   OH231577   3.450   4.345   1.806
10545TIP3    H131578   3.496   4.410   1.752
10545TIP3    H231579   3.361   4.380   1.814
10546TIP3   OH231580   5.071   7.279   4.169
10546TIP3    H131581   5.125   7.353   4.140
10546TIP3    H231582   5.020   7.314   4.242
10547TIP3   OH231583   7.407   2.177   2.771
10547TIP3    H131584   7.383   2.270   2.766
10547TIP3    H231585   7.349   2.141   2.838
10548TIP3   OH231586   4.463   0.902   3.841
10548TIP3    H131587   4.461   0.883   3.748
10548TIP3    H231588   4.545   0.865   3.872
10549TIP3   OH231589   0.468   7.435   6.114
10549TIP3    H131590   0.459   7.462   6.023
10549TIP3    H231591   0.549   7.477   6.144
10550TIP3   OH231592   0.117   7.599   2.658
10550TIP3    H131593   0.025   7.601   2.685
10550TIP3    H231594   0.165   7.626   2.736
10551TIP3   OH231595   6.288   1.572   3.845
10551TIP3    H131596   6.357   1.509   3.864
10551TIP3    H231597   6.330   1.658   3.854
10552TIP3   OH231598   4.104   6.088   4.408
10552TIP3    H131599   4.090   6.036   4.487
10552TIP3    H231600   4.187   6.133   4.423
10553TIP3   OH231601   7.244   0.049   0.357
10553TIP3    H131602   7.328   0.014   0.326
10553TIP3    H231603   7.267   0.112   0.424
10554TIP3   OH231604   6.348   5.999   2.265
10554TIP3    H131605   6.386   6.019   2.179
10554TIP3    H231606   6.326   5.906   2.260
10555TIP3   OH231607   7.700   0.527   5.579
10555TIP3    H131608   7.693   0.563   5.490
10555TIP3    H231609   7.681   0.601   5.636
10556TIP3   OH231610   6.245   1.328   0.458
10556TIP3    H131611   6.234   1.256   0.521
10556TIP3    H231612   6.326   1.371   0.485
10557TIP3   OH231613   3.621   3.439   1.630
10557TIP3    H131614   3.637   3.532   1.614
10557TIP3    H231615   3.528   3.435   1.653
10558TIP3   OH231616   5.720   4.161   0.474
10558TIP3    H131617   5.712   4.066   0.479
10558TIP3    H231618   5.633   4.192   0.452
10559TIP3   OH231619   8.209   0.398   4.798
10559TIP3    H131620   8.160   0.445   4.731
10559TIP3    H231621   8.221   0.310   4.762
10560TIP3   OH231622   7.891   5.201   5.646
10560TIP3    H131623   7.863   5.162   5.564
10560TIP3    H231624   7.857   5.143   5.714
10561TIP3   OH231625   4.477   6.635   5.200
10561TIP3    H131626   4.444   6.555   5.239
10561TIP3    H231627   4.423   6.705   5.237
10562TIP3   OH231628   3.320   4.516   4.753
10562TIP3    H131629   3.269   4.595   4.774
10562TIP3    H231630   3.295   4.495   4.663
10563TIP3   OH231631   6.747   1.227   5.520
10563TIP3    H131632   6.801   1.149   5.509
10563TIP3    H231633   6.663   1.194   5.551
10564TIP3   OH231634   8.190   6.820   0.056
10564TIP3    H131635   8.169   6.899   0.106
10564TIP3    H231636   8.176   6.748   0.118
10565TIP3   OH231637   8.195   7.481   0.695
10565TIP3    H131638   8.226   7.402   0.650
10565TIP3    H231639   8.269   7.506   0.752
10566TIP3   OH231640   5.545   4.123   2.832
10566TIP3    H131641   5.616   4.063   2.855
10566TIP3    H231642   5.473   4.066   2.805
10567TIP3   OH231643   5.935   7.827   5.141
10567TIP3    H131644   6.019   7.841   5.098
10567TIP3    H231645   5.958   7.796   5.229
10568TIP3   OH231646   6.327   1.659   6.197
10568TIP3    H131647   6.328   1.586   6.135
10568TIP3    H231648   6.415   1.696   6.191
10569TIP3   OH231649   3.877   2.684   0.788
10569TIP3    H131650   3.840   2.757   0.837
10569TIP3    H231651   3.965   2.674   0.824
10570TIP3   OH231652   2.534   7.395   3.580
10570TIP3    H131653   2.528   7.355   3.494
10570TIP3    H231654   2.452   7.372   3.623
10571TIP3   OH231655   2.759   4.654   5.387
10571TIP3    H131656   2.736   4.631   5.297
10571TIP3    H231657   2.706   4.731   5.406
10572TIP3   OH231658   0.219   7.560   2.256
10572TIP3    H131659   0.291   7.540   2.316
10572TIP3    H231660   0.174   7.477   2.243
10573TIP3   OH231661   3.057   0.156   1.941
10573TIP3    H131662   3.095   0.087   1.996
10573TIP3    H231663   3.062   0.235   1.995
10574TIP3   OH231664   1.395   4.857   5.497
10574TIP3    H131665   1.348   4.884   5.419
10574TIP3    H231666   1.481   4.898   5.489
10575TIP3   OH231667   6.040   2.129   0.570
10575TIP3    H131668   6.030   2.200   0.633
10575TIP3    H231669   5.954   2.120   0.530
10576TIP3   OH231670   6.967   3.921   6.322
10576TIP3    H131671   6.998   3.870   6.397
10576TIP3    H231672   6.990   4.012   6.344
10577TIP3   OH231673   4.338   6.667   5.807
10577TIP3    H131674   4.313   6.585   5.764
10577TIP3    H231675   4.432   6.672   5.795
10578TIP3   OH231676  -0.009   0.976   0.241
10578TIP3    H131677  -0.034   0.884   0.226
10578TIP3    H231678   0.010   0.981   0.334
10579TIP3   OH231679   0.538   3.927   2.848
10579TIP3    H131680   0.584   3.963   2.924
10579TIP3    H231681   0.486   4.000   2.815
10580TIP3   OH231682   1.733   2.467   3.859
10580TIP3    H131683   1.668   2.482   3.928
10580TIP3    H231684   1.766   2.554   3.838
10581TIP3   OH231685   6.951   4.712   4.203
10581TIP3    H131686   6.962   4.617   4.197
10581TIP3    H231687   6.860   4.723   4.232
10582TIP3   OH231688   6.754   2.775   2.358
10582TIP3    H131689   6.659   2.763   2.347
10582TIP3    H231690   6.781   2.820   2.278
10583TIP3   OH231691   0.359   7.332   6.594
10583TIP3    H131692   0.399   7.248   6.617
10583TIP3    H231693   0.417   7.368   6.526
10584TIP3   OH231694   8.283   2.995   4.394
10584TIP3    H131695   8.345   2.979   4.465
10584TIP3    H231696   8.212   3.045   4.434
10585TIP3   OH231697   7.580   7.555   4.477
10585TIP3    H131698   7.652   7.525   4.534
10585TIP3    H231699   7.502   7.545   4.531
10586TIP3   OH231700   6.663   0.564   1.346
10586TIP3    H131701   6.659   0.656   1.319
10586TIP3    H231702   6.573   0.541   1.368
10587TIP3   OH231703   3.471   7.749   1.707
10587TIP3    H131704   3.427   7.764   1.791
10587TIP3    H231705   3.525   7.828   1.694
10588TIP3   OH231706   2.883   4.414   0.235
10588TIP3    H131707   2.856   4.392   0.146
10588TIP3    H231708   2.957   4.355   0.253
10589TIP3   OH231709   7.182   7.230   0.624
10589TIP3    H131710   7.106   7.247   0.680
10589TIP3    H231711   7.221   7.151   0.659
10590TIP3   OH231712   2.075   1.111   2.492
10590TIP3    H131713   1.987   1.136   2.464
10590TIP3    H231714   2.133   1.158   2.433
10591TIP3   OH231715   8.189   4.445   5.272
10591TIP3    H131716   8.250   4.396   5.216
10591TIP3    H231717   8.233   4.451   5.357
10592TIP3   OH231718   7.059   5.861   2.822
10592TIP3    H131719   7.145   5.882   2.786
10592TIP3    H231720   7.026   5.791   2.765
10593TIP3   OH231721   1.842   1.205   6.090
10593TIP3    H131722   1.868   1.297   6.092
10593TIP3    H231723   1.757   1.203   6.134
10594TIP3   OH231724   5.206   4.624   5.033
10594TIP3    H131725   5.293   4.596   5.061
10594TIP3    H231726   5.204   4.607   4.939
10595TIP3   OH231727   7.347   3.913   0.799
10595TIP3    H131728   7.390   3.828   0.806
10595TIP3    H231729   7.258   3.893   0.772
10596TIP3   OH231730   5.193   0.937   2.096
10596TIP3    H131731   5.202   0.904   2.006
10596TIP3    H231732   5.146   1.020   2.087
10597TIP3   OH231733   6.575   3.119   5.489
10597TIP3    H131734   6.513   3.105   5.418
10597TIP3    H231735   6.632   3.189   5.457
10598TIP3   OH231736   7.463   0.286   2.331
10598TIP3    H131737   7.495   0.365   2.288
10598TIP3    H231738   7.541   0.230   2.338
10599TIP3   OH231739   5.810   3.472   4.119
10599TIP3    H131740   5.859   3.434   4.045
10599TIP3    H231741   5.720   3.443   4.106
10600TIP3   OH231742   7.185   1.427   4.670
10600TIP3    H131743   7.264   1.396   4.627
10600TIP3    H231744   7.176   1.371   4.747
10601TIP3   OH231745   5.376   1.808   1.385
10601TIP3    H131746   5.407   1.899   1.390
10601TIP3    H231747   5.281   1.815   1.391
10602TIP3   OH231748   2.458   1.509   1.019
10602TIP3    H131749   2.370   1.511   0.982
10602TIP3    H231750   2.471   1.418   1.045
10603TIP3   OH231751   5.614   3.398   3.131
10603TIP3    H131752   5.522   3.373   3.128
10603TIP3    H231753   5.640   3.381   3.221
10604TIP3   OH231754   2.677   4.297   5.722
10604TIP3    H131755   2.738   4.264   5.788
10604TIP3    H231756   2.731   4.353   5.666
10605TIP3   OH231757   3.283   2.573   0.338
10605TIP3    H131758   3.231   2.506   0.384
10605TIP3    H231759   3.371   2.563   0.374
10606TIP3   OH231760   8.051   0.453   0.839
10606TIP3    H131761   7.977   0.398   0.864
10606TIP3    H231762   8.035   0.473   0.747
10607TIP3   OH231763   0.362   7.357   5.639
10607TIP3    H131764   0.299   7.287   5.658
10607TIP3    H231765   0.423   7.317   5.576
10608TIP3   OH231766   7.353   2.109   1.428
10608TIP3    H131767   7.392   2.057   1.498
10608TIP3    H231768   7.344   2.049   1.354
10609TIP3   OH231769   5.790   1.342   2.369
10609TIP3    H131770   5.780   1.307   2.458
10609TIP3    H231771   5.883   1.332   2.350
10610TIP3   OH231772   7.086   6.785   4.186
10610TIP3    H131773   7.025   6.848   4.148
10610TIP3    H231774   7.059   6.700   4.149
10611TIP3   OH231775   4.149   2.268   4.653
10611TIP3    H131776   4.111   2.222   4.577
10611TIP3    H231777   4.230   2.219   4.671
10612TIP3   OH231778   2.316   4.825   2.656
10612TIP3    H131779   2.386   4.791   2.601
10612TIP3    H231780   2.346   4.912   2.683
10613TIP3   OH231781   6.908   6.266   0.835
10613TIP3    H131782   6.951   6.343   0.872
10613TIP3    H231783   6.895   6.208   0.910
10614TIP3   OH231784   6.926   0.394   4.431
10614TIP3    H131785   6.992   0.350   4.378
10614TIP3    H231786   6.905   0.474   4.382
10615TIP3   OH231787   5.291   2.447   0.242
10615TIP3    H131788   5.272   2.485   0.328
10615TIP3    H231789   5.256   2.511   0.180
10616TIP3   OH231790   1.450   7.336   1.629
10616TIP3    H131791   1.430   7.429   1.638
10616TIP3    H231792   1.406   7.294   1.702
10617TIP3   OH231793   2.933   1.437   4.129
10617TIP3    H131794   2.974   1.351   4.137
10617TIP3    H231795   2.841   1.422   4.149
10618TIP3   OH231796   3.654   2.070   4.506
10618TIP3    H131797   3.704   2.129   4.449
10618TIP3    H231798   3.563   2.089   4.485
10619TIP3   OH231799   0.107   0.217   5.038
10619TIP3    H131800   0.119   0.278   5.110
10619TIP3    H231801   0.064   0.269   4.969
10620TIP3   OH231802   2.644   3.979   2.277
10620TIP3    H131803   2.718   4.031   2.309
10620TIP3    H231804   2.583   3.978   2.350
10621TIP3   OH231805   2.740   5.074   4.495
10621TIP3    H131806   2.756   5.165   4.520
10621TIP3    H231807   2.661   5.050   4.544
10622TIP3   OH231808   2.971   6.889   1.928
10622TIP3    H131809   3.029   6.918   1.999
10622TIP3    H231810   3.000   6.938   1.851
10623TIP3   OH231811   8.178   4.829   3.633
10623TIP3    H131812   8.085   4.812   3.616
10623TIP3    H231813   8.217   4.839   3.546
10624TIP3   OH231814   7.447   6.475   4.326
10624TIP3    H131815   7.408   6.491   4.240
10624TIP3    H231816   7.394   6.404   4.364
10625TIP3   OH231817   2.390   3.639   5.797
10625TIP3    H131818   2.434   3.724   5.792
10625TIP3    H231819   2.366   3.619   5.707
10626TIP3   OH231820   8.083   2.931   5.701
10626TIP3    H131821   8.008   2.990   5.691
10626TIP3    H231822   8.074   2.897   5.790
10627TIP3   OH231823   0.598   6.228   4.905
10627TIP3    H131824   0.604   6.299   4.969
10627TIP3    H231825   0.670   6.246   4.844
10628TIP3   OH231826   6.314   0.940   3.907
10628TIP3    H131827   6.410   0.944   3.913
10628TIP3    H231828   6.286   1.031   3.903
10629TIP3   OH231829   3.298   7.543   1.212
10629TIP3    H131830   3.240   7.582   1.278
10629TIP3    H231831   3.238   7.514   1.143
10630TIP3   OH231832   2.836   5.873   0.351
10630TIP3    H131833   2.783   5.953   0.346
10630TIP3    H231834   2.895   5.879   0.276
10631TIP3   OH231835   0.908   7.440   4.512
10631TIP3    H131836   0.952   7.475   4.434
10631TIP3    H231837   0.914   7.511   4.576
10632TIP3   OH231838   8.110   2.543   5.294
10632TIP3    H131839   8.163   2.464   5.306
10632TIP3    H231840   8.146   2.586   5.217
10633TIP3   OH231841   0.087   3.485   3.173
10633TIP3    H131842   0.029   3.550   3.213
10633TIP3    H231843   0.045   3.462   3.090
10634TIP3   OH231844   6.264   6.099   5.236
10634TIP3    H131845   6.288   6.025   5.291
10634TIP3    H231846   6.193   6.066   5.181
10635TIP3   OH231847   0.617   6.750   5.644
10635TIP3    H131848   0.708   6.753   5.670
10635TIP3    H231849   0.580   6.832   5.675
10636TIP3   OH231850   8.078   2.392   1.883
10636TIP3    H131851   8.015   2.333   1.925
10636TIP3    H231852   8.089   2.464   1.945
10637TIP3   OH231853   7.684   4.463   5.542
10637TIP3    H131854   7.638   4.486   5.462
10637TIP3    H231855   7.730   4.382   5.521
10638TIP3   OH231856   4.515   1.480   0.060
10638TIP3    H131857   4.544   1.489   0.151
10638TIP3    H231858   4.590   1.508   0.008
10639TIP3   OH231859   1.974   4.420   6.324
10639TIP3    H131860   1.919   4.348   6.355
10639TIP3    H231861   1.914   4.492   6.309
10640TIP3   OH231862   4.869   2.619   5.682
10640TIP3    H131863   4.837   2.540   5.727
10640TIP3    H231864   4.790   2.660   5.647
10641TIP3   OH231865   2.829   7.458   2.785
10641TIP3    H131866   2.833   7.519   2.712
10641TIP3    H231867   2.759   7.397   2.763
10642TIP3   OH231868   6.050   5.281   4.439
10642TIP3    H131869   6.136   5.296   4.478
10642TIP3    H231870   6.068   5.239   4.355
10643TIP3   OH231871   3.534   3.803   0.208
10643TIP3    H131872   3.443   3.813   0.178
10643TIP3    H231873   3.551   3.881   0.261
10644TIP3   OH231874   6.328   0.663   3.703
10644TIP3    H131875   6.256   0.663   3.641
10644TIP3    H231876   6.403   0.693   3.652
10645TIP3   OH231877   7.559   2.722   3.557
10645TIP3    H131878   7.617   2.786   3.599
10645TIP3    H231879   7.479   2.771   3.539
10646TIP3   OH231880   0.299   2.167   6.026
10646TIP3    H131881   0.306   2.124   6.111
10646TIP3    H231882   0.207   2.159   6.002
10647TIP3   OH231883   2.903   5.857   4.332
10647TIP3    H131884   2.957   5.937   4.328
10647TIP3    H231885   2.814   5.888   4.317
10648TIP3   OH231886   3.269   4.495   1.207
10648TIP3    H131887   3.360   4.497   1.179
10648TIP3    H231888   3.255   4.405   1.236
10649TIP3   OH231889   1.884   3.494   6.423
10649TIP3    H131890   1.881   3.398   6.433
10649TIP3    H231891   1.909   3.526   6.509
10650TIP3   OH231892   7.152   3.272   1.678
10650TIP3    H131893   7.058   3.272   1.661
10650TIP3    H231894   7.167   3.350   1.732
10651TIP3   OH231895   7.590   1.437   3.410
10651TIP3    H131896   7.511   1.402   3.453
10651TIP3    H231897   7.556   1.488   3.336
10652TIP3   OH231898   5.527   2.993   4.184
10652TIP3    H131899   5.570   2.920   4.228
10652TIP3    H231900   5.469   3.030   4.251
10653TIP3   OH231901   3.545   0.009   1.463
10653TIP3    H131902   3.529   0.098   1.493
10653TIP3    H231903   3.462  -0.020   1.426
10654TIP3   OH231904   2.797   2.383   6.369
10654TIP3    H131905   2.816   2.306   6.316
10654TIP3    H231906   2.702   2.380   6.383
10655TIP3   OH231907   8.000   7.150   3.760
10655TIP3    H131908   7.950   7.088   3.707
10655TIP3    H231909   8.091   7.134   3.735
10656TIP3   OH231910   3.325   4.866   3.577
10656TIP3    H131911   3.366   4.785   3.547
10656TIP3    H231912   3.320   4.921   3.499
10657TIP3   OH231913   5.613   2.769   4.322
10657TIP3    H131914   5.641   2.768   4.414
10657TIP3    H231915   5.651   2.690   4.285
10658TIP3   OH231916   3.266   0.770   0.528
10658TIP3    H131917   3.269   0.737   0.617
10658TIP3    H231918   3.273   0.865   0.537
10659TIP3   OH231919   5.088   6.229   6.027
10659TIP3    H131920   5.164   6.282   6.003
10659TIP3    H231921   5.017   6.292   6.035
10660TIP3   OH231922   1.060   7.018   2.440
10660TIP3    H131923   0.983   6.964   2.460
10660TIP3    H231924   1.123   6.996   2.508
10661TIP3   OH231925   1.272   3.121   2.005
10661TIP3    H131926   1.363   3.145   1.989
10661TIP3    H231927   1.245   3.175   2.079
10662TIP3   OH231928   8.097   2.977   2.912
10662TIP3    H131929   8.026   2.935   2.960
10662TIP3    H231930   8.092   3.069   2.939
10663TIP3   OH231931   3.948   0.566   0.972
10663TIP3    H131932   3.908   0.638   1.020
10663TIP3    H231933   4.003   0.522   1.037
10664TIP3   OH231934   3.911   1.394   1.986
10664TIP3    H131935   3.918   1.355   1.899
10664TIP3    H231936   3.859   1.474   1.972
10665TIP3   OH231937   1.497   1.885   0.340
10665TIP3    H131938   1.504   1.815   0.405
10665TIP3    H231939   1.405   1.912   0.345
10666TIP3   OH231940   8.172   7.002   5.242
10666TIP3    H131941   8.163   6.919   5.196
10666TIP3    H231942   8.240   6.986   5.307
10667TIP3   OH231943   4.135   4.965   4.336
10667TIP3    H131944   4.051   4.985   4.377
10667TIP3    H231945   4.121   4.880   4.294
10668TIP3   OH231946   0.124   0.973   2.403
10668TIP3    H131947   0.211   0.934   2.406
10668TIP3    H231948   0.109   1.004   2.493
10669TIP3   OH231949   7.542   4.312   3.537
10669TIP3    H131950   7.549   4.291   3.444
10669TIP3    H231951   7.454   4.348   3.547
10670TIP3   OH231952   1.210   1.030   5.105
10670TIP3    H131953   1.118   1.029   5.079
10670TIP3    H231954   1.211   0.989   5.192
10671TIP3   OH231955   1.448   7.677   4.561
10671TIP3    H131956   1.386   7.667   4.489
10671TIP3    H231957   1.488   7.763   4.547
10672TIP3   OH231958   5.884   4.544   3.669
10672TIP3    H131959   5.902   4.623   3.719
10672TIP3    H231960   5.945   4.547   3.596
10673TIP3   OH231961   5.161   0.109   1.185
10673TIP3    H131962   5.256   0.109   1.185
10673TIP3    H231963   5.137   0.202   1.186
10674TIP3   OH231964   3.355   0.698   5.324
10674TIP3    H131965   3.316   0.703   5.236
10674TIP3    H231966   3.280   0.702   5.383
10675TIP3   OH231967   6.595   2.480   3.095
10675TIP3    H131968   6.650   2.542   3.047
10675TIP3    H231969   6.656   2.420   3.137
10676TIP3   OH231970   2.813   2.679   0.549
10676TIP3    H131971   2.844   2.663   0.639
10676TIP3    H231972   2.831   2.596   0.503
10677TIP3   OH231973   7.783   2.522   1.149
10677TIP3    H131974   7.699   2.517   1.195
10677TIP3    H231975   7.848   2.529   1.219
10678TIP3   OH231976   6.412   6.607   4.234
10678TIP3    H131977   6.425   6.524   4.281
10678TIP3    H231978   6.492   6.617   4.181
10679TIP3   OH231979   5.772   2.006   4.239
10679TIP3    H131980   5.864   1.986   4.221
10679TIP3    H231981   5.773   2.054   4.322
10680TIP3   OH231982   8.146   6.454   1.478
10680TIP3    H131983   8.173   6.514   1.408
10680TIP3    H231984   8.186   6.371   1.456
10681TIP3   OH231985   5.543   1.374   2.770
10681TIP3    H131986   5.499   1.442   2.719
10681TIP3    H231987   5.502   1.380   2.857
10682TIP3   OH231988   7.732   5.542   3.930
10682TIP3    H131989   7.705   5.632   3.949
10682TIP3    H231990   7.705   5.527   3.839
10683TIP3   OH231991   5.746   1.393  -0.019
10683TIP3    H131992   5.729   1.415   0.073
10683TIP3    H231993   5.686   1.448  -0.068
10684TIP3   OH231994   7.501   5.885   2.480
10684TIP3    H131995   7.559   5.820   2.520
10684TIP3    H231996   7.508   5.962   2.537
10685TIP3   OH231997   2.757   5.349   4.520
10685TIP3    H131998   2.715   5.381   4.440
10685TIP3    H231999   2.684   5.335   4.581
10686TIP3   OH232000   3.264   7.183   0.582
10686TIP3    H132001   3.318   7.255   0.551
10686TIP3    H232002   3.174   7.210   0.561
10687TIP3   OH232003   7.347   3.205   2.295
10687TIP3    H132004   7.431   3.194   2.250
10687TIP3    H232005   7.301   3.123   2.279
10688TIP3   OH232006   3.385   2.021   2.583
10688TIP3    H132007   3.473   1.997   2.556
10688TIP3    H232008   3.374   1.981   2.669
10689TIP3   OH232009   3.085   5.268   6.069
10689TIP3    H132010   2.990   5.258   6.063
10689TIP3    H232011   3.116   5.253   5.980
10690TIP3   OH232012   6.201   4.402   5.341
10690TIP3    H132013   6.217   4.488   5.380
10690TIP3    H232014   6.188   4.419   5.248
10691TIP3   OH232015   2.930   6.713   0.435
10691TIP3    H132016   2.938   6.677   0.347
10691TIP3    H232017   2.869   6.655   0.480
10692TIP3   OH232018   3.559   3.065   4.422
10692TIP3    H132019   3.517   3.020   4.348
10692TIP3    H232020   3.617   3.129   4.382
10693TIP3   OH232021   5.322   3.545   4.045
10693TIP3    H132022   5.387   3.615   4.056
10693TIP3    H232023   5.321   3.499   4.129
10694TIP3   OH232024   2.026   0.510   2.267
10694TIP3    H132025   1.944   0.468   2.295
10694TIP3    H232026   2.095   0.462   2.313
10695TIP3   OH232027   1.306   1.000   4.143
10695TIP3    H132028   1.338   1.030   4.058
10695TIP3    H232029   1.219   0.964   4.124
10696TIP3   OH232030   3.780   3.973   2.987
10696TIP3    H132031   3.726   4.050   3.000
10696TIP3    H232032   3.732   3.920   2.923
10697TIP3   OH232033   2.176   2.502   6.570
10697TIP3    H132034   2.188   2.581   6.517
10697TIP3    H232035   2.081   2.494   6.581
10698TIP3   OH232036   6.901   1.455   5.275
10698TIP3    H132037   6.965   1.385   5.288
10698TIP3    H232038   6.928   1.497   5.193
10699TIP3   OH232039   0.269   4.850   2.359
10699TIP3    H132040   0.318   4.807   2.289
10699TIP3    H232041   0.177   4.830   2.340
10700TIP3   OH232042   7.087   6.401   0.401
10700TIP3    H132043   7.108   6.369   0.489
10700TIP3    H232044   6.998   6.435   0.410
10701TIP3   OH232045   2.522   5.173   3.465
10701TIP3    H132046   2.441   5.126   3.444
10701TIP3    H232047   2.513   5.195   3.558
10702TIP3   OH232048   1.726   3.866   4.211
10702TIP3    H132049   1.774   3.816   4.145
10702TIP3    H232050   1.679   3.933   4.160
10703TIP3   OH232051   6.824   6.039   0.597
10703TIP3    H132052   6.798   6.123   0.635
10703TIP3    H232053   6.742   5.999   0.568
10704TIP3   OH232054   6.520   2.326   2.184
10704TIP3    H132055   6.493   2.322   2.276
10704TIP3    H232056   6.477   2.405   2.151
10705TIP3   OH232057   7.306   3.060   1.718
10705TIP3    H132058   7.276   3.147   1.694
10705TIP3    H232059   7.240   3.000   1.682
10706TIP3   OH232060   5.484   0.010   1.644
10706TIP3    H132061   5.580   0.014   1.647
10706TIP3    H232062   5.462   0.049   1.559
10707TIP3   OH232063   0.242   6.227   2.807
10707TIP3    H132064   0.162   6.249   2.854
10707TIP3    H232065   0.234   6.272   2.723
10708TIP3   OH232066   2.581   4.287   3.190
10708TIP3    H132067   2.669   4.249   3.194
10708TIP3    H232068   2.528   4.221   3.146
10709TIP3   OH232069   8.169   1.865   4.050
10709TIP3    H132070   8.220   1.936   4.089
10709TIP3    H232071   8.093   1.907   4.012
10710TIP3   OH232072   1.783   1.391   1.529
10710TIP3    H132073   1.857   1.378   1.470
10710TIP3    H232074   1.708   1.356   1.481
10711TIP3   OH232075   1.907   0.857   5.103
10711TIP3    H132076   1.962   0.882   5.028
10711TIP3    H232077   1.968   0.818   5.166
10712TIP3   OH232078   4.177   2.586   5.187
10712TIP3    H132079   4.115   2.648   5.148
10712TIP3    H232080   4.208   2.533   5.114
10713TIP3   OH232081   4.647   5.241   5.480
10713TIP3    H132082   4.702   5.205   5.411
10713TIP3    H232083   4.638   5.334   5.457
10714TIP3   OH232084   4.575   5.388   1.751
10714TIP3    H132085   4.552   5.360   1.840
10714TIP3    H232086   4.519   5.464   1.734
10715TIP3   OH232087   2.533   5.725   0.512
10715TIP3    H132088   2.462   5.714   0.450
10715TIP3    H232089   2.541   5.640   0.556
10716TIP3   OH232090   7.293   1.853   2.163
10716TIP3    H132091   7.306   1.892   2.249
10716TIP3    H232092   7.315   1.761   2.175
10717TIP3   OH232093   6.748   5.661   4.482
10717TIP3    H132094   6.755   5.717   4.406
10717TIP3    H232095   6.670   5.607   4.465
10718TIP3   OH232096   1.133   0.527   3.135
10718TIP3    H132097   1.137   0.493   3.046
10718TIP3    H232098   1.041   0.551   3.148
10719TIP3   OH232099   4.792   5.248   6.670
10719TIP3    H132100   4.814   5.337   6.643
10719TIP3    H232101   4.875   5.200   6.667
10720TIP3   OH232102   7.306   6.266   1.620
10720TIP3    H132103   7.261   6.239   1.540
10720TIP3    H232104   7.249   6.236   1.691
10721TIP3   OH232105   7.357   3.891   4.338
10721TIP3    H132106   7.332   3.836   4.264
10721TIP3    H232107   7.285   3.882   4.400
10722TIP3   OH232108   3.842   5.126   0.060
10722TIP3    H132109   3.895   5.193   0.016
10722TIP3    H232110   3.753   5.142   0.031
10723TIP3   OH232111   1.847   1.424   2.740
10723TIP3    H132112   1.753   1.417   2.758
10723TIP3    H232113   1.871   1.512   2.771
10724TIP3   OH232114   6.628   4.487   3.915
10724TIP3    H132115   6.658   4.451   3.832
10724TIP3    H232116   6.611   4.579   3.896
10725TIP3   OH232117   5.849   2.796   0.593
10725TIP3    H132118   5.838   2.748   0.511
10725TIP3    H232119   5.931   2.844   0.582
10726TIP3   OH232120   4.873   6.147   3.991
10726TIP3    H132121   4.858   6.182   3.903
10726TIP3    H232122   4.963   6.173   4.012
10727TIP3   OH232123   4.374   4.769   5.792
10727TIP3    H132124   4.420   4.687   5.812
10727TIP3    H232125   4.350   4.761   5.700
10728TIP3   OH232126   2.132   3.196   2.383
10728TIP3    H132127   2.189   3.192   2.459
10728TIP3    H232128   2.192   3.200   2.308
10729TIP3   OH232129   5.465   4.159   2.292
10729TIP3    H132130   5.414   4.207   2.228
10729TIP3    H232131   5.400   4.112   2.345
10730TIP3   OH232132   0.166   2.102   3.396
10730TIP3    H132133   0.141   2.157   3.321
10730TIP3    H232134   0.085   2.060   3.423
10731TIP3   OH232135   4.815   7.496   1.063
10731TIP3    H132136   4.905   7.492   1.033
10731TIP3    H232137   4.810   7.579   1.112
10732TIP3   OH232138   4.759   1.479   1.540
10732TIP3    H132139   4.669   1.475   1.510
10732TIP3    H232140   4.776   1.573   1.553
10733TIP3   OH232141   4.046   0.237   2.739
10733TIP3    H132142   4.081   0.212   2.825
10733TIP3    H232143   4.081   0.325   2.723
10734TIP3   OH232144   0.397   2.715   6.288
10734TIP3    H132145   0.371   2.729   6.197
10734TIP3    H232146   0.350   2.636   6.315
10735TIP3   OH232147   7.475   5.926   0.799
10735TIP3    H132148   7.413   5.859   0.770
10735TIP3    H232149   7.558   5.880   0.807
10736TIP3   OH232150   1.686   0.084   6.495
10736TIP3    H132151   1.746   0.023   6.538
10736TIP3    H232152   1.691   0.164   6.548
10737TIP3   OH232153   6.883   6.543   3.590
10737TIP3    H132154   6.925   6.499   3.664
10737TIP3    H232155   6.923   6.503   3.512
10738TIP3   OH232156   1.274   1.561   1.351
10738TIP3    H132157   1.307   1.632   1.296
10738TIP3    H232158   1.190   1.592   1.384
10739TIP3   OH232159   0.823   6.708   2.344
10739TIP3    H132160   0.819   6.613   2.352
10739TIP3    H232161   0.778   6.727   2.261
10740TIP3   OH232162   4.559   7.307   2.353
10740TIP3    H132163   4.644   7.297   2.310
10740TIP3    H232164   4.551   7.402   2.367
10741TIP3   OH232165   4.541   6.019   1.320
10741TIP3    H132166   4.590   6.092   1.282
10741TIP3    H232167   4.577   5.942   1.276
10742TIP3   OH232168   2.286   6.106   0.920
10742TIP3    H132169   2.295   6.169   0.992
10742TIP3    H232170   2.369   6.114   0.872
10743TIP3   OH232171   8.037   0.755   1.741
10743TIP3    H132172   8.007   0.760   1.651
10743TIP3    H232173   8.014   0.839   1.779
10744TIP3   OH232174   2.385   2.238   6.622
10744TIP3    H132175   2.340   2.319   6.647
10744TIP3    H232176   2.323   2.168   6.645
10745TIP3   OH232177   6.231   3.588   2.992
10745TIP3    H132178   6.292   3.663   2.992
10745TIP3    H232179   6.269   3.527   2.929
10746TIP3   OH232180   6.179   1.228   3.772
10746TIP3    H132181   6.110   1.286   3.804
10746TIP3    H232182   6.140   1.184   3.696
10747TIP3   OH232183   1.476   2.302   5.348
10747TIP3    H132184   1.446   2.346   5.268
10747TIP3    H232185   1.568   2.325   5.355
10748TIP3   OH232186   7.996   2.123   0.074
10748TIP3    H132187   7.931   2.053   0.082
10748TIP3    H232188   7.957   2.186   0.014
10749TIP3   OH232189   5.192   6.091   2.307
10749TIP3    H132190   5.241   6.129   2.380
10749TIP3    H232191   5.108   6.137   2.308
10750TIP3   OH232192   7.715   0.483   0.495
10750TIP3    H132193   7.810   0.473   0.495
10750TIP3    H232194   7.688   0.457   0.583
10751TIP3   OH232195   2.618   6.746   6.024
10751TIP3    H132196   2.565   6.706   5.954
10751TIP3    H232197   2.707   6.714   6.008
10752TIP3   OH232198   3.941   2.126   4.432
10752TIP3    H132199   3.952   2.138   4.338
10752TIP3    H232200   3.939   2.215   4.467
10753TIP3   OH232201   5.114   6.988   1.644
10753TIP3    H132202   5.056   7.062   1.626
10753TIP3    H232203   5.114   6.979   1.739
10754TIP3   OH232204   6.572   7.349   4.268
10754TIP3    H132205   6.547   7.299   4.190
10754TIP3    H232206   6.488   7.376   4.307
10755TIP3   OH232207   7.202   2.959   4.853
10755TIP3    H132208   7.173   2.868   4.855
10755TIP3    H232209   7.227   2.975   4.762
10756TIP3   OH232210   2.247   7.441   4.068
10756TIP3    H132211   2.219   7.366   4.016
10756TIP3    H232212   2.271   7.404   4.153
10757TIP3   OH232213   5.020   3.134   6.527
10757TIP3    H132214   5.074   3.106   6.453
10757TIP3    H232215   5.075   3.116   6.604
10758TIP3   OH232216   7.505   6.753   5.713
10758TIP3    H132217   7.512   6.755   5.617
10758TIP3    H232218   7.445   6.824   5.734
10759TIP3   OH232219   2.016   6.682   0.903
10759TIP3    H132220   2.088   6.618   0.902
10759TIP3    H232221   1.970   6.665   0.986
10760TIP3   OH232222   0.820   4.372   2.720
10760TIP3    H132223   0.844   4.290   2.677
10760TIP3    H232224   0.812   4.350   2.813
10761TIP3   OH232225   1.156   2.552   3.665
10761TIP3    H132226   1.238   2.519   3.701
10761TIP3    H232227   1.140   2.498   3.587
10762TIP3   OH232228   3.319   4.240   6.137
10762TIP3    H132229   3.249   4.292   6.176
10762TIP3    H232230   3.387   4.237   6.205
10763TIP3   OH232231   1.871   3.052   6.625
10763TIP3    H132232   1.936   3.025   6.690
10763TIP3    H232233   1.828   2.970   6.599
10764TIP3   OH232234   2.751   5.606   0.310
10764TIP3    H132235   2.834   5.562   0.326
10764TIP3    H232236   2.767   5.698   0.334
10765TIP3   OH232237   3.620   1.814   2.430
10765TIP3    H132238   3.688   1.767   2.381
10765TIP3    H232239   3.654   1.903   2.439
10766TIP3   OH232240   2.534   1.004   1.177
10766TIP3    H132241   2.520   0.985   1.084
10766TIP3    H232242   2.514   0.922   1.221
10767TIP3   OH232243   4.628   7.595   2.210
10767TIP3    H132244   4.723   7.587   2.208
10767TIP3    H232245   4.611   7.663   2.275
10768TIP3   OH232246   4.769   5.455   5.842
10768TIP3    H132247   4.842   5.455   5.779
10768TIP3    H232248   4.738   5.546   5.843
10769TIP3   OH232249   3.105   5.145   0.268
10769TIP3    H132250   3.116   5.160   0.174
10769TIP3    H232251   3.054   5.064   0.274
10770TIP3   OH232252   7.143   7.802   4.523
10770TIP3    H132253   7.088   7.816   4.446
10770TIP3    H232254   7.103   7.727   4.567
10771TIP3   OH232255   5.036   2.690   5.029
10771TIP3    H132256   4.941   2.687   5.011
10771TIP3    H232257   5.074   2.717   4.946
10772TIP3   OH232258   2.837   2.972   0.086
10772TIP3    H132259   2.893   3.026   0.030
10772TIP3    H232260   2.772   2.934   0.027
10773TIP3   OH232261   6.672   2.281   0.677
10773TIP3    H132262   6.747   2.340   0.663
10773TIP3    H232263   6.698   2.199   0.633
10774TIP3   OH232264   4.715   6.480   3.439
10774TIP3    H132265   4.728   6.462   3.532
10774TIP3    H232266   4.717   6.576   3.433
10775TIP3   OH232267   7.726   0.337   6.095
10775TIP3    H132268   7.674   0.265   6.132
10775TIP3    H232269   7.697   0.342   6.004
10776TIP3   OH232270   2.973   3.023   3.870
10776TIP3    H132271   3.033   2.965   3.823
10776TIP3    H232272   2.975   2.991   3.960
10777TIP3   OH232273   2.995   5.285   1.412
10777TIP3    H132274   3.061   5.301   1.345
10777TIP3    H232275   2.995   5.190   1.424
10778TIP3   OH232276   7.850   1.162   1.530
10778TIP3    H132277   7.899   1.148   1.450
10778TIP3    H232278   7.886   1.242   1.568
10779TIP3   OH232279   4.479   3.748   5.290
10779TIP3    H132280   4.552   3.791   5.244
10779TIP3    H232281   4.515   3.663   5.317
10780TIP3   OH232282   2.448   2.166   4.668
10780TIP3    H132283   2.402   2.139   4.748
10780TIP3    H232284   2.386   2.146   4.598
10781TIP3   OH232285   1.233   4.031   5.229
10781TIP3    H132286   1.256   4.004   5.140
10781TIP3    H232287   1.151   4.080   5.219
10782TIP3   OH232288   6.543   4.630   6.510
10782TIP3    H132289   6.635   4.608   6.526
10782TIP3    H232290   6.517   4.571   6.439
10783TIP3   OH232291   4.067   2.417   6.455
10783TIP3    H132292   4.089   2.475   6.528
10783TIP3    H232293   3.987   2.455   6.418
10784TIP3   OH232294   3.694   5.262   5.528
10784TIP3    H132295   3.767   5.293   5.475
10784TIP3    H232296   3.720   5.174   5.555
10785TIP3   OH232297   6.340   3.146   1.917
10785TIP3    H132298   6.289   3.071   1.949
10785TIP3    H232299   6.337   3.139   1.822
10786TIP3   OH232300   6.809   6.436   0.464
10786TIP3    H132301   6.733   6.490   0.442
10786TIP3    H232302   6.773   6.361   0.512
10787TIP3   OH232303   2.114   1.017   4.559
10787TIP3    H132304   2.075   1.090   4.510
10787TIP3    H232305   2.089   0.939   4.511
10788TIP3   OH232306   7.112   4.094   2.573
10788TIP3    H132307   7.148   4.162   2.631
10788TIP3    H232308   7.122   4.130   2.485
10789TIP3   OH232309   2.537   4.802   4.023
10789TIP3    H132310   2.473   4.809   4.094
10789TIP3    H232311   2.607   4.748   4.059
10790TIP3   OH232312   0.039   4.623   1.713
10790TIP3    H132313   0.084   4.561   1.654
10790TIP3    H232314   0.012   4.695   1.656
10791TIP3   OH232315   2.948   0.645   3.825
10791TIP3    H132316   2.859   0.660   3.855
10791TIP3    H232317   2.940   0.631   3.731
10792TIP3   OH232318   7.025   0.352   2.693
10792TIP3    H132319   7.007   0.295   2.618
10792TIP3    H232320   6.997   0.301   2.769
10793TIP3   OH232321   0.445   3.167   1.275
10793TIP3    H132322   0.380   3.169   1.205
10793TIP3    H232323   0.435   3.251   1.319
10794TIP3   OH232324   7.009   5.783   2.508
10794TIP3    H132325   7.009   5.709   2.569
10794TIP3    H232326   6.962   5.750   2.431
10795TIP3   OH232327   4.893   6.818   1.364
10795TIP3    H132328   4.842   6.889   1.404
10795TIP3    H232329   4.984   6.845   1.375
10796TIP3   OH232330   7.796   0.629   4.687
10796TIP3    H132331   7.735   0.593   4.752
10796TIP3    H232332   7.862   0.560   4.675
10797TIP3   OH232333   3.895   6.061   2.649
10797TIP3    H132334   3.827   6.106   2.698
10797TIP3    H232335   3.977   6.099   2.681
10798TIP3   OH232336   4.050   4.865   3.665
10798TIP3    H132337   4.031   4.914   3.584
10798TIP3    H232338   3.966   4.825   3.688
10799TIP3   OH232339   2.357   6.084   1.700
10799TIP3    H132340   2.288   6.107   1.761
10799TIP3    H232341   2.401   6.167   1.680
10800TIP3   OH232342   7.383   7.040   0.705
10800TIP3    H132343   7.436   7.118   0.690
10800TIP3    H232344   7.422   6.972   0.650
10801TIP3   OH232345   5.529   6.289   4.323
10801TIP3    H132346   5.612   6.254   4.356
10801TIP3    H232347   5.462   6.232   4.361
10802TIP3   OH232348   4.001   6.696   4.248
10802TIP3    H132349   3.912   6.679   4.279
10802TIP3    H232350   4.044   6.610   4.250
10803TIP3   OH232351   5.110   1.434   6.048
10803TIP3    H132352   5.030   1.384   6.032
10803TIP3    H232353   5.092   1.521   6.012
10804TIP3   OH232354   4.604   5.165   1.245
10804TIP3    H132355   4.651   5.236   1.289
10804TIP3    H232356   4.551   5.125   1.314
10805TIP3   OH232357   5.610   3.244   5.739
10805TIP3    H132358   5.642   3.179   5.676
10805TIP3    H232359   5.552   3.195   5.797
10806TIP3   OH232360   1.348   2.042   5.392
10806TIP3    H132361   1.408   1.989   5.339
10806TIP3    H232362   1.347   2.127   5.349
10807TIP3   OH232363   8.139   6.720   6.644
10807TIP3    H132364   8.172   6.740   6.732
10807TIP3    H232365   8.115   6.805   6.607
10808TIP3   OH232366   5.622   5.362   4.598
10808TIP3    H132367   5.697   5.318   4.637
10808TIP3    H232368   5.571   5.393   4.673
10809TIP3   OH232369   2.788   2.132   3.171
10809TIP3    H132370   2.790   2.051   3.120
10809TIP3    H232371   2.733   2.191   3.121
10810TIP3   OH232372   2.224   4.732   3.547
10810TIP3    H132373   2.281   4.766   3.616
10810TIP3    H232374   2.141   4.779   3.558
10811TIP3   OH232375   5.652   5.448   3.029
10811TIP3    H132376   5.565   5.412   3.043
10811TIP3    H232377   5.649   5.535   3.071
10812TIP3   OH232378   7.113   1.365   0.248
10812TIP3    H132379   7.200   1.405   0.246
10812TIP3    H232380   7.054   1.437   0.271
10813TIP3   OH232381   4.809   6.984   1.957
10813TIP3    H132382   4.893   7.008   1.918
10813TIP3    H232383   4.782   6.905   1.910
10814TIP3   OH232384   2.532   2.960   4.011
10814TIP3    H132385   2.541   2.921   4.098
10814TIP3    H232386   2.441   2.944   3.987
10815TIP3   OH232387   3.458   6.175   3.307
10815TIP3    H132388   3.419   6.257   3.277
10815TIP3    H232389   3.548   6.199   3.330
10816TIP3   OH232390   7.512   7.003   0.951
10816TIP3    H132391   7.458   6.972   1.023
10816TIP3    H232392   7.450   7.019   0.880
10817TIP3   OH232393   7.471   7.234   3.768
10817TIP3    H132394   7.439   7.324   3.774
10817TIP3    H232395   7.399   7.180   3.800
10818TIP3   OH232396   7.947   0.701   4.352
10818TIP3    H132397   7.949   0.725   4.260
10818TIP3    H232398   7.859   0.665   4.366
10819TIP3   OH232399   5.561   5.972   0.060
10819TIP3    H132400   5.551   5.915  -0.017
10819TIP3    H232401   5.473   5.980   0.096
10820TIP3   OH232402   4.701   2.627   3.117
10820TIP3    H132403   4.676   2.719   3.130
10820TIP3    H232404   4.630   2.577   3.157
10821TIP3   OH232405   4.658   5.832   1.133
10821TIP3    H132406   4.689   5.864   1.049
10821TIP3    H232407   4.738   5.809   1.182
10822TIP3   OH232408   3.899   0.902   6.634
10822TIP3    H132409   3.920   0.994   6.647
10822TIP3    H232410   3.836   0.902   6.561
10823TIP3   OH232411   1.512   1.305   4.586
10823TIP3    H132412   1.527   1.360   4.509
10823TIP3    H232413   1.543   1.218   4.560
10824TIP3   OH232414   4.524   2.367   0.084
10824TIP3    H132415   4.564   2.299   0.029
10824TIP3    H232416   4.598   2.407   0.130
10825TIP3   OH232417   3.085   5.669   4.969
10825TIP3    H132418   3.058   5.629   4.886
10825TIP3    H232419   3.010   5.656   5.027
10826TIP3   OH232420   6.143   2.256   0.302
10826TIP3    H132421   6.131   2.199   0.378
10826TIP3    H232422   6.084   2.221   0.236
10827TIP3   OH232423   6.599   1.150   4.452
10827TIP3    H132424   6.669   1.162   4.387
10827TIP3    H232425   6.644   1.121   4.531
10828TIP3   OH232426   5.486   4.080   4.219
10828TIP3    H132427   5.509   4.129   4.298
10828TIP3    H232428   5.556   4.099   4.157
10829TIP3   OH232429   2.504   5.241   3.727
10829TIP3    H132430   2.457   5.301   3.786
10829TIP3    H232431   2.505   5.157   3.774
10830TIP3   OH232432   7.149   4.328   4.502
10830TIP3    H132433   7.174   4.421   4.502
10830TIP3    H232434   7.214   4.285   4.447
10831TIP3   OH232435   7.861   3.635   6.159
10831TIP3    H132436   7.815   3.715   6.131
10831TIP3    H232437   7.793   3.568   6.161
10832TIP3   OH232438   7.111   4.178   0.497
10832TIP3    H132439   7.091   4.246   0.433
10832TIP3    H232440   7.167   4.117   0.450
10833TIP3   OH232441   2.558   0.810   2.387
10833TIP3    H132442   2.516   0.840   2.468
10833TIP3    H232443   2.508   0.733   2.361
10834TIP3   OH232444   5.271   0.820   2.751
10834TIP3    H132445   5.232   0.852   2.670
10834TIP3    H232446   5.363   0.845   2.745
10835TIP3   OH232447   3.240   0.938   1.012
10835TIP3    H132448   3.295   1.015   0.996
10835TIP3    H232449   3.151   0.973   1.019
10836TIP3   OH232450   2.080   7.328   3.852
10836TIP3    H132451   2.004   7.386   3.844
10836TIP3    H232452   2.044   7.240   3.844
10837TIP3   OH232453   3.938   6.373   4.691
10837TIP3    H132454   3.913   6.408   4.777
10837TIP3    H232455   3.866   6.317   4.666
10838TIP3   OH232456   0.678   2.834   1.182
10838TIP3    H132457   0.704   2.760   1.127
10838TIP3    H232458   0.650   2.901   1.119
10839TIP3   OH232459   0.580   7.478   6.450
10839TIP3    H132460   0.561   7.546   6.514
10839TIP3    H232461   0.509   7.485   6.386
10840TIP3   OH232462   1.066   3.121   6.035
10840TIP3    H132463   1.066   3.185   5.963
10840TIP3    H232464   1.002   3.156   6.098
10841TIP3   OH232465   2.920   7.628   3.440
10841TIP3    H132466   2.909   7.703   3.499
10841TIP3    H232467   2.830   7.599   3.421
10842TIP3   OH232468   5.937   3.035   4.800
10842TIP3    H132469   5.913   3.022   4.708
10842TIP3    H232470   6.009   3.097   4.798
10843TIP3   OH232471   6.312   7.461   0.170
10843TIP3    H132472   6.261   7.443   0.091
10843TIP3    H232473   6.272   7.539   0.208
10844TIP3   OH232474   0.952   6.207   4.245
10844TIP3    H132475   1.001   6.125   4.244
10844TIP3    H232476   0.976   6.250   4.163
10845TIP3   OH232477   4.680   0.462   4.742
10845TIP3    H132478   4.678   0.372   4.776
10845TIP3    H232479   4.729   0.511   4.808
10846TIP3   OH232480   4.235   3.707   0.545
10846TIP3    H132481   4.144   3.729   0.564
10846TIP3    H232482   4.233   3.664   0.459
10847TIP3   OH232483   4.183   1.407   0.510
10847TIP3    H132484   4.171   1.383   0.602
10847TIP3    H232485   4.237   1.336   0.474
10848TIP3   OH232486   4.335   4.632   4.406
10848TIP3    H132487   4.383   4.672   4.334
10848TIP3    H232488   4.244   4.633   4.378
10849TIP3   OH232489   0.386   3.427   0.503
10849TIP3    H132490   0.310   3.449   0.449
10849TIP3    H232491   0.426   3.352   0.458
10850TIP3   OH232492   6.891   3.776   3.904
10850TIP3    H132493   6.832   3.744   3.836
10850TIP3    H232494   6.834   3.793   3.979
10851TIP3   OH232495   7.639   0.093   2.664
10851TIP3    H132496   7.666   0.140   2.743
10851TIP3    H232497   7.618   0.004   2.695
10852TIP3   OH232498   0.820   4.130   2.611
10852TIP3    H132499   0.754   4.060   2.605
10852TIP3    H232500   0.837   4.156   2.521
10853TIP3   OH232501   2.078   4.002   2.116
10853TIP3    H132502   2.103   3.952   2.038
10853TIP3    H232503   1.998   3.960   2.147
10854TIP3   OH232504   5.553   4.789   1.666
10854TIP3    H132505   5.547   4.855   1.596
10854TIP3    H232506   5.586   4.838   1.742
10855TIP3   OH232507   3.542   5.385   1.150
10855TIP3    H132508   3.496   5.359   1.230
10855TIP3    H232509   3.480   5.365   1.080
10856TIP3   OH232510   6.167   6.442   2.113
10856TIP3    H132511   6.236   6.508   2.104
10856TIP3    H232512   6.203   6.379   2.176
10857TIP3   OH232513   0.458   0.360   5.921
10857TIP3    H132514   0.475   0.395   6.009
10857TIP3    H232515   0.545   0.343   5.884
10858TIP3   OH232516   5.235   6.562   6.261
10858TIP3    H132517   5.245   6.592   6.352
10858TIP3    H232518   5.274   6.475   6.261
10859TIP3   OH232519   3.032   3.118   5.128
10859TIP3    H132520   3.117   3.079   5.109
10859TIP3    H232521   2.990   3.124   5.042
10860TIP3   OH232522   4.974   2.406   1.095
10860TIP3    H132523   5.007   2.468   1.161
10860TIP3    H232524   4.963   2.459   1.016
10861TIP3   OH232525   5.988   2.382   6.679
10861TIP3    H132526   5.896   2.383   6.652
10861TIP3    H232527   5.997   2.460   6.735
10862TIP3   OH232528   5.309   5.218   3.727
10862TIP3    H132529   5.357   5.153   3.675
10862TIP3    H232530   5.295   5.174   3.811
10863TIP3   OH232531   3.121   0.494   6.606
10863TIP3    H132532   3.092   0.562   6.546
10863TIP3    H232533   3.168   0.542   6.675
10864TIP3   OH232534   6.804   7.837   1.373
10864TIP3    H132535   6.841   7.776   1.437
10864TIP3    H232536   6.816   7.793   1.289
10865TIP3   OH232537   2.740   2.219   5.880
10865TIP3    H132538   2.816   2.273   5.859
10865TIP3    H232539   2.691   2.270   5.944
10866TIP3   OH232540   2.216   3.420   4.100
10866TIP3    H132541   2.269   3.491   4.066
10866TIP3    H232542   2.279   3.359   4.138
10867TIP3   OH232543   2.726   3.850   3.773
10867TIP3    H132544   2.761   3.919   3.716
10867TIP3    H232545   2.799   3.827   3.829
10868TIP3   OH232546   6.060   7.013   0.432
10868TIP3    H132547   6.050   7.054   0.518
10868TIP3    H232548   6.109   7.077   0.381
10869TIP3   OH232549   0.692   1.833   0.905
10869TIP3    H132550   0.646   1.868   0.828
10869TIP3    H232551   0.741   1.758   0.871
10870TIP3   OH232552   7.658   1.642   6.371
10870TIP3    H132553   7.577   1.628   6.322
10870TIP3    H232554   7.651   1.584   6.446
10871TIP3   OH232555   8.160   2.538   1.028
10871TIP3    H132556   8.164   2.478   1.103
10871TIP3    H232557   8.075   2.521   0.988
10872TIP3   OH232558   1.900   2.282   3.749
10872TIP3    H132559   1.840   2.342   3.793
10872TIP3    H232560   1.976   2.335   3.728
10873TIP3   OH232561   4.475  -0.009   2.546
10873TIP3    H132562   4.385  -0.010   2.578
10873TIP3    H232563   4.528   0.014   2.623
10874TIP3   OH232564   3.273   6.689   3.495
10874TIP3    H132565   3.255   6.595   3.488
10874TIP3    H232566   3.207   6.731   3.440
10875TIP3   OH232567   3.664   0.411   3.267
10875TIP3    H132568   3.740   0.437   3.215
10875TIP3    H232569   3.662   0.473   3.339
10876TIP3   OH232570   5.853   7.525   5.705
10876TIP3    H132571   5.891   7.532   5.618
10876TIP3    H232572   5.777   7.468   5.693
10877TIP3   OH232573   7.857   0.487   6.551
10877TIP3    H132574   7.885   0.470   6.641
10877TIP3    H232575   7.853   0.583   6.545
10878TIP3   OH232576   6.295   6.389   3.054
10878TIP3    H132577   6.217   6.337   3.074
10878TIP3    H232578   6.322   6.425   3.139
10879TIP3   OH232579   6.631   6.223   6.050
10879TIP3    H132580   6.684   6.145   6.031
10879TIP3    H232581   6.651   6.283   5.978
10880TIP3   OH232582   7.279   5.968   0.074
10880TIP3    H132583   7.290   5.962  -0.021
10880TIP3    H232584   7.186   5.953   0.088
10881TIP3   OH232585   5.439   1.038   3.323
10881TIP3    H132586   5.507   1.020   3.388
10881TIP3    H232587   5.454   0.975   3.254
10882TIP3   OH232588   6.069   0.079   3.260
10882TIP3    H132589   6.120   0.031   3.194
10882TIP3    H232590   6.104   0.048   3.343
10883TIP3   OH232591   4.630   2.203   1.329
10883TIP3    H132592   4.622   2.158   1.413
10883TIP3    H232593   4.724   2.217   1.317
10884TIP3   OH232594   1.411   1.489   2.574
10884TIP3    H132595   1.330   1.461   2.616
10884TIP3    H232596   1.397   1.469   2.481
10885TIP3   OH232597   3.591   7.218   1.098
10885TIP3    H132598   3.673   7.206   1.050
10885TIP3    H232599   3.524   7.181   1.040
10886TIP3   OH232600   4.126   5.971   4.651
10886TIP3    H132601   4.118   5.991   4.744
10886TIP3    H232602   4.207   5.922   4.643
10887TIP3   OH232603   1.562   6.604   5.354
10887TIP3    H132604   1.486   6.547   5.348
10887TIP3    H232605   1.527   6.688   5.383
10888TIP3   OH232606   0.416   5.982   4.682
10888TIP3    H132607   0.413   5.998   4.776
10888TIP3    H232608   0.325   5.980   4.654
10889TIP3   OH232609   0.181   2.285   1.534
10889TIP3    H132610   0.144   2.196   1.539
10889TIP3    H232611   0.128   2.335   1.597
10890TIP3   OH232612   3.467   6.294   1.809
10890TIP3    H132613   3.557   6.277   1.840
10890TIP3    H232614   3.472   6.379   1.766
10891TIP3   OH232615   3.402   6.507   4.691
10891TIP3    H132616   3.432   6.585   4.645
10891TIP3    H232617   3.426   6.521   4.782
10892TIP3   OH232618   1.348   3.011   5.833
10892TIP3    H132619   1.395   2.991   5.753
10892TIP3    H232620   1.288   2.937   5.845
10893TIP3   OH232621   3.742   1.752   4.005
10893TIP3    H132622   3.773   1.706   3.927
10893TIP3    H232623   3.821   1.775   4.054
10894TIP3   OH232624   3.775   4.856   5.612
10894TIP3    H132625   3.692   4.823   5.579
10894TIP3    H232626   3.757   4.947   5.636
10895TIP3   OH232627   7.226   0.607   4.768
10895TIP3    H132628   7.318   0.589   4.785
10895TIP3    H232629   7.194   0.527   4.725
10896TIP3   OH232630   6.127  -0.003   1.048
10896TIP3    H132631   6.181   0.071   1.021
10896TIP3    H232632   6.147  -0.072   0.984
10897TIP3   OH232633   0.583   3.960   2.067
10897TIP3    H132634   0.626   4.036   2.106
10897TIP3    H232635   0.634   3.885   2.096
10898TIP3   OH232636   2.190   0.867   3.733
10898TIP3    H132637   2.203   0.854   3.639
10898TIP3    H232638   2.204   0.781   3.772
10899TIP3   OH232639   7.921   5.950   1.709
10899TIP3    H132640   7.841   5.984   1.749
10899TIP3    H232641   7.933   6.004   1.631
10900TIP3   OH232642   5.493   0.524   2.529
10900TIP3    H132643   5.480   0.574   2.609
10900TIP3    H232644   5.584   0.541   2.505
10901TIP3   OH232645   1.179   1.422   2.705
10901TIP3    H132646   1.166   1.428   2.800
10901TIP3    H232647   1.115   1.483   2.668
10902TIP3   OH232648   1.391   0.096   6.518
10902TIP3    H132649   1.486   0.107   6.515
10902TIP3    H232650   1.378   0.006   6.547
10903TIP3   OH232651   6.079   7.198   5.523
10903TIP3    H132652   6.139   7.256   5.477
10903TIP3    H232653   6.078   7.231   5.613
10904TIP3   OH232654   4.421   1.814   0.205
10904TIP3    H132655   4.440   1.828   0.298
10904TIP3    H232656   4.457   1.892   0.162
10905TIP3   OH232657   2.502   1.527   2.905
10905TIP3    H132658   2.529   1.567   2.822
10905TIP3    H232659   2.519   1.595   2.970
10906TIP3   OH232660   1.750   1.522   5.378
10906TIP3    H132661   1.707   1.493   5.297
10906TIP3    H232662   1.770   1.615   5.362
10907TIP3   OH232663   3.619   5.895   3.954
10907TIP3    H132664   3.576   5.966   3.906
10907TIP3    H232665   3.558   5.822   3.947
10908TIP3   OH232666   2.588   1.006   5.664
10908TIP3    H132667   2.610   0.988   5.572
10908TIP3    H232668   2.501   0.968   5.675
10909TIP3   OH232669   0.881   3.137   0.179
10909TIP3    H132670   0.822   3.167   0.248
10909TIP3    H232671   0.831   3.070   0.133
10910TIP3   OH232672   5.429   4.528   3.753
10910TIP3    H132673   5.504   4.568   3.708
10910TIP3    H232674   5.447   4.434   3.751
10911TIP3   OH232675   0.593   4.424   6.359
10911TIP3    H132676   0.567   4.474   6.436
10911TIP3    H232677   0.517   4.368   6.340
10912TIP3   OH232678   4.599   4.592   4.072
10912TIP3    H132679   4.543   4.518   4.053
10912TIP3    H232680   4.644   4.569   4.153
10913TIP3   OH232681   5.376   1.147   0.665
10913TIP3    H132682   5.362   1.216   0.729
10913TIP3    H232683   5.466   1.118   0.680
10914TIP3   OH232684   8.087  -0.013   2.511
10914TIP3    H132685   8.086   0.058   2.446
10914TIP3    H232686   8.180  -0.025   2.530
10915TIP3   OH232687   1.219   7.136   5.857
10915TIP3    H132688   1.128   7.111   5.845
10915TIP3    H232689   1.216   7.229   5.878
10916TIP3   OH232690   7.718   1.771   1.804
10916TIP3    H132691   7.639   1.809   1.843
10916TIP3    H232692   7.707   1.676   1.815
10917TIP3   OH232693   2.758   4.095   0.330
10917TIP3    H132694   2.666   4.117   0.317
10917TIP3    H232695   2.782   4.045   0.253
10918TIP3   OH232696   6.970   5.800   6.066
10918TIP3    H132697   7.055   5.831   6.037
10918TIP3    H232698   6.965   5.710   6.034
10919TIP3   OH232699   5.650   2.979   2.210
10919TIP3    H132700   5.678   3.070   2.201
10919TIP3    H232701   5.703   2.931   2.146
10920TIP3   OH232702   5.425   7.174   3.411
10920TIP3    H132703   5.421   7.100   3.350
10920TIP3    H232704   5.406   7.136   3.496
10921TIP3   OH232705   6.768   1.878   0.839
10921TIP3    H132706   6.681   1.837   0.838
10921TIP3    H232707   6.829   1.804   0.842
10922TIP3   OH232708   3.806   3.199   0.478
10922TIP3    H132709   3.851   3.120   0.450
10922TIP3    H232710   3.763   3.173   0.560
10923TIP3   OH232711   7.701   1.114   2.598
10923TIP3    H132712   7.747   1.129   2.516
10923TIP3    H232713   7.653   1.032   2.585
10924TIP3   OH232714   1.733   2.643   0.852
10924TIP3    H132715   1.698   2.585   0.920
10924TIP3    H232716   1.820   2.608   0.832
10925TIP3   OH232717   4.661   0.905   4.822
10925TIP3    H132718   4.729   0.900   4.754
10925TIP3    H232719   4.593   0.845   4.792
10926TIP3   OH232720   0.042   6.980   0.897
10926TIP3    H132721   0.031   7.026   0.813
10926TIP3    H232722   0.099   7.038   0.948
10927TIP3   OH232723   5.180   6.044   5.169
10927TIP3    H132724   5.232   6.091   5.104
10927TIP3    H232725   5.134   6.113   5.217
10928TIP3   OH232726   7.553   6.182   6.394
10928TIP3    H132727   7.574   6.088   6.396
10928TIP3    H232728   7.507   6.195   6.311
10929TIP3   OH232729   4.900   4.107   3.052
10929TIP3    H132730   4.818   4.155   3.063
10929TIP3    H232731   4.923   4.121   2.960
10930TIP3   OH232732   6.005   2.741   1.213
10930TIP3    H132733   6.008   2.716   1.306
10930TIP3    H232734   6.089   2.713   1.178
10931TIP3   OH232735   4.500   1.770   5.327
10931TIP3    H132736   4.512   1.737   5.238
10931TIP3    H232737   4.489   1.690   5.380
10932TIP3   OH232738   3.305   3.839   2.938
10932TIP3    H132739   3.330   3.906   2.874
10932TIP3    H232740   3.355   3.861   3.017
10933TIP3   OH232741   4.934   6.710   6.553
10933TIP3    H132742   5.021   6.749   6.552
10933TIP3    H232743   4.920   6.684   6.645
10934TIP3   OH232744   6.529   2.047   4.019
10934TIP3    H132745   6.533   2.128   4.070
10934TIP3    H232746   6.499   2.075   3.933
10935TIP3   OH232747   4.534   1.869   0.513
10935TIP3    H132748   4.505   1.937   0.574
10935TIP3    H232749   4.626   1.890   0.496
10936TIP3   OH232750   6.397   2.739   2.820
10936TIP3    H132751   6.425   2.660   2.775
10936TIP3    H232752   6.430   2.811   2.766
10937TIP3   OH232753   0.754   3.702   4.148
10937TIP3    H132754   0.734   3.662   4.232
10937TIP3    H232755   0.679   3.759   4.129
10938TIP3   OH232756   0.713   5.236   0.813
10938TIP3    H132757   0.620   5.253   0.798
10938TIP3    H232758   0.744   5.313   0.860
10939TIP3   OH232759   3.652   2.876   2.023
10939TIP3    H132760   3.684   2.841   1.940
10939TIP3    H232761   3.612   2.960   2.000
10940TIP3   OH232762   5.484   4.118   3.443
10940TIP3    H132763   5.450   4.088   3.358
10940TIP3    H232764   5.449   4.055   3.506
10941TIP3   OH232765   5.044   2.732   6.638
10941TIP3    H132766   5.044   2.801   6.704
10941TIP3    H232767   4.978   2.760   6.574
10942TIP3   OH232768   4.436   1.944   2.337
10942TIP3    H132769   4.517   1.900   2.361
10942TIP3    H232770   4.418   1.915   2.247
10943TIP3   OH232771   2.213   5.433   3.774
10943TIP3    H132772   2.268   5.502   3.740
10943TIP3    H232773   2.237   5.426   3.867
10944TIP3   OH232774   6.095   1.350   6.737
10944TIP3    H132775   6.071   1.437   6.705
10944TIP3    H232776   6.075   1.352   6.830
10945TIP3   OH232777   3.311   4.327   3.411
10945TIP3    H132778   3.295   4.252   3.469
10945TIP3    H232779   3.404   4.320   3.388
10946TIP3   OH232780   4.738   6.435   3.724
10946TIP3    H132781   4.701   6.523   3.722
10946TIP3    H232782   4.666   6.380   3.754
10947TIP3   OH232783   4.278   2.157   3.123
10947TIP3    H132784   4.247   2.075   3.162
10947TIP3    H232785   4.348   2.130   3.063
10948TIP3   OH232786   6.322   2.731   0.548
10948TIP3    H132787   6.313   2.673   0.472
10948TIP3    H232788   6.399   2.785   0.527
10949TIP3   OH232789   7.772   0.538   5.864
10949TIP3    H132790   7.844   0.599   5.881
10949TIP3    H232791   7.717   0.583   5.800
10950TIP3   OH232792   7.997   7.757   6.627
10950TIP3    H132793   7.970   7.670   6.599
10950TIP3    H232794   7.944   7.817   6.574
10951TIP3   OH232795   0.033   3.890   3.770
10951TIP3    H132796   0.096   3.936   3.827
10951TIP3    H232797  -0.050   3.896   3.817
10952TIP3   OH232798   6.068   7.375   0.484
10952TIP3    H132799   6.050   7.367   0.391
10952TIP3    H232800   6.007   7.442   0.515
10953TIP3   OH232801   6.421   5.703   3.061
10953TIP3    H132802   6.493   5.645   3.036
10953TIP3    H232803   6.342   5.656   3.033
10954TIP3   OH232804   4.647   3.496   0.558
10954TIP3    H132805   4.609   3.532   0.639
10954TIP3    H232806   4.623   3.560   0.491
10955TIP3   OH232807   0.683   6.280   5.591
10955TIP3    H132808   0.652   6.359   5.636
10955TIP3    H232809   0.735   6.234   5.656
10956TIP3   OH232810   3.311   1.827   6.139
10956TIP3    H132811   3.225   1.847   6.102
10956TIP3    H232812   3.329   1.899   6.200
10957TIP3   OH232813   4.407   7.073   6.668
10957TIP3    H132814   4.373   7.134   6.602
10957TIP3    H232815   4.371   7.104   6.751
10958TIP3   OH232816   4.000   7.705   2.279
10958TIP3    H132817   4.062   7.718   2.207
10958TIP3    H232818   3.950   7.627   2.252
10959TIP3   OH232819   0.119   3.900   3.232
10959TIP3    H132820   0.031   3.862   3.228
10959TIP3    H232821   0.110   3.974   3.291
10960TIP3   OH232822   1.518   0.118   3.732
10960TIP3    H132823   1.433   0.150   3.703
10960TIP3    H232824   1.576   0.132   3.658
10961TIP3   OH232825   1.571   5.212   0.979
10961TIP3    H132826   1.663   5.237   0.983
10961TIP3    H232827   1.553   5.168   1.062
10962TIP3   OH232828   7.586   3.055   2.706
10962TIP3    H132829   7.576   3.078   2.798
10962TIP3    H232830   7.679   3.067   2.688
10963TIP3   OH232831   5.933   4.599   6.450
10963TIP3    H132832   5.902   4.673   6.398
10963TIP3    H232833   5.878   4.525   6.424
10964TIP3   OH232834   6.295   0.708   2.383
10964TIP3    H132835   6.216   0.657   2.399
10964TIP3    H232836   6.281   0.789   2.432
10965TIP3   OH232837   0.875   4.714   3.741
10965TIP3    H132838   0.815   4.641   3.728
10965TIP3    H232839   0.961   4.672   3.753
10966TIP3   OH232840   0.062   7.396   1.652
10966TIP3    H132841   0.110   7.455   1.709
10966TIP3    H232842   0.063   7.439   1.566
10967TIP3   OH232843   0.976   4.950   2.265
10967TIP3    H132844   0.943   4.895   2.336
10967TIP3    H232845   0.921   5.029   2.268
10968TIP3   OH232846   0.117   4.111   3.593
10968TIP3    H132847   0.076   4.196   3.608
10968TIP3    H232848   0.047   4.048   3.612
10969TIP3   OH232849   3.246   3.640   0.344
10969TIP3    H132850   3.277   3.662   0.256
10969TIP3    H232851   3.309   3.682   0.403
10970TIP3   OH232852   0.077   0.357   6.116
10970TIP3    H132853   0.134   0.301   6.063
10970TIP3    H232854   0.138   0.408   6.170
10971TIP3   OH232855   3.630   0.220   1.003
10971TIP3    H132856   3.640   0.181   1.089
10971TIP3    H232857   3.540   0.251   1.000
10972TIP3   OH232858   5.813   6.235   2.247
10972TIP3    H132859   5.883   6.170   2.246
10972TIP3    H232860   5.732   6.183   2.248
10973TIP3   OH232861   7.059   0.412   4.677
10973TIP3    H132862   7.019   0.414   4.590
10973TIP3    H232863   6.985   0.405   4.738
10974TIP3   OH232864   2.200   6.307   2.751
10974TIP3    H132865   2.265   6.361   2.796
10974TIP3    H232866   2.228   6.217   2.769
10975TIP3   OH232867   4.927   6.463   6.777
10975TIP3    H132868   4.909   6.389   6.834
10975TIP3    H232869   4.951   6.423   6.693
10976TIP3   OH232870   5.804   6.551   3.871
10976TIP3    H132871   5.825   6.471   3.825
10976TIP3    H232872   5.765   6.522   3.954
10977TIP3   OH232873   4.008   3.168   5.187
10977TIP3    H132874   4.102   3.156   5.204
10977TIP3    H232875   3.992   3.260   5.204
10978TIP3   OH232876   0.248   5.078   0.148
10978TIP3    H132877   0.287   4.992   0.135
10978TIP3    H232878   0.231   5.110   0.059
10979TIP3   OH232879   4.761   5.679   1.765
10979TIP3    H132880   4.747   5.668   1.859
10979TIP3    H232881   4.746   5.592   1.729
10980TIP3   OH232882   2.261   6.734   4.907
10980TIP3    H132883   2.347   6.763   4.936
10980TIP3    H232884   2.202   6.805   4.932
10981TIP3   OH232885   2.778   0.581   4.144
10981TIP3    H132886   2.723   0.636   4.200
10981TIP3    H232887   2.782   0.627   4.061
10982TIP3   OH232888   2.378   2.812   1.428
10982TIP3    H132889   2.285   2.795   1.445
10982TIP3    H232890   2.386   2.811   1.333
10983TIP3   OH232891   6.397   6.564   5.129
10983TIP3    H132892   6.446   6.613   5.063
10983TIP3    H232893   6.339   6.507   5.078
10984TIP3   OH232894   0.473   1.947   0.551
10984TIP3    H132895   0.515   1.920   0.469
10984TIP3    H232896   0.546   1.965   0.610
10985TIP3   OH232897   4.210   3.553   4.183
10985TIP3    H132898   4.247   3.496   4.250
10985TIP3    H232899   4.115   3.551   4.198
10986TIP3   OH232900   4.770   2.722   1.895
10986TIP3    H132901   4.770   2.745   1.987
10986TIP3    H232902   4.768   2.806   1.849
10987TIP3   OH232903   4.962   0.383   4.940
10987TIP3    H132904   5.006   0.357   4.859
10987TIP3    H232905   4.928   0.471   4.922
10988TIP3   OH232906   2.903   4.632   4.505
10988TIP3    H132907   2.973   4.572   4.479
10988TIP3    H232908   2.891   4.688   4.428
10989TIP3   OH232909   2.752   1.987   1.403
10989TIP3    H132910   2.706   2.067   1.428
10989TIP3    H232911   2.714   1.920   1.459
10990TIP3   OH232912   2.974   1.112   0.822
10990TIP3    H132913   2.974   1.025   0.782
10990TIP3    H232914   2.975   1.096   0.916
10991TIP3   OH232915   1.743   4.933   6.688
10991TIP3    H132916   1.697   4.876   6.626
10991TIP3    H232917   1.674   4.992   6.720
10992TIP3   OH232918   1.417   0.830   5.088
10992TIP3    H132919   1.365   0.910   5.095
10992TIP3    H232920   1.373   0.769   5.148
10993TIP3   OH232921   4.429   4.374   4.085
10993TIP3    H132922   4.446   4.309   4.153
10993TIP3    H232923   4.335   4.392   4.091
10994TIP3   OH232924   2.150   6.416   1.378
10994TIP3    H132925   2.239   6.449   1.365
10994TIP3    H232926   2.117   6.464   1.454
10995TIP3   OH232927   7.834   2.245   0.793
10995TIP3    H132928   7.866   2.156   0.777
10995TIP3    H232929   7.746   2.246   0.758
10996TIP3   OH232930   0.752   7.270   6.389
10996TIP3    H132931   0.826   7.314   6.348
10996TIP3    H232932   0.692   7.341   6.413
10997TIP3   OH232933   7.693   3.255   1.552
10997TIP3    H132934   7.626   3.281   1.489
10997TIP3    H232935   7.753   3.330   1.556
10998TIP3   OH232936   6.958   4.185   5.267
10998TIP3    H132937   6.874   4.230   5.256
10998TIP3    H232938   6.956   4.154   5.358
10999TIP3   OH232939   3.266   1.293   4.198
10999TIP3    H132940   3.256   1.380   4.237
10999TIP3    H232941   3.349   1.260   4.233
11000TIP3   OH232942   4.335   1.333   4.691
11000TIP3    H132943   4.274   1.330   4.766
11000TIP3    H232944   4.279   1.322   4.614
11001TIP3   OH232945   4.508   2.672   2.642
11001TIP3    H132946   4.575   2.692   2.577
11001TIP3    H232947   4.426   2.705   2.604
11002TIP3   OH232948   0.254   4.116   2.198
11002TIP3    H132949   0.214   4.084   2.278
11002TIP3    H232950   0.320   4.050   2.177
11003TIP3   OH232951   0.729   4.775   5.720
11003TIP3    H132952   0.800   4.831   5.751
11003TIP3    H232953   0.716   4.801   5.628
11004TIP3   OH232954   3.338   4.615   6.014
11004TIP3    H132955   3.265   4.561   5.984
11004TIP3    H232956   3.300   4.671   6.082
11005TIP3   OH232957   7.239   6.812   3.194
11005TIP3    H132958   7.316   6.857   3.159
11005TIP3    H232959   7.176   6.882   3.211
11006TIP3   OH232960   6.766   7.543   0.469
11006TIP3    H132961   6.820   7.483   0.420
11006TIP3    H232962   6.677   7.510   0.458
11007TIP3   OH232963   5.971   0.677   3.799
11007TIP3    H132964   6.051   0.644   3.839
11007TIP3    H232965   5.926   0.599   3.768
11008TIP3   OH232966   3.642   0.514   0.265
11008TIP3    H132967   3.606   0.488   0.180
11008TIP3    H232968   3.571   0.560   0.308
11009TIP3   OH232969   4.685   7.031   1.385
11009TIP3    H132970   4.640   7.107   1.423
11009TIP3    H232971   4.734   7.066   1.311
11010TIP3   OH232972   2.432   0.250   5.667
11010TIP3    H132973   2.469   0.221   5.751
11010TIP3    H232974   2.424   0.170   5.616
11011TIP3   OH232975   6.025   3.005   2.706
11011TIP3    H132976   6.029   3.098   2.729
11011TIP3    H232977   5.940   2.975   2.740
11012TIP3   OH232978   7.345   5.024   5.692
11012TIP3    H132979   7.416   4.968   5.723
11012TIP3    H232980   7.385   5.111   5.684
11013TIP3   OH232981   1.609   0.709   4.629
11013TIP3    H132982   1.578   0.662   4.552
11013TIP3    H232983   1.529   0.741   4.672
11014TIP3   OH232984   3.410   3.747   1.291
11014TIP3    H132985   3.477   3.697   1.243
11014TIP3    H232986   3.366   3.682   1.345
11015TIP3   OH232987   2.011   2.539   1.946
11015TIP3    H132988   2.036   2.616   1.997
11015TIP3    H232989   2.026   2.564   1.855
11016TIP3   OH232990   2.993   5.514   4.763
11016TIP3    H132991   2.954   5.558   4.687
11016TIP3    H232992   3.026   5.431   4.727
11017TIP3   OH232993   2.687   1.719   5.140
11017TIP3    H132994   2.693   1.734   5.046
11017TIP3    H232995   2.716   1.802   5.179
11018TIP3   OH232996   7.033   3.282   0.216
11018TIP3    H132997   7.117   3.329   0.217
11018TIP3    H232998   7.042   3.218   0.146
11019TIP3   OH232999   8.072   6.758   5.450
11019TIP3    H133000   8.156   6.757   5.405
11019TIP3    H233001   8.077   6.686   5.512
11020TIP3   OH233002   1.524   2.878   2.205
11020TIP3    H133003   1.516   2.958   2.257
11020TIP3    H233004   1.560   2.813   2.266
11021TIP3   OH233005   3.558   6.265   3.916
11021TIP3    H133006   3.531   6.351   3.883
11021TIP3    H233007   3.519   6.203   3.855
11022TIP3   OH233008   7.033   6.512   5.109
11022TIP3    H133009   6.997   6.425   5.123
11022TIP3    H233010   7.127   6.501   5.121
11023TIP3   OH233011   6.525   1.083   3.146
11023TIP3    H133012   6.548   1.133   3.068
11023TIP3    H233013   6.509   0.994   3.113
11024TIP3   OH233014   7.286   3.394   0.248
11024TIP3    H133015   7.321   3.374   0.334
11024TIP3    H233016   7.328   3.477   0.223
11025TIP3   OH233017   7.795   0.471   4.101
11025TIP3    H133018   7.718   0.491   4.154
11025TIP3    H233019   7.761   0.424   4.026
11026TIP3   OH233020   2.538   0.020   3.544
11026TIP3    H133021   2.538   0.051   3.634
11026TIP3    H233022   2.518  -0.073   3.550
11027TIP3   OH233023   2.479   2.971   5.270
11027TIP3    H133024   2.495   2.883   5.237
11027TIP3    H233025   2.470   3.025   5.191
11028TIP3   OH233026   2.524   0.516   3.157
11028TIP3    H133027   2.493   0.606   3.142
11028TIP3    H233028   2.511   0.472   3.073
11029TIP3   OH233029   5.462   5.938   3.527
11029TIP3    H133030   5.474   5.845   3.507
11029TIP3    H233031   5.444   5.978   3.442
11030TIP3   OH233032   8.221   2.318   5.878
11030TIP3    H133033   8.289   2.254   5.897
11030TIP3    H233034   8.258   2.371   5.807
11031TIP3   OH233035   8.293   2.902   5.178
11031TIP3    H133036   8.201   2.930   5.182
11031TIP3    H233037   8.333   2.938   5.257
11032TIP3   OH233038   1.147   5.384   0.345
11032TIP3    H133039   1.227   5.432   0.368
11032TIP3    H233040   1.088   5.398   0.418
11033TIP3   OH233041   2.446   4.927   0.953
11033TIP3    H133042   2.465   4.884   1.036
11033TIP3    H233043   2.531   4.937   0.911
11034TIP3   OH233044   5.568   2.217   4.790
11034TIP3    H133045   5.595   2.302   4.756
11034TIP3    H233046   5.567   2.228   4.885
11035TIP3   OH233047   4.141   2.397   3.203
11035TIP3    H133048   4.125   2.447   3.123
11035TIP3    H233049   4.197   2.324   3.175
11036TIP3   OH233050   1.471   6.116   0.206
11036TIP3    H133051   1.451   6.185   0.268
11036TIP3    H233052   1.398   6.055   0.213
11037TIP3   OH233053   0.445   5.143   1.452
11037TIP3    H133054   0.361   5.173   1.485
11037TIP3    H233055   0.427   5.115   1.362
11038TIP3   OH233056   8.058   7.586   4.955
11038TIP3    H133057   8.125   7.539   4.905
11038TIP3    H233058   7.989   7.603   4.891
11039TIP3   OH233059   7.758   6.827   0.141
11039TIP3    H133060   7.744   6.797   0.231
11039TIP3    H233061   7.677   6.872   0.118
11040TIP3   OH233062   7.052   5.971   1.498
11040TIP3    H133063   6.969   5.925   1.487
11040TIP3    H233064   7.119   5.903   1.490
11041TIP3   OH233065   1.591   3.835   5.105
11041TIP3    H133066   1.622   3.890   5.178
11041TIP3    H233067   1.514   3.790   5.140
11042TIP3   OH233068   4.826   4.236   4.196
11042TIP3    H133069   4.838   4.316   4.144
11042TIP3    H233070   4.915   4.200   4.204
11043TIP3   OH233071   6.586   1.764   4.481
11043TIP3    H133072   6.495   1.784   4.460
11043TIP3    H233073   6.626   1.849   4.497
11044TIP3   OH233074   4.049   7.638   0.545
11044TIP3    H133075   3.964   7.610   0.511
11044TIP3    H233076   4.052   7.602   0.634
11045TIP3   OH233077   2.907   1.947   4.444
11045TIP3    H133078   2.873   1.918   4.529
11045TIP3    H233079   2.875   2.037   4.436
11046TIP3   OH233080   2.895   1.166   1.388
11046TIP3    H133081   2.844   1.178   1.308
11046TIP3    H233082   2.986   1.167   1.359
11047TIP3   OH233083   6.002   2.505   3.734
11047TIP3    H133084   6.008   2.592   3.772
11047TIP3    H233085   6.023   2.517   3.641
11048TIP3   OH233086   3.460   5.792   6.578
11048TIP3    H133087   3.442   5.873   6.627
11048TIP3    H233088   3.534   5.814   6.521
11049TIP3   OH233089   2.228   4.556   1.521
11049TIP3    H133090   2.237   4.477   1.468
11049TIP3    H233091   2.182   4.527   1.600
11050TIP3   OH233092   1.838   7.566   5.513
11050TIP3    H133093   1.918   7.543   5.466
11050TIP3    H233094   1.783   7.488   5.506
11051TIP3   OH233095   4.960   1.990   4.177
11051TIP3    H133096   5.044   1.986   4.223
11051TIP3    H233097   4.936   1.898   4.163
11052TIP3   OH233098   6.823   2.949   1.293
11052TIP3    H133099   6.762   2.931   1.222
11052TIP3    H233100   6.910   2.939   1.255
11053TIP3   OH233101   6.776   3.894   6.010
11053TIP3    H133102   6.745   3.907   6.100
11053TIP3    H233103   6.798   3.982   5.980
11054TIP3   OH233104   8.139   1.754   0.278
11054TIP3    H133105   8.146   1.813   0.202
11054TIP3    H233106   8.082   1.683   0.248
11055TIP3   OH233107   7.604   1.295   0.317
11055TIP3    H133108   7.649   1.293   0.233
11055TIP3    H233109   7.588   1.203   0.338
11056TIP3   OH233110   0.730   5.051   0.185
11056TIP3    H133111   0.712   4.974   0.240
11056TIP3    H233112   0.654   5.108   0.199
11057TIP3   OH233113   3.790   4.583   0.399
11057TIP3    H133114   3.732   4.565   0.473
11057TIP3    H233115   3.730   4.607   0.328
11058TIP3   OH233116   6.186   6.453   5.894
11058TIP3    H133117   6.141   6.500   5.823
11058TIP3    H233118   6.116   6.422   5.951
11059TIP3   OH233119   5.189   1.295   2.263
11059TIP3    H133120   5.096   1.273   2.268
11059TIP3    H233121   5.230   1.238   2.328
11060TIP3   OH233122   7.163   0.386   3.914
11060TIP3    H133123   7.150   0.424   4.001
11060TIP3    H233124   7.179   0.293   3.930
11061TIP3   OH233125   5.047   2.833   0.215
11061TIP3    H133126   5.030   2.793   0.130
11061TIP3    H233127   5.081   2.920   0.195
11062TIP3   OH233128   1.170   2.564   5.864
11062TIP3    H133129   1.160   2.658   5.849
11062TIP3    H233130   1.260   2.553   5.892
11063TIP3   OH233131   6.343   4.441   1.439
11063TIP3    H133132   6.414   4.378   1.434
11063TIP3    H233133   6.263   4.388   1.432
11064TIP3   OH233134   1.906   3.708   5.005
11064TIP3    H133135   1.971   3.688   4.937
11064TIP3    H233136   1.899   3.627   5.055
11065TIP3   OH233137   2.629   2.347   4.833
11065TIP3    H133138   2.590   2.363   4.747
11065TIP3    H233139   2.599   2.260   4.858
11066TIP3   OH233140   7.449   5.182   0.861
11066TIP3    H133141   7.531   5.223   0.834
11066TIP3    H233142   7.444   5.198   0.956
11067TIP3   OH233143   5.334   5.277   4.939
11067TIP3    H133144   5.352   5.291   5.032
11067TIP3    H233145   5.338   5.182   4.929
11068TIP3   OH233146   2.584   2.004   2.072
11068TIP3    H133147   2.621   1.942   2.135
11068TIP3    H233148   2.490   1.987   2.075
11069TIP3   OH233149   4.757   5.317  -0.001
11069TIP3    H133150   4.759   5.281   0.087
11069TIP3    H233151   4.831   5.276  -0.046
11070TIP3   OH233152   6.958   6.725   3.931
11070TIP3    H133153   6.893   6.691   3.869
11070TIP3    H233154   7.042   6.712   3.886
11071TIP3   OH233155   3.210   0.368   3.999
11071TIP3    H133156   3.169   0.282   3.988
11071TIP3    H233157   3.198   0.411   3.914
11072TIP3   OH233158   1.815   2.203   6.516
11072TIP3    H133159   1.859   2.137   6.463
11072TIP3    H233160   1.727   2.168   6.530
11073TIP3   OH233161   5.544   0.321   3.081
11073TIP3    H133162   5.632   0.283   3.076
11073TIP3    H233163   5.507   0.286   3.162
11074TIP3   OH233164   5.203   3.966   1.568
11074TIP3    H133165   5.206   3.938   1.477
11074TIP3    H233166   5.138   4.036   1.571
11075TIP3   OH233167   5.364   6.389   1.982
11075TIP3    H133168   5.298   6.320   1.986
11075TIP3    H233169   5.385   6.408   2.074
11076TIP3   OH233170   5.993   3.766   6.555
11076TIP3    H133171   6.031   3.797   6.472
11076TIP3    H233172   6.028   3.826   6.621
11077TIP3   OH233173   4.453   4.445   5.888
11077TIP3    H133174   4.441   4.424   5.981
11077TIP3    H233175   4.526   4.391   5.860
11078TIP3   OH233176   2.487   4.367   2.732
11078TIP3    H133177   2.420   4.387   2.666
11078TIP3    H233178   2.503   4.451   2.776
11079TIP3   OH233179   0.230   4.367   4.507
11079TIP3    H133180   0.155   4.425   4.513
11079TIP3    H233181   0.301   4.423   4.474
11080TIP3   OH233182   5.214   6.588   3.913
11080TIP3    H133183   5.189   6.638   3.990
11080TIP3    H233184   5.302   6.619   3.891
11081TIP3   OH233185   3.804   6.508   4.904
11081TIP3    H133186   3.753   6.428   4.912
11081TIP3    H233187   3.778   6.560   4.981
11082TIP3   OH233188   1.244   6.540   3.156
11082TIP3    H133189   1.198   6.603   3.101
11082TIP3    H233190   1.322   6.587   3.186
11083TIP3   OH233191   2.909   6.736   5.442
11083TIP3    H133192   2.990   6.786   5.453
11083TIP3    H233193   2.895   6.694   5.527
11084TIP3   OH233194   2.440   0.627   3.952
11084TIP3    H133195   2.364   0.619   3.894
11084TIP3    H233196   2.421   0.570   4.026
11085TIP3   OH233197   4.354   1.382   5.029
11085TIP3    H133198   4.318   1.471   5.028
11085TIP3    H233199   4.286   1.328   4.990
11086TIP3   OH233200   0.348   5.503   0.258
11086TIP3    H133201   0.316   5.550   0.181
11086TIP3    H233202   0.275   5.449   0.286
11087TIP3   OH233203   0.217   1.300   0.946
11087TIP3    H133204   0.212   1.310   1.041
11087TIP3    H233205   0.310   1.306   0.926
11088TIP3   OH233206   5.317   7.485   4.414
11088TIP3    H133207   5.249   7.547   4.388
11088TIP3    H233208   5.279   7.440   4.490
11089TIP3   OH233209   7.353   3.045   2.574
11089TIP3    H133210   7.361   2.959   2.531
11089TIP3    H233211   7.441   3.065   2.604
11090TIP3   OH233212   2.371   6.142   4.986
11090TIP3    H133213   2.327   6.127   5.069
11090TIP3    H233214   2.443   6.079   4.984
11091TIP3   OH233215   0.823   2.792   4.093
11091TIP3    H133216   0.781   2.852   4.155
11091TIP3    H233217   0.817   2.706   4.135
11092TIP3   OH233218   7.311   0.563   2.951
11092TIP3    H133219   7.318   0.502   3.025
11092TIP3    H233220   7.217   0.567   2.933
11093TIP3   OH233221   4.872   0.495   4.108
11093TIP3    H133222   4.812   0.568   4.127
11093TIP3    H233223   4.852   0.470   4.018
11094TIP3   OH233224   1.690   3.524   0.432
11094TIP3    H133225   1.716   3.592   0.369
11094TIP3    H233226   1.607   3.556   0.468
11095TIP3   OH233227   3.568   6.171   2.632
11095TIP3    H133228   3.517   6.132   2.703
11095TIP3    H233229   3.641   6.215   2.675
11096TIP3   OH233230   1.336   1.184   6.210
11096TIP3    H133231   1.301   1.160   6.295
11096TIP3    H233232   1.431   1.174   6.219
11097TIP3   OH233233   5.806   0.028   3.574
11097TIP3    H133234   5.867   0.100   3.589
11097TIP3    H233235   5.830  -0.038   3.640
11098TIP3   OH233236   6.663   6.286   1.225
11098TIP3    H133237   6.580   6.334   1.227
11098TIP3    H233238   6.645   6.209   1.173
11099TIP3   OH233239   5.351   3.572   0.810
11099TIP3    H133240   5.443   3.595   0.798
11099TIP3    H233241   5.338   3.495   0.755
11100TIP3   OH233242   4.958   6.464   4.163
11100TIP3    H133243   4.932   6.519   4.089
11100TIP3    H233244   5.045   6.496   4.188
11101TIP3   OH233245   1.833   3.583   6.138
11101TIP3    H133246   1.836   3.558   6.231
11101TIP3    H233247   1.923   3.571   6.107
11102TIP3   OH233248   1.064   1.408   1.082
11102TIP3    H133249   0.977   1.402   1.122
11102TIP3    H233250   1.079   1.321   1.045
11103TIP3   OH233251   7.158   6.693   1.343
11103TIP3    H133252   7.207   6.620   1.381
11103TIP3    H233253   7.186   6.769   1.394
11104TIP3   OH233254   2.347   3.561   4.983
11104TIP3    H133255   2.350   3.471   4.952
11104TIP3    H233256   2.424   3.602   4.943
11105TIP3   OH233257   3.332   0.972   5.372
11105TIP3    H133258   3.351   0.879   5.364
11105TIP3    H233259   3.244   0.982   5.335
11106TIP3   OH233260   6.512   7.498   1.968
11106TIP3    H133261   6.446   7.502   2.037
11106TIP3    H233262   6.463   7.504   1.887
11107TIP3   OH233263   4.234   2.576   2.305
11107TIP3    H133264   4.166   2.643   2.311
11107TIP3    H233265   4.219   2.519   2.381
11108TIP3   OH233266   2.728   2.279   1.058
11108TIP3    H133267   2.811   2.295   1.013
11108TIP3    H233268   2.688   2.206   1.011
11109TIP3   OH233269   0.943   3.067   1.442
11109TIP3    H133270   0.956   3.048   1.534
11109TIP3    H233271   0.921   3.161   1.440
11110TIP3   OH233272   3.565   6.583   3.046
11110TIP3    H133273   3.594   6.674   3.050
11110TIP3    H233274   3.512   6.578   2.967
11111TIP3   OH233275   7.101   0.201   0.841
11111TIP3    H133276   7.113   0.272   0.904
11111TIP3    H233277   7.107   0.122   0.894
11112TIP3   OH233278   5.845   1.627   4.596
11112TIP3    H133279   5.861   1.538   4.567
11112TIP3    H233280   5.921   1.677   4.566
11113TIP3   OH233281   2.226   6.628   3.933
11113TIP3    H133282   2.203   6.647   4.023
11113TIP3    H233283   2.322   6.626   3.932
11114TIP3   OH233284   1.712   2.974   4.970
11114TIP3    H133285   1.805   2.960   4.956
11114TIP3    H233286   1.676   2.886   4.983
11115TIP3   OH233287   1.750   7.804   1.602
11115TIP3    H133288   1.784   7.764   1.522
11115TIP3    H233289   1.721   7.731   1.656
11116TIP3   OH233290   0.795   3.504   3.776
11116TIP3    H133291   0.805   3.435   3.841
11116TIP3    H233292   0.736   3.467   3.710
11117TIP3   OH233293   4.123   5.765   4.027
11117TIP3    H133294   4.033   5.789   4.048
11117TIP3    H233295   4.158   5.841   3.982
11118TIP3   OH233296   1.282   3.612   3.591
11118TIP3    H133297   1.241   3.653   3.667
11118TIP3    H233298   1.311   3.685   3.536
11119TIP3   OH233299   7.862   3.184   1.250
11119TIP3    H133300   7.851   3.278   1.259
11119TIP3    H233301   7.815   3.161   1.170
11120TIP3   OH233302   3.500   1.158   2.359
11120TIP3    H133303   3.491   1.205   2.276
11120TIP3    H233304   3.520   1.226   2.423
11121TIP3   OH233305   5.193   4.633   2.514
11121TIP3    H133306   5.218   4.600   2.600
11121TIP3    H233307   5.110   4.680   2.529
11122TIP3   OH233308   2.695   0.111   0.084
11122TIP3    H133309   2.606   0.082   0.101
11122TIP3    H233310   2.685   0.192   0.034
11123TIP3   OH233311   4.761   0.303   2.189
11123TIP3    H133312   4.760   0.212   2.158
11123TIP3    H233313   4.774   0.296   2.284
11124TIP3   OH233314   5.886   7.711   6.275
11124TIP3    H133315   5.860   7.708   6.183
11124TIP3    H233316   5.915   7.622   6.294
11125TIP3   OH233317   2.968   2.548   3.299
11125TIP3    H133318   2.964   2.483   3.369
11125TIP3    H233319   2.876   2.564   3.276
11126TIP3   OH233320   6.261   0.282   6.481
11126TIP3    H133321   6.261   0.373   6.453
11126TIP3    H233322   6.182   0.273   6.535
11127TIP3   OH233323   6.817   7.284   4.329
11127TIP3    H133324   6.772   7.232   4.395
11127TIP3    H233325   6.747   7.322   4.276
11128TIP3   OH233326   3.346   1.254   1.890
11128TIP3    H133327   3.382   1.188   1.830
11128TIP3    H233328   3.255   1.264   1.862
11129TIP3   OH233329   5.203   2.034   2.199
11129TIP3    H133330   5.190   2.115   2.249
11129TIP3    H233331   5.295   2.038   2.171
11130TIP3   OH233332   5.692   7.607   1.236
11130TIP3    H133333   5.661   7.582   1.323
11130TIP3    H233334   5.733   7.692   1.249
11131TIP3   OH233335   4.085   0.044   5.081
11131TIP3    H133336   4.164   0.037   5.028
11131TIP3    H233337   4.102  -0.011   5.157
11132TIP3   OH233338   3.183   5.871   0.595
11132TIP3    H133339   3.180   5.939   0.528
11132TIP3    H233340   3.148   5.913   0.674
11133TIP3   OH233341   1.715   6.465   0.286
11133TIP3    H133342   1.698   6.488   0.195
11133TIP3    H233343   1.698   6.545   0.335
11134TIP3   OH233344   7.078   1.727   5.412
11134TIP3    H133345   7.094   1.633   5.405
11134TIP3    H233346   7.157   1.768   5.375
11135TIP3   OH233347   0.170   1.315   3.257
11135TIP3    H133348   0.178   1.348   3.346
11135TIP3    H233349   0.244   1.353   3.210
11136TIP3   OH233350   0.423   0.291   5.194
11136TIP3    H133351   0.423   0.307   5.289
11136TIP3    H233352   0.401   0.199   5.185
11137TIP3   OH233353   3.916   1.407   5.885
11137TIP3    H133354   3.995   1.454   5.913
11137TIP3    H233355   3.947   1.323   5.852
11138TIP3   OH233356   3.697   7.715   2.044
11138TIP3    H133357   3.646   7.640   2.012
11138TIP3    H233358   3.788   7.691   2.024
11139TIP3   OH233359   6.291   5.590   4.840
11139TIP3    H133360   6.377   5.617   4.808
11139TIP3    H233361   6.230   5.649   4.795
11140TIP3   OH233362   2.294   1.954   0.083
11140TIP3    H133363   2.373   1.966   0.136
11140TIP3    H233364   2.222   1.956   0.146
11141TIP3   OH233365   4.544   4.214   3.843
11141TIP3    H133366   4.503   4.198   3.758
11141TIP3    H233367   4.479   4.264   3.892
11142TIP3   OH233368   1.189   5.591   1.653
11142TIP3    H133369   1.210   5.549   1.569
11142TIP3    H233370   1.254   5.557   1.714
11143TIP3   OH233371   1.293   7.220   5.594
11143TIP3    H133372   1.283   7.153   5.662
11143TIP3    H233373   1.333   7.294   5.638
11144TIP3   OH233374   1.878   0.438   6.610
11144TIP3    H133375   1.902   0.346   6.621
11144TIP3    H233376   1.782   0.437   6.603
11145TIP3   OH233377   7.273   7.219   4.182
11145TIP3    H133378   7.221   7.168   4.245
11145TIP3    H233379   7.321   7.153   4.132
11146TIP3   OH233380   6.937   4.747   1.577
11146TIP3    H133381   6.981   4.693   1.643
11146TIP3    H233382   6.931   4.689   1.500
11147TIP3   OH233383   0.005   0.576   5.369
11147TIP3    H133384   0.036   0.573   5.460
11147TIP3    H233385   0.010   0.668   5.345
11148TIP3   OH233386   1.982   2.131   4.905
11148TIP3    H133387   1.977   2.160   4.813
11148TIP3    H233388   2.076   2.121   4.921
11149TIP3   OH233389   7.364   0.730   0.336
11149TIP3    H133390   7.344   0.799   0.272
11149TIP3    H233391   7.457   0.739   0.353
11150TIP3   OH233392   7.186   3.542   5.341
11150TIP3    H133393   7.241   3.465   5.359
11150TIP3    H233394   7.172   3.540   5.247
11151TIP3   OH233395   2.285   0.836   4.750
11151TIP3    H133396   2.278   0.829   4.655
11151TIP3    H233397   2.195   0.821   4.781
11152TIP3   OH233398   2.727   6.645   0.988
11152TIP3    H133399   2.786   6.615   1.057
11152TIP3    H233400   2.735   6.741   0.990
11153TIP3   OH233401   0.478  -0.019   5.463
11153TIP3    H133402   0.439   0.031   5.534
11153TIP3    H233403   0.553   0.034   5.435
11154TIP3   OH233404   6.894   5.029   0.798
11154TIP3    H133405   6.841   5.109   0.799
11154TIP3    H233406   6.962   5.044   0.863
11155TIP3   OH233407   5.417   6.749   5.734
11155TIP3    H133408   5.326   6.727   5.755
11155TIP3    H233409   5.421   6.748   5.638
11156TIP3   OH233410   3.686   6.696   0.663
11156TIP3    H133411   3.768   6.677   0.708
11156TIP3    H233412   3.659   6.782   0.695
11157TIP3   OH233413   7.294   4.487   2.335
11157TIP3    H133414   7.384   4.463   2.314
11157TIP3    H233415   7.299   4.580   2.359
11158TIP3   OH233416   2.800   1.600   3.816
11158TIP3    H133417   2.745   1.524   3.831
11158TIP3    H233418   2.888   1.571   3.837
11159TIP3   OH233419   0.726   6.909   3.878
11159TIP3    H133420   0.661   6.979   3.876
11159TIP3    H233421   0.779   6.923   3.800
11160TIP3   OH233422   5.988   5.862   2.554
11160TIP3    H133423   6.078   5.869   2.522
11160TIP3    H233424   5.989   5.785   2.611
11161TIP3   OH233425   8.010   1.767   6.078
11161TIP3    H133426   7.917   1.747   6.072
11161TIP3    H233427   8.035   1.790   5.988
11162TIP3   OH233428   6.184   0.148   4.773
11162TIP3    H133429   6.252   0.207   4.805
11162TIP3    H233430   6.125   0.135   4.848
11163TIP3   OH233431   4.733   6.761   2.302
11163TIP3    H133432   4.681   6.681   2.295
11163TIP3    H233433   4.727   6.785   2.395
11164TIP3   OH233434   2.324   3.966   4.168
11164TIP3    H133435   2.334   4.049   4.215
11164TIP3    H233436   2.373   3.977   4.087
11165TIP3   OH233437   7.087   3.708   4.791
11165TIP3    H133438   7.041   3.708   4.875
11165TIP3    H233439   7.145   3.632   4.795
11166TIP3   OH233440   3.515   5.598   3.608
11166TIP3    H133441   3.475   5.553   3.682
11166TIP3    H233442   3.442   5.615   3.548
11167TIP3   OH233443   7.160   2.104   0.464
11167TIP3    H133444   7.219   2.082   0.392
11167TIP3    H233445   7.098   2.166   0.426
11168TIP3   OH233446   1.524   4.339   3.182
11168TIP3    H133447   1.469   4.402   3.136
11168TIP3    H233448   1.509   4.358   3.275
11169TIP3   OH233449   7.650   1.072   4.014
11169TIP3    H133450   7.632   1.035   3.928
11169TIP3    H233451   7.734   1.117   4.004
11170TIP3   OH233452   8.187   0.741   0.926
11170TIP3    H133453   8.129   0.687   0.873
11170TIP3    H233454   8.195   0.823   0.877
11171TIP3   OH233455   3.901   7.690   5.884
11171TIP3    H133456   3.931   7.654   5.967
11171TIP3    H233457   3.805   7.683   5.889
11172TIP3   OH233458   6.495   2.703   0.232
11172TIP3    H133459   6.504   2.712   0.137
11172TIP3    H233460   6.429   2.635   0.244
11173TIP3   OH233461   7.973   5.383   2.415
11173TIP3    H133462   7.942   5.370   2.325
11173TIP3    H233463   8.059   5.342   2.417
11174TIP3   OH233464   5.959   6.630   4.323
11174TIP3    H133465   6.043   6.601   4.360
11174TIP3    H233466   5.893   6.591   4.381
11175TIP3   OH233467   2.887   0.921   1.894
11175TIP3    H133468   2.939   0.992   1.930
11175TIP3    H233469   2.830   0.963   1.830
11176TIP3   OH233470   1.283   3.728   3.862
11176TIP3    H133471   1.368   3.766   3.886
11176TIP3    H233472   1.269   3.659   3.927
11177TIP3   OH233473   2.213   5.975   2.536
11177TIP3    H133474   2.274   6.043   2.565
11177TIP3    H233475   2.149   6.022   2.483
11178TIP3   OH233476   1.479   4.052   4.472
11178TIP3    H133477   1.477   4.130   4.417
11178TIP3    H233478   1.402   4.060   4.528
11179TIP3   OH233479   4.752   3.700   3.253
11179TIP3    H133480   4.783   3.787   3.279
11179TIP3    H233481   4.706   3.666   3.329
11180TIP3   OH233482   2.645   7.189  -0.004
11180TIP3    H133483   2.559   7.182   0.035
11180TIP3    H233484   2.698   7.235   0.061
11181TIP3   OH233485   6.615   0.215   3.434
11181TIP3    H133486   6.624   0.306   3.407
11181TIP3    H233487   6.593   0.220   3.527
11182TIP3   OH233488   6.530   0.727   6.352
11182TIP3    H133489   6.444   0.704   6.389
11182TIP3    H233490   6.593   0.705   6.420
11183TIP3   OH233491   7.369   4.641   3.394
11183TIP3    H133492   7.328   4.572   3.447
11183TIP3    H233493   7.363   4.720   3.449
11184TIP3   OH233494   4.573   5.474   0.274
11184TIP3    H133495   4.622   5.440   0.349
11184TIP3    H233496   4.497   5.417   0.268
11185TIP3   OH233497   0.398   6.115   6.459
11185TIP3    H133498   0.391   6.125   6.364
11185TIP3    H233499   0.332   6.174   6.495
11186TIP3   OH233500   4.558   5.604   0.023
11186TIP3    H133501   4.593   5.561   0.101
11186TIP3    H233502   4.539   5.532  -0.037
11187TIP3   OH233503   3.278   2.390   3.520
11187TIP3    H133504   3.358   2.385   3.574
11187TIP3    H233505   3.209   2.358   3.578
11188TIP3   OH233506   4.487   6.728   4.390
11188TIP3    H133507   4.514   6.649   4.436
11188TIP3    H233508   4.393   6.736   4.408
11189TIP3   OH233509   4.752   2.939   0.043
11189TIP3    H133510   4.753   3.002  -0.028
11189TIP3    H233511   4.827   2.882   0.027
11190TIP3   OH233512   2.439   4.526   0.632
11190TIP3    H133513   2.452   4.453   0.570
11190TIP3    H233514   2.504   4.511   0.700
11191TIP3   OH233515   3.380   7.128   5.165
11191TIP3    H133516   3.392   7.166   5.078
11191TIP3    H233517   3.297   7.082   5.160
11192TIP3   OH233518   4.334   3.041   6.789
11192TIP3    H133519   4.403   3.072   6.731
11192TIP3    H233520   4.356   2.949   6.804
11193TIP3   OH233521   0.502   3.048   0.671
11193TIP3    H133522   0.431   3.110   0.685
11193TIP3    H233523   0.458   2.963   0.659
11194TIP3   OH233524   5.339   0.147   5.804
11194TIP3    H133525   5.278   0.091   5.756
11194TIP3    H233526   5.284   0.216   5.842
11195TIP3   OH233527   1.849   0.147   1.400
11195TIP3    H133528   1.808   0.076   1.350
11195TIP3    H233529   1.938   0.116   1.415
11196TIP3   OH233530   5.914   0.929   1.832
11196TIP3    H133531   5.858   0.857   1.805
11196TIP3    H233532   5.878   0.958   1.916
11197TIP3   OH233533   5.483   0.970   5.883
11197TIP3    H133534   5.400   1.018   5.884
11197TIP3    H233535   5.468   0.899   5.821
11198TIP3   OH233536   6.507   3.451   6.029
11198TIP3    H133537   6.438   3.515   6.047
11198TIP3    H233538   6.586   3.504   6.015
11199TIP3   OH233539   2.355   5.703   5.426
11199TIP3    H133540   2.449   5.724   5.429
11199TIP3    H233541   2.331   5.713   5.334
11200TIP3   OH233542   6.370   7.119   0.820
11200TIP3    H133543   6.335   7.062   0.888
11200TIP3    H233544   6.462   7.133   0.844
11201TIP3   OH233545   3.878   6.029   6.019
11201TIP3    H133546   3.908   6.021   6.110
11201TIP3    H233547   3.807   6.094   6.024
11202TIP3   OH233548   1.541   2.571   1.046
11202TIP3    H133549   1.484   2.645   1.065
11202TIP3    H233550   1.597   2.564   1.124
11203TIP3   OH233551   8.009   1.826   5.808
11203TIP3    H133552   7.951   1.788   5.743
11203TIP3    H233553   7.999   1.921   5.797
11204TIP3   OH233554   2.000   6.560   1.565
11204TIP3    H133555   1.958   6.631   1.516
11204TIP3    H233556   1.931   6.496   1.578
11205TIP3   OH233557   1.930   2.075   3.184
11205TIP3    H133558   2.010   2.125   3.202
11205TIP3    H233559   1.864   2.141   3.165
11206TIP3   OH233560   6.741   0.764   1.842
11206TIP3    H133561   6.684   0.715   1.783
11206TIP3    H233562   6.825   0.718   1.839
11207TIP3   OH233563   5.806   4.465   4.854
11207TIP3    H133564   5.792   4.493   4.944
11207TIP3    H233565   5.813   4.370   4.858
11208TIP3   OH233566   2.092   5.744   0.846
11208TIP3    H133567   2.079   5.685   0.772
11208TIP3    H233568   2.008   5.745   0.892
11209TIP3   OH233569   1.136   3.002   5.640
11209TIP3    H133570   1.089   3.030   5.562
11209TIP3    H233571   1.179   3.081   5.672
11210TIP3   OH233572   7.663   7.436   5.701
11210TIP3    H133573   7.656   7.500   5.631
11210TIP3    H233574   7.711   7.363   5.662
11211TIP3   OH233575   0.818   3.613   5.091
11211TIP3    H133576   0.907   3.648   5.093
11211TIP3    H233577   0.828   3.521   5.113
11212TIP3   OH233578   1.492   5.403   4.411
11212TIP3    H133579   1.580   5.430   4.433
11212TIP3    H233580   1.481   5.318   4.453
11213TIP3   OH233581   5.353   7.184   2.037
11213TIP3    H133582   5.410   7.236   2.094
11213TIP3    H233583   5.282   7.155   2.094
11214TIP3   OH233584   4.328   0.258   6.737
11214TIP3    H133585   4.283   0.224   6.814
11214TIP3    H233586   4.258   0.286   6.678
11215TIP3   OH233587   0.579   2.759   1.727
11215TIP3    H133588   0.595   2.852   1.707
11215TIP3    H233589   0.653   2.714   1.685
11216TIP3   OH233590   7.990   0.939   2.442
11216TIP3    H133591   7.958   0.884   2.513
11216TIP3    H233592   7.919   0.940   2.378
11217TIP3   OH233593   2.000   0.100   0.230
11217TIP3    H133594   2.018   0.007   0.244
11217TIP3    H233595   1.971   0.133   0.315
11218TIP3   OH233596   6.697   5.134   1.412
11218TIP3    H133597   6.776   5.094   1.449
11218TIP3    H233598   6.650   5.061   1.371
11219TIP3   OH233599   6.023   2.676   2.846
11219TIP3    H133600   6.085   2.672   2.774
11219TIP3    H233601   6.049   2.604   2.904
11220TIP3   OH233602   1.344   7.221   2.888
11220TIP3    H133603   1.351   7.215   2.793
11220TIP3    H233604   1.395   7.299   2.911
11221TIP3   OH233605   3.193   5.983   2.114
11221TIP3    H133606   3.111   5.946   2.082
11221TIP3    H233607   3.195   6.072   2.078
11222TIP3   OH233608   4.011   2.056   2.537
11222TIP3    H133609   3.934   2.002   2.520
11222TIP3    H233610   4.085   1.995   2.531
11223TIP3   OH233611   0.283   3.208   0.726
11223TIP3    H133612   0.253   3.278   0.668
11223TIP3    H233613   0.204   3.157   0.744
11224TIP3   OH233614   1.865   0.218   0.470
11224TIP3    H133615   1.858   0.128   0.501
11224TIP3    H233616   1.775   0.243   0.447
11225TIP3   OH233617   8.128   7.379   2.915
11225TIP3    H133618   8.100   7.298   2.873
11225TIP3    H233619   8.162   7.433   2.843
11226TIP3   OH233620   8.001   4.372   1.162
11226TIP3    H133621   7.963   4.457   1.181
11226TIP3    H233622   7.967   4.348   1.076
11227TIP3   OH233623   6.122   4.293   5.949
11227TIP3    H133624   6.042   4.288   6.001
11227TIP3    H233625   6.151   4.202   5.939
11228TIP3   OH233626   2.927   2.637   2.377
11228TIP3    H133627   2.856   2.683   2.422
11228TIP3    H233628   2.883   2.576   2.318
11229TIP3   OH233629   5.113   2.081   2.907
11229TIP3    H133630   5.100   1.986   2.899
11229TIP3    H233631   5.026   2.118   2.891
11230TIP3   OH233632   4.898   6.820   3.732
11230TIP3    H133633   4.898   6.734   3.690
11230TIP3    H233634   4.933   6.879   3.666
11231TIP3   OH233635   1.740   1.078   0.174
11231TIP3    H133636   1.738   1.068   0.270
11231TIP3    H233637   1.790   1.158   0.159
11232TIP3   OH233638   5.621   2.458   4.703
11232TIP3    H133639   5.564   2.465   4.627
11232TIP3    H233640   5.585   2.519   4.767
11233TIP3   OH233641   7.718   5.236   1.375
11233TIP3    H133642   7.800   5.206   1.336
11233TIP3    H233643   7.691   5.310   1.320
11234TIP3   OH233644   6.621   7.238   5.989
11234TIP3    H133645   6.553   7.176   5.963
11234TIP3    H233646   6.701   7.202   5.953
11235TIP3   OH233647   3.696   4.104   5.961
11235TIP3    H133648   3.618   4.059   5.930
11235TIP3    H233649   3.666   4.192   5.984
11236TIP3   OH233650   6.570   5.622   4.007
11236TIP3    H133651   6.508   5.662   4.067
11236TIP3    H233652   6.556   5.528   4.017
11237TIP3   OH233653   2.040   3.457   5.129
11237TIP3    H133654   2.085   3.536   5.160
11237TIP3    H233655   2.086   3.385   5.173
11238TIP3   OH233656   7.584   4.891   5.494
11238TIP3    H133657   7.560   4.977   5.459
11238TIP3    H233658   7.623   4.910   5.579
11239TIP3   OH233659   1.030   4.228   1.111
11239TIP3    H133660   1.080   4.149   1.131
11239TIP3    H233661   1.069   4.261   1.030
11240TIP3   OH233662   0.137   4.891   4.308
11240TIP3    H133663   0.135   4.875   4.402
11240TIP3    H233664   0.118   4.984   4.299
11241TIP3   OH233665   5.139   1.482   6.330
11241TIP3    H133666   5.170   1.402   6.372
11241TIP3    H233667   5.099   1.453   6.248
11242TIP3   OH233668   5.890   1.300   5.771
11242TIP3    H133669   5.800   1.269   5.773
11242TIP3    H233670   5.882   1.393   5.750
11243TIP3   OH233671   2.805   6.893   3.607
11243TIP3    H133672   2.827   6.800   3.605
11243TIP3    H233673   2.734   6.902   3.544
11244TIP3   OH233674   0.468   4.616   1.877
11244TIP3    H133675   0.483   4.663   1.959
11244TIP3    H233676   0.414   4.541   1.902
11245TIP3   OH233677   0.717   1.742   0.231
11245TIP3    H133678   0.635   1.692   0.227
11245TIP3    H233679   0.785   1.675   0.234
11246TIP3   OH233680   5.261   6.086   5.744
11246TIP3    H133681   5.242   6.035   5.823
11246TIP3    H233682   5.193   6.153   5.741
11247TIP3   OH233683   5.354   0.709   0.257
11247TIP3    H133684   5.418   0.775   0.280
11247TIP3    H233685   5.286   0.717   0.323
11248TIP3   OH233686   4.349   6.228   6.057
11248TIP3    H133687   4.285   6.261   5.994
11248TIP3    H233688   4.324   6.137   6.071
11249TIP3   OH233689   7.481   2.521   0.303
11249TIP3    H133690   7.566   2.559   0.322
11249TIP3    H233691   7.477   2.442   0.357
11250TIP3   OH233692   8.193   6.227   2.311
11250TIP3    H133693   8.150   6.160   2.258
11250TIP3    H233694   8.272   6.184   2.343
11251TIP3   OH233695   1.599   3.133   2.325
11251TIP3    H133696   1.660   3.126   2.398
11251TIP3    H233697   1.632   3.206   2.272
11252TIP3   OH233698   7.236   6.937   1.553
11252TIP3    H133699   7.167   6.978   1.604
11252TIP3    H233700   7.222   6.967   1.463
11253TIP3   OH233701   4.164   2.563   2.989
11253TIP3    H133702   4.229   2.537   2.924
11253TIP3    H233703   4.110   2.628   2.944
11254TIP3   OH233704   3.111   2.141   2.330
11254TIP3    H133705   3.045   2.178   2.272
11254TIP3    H233706   3.149   2.069   2.280
11255TIP3   OH233707   4.145   0.160   1.301
11255TIP3    H133708   4.189   0.136   1.219
11255TIP3    H233709   4.204   0.128   1.370
11256TIP3   OH233710   3.651   6.574   0.075
11256TIP3    H133711   3.584   6.505   0.069
11256TIP3    H233712   3.622   6.630   0.147
11257TIP3   OH233713   5.612   7.301   2.662
11257TIP3    H133714   5.525   7.294   2.623
11257TIP3    H233715   5.603   7.260   2.749
11258TIP3   OH233716   1.527   1.161   4.329
11258TIP3    H133717   1.533   1.170   4.234
11258TIP3    H233718   1.447   1.110   4.342
11259TIP3   OH233719   5.109   0.007   5.605
11259TIP3    H133720   5.088   0.077   5.544
11259TIP3    H233721   5.190  -0.032   5.571
11260TIP3   OH233722   3.412   3.167   4.955
11260TIP3    H133723   3.452   3.145   4.871
11260TIP3    H233724   3.408   3.263   4.955
11261TIP3   OH233725   1.246   2.776   0.269
11261TIP3    H133726   1.211   2.733   0.347
11261TIP3    H233727   1.293   2.707   0.222
11262TIP3   OH233728   1.650   0.574   3.808
11262TIP3    H133729   1.640   0.490   3.763
11262TIP3    H233730   1.583   0.572   3.876
11263TIP3   OH233731   7.141   0.134   4.680
11263TIP3    H133732   7.146   0.228   4.696
11263TIP3    H233733   7.064   0.104   4.730
11264TIP3   OH233734   0.460   0.261   2.666
11264TIP3    H133735   0.454   0.177   2.712
11264TIP3    H233736   0.550   0.291   2.684
11265TIP3   OH233737   6.169   0.455   6.196
11265TIP3    H133738   6.073   0.454   6.205
11265TIP3    H233739   6.199   0.500   6.275
11266TIP3   OH233740   1.251   0.354   2.191
11266TIP3    H133741   1.216   0.282   2.245
11266TIP3    H233742   1.295   0.310   2.118
11267TIP3   OH233743   3.382   6.938   0.048
11267TIP3    H133744   3.410   6.862  -0.004
11267TIP3    H233745   3.345   6.899   0.127
11268TIP3   OH233746   5.528   3.072   0.400
11268TIP3    H133747   5.612   3.045   0.363
11268TIP3    H233748   5.465   3.012   0.360
11269TIP3   OH233749   7.557   5.485   0.741
11269TIP3    H133750   7.594   5.416   0.796
11269TIP3    H233751   7.526   5.440   0.663
11270TIP3   OH233752   2.072   6.846   1.733
11270TIP3    H133753   2.018   6.920   1.761
11270TIP3    H233754   2.146   6.847   1.794
11271TIP3   OH233755   4.536   4.769   6.379
11271TIP3    H133756   4.504   4.725   6.457
11271TIP3    H233757   4.575   4.699   6.326
11272TIP3   OH233758   6.180   3.971   6.640
11272TIP3    H133759   6.223   3.984   6.556
11272TIP3    H233760   6.245   3.924   6.693
11273TIP3   OH233761   2.439   7.424   4.623
11273TIP3    H133762   2.494   7.378   4.560
11273TIP3    H233763   2.361   7.449   4.574
11274TIP3   OH233764   4.745   4.298   4.739
11274TIP3    H133765   4.728   4.389   4.714
11274TIP3    H233766   4.704   4.289   4.825
11275TIP3   OH233767   2.068   5.377   5.341
11275TIP3    H133768   1.988   5.344   5.301
11275TIP3    H233769   2.113   5.423   5.269
11276TIP3   OH233770   3.836   7.619   5.123
11276TIP3    H133771   3.769   7.625   5.055
11276TIP3    H233772   3.907   7.569   5.083
11277TIP3   OH233773   7.935   1.459   3.135
11277TIP3    H133774   8.026   1.436   3.155
11277TIP3    H233775   7.937   1.487   3.044
11278TIP3   OH233776   7.037   1.012   3.685
11278TIP3    H133777   7.088   0.973   3.756
11278TIP3    H233778   6.950   1.028   3.722
11279TIP3   OH233779   5.107   1.632   0.572
11279TIP3    H133780   5.179   1.694   0.577
11279TIP3    H233781   5.147   1.553   0.533
11280TIP3   OH233782   4.879   1.644   2.347
11280TIP3    H133783   4.957   1.698   2.338
11280TIP3    H233784   4.912   1.559   2.376
11281TIP3   OH233785   2.507   1.441   6.351
11281TIP3    H133786   2.425   1.393   6.363
11281TIP3    H233787   2.575   1.374   6.351
11282TIP3   OH233788   7.671   1.196   0.640
11282TIP3    H133789   7.762   1.211   0.613
11282TIP3    H233790   7.656   1.103   0.621
11283TIP3   OH233791   1.038   7.069   5.216
11283TIP3    H133792   0.968   7.099   5.158
11283TIP3    H233793   1.041   7.134   5.286
11284TIP3   OH233794   7.409   2.334   2.090
11284TIP3    H133795   7.383   2.251   2.051
11284TIP3    H233796   7.328   2.384   2.095
11285TIP3   OH233797   3.854   1.267   1.737
11285TIP3    H133798   3.819   1.242   1.651
11285TIP3    H233799   3.819   1.201   1.797
11286TIP3   OH233800   2.566   3.160   0.667
11286TIP3    H133801   2.517   3.211   0.602
11286TIP3    H233802   2.658   3.173   0.641
11287TIP3   OH233803   2.081   1.789   3.854
11287TIP3    H133804   2.123   1.750   3.777
11287TIP3    H233805   2.004   1.834   3.819
11288TIP3   OH233806   0.225   0.428   6.354
11288TIP3    H133807   0.243   0.334   6.361
11288TIP3    H233808   0.311   0.469   6.345
11289TIP3   OH233809   0.405   0.937   2.438
11289TIP3    H133810   0.447   0.883   2.505
11289TIP3    H233811   0.454   1.020   2.441
11290TIP3   OH233812   0.930   7.433   2.823
11290TIP3    H133813   0.924   7.371   2.896
11290TIP3    H233814   1.011   7.410   2.779
11291TIP3   OH233815   0.874   5.655   3.121
11291TIP3    H133816   0.877   5.560   3.130
11291TIP3    H233817   0.886   5.669   3.027
11292TIP3   OH233818   3.373   6.397   1.289
11292TIP3    H133819   3.417   6.471   1.331
11292TIP3    H233820   3.282   6.404   1.316
11293TIP3   OH233821   2.075   5.413   6.665
11293TIP3    H133822   1.999   5.469   6.651
11293TIP3    H233823   2.105   5.391   6.577
11294TIP3   OH233824   3.331   7.446   3.640
11294TIP3    H133825   3.239   7.468   3.626
11294TIP3    H233826   3.337   7.426   3.733
11295TIP3   OH233827   5.660   5.221   5.618
11295TIP3    H133828   5.628   5.257   5.701
11295TIP3    H233829   5.626   5.281   5.552
11296TIP3   OH233830   2.310   5.195   3.160
11296TIP3    H133831   2.245   5.250   3.204
11296TIP3    H233832   2.352   5.146   3.231
11297TIP3   OH233833   5.169   4.267   5.048
11297TIP3    H133834   5.077   4.285   5.066
11297TIP3    H233835   5.190   4.192   5.104
11298TIP3   OH233836   1.419   2.256   2.409
11298TIP3    H133837   1.506   2.245   2.372
11298TIP3    H233838   1.387   2.339   2.372
11299TIP3   OH233839   8.205   1.464   4.623
11299TIP3    H133840   8.125   1.444   4.671
11299TIP3    H233841   8.275   1.447   4.686
11300TIP3   OH233842   6.495   1.534   3.095
11300TIP3    H133843   6.501   1.626   3.122
11300TIP3    H233844   6.481   1.487   3.177
11301TIP3   OH233845   4.127   4.097   0.779
11301TIP3    H133846   4.159   4.028   0.838
11301TIP3    H233847   4.155   4.068   0.692
11302TIP3   OH233848   2.158   6.923   5.962
11302TIP3    H133849   2.174   6.851   6.023
11302TIP3    H233850   2.073   6.903   5.923
11303TIP3   OH233851   1.542   3.002   5.307
11303TIP3    H133852   1.552   2.909   5.325
11303TIP3    H233853   1.463   3.008   5.252
11304TIP3   OH233854   6.261   3.084   3.486
11304TIP3    H133855   6.352   3.054   3.481
11304TIP3    H233856   6.242   3.120   3.400
11305TIP3   OH233857   0.179   1.142   1.203
11305TIP3    H133858   0.190   1.222   1.254
11305TIP3    H233859   0.244   1.082   1.240
11306TIP3   OH233860   3.695   5.569   3.186
11306TIP3    H133861   3.636   5.504   3.223
11306TIP3    H233862   3.775   5.521   3.166
11307TIP3   OH233863   7.252   5.812   1.844
11307TIP3    H133864   7.195   5.737   1.826
11307TIP3    H233865   7.261   5.814   1.939
11308TIP3   OH233866   3.257   5.924   1.289
11308TIP3    H133867   3.311   5.844   1.289
11308TIP3    H233868   3.244   5.944   1.197
11309TIP3   OH233869   0.655   1.079   1.374
11309TIP3    H133870   0.699   0.994   1.381
11309TIP3    H233871   0.618   1.093   1.461
11310TIP3   OH233872   5.403   1.701   3.652
11310TIP3    H133873   5.498   1.692   3.643
11310TIP3    H233874   5.392   1.767   3.720
11311TIP3   OH233875   3.820   0.158   6.496
11311TIP3    H133876   3.793   0.102   6.423
11311TIP3    H233877   3.738   0.190   6.533
11312TIP3   OH233878   7.101   2.967   3.391
11312TIP3    H133879   7.164   2.959   3.319
11312TIP3    H233880   7.037   2.898   3.373
11313TIP3   OH233881   6.744   4.056   4.779
11313TIP3    H133882   6.713   4.136   4.821
11313TIP3    H233883   6.726   4.069   4.686
11314TIP3   OH233884   3.139   6.782   5.614
11314TIP3    H133885   3.157   6.855   5.673
11314TIP3    H233886   3.210   6.784   5.550
11315TIP3   OH233887   7.055   3.655   5.578
11315TIP3    H133888   7.015   3.737   5.548
11315TIP3    H233889   7.103   3.622   5.501
11316TIP3   OH233890   6.595   4.003   2.569
11316TIP3    H133891   6.689   4.006   2.589
11316TIP3    H233892   6.591   4.009   2.474
11317TIP3   OH233893   3.245   3.587   1.442
11317TIP3    H133894   3.152   3.606   1.454
11317TIP3    H233895   3.246   3.503   1.395
11318TIP3   OH233896   7.580   7.205   2.051
11318TIP3    H133897   7.623   7.290   2.054
11318TIP3    H233898   7.523   7.209   1.975
11319TIP3   OH233899   7.854   4.467   2.124
11319TIP3    H133900   7.812   4.549   2.149
11319TIP3    H233901   7.876   4.479   2.031
11320TIP3   OH233902   7.991   5.355   6.717
11320TIP3    H133903   8.070   5.300   6.716
11320TIP3    H233904   8.013   5.428   6.658
11321TIP3   OH233905   0.071   2.150   6.358
11321TIP3    H133906   0.051   2.098   6.436
11321TIP3    H233907   0.029   2.103   6.286
11322TIP3   OH233908   2.376   7.441   5.096
11322TIP3    H133909   2.365   7.467   5.188
11322TIP3    H233910   2.460   7.480   5.071
11323TIP3   OH233911   2.900   2.275   4.852
11323TIP3    H133912   2.816   2.319   4.843
11323TIP3    H233913   2.893   2.227   4.935
11324TIP3   OH233914   7.464   4.084   5.073
11324TIP3    H133915   7.370   4.074   5.088
11324TIP3    H233916   7.504   4.055   5.155
11325TIP3   OH233917   4.987   5.755   4.050
11325TIP3    H133918   4.904   5.721   4.016
11325TIP3    H233919   4.997   5.840   4.007
11326TIP3   OH233920   6.906   2.838   3.642
11326TIP3    H133921   6.976   2.879   3.694
11326TIP3    H233922   6.944   2.755   3.613
11327TIP3   OH233923   0.394   7.377   4.386
11327TIP3    H133924   0.357   7.374   4.474
11327TIP3    H233925   0.428   7.289   4.370
11328TIP3   OH233926   8.214   2.015   3.510
11328TIP3    H133927   8.149   1.973   3.455
11328TIP3    H233928   8.168   2.091   3.548
11329TIP3   OH233929   1.714   7.033   0.494
11329TIP3    H133930   1.753   7.013   0.409
11329TIP3    H233931   1.785   7.020   0.557
11330TIP3   OH233932   3.878   1.117   4.513
11330TIP3    H133933   3.876   1.055   4.441
11330TIP3    H233934   3.786   1.133   4.533
11331TIP3   OH233935   5.496   1.739   1.128
11331TIP3    H133936   5.472   1.771   1.215
11331TIP3    H233937   5.591   1.747   1.125
11332TIP3   OH233938   7.870   6.184   5.405
11332TIP3    H133939   7.898   6.272   5.429
11332TIP3    H233940   7.922   6.127   5.462
11333TIP3   OH233941   5.743   2.142   5.664
11333TIP3    H133942   5.772   2.188   5.743
11333TIP3    H233943   5.812   2.158   5.600
11334TIP3   OH233944   5.848   3.449   4.398
11334TIP3    H133945   5.878   3.424   4.310
11334TIP3    H233946   5.803   3.371   4.431
11335TIP3   OH233947   5.000   1.284   1.161
11335TIP3    H133948   4.920   1.233   1.151
11335TIP3    H233949   4.970   1.375   1.170
11336TIP3   OH233950   5.368   7.246   2.990
11336TIP3    H133951   5.427   7.308   3.033
11336TIP3    H233952   5.283   7.291   2.987
11337TIP3   OH233953   3.072   5.767   1.402
11337TIP3    H133954   3.114   5.835   1.350
11337TIP3    H233955   3.079   5.688   1.348
11338TIP3   OH233956   5.315   7.188   5.060
11338TIP3    H133957   5.243   7.141   5.017
11338TIP3    H233958   5.373   7.119   5.092
11339TIP3   OH233959   4.239   6.375   4.706
11339TIP3    H133960   4.159   6.377   4.758
11339TIP3    H233961   4.283   6.458   4.726
11340TIP3   OH233962   0.759   6.407   1.203
11340TIP3    H133963   0.791   6.482   1.154
11340TIP3    H233964   0.782   6.331   1.149
11341TIP3   OH233965   8.070   0.178   4.149
11341TIP3    H133966   8.098   0.147   4.235
11341TIP3    H233967   7.997   0.121   4.125
11342TIP3   OH233968   4.275   5.936   5.506
11342TIP3    H133969   4.194   5.965   5.464
11342TIP3    H233970   4.246   5.880   5.578
11343TIP3   OH233971   5.919   1.992   4.910
11343TIP3    H133972   5.867   1.912   4.919
11343TIP3    H233973   5.925   2.007   4.816
11344TIP3   OH233974   7.488   2.882   2.392
11344TIP3    H133975   7.452   2.844   2.312
11344TIP3    H233976   7.560   2.937   2.362
11345TIP3   OH233977   7.212   3.831   2.239
11345TIP3    H133978   7.211   3.773   2.315
11345TIP3    H233979   7.305   3.846   2.222
11346TIP3   OH233980   5.530   2.497   4.198
11346TIP3    H133981   5.564   2.545   4.122
11346TIP3    H233982   5.461   2.442   4.162
11347TIP3   OH233983   1.256   2.829   1.325
11347TIP3    H133984   1.324   2.823   1.392
11347TIP3    H233985   1.262   2.919   1.293
11348TIP3   OH233986   8.027   5.430   1.359
11348TIP3    H133987   8.015   5.383   1.442
11348TIP3    H233988   8.085   5.374   1.308
11349TIP3   OH233989   4.425   6.361   2.533
11349TIP3    H133990   4.392   6.413   2.606
11349TIP3    H233991   4.346   6.325   2.492
11350TIP3   OH233992   1.078   7.127  -0.027
11350TIP3    H133993   1.113   7.120   0.062
11350TIP3    H233994   1.047   7.039  -0.047
11351TIP3   OH233995   1.520   6.932   3.629
11351TIP3    H133996   1.566   6.892   3.555
11351TIP3    H233997   1.437   6.884   3.635
11352TIP3   OH233998   2.918   4.100   4.708
11352TIP3    H133999   2.907   4.135   4.620
11352TIP3    H234000   2.858   4.025   4.712
11353TIP3   OH234001   2.138   1.631   6.450
11353TIP3    H134002   2.058   1.580   6.460
11353TIP3    H234003   2.194   1.602   6.523
11354TIP3   OH234004   1.025   1.374   0.632
11354TIP3    H134005   1.084   1.338   0.699
11354TIP3    H234006   0.938   1.350   0.663
11355TIP3   OH234007   1.310   3.193   3.162
11355TIP3    H134008   1.272   3.141   3.233
11355TIP3    H234009   1.241   3.198   3.096
11356TIP3   OH234010   1.402   4.082   3.525
11356TIP3    H134011   1.365   4.168   3.504
11356TIP3    H234012   1.424   4.088   3.618
11357TIP3   OH234013   8.113   4.040   3.613
11357TIP3    H134014   8.118   3.952   3.649
11357TIP3    H234015   8.023   4.068   3.630
11358TIP3   OH234016   6.443   1.299   6.365
11358TIP3    H134017   6.398   1.308   6.449
11358TIP3    H234018   6.476   1.386   6.345
11359TIP3   OH234019   6.193   1.381   3.128
11359TIP3    H134020   6.226   1.451   3.184
11359TIP3    H234021   6.102   1.369   3.154
11360TIP3   OH234022   8.109   0.141   3.600
11360TIP3    H134023   8.070   0.215   3.552
11360TIP3    H234024   8.164   0.182   3.667
11361TIP3   OH234025   3.452   6.878   2.456
11361TIP3    H134026   3.369   6.838   2.479
11361TIP3    H234027   3.486   6.825   2.384
11362TIP3   OH234028   1.961   0.795   2.368
11362TIP3    H134029   1.989   0.703   2.368
11362TIP3    H234030   1.926   0.809   2.280
11363TIP3   OH234031   7.443   4.697   2.625
11363TIP3    H134032   7.405   4.725   2.542
11363TIP3    H234033   7.537   4.711   2.615
11364TIP3   OH234034   5.981   3.975   3.790
11364TIP3    H134035   5.927   4.029   3.731
11364TIP3    H234036   6.049   3.939   3.734
11365TIP3   OH234037   2.677   7.458   2.161
11365TIP3    H134038   2.586   7.438   2.138
11365TIP3    H234039   2.729   7.408   2.098
11366TIP3   OH234040   3.758   5.863   1.427
11366TIP3    H134041   3.824   5.897   1.366
11366TIP3    H234042   3.700   5.937   1.443
11367TIP3   OH234043   1.364   2.456   1.567
11367TIP3    H134044   1.281   2.409   1.558
11367TIP3    H234045   1.345   2.528   1.627
11368TIP3   OH234046   6.696   1.430   2.418
11368TIP3    H134047   6.698   1.525   2.431
11368TIP3    H234048   6.656   1.396   2.498
11369TIP3   OH234049   0.741   3.900   4.888
11369TIP3    H134050   0.687   3.941   4.821
11369TIP3    H234051   0.828   3.938   4.876
11370TIP3   OH234052   6.947   1.634   1.722
11370TIP3    H134053   6.924   1.691   1.649
11370TIP3    H234054   6.905   1.674   1.798
11371TIP3   OH234055   0.539   3.613   3.834
11371TIP3    H134056   0.632   3.634   3.826
11371TIP3    H234057   0.493   3.689   3.797
11372TIP3   OH234058   7.802   0.424   1.656
11372TIP3    H134059   7.819   0.334   1.682
11372TIP3    H234060   7.875   0.446   1.598
11373TIP3   OH234061   0.580   2.108   2.922
11373TIP3    H134062   0.661   2.081   2.879
11373TIP3    H234063   0.610   2.160   2.997
11374TIP3   OH234064   3.781   3.231   3.030
11374TIP3    H134065   3.752   3.312   2.986
11374TIP3    H234066   3.812   3.175   2.959
11375TIP3   OH234067   6.004   3.226   6.351
11375TIP3    H134068   5.915   3.214   6.382
11375TIP3    H234069   6.016   3.158   6.284
11376TIP3   OH234070   8.126   7.050   0.182
11376TIP3    H134071   8.177   7.131   0.176
11376TIP3    H234072   8.042   7.077   0.217
11377TIP3   OH234073   4.368   1.984   2.699
11377TIP3    H134074   4.287   1.933   2.691
11377TIP3    H234075   4.384   1.988   2.793
11378TIP3   OH234076   6.167   2.694   3.241
11378TIP3    H134077   6.247   2.721   3.196
11378TIP3    H234078   6.140   2.614   3.196
11379TIP3   OH234079   7.317   5.698   0.707
11379TIP3    H134080   7.269   5.713   0.625
11379TIP3    H234081   7.377   5.626   0.686
11380TIP3   OH234082   4.422   6.852   1.810
11380TIP3    H134083   4.509   6.843   1.849
11380TIP3    H234084   4.423   6.794   1.734
11381TIP3   OH234085   0.078   2.916   3.223
11381TIP3    H134086  -0.014   2.895   3.240
11381TIP3    H234087   0.125   2.834   3.236
11382TIP3   OH234088   7.386   5.058   3.308
11382TIP3    H134089   7.354   5.124   3.370
11382TIP3    H234090   7.417   5.108   3.233
11383TIP3   OH234091   4.778   2.100   0.155
11383TIP3    H134092   4.856   2.045   0.153
11383TIP3    H234093   4.812   2.189   0.161
11384TIP3   OH234094   0.092   4.771   4.595
11384TIP3    H134095   0.167   4.744   4.649
11384TIP3    H234096   0.029   4.806   4.658
11385TIP3   OH234097   6.500   3.929   0.674
11385TIP3    H134098   6.551   3.998   0.716
11385TIP3    H234099   6.551   3.849   0.689
11386TIP3   OH234100   3.131   5.165   5.801
11386TIP3    H134101   3.067   5.112   5.849
11386TIP3    H234102   3.149   5.115   5.722
11387TIP3   OH234103   2.704   2.534   3.832
11387TIP3    H134104   2.713   2.629   3.833
11387TIP3    H234105   2.660   2.513   3.915
11388TIP3   OH234106   4.161   0.856   3.467
11388TIP3    H134107   4.230   0.901   3.417
11388TIP3    H234108   4.158   0.902   3.550
11389TIP3   OH234109   2.085   7.170   5.015
11389TIP3    H134110   2.137   7.211   4.946
11389TIP3    H234111   2.123   7.083   5.024
11390TIP3   OH234112   7.584   6.128   5.399
11390TIP3    H134113   7.672   6.162   5.385
11390TIP3    H234114   7.538   6.199   5.445
11391TIP3   OH234115   3.953   1.665   4.617
11391TIP3    H134116   3.885   1.719   4.578
11391TIP3    H234117   3.928   1.575   4.594
11392TIP3   OH234118   6.068   5.503   3.524
11392TIP3    H134119   6.134   5.434   3.522
11392TIP3    H234120   6.035   5.500   3.614
11393TIP3   OH234121   0.740   4.845   5.456
11393TIP3    H134122   0.772   4.930   5.426
11393TIP3    H234123   0.730   4.793   5.376
11394TIP3   OH234124   4.128   5.160   2.276
11394TIP3    H134125   4.068   5.089   2.300
11394TIP3    H234126   4.190   5.165   2.348
11395TIP3   OH234127   4.553   0.942   2.691
11395TIP3    H134128   4.591   0.951   2.779
11395TIP3    H234129   4.552   0.848   2.675
11396TIP3   OH234130   0.275   5.724   3.922
11396TIP3    H134131   0.244   5.805   3.962
11396TIP3    H234132   0.356   5.703   3.969
11397TIP3   OH234133   1.849   6.859   6.456
11397TIP3    H134134   1.867   6.765   6.452
11397TIP3    H234135   1.909   6.892   6.523
11398TIP3   OH234136   6.717   4.268   3.427
11398TIP3    H134137   6.652   4.208   3.390
11398TIP3    H234138   6.719   4.342   3.367
11399TIP3   OH234139   2.382   3.670   1.916
11399TIP3    H134140   2.407   3.662   1.824
11399TIP3    H234141   2.445   3.732   1.952
11400TIP3   OH234142   2.882   5.412   4.231
11400TIP3    H134143   2.956   5.377   4.183
11400TIP3    H234144   2.835   5.335   4.263
11401TIP3   OH234145   2.383   2.450   4.628
11401TIP3    H134146   2.401   2.367   4.582
11401TIP3    H234147   2.415   2.518   4.568
11402TIP3   OH234148   0.187   3.723   2.468
11402TIP3    H134149   0.158   3.637   2.499
11402TIP3    H234150   0.273   3.735   2.508
11403TIP3   OH234151   1.327   1.554   0.803
11403TIP3    H134152   1.372   1.473   0.781
11403TIP3    H234153   1.276   1.575   0.724
11404TIP3   OH234154   2.202   5.736   2.673
11404TIP3    H134155   2.120   5.715   2.628
11404TIP3    H234156   2.233   5.815   2.630
11405TIP3   OH234157   2.417   1.077   4.669
11405TIP3    H134158   2.358   1.013   4.710
11405TIP3    H234159   2.367   1.159   4.669
11406TIP3   OH234160   5.350   4.683   1.879
11406TIP3    H134161   5.293   4.714   1.949
11406TIP3    H234162   5.356   4.756   1.818
11407TIP3   OH234163   5.636   7.753   0.423
11407TIP3    H134164   5.594   7.782   0.504
11407TIP3    H234165   5.580   7.683   0.390
11408TIP3   OH234166   1.708   3.248   5.983
11408TIP3    H134167   1.690   3.246   5.889
11408TIP3    H234168   1.792   3.204   5.992
11409TIP3   OH234169   0.723   2.410   2.827
11409TIP3    H134170   0.800   2.444   2.873
11409TIP3    H234171   0.653   2.413   2.893
11410TIP3   OH234172   5.263   6.041   3.722
11410TIP3    H134173   5.331   6.001   3.667
11410TIP3    H234174   5.288   6.133   3.730
11411TIP3   OH234175   3.669   0.536   6.408
11411TIP3    H134176   3.737   0.521   6.474
11411TIP3    H234177   3.590   0.497   6.447
11412TIP3   OH234178   3.429   3.706   0.540
11412TIP3    H134179   3.510   3.754   0.557
11412TIP3    H234180   3.418   3.649   0.616
11413TIP3   OH234181   4.653   1.617   3.673
11413TIP3    H134182   4.632   1.697   3.626
11413TIP3    H234183   4.682   1.556   3.604
11414TIP3   OH234184   1.209   4.971   4.593
11414TIP3    H134185   1.195   4.968   4.499
11414TIP3    H234186   1.246   5.058   4.609
11415TIP3   OH234187   7.212   7.186   0.981
11415TIP3    H134188   7.285   7.219   1.033
11415TIP3    H234189   7.162   7.264   0.958
11416TIP3   OH234190   0.882   1.420   5.679
11416TIP3    H134191   0.977   1.410   5.671
11416TIP3    H234192   0.870   1.500   5.731
11417TIP3   OH234193   1.406   6.247   2.879
11417TIP3    H134194   1.338   6.314   2.877
11417TIP3    H234195   1.476   6.282   2.824
11418TIP3   OH234196   7.621   1.785   3.637
11418TIP3    H134197   7.713   1.761   3.643
11418TIP3    H234198   7.605   1.844   3.710
11419TIP3   OH234199   8.266   0.250   1.555
11419TIP3    H134200   8.204   0.202   1.500
11419TIP3    H234201   8.277   0.334   1.512
11420TIP3   OH234202   0.907   7.535   0.183
11420TIP3    H134203   0.959   7.615   0.181
11420TIP3    H234204   0.936   7.490   0.263
11421TIP3   OH234205   4.100   0.766   5.560
11421TIP3    H134206   4.020   0.725   5.528
11421TIP3    H234207   4.166   0.744   5.494
11422TIP3   OH234208   0.617   2.189   4.528
11422TIP3    H134209   0.527   2.155   4.532
11422TIP3    H234210   0.669   2.114   4.498
11423TIP3   OH234211   3.750   6.183   0.057
11423TIP3    H134212   3.794   6.238   0.122
11423TIP3    H234213   3.759   6.231  -0.025
11424TIP3   OH234214   1.725   0.448   5.358
11424TIP3    H134215   1.746   0.510   5.289
11424TIP3    H234216   1.703   0.367   5.312
11425TIP3   OH234217   3.792   4.471   6.552
11425TIP3    H134218   3.723   4.535   6.536
11425TIP3    H234219   3.749   4.386   6.540
11426TIP3   OH234220   7.540   2.312   0.807
11426TIP3    H134221   7.545   2.265   0.890
11426TIP3    H234222   7.493   2.253   0.748
11427TIP3   OH234223   6.941   2.071   0.747
11427TIP3    H134224   6.880   2.006   0.783
11427TIP3    H234225   6.889   2.151   0.740
11428TIP3   OH234226   7.216   2.957   2.244
11428TIP3    H134227   7.229   2.863   2.252
11428TIP3    H234228   7.185   2.970   2.154
11429TIP3   OH234229   5.667   4.708   4.458
11429TIP3    H134230   5.571   4.707   4.453
11429TIP3    H234231   5.696   4.693   4.368
11430TIP3   OH234232   5.583   7.424   2.981
11430TIP3    H134233   5.678   7.422   2.997
11430TIP3    H234234   5.572   7.486   2.910
11431TIP3   OH234235   0.271   5.198   4.367
11431TIP3    H134236   0.333   5.131   4.338
11431TIP3    H234237   0.231   5.230   4.286
11432TIP3   OH234238   5.555   2.445   5.856
11432TIP3    H134239   5.581   2.415   5.769
11432TIP3    H234240   5.472   2.490   5.842
11433TIP3   OH234241   2.616   5.791   1.258
11433TIP3    H134242   2.597   5.743   1.177
11433TIP3    H234243   2.656   5.873   1.229
11434TIP3   OH234244   7.242   6.136   6.574
11434TIP3    H134245   7.211   6.067   6.633
11434TIP3    H234246   7.311   6.094   6.523
11435TIP3   OH234247   4.150   6.324   5.828
11435TIP3    H134248   4.085   6.375   5.877
11435TIP3    H234249   4.162   6.373   5.746
11436TIP3   OH234250   6.647   2.514   2.445
11436TIP3    H134251   6.620   2.546   2.359
11436TIP3    H234252   6.700   2.436   2.425
11437TIP3   OH234253   2.239   4.259   1.409
11437TIP3    H134254   2.263   4.207   1.485
11437TIP3    H234255   2.183   4.202   1.357
11438TIP3   OH234256   4.340   3.152   2.864
11438TIP3    H134257   4.253   3.128   2.896
11438TIP3    H234258   4.340   3.126   2.772
11439TIP3   OH234259   0.036   5.960   1.154
11439TIP3    H134260   0.131   5.963   1.146
11439TIP3    H234261   0.003   5.988   1.069
11440TIP3   OH234262   1.870   0.324   3.814
11440TIP3    H134263   1.792   0.331   3.759
11440TIP3    H234264   1.921   0.401   3.792
11441TIP3   OH234265   3.878   2.024   0.899
11441TIP3    H134266   3.797   2.037   0.949
11441TIP3    H234267   3.849   1.986   0.816
11442TIP3   OH234268   6.333   6.669   0.289
11442TIP3    H134269   6.334   6.735   0.219
11442TIP3    H234270   6.243   6.636   0.290
11443TIP3   OH234271   2.971   1.907   5.215
11443TIP3    H134272   2.996   1.845   5.284
11443TIP3    H234273   3.044   1.969   5.211
11444TIP3   OH234274   3.636   3.896   0.614
11444TIP3    H134275   3.698   3.955   0.570
11444TIP3    H234276   3.566   3.953   0.644
11445TIP3   OH234277   6.861   2.056   4.247
11445TIP3    H134278   6.834   2.016   4.165
11445TIP3    H234279   6.851   1.986   4.312
11446TIP3   OH234280   1.184   5.092   5.090
11446TIP3    H134281   1.090   5.099   5.108
11446TIP3    H234282   1.222   5.168   5.135
11447TIP3   OH234283   4.213   2.196   2.180
11447TIP3    H134284   4.267   2.193   2.100
11447TIP3    H234285   4.274   2.175   2.251
11448TIP3   OH234286   0.609   2.258   3.754
11448TIP3    H134287   0.532   2.306   3.784
11448TIP3    H234288   0.607   2.176   3.802
11449TIP3   OH234289   5.115   1.753   2.519
11449TIP3    H134290   5.147   1.758   2.429
11449TIP3    H234291   5.081   1.841   2.537
11450TIP3   OH234292   3.972   5.361   2.142
11450TIP3    H134293   4.021   5.297   2.193
11450TIP3    H234294   3.951   5.316   2.061
11451TIP3   OH234295   3.806   4.036   0.096
11451TIP3    H134296   3.856   4.018   0.017
11451TIP3    H234297   3.812   3.956   0.148
11452TIP3   OH234298   6.034   3.468   5.887
11452TIP3    H134299   6.052   3.377   5.865
11452TIP3    H234300   5.965   3.495   5.826
11453TIP3   OH234301   3.641   2.809   5.834
11453TIP3    H134302   3.648   2.734   5.894
11453TIP3    H234303   3.633   2.770   5.747
11454TIP3   OH234304   8.214   0.815   2.291
11454TIP3    H134305   8.136   0.843   2.339
11454TIP3    H234306   8.286   0.860   2.334
11455TIP3   OH234307   4.904   6.170   1.094
11455TIP3    H134308   4.887   6.190   1.002
11455TIP3    H234309   4.930   6.078   1.093
11456TIP3   OH234310   2.561   7.142   6.023
11456TIP3    H134311   2.620   7.132   5.949
11456TIP3    H234312   2.478   7.170   5.985
11457TIP3   OH234313   1.477   3.297   3.801
11457TIP3    H134314   1.476   3.261   3.890
11457TIP3    H234315   1.428   3.234   3.749
11458TIP3   OH234316   6.695   6.628   3.812
11458TIP3    H134317   6.636   6.578   3.755
11458TIP3    H234318   6.722   6.703   3.759
11459TIP3   OH234319   5.608   2.536   3.359
11459TIP3    H134320   5.693   2.526   3.316
11459TIP3    H234321   5.623   2.602   3.427
11460TIP3   OH234322   5.162   2.016   3.525
11460TIP3    H134323   5.208   1.932   3.520
11460TIP3    H234324   5.071   1.993   3.542
11461TIP3   OH234325   0.418   0.227   0.151
11461TIP3    H134326   0.335   0.232   0.198
11461TIP3    H234327   0.475   0.290   0.196
11462TIP3   OH234328   0.177   1.692   4.638
11462TIP3    H134329   0.156   1.781   4.667
11462TIP3    H234330   0.176   1.641   4.719
11463TIP3   OH234331   4.468   3.010   0.828
11463TIP3    H134332   4.486   3.002   0.922
11463TIP3    H234333   4.539   3.063   0.794
11464TIP3   OH234334   2.417   2.954   2.697
11464TIP3    H134335   2.392   2.949   2.604
11464TIP3    H234336   2.410   3.046   2.719
11465TIP3   OH234337   6.112   0.123   6.136
11465TIP3    H134338   6.127   0.216   6.153
11465TIP3    H234339   6.054   0.095   6.208
11466TIP3   OH234340   6.308   2.339   3.126
11466TIP3    H134341   6.265   2.310   3.206
11466TIP3    H234342   6.397   2.360   3.153
11467TIP3   OH234343   0.668   3.414   6.669
11467TIP3    H134344   0.755   3.423   6.708
11467TIP3    H234345   0.679   3.445   6.579
11468TIP3   OH234346   5.781   2.706   2.329
11468TIP3    H134347   5.727   2.682   2.404
11468TIP3    H234348   5.804   2.798   2.344
11469TIP3   OH234349   1.996   0.734   6.302
11469TIP3    H134350   1.933   0.803   6.320
11469TIP3    H234351   2.035   0.758   6.218
11470TIP3   OH234352   3.901   4.284   6.200
11470TIP3    H134353   3.861   4.359   6.243
11470TIP3    H234354   3.920   4.314   6.111
11471TIP3   OH234355   1.280   2.064   0.322
11471TIP3    H134356   1.287   2.066   0.418
11471TIP3    H234357   1.240   2.148   0.300
11472TIP3   OH234358   3.236   7.235   4.062
11472TIP3    H134359   3.281   7.273   3.987
11472TIP3    H234360   3.192   7.158   4.027
11473TIP3   OH234361   3.235   2.976   1.327
11473TIP3    H134362   3.329   2.979   1.308
11473TIP3    H234363   3.224   3.032   1.404
11474TIP3   OH234364   4.116   5.494   4.032
11474TIP3    H134365   4.097   5.587   4.030
11474TIP3    H234366   4.142   5.477   4.123
11475TIP3   OH234367   3.291   1.464   1.292
11475TIP3    H134368   3.219   1.526   1.300
11475TIP3    H234369   3.330   1.483   1.207
11476TIP3   OH234370   2.193   4.113   5.050
11476TIP3    H134371   2.110   4.089   5.092
11476TIP3    H234372   2.245   4.153   5.119
11477TIP3   OH234373   3.822   7.515   2.259
11477TIP3    H134374   3.729   7.499   2.277
11477TIP3    H234375   3.865   7.503   2.344
11478TIP3   OH234376   7.143   4.778   2.174
11478TIP3    H134377   7.080   4.837   2.132
11478TIP3    H234378   7.139   4.698   2.121
11479TIP3   OH234379   0.428   3.411   1.399
11479TIP3    H134380   0.492   3.468   1.439
11479TIP3    H234381   0.366   3.470   1.356
11480TIP3   OH234382   2.745   6.520   5.753
11480TIP3    H134383   2.835   6.515   5.783
11480TIP3    H234384   2.742   6.599   5.699
11481TIP3   OH234385   7.914   7.159   3.051
11481TIP3    H134386   7.878   7.212   3.122
11481TIP3    H234387   7.963   7.089   3.096
11482TIP3   OH234388   5.714   2.706   3.585
11482TIP3    H134389   5.800   2.670   3.563
11482TIP3    H234390   5.732   2.796   3.611
11483TIP3   OH234391   3.001   6.614   5.761
11483TIP3    H134392   3.059   6.683   5.728
11483TIP3    H234393   3.019   6.539   5.705
11484TIP3   OH234394   7.565   7.642   3.440
11484TIP3    H134395   7.506   7.607   3.374
11484TIP3    H234396   7.508   7.686   3.503
11485TIP3   OH234397   6.520   2.516   2.695
11485TIP3    H134398   6.543   2.453   2.627
11485TIP3    H234399   6.598   2.570   2.707
11486TIP3   OH234400   1.832   0.504   0.064
11486TIP3    H134401   1.744   0.473   0.042
11486TIP3    H234402   1.835   0.594   0.030
11487TIP3   OH234403   5.060   3.292   4.457
11487TIP3    H134404   5.073   3.231   4.385
11487TIP3    H234405   5.007   3.363   4.419
11488TIP3   OH234406   7.230   5.150   3.982
11488TIP3    H134407   7.281   5.122   3.906
11488TIP3    H234408   7.191   5.233   3.956
11489TIP3   OH234409   7.396   5.783   3.814
11489TIP3    H134410   7.384   5.876   3.798
11489TIP3    H234411   7.408   5.745   3.727
11490TIP3   OH234412   6.949   4.672   4.736
11490TIP3    H134413   6.994   4.731   4.675
11490TIP3    H234414   7.014   4.605   4.756
11491TIP3   OH234415   7.159   1.925   6.245
11491TIP3    H134416   7.153   1.945   6.152
11491TIP3    H234417   7.117   1.999   6.288
11492TIP3   OH234418   4.944   7.327   0.346
11492TIP3    H134419   4.867   7.331   0.403
11492TIP3    H234420   4.982   7.241   0.364
11493TIP3   OH234421   0.094   7.480   5.319
11493TIP3    H134422   0.070   7.390   5.342
11493TIP3    H234423   0.060   7.492   5.230
11494TIP3   OH234424   2.036   6.522   0.300
11494TIP3    H134425   1.995   6.478   0.226
11494TIP3    H234426   2.119   6.476   0.312
11495TIP3   OH234427   3.117   4.739   2.385
11495TIP3    H134428   3.142   4.821   2.343
11495TIP3    H234429   3.050   4.765   2.448
11496TIP3   OH234430   0.209   2.546   2.105
11496TIP3    H134431   0.244   2.616   2.160
11496TIP3    H234432   0.281   2.524   2.046
11497TIP3   OH234433   5.851   4.838   4.978
11497TIP3    H134434   5.841   4.822   4.885
11497TIP3    H234435   5.945   4.853   4.989
11498TIP3   OH234436   4.240   1.859   4.718
11498TIP3    H134437   4.328   1.834   4.744
11498TIP3    H234438   4.183   1.813   4.780
11499TIP3   OH234439   4.612   2.052   3.920
11499TIP3    H134440   4.692   2.056   3.972
11499TIP3    H234441   4.584   1.960   3.927
11500TIP3   OH234442   7.823   4.675   4.726
11500TIP3    H134443   7.871   4.713   4.653
11500TIP3    H234444   7.738   4.651   4.690
11501TIP3   OH234445   6.724   1.510   0.738
11501TIP3    H134446   6.752   1.457   0.663
11501TIP3    H234447   6.715   1.598   0.703
11502TIP3   OH234448   1.645   5.331   0.514
11502TIP3    H134449   1.555   5.301   0.525
11502TIP3    H234450   1.689   5.259   0.468
11503TIP3   OH234451   4.464   5.693   2.301
11503TIP3    H134452   4.551   5.654   2.297
11503TIP3    H234453   4.456   5.743   2.220
11504TIP3   OH234454   4.369   0.209   3.491
11504TIP3    H134455   4.460   0.227   3.465
11504TIP3    H234456   4.318   0.279   3.450
11505TIP3   OH234457   1.864   3.359   3.065
11505TIP3    H134458   1.775   3.350   3.032
11505TIP3    H234459   1.862   3.320   3.153
11506TIP3   OH234460   4.212   0.859   6.307
11506TIP3    H134461   4.187   0.846   6.215
11506TIP3    H234462   4.308   0.851   6.307
11507TIP3   OH234463   4.429   2.908   1.655
11507TIP3    H134464   4.510   2.933   1.699
11507TIP3    H234465   4.360   2.945   1.711
11508TIP3   OH234466   4.155   0.470   2.161
11508TIP3    H134467   4.078   0.478   2.104
11508TIP3    H234468   4.182   0.561   2.177
11509TIP3   OH234469   3.889   1.074   4.904
11509TIP3    H134470   3.844   1.155   4.928
11509TIP3    H234471   3.824   1.023   4.855
11510TIP3   OH234472   3.593   4.176   2.961
11510TIP3    H134473   3.587   4.265   2.995
11510TIP3    H234474   3.517   4.130   2.996
11511TIP3   OH234475   3.994   2.176   0.697
11511TIP3    H134476   4.003   2.105   0.633
11511TIP3    H234477   4.003   2.132   0.782
11512TIP3   OH234478   6.228   1.824   5.159
11512TIP3    H134479   6.174   1.771   5.101
11512TIP3    H234480   6.225   1.912   5.122
11513TIP3   OH234481   4.596   1.463   2.855
11513TIP3    H134482   4.574   1.371   2.837
11513TIP3    H234483   4.604   1.467   2.950
11514TIP3   OH234484   4.976   5.612   2.744
11514TIP3    H134485   4.943   5.563   2.669
11514TIP3    H234486   5.025   5.549   2.795
11515TIP3   OH234487   4.737   1.418   3.500
11515TIP3    H134488   4.691   1.361   3.438
11515TIP3    H234489   4.745   1.364   3.579
11516TIP3   OH234490   0.582   3.774   5.208
11516TIP3    H134491   0.585   3.869   5.194
11516TIP3    H234492   0.649   3.757   5.274
11517TIP3   OH234493   1.568   7.634   0.386
11517TIP3    H134494   1.569   7.611   0.479
11517TIP3    H234495   1.490   7.590   0.352
11518TIP3   OH234496   0.291   0.663   0.511
11518TIP3    H134497   0.372   0.630   0.549
11518TIP3    H234498   0.285   0.620   0.426
11519TIP3   OH234499   7.780   2.531   6.335
11519TIP3    H134500   7.779   2.440   6.306
11519TIP3    H234501   7.854   2.571   6.289
11520TIP3   OH234502   4.756   7.195   3.107
11520TIP3    H134503   4.794   7.281   3.094
11520TIP3    H234504   4.661   7.209   3.104
11521TIP3   OH234505   7.504   2.687   2.966
11521TIP3    H134506   7.591   2.656   2.942
11521TIP3    H234507   7.466   2.719   2.884
11522TIP3   OH234508   3.453   0.234   4.084
11522TIP3    H134509   3.394   0.300   4.047
11522TIP3    H234510   3.434   0.155   4.035
11523TIP3   OH234511   7.092   7.043   4.749
11523TIP3    H134512   7.075   6.984   4.823
11523TIP3    H234513   7.171   7.007   4.708
11524TIP3   OH234514   4.310   3.253   0.378
11524TIP3    H134515   4.271   3.204   0.306
11524TIP3    H234516   4.246   3.246   0.449
11525TIP3   OH234517   2.602   5.824   5.467
11525TIP3    H134518   2.607   5.883   5.391
11525TIP3    H234519   2.690   5.826   5.504
11526TIP3   OH234520   3.390   2.098   5.140
11526TIP3    H134521   3.463   2.159   5.134
11526TIP3    H234522   3.361   2.087   5.049
11527TIP3   OH234523   5.017   6.195   3.726
11527TIP3    H134524   5.090   6.160   3.675
11527TIP3    H234525   5.058   6.249   3.793
11528TIP3   OH234526   2.279   6.244   3.976
11528TIP3    H134527   2.300   6.270   4.066
11528TIP3    H234528   2.354   6.274   3.925
11529TIP3   OH234529   7.258   3.093   6.548
11529TIP3    H134530   7.211   3.176   6.542
11529TIP3    H234531   7.198   3.028   6.514
11530TIP3   OH234532   2.183   4.760   1.944
11530TIP3    H134533   2.097   4.765   1.902
11530TIP3    H234534   2.215   4.851   1.942
11531TIP3   OH234535   5.536   2.996   4.972
11531TIP3    H134536   5.593   3.021   5.045
11531TIP3    H234537   5.556   3.060   4.904
11532TIP3   OH234538   8.243   6.657   1.334
11532TIP3    H134539   8.299   6.680   1.408
11532TIP3    H234540   8.275   6.711   1.262
11533TIP3   OH234541   1.405   6.711   3.334
11533TIP3    H134542   1.438   6.650   3.400
11533TIP3    H234543   1.483   6.748   3.293
11534TIP3   OH234544   2.295   6.383   0.274
11534TIP3    H134545   2.245   6.311   0.235
11534TIP3    H234546   2.355   6.340   0.335
11535TIP3   OH234547   8.070   5.725   1.690
11535TIP3    H134548   8.073   5.698   1.598
11535TIP3    H234549   8.015   5.804   1.691
11536TIP3   OH234550   4.540   6.306   2.810
11536TIP3    H134551   4.625   6.324   2.769
11536TIP3    H234552   4.479   6.366   2.767
11537TIP3   OH234553   7.491   2.437   5.923
11537TIP3    H134554   7.549   2.396   5.987
11537TIP3    H234555   7.543   2.441   5.843
11538TIP3   OH234556   7.631   3.442   6.165
11538TIP3    H134557   7.676   3.379   6.221
11538TIP3    H234558   7.615   3.394   6.084
11539TIP3   OH234559   5.294   5.876   1.405
11539TIP3    H134560   5.375   5.833   1.431
11539TIP3    H234561   5.273   5.934   1.478
11540TIP3   OH234562   1.176   2.855   4.625
11540TIP3    H134563   1.143   2.799   4.555
11540TIP3    H234564   1.122   2.834   4.701
11541TIP3   OH234565   3.373   5.902   2.510
11541TIP3    H134566   3.361   5.861   2.424
11541TIP3    H234567   3.468   5.910   2.519
11542TIP3   OH234568   3.991   3.295   3.183
11542TIP3    H134569   3.909   3.269   3.142
11542TIP3    H234570   3.972   3.380   3.223
11543TIP3   OH234571   3.466   2.086   4.803
11543TIP3    H134572   3.387   2.104   4.752
11543TIP3    H234573   3.517   2.167   4.797
11544TIP3   OH234574   6.955   1.866   0.511
11544TIP3    H134575   7.024   1.837   0.570
11544TIP3    H234576   6.962   1.962   0.511
11545TIP3   OH234577   7.598   0.141   6.683
11545TIP3    H134578   7.665   0.116   6.747
11545TIP3    H234579   7.588   0.064   6.628
11546TIP3   OH234580   6.567   5.096   2.728
11546TIP3    H134581   6.591   5.018   2.778
11546TIP3    H234582   6.482   5.075   2.690
11547TIP3   OH234583   2.238   0.806   3.456
11547TIP3    H134584   2.180   0.832   3.384
11547TIP3    H234585   2.322   0.846   3.434
11548TIP3   OH234586   7.619   0.193   1.861
11548TIP3    H134587   7.667   0.219   1.940
11548TIP3    H234588   7.688   0.168   1.799
11549TIP3   OH234589   7.147   2.132   3.457
11549TIP3    H134590   7.225   2.140   3.511
11549TIP3    H234591   7.076   2.115   3.519
11550TIP3   OH234592   8.056   1.369   6.359
11550TIP3    H134593   8.059   1.278   6.331
11550TIP3    H234594   8.141   1.385   6.401
11551TIP3   OH234595   7.014   6.839   3.475
11551TIP3    H134596   7.099   6.827   3.518
11551TIP3    H234597   6.949   6.818   3.542
11552TIP3   OH234598   1.501   6.724   2.883
11552TIP3    H134599   1.587   6.685   2.898
11552TIP3    H234600   1.519   6.810   2.847
11553TIP3   OH234601   6.219   3.999   2.666
11553TIP3    H134602   6.155   4.041   2.609
11553TIP3    H234603   6.304   4.018   2.625
11554TIP3   OH234604   3.358   3.525   2.000
11554TIP3    H134605   3.331   3.434   2.012
11554TIP3    H234606   3.348   3.541   1.906
11555TIP3   OH234607   4.618   1.167   4.930
11555TIP3    H134608   4.633   1.082   4.891
11555TIP3    H234609   4.535   1.159   4.977
11556TIP3   OH234610   3.644   4.129   5.265
11556TIP3    H134611   3.702   4.088   5.201
11556TIP3    H234612   3.671   4.091   5.349
11557TIP3   OH234613   5.767   6.600   2.030
11557TIP3    H134614   5.690   6.646   2.065
11557TIP3    H234615   5.809   6.563   2.107
11558TIP3   OH234616   2.517   5.729   4.259
11558TIP3    H134617   2.512   5.822   4.236
11558TIP3    H234618   2.542   5.728   4.351
11559TIP3   OH234619   5.742   2.052   3.197
11559TIP3    H134620   5.774   1.995   3.127
11559TIP3    H234621   5.762   2.141   3.167
11560TIP3   OH234622   5.218   6.461   0.718
11560TIP3    H134623   5.237   6.383   0.666
11560TIP3    H234624   5.204   6.428   0.806
11561TIP3   OH234625   2.024   4.654   3.017
11561TIP3    H134626   2.021   4.646   2.921
11561TIP3    H234627   1.980   4.575   3.049
11562TIP3   OH234628   4.759   6.403   5.610
11562TIP3    H134629   4.798   6.367   5.531
11562TIP3    H234630   4.711   6.480   5.580
11563TIP3   OH234631   3.531   4.916   2.374
11563TIP3    H134632   3.531   4.834   2.423
11563TIP3    H234633   3.583   4.976   2.428
11564TIP3   OH234634   3.770   1.959   1.913
11564TIP3    H134635   3.759   1.991   2.002
11564TIP3    H234636   3.814   2.030   1.867
11565TIP3   OH234637   3.670   6.916   6.258
11565TIP3    H134638   3.598   6.977   6.274
11565TIP3    H234639   3.630   6.830   6.268
11566TIP3   OH234640   6.341   1.703   1.164
11566TIP3    H134641   6.335   1.644   1.089
11566TIP3    H234642   6.287   1.778   1.140
11567TIP3   OH234643   2.540   1.986   0.256
11567TIP3    H134644   2.624   2.009   0.294
11567TIP3    H234645   2.496   1.936   0.325
11568TIP3   OH234646   2.481   4.316   6.408
11568TIP3    H134647   2.559   4.304   6.462
11568TIP3    H234648   2.432   4.386   6.451
11569TIP3   OH234649   0.458   3.197   6.436
11569TIP3    H134650   0.486   3.236   6.519
11569TIP3    H234651   0.431   3.108   6.460
11570TIP3   OH234652   7.043   0.470   6.344
11570TIP3    H134653   6.990   0.532   6.293
11570TIP3    H234654   7.061   0.399   6.283
11571TIP3   OH234655   2.372   0.208   4.551
11571TIP3    H134656   2.457   0.240   4.581
11571TIP3    H234657   2.393   0.145   4.482
11572TIP3   OH234658   0.871   3.814   3.014
11572TIP3    H134659   0.899   3.739   3.066
11572TIP3    H234660   0.854   3.883   3.079
11573TIP3   OH234661   3.409   3.025   5.888
11573TIP3    H134662   3.427   3.078   5.811
11573TIP3    H234663   3.487   2.970   5.898
11574TIP3   OH234664   6.849   6.200   6.528
11574TIP3    H134665   6.847   6.236   6.439
11574TIP3    H234666   6.904   6.262   6.577
11575TIP3   OH234667   1.810   7.484   6.727
11575TIP3    H134668   1.807   7.506   6.634
11575TIP3    H234669   1.759   7.553   6.770
11576TIP3   OH234670   2.189   7.652   6.714
11576TIP3    H134671   2.137   7.585   6.759
11576TIP3    H234672   2.127   7.696   6.657
11577TIP3   OH234673   4.196   4.572   2.980
11577TIP3    H134674   4.134   4.642   3.000
11577TIP3    H234675   4.211   4.528   3.064
11578TIP3   OH234676   4.956   3.911   5.093
11578TIP3    H134677   4.939   3.872   5.178
11578TIP3    H234678   5.051   3.921   5.088
11579TIP3   OH234679   8.021   0.420   4.313
11579TIP3    H134680   8.003   0.509   4.284
11579TIP3    H234681   7.982   0.364   4.244
11580TIP3   OH234682   3.693   1.914   6.306
11580TIP3    H134683   3.635   1.838   6.312
11580TIP3    H234684   3.637   1.989   6.322
11581TIP3   OH234685   0.786   6.504   3.626
11581TIP3    H134686   0.764   6.498   3.533
11581TIP3    H234687   0.881   6.516   3.627
11582TIP3   OH234688   6.432   6.475   1.247
11582TIP3    H134689   6.392   6.469   1.334
11582TIP3    H234690   6.359   6.495   1.188
11583TIP3   OH234691   1.834   3.980   0.424
11583TIP3    H134692   1.868   4.042   0.360
11583TIP3    H234693   1.898   3.909   0.427
11584TIP3   OH234694   5.555   5.413   5.425
11584TIP3    H134695   5.477   5.467   5.439
11584TIP3    H234696   5.628   5.475   5.432
11585TIP3   OH234697   7.985   2.102   2.698
11585TIP3    H134698   7.896   2.120   2.729
11585TIP3    H234699   8.028   2.187   2.700
11586TIP3   OH234700   5.518   2.540   2.939
11586TIP3    H134701   5.454   2.484   2.895
11586TIP3    H234702   5.600   2.491   2.934
11587TIP3   OH234703   6.887   6.787   5.450
11587TIP3    H134704   6.883   6.875   5.488
11587TIP3    H234705   6.827   6.791   5.376
11588TIP3   OH234706   3.923   6.033   6.283
11588TIP3    H134707   3.916   6.021   6.377
11588TIP3    H234708   4.013   6.006   6.262
11589TIP3   OH234709   7.928   4.909   6.751
11589TIP3    H134710   7.927   5.002   6.730
11589TIP3    H234711   8.009   4.876   6.713
11590TIP3   OH234712   3.524   7.123   4.703
11590TIP3    H134713   3.485   7.182   4.768
11590TIP3    H234714   3.456   7.111   4.638
11591TIP3   OH234715   8.084   2.216   3.615
11591TIP3    H134716   8.028   2.289   3.591
11591TIP3    H234717   8.082   2.215   3.711
11592TIP3   OH234718   1.334   6.917   2.589
11592TIP3    H134719   1.387   6.873   2.523
11592TIP3    H234720   1.366   7.007   2.590
11593TIP3   OH234721   7.916   0.711   0.692
11593TIP3    H134722   7.990   0.769   0.674
11593TIP3    H234723   7.937   0.631   0.642
11594TIP3   OH234724   2.425   3.515   2.481
11594TIP3    H134725   2.466   3.590   2.440
11594TIP3    H234726   2.493   3.448   2.483
11595TIP3   OH234727   2.845   4.157   1.326
11595TIP3    H134728   2.875   4.210   1.253
11595TIP3    H234729   2.925   4.115   1.360
11596TIP3   OH234730   6.601   1.899   5.206
11596TIP3    H134731   6.650   1.872   5.283
11596TIP3    H234732   6.668   1.912   5.139
11597TIP3   OH234733   2.064   1.042   3.974
11597TIP3    H134734   2.031   1.094   3.900
11597TIP3    H234735   2.099   0.963   3.933
11598TIP3   OH234736   4.457   0.189   2.027
11598TIP3    H134737   4.502   0.148   2.100
11598TIP3    H234738   4.366   0.161   2.036
11599TIP3   OH234739   5.860   0.998   1.350
11599TIP3    H134740   5.864   1.049   1.269
11599TIP3    H234741   5.950   0.999   1.383
11600TIP3   OH234742   4.142   6.863   0.795
11600TIP3    H134743   4.149   6.916   0.716
11600TIP3    H234744   4.230   6.828   0.808
11601TIP3   OH234745   7.243   5.969   1.224
11601TIP3    H134746   7.259   6.035   1.156
11601TIP3    H234747   7.190   6.015   1.290
11602TIP3   OH234748   4.779   2.547   2.693
11602TIP3    H134749   4.746   2.547   2.604
11602TIP3    H234750   4.830   2.628   2.700
11603TIP3   OH234751   5.087   0.272   3.308
11603TIP3    H134752   5.167   0.287   3.359
11603TIP3    H234753   5.118   0.249   3.220
11604TIP3   OH234754   5.110   3.211   4.205
11604TIP3    H134755   5.059   3.223   4.124
11604TIP3    H234756   5.187   3.161   4.178
11605TIP3   OH234757   5.244   3.913   3.958
11605TIP3    H134758   5.314   3.969   3.925
11605TIP3    H234759   5.277   3.881   4.043
11606TIP3   OH234760   5.491   7.039   1.351
11606TIP3    H134761   5.474   6.946   1.361
11606TIP3    H234762   5.497   7.072   1.441
11607TIP3   OH234763   3.405   0.575   0.098
11607TIP3    H134764   3.379   0.600   0.009
11607TIP3    H234765   3.406   0.657   0.147
11608TIP3   OH234766   5.266   6.636   0.302
11608TIP3    H134767   5.296   6.637   0.211
11608TIP3    H234768   5.271   6.544   0.328
11609TIP3   OH234769   4.355   0.779   5.433
11609TIP3    H134770   4.421   0.736   5.488
11609TIP3    H234771   4.321   0.710   5.377
11610TIP3   OH234772   5.145   3.084   0.160
11610TIP3    H134773   5.104   3.121   0.083
11610TIP3    H234774   5.122   3.144   0.231
11611TIP3   OH234775   2.265   7.114   1.667
11611TIP3    H134776   2.171   7.093   1.668
11611TIP3    H234777   2.275   7.181   1.735
11612TIP3   OH234778   7.023   4.751   5.339
11612TIP3    H134779   7.118   4.751   5.351
11612TIP3    H234780   7.010   4.799   5.257
11613TIP3   OH234781   6.258   6.946   3.442
11613TIP3    H134782   6.223   7.014   3.385
11613TIP3    H234783   6.300   6.993   3.514
11614TIP3   OH234784   6.559   5.371   1.467
11614TIP3    H134785   6.594   5.282   1.460
11614TIP3    H234786   6.578   5.410   1.382
11615TIP3   OH234787   3.561   5.526   0.417
11615TIP3    H134788   3.629   5.564   0.473
11615TIP3    H234789   3.480   5.568   0.446
11616TIP3   OH234790   6.542   1.137   5.681
11616TIP3    H134791   6.586   1.188   5.749
11616TIP3    H234792   6.450   1.139   5.705
11617TIP3   OH234793   1.508   3.891   5.531
11617TIP3    H134794   1.568   3.899   5.605
11617TIP3    H234795   1.535   3.810   5.487
11618TIP3   OH234796   5.645   7.157   2.907
11618TIP3    H134797   5.604   7.237   2.938
11618TIP3    H234798   5.669   7.109   2.987
11619TIP3   OH234799   3.192   7.128   1.504
11619TIP3    H134800   3.286   7.142   1.494
11619TIP3    H234801   3.163   7.095   1.419
11620TIP3   OH234802   0.986   0.540   2.811
11620TIP3    H134803   1.043   0.473   2.850
11620TIP3    H234804   1.026   0.623   2.838
11621TIP3   OH234805   7.272   2.207   6.578
11621TIP3    H134806   7.309   2.142   6.519
11621TIP3    H234807   7.179   2.209   6.558
11622TIP3   OH234808   6.855   2.878   6.074
11622TIP3    H134809   6.930   2.938   6.076
11622TIP3    H234810   6.889   2.796   6.108
11623TIP3   OH234811   5.653   7.767   5.100
11623TIP3    H134812   5.642   7.861   5.084
11623TIP3    H234813   5.747   7.751   5.089
11624TIP3   OH234814   6.864   6.078   3.964
11624TIP3    H134815   6.795   6.099   3.901
11624TIP3    H234816   6.912   6.006   3.924
11625TIP3   OH234817   5.629   0.463   4.505
11625TIP3    H134818   5.677   0.545   4.505
11625TIP3    H234819   5.572   0.468   4.428
11626TIP3   OH234820   0.807   0.595   3.838
11626TIP3    H134821   0.844   0.658   3.776
11626TIP3    H234822   0.810   0.511   3.792
11627TIP3   OH234823   0.884   1.045   3.958
11627TIP3    H134824   0.944   1.040   3.884
11627TIP3    H234825   0.800   1.070   3.919
11628TIP3   OH234826   8.061   0.225   5.269
11628TIP3    H134827   8.122   0.190   5.334
11628TIP3    H234828   8.110   0.296   5.227
11629TIP3   OH234829   2.400   2.693   2.848
11629TIP3    H134830   2.381   2.651   2.764
11629TIP3    H234831   2.442   2.776   2.824
11630TIP3   OH234832   2.768   6.674   3.343
11630TIP3    H134833   2.829   6.672   3.270
11630TIP3    H234834   2.722   6.758   3.333
11631TIP3   OH234835   1.385   3.510   4.573
11631TIP3    H134836   1.392   3.497   4.668
11631TIP3    H234837   1.404   3.603   4.560
11632TIP3   OH234838   8.061   4.547   4.934
11632TIP3    H134839   8.088   4.624   4.883
11632TIP3    H234840   8.123   4.545   5.007
11633TIP3   OH234841   1.250   6.802   1.039
11633TIP3    H134842   1.216   6.728   0.989
11633TIP3    H234843   1.345   6.792   1.037
11634TIP3   OH234844   0.568   6.513   6.524
11634TIP3    H134845   0.487   6.557   6.498
11634TIP3    H234846   0.610   6.487   6.442
11635TIP3   OH234847   1.510   4.948   3.788
11635TIP3    H134848   1.484   5.020   3.846
11635TIP3    H234849   1.491   4.981   3.700
11636TIP3   OH234850   0.283   0.242   4.153
11636TIP3    H134851   0.208   0.284   4.194
11636TIP3    H234852   0.247   0.164   4.112
11637TIP3   OH234853   0.173   5.652   0.988
11637TIP3    H134854   0.103   5.609   0.939
11637TIP3    H234855   0.200   5.725   0.932
11638TIP3   OH234856   5.798   5.372   6.132
11638TIP3    H134857   5.708   5.356   6.105
11638TIP3    H234858   5.812   5.465   6.115
11639TIP3   OH234859   7.772   1.462   4.159
11639TIP3    H134860   7.802   1.463   4.250
11639TIP3    H234861   7.852   1.468   4.107
11640TIP3   OH234862   3.550   4.543   1.179
11640TIP3    H134863   3.534   4.528   1.086
11640TIP3    H234864   3.646   4.540   1.188
11641TIP3   OH234865   6.949   7.258   6.028
11641TIP3    H134866   6.988   7.232   6.111
11641TIP3    H234867   6.891   7.331   6.050
11642TIP3   OH234868   6.364   0.338   6.077
11642TIP3    H134869   6.439   0.395   6.094
11642TIP3    H234870   6.290   0.381   6.119
11643TIP3   OH234871   1.464   6.781   6.484
11643TIP3    H134872   1.551   6.774   6.523
11643TIP3    H234873   1.473   6.852   6.420
11644TIP3   OH234874   1.151   7.406   4.098
11644TIP3    H134875   1.172   7.487   4.051
11644TIP3    H234876   1.235   7.362   4.111
11645TIP3   OH234877   6.749   5.829   4.243
11645TIP3    H134878   6.710   5.894   4.185
11645TIP3    H234879   6.809   5.780   4.187
11646TIP3   OH234880   5.208   1.136   1.810
11646TIP3    H134881   5.247   1.185   1.738
11646TIP3    H234882   5.251   1.169   1.888
11647TIP3   OH234883   5.836   1.246   6.657
11647TIP3    H134884   5.923   1.283   6.650
11647TIP3    H234885   5.812   1.224   6.568
11648TIP3   OH234886   5.261   2.259   3.737
11648TIP3    H134887   5.233   2.273   3.646
11648TIP3    H234888   5.255   2.164   3.750
11649TIP3   OH234889   2.057   6.038   6.478
11649TIP3    H134890   1.979   6.076   6.519
11649TIP3    H234891   2.054   6.069   6.387
11650TIP3   OH234892   6.983   5.948   4.371
11650TIP3    H134893   6.891   5.931   4.352
11650TIP3    H234894   6.987   5.954   4.467
11651TIP3   OH234895   3.030   1.204   3.528
11651TIP3    H134896   3.022   1.129   3.470
11651TIP3    H234897   3.119   1.198   3.563
11652TIP3   OH234898   7.715   4.032   4.073
11652TIP3    H134899   7.692   3.951   4.119
11652TIP3    H234900   7.631   4.070   4.047
11653TIP3   OH234901   2.638   3.463   2.096
11653TIP3    H134902   2.640   3.542   2.150
11653TIP3    H234903   2.712   3.411   2.128
11654TIP3   OH234904   1.381   0.153   4.434
11654TIP3    H134905   1.338   0.069   4.416
11654TIP3    H234906   1.456   0.154   4.374
11655TIP3   OH234907   6.925   0.609   4.290
11655TIP3    H134908   6.924   0.702   4.312
11655TIP3    H234909   6.902   0.606   4.197
11656TIP3   OH234910   6.329   6.933   3.960
11656TIP3    H134911   6.358   6.842   3.958
11656TIP3    H234912   6.265   6.937   4.031
11657TIP3   OH234913   2.879   5.861   5.549
11657TIP3    H134914   2.881   5.941   5.497
11657TIP3    H234915   2.959   5.814   5.524
11658TIP3   OH234916   6.042   5.765   6.404
11658TIP3    H134917   5.961   5.730   6.369
11658TIP3    H234918   6.102   5.691   6.407
11659TIP3   OH234919   0.154   0.972   2.110
11659TIP3    H134920   0.138   0.893   2.058
11659TIP3    H234921   0.249   0.979   2.112
11660TIP3   OH234922   2.390   3.581   5.303
11660TIP3    H134923   2.315   3.569   5.245
11660TIP3    H234924   2.352   3.605   5.387
11661TIP3   OH234925   6.592   5.566   6.671
11661TIP3    H134926   6.540   5.492   6.639
11661TIP3    H234927   6.604   5.548   6.764
11662TIP3   OH234928   2.335   3.369   0.132
11662TIP3    H134929   2.401   3.329   0.077
11662TIP3    H234930   2.255   3.370   0.078
11663TIP3   OH234931   1.283   1.829   1.266
11663TIP3    H134932   1.230   1.826   1.186
11663TIP3    H234933   1.227   1.869   1.331
11664TIP3   OH234934   2.275   1.782   6.232
11664TIP3    H134935   2.326   1.736   6.166
11664TIP3    H234936   2.221   1.714   6.272
11665TIP3   OH234937   6.565   1.790   6.193
11665TIP3    H134938   6.543   1.869   6.242
11665TIP3    H234939   6.624   1.820   6.124
11666TIP3   OH234940   5.629   5.177   0.764
11666TIP3    H134941   5.588   5.251   0.720
11666TIP3    H234942   5.633   5.204   0.856
11667TIP3   OH234943   3.130   4.126   4.072
11667TIP3    H134944   3.217   4.100   4.103
11667TIP3    H234945   3.130   4.221   4.076
11668TIP3   OH234946   1.608   6.269   2.716
11668TIP3    H134947   1.675   6.202   2.731
11668TIP3    H234948   1.586   6.261   2.623
11669TIP3   OH234949   5.554   7.713   6.286
11669TIP3    H134950   5.535   7.805   6.300
11669TIP3    H234951   5.614   7.712   6.212
11670TIP3   OH234952   1.285   1.807   0.619
11670TIP3    H134953   1.356   1.755   0.656
11670TIP3    H234954   1.328   1.887   0.587
11671TIP3   OH234955   2.591   6.892   2.765
11671TIP3    H134956   2.674   6.937   2.780
11671TIP3    H234957   2.540   6.953   2.711
11672TIP3   OH234958   0.646   2.326   4.294
11672TIP3    H134959   0.621   2.298   4.381
11672TIP3    H234960   0.651   2.245   4.243
11673TIP3   OH234961   2.536   1.230   5.849
11673TIP3    H134962   2.455   1.223   5.798
11673TIP3    H234963   2.578   1.145   5.841
11674TIP3   OH234964   1.047   2.210   6.281
11674TIP3    H134965   1.077   2.243   6.196
11674TIP3    H234966   0.971   2.264   6.303
11675TIP3   OH234967   1.418   7.536   2.406
11675TIP3    H134968   1.377   7.596   2.468
11675TIP3    H234969   1.400   7.449   2.442
11676TIP3   OH234970   3.974   4.327   0.678
11676TIP3    H134971   4.008   4.403   0.726
11676TIP3    H234972   4.020   4.252   0.716
11677TIP3   OH234973   3.655   5.915   2.493
11677TIP3    H134974   3.742   5.877   2.478
11677TIP3    H234975   3.673   5.995   2.542
11678TIP3   OH234976   4.437   1.987   2.989
11678TIP3    H134977   4.434   1.893   2.973
11678TIP3    H234978   4.530   2.010   2.988
11679TIP3   OH234979   4.514   5.374   5.848
11679TIP3    H134980   4.600   5.401   5.880
11679TIP3    H234981   4.477   5.454   5.811
11680TIP3   OH234982   3.525   0.505   5.578
11680TIP3    H134983   3.443   0.535   5.617
11680TIP3    H234984   3.576   0.585   5.564
11681TIP3   OH234985   4.174   6.341   2.994
11681TIP3    H134986   4.109   6.352   3.064
11681TIP3    H234987   4.255   6.375   3.032
11682TIP3   OH234988   1.535   0.208   6.000
11682TIP3    H134989   1.513   0.168   6.084
11682TIP3    H234990   1.628   0.230   6.007
11683TIP3   OH234991   4.699   6.265   5.355
11683TIP3    H134992   4.774   6.215   5.324
11683TIP3    H234993   4.646   6.281   5.277
11684TIP3   OH234994   6.830   0.948   0.550
11684TIP3    H134995   6.867   0.866   0.516
11684TIP3    H234996   6.741   0.949   0.517
11685TIP3   OH234997   3.323   3.239   5.432
11685TIP3    H134998   3.244   3.187   5.423
11685TIP3    H234999   3.295   3.329   5.414
11686TIP3   OH235000   5.311   0.102   6.596
11686TIP3    H135001   5.277   0.028   6.648
11686TIP3    H235002   5.382   0.138   6.650
11687TIP3   OH235003   0.278   4.465   0.710
11687TIP3    H135004   0.265   4.386   0.657
11687TIP3    H235005   0.372   4.466   0.728
11688TIP3   OH235006   4.137   0.699   6.576
11688TIP3    H135007   4.063   0.644   6.550
11688TIP3    H235008   4.100   0.786   6.589
11689TIP3   OH235009   8.143   5.210   2.242
11689TIP3    H135010   8.144   5.137   2.304
11689TIP3    H235011   8.232   5.211   2.206
11690TIP3   OH235012   4.162   5.689   3.728
11690TIP3    H135013   4.084   5.676   3.782
11690TIP3    H235014   4.227   5.628   3.763
11691TIP3   OH235015   4.998   5.366   3.060
11691TIP3    H135016   5.091   5.345   3.072
11691TIP3    H235017   4.972   5.312   2.985
11692TIP3   OH235018   1.133   6.751   3.384
11692TIP3    H135019   1.120   6.831   3.334
11692TIP3    H235020   1.225   6.728   3.371
11693TIP3   OH235021   1.341   0.453   6.645
11693TIP3    H135022   1.332   0.431   6.553
11693TIP3    H235023   1.278   0.524   6.659
11694TIP3   OH235024   7.420   6.745   0.248
11694TIP3    H135025   7.351   6.713   0.306
11694TIP3    H235026   7.426   6.678   0.179
11695TIP3   OH235027   4.107   6.887   1.524
11695TIP3    H135028   4.106   6.797   1.557
11695TIP3    H235029   4.018   6.919   1.541
11696TIP3   OH235030   5.990   0.186   4.552
11696TIP3    H135031   6.073   0.138   4.560
11696TIP3    H235032   5.984   0.236   4.634
11697TIP3   OH235033   0.566   4.109   2.485
11697TIP3    H135034   0.500   4.172   2.514
11697TIP3    H235035   0.627   4.161   2.433
11698TIP3   OH235036   6.334   6.993   4.819
11698TIP3    H135037   6.411   6.978   4.874
11698TIP3    H235038   6.260   6.968   4.874
11699TIP3   OH235039   2.627   7.737   0.826
11699TIP3    H135040   2.614   7.661   0.883
11699TIP3    H235041   2.550   7.792   0.842
11700TIP3   OH235042   3.911   5.098   1.933
11700TIP3    H135043   3.998   5.124   1.902
11700TIP3    H235044   3.911   5.002   1.926
11701TIP3   OH235045   4.632   6.162   0.224
11701TIP3    H135046   4.642   6.256   0.236
11701TIP3    H235047   4.659   6.147   0.133
11702TIP3   OH235048   0.752   7.028   2.779
11702TIP3    H135049   0.733   6.949   2.730
11702TIP3    H235050   0.846   7.025   2.796
11703TIP3   OH235051   2.217   2.873   5.600
11703TIP3    H135052   2.202   2.968   5.595
11703TIP3    H235053   2.152   2.842   5.663
11704TIP3   OH235054   4.446   4.874   3.059
11704TIP3    H135055   4.422   4.822   2.983
11704TIP3    H235056   4.542   4.875   3.058
11705TIP3   OH235057   7.131   5.532   2.900
11705TIP3    H135058   7.112   5.527   2.994
11705TIP3    H235059   7.068   5.595   2.866
11706TIP3   OH235060   2.008   1.266   4.495
11706TIP3    H135061   1.939   1.287   4.432
11706TIP3    H235062   2.089   1.269   4.443
11707TIP3   OH235063   4.772   4.293   5.526
11707TIP3    H135064   4.842   4.259   5.470
11707TIP3    H235065   4.709   4.222   5.531
11708TIP3   OH235066   5.117   7.202   3.642
11708TIP3    H135067   5.200   7.162   3.670
11708TIP3    H235068   5.054   7.130   3.644
11709TIP3   OH235069   3.561   4.577   6.436
11709TIP3    H135070   3.550   4.671   6.429
11709TIP3    H235071   3.473   4.544   6.456
11710TIP3   OH235072   4.542   0.424   5.317
11710TIP3    H135073   4.610   0.491   5.310
11710TIP3    H235074   4.562   0.362   5.247
11711TIP3   OH235075   6.462   1.483   0.553
11711TIP3    H135076   6.404   1.559   0.548
11711TIP3    H235077   6.528   1.508   0.618
11712TIP3   OH235078   6.273   0.301   5.730
11712TIP3    H135079   6.227   0.261   5.804
11712TIP3    H235080   6.253   0.244   5.656
11713TIP3   OH235081   1.413   0.222   2.902
11713TIP3    H135082   1.445   0.147   2.952
11713TIP3    H235083   1.319   0.206   2.892
11714TIP3   OH235084   3.951   2.825   6.030
11714TIP3    H135085   3.959   2.737   5.995
11714TIP3    H235086   4.034   2.841   6.076
11715TIP3   OH235087   3.217   5.559   2.388
11715TIP3    H135088   3.226   5.637   2.334
11715TIP3    H235089   3.291   5.563   2.448
11716TIP3   OH235090   3.745   2.596   3.696
11716TIP3    H135091   3.739   2.591   3.792
11716TIP3    H235092   3.838   2.607   3.679
11717TIP3   OH235093   2.593   6.593   2.140
11717TIP3    H135094   2.501   6.615   2.127
11717TIP3    H235095   2.640   6.650   2.079
11718TIP3   OH235096   5.398   7.187   5.830
11718TIP3    H135097   5.373   7.266   5.879
11718TIP3    H235098   5.358   7.116   5.880
11719TIP3   OH235099   1.078   1.142   1.349
11719TIP3    H135100   1.173   1.150   1.353
11719TIP3    H235101   1.046   1.227   1.379
11720TIP3   OH235102   2.321   7.004   2.930
11720TIP3    H135103   2.250   7.009   2.866
11720TIP3    H235104   2.393   7.052   2.890
11721TIP3   OH235105   7.227   6.621   2.019
11721TIP3    H135106   7.282   6.693   2.049
11721TIP3    H235107   7.149   6.624   2.075
11722TIP3   OH235108   4.238   5.723   4.941
11722TIP3    H135109   4.194   5.638   4.932
11722TIP3    H235110   4.169   5.783   4.967
11723TIP3   OH235111   3.960   0.173   0.971
11723TIP3    H135112   3.997   0.254   1.006
11723TIP3    H235113   4.015   0.104   1.008
11724TIP3   OH235114   6.017   0.720   2.093
11724TIP3    H135115   6.075   0.644   2.092
11724TIP3    H235116   6.075   0.795   2.108
11725TIP3   OH235117   7.481   5.824   3.530
11725TIP3    H135118   7.523   5.768   3.465
11725TIP3    H235119   7.402   5.857   3.486
11726TIP3   OH235120   3.372   0.468   1.734
11726TIP3    H135121   3.278   0.487   1.729
11726TIP3    H235122   3.388   0.446   1.826
11727TIP3   OH235123   1.011   2.807   6.610
11727TIP3    H135124   0.977   2.754   6.681
11727TIP3    H235125   0.945   2.802   6.542
11728TIP3   OH235126   3.552   5.356   0.794
11728TIP3    H135127   3.635   5.376   0.751
11728TIP3    H235128   3.529   5.269   0.761
11729TIP3   OH235129   6.753   6.825   2.401
11729TIP3    H135130   6.690   6.872   2.456
11729TIP3    H235131   6.711   6.741   2.383
11730TIP3   OH235132   2.149   4.263   1.895
11730TIP3    H135133   2.239   4.275   1.925
11730TIP3    H235134   2.096   4.301   1.964
11731TIP3   OH235135   3.391   0.467   2.628
11731TIP3    H135136   3.447   0.539   2.601
11731TIP3    H235137   3.314   0.474   2.571
11732TIP3   OH235138   5.273   1.943   5.826
11732TIP3    H135139   5.328   1.967   5.901
11732TIP3    H235140   5.196   1.999   5.834
11733TIP3   OH235141   0.680   1.381   4.342
11733TIP3    H135142   0.586   1.396   4.352
11733TIP3    H235143   0.696   1.392   4.248
11734TIP3   OH235144   6.591   4.056   6.530
11734TIP3    H135145   6.506   4.097   6.547
11734TIP3    H235146   6.654   4.110   6.577
11735TIP3   OH235147   1.891   4.163   5.038
11735TIP3    H135148   1.889   4.083   5.092
11735TIP3    H235149   1.855   4.136   4.954
11736TIP3   OH235150   0.336   3.734   2.712
11736TIP3    H135151   0.368   3.655   2.756
11736TIP3    H235152   0.401   3.801   2.731
11737TIP3   OH235153   3.530   6.216   0.260
11737TIP3    H135154   3.512   6.267   0.181
11737TIP3    H235155   3.535   6.125   0.229
11738TIP3   OH235156   4.959   7.004   4.413
11738TIP3    H135157   4.905   7.028   4.337
11738TIP3    H235158   4.899   6.955   4.470
11739TIP3   OH235159   3.511   0.980   0.657
11739TIP3    H135160   3.561   0.948   0.582
11739TIP3    H235161   3.559   1.058   0.685
11740TIP3   OH235162   0.080   7.763   2.403
11740TIP3    H135163   0.122   7.740   2.486
11740TIP3    H235164   0.094   7.687   2.347
11741TIP3   OH235165   7.166   3.996   3.201
11741TIP3    H135166   7.200   4.086   3.206
11741TIP3    H235167   7.185   3.969   3.111
11742TIP3   OH235168   1.105   3.569   1.185
11742TIP3    H135169   1.059   3.535   1.108
11742TIP3    H235170   1.038   3.575   1.253
11743TIP3   OH235171   0.705   7.473   4.783
11743TIP3    H135172   0.730   7.395   4.733
11743TIP3    H235173   0.675   7.535   4.717
11744TIP3   OH235174   2.144   6.506   4.819
11744TIP3    H135175   2.181   6.579   4.870
11744TIP3    H235176   2.220   6.452   4.797
11745TIP3   OH235177   4.624   2.326   3.895
11745TIP3    H135178   4.692   2.392   3.883
11745TIP3    H235179   4.671   2.248   3.926
11746TIP3   OH235180   6.370   5.962   4.586
11746TIP3    H135181   6.283   5.971   4.548
11746TIP3    H235182   6.398   5.874   4.561
11747TIP3   OH235183   7.615   2.272   6.694
11747TIP3    H135184   7.707   2.299   6.686
11747TIP3    H235185   7.594   2.232   6.609
11748TIP3   OH235186   5.759   3.331   3.695
11748TIP3    H135187   5.750   3.326   3.599
11748TIP3    H235188   5.840   3.283   3.714
11749TIP3   OH235189   1.376   2.057   0.062
11749TIP3    H135190   1.346   2.042   0.151
11749TIP3    H235191   1.353   1.977   0.014
11750TIP3   OH235192   7.871   3.121   4.286
11750TIP3    H135193   7.912   3.129   4.200
11750TIP3    H235194   7.944   3.107   4.346
11751TIP3   OH235195   0.681   1.830   2.295
11751TIP3    H135196   0.670   1.910   2.346
11751TIP3    H235197   0.620   1.768   2.336
11752TIP3   OH235198   5.552   3.866   5.398
11752TIP3    H135199   5.515   3.800   5.339
11752TIP3    H235200   5.485   3.879   5.465
11753TIP3   OH235201   3.356   6.359   5.068
11753TIP3    H135202   3.306   6.321   4.996
11753TIP3    H235203   3.379   6.447   5.038
11754TIP3   OH235204   1.871   6.253   2.508
11754TIP3    H135205   1.809   6.204   2.561
11754TIP3    H235206   1.921   6.186   2.461
11755TIP3   OH235207   1.951   6.200   4.519
11755TIP3    H135208   1.928   6.145   4.445
11755TIP3    H235209   1.983   6.281   4.480
11756TIP3   OH235210   8.030   6.041   2.215
11756TIP3    H135211   8.011   6.005   2.302
11756TIP3    H235212   7.974   5.991   2.155
11757TIP3   OH235213   5.202   6.473   1.645
11757TIP3    H135214   5.199   6.543   1.580
11757TIP3    H235215   5.283   6.489   1.694
11758TIP3   OH235216   0.549   7.778   2.660
11758TIP3    H135217   0.590   7.693   2.677
11758TIP3    H235218   0.606   7.819   2.595
11759TIP3   OH235219   4.411   4.691   2.803
11759TIP3    H135220   4.371   4.649   2.879
11759TIP3    H235221   4.356   4.767   2.786
11760TIP3   OH235222   7.953   3.535   5.555
11760TIP3    H135223   7.866   3.575   5.558
11760TIP3    H235224   7.998   3.568   5.633
11761TIP3   OH235225   1.662   3.808   0.722
11761TIP3    H135226   1.633   3.745   0.655
11761TIP3    H235227   1.583   3.829   0.771
11762TIP3   OH235228   4.081   2.597   6.666
11762TIP3    H135229   4.136   2.569   6.739
11762TIP3    H235230   4.006   2.640   6.707
11763TIP3   OH235231   4.554   5.282   3.553
11763TIP3    H135232   4.467   5.250   3.575
11763TIP3    H235233   4.547   5.377   3.558
11764TIP3   OH235234   7.267   3.548   1.357
11764TIP3    H135235   7.279   3.473   1.415
11764TIP3    H235236   7.226   3.511   1.279
11765TIP3   OH235237   4.359   0.485   1.069
11765TIP3    H135238   4.415   0.545   1.020
11765TIP3    H235239   4.316   0.432   1.001
11766TIP3   OH235240   1.231   6.689   5.722
11766TIP3    H135241   1.201   6.701   5.812
11766TIP3    H235242   1.163   6.635   5.681
11767TIP3   OH235243   5.954   7.825   2.781
11767TIP3    H135244   5.999   7.757   2.732
11767TIP3    H235245   5.862   7.796   2.784
11768TIP3   OH235246   5.646   6.179   3.290
11768TIP3    H135247   5.668   6.212   3.203
11768TIP3    H235248   5.556   6.149   3.282
11769TIP3   OH235249   2.687   7.249   0.825
11769TIP3    H135250   2.706   7.195   0.748
11769TIP3    H235251   2.762   7.236   0.883
11770TIP3   OH235252   1.778   4.674   5.783
11770TIP3    H135253   1.755   4.605   5.722
11770TIP3    H235254   1.701   4.730   5.787
11771TIP3   OH235255   0.307   4.822   4.097
11771TIP3    H135256   0.240   4.873   4.143
11771TIP3    H235257   0.258   4.758   4.046
11772TIP3   OH235258   7.105   6.785   0.396
11772TIP3    H135259   7.088   6.789   0.302
11772TIP3    H235260   7.127   6.875   0.421
11773TIP3   OH235261   4.128   5.230   5.973
11773TIP3    H135262   4.134   5.233   6.068
11773TIP3    H235263   4.133   5.137   5.951
11774TIP3   OH235264   7.566   0.726   5.370
11774TIP3    H135265   7.565   0.818   5.395
11774TIP3    H235266   7.651   0.713   5.329
11775TIP3   OH235267   3.153   1.287   4.624
11775TIP3    H135268   3.117   1.263   4.709
11775TIP3    H235269   3.233   1.335   4.645
11776TIP3   OH235270   4.737   6.464   0.494
11776TIP3    H135271   4.728   6.435   0.585
11776TIP3    H235272   4.653   6.442   0.453
11777TIP3   OH235273   4.365   4.697   6.613
11777TIP3    H135274   4.295   4.719   6.552
11777TIP3    H235275   4.342   4.742   6.694
11778TIP3   OH235276   8.037   4.802   6.358
11778TIP3    H135277   8.080   4.887   6.364
11778TIP3    H235278   8.097   4.747   6.309
11779TIP3   OH235279   3.557   1.581   5.661
11779TIP3    H135280   3.648   1.553   5.661
11779TIP3    H235281   3.556   1.662   5.711
11780TIP3   OH235282   3.584   3.141   0.622
11780TIP3    H135283   3.528   3.217   0.634
11780TIP3    H235284   3.548   3.095   0.546
11781TIP3   OH235285   5.824   6.735   6.621
11781TIP3    H135286   5.734   6.707   6.641
11781TIP3    H235287   5.860   6.663   6.570
11782TIP3   OH235288   3.906   4.644   3.811
11782TIP3    H135289   3.967   4.571   3.801
11782TIP3    H235290   3.831   4.619   3.758
11783TIP3   OH235291   6.461   5.568   0.964
11783TIP3    H135292   6.507   5.540   0.884
11783TIP3    H235293   6.374   5.530   0.957
11784TIP3   OH235294   1.571   6.514   1.733
11784TIP3    H135295   1.666   6.520   1.734
11784TIP3    H235296   1.552   6.463   1.654
11785TIP3   OH235297   7.471   4.402   0.830
11785TIP3    H135298   7.554   4.380   0.873
11785TIP3    H235299   7.423   4.453   0.896
11786TIP3   OH235300   0.235   7.299   6.005
11786TIP3    H135301   0.205   7.212   6.031
11786TIP3    H235302   0.313   7.314   6.059
11787TIP3   OH235303   6.766   4.812   0.129
11787TIP3    H135304   6.861   4.814   0.135
11787TIP3    H235305   6.749   4.797   0.036
11788TIP3   OH235306   4.482   7.340   2.745
11788TIP3    H135307   4.419   7.304   2.683
11788TIP3    H235308   4.526   7.410   2.697
11789TIP3   OH235309   8.271   5.127   4.224
11789TIP3    H135310   8.232   5.140   4.137
11789TIP3    H235311   8.227   5.191   4.280
11790TIP3   OH235312   6.681   1.124   6.393
11790TIP3    H135313   6.639   1.072   6.324
11790TIP3    H235314   6.612   1.182   6.425
11791TIP3   OH235315   0.814   3.605   0.652
11791TIP3    H135316   0.888   3.559   0.613
11791TIP3    H235317   0.850   3.646   0.731
11792TIP3   OH235318   2.926   2.976   5.822
11792TIP3    H135319   2.894   2.990   5.733
11792TIP3    H235320   3.021   2.971   5.813
11793TIP3   OH235321   2.372   7.245   6.254
11793TIP3    H135322   2.297   7.218   6.201
11793TIP3    H235323   2.413   7.162   6.280
11794TIP3   OH235324   5.372   2.573   1.837
11794TIP3    H135325   5.466   2.552   1.835
11794TIP3    H235326   5.368   2.657   1.882
11795TIP3   OH235327   7.166   4.609   0.393
11795TIP3    H135328   7.177   4.692   0.441
11795TIP3    H235329   7.194   4.542   0.456
11796TIP3   OH235330   3.334   7.543   5.602
11796TIP3    H135331   3.352   7.578   5.514
11796TIP3    H235332   3.242   7.517   5.599
11797TIP3   OH235333   6.182   6.761   4.911
11797TIP3    H135334   6.158   6.698   4.843
11797TIP3    H235335   6.110   6.756   4.974
11798TIP3   OH235336   1.573   4.850   5.090
11798TIP3    H135337   1.627   4.771   5.100
11798TIP3    H235338   1.540   4.846   5.000
11799TIP3   OH235339   6.801   2.284   5.220
11799TIP3    H135340   6.861   2.343   5.175
11799TIP3    H235341   6.717   2.329   5.219
11800TIP3   OH235342   7.313   3.445   5.983
11800TIP3    H135343   7.368   3.523   5.991
11800TIP3    H235344   7.300   3.415   6.073
11801TIP3   OH235345   4.460   3.726   3.075
11801TIP3    H135346   4.521   3.656   3.098
11801TIP3    H235347   4.489   3.802   3.127
11802TIP3   OH235348   5.166   7.602   2.826
11802TIP3    H135349   5.191   7.613   2.735
11802TIP3    H235350   5.074   7.573   2.823
11803TIP3   OH235351   5.032   3.032   3.836
11803TIP3    H135352   5.026   3.117   3.880
11803TIP3    H235353   5.117   2.998   3.861
11804TIP3   OH235354   1.969   1.669   1.167
11804TIP3    H135355   1.947   1.627   1.250
11804TIP3    H235356   2.003   1.755   1.193
11805TIP3   OH235357   3.902   2.101   3.453
11805TIP3    H135358   3.961   2.120   3.526
11805TIP3    H235359   3.825   2.155   3.470
11806TIP3   OH235360   5.975   3.908   2.249
11806TIP3    H135361   5.943   3.958   2.325
11806TIP3    H235362   5.896   3.868   2.212
11807TIP3   OH235363   7.382   2.821   4.369
11807TIP3    H135364   7.462   2.868   4.345
11807TIP3    H235365   7.334   2.813   4.287
11808TIP3   OH235366   5.130   0.592   6.727
11808TIP3    H135367   5.072   0.636   6.665
11808TIP3    H235368   5.156   0.511   6.682
11809TIP3   OH235369   3.541   1.902   2.181
11809TIP3    H135370   3.483   1.978   2.177
11809TIP3    H235371   3.556   1.888   2.275
11810TIP3   OH235372   2.689   5.920   4.679
11810TIP3    H135373   2.771   5.891   4.718
11810TIP3    H235374   2.714   5.990   4.619
11811TIP3   OH235375   7.704   5.309   0.932
11811TIP3    H135376   7.794   5.341   0.940
11811TIP3    H235377   7.680   5.282   1.020
11812TIP3   OH235378   6.308   2.642   1.243
11812TIP3    H135379   6.247   2.660   1.315
11812TIP3    H235380   6.392   2.624   1.285
11813TIP3   OH235381   3.170   4.973   3.056
11813TIP3    H135382   3.129   5.032   2.993
11813TIP3    H235383   3.257   4.956   3.019
11814TIP3   OH235384   2.506   4.128   2.887
11814TIP3    H135385   2.598   4.125   2.913
11814TIP3    H235386   2.502   4.197   2.821
11815TIP3   OH235387   0.055   5.054   2.908
11815TIP3    H135388  -0.035   5.026   2.924
11815TIP3    H235389   0.052   5.150   2.918
11816TIP3   OH235390   6.200   4.723   3.312
11816TIP3    H135391   6.286   4.766   3.312
11816TIP3    H235392   6.170   4.729   3.221
11817TIP3   OH235393   5.290   0.287   3.838
11817TIP3    H135394   5.328   0.302   3.924
11817TIP3    H235395   5.282   0.192   3.831
11818TIP3   OH235396   1.168   0.316   4.354
11818TIP3    H135397   1.230   0.252   4.391
11818TIP3    H235398   1.082   0.280   4.376
11819TIP3   OH235399   1.484   1.481   1.036
11819TIP3    H135400   1.433   1.432   1.100
11819TIP3    H235401   1.435   1.561   1.021
11820TIP3   OH235402   7.363   5.029   3.709
11820TIP3    H135403   7.273   4.998   3.705
11820TIP3    H235404   7.414   4.961   3.665
11821TIP3   OH235405   6.203   1.229   5.903
11821TIP3    H135406   6.276   1.203   5.959
11821TIP3    H235407   6.130   1.173   5.929
11822TIP3   OH235408   8.155   1.854   6.494
11822TIP3    H135409   8.115   1.880   6.577
11822TIP3    H235410   8.132   1.761   6.485
11823TIP3   OH235411   6.769   1.787   2.936
11823TIP3    H135412   6.752   1.730   3.011
11823TIP3    H235413   6.844   1.840   2.963
11824TIP3   OH235414   7.905   3.956   0.418
11824TIP3    H135415   7.812   3.935   0.422
11824TIP3    H235416   7.913   4.016   0.343
11825TIP3   OH235417   0.682   3.627   4.767
11825TIP3    H135418   0.716   3.678   4.693
11825TIP3    H235419   0.634   3.555   4.725
11826TIP3   OH235420   2.495   4.264   6.696
11826TIP3    H135421   2.419   4.211   6.720
11826TIP3    H235422   2.557   4.202   6.658
11827TIP3   OH235423   5.926   0.399   5.911
11827TIP3    H135424   5.903   0.492   5.907
11827TIP3    H235425   5.844   0.354   5.890
11828TIP3   OH235426   5.206   0.055   5.110
11828TIP3    H135427   5.193   0.145   5.079
11828TIP3    H235428   5.292   0.030   5.077
11829TIP3   OH235429   3.483   5.533   6.688
11829TIP3    H135430   3.397   5.493   6.697
11829TIP3    H235431   3.464   5.622   6.656
11830TIP3   OH235432   3.422   6.576   0.559
11830TIP3    H135433   3.501   6.606   0.515
11830TIP3    H235434   3.398   6.647   0.619
11831TIP3   OH235435   6.869   5.005   4.867
11831TIP3    H135436   6.894   4.938   4.930
11831TIP3    H235437   6.950   5.025   4.820
11832TIP3   OH235438   2.393   4.933   0.516
11832TIP3    H135439   2.422   4.858   0.464
11832TIP3    H235440   2.389   4.899   0.606
11833TIP3   OH235441   3.024   1.702   1.145
11833TIP3    H135442   3.026   1.719   1.051
11833TIP3    H235443   3.031   1.788   1.185
11834TIP3   OH235444   2.326   6.880   0.427
11834TIP3    H135445   2.253   6.936   0.401
11834TIP3    H235446   2.363   6.849   0.344
11835TIP3   OH235447   1.048   1.669   1.431
11835TIP3    H135448   0.990   1.638   1.499
11835TIP3    H235449   1.011   1.753   1.404
11836TIP3   OH235450   3.754  -0.031   0.973
11836TIP3    H135451   3.705   0.051   0.976
11836TIP3    H235452   3.844  -0.005   0.953
11837TIP3   OH235453   2.465   5.148   6.652
11837TIP3    H135454   2.423   5.226   6.688
11837TIP3    H235455   2.517   5.113   6.724
11838TIP3   OH235456   6.868   7.078   1.422
11838TIP3    H135457   6.884   6.986   1.399
11838TIP3    H235458   6.774   7.089   1.413
11839TIP3   OH235459   5.054   5.645   3.775
11839TIP3    H135460   5.111   5.578   3.811
11839TIP3    H235461   5.092   5.728   3.804
11840TIP3   OH235462   4.011   0.057   4.401
11840TIP3    H135463   4.008   0.065   4.496
11840TIP3    H235464   3.959  -0.021   4.382
11841TIP3   OH235465   6.041   6.246   5.357
11841TIP3    H135466   6.081   6.321   5.399
11841TIP3    H235467   6.114   6.201   5.314
11842TIP3   OH235468   0.130   3.649   4.246
11842TIP3    H135469   0.210   3.597   4.259
11842TIP3    H235470   0.148   3.731   4.292
11843TIP3   OH235471   6.445   3.301   6.446
11843TIP3    H135472   6.497   3.339   6.375
11843TIP3    H235473   6.383   3.369   6.470
11844TIP3   OH235474   3.236   1.009   3.842
11844TIP3    H135475   3.256   0.936   3.902
11844TIP3    H235476   3.322   1.036   3.809
11845TIP3   OH235477   2.900   4.018   0.590
11845TIP3    H135478   2.815   4.059   0.601
11845TIP3    H235479   2.963   4.086   0.613
11846TIP3   OH235480   6.216   2.584   5.400
11846TIP3    H135481   6.129   2.616   5.425
11846TIP3    H235482   6.249   2.650   5.339
11847TIP3   OH235483   0.932   0.436   1.156
11847TIP3    H135484   0.979   0.489   1.222
11847TIP3    H235485   0.931   0.491   1.078
11848TIP3   OH235486   6.307   4.907   3.558
11848TIP3    H135487   6.362   4.901   3.480
11848TIP3    H235488   6.218   4.892   3.526
11849TIP3   OH235489   6.416   5.216   0.848
11849TIP3    H135490   6.382   5.264   0.772
11849TIP3    H235491   6.339   5.199   0.902
11850TIP3   OH235492   0.987   1.524   3.955
11850TIP3    H135493   0.915   1.477   3.914
11850TIP3    H235494   0.951   1.558   4.037
11851TIP3   OH235495   6.031   0.069   1.303
11851TIP3    H135496   6.034   0.001   1.371
11851TIP3    H235497   6.052   0.023   1.222
11852TIP3   OH235498   3.233   0.744   3.564
11852TIP3    H135499   3.142   0.756   3.593
11852TIP3    H235500   3.258   0.829   3.529
11853TIP3   OH235501   3.002   0.346   3.321
11853TIP3    H135502   2.960   0.339   3.235
11853TIP3    H235503   2.953   0.285   3.376
11854TIP3   OH235504   1.458   3.800   2.955
11854TIP3    H135505   1.399   3.725   2.953
11854TIP3    H235506   1.419   3.863   2.895
11855TIP3   OH235507   7.205   5.520   1.817
11855TIP3    H135508   7.158   5.498   1.737
11855TIP3    H235509   7.298   5.521   1.791
11856TIP3   OH235510   3.518   2.146   6.379
11856TIP3    H135511   3.444   2.090   6.355
11856TIP3    H235512   3.483   2.235   6.375
11857TIP3   OH235513   2.667   1.300   4.946
11857TIP3    H135514   2.605   1.355   4.898
11857TIP3    H235515   2.616   1.264   5.018
11858TIP3   OH235516   2.144   5.264   2.017
11858TIP3    H135517   2.115   5.331   1.955
11858TIP3    H235518   2.069   5.205   2.025
11859TIP3   OH235519   3.757   6.603   5.721
11859TIP3    H135520   3.676   6.559   5.746
11859TIP3    H235521   3.784   6.561   5.640
11860TIP3   OH235522   5.720   0.684   1.226
11860TIP3    H135523   5.780   0.668   1.299
11860TIP3    H235524   5.777   0.685   1.149
11861TIP3   OH235525   2.756   1.003   2.873
11861TIP3    H135526   2.713   1.041   2.797
11861TIP3    H235527   2.832   1.060   2.889
11862TIP3   OH235528   5.457   4.795   2.844
11862TIP3    H135529   5.362   4.784   2.837
11862TIP3    H235530   5.481   4.738   2.918
11863TIP3   OH235531   5.219   3.834   0.175
11863TIP3    H135532   5.153   3.881   0.227
11863TIP3    H235533   5.170   3.801   0.099
11864TIP3   OH235534   0.969   1.640   0.000
11864TIP3    H135535   0.884   1.624  -0.040
11864TIP3    H235536   0.954   1.627   0.094
11865TIP3   OH235537   0.802   6.343   2.010
11865TIP3    H135538   0.731   6.362   2.072
11865TIP3    H235539   0.816   6.426   1.964
11866TIP3   OH235540   1.224   3.642   2.900
11866TIP3    H135541   1.135   3.657   2.867
11866TIP3    H235542   1.213   3.629   2.994
11867TIP3   OH235543   6.026   4.765   3.739
11867TIP3    H135544   6.085   4.833   3.772
11867TIP3    H235545   6.024   4.779   3.644
11868TIP3   OH235546   7.152   0.949   5.145
11868TIP3    H135547   7.059   0.970   5.147
11868TIP3    H235548   7.156   0.860   5.110
11869TIP3   OH235549   5.715   7.568   0.663
11869TIP3    H135550   5.772   7.577   0.587
11869TIP3    H235551   5.770   7.527   0.730
11870TIP3   OH235552   4.021   6.570   2.878
11870TIP3    H135553   4.107   6.574   2.837
11870TIP3    H235554   4.020   6.485   2.924
11871TIP3   OH235555   0.586   4.685   0.762
11871TIP3    H135556   0.511   4.700   0.819
11871TIP3    H235557   0.662   4.693   0.820
11872TIP3   OH235558   1.340   4.959   4.266
11872TIP3    H135559   1.401   5.022   4.304
11872TIP3    H235560   1.293   5.009   4.199
11873TIP3   OH235561   3.931   2.907   3.230
11873TIP3    H135562   3.837   2.923   3.229
11873TIP3    H235563   3.968   2.980   3.280
11874TIP3   OH235564   3.503   3.784   3.664
11874TIP3    H135565   3.483   3.863   3.614
11874TIP3    H235566   3.423   3.766   3.713
11875TIP3   OH235567   5.263   0.075   1.482
11875TIP3    H135568   5.261   0.089   1.577
11875TIP3    H235569   5.183   0.026   1.463
11876TIP3   OH235570   6.087   3.855   5.457
11876TIP3    H135571   6.107   3.849   5.550
11876TIP3    H235572   5.992   3.860   5.453
11877TIP3   OH235573   3.630   5.522   0.159
11877TIP3    H135574   3.565   5.524   0.229
11877TIP3    H235575   3.714   5.530   0.203
11878TIP3   OH235576   6.317   7.376   3.854
11878TIP3    H135577   6.367   7.401   3.776
11878TIP3    H235578   6.286   7.287   3.835
11879TIP3   OH235579   6.054   6.619   0.155
11879TIP3    H135580   5.997   6.657   0.088
11879TIP3    H235581   6.007   6.634   0.237
11880TIP3   OH235582   3.981   6.072   6.551
11880TIP3    H135583   4.072   6.070   6.519
11880TIP3    H235584   3.985   6.026   6.635
11881TIP3   OH235585   0.560   4.465   0.612
11881TIP3    H135586   0.558   4.550   0.656
11881TIP3    H235587   0.629   4.417   0.658
11882TIP3   OH235588   2.052   1.052   5.843
11882TIP3    H135589   1.965   1.080   5.870
11882TIP3    H235590   2.039   1.015   5.756
11883TIP3   OH235591   4.485   0.005   4.147
11883TIP3    H135592   4.557  -0.032   4.096
11883TIP3    H235593   4.479   0.096   4.117
11884TIP3   OH235594   1.206   1.740   0.368
11884TIP3    H135595   1.197   1.645   0.369
11884TIP3    H235596   1.225   1.764   0.459
11885TIP3   OH235597   5.427   7.727   6.657
11885TIP3    H135598   5.344   7.768   6.634
11885TIP3    H235599   5.452   7.678   6.578
11886TIP3   OH235600   0.346   2.163   0.926
11886TIP3    H135601   0.410   2.146   0.995
11886TIP3    H235602   0.339   2.259   0.922
11887TIP3   OH235603   0.928   2.194   3.322
11887TIP3    H135604   0.868   2.148   3.380
11887TIP3    H235605   0.998   2.130   3.304
11888TIP3   OH235606   3.120   2.497   3.871
11888TIP3    H135607   3.080   2.505   3.958
11888TIP3    H235608   3.069   2.429   3.828
11889TIP3   OH235609   5.329   5.371   1.432
11889TIP3    H135610   5.313   5.461   1.404
11889TIP3    H235611   5.381   5.333   1.361
11890TIP3   OH235612   3.490   4.920   0.315
11890TIP3    H135613   3.493   5.014   0.296
11890TIP3    H235614   3.399   4.896   0.298
11891TIP3   OH235615   0.452   2.915   3.593
11891TIP3    H135616   0.430   2.846   3.656
11891TIP3    H235617   0.511   2.973   3.642
11892TIP3   OH235618   2.214   6.824   4.613
11892TIP3    H135619   2.300   6.783   4.603
11892TIP3    H235620   2.157   6.752   4.642
11893TIP3   OH235621   3.727   2.338   4.388
11893TIP3    H135622   3.801   2.352   4.328
11893TIP3    H235623   3.651   2.337   4.331
11894TIP3   OH235624   6.258   2.381   3.667
11894TIP3    H135625   6.173   2.344   3.691
11894TIP3    H235626   6.240   2.474   3.653
11895TIP3   OH235627   2.793   0.268   4.447
11895TIP3    H135628   2.707   0.263   4.406
11895TIP3    H235629   2.855   0.251   4.377
11896TIP3   OH235630   6.323   7.180   5.689
11896TIP3    H135631   6.231   7.207   5.687
11896TIP3    H235632   6.337   7.150   5.779
11897TIP3   OH235633   4.427   4.830   4.809
11897TIP3    H135634   4.480   4.895   4.763
11897TIP3    H235635   4.360   4.804   4.745
11898TIP3   OH235636   1.638   5.039   1.898
11898TIP3    H135637   1.664   5.077   1.982
11898TIP3    H235638   1.609   4.950   1.920
11899TIP3   OH235639   6.541   6.136   2.870
11899TIP3    H135640   6.594   6.144   2.949
11899TIP3    H235641   6.497   6.221   2.862
11900TIP3   OH235642   4.624   2.770   5.666
11900TIP3    H135643   4.544   2.778   5.614
11900TIP3    H235644   4.595   2.779   5.757
11901TIP3   OH235645   7.146   1.355   2.832
11901TIP3    H135646   7.102   1.388   2.910
11901TIP3    H235647   7.091   1.281   2.804
11902TIP3   OH235648   6.749   3.226   5.773
11902TIP3    H135649   6.785   3.311   5.747
11902TIP3    H235650   6.821   3.182   5.817
11903TIP3   OH235651   8.197   2.879   6.515
11903TIP3    H135652   8.274   2.891   6.459
11903TIP3    H235653   8.168   2.790   6.498
11904TIP3   OH235654   4.091   5.477   4.883
11904TIP3    H135655   4.106   5.384   4.899
11904TIP3    H235656   4.049   5.481   4.797
11905TIP3   OH235657   2.357   0.865   5.656
11905TIP3    H135658   2.393   0.801   5.596
11905TIP3    H235659   2.263   0.868   5.635
11906TIP3   OH235660   5.424   2.893   1.231
11906TIP3    H135661   5.514   2.905   1.262
11906TIP3    H235662   5.412   2.798   1.226
11907TIP3   OH235663   0.663   1.635   2.922
11907TIP3    H135664   0.608   1.699   2.877
11907TIP3    H235665   0.662   1.662   3.013
11908TIP3   OH235666   0.957   7.048   5.792
11908TIP3    H135667   0.908   6.970   5.764
11908TIP3    H235668   0.903   7.122   5.762
11909TIP3   OH235669   8.145   7.528   6.252
11909TIP3    H135670   8.135   7.445   6.299
11909TIP3    H235671   8.185   7.587   6.315
11910TIP3   OH235672   8.233   2.689   6.106
11910TIP3    H135673   8.304   2.626   6.116
11910TIP3    H235674   8.276   2.771   6.081
11911TIP3   OH235675   6.993   0.907   6.135
11911TIP3    H135676   7.027   0.910   6.224
11911TIP3    H235677   6.946   0.990   6.125
11912TIP3   OH235678   0.665   6.637   3.836
11912TIP3    H135679   0.680   6.731   3.837
11912TIP3    H235680   0.710   6.606   3.758
11913TIP3   OH235681   7.095   3.371   2.959
11913TIP3    H135682   7.132   3.453   2.928
11913TIP3    H235683   7.050   3.335   2.883
11914TIP3   OH235684   5.517   5.344   1.637
11914TIP3    H135685   5.585   5.410   1.629
11914TIP3    H235686   5.452   5.368   1.571
11915TIP3   OH235687   1.437   0.373   4.009
11915TIP3    H135688   1.525   0.345   4.033
11915TIP3    H235689   1.394   0.392   4.092
11916TIP3   OH235690   3.943   6.454   3.602
11916TIP3    H135691   4.006   6.439   3.672
11916TIP3    H235692   3.859   6.429   3.640
11917TIP3   OH235693   7.898   2.661   5.723
11917TIP3    H135694   7.940   2.712   5.793
11917TIP3    H235695   7.837   2.604   5.769
11918TIP3   OH235696   3.145   1.530   3.555
11918TIP3    H135697   3.232   1.518   3.592
11918TIP3    H235698   3.085   1.519   3.629
11919TIP3   OH235699   3.245   3.675   3.516
11919TIP3    H135700   3.223   3.706   3.604
11919TIP3    H235701   3.314   3.610   3.531
11920TIP3   OH235702   7.190   2.458   4.837
11920TIP3    H135703   7.146   2.413   4.764
11920TIP3    H235704   7.224   2.387   4.891
11921TIP3   OH235705   2.115   4.917   5.092
11921TIP3    H135706   2.043   4.980   5.097
11921TIP3    H235707   2.090   4.847   5.152
11922TIP3   OH235708   1.636   6.177   5.351
11922TIP3    H135709   1.561   6.236   5.342
11922TIP3    H235710   1.666   6.162   5.261
11923TIP3   OH235711   0.205   4.064   3.962
11923TIP3    H135712   0.195   4.150   3.921
11923TIP3    H235713   0.214   4.082   4.055
11924TIP3   OH235714   6.118   5.606   2.442
11924TIP3    H135715   6.204   5.594   2.483
11924TIP3    H235716   6.057   5.560   2.499
11925TIP3   OH235717   0.761   0.546   0.759
11925TIP3    H135718   0.814   0.466   0.757
11925TIP3    H235719   0.823   0.615   0.786
11926TIP3   OH235720   1.597   2.543   3.299
11926TIP3    H135721   1.521   2.486   3.299
11926TIP3    H235722   1.568   2.623   3.341
11927TIP3   OH235723   7.289   4.472   1.046
11927TIP3    H135724   7.367   4.417   1.053
11927TIP3    H235725   7.217   4.416   1.078
11928TIP3   OH235726   4.621   5.599   1.981
11928TIP3    H135727   4.553   5.667   1.987
11928TIP3    H235728   4.572   5.517   1.983
11929TIP3   OH235729   5.586   6.017   4.180
11929TIP3    H135730   5.611   6.098   4.225
11929TIP3    H235731   5.544   5.964   4.248
11930TIP3   OH235732   4.829   1.196   0.488
11930TIP3    H135733   4.823   1.154   0.574
11930TIP3    H235734   4.872   1.279   0.506
11931TIP3   OH235735   4.857   0.804   2.559
11931TIP3    H135736   4.845   0.735   2.624
11931TIP3    H235737   4.799   0.780   2.487
11932TIP3   OH235738   7.047   6.200   6.129
11932TIP3    H135739   7.142   6.198   6.126
11932TIP3    H235740   7.020   6.239   6.046
11933TIP3   OH235741   2.020   5.944   3.888
11933TIP3    H135742   1.986   6.014   3.943
11933TIP3    H235743   2.110   5.932   3.918
11934TIP3   OH235744   2.460   2.972   3.704
11934TIP3    H135745   2.511   3.050   3.680
11934TIP3    H235746   2.404   3.001   3.775
11935TIP3   OH235747   0.402   2.903   2.475
11935TIP3    H135748   0.328   2.926   2.533
11935TIP3    H235749   0.477   2.898   2.534
11936TIP3   OH235750   8.200   4.232   1.723
11936TIP3    H135751   8.125   4.173   1.711
11936TIP3    H235752   8.228   4.217   1.813
11937TIP3   OH235753   1.383   2.284   2.084
11937TIP3    H135754   1.316   2.220   2.105
11937TIP3    H235755   1.419   2.255   2.001
11938TIP3   OH235756   1.704   4.443   0.650
11938TIP3    H135757   1.772   4.475   0.709
11938TIP3    H235758   1.713   4.497   0.572
11939TIP3   OH235759   4.870   0.847   1.290
11939TIP3    H135760   4.841   0.856   1.199
11939TIP3    H235761   4.953   0.895   1.294
11940TIP3   OH235762   5.844   3.551   6.559
11940TIP3    H135763   5.895   3.629   6.578
11940TIP3    H235764   5.885   3.482   6.612
11941TIP3   OH235765   2.735   5.398   2.925
11941TIP3    H135766   2.792   5.365   2.855
11941TIP3    H235767   2.649   5.364   2.903
11942TIP3   OH235768   4.498   7.103   0.652
11942TIP3    H135769   4.548   7.143   0.581
11942TIP3    H235770   4.560   7.101   0.726
11943TIP3   OH235771   1.140   2.859   2.908
11943TIP3    H135772   1.209   2.916   2.875
11943TIP3    H235773   1.152   2.777   2.860
11944TIP3   OH235774   3.365   7.216   6.728
11944TIP3    H135775   3.350   7.152   6.659
11944TIP3    H235776   3.353   7.167   6.809
11945TIP3   OH235777   1.095   2.623   1.525
11945TIP3    H135778   1.129   2.598   1.611
11945TIP3    H235779   1.042   2.701   1.542
11946TIP3   OH235780   4.725   6.260   2.018
11946TIP3    H135781   4.686   6.202   1.951
11946TIP3    H235782   4.718   6.348   1.980
11947TIP3   OH235783   1.269   1.300   4.771
11947TIP3    H135784   1.351   1.278   4.727
11947TIP3    H235785   1.222   1.354   4.707
11948TIP3   OH235786   1.289   4.787   2.396
11948TIP3    H135787   1.197   4.784   2.421
11948TIP3    H235788   1.314   4.696   2.383
11949TIP3   OH235789   5.107   3.389   2.129
11949TIP3    H135790   5.187   3.415   2.084
11949TIP3    H235791   5.039   3.446   2.093
11950TIP3   OH235792   7.776   3.454   0.901
11950TIP3    H135793   7.782   3.369   0.944
11950TIP3    H235794   7.774   3.433   0.807
11951TIP3   OH235795   6.433   1.806   3.888
11951TIP3    H135796   6.489   1.830   3.814
11951TIP3    H235797   6.443   1.877   3.951
11952TIP3   OH235798   1.774   6.494   2.379
11952TIP3    H135799   1.835   6.492   2.305
11952TIP3    H235800   1.813   6.434   2.443
11953TIP3   OH235801   5.589   4.049   6.343
11953TIP3    H135802   5.575   3.998   6.263
11953TIP3    H235803   5.684   4.059   6.349
11954TIP3   OH235804   1.447   2.505   5.918
11954TIP3    H135805   1.479   2.558   5.845
11954TIP3    H235806   1.526   2.461   5.951
11955TIP3   OH235807   6.498   0.452   6.538
11955TIP3    H135808   6.452   0.368   6.530
11955TIP3    H235809   6.571   0.446   6.477
11956TIP3   OH235810   1.972   2.745   6.606
11956TIP3    H135811   1.978   2.778   6.516
11956TIP3    H235812   1.922   2.664   6.598
11957TIP3   OH235813   5.216   0.578   3.533
11957TIP3    H135814   5.259   0.663   3.544
11957TIP3    H235815   5.170   0.563   3.615
11958TIP3   OH235816   3.100   1.425   3.294
11958TIP3    H135817   3.077   1.439   3.386
11958TIP3    H235818   3.034   1.364   3.262
11959TIP3   OH235819   5.579   7.286   0.490
11959TIP3    H135820   5.600   7.348   0.561
11959TIP3    H235821   5.662   7.243   0.471
11960TIP3   OH235822   3.685   2.088   4.163
11960TIP3    H135823   3.726   2.002   4.149
11960TIP3    H235824   3.699   2.135   4.080
11961TIP3   OH235825   1.884   1.137   1.662
11961TIP3    H135826   1.865   1.058   1.611
11961TIP3    H235827   1.837   1.207   1.615
11962TIP3   OH235828   7.351   2.630   2.529
11962TIP3    H135829   7.343   2.666   2.441
11962TIP3    H235830   7.421   2.681   2.570
11963TIP3   OH235831   3.346   4.902   5.210
11963TIP3    H135832   3.276   4.843   5.239
11963TIP3    H235833   3.309   4.990   5.220
11964TIP3   OH235834   3.290   2.049   3.663
11964TIP3    H135835   3.350   2.029   3.591
11964TIP3    H235836   3.317   1.991   3.734
11965TIP3   OH235837   5.763   7.763   5.803
11965TIP3    H135838   5.812   7.695   5.757
11965TIP3    H235839   5.673   7.754   5.769
11966TIP3   OH235840   0.286   0.598   0.805
11966TIP3    H135841   0.200   0.578   0.766
11966TIP3    H235842   0.348   0.555   0.747
11967TIP3   OH235843   2.359   7.406   6.624
11967TIP3    H135844   2.351   7.496   6.593
11967TIP3    H235845   2.268   7.376   6.632
11968TIP3   OH235846   7.976   7.836   4.013
11968TIP3    H135847   7.910   7.775   3.981
11968TIP3    H235848   8.058   7.802   3.979
11969TIP3   OH235849   3.718   5.104   5.743
11969TIP3    H135850   3.630   5.099   5.780
11969TIP3    H235851   3.756   5.183   5.783
11970TIP3   OH235852   8.201   5.107   3.964
11970TIP3    H135853   8.199   5.016   3.932
11970TIP3    H235854   8.208   5.160   3.885
11971TIP3   OH235855   7.082   4.976   0.174
11971TIP3    H135856   7.092   4.882   0.188
11971TIP3    H235857   7.141   4.996   0.102
11972TIP3   OH235858   4.085   1.697   5.883
11972TIP3    H135859   4.048   1.784   5.898
11972TIP3    H235860   4.073   1.681   5.789
11973TIP3   OH235861   2.086   5.320   4.021
11973TIP3    H135862   2.131   5.390   4.068
11973TIP3    H235863   2.024   5.365   3.964
11974TIP3   OH235864   5.443   4.998   6.656
11974TIP3    H135865   5.482   4.977   6.571
11974TIP3    H235866   5.382   5.068   6.638
11975TIP3   OH235867   3.244   5.268   4.525
11975TIP3    H135868   3.159   5.254   4.566
11975TIP3    H235869   3.259   5.188   4.474
11976TIP3   OH235870   0.171   5.561   4.269
11976TIP3    H135871   0.161   5.523   4.181
11976TIP3    H235872   0.158   5.655   4.255
11977TIP3   OH235873   3.718   6.303   1.898
11977TIP3    H135874   3.726   6.340   1.986
11977TIP3    H235875   3.806   6.276   1.875
11978TIP3   OH235876   0.392   2.406   1.053
11978TIP3    H135877   0.451   2.361   1.114
11978TIP3    H235878   0.315   2.426   1.105
11979TIP3   OH235879   0.781   0.646   2.686
11979TIP3    H135880   0.860   0.616   2.731
11979TIP3    H235881   0.812   0.676   2.600
11980TIP3   OH235882   0.768   3.333   5.207
11980TIP3    H135883   0.769   3.293   5.294
11980TIP3    H235884   0.687   3.384   5.205
11981TIP3   OH235885   0.814   5.385   1.342
11981TIP3    H135886   0.841   5.354   1.428
11981TIP3    H235887   0.720   5.367   1.338
11982TIP3   OH235888   7.972   1.515   0.272
11982TIP3    H135889   7.922   1.495   0.351
11982TIP3    H235890   8.041   1.448   0.269
11983TIP3   OH235891   4.009   0.119   4.712
11983TIP3    H135892   4.028   0.152   4.799
11983TIP3    H235893   3.991   0.197   4.659
11984TIP3   OH235894   7.879   4.074   1.888
11984TIP3    H135895   7.936   4.119   1.951
11984TIP3    H235896   7.825   4.144   1.851
11985TIP3   OH235897   1.884   4.115   1.952
11985TIP3    H135898   1.965   4.100   1.999
11985TIP3    H235899   1.897   4.071   1.867
11986TIP3   OH235900   1.847   0.536   5.094
11986TIP3    H135901   1.805   0.478   5.031
11986TIP3    H235902   1.892   0.601   5.040
11987TIP3   OH235903   1.543   3.046   3.046
11987TIP3    H135904   1.473   3.094   3.090
11987TIP3    H235905   1.592   3.113   2.998
11988TIP3   OH235906   0.238   7.130   5.767
11988TIP3    H135907   0.175   7.188   5.811
11988TIP3    H235908   0.311   7.123   5.828
11989TIP3   OH235909   7.970   3.190   4.030
11989TIP3    H135910   7.877   3.176   4.014
11989TIP3    H235911   7.985   3.282   4.008
11990TIP3   OH235912   7.910   4.411   0.438
11990TIP3    H135913   7.920   4.461   0.357
11990TIP3    H235914   7.987   4.355   0.442
11991TIP3   OH235915   4.207   7.126   2.892
11991TIP3    H135916   4.216   7.221   2.898
11991TIP3    H235917   4.116   7.109   2.919
11992TIP3   OH235918   2.821   1.928   2.953
11992TIP3    H135919   2.787   1.847   2.914
11992TIP3    H235920   2.891   1.898   3.011
11993TIP3   OH235921   7.990   3.033   2.176
11993TIP3    H135922   7.912   3.056   2.124
11993TIP3    H235923   8.054   3.005   2.111
11994TIP3   OH235924   7.633   3.608   1.591
11994TIP3    H135925   7.665   3.685   1.639
11994TIP3    H235926   7.627   3.539   1.657
11995TIP3   OH235927   5.463   0.949   1.729
11995TIP3    H135928   5.407   0.894   1.673
11995TIP3    H235929   5.543   0.962   1.677
11996TIP3   OH235930   0.133   3.128   6.311
11996TIP3    H135931   0.153   3.213   6.349
11996TIP3    H235932   0.169   3.132   6.222
11997TIP3   OH235933   4.953   6.539   5.851
11997TIP3    H135934   5.042   6.514   5.827
11997TIP3    H235935   4.911   6.560   5.768
11998TIP3   OH235936   2.291   6.355   5.544
11998TIP3    H135937   2.332   6.268   5.539
11998TIP3    H235938   2.236   6.359   5.466
11999TIP3   OH235939   5.220   6.969   5.568
11999TIP3    H135940   5.147   7.017   5.606
11999TIP3    H235941   5.191   6.878   5.565
12000TIP3   OH235942   6.369   0.811   4.601
12000TIP3    H135943   6.448   0.808   4.654
12000TIP3    H235944   6.324   0.891   4.631
12001TIP3   OH235945   1.222   5.298   4.322
12001TIP3    H135946   1.280   5.358   4.368
12001TIP3    H235947   1.140   5.301   4.371
12002TIP3   OH235948   4.064   1.722   1.736
12002TIP3    H135949   4.036   1.810   1.714
12002TIP3    H235950   4.160   1.726   1.737
12003TIP3   OH235951   7.029   7.640   2.658
12003TIP3    H135952   7.077   7.705   2.709
12003TIP3    H235953   6.964   7.605   2.720
12004TIP3   OH235954   1.936   4.165   0.261
12004TIP3    H135955   2.009   4.105   0.275
12004TIP3    H235956   1.966   4.248   0.300
12005TIP3   OH235957   3.163   4.024   6.534
12005TIP3    H135958   3.203   4.102   6.573
12005TIP3    H235959   3.069   4.034   6.552
12006TIP3   OH235960   6.767   5.957   2.288
12006TIP3    H135961   6.814   5.876   2.271
12006TIP3    H235962   6.720   5.942   2.369
12007TIP3   OH235963   7.485   7.116   5.770
12007TIP3    H135964   7.499   7.092   5.862
12007TIP3    H235965   7.416   7.057   5.741
12008TIP3   OH235966   6.553   3.244   4.359
12008TIP3    H135967   6.489   3.314   4.369
12008TIP3    H235968   6.551   3.222   4.266
12009TIP3   OH235969   7.271   3.278   5.348
12009TIP3    H135970   7.333   3.263   5.276
12009TIP3    H235971   7.196   3.221   5.327
12010TIP3   OH235972   2.678   2.961   2.136
12010TIP3    H135973   2.751   3.014   2.103
12010TIP3    H235974   2.628   3.022   2.191
12011TIP3   OH235975   6.945   3.543   4.077
12011TIP3    H135976   6.953   3.602   4.002
12011TIP3    H235977   6.921   3.600   4.150
12012TIP3   OH235978   2.275   5.979   3.996
12012TIP3    H135979   2.368   5.974   4.018
12012TIP3    H235980   2.258   6.072   3.981
12013TIP3   OH235981   0.359   5.221   6.160
12013TIP3    H135982   0.435   5.259   6.116
12013TIP3    H235983   0.297   5.293   6.170
12014TIP3   OH235984   1.199   3.410   3.801
12014TIP3    H135985   1.278   3.406   3.747
12014TIP3    H235986   1.223   3.364   3.881
12015TIP3   OH235987   2.667   5.282   0.282
12015TIP3    H135988   2.741   5.326   0.323
12015TIP3    H235989   2.608   5.261   0.354
12016TIP3   OH235990   1.236   4.080   3.041
12016TIP3    H135991   1.142   4.067   3.028
12016TIP3    H235992   1.244   4.169   3.076
12017TIP3   OH235993   0.454   0.853   4.324
12017TIP3    H135994   0.505   0.889   4.397
12017TIP3    H235995   0.364   0.879   4.343
12018TIP3   OH235996   1.756   7.369   2.100
12018TIP3    H135997   1.745   7.292   2.155
12018TIP3    H235998   1.695   7.433   2.136
12019TIP3   OH235999   6.182   6.786   5.953
12019TIP3    H136000   6.126   6.744   6.018
12019TIP3    H236001   6.139   6.767   5.869
12020TIP3   OH236002   3.587   5.776   1.805
12020TIP3    H136003   3.541   5.711   1.752
12020TIP3    H236004   3.581   5.857   1.755
12021TIP3   OH236005   1.962   7.746   6.549
12021TIP3    H136006   1.959   7.827   6.497
12021TIP3    H236007   1.919   7.681   6.494
12022TIP3   OH236008   4.235   5.741   0.096
12022TIP3    H136009   4.304   5.769   0.156
12022TIP3    H236010   4.230   5.646   0.107
12023TIP3   OH236011   0.527   5.518   0.944
12023TIP3    H136012   0.614   5.515   0.983
12023TIP3    H236013   0.524   5.602   0.899
12024TIP3   OH236014   6.017   5.308   5.009
12024TIP3    H136015   6.055   5.392   5.035
12024TIP3    H236016   5.927   5.330   4.984
12025TIP3   OH236017   1.682   5.519   5.222
12025TIP3    H136018   1.704   5.488   5.311
12025TIP3    H236019   1.709   5.447   5.165
12026TIP3   OH236020   6.734   1.029   4.681
12026TIP3    H136021   6.817   1.072   4.662
12026TIP3    H236022   6.743   0.940   4.645
12027TIP3   OH236023   5.523   5.806   1.518
12027TIP3    H136024   5.507   5.745   1.589
12027TIP3    H236025   5.591   5.865   1.551
12028TIP3   OH236026   2.558   6.156   3.484
12028TIP3    H136027   2.471   6.179   3.518
12028TIP3    H236028   2.584   6.080   3.536
12029TIP3   OH236029   6.774   7.077   4.537
12029TIP3    H136030   6.736   7.091   4.624
12029TIP3    H236031   6.723   7.005   4.500
12030TIP3   OH236032   4.912   6.337   3.299
12030TIP3    H136033   4.868   6.277   3.360
12030TIP3    H236034   4.847   6.405   3.281
12031TIP3   OH236035   5.026   3.804   3.057
12031TIP3    H136036   5.033   3.757   2.974
12031TIP3    H236037   4.958   3.870   3.041
12032TIP3   OH236038   2.416   3.410   1.459
12032TIP3    H136039   2.455   3.443   1.379
12032TIP3    H236040   2.433   3.316   1.458
12033TIP3   OH236041   2.657   0.103   6.269
12033TIP3    H136042   2.714   0.068   6.200
12033TIP3    H236043   2.666   0.040   6.341
12034TIP3   OH236044   5.910   1.576   1.269
12034TIP3    H136045   5.874   1.645   1.214
12034TIP3    H236046   5.880   1.597   1.357
12035TIP3   OH236047   2.644   0.929   5.151
12035TIP3    H136048   2.591   0.900   5.077
12035TIP3    H236049   2.595   1.003   5.187
12036TIP3   OH236050   8.072   0.195   4.991
12036TIP3    H136051   8.119   0.268   5.032
12036TIP3    H236052   8.022   0.236   4.921
12037TIP3   OH236053   5.031   3.935   2.611
12037TIP3    H136054   4.952   3.881   2.614
12037TIP3    H236055   5.101   3.877   2.640
12038TIP3   OH236056   7.674   1.537   5.823
12038TIP3    H136057   7.741   1.585   5.775
12038TIP3    H236058   7.648   1.466   5.764
12039TIP3   OH236059   5.678   2.339   3.604
12039TIP3    H136060   5.734   2.413   3.628
12039TIP3    H236061   5.619   2.328   3.679
12040TIP3   OH236062   5.141   3.956   0.888
12040TIP3    H136063   5.151   4.050   0.905
12040TIP3    H236064   5.180   3.914   0.964
12041TIP3   OH236065   1.327   4.566   3.208
12041TIP3    H136066   1.269   4.637   3.181
12041TIP3    H236067   1.284   4.527   3.284
12042TIP3   OH236068   7.745   0.999   3.432
12042TIP3    H136069   7.817   0.941   3.457
12042TIP3    H236070   7.669   0.962   3.478
12043TIP3   OH236071   5.487   7.688   4.699
12043TIP3    H136072   5.574   7.663   4.730
12043TIP3    H236073   5.470   7.628   4.626
12044TIP3   OH236074   1.669   6.712   6.668
12044TIP3    H136075   1.751   6.737   6.711
12044TIP3    H236076   1.694   6.646   6.604
12045TIP3   OH236077   0.513   6.060   1.827
12045TIP3    H136078   0.513   6.031   1.735
12045TIP3    H236079   0.606   6.075   1.847
12046TIP3   OH236080   0.160   2.975   3.550
12046TIP3    H136081   0.240   2.949   3.597
12046TIP3    H236082   0.137   2.897   3.499
12047TIP3   OH236083   1.093   0.413   1.826
12047TIP3    H136084   1.168   0.366   1.789
12047TIP3    H236085   1.092   0.388   1.918
12048TIP3   OH236086   7.351   0.088   5.536
12048TIP3    H136087   7.362   0.003   5.494
12048TIP3    H236088   7.301   0.140   5.473
12049TIP3   OH236089   8.127   6.801   6.079
12049TIP3    H136090   8.137   6.812   5.984
12049TIP3    H236091   8.070   6.873   6.105
12050TIP3   OH236092   0.247   6.712   3.691
12050TIP3    H136093   0.232   6.763   3.770
12050TIP3    H236094   0.204   6.628   3.709
12051TIP3   OH236095   2.993   5.063   1.093
12051TIP3    H136096   2.988   5.145   1.043
12051TIP3    H236097   2.903   5.045   1.119
12052TIP3   OH236098   1.446   0.892   5.412
12052TIP3    H136099   1.512   0.842   5.364
12052TIP3    H236100   1.490   0.920   5.492
12053TIP3   OH236101   5.843   3.803   4.655
12053TIP3    H136102   5.894   3.722   4.656
12053TIP3    H236103   5.793   3.801   4.736
12054TIP3   OH236104   7.782   5.611   6.455
12054TIP3    H136105   7.804   5.548   6.387
12054TIP3    H236106   7.692   5.589   6.480
12055TIP3   OH236107   7.345   2.117   4.521
12055TIP3    H136108   7.364   2.050   4.456
12055TIP3    H236109   7.280   2.174   4.479
12056TIP3   OH236110   7.281   5.409   2.419
12056TIP3    H136111   7.267   5.380   2.509
12056TIP3    H236112   7.305   5.502   2.428
12057TIP3   OH236113   0.729   0.013   5.697
12057TIP3    H136114   0.825   0.019   5.706
12057TIP3    H236115   0.715  -0.074   5.659
12058TIP3   OH236116   6.337   2.803   1.739
12058TIP3    H136117   6.281   2.727   1.722
12058TIP3    H236118   6.366   2.832   1.652
12059TIP3   OH236119   7.201   1.453  -0.043
12059TIP3    H136120   7.218   1.532   0.009
12059TIP3    H236121   7.222   1.381   0.016
12060TIP3   OH236122   4.701   3.431   6.410
12060TIP3    H136123   4.783   3.430   6.360
12060TIP3    H236124   4.657   3.512   6.381
12061TIP3   OH236125   7.805   2.716   2.046
12061TIP3    H136126   7.815   2.801   2.090
12061TIP3    H236127   7.845   2.729   1.960
12062TIP3   OH236128   0.870   1.033   3.459
12062TIP3    H136129   0.802   1.058   3.396
12062TIP3    H236130   0.867   0.937   3.461
12063TIP3   OH236131   7.559   4.353   6.080
12063TIP3    H136132   7.574   4.372   6.173
12063TIP3    H236133   7.492   4.417   6.054
12064TIP3   OH236134   0.887   1.849   0.448
12064TIP3    H136135   0.901   1.862   0.354
12064TIP3    H236136   0.974   1.829   0.482
12065TIP3   OH236137   0.971   1.945   5.818
12065TIP3    H136138   0.929   1.894   5.749
12065TIP3    H236139   1.010   1.879   5.876
12066TIP3   OH236140   5.587   7.457   5.909
12066TIP3    H136141   5.562   7.470   5.818
12066TIP3    H236142   5.510   7.416   5.949
12067TIP3   OH236143   5.074   6.988   2.829
12067TIP3    H136144   5.054   6.924   2.897
12067TIP3    H236145   5.170   6.988   2.823
12068TIP3   OH236146   1.587   6.039   3.517
12068TIP3    H136147   1.542   6.026   3.434
12068TIP3    H236148   1.627   5.954   3.536
12069TIP3   OH236149   7.561   0.690   6.027
12069TIP3    H136150   7.561   0.602   6.065
12069TIP3    H236151   7.643   0.729   6.056
12070TIP3   OH236152   7.864   7.711   1.536
12070TIP3    H136153   7.949   7.669   1.549
12070TIP3    H236154   7.841   7.693   1.445
12071TIP3   OH236155   0.283   4.937   3.045
12071TIP3    H136156   0.259   4.846   3.066
12071TIP3    H236157   0.203   4.974   3.008
12072TIP3   OH236158   1.502   6.990   0.894
12072TIP3    H136159   1.468   6.983   0.983
12072TIP3    H236160   1.515   6.899   0.866
12073TIP3   OH236161   5.804   1.814   1.130
12073TIP3    H136162   5.834   1.903   1.115
12073TIP3    H236163   5.814   1.770   1.046
12074TIP3   OH236164   1.496   5.765   2.167
12074TIP3    H136165   1.560   5.727   2.106
12074TIP3    H236166   1.540   5.765   2.251
12075TIP3   OH236167   0.933   4.392   3.315
12075TIP3    H136168   0.852   4.360   3.355
12075TIP3    H236169   0.928   4.487   3.324
12076TIP3   OH236170   4.472   0.972   2.320
12076TIP3    H136171   4.454   0.951   2.411
12076TIP3    H236172   4.386   0.983   2.280
12077TIP3   OH236173   6.714   4.518   5.012
12077TIP3    H136174   6.748   4.581   5.075
12077TIP3    H236175   6.710   4.565   4.929
12078TIP3   OH236176   5.974   3.508   1.127
12078TIP3    H136177   5.945   3.598   1.139
12078TIP3    H236178   6.038   3.494   1.196
12079TIP3   OH236179   0.462   2.894   1.971
12079TIP3    H136180   0.547   2.938   1.970
12079TIP3    H236181   0.460   2.844   1.889
12080TIP3   OH236182   2.886   5.594   3.146
12080TIP3    H136183   2.832   5.530   3.100
12080TIP3    H236184   2.848   5.599   3.234
12081TIP3   OH236185   5.485   7.272   2.317
12081TIP3    H136186   5.548   7.206   2.349
12081TIP3    H236187   5.536   7.353   2.312
12082TIP3   OH236188   0.669   6.019   5.302
12082TIP3    H136189   0.634   6.066   5.226
12082TIP3    H236190   0.682   5.929   5.270
12083TIP3   OH236191   5.587   5.816   5.772
12083TIP3    H136192   5.503   5.771   5.776
12083TIP3    H236193   5.589   5.869   5.852
12084TIP3   OH236194   0.686   7.238   4.968
12084TIP3    H136195   0.715   7.270   4.883
12084TIP3    H236196   0.744   7.281   5.031
12085TIP3   OH236197   7.463   2.374   4.674
12085TIP3    H136198   7.411   2.296   4.655
12085TIP3    H236199   7.419   2.445   4.627
12086TIP3   OH236200   0.729   1.276   1.891
12086TIP3    H136201   0.650   1.322   1.860
12086TIP3    H236202   0.787   1.274   1.815
12087TIP3   OH236203   2.983   1.764   2.689
12087TIP3    H136204   2.947   1.746   2.602
12087TIP3    H236205   3.005   1.858   2.687
12088TIP3   OH236206   4.249   5.167   4.194
12088TIP3    H136207   4.225   5.100   4.259
12088TIP3    H236208   4.247   5.249   4.243
12089TIP3   OH236209   4.427   1.340   2.257
12089TIP3    H136210   4.372   1.383   2.191
12089TIP3    H236211   4.366   1.312   2.325
12090TIP3   OH236212   4.237   3.051   4.299
12090TIP3    H136213   4.244   3.043   4.394
12090TIP3    H236214   4.324   3.079   4.270
12091TIP3   OH236215   0.475   1.695   2.434
12091TIP3    H136216   0.412   1.627   2.413
12091TIP3    H236217   0.486   1.690   2.529
12092TIP3   OH236218   7.365   7.360   5.209
12092TIP3    H136219   7.398   7.313   5.286
12092TIP3    H236220   7.421   7.331   5.137
12093TIP3   OH236221   4.551   3.141   2.245
12093TIP3    H136222   4.643   3.138   2.219
12093TIP3    H236223   4.512   3.063   2.206
12094TIP3   OH236224   6.400   0.496   1.392
12094TIP3    H136225   6.362   0.581   1.416
12094TIP3    H236226   6.324   0.440   1.375
12095TIP3   OH236227   2.067   5.104   3.813
12095TIP3    H136228   2.097   5.106   3.904
12095TIP3    H236229   2.011   5.181   3.805
12096TIP3   OH236230   1.519   2.537   1.344
12096TIP3    H136231   1.477   2.513   1.427
12096TIP3    H236232   1.611   2.517   1.357
12097TIP3   OH236233   4.054   4.763   4.040
12097TIP3    H136234   3.988   4.717   3.988
12097TIP3    H236235   4.078   4.838   3.986
12098TIP3   OH236236   5.778   1.634   2.969
12098TIP3    H136237   5.689   1.651   2.998
12098TIP3    H236238   5.772   1.630   2.873
12099TIP3   OH236239   3.211   0.502   3.365
12099TIP3    H136240   3.131   0.450   3.361
12099TIP3    H236241   3.183   0.588   3.394
12100TIP3   OH236242   0.471   2.920   4.402
12100TIP3    H136243   0.540   2.987   4.400
12100TIP3    H236244   0.515   2.841   4.436
12101TIP3   OH236245   0.813   0.919   6.215
12101TIP3    H136246   0.811   1.002   6.168
12101TIP3    H236247   0.745   0.927   6.281
12102TIP3   OH236248   6.799   2.428   3.433
12102TIP3    H136249   6.786   2.361   3.367
12102TIP3    H236250   6.734   2.496   3.411
12103TIP3   OH236251   3.651   4.469  -0.024
12103TIP3    H136252   3.662   4.544   0.035
12103TIP3    H236253   3.556   4.466  -0.041
12104TIP3   OH236254   3.532   5.759   2.078
12104TIP3    H136255   3.551   5.851   2.096
12104TIP3    H236256   3.557   5.747   1.987
12105TIP3   OH236257   2.124   7.701   6.276
12105TIP3    H136258   2.133   7.796   6.275
12105TIP3    H236259   2.038   7.684   6.238
12106TIP3   OH236260   4.503   1.792   3.936
12106TIP3    H136261   4.462   1.762   3.855
12106TIP3    H236262   4.552   1.716   3.967
12107TIP3   OH236263   2.335   3.894   5.293
12107TIP3    H136264   2.371   3.979   5.266
12107TIP3    H236265   2.410   3.835   5.291
12108TIP3   OH236266   6.947   3.959   0.567
12108TIP3    H136267   6.985   4.046   0.576
12108TIP3    H236268   6.961   3.936   0.475
12109TIP3   OH236269   4.415   2.896   2.098
12109TIP3    H136270   4.367   2.832   2.046
12109TIP3    H236271   4.476   2.936   2.036
12110TIP3   OH236272   3.460   5.602   2.507
12110TIP3    H136273   3.516   5.661   2.558
12110TIP3    H236274   3.513   5.579   2.431
12111TIP3   OH236275   1.210   0.741   6.660
12111TIP3    H136276   1.187   0.820   6.709
12111TIP3    H236277   1.169   0.753   6.574
12112TIP3   OH236278   5.413   3.089   0.048
12112TIP3    H136279   5.454   3.171   0.020
12112TIP3    H236280   5.320   3.111   0.056
12113TIP3   OH236281   5.623   1.994   1.332
12113TIP3    H136282   5.663   1.952   1.255
12113TIP3    H236283   5.553   2.049   1.295
12114TIP3   OH236284   8.322   6.048   4.423
12114TIP3    H136285   8.228   6.029   4.422
12114TIP3    H236286   8.328   6.139   4.452
12115TIP3   OH236287   7.798   1.772   2.974
12115TIP3    H136288   7.724   1.781   2.913
12115TIP3    H236289   7.859   1.714   2.930
12116TIP3   OH236290   0.537   2.424   3.039
12116TIP3    H136291   0.541   2.352   3.102
12116TIP3    H236292   0.529   2.503   3.093
12117TIP3   OH236293   7.524   2.916   0.095
12117TIP3    H136294   7.606   2.874   0.121
12117TIP3    H236295   7.550   2.980   0.029
12118TIP3   OH236296   6.787   3.688   1.577
12118TIP3    H136297   6.835   3.770   1.562
12118TIP3    H236298   6.852   3.620   1.558
12119TIP3   OH236299   1.667   4.124   2.750
12119TIP3    H136300   1.605   4.054   2.770
12119TIP3    H236301   1.745   4.102   2.801
12120TIP3   OH236302   1.248   6.567   4.892
12120TIP3    H136303   1.203   6.513   4.827
12120TIP3    H236304   1.307   6.622   4.841
12121TIP3   OH236305   7.083   4.705   3.599
12121TIP3    H136306   7.055   4.696   3.508
12121TIP3    H236307   7.046   4.788   3.628
12122TIP3   OH236308   7.039   5.377   2.251
12122TIP3    H136309   6.956   5.379   2.299
12122TIP3    H236310   7.106   5.379   2.320
12123TIP3   OH236311   0.673   5.122   2.665
12123TIP3    H136312   0.631   5.065   2.601
12123TIP3    H236313   0.686   5.066   2.742
12124TIP3   OH236314   5.880   5.463   1.209
12124TIP3    H136315   5.950   5.447   1.272
12124TIP3    H236316   5.842   5.546   1.238
12125TIP3   OH236317   0.447   5.471   4.228
12125TIP3    H136318   0.453   5.470   4.133
12125TIP3    H236319   0.359   5.505   4.246
12126TIP3   OH236320   6.872   6.722   6.089
12126TIP3    H136321   6.896   6.755   6.002
12126TIP3    H236322   6.830   6.796   6.133
12127TIP3   OH236323   3.713   4.989   4.014
12127TIP3    H136324   3.766   5.037   3.950
12127TIP3    H236325   3.630   4.972   3.969
12128TIP3   OH236326   6.672   0.391   3.211
12128TIP3    H136327   6.737   0.322   3.219
12128TIP3    H236328   6.710   0.454   3.150
12129TIP3   OH236329   5.353   6.959   2.838
12129TIP3    H136330   5.446   6.981   2.845
12129TIP3    H236331   5.351   6.863   2.841
12130TIP3   OH236332   2.054   2.873   0.241
12130TIP3    H136333   2.001   2.886   0.163
12130TIP3    H236334   1.992   2.842   0.307
12131TIP3   OH236335   4.893   4.422   2.549
12131TIP3    H136336   4.894   4.429   2.645
12131TIP3    H236337   4.893   4.327   2.533
12132TIP3   OH236338   5.650   5.029   1.465
12132TIP3    H136339   5.597   4.966   1.416
12132TIP3    H236340   5.644   5.110   1.415
12133TIP3   OH236341   1.276   0.517   4.188
12133TIP3    H136342   1.239   0.445   4.239
12133TIP3    H236343   1.294   0.586   4.252
12134TIP3   OH236344   7.305   3.366   4.048
12134TIP3    H136345   7.334   3.443   4.098
12134TIP3    H236346   7.292   3.400   3.959
12135TIP3   OH236347   7.056   2.164   2.088
12135TIP3    H136348   7.117   2.155   2.161
12135TIP3    H236349   7.109   2.144   2.010
12136TIP3   OH236350   2.385   7.039   4.802
12136TIP3    H136351   2.330   7.009   4.730
12136TIP3    H236352   2.336   7.112   4.840
12137TIP3   OH236353   6.959   3.214   2.794
12137TIP3    H136354   6.952   3.230   2.700
12137TIP3    H236355   6.868   3.210   2.825
12138TIP3   OH236356   7.970   6.262   3.830
12138TIP3    H136357   8.012   6.348   3.828
12138TIP3    H236358   7.884   6.278   3.869
12139TIP3   OH236359   4.312   4.835   3.521
12139TIP3    H136360   4.261   4.853   3.442
12139TIP3    H236361   4.247   4.837   3.592
12140TIP3   OH236362   8.079   2.957   0.446
12140TIP3    H136363   8.067   2.910   0.363
12140TIP3    H236364   8.106   3.045   0.421
12141TIP3   OH236365   3.996   3.099   4.555
12141TIP3    H136366   3.919   3.085   4.609
12141TIP3    H236367   4.033   3.182   4.587
12142TIP3   OH236368   3.076   0.046   5.697
12142TIP3    H136369   3.063   0.113   5.630
12142TIP3    H236370   3.038  -0.033   5.660
12143TIP3   OH236371   0.536   4.647   3.494
12143TIP3    H136372   0.582   4.575   3.538
12143TIP3    H236373   0.504   4.702   3.565
12144TIP3   OH236374   3.794   1.987   4.729
12144TIP3    H136375   3.768   2.024   4.645
12144TIP3    H236376   3.769   1.894   4.724
12145TIP3   OH236377   4.346   2.295   3.566
12145TIP3    H136378   4.438   2.275   3.550
12145TIP3    H236379   4.339   2.304   3.661
12146TIP3   OH236380   7.244   4.251   3.840
12146TIP3    H136381   7.216   4.219   3.926
12146TIP3    H236382   7.234   4.346   3.845
12147TIP3   OH236383   0.564   3.744   6.021
12147TIP3    H136384   0.592   3.730   6.112
12147TIP3    H236385   0.502   3.673   6.003
12148TIP3   OH236386   6.888   1.891   5.314
12148TIP3    H136387   6.900   1.963   5.376
12148TIP3    H236388   6.946   1.822   5.345
12149TIP3   OH236389   4.070   7.849   1.439
12149TIP3    H136390   4.010   7.909   1.395
12149TIP3    H236391   4.030   7.763   1.428
12150TIP3   OH236392   5.803   7.241   5.899
12150TIP3    H136393   5.869   7.177   5.872
12150TIP3    H236394   5.751   7.257   5.820
12151TIP3   OH236395   6.359   4.588   3.647
12151TIP3    H136396   6.264   4.595   3.650
12151TIP3    H236397   6.388   4.620   3.733
12152TIP3   OH236398   7.312   2.476   5.571
12152TIP3    H136399   7.272   2.550   5.524
12152TIP3    H236400   7.257   2.465   5.648
12153TIP3   OH236401   7.192   5.546   4.474
12153TIP3    H136402   7.269   5.543   4.530
12153TIP3    H236403   7.118   5.556   4.535
12154TIP3   OH236404   7.322   1.613   3.892
12154TIP3    H136405   7.270   1.535   3.909
12154TIP3    H236406   7.406   1.596   3.933
12155TIP3   OH236407   5.846   3.870   1.793
12155TIP3    H136408   5.940   3.870   1.773
12155TIP3    H236409   5.808   3.811   1.727
12156TIP3   OH236410   3.092   5.661   6.086
12156TIP3    H136411   3.035   5.589   6.111
12156TIP3    H236412   3.032   5.733   6.065
12157TIP3   OH236413   0.178   1.489   5.871
12157TIP3    H136414   0.151   1.570   5.915
12157TIP3    H236415   0.203   1.517   5.783
12158TIP3   OH236416   7.872   2.675   3.152
12158TIP3    H136417   7.782   2.641   3.160
12158TIP3    H236418   7.923   2.600   3.121
12159TIP3   OH236419   4.499   0.726   2.076
12159TIP3    H136420   4.405   0.724   2.093
12159TIP3    H236421   4.529   0.637   2.096
12160TIP3   OH236422   2.222   1.726   5.101
12160TIP3    H136423   2.221   1.689   5.013
12160TIP3    H236424   2.300   1.689   5.142
12161TIP3   OH236425   6.271   4.642   5.505
12161TIP3    H136426   6.261   4.727   5.549
12161TIP3    H236427   6.264   4.578   5.576
12162TIP3   OH236428   4.054   7.662   0.830
12162TIP3    H136429   4.148   7.668   0.817
12162TIP3    H236430   4.039   7.699   0.917
12163TIP3   OH236431   1.368   0.346   3.304
12163TIP3    H136432   1.287   0.374   3.261
12163TIP3    H236433   1.373   0.252   3.287
12164TIP3   OH236434   5.478   4.055   3.923
12164TIP3    H136435   5.556   4.038   3.976
12164TIP3    H236436   5.507   4.120   3.858
12165TIP3   OH236437   0.936   0.824   2.032
12165TIP3    H136438   0.925   0.853   1.941
12165TIP3    H236439   1.011   0.765   2.031
12166TIP3   OH236440   6.809   6.428   1.714
12166TIP3    H136441   6.853   6.372   1.650
12166TIP3    H236442   6.717   6.431   1.684
12167TIP3   OH236443   3.425   6.813   1.643
12167TIP3    H136444   3.401   6.844   1.555
12167TIP3    H236445   3.518   6.795   1.637
12168TIP3   OH236446   7.210   6.452   5.414
12168TIP3    H136447   7.230   6.457   5.321
12168TIP3    H236448   7.194   6.543   5.440
12169TIP3   OH236449   7.050   1.180   0.042
12169TIP3    H136450   7.070   1.224   0.125
12169TIP3    H236451   6.972   1.128   0.060
12170TIP3   OH236452   7.975   0.847   6.316
12170TIP3    H136453   7.925   0.853   6.235
12170TIP3    H236454   8.058   0.807   6.289
12171TIP3   OH236455   4.904   6.977   3.235
12171TIP3    H136456   4.856   7.038   3.178
12171TIP3    H236457   4.985   7.023   3.257
12172TIP3   OH236458   2.877   5.356   3.478
12172TIP3    H136459   2.813   5.400   3.422
12172TIP3    H236460   2.829   5.282   3.515
12173TIP3   OH236461   7.948   7.463   0.777
12173TIP3    H136462   7.929   7.369   0.784
12173TIP3    H236463   8.029   7.468   0.728
12174TIP3   OH236464   7.313   2.649   0.831
12174TIP3    H136465   7.257   2.586   0.786
12174TIP3    H236466   7.400   2.634   0.794
12175TIP3   OH236467   6.406   6.371   4.356
12175TIP3    H136468   6.464   6.311   4.309
12175TIP3    H236469   6.419   6.350   4.448
12176TIP3   OH236470   3.422   5.127   0.676
12176TIP3    H136471   3.356   5.162   0.617
12176TIP3    H236472   3.394   5.037   0.693
12177TIP3   OH236473   2.001   3.029   3.201
12177TIP3    H136474   2.002   2.950   3.147
12177TIP3    H236475   2.069   3.015   3.267
12178TIP3   OH236476   7.472   5.589   0.249
12178TIP3    H136477   7.520   5.666   0.221
12178TIP3    H236478   7.482   5.526   0.177
12179TIP3   OH236479   3.892   1.598   3.801
12179TIP3    H136480   3.885   1.504   3.780
12179TIP3    H236481   3.966   1.604   3.861
12180TIP3   OH236482   1.049   5.385   3.390
12180TIP3    H136483   0.999   5.365   3.469
12180TIP3    H236484   1.073   5.477   3.399
12181TIP3   OH236485   0.744   0.539   5.384
12181TIP3    H136486   0.774   0.504   5.467
12181TIP3    H236487   0.784   0.482   5.318
12182TIP3   OH236488   7.400   4.284   1.423
12182TIP3    H136489   7.384   4.191   1.439
12182TIP3    H236490   7.321   4.328   1.452
12183TIP3   OH236491   6.805   4.248   0.817
12183TIP3    H136492   6.799   4.153   0.816
12183TIP3    H236493   6.772   4.275   0.731
12184TIP3   OH236494   7.132   2.163   2.948
12184TIP3    H136495   7.188   2.228   2.991
12184TIP3    H236496   7.102   2.206   2.868
12185TIP3   OH236497   6.936   6.701   1.990
12185TIP3    H136498   6.861   6.743   2.031
12185TIP3    H236499   6.944   6.743   1.905
12186TIP3   OH236500   0.576   2.899   0.252
12186TIP3    H136501   0.517   2.937   0.316
12186TIP3    H236502   0.548   2.935   0.168
12187TIP3   OH236503   3.838   6.736   3.642
12187TIP3    H136504   3.862   6.756   3.551
12187TIP3    H236505   3.885   6.656   3.662
12188TIP3   OH236506   6.904   7.297   2.797
12188TIP3    H136507   6.841   7.269   2.730
12188TIP3    H236508   6.888   7.391   2.805
12189TIP3   OH236509   7.781   2.772   2.911
12189TIP3    H136510   7.773   2.867   2.903
12189TIP3    H236511   7.812   2.758   3.000
12190TIP3   OH236512   8.264   1.417   2.846
12190TIP3    H136513   8.211   1.392   2.922
12190TIP3    H236514   8.249   1.347   2.783
12191TIP3   OH236515   8.219   1.338   3.103
12191TIP3    H136516   8.267   1.415   3.072
12191TIP3    H236517   8.281   1.292   3.160
12192TIP3   OH236518   5.773   6.638   3.289
12192TIP3    H136519   5.768   6.626   3.384
12192TIP3    H236520   5.828   6.715   3.277
12193TIP3   OH236521   3.407   3.470   4.867
12193TIP3    H136522   3.437   3.435   4.783
12193TIP3    H236523   3.353   3.546   4.842
12194TIP3   OH236524   3.250   2.243   3.972
12194TIP3    H136525   3.216   2.274   3.888
12194TIP3    H236526   3.214   2.155   3.981
12195TIP3   OH236527   0.940   7.285   3.043
12195TIP3    H136528   1.017   7.315   3.092
12195TIP3    H236529   0.876   7.264   3.110
12196TIP3   OH236530   1.063   4.919   1.749
12196TIP3    H136531   1.061   5.012   1.727
12196TIP3    H236532   1.069   4.917   1.844
12197TIP3   OH236533   6.178   1.231   0.726
12197TIP3    H136534   6.130   1.193   0.800
12197TIP3    H236535   6.269   1.209   0.743
12198TIP3   OH236536   5.140   4.983   3.003
12198TIP3    H136537   5.101   5.040   2.936
12198TIP3    H236538   5.157   4.901   2.958
12199TIP3   OH236539   0.167   5.826   1.453
12199TIP3    H136540   0.128   5.912   1.439
12199TIP3    H236541   0.113   5.766   1.401
12200TIP3   OH236542   0.158   7.060   6.102
12200TIP3    H136543   0.123   7.056   6.191
12200TIP3    H236544   0.158   6.969   6.072
12201TIP3   OH236545   4.921   2.659   2.384
12201TIP3    H136546   4.896   2.632   2.296
12201TIP3    H236547   4.942   2.578   2.430
12202TIP3   OH236548   8.047   6.496   2.428
12202TIP3    H136549   8.122   6.456   2.473
12202TIP3    H236550   8.005   6.422   2.383
12203TIP3   OH236551   4.435   4.431   4.562
12203TIP3    H136552   4.393   4.348   4.540
12203TIP3    H236553   4.405   4.492   4.495
12204TIP3   OH236554   5.729   0.031   6.751
12204TIP3    H136555   5.811   0.076   6.772
12204TIP3    H236556   5.662   0.080   6.799
12205TIP3   OH236557   6.081   1.421   4.338
12205TIP3    H136558   6.076   1.508   4.299
12205TIP3    H236559   5.993   1.406   4.373
12206TIP3   OH236560   6.555   2.229   5.422
12206TIP3    H136561   6.538   2.323   5.427
12206TIP3    H236562   6.604   2.210   5.502
12207TIP3   OH236563   8.158   0.856   3.016
12207TIP3    H136564   8.109   0.917   2.962
12207TIP3    H236565   8.205   0.801   2.953
12208TIP3   OH236566   6.020   0.139   3.663
12208TIP3    H136567   6.057   0.148   3.750
12208TIP3    H236568   6.076   0.193   3.607
12209TIP3   OH236569   0.249   5.182   4.030
12209TIP3    H136570   0.260   5.190   3.936
12209TIP3    H236571   0.172   5.127   4.041
12210TIP3   OH236572   2.571   0.088   1.662
12210TIP3    H136573   2.567   0.159   1.726
12210TIP3    H236574   2.656   0.047   1.676
12211TIP3   OH236575   2.957   1.081   2.132
12211TIP3    H136576   3.030   1.098   2.192
12211TIP3    H236577   2.879   1.095   2.185
12212TIP3   OH236578   0.148   0.176   5.424
12212TIP3    H136579   0.169   0.105   5.364
12212TIP3    H236580   0.232   0.219   5.440
12213TIP3   OH236581   4.221   0.858   5.783
12213TIP3    H136582   4.171   0.829   5.707
12213TIP3    H236583   4.240   0.950   5.765
12214TIP3   OH236584   3.394   0.557   3.127
12214TIP3    H136585   3.335   0.552   3.203
12214TIP3    H236586   3.445   0.477   3.131
12215TIP3   OH236587   7.188   7.538   4.252
12215TIP3    H136588   7.187   7.460   4.197
12215TIP3    H236589   7.146   7.511   4.333
12216TIP3   OH236590   0.607   5.971   1.113
12216TIP3    H136591   0.581   6.054   1.074
12216TIP3    H236592   0.683   5.993   1.168
12217TIP3   OH236593   6.209   6.387   4.587
12217TIP3    H136594   6.216   6.459   4.524
12217TIP3    H236595   6.298   6.354   4.595
12218TIP3   OH236596   5.246   3.312   2.705
12218TIP3    H136597   5.179   3.340   2.642
12218TIP3    H236598   5.244   3.217   2.703
12219TIP3   OH236599   1.472   0.800   0.464
12219TIP3    H136600   1.499   0.764   0.379
12219TIP3    H236601   1.407   0.738   0.497
12220TIP3   OH236602   5.729   6.874   0.445
12220TIP3    H136603   5.726   6.969   0.433
12220TIP3    H236604   5.664   6.840   0.383
12221TIP3   OH236605   1.272   1.011   0.836
12221TIP3    H136606   1.367   1.008   0.838
12221TIP3    H236607   1.245   0.922   0.812
12222TIP3   OH236608   2.196   4.195   2.282
12222TIP3    H136609   2.179   4.265   2.219
12222TIP3    H236610   2.163   4.116   2.239
12223TIP3   OH236611   3.204   1.136   2.628
12223TIP3    H136612   3.140   1.065   2.627
12223TIP3    H236613   3.152   1.215   2.617
12224TIP3   OH236614   0.377   1.217   3.939
12224TIP3    H136615   0.342   1.273   3.870
12224TIP3    H236616   0.300   1.186   3.986
12225TIP3   OH236617   0.654   2.461   3.385
12225TIP3    H136618   0.665   2.372   3.418
12225TIP3    H236619   0.713   2.514   3.437
12226TIP3   OH236620   2.816   3.048   6.295
12226TIP3    H136621   2.798   3.013   6.383
12226TIP3    H236622   2.907   3.024   6.278
12227TIP3   OH236623   7.458   7.220   4.463
12227TIP3    H136624   7.431   7.308   4.493
12227TIP3    H236625   7.495   7.234   4.377
12228TIP3   OH236626   2.303   4.124   5.899
12228TIP3    H136627   2.213   4.156   5.911
12228TIP3    H236628   2.358   4.199   5.920
12229TIP3   OH236629   4.925   4.600   4.920
12229TIP3    H136630   4.981   4.551   4.979
12229TIP3    H236631   4.959   4.581   4.833
12230TIP3   OH236632   7.879   6.379   0.050
12230TIP3    H136633   7.785   6.397   0.057
12230TIP3    H236634   7.921   6.462   0.072
12231TIP3   OH236635   7.686   4.791   6.779
12231TIP3    H136636   7.661   4.880   6.755
12231TIP3    H236637   7.782   4.794   6.785
12232TIP3   OH236638   1.888   7.688   4.372
12232TIP3    H136639   1.838   7.738   4.308
12232TIP3    H236640   1.830   7.616   4.398
12233TIP3   OH236641   3.471   3.223   1.094
12233TIP3    H136642   3.498   3.152   1.035
12233TIP3    H236643   3.524   3.210   1.173
12234TIP3   OH236644   2.488   6.352   3.236
12234TIP3    H136645   2.494   6.442   3.270
12234TIP3    H236646   2.397   6.327   3.252
12235TIP3   OH236647   7.888   3.541   3.347
12235TIP3    H136648   7.961   3.583   3.393
12235TIP3    H236649   7.908   3.553   3.254
12236TIP3   OH236650   7.094   5.401   3.978
12236TIP3    H136651   7.101   5.476   4.037
12236TIP3    H236652   7.000   5.392   3.962
12237TIP3   OH236653   2.489   0.340   4.258
12237TIP3    H136654   2.557   0.384   4.206
12237TIP3    H236655   2.492   0.384   4.343
12238TIP3   OH236656   2.621   0.335   5.442
12238TIP3    H136657   2.688   0.370   5.500
12238TIP3    H236658   2.554   0.300   5.501
12239TIP3   OH236659   7.352   4.920   6.750
12239TIP3    H136660   7.377   4.879   6.667
12239TIP3    H236661   7.352   5.014   6.732
12240TIP3   OH236662   7.566   1.707   4.859
12240TIP3    H136663   7.556   1.697   4.765
12240TIP3    H236664   7.501   1.648   4.897
12241TIP3   OH236665   3.489   5.450   5.608
12241TIP3    H136666   3.499   5.463   5.703
12241TIP3    H236667   3.566   5.401   5.582
12242TIP3   OH236668   7.405   2.010   6.433
12242TIP3    H136669   7.355   1.931   6.412
12242TIP3    H236670   7.482   2.005   6.377
12243TIP3   OH236671   0.278   0.576   4.669
12243TIP3    H136672   0.239   0.557   4.754
12243TIP3    H236673   0.218   0.536   4.606
12244TIP3   OH236674   7.269   4.749   5.473
12244TIP3    H136675   7.187   4.773   5.516
12244TIP3    H236676   7.337   4.791   5.525
12245TIP3   OH236677   8.063   5.619   5.583
12245TIP3    H136678   8.015   5.701   5.576
12245TIP3    H236679   8.153   5.641   5.560
12246TIP3   OH236680   7.506   1.928   0.397
12246TIP3    H136681   7.519   1.918   0.492
12246TIP3    H236682   7.585   1.890   0.358
12247TIP3   OH236683   4.083   6.274   2.028
12247TIP3    H136684   4.030   6.236   2.099
12247TIP3    H236685   4.076   6.369   2.041
12248TIP3   OH236686   7.467   5.285   3.790
12248TIP3    H136687   7.555   5.310   3.760
12248TIP3    H236688   7.456   5.195   3.758
12249TIP3   OH236689   4.335   4.078   6.559
12249TIP3    H136690   4.423   4.042   6.548
12249TIP3    H236691   4.346   4.172   6.548
12250TIP3   OH236692   5.220   0.916   3.629
12250TIP3    H136693   5.254   0.862   3.701
12250TIP3    H236694   5.140   0.955   3.665
12251TIP3   OH236695   7.857   6.297   4.163
12251TIP3    H136696   7.819   6.346   4.235
12251TIP3    H236697   7.782   6.253   4.121
12252TIP3   OH236698   1.840   3.866   6.581
12252TIP3    H136699   1.767   3.810   6.555
12252TIP3    H236700   1.874   3.902   6.499
12253TIP3   OH236701   7.899   1.524   4.397
12253TIP3    H136702   7.882   1.529   4.491
12253TIP3    H236703   7.982   1.478   4.390
12254TIP3   OH236704   1.234   2.492   5.564
12254TIP3    H136705   1.284   2.447   5.632
12254TIP3    H236706   1.285   2.571   5.546
12255TIP3   OH236707   0.843   7.201   3.874
12255TIP3    H136708   0.755   7.205   3.912
12255TIP3    H236709   0.885   7.129   3.920
12256TIP3   OH236710   7.269   7.305   1.515
12256TIP3    H136711   7.229   7.341   1.595
12256TIP3    H236712   7.350   7.265   1.546
12257TIP3   OH236713   8.039   3.273   0.490
12257TIP3    H136714   7.947   3.300   0.485
12257TIP3    H236715   8.069   3.306   0.575
12258TIP3   OH236716   3.358   4.048   0.646
12258TIP3    H136717   3.322   4.132   0.674
12258TIP3    H236718   3.339   3.988   0.719
12259TIP3   OH236719   4.560   6.208   1.769
12259TIP3    H136720   4.472   6.232   1.797
12259TIP3    H236721   4.551   6.119   1.736
12260TIP3   OH236722   4.982   1.559   3.500
12260TIP3    H136723   4.989   1.601   3.586
12260TIP3    H236724   4.889   1.538   3.491
12261TIP3   OH236725   8.045   3.044   4.512
12261TIP3    H136726   8.069   3.114   4.573
12261TIP3    H236727   7.984   2.988   4.561
12262TIP3   OH236728   1.324   7.521   0.284
12262TIP3    H136729   1.248   7.574   0.262
12262TIP3    H236730   1.294   7.462   0.353
12263TIP3   OH236731   5.294   2.294   3.008
12263TIP3    H136732   5.219   2.235   3.005
12263TIP3    H236733   5.368   2.237   3.029
12264TIP3   OH236734   8.154   2.786   0.778
12264TIP3    H136735   8.195   2.815   0.859
12264TIP3    H236736   8.222   2.797   0.711
12265TIP3   OH236737   6.810   3.006   5.626
12265TIP3    H136738   6.741   3.067   5.600
12265TIP3    H236739   6.768   2.950   5.692
12266TIP3   OH236740   4.578   6.165   6.453
12266TIP3    H136741   4.542   6.248   6.423
12266TIP3    H236742   4.570   6.167   6.548
12267TIP3   OH236743   0.134   1.710   6.035
12267TIP3    H136744   0.096   1.724   6.121
12267TIP3    H236745   0.080   1.762   5.976
12268TIP3   OH236746   3.195   0.429   2.374
12268TIP3    H136747   3.279   0.404   2.337
12268TIP3    H236748   3.138   0.353   2.360
12269TIP3   OH236749   0.607   4.242   0.415
12269TIP3    H136750   0.527   4.235   0.364
12269TIP3    H236751   0.591   4.189   0.493
12270TIP3   OH236752   7.804   1.811   6.720
12270TIP3    H136753   7.773   1.801   6.630
12270TIP3    H236754   7.725   1.828   6.771
12271TIP3   OH236755   2.801   3.852   5.275
12271TIP3    H136756   2.748   3.806   5.210
12271TIP3    H236757   2.741   3.870   5.347
12272TIP3   OH236758   3.820   0.724   3.021
12272TIP3    H136759   3.760   0.669   2.970
12272TIP3    H236760   3.763   0.784   3.069
12273TIP3   OH236761   3.627   5.131   1.020
12273TIP3    H136762   3.599   5.219   1.046
12273TIP3    H236763   3.688   5.147   0.947
12274TIP3   OH236764   0.450   6.789   6.236
12274TIP3    H136765   0.519   6.770   6.173
12274TIP3    H236766   0.395   6.855   6.193
12275TIP3   OH236767   5.608   2.731   5.184
12275TIP3    H136768   5.564   2.815   5.195
12275TIP3    H236769   5.702   2.752   5.187
12276TIP3   OH236770   3.903   6.018   4.252
12276TIP3    H136771   3.971   6.050   4.312
12276TIP3    H236772   3.821   6.036   4.298
12277TIP3   OH236773   6.174   0.902   5.031
12277TIP3    H136774   6.209   0.813   5.042
12277TIP3    H236775   6.217   0.954   5.098
12278TIP3   OH236776   6.659   1.535   4.699
12278TIP3    H136777   6.653   1.622   4.659
12278TIP3    H236778   6.643   1.551   4.793
12279TIP3   OH236779   2.735   6.982   4.689
12279TIP3    H136780   2.658   7.035   4.711
12279TIP3    H236781   2.806   7.045   4.679
12280TIP3   OH236782   0.243   6.033   1.909
12280TIP3    H136783   0.304   6.035   1.836
12280TIP3    H236784   0.175   5.972   1.882
12281TIP3   OH236785   1.570   3.418   6.638
12281TIP3    H136786   1.602   3.331   6.662
12281TIP3    H236787   1.484   3.424   6.679
12282TIP3   OH236788   3.290   1.395   3.752
12282TIP3    H136789   3.375   1.435   3.767
12282TIP3    H236790   3.310   1.306   3.724
12283TIP3   OH236791   6.596   4.180   0.416
12283TIP3    H136792   6.511   4.224   0.420
12283TIP3    H236793   6.649   4.224   0.482
12284TIP3   OH236794   3.834   6.349   6.305
12284TIP3    H136795   3.917   6.396   6.308
12284TIP3    H236796   3.857   6.261   6.277
12285TIP3   OH236797   0.513   5.009   1.210
12285TIP3    H136798   0.501   4.932   1.266
12285TIP3    H236799   0.561   4.976   1.134
12286TIP3   OH236800   5.955   5.850   4.867
12286TIP3    H136801   6.018   5.844   4.796
12286TIP3    H236802   5.922   5.761   4.878
12287TIP3   OH236803   1.801   7.222   3.238
12287TIP3    H136804   1.823   7.136   3.204
12287TIP3    H236805   1.736   7.257   3.177
12288TIP3   OH236806   1.670   1.733   4.564
12288TIP3    H136807   1.580   1.716   4.592
12288TIP3    H236808   1.677   1.828   4.560
12289TIP3   OH236809   3.742   0.421   0.844
12289TIP3    H136810   3.755   0.345   0.901
12289TIP3    H236811   3.792   0.491   0.886
12290TIP3   OH236812   0.877   6.191   2.423
12290TIP3    H136813   0.790   6.152   2.427
12290TIP3    H236814   0.899   6.192   2.330
12291TIP3   OH236815   0.934   2.193   5.819
12291TIP3    H136816   0.937   2.100   5.842
12291TIP3    H236817   0.983   2.198   5.737
12292TIP3   OH236818   1.980   6.650   4.649
12292TIP3    H136819   1.887   6.648   4.670
12292TIP3    H236820   2.016   6.570   4.688
12293TIP3   OH236821   2.475   1.948   3.207
12293TIP3    H136822   2.447   2.019   3.150
12293TIP3    H236823   2.465   1.982   3.296
12294TIP3   OH236824   2.000   4.337   4.570
12294TIP3    H136825   1.937   4.296   4.629
12294TIP3    H236826   1.983   4.431   4.579
12295TIP3   OH236827   3.035   7.431   1.857
12295TIP3    H136828   3.003   7.475   1.778
12295TIP3    H236829   3.123   7.467   1.871
12296TIP3   OH236830   7.039   2.950   1.123
12296TIP3    H136831   6.973   3.002   1.078
12296TIP3    H236832   7.071   2.890   1.056
12297TIP3   OH236833   0.788   4.267   1.637
12297TIP3    H136834   0.724   4.333   1.611
12297TIP3    H236835   0.844   4.256   1.560
12298TIP3   OH236836   0.783   5.177   2.327
12298TIP3    H136837   0.696   5.214   2.318
12298TIP3    H236838   0.841   5.239   2.282
12299TIP3   OH236839   3.148   5.086   6.711
12299TIP3    H136840   3.073   5.112   6.657
12299TIP3    H236841   3.123   5.002   6.748
12300TIP3   OH236842   1.878   5.501   6.278
12300TIP3    H136843   1.803   5.551   6.243
12300TIP3    H236844   1.875   5.516   6.372
12301TIP3   OH236845   2.183   2.162   6.216
12301TIP3    H136846   2.162   2.229   6.281
12301TIP3    H236847   2.139   2.084   6.248
12302TIP3   OH236848   8.019   3.470   3.937
12302TIP3    H136849   8.065   3.443   3.857
12302TIP3    H236850   7.952   3.531   3.907
12303TIP3   OH236851   6.055   6.264   3.116
12303TIP3    H136852   6.060   6.168   3.116
12303TIP3    H236853   5.970   6.284   3.077
12304TIP3   OH236854   3.016   4.750   1.359
12304TIP3    H136855   2.947   4.705   1.408
12304TIP3    H236856   2.985   4.750   1.269
12305TIP3   OH236857   0.985   4.746   6.073
12305TIP3    H136858   1.046   4.811   6.038
12305TIP3    H236859   0.905   4.795   6.090
12306TIP3   OH236860   7.179   3.062   2.794
12306TIP3    H136861   7.223   3.061   2.709
12306TIP3    H236862   7.102   3.117   2.781
12307TIP3   OH236863   5.273   6.682   6.007
12307TIP3    H136864   5.319   6.598   6.004
12307TIP3    H236865   5.230   6.682   6.093
12308TIP3   OH236866   5.816   3.604   5.425
12308TIP3    H136867   5.867   3.554   5.361
12308TIP3    H236868   5.725   3.588   5.401
12309TIP3   OH236869   0.945   3.388   5.503
12309TIP3    H136870   0.896   3.316   5.463
12309TIP3    H236871   1.002   3.345   5.568
12310TIP3   OH236872   1.298   5.089   2.973
12310TIP3    H136873   1.277   5.179   2.948
12310TIP3    H236874   1.274   5.084   3.066
12311TIP3   OH236875   3.596   0.643   0.716
12311TIP3    H136876   3.619   0.700   0.790
12311TIP3    H236877   3.623   0.556   0.745
12312TIP3   OH236878   2.675   6.019   4.421
12312TIP3    H136879   2.725   6.098   4.440
12312TIP3    H236880   2.584   6.043   4.440
12313TIP3   OH236881   0.746   1.261   6.548
12313TIP3    H136882   0.817   1.197   6.537
12313TIP3    H236883   0.745   1.279   6.642
12314TIP3   OH236884   0.688   3.684   2.853
12314TIP3    H136885   0.632   3.755   2.822
12314TIP3    H236886   0.761   3.728   2.897
12315TIP3   OH236887   1.044   5.702   5.952
12315TIP3    H136888   0.971   5.695   5.891
12315TIP3    H236889   1.047   5.795   5.975
12316TIP3   OH236890   1.200   0.821   2.275
12316TIP3    H136891   1.200   0.799   2.182
12316TIP3    H236892   1.290   0.851   2.292
12317TIP3   OH236893   2.464   6.034   0.165
12317TIP3    H136894   2.513   6.096   0.219
12317TIP3    H236895   2.374   6.067   0.165
12318TIP3   OH236896   5.102   4.603   3.877
12318TIP3    H136897   5.059   4.564   3.801
12318TIP3    H236898   5.180   4.644   3.841
12319TIP3   OH236899   1.439   4.226   2.078
12319TIP3    H136900   1.504   4.178   2.027
12319TIP3    H236901   1.464   4.318   2.068
12320TIP3   OH236902   0.461   4.543   4.467
12320TIP3    H136903   0.460   4.637   4.483
12320TIP3    H236904   0.437   4.534   4.374
12321TIP3   OH236905   6.554   3.437   1.614
12321TIP3    H136906   6.512   3.373   1.557
12321TIP3    H236907   6.487   3.504   1.629
12322TIP3   OH236908   7.352   2.344   1.295
12322TIP3    H136909   7.397   2.275   1.344
12322TIP3    H236910   7.263   2.344   1.331
12323TIP3   OH236911   5.910   7.255   2.177
12323TIP3    H136912   5.899   7.174   2.227
12323TIP3    H236913   5.927   7.225   2.087
12324TIP3   OH236914   1.882   3.282   3.723
12324TIP3    H136915   1.950   3.216   3.713
12324TIP3    H236916   1.844   3.264   3.809
12325TIP3   OH236917   8.310   5.490   2.031
12325TIP3    H136918   8.255   5.526   2.101
12325TIP3    H236919   8.248   5.474   1.959
12326TIP3   OH236920   2.189   3.876   6.135
12326TIP3    H136921   2.163   3.812   6.200
12326TIP3    H236922   2.253   3.932   6.180
12327TIP3   OH236923   0.351   7.649   6.266
12327TIP3    H136924   0.298   7.583   6.221
12327TIP3    H236925   0.376   7.711   6.198
12328TIP3   OH236926   1.967   2.377   1.253
12328TIP3    H136927   1.951   2.308   1.317
12328TIP3    H236928   1.880   2.411   1.232
12329TIP3   OH236929   5.694   2.416   5.209
12329TIP3    H136930   5.703   2.462   5.293
12329TIP3    H236931   5.671   2.485   5.147
12330TIP3   OH236932   0.538   5.633   3.774
12330TIP3    H136933   0.490   5.703   3.818
12330TIP3    H236934   0.536   5.658   3.681
12331TIP3   OH236935   0.229   1.403   3.839
12331TIP3    H136936   0.292   1.425   3.771
12331TIP3    H236937   0.169   1.477   3.841
12332TIP3   OH236938   4.424   7.565   4.901
12332TIP3    H136939   4.433   7.525   4.988
12332TIP3    H236940   4.329   7.569   4.887
12333TIP3   OH236941   1.653   7.565   1.189
12333TIP3    H136942   1.643   7.654   1.224
12333TIP3    H236943   1.568   7.524   1.205
12334TIP3   OH236944   2.903   4.601   4.786
12334TIP3    H136945   2.889   4.689   4.821
12334TIP3    H236946   2.925   4.616   4.694
12335TIP3   OH236947   3.634   4.143   0.846
12335TIP3    H136948   3.569   4.122   0.913
12335TIP3    H236949   3.716   4.106   0.879
12336TIP3   OH236950   7.177   5.799   5.797
12336TIP3    H136951   7.188   5.861   5.869
12336TIP3    H236952   7.234   5.833   5.728
12337TIP3   OH236953   8.135   7.660   1.218
12337TIP3    H136954   8.111   7.753   1.215
12337TIP3    H236955   8.061   7.615   1.179
12338TIP3   OH236956   8.151   7.529   5.807
12338TIP3    H136957   8.241   7.498   5.821
12338TIP3    H236958   8.155   7.623   5.825
12339TIP3   OH236959   7.560   0.186   2.913
12339TIP3    H136960   7.472   0.186   2.875
12339TIP3    H236961   7.562   0.263   2.970
12340TIP3   OH236962   5.570   2.595   6.119
12340TIP3    H136963   5.580   2.550   6.035
12340TIP3    H236964   5.564   2.524   6.183
12341TIP3   OH236965   0.706   0.288   5.185
12341TIP3    H136966   0.611   0.285   5.183
12341TIP3    H236967   0.730   0.344   5.111
12342TIP3   OH236968   4.931   0.002   0.584
12342TIP3    H136969   4.836   0.010   0.581
12342TIP3    H236970   4.961   0.087   0.617
12343TIP3   OH236971   4.841   0.627   2.198
12343TIP3    H136972   4.922   0.577   2.206
12343TIP3    H236973   4.867   0.706   2.150
12344TIP3   OH236974   5.147   4.975   5.458
12344TIP3    H136975   5.188   4.964   5.372
12344TIP3    H236976   5.129   4.886   5.488
12345TIP3   OH236977   1.621   6.149   3.820
12345TIP3    H136978   1.654   6.070   3.777
12345TIP3    H236979   1.532   6.160   3.787
12346TIP3   OH236980   2.480   7.026   1.541
12346TIP3    H136981   2.490   7.066   1.454
12346TIP3    H236982   2.398   7.062   1.574
12347TIP3   OH236983   3.438   0.295   3.767
12347TIP3    H136984   3.377   0.222   3.762
12347TIP3    H236985   3.387   0.372   3.743
12348TIP3   OH236986   0.009   4.980   3.399
12348TIP3    H136987   0.099   4.977   3.366
12348TIP3    H236988  -0.034   5.046   3.345
12349TIP3   OH236989   0.179   7.215   3.277
12349TIP3    H136990   0.232   7.198   3.199
12349TIP3    H236991   0.092   7.237   3.243
12350TIP3   OH236992   5.197   5.355   0.237
12350TIP3    H136993   5.219   5.311   0.154
12350TIP3    H236994   5.151   5.435   0.211
12351TIP3   OH236995   3.717   2.140   3.891
12351TIP3    H136996   3.730   2.056   3.846
12351TIP3    H236997   3.797   2.190   3.873
12352TIP3   OH236998   1.621   4.762   1.973
12352TIP3    H136999   1.557   4.699   1.939
12352TIP3    H237000   1.706   4.720   1.959
12353TIP3   OH237001   3.980   0.649   3.358
12353TIP3    H137002   4.032   0.714   3.406
12353TIP3    H237003   3.932   0.700   3.293
12354TIP3   OH237004   2.677   1.156   0.690
12354TIP3    H137005   2.763   1.130   0.724
12354TIP3    H237006   2.690   1.245   0.658
12355TIP3   OH237007   1.595   6.349   4.011
12355TIP3    H137008   1.508   6.384   3.994
12355TIP3    H237009   1.609   6.284   3.942
12356TIP3   OH237010   2.625   7.366   4.828
12356TIP3    H137011   2.564   7.382   4.756
12356TIP3    H237012   2.656   7.454   4.853
12357TIP3   OH237013   0.951   5.142   2.581
12357TIP3    H137014   0.970   5.168   2.490
12357TIP3    H237015   0.857   5.154   2.590
12358TIP3   OH237016   2.714   4.552   3.884
12358TIP3    H137017   2.715   4.485   3.953
12358TIP3    H237018   2.622   4.559   3.859
12359TIP3   OH237019   4.633   2.656   5.911
12359TIP3    H137020   4.718   2.699   5.919
12359TIP3    H237021   4.654   2.563   5.898
12360TIP3   OH237022   6.564   4.522   5.406
12360TIP3    H137023   6.627   4.584   5.442
12360TIP3    H237024   6.482   4.570   5.402
12361TIP3   OH237025   4.278   5.300   0.796
12361TIP3    H137026   4.372   5.303   0.781
12361TIP3    H237027   4.256   5.384   0.835
12362TIP3   OH237028   7.817   2.187   3.476
12362TIP3    H137029   7.893   2.157   3.526
12362TIP3    H237030   7.852   2.251   3.414
12363TIP3   OH237031   0.208   5.120   6.356
12363TIP3    H137032   0.140   5.186   6.349
12363TIP3    H237033   0.274   5.146   6.290
12364TIP3   OH237034   1.530   0.735   5.839
12364TIP3    H137035   1.620   0.739   5.870
12364TIP3    H237036   1.487   0.671   5.896
12365TIP3   OH237037   0.734   3.157   6.385
12365TIP3    H137038   0.759   3.110   6.464
12365TIP3    H237039   0.638   3.151   6.383
12366TIP3   OH237040   6.502   7.086   5.514
12366TIP3    H137041   6.437   7.113   5.580
12366TIP3    H237042   6.550   7.016   5.556
12367TIP3   OH237043   3.614   2.357   6.658
12367TIP3    H137044   3.660   2.273   6.648
12367TIP3    H237045   3.522   2.333   6.667
12368TIP3   OH237046   0.704   6.416   1.697
12368TIP3    H137047   0.621   6.424   1.744
12368TIP3    H237048   0.762   6.370   1.758
12369TIP3   OH237049   4.054   1.279   6.298
12369TIP3    H137050   4.052   1.194   6.253
12369TIP3    H237051   4.008   1.338   6.239
12370TIP3   OH237052   4.262   1.270   3.174
12370TIP3    H137053   4.243   1.202   3.110
12370TIP3    H237054   4.177   1.290   3.214
12371TIP3   OH237055   1.311   2.199   6.329
12371TIP3    H137056   1.228   2.216   6.286
12371TIP3    H237057   1.291   2.201   6.422
12372TIP3   OH237058   2.575   0.316   1.802
12372TIP3    H137059   2.511   0.359   1.860
12372TIP3    H237060   2.630   0.264   1.861
12373TIP3   OH237061   3.135   6.284   2.750
12373TIP3    H137062   3.186   6.241   2.681
12373TIP3    H237063   3.081   6.348   2.703
12374TIP3   OH237064   3.689   7.188   2.244
12374TIP3    H137065   3.670   7.094   2.240
12374TIP3    H237066   3.730   7.207   2.159
12375TIP3   OH237067   1.379   6.368   6.534
12375TIP3    H137068   1.335   6.453   6.527
12375TIP3    H237069   1.395   6.357   6.628
12376TIP3   OH237070   7.979   3.827   0.043
12376TIP3    H137071   7.905   3.772   0.017
12376TIP3    H237072   8.036   3.769   0.093
12377TIP3   OH237073   1.920   5.692   1.125
12377TIP3    H137074   2.011   5.674   1.146
12377TIP3    H237075   1.892   5.618   1.071
12378TIP3   OH237076   0.821   4.772   6.504
12378TIP3    H137077   0.850   4.694   6.550
12378TIP3    H237078   0.725   4.766   6.504
12379TIP3   OH237079   2.227   2.736   6.425
12379TIP3    H137080   2.134   2.753   6.412
12379TIP3    H237081   2.271   2.795   6.364
12380TIP3   OH237082   2.537   4.287   3.575
12380TIP3    H137083   2.534   4.225   3.502
12380TIP3    H237084   2.470   4.257   3.636
12381TIP3   OH237085   0.675   1.168   0.560
12381TIP3    H137086   0.655   1.123   0.642
12381TIP3    H237087   0.766   1.143   0.540
12382TIP3   OH237088   4.169   6.813   3.157
12382TIP3    H137089   4.171   6.909   3.158
12382TIP3    H237090   4.086   6.792   3.113
12383TIP3   OH237091   5.629   1.268   3.556
12383TIP3    H137092   5.575   1.194   3.586
12383TIP3    H237093   5.615   1.335   3.623
12384TIP3   OH237094   0.670   0.017   1.330
12384TIP3    H137095   0.645   0.099   1.372
12384TIP3    H237096   0.765   0.023   1.321
12385TIP3   OH237097   6.918   5.724   2.221
12385TIP3    H137098   7.007   5.729   2.187
12385TIP3    H237099   6.885   5.640   2.190
12386TIP3   OH237100   5.454   5.333   1.190
12386TIP3    H137101   5.383   5.287   1.145
12386TIP3    H237102   5.457   5.419   1.149
12387TIP3   OH237103   0.414   2.365   5.132
12387TIP3    H137104   0.473   2.352   5.207
12387TIP3    H237105   0.336   2.406   5.170
12388TIP3   OH237106   7.993   0.646  -0.002
12388TIP3    H137107   8.067   0.617   0.052
12388TIP3    H237108   7.961   0.565  -0.043
12389TIP3   OH237109   5.538   0.017   4.233
12389TIP3    H137110   5.523   0.110   4.215
12389TIP3    H237111   5.577  -0.017   4.152
12390TIP3   OH237112   1.095   4.260   1.532
12390TIP3    H137113   1.116   4.173   1.499
12390TIP3    H237114   1.113   4.255   1.626
12391TIP3   OH237115   6.122   1.045   2.072
12391TIP3    H137116   6.149   1.136   2.059
12391TIP3    H237117   6.050   1.050   2.135
12392TIP3   OH237118   0.062   0.517   0.634
12392TIP3    H137119   0.022   0.438   0.599
12392TIP3    H237120   0.073   0.575   0.559
12393TIP3   OH237121   4.214   4.565   2.660
12393TIP3    H137122   4.297   4.605   2.683
12393TIP3    H237123   4.163   4.567   2.742
12394TIP3   OH237124   5.476   6.141   1.581
12394TIP3    H137125   5.382   6.154   1.583
12394TIP3    H237126   5.511   6.210   1.638
12395TIP3   OH237127   7.011   4.428   4.151
12395TIP3    H137128   6.951   4.370   4.198
12395TIP3    H237129   7.072   4.369   4.108
12396TIP3   OH237130  -0.013   0.588   2.858
12396TIP3    H137131   0.059   0.640   2.821
12396TIP3    H237132   0.028   0.538   2.929
12397TIP3   OH237133   7.842   2.387   2.036
12397TIP3    H137134   7.886   2.341   2.107
12397TIP3    H237135   7.866   2.479   2.050
12398TIP3   OH237136   5.423   7.410   0.921
12398TIP3    H137137   5.366   7.451   0.856
12398TIP3    H237138   5.478   7.350   0.870
12399TIP3   OH237139   3.594   7.417   2.803
12399TIP3    H137140   3.507   7.377   2.796
12399TIP3    H237141   3.578   7.511   2.796
12400TIP3   OH237142   2.791   7.213   5.855
12400TIP3    H137143   2.876   7.257   5.853
12400TIP3    H237144   2.800   7.141   5.793
12401TIP3   OH237145   2.780   5.962   1.458
12401TIP3    H137146   2.726   5.884   1.476
12401TIP3    H237147   2.827   5.940   1.377
12402TIP3   OH237148   4.643   4.278   5.830
12402TIP3    H137149   4.724   4.239   5.797
12402TIP3    H237150   4.585   4.204   5.845
12403TIP3   OH237151   5.201   5.596   1.696
12403TIP3    H137152   5.171   5.686   1.682
12403TIP3    H237153   5.289   5.605   1.732
12404TIP3   OH237154   2.650   3.514   0.624
12404TIP3    H137155   2.712   3.483   0.559
12404TIP3    H237156   2.692   3.496   0.708
12405TIP3   OH237157   3.961   2.255   3.760
12405TIP3    H137158   3.979   2.341   3.722
12405TIP3    H237159   4.029   2.198   3.723
12406TIP3   OH237160   8.011   2.323   5.013
12406TIP3    H137161   8.017   2.320   4.917
12406TIP3    H237162   7.918   2.320   5.031
12407TIP3   OH237163   1.796   0.636   0.598
12407TIP3    H137164   1.830   0.592   0.520
12407TIP3    H237165   1.872   0.646   0.656
12408TIP3   OH237166   3.584   0.603   2.911
12408TIP3    H137167   3.547   0.692   2.912
12408TIP3    H237168   3.515   0.548   2.947
12409TIP3   OH237169   1.887   7.676   3.979
12409TIP3    H137170   1.898   7.591   4.022
12409TIP3    H237171   1.969   7.688   3.930
12410TIP3   OH237172   7.252   6.358   0.904
12410TIP3    H137173   7.183   6.425   0.899
12410TIP3    H237174   7.237   6.316   0.988
12411TIP3   OH237175   1.311   4.895   5.222
12411TIP3    H137176   1.281   4.973   5.176
12411TIP3    H237177   1.400   4.881   5.190
12412TIP3   OH237178   4.886   4.021   1.281
12412TIP3    H137179   4.972   4.026   1.239
12412TIP3    H237180   4.826   4.059   1.216
12413TIP3   OH237181   6.217   5.257   1.039
12413TIP3    H137182   6.195   5.347   1.014
12413TIP3    H237183   6.137   5.208   1.020
12414TIP3   OH237184   4.246   4.867   0.455
12414TIP3    H137185   4.189   4.807   0.503
12414TIP3    H237186   4.324   4.874   0.510
12415TIP3   OH237187   3.249   1.040   0.611
12415TIP3    H137188   3.337   1.048   0.647
12415TIP3    H237189   3.202   0.987   0.676
12416TIP3   OH237190   0.706   2.585   4.298
12416TIP3    H137191   0.622   2.597   4.254
12416TIP3    H237192   0.713   2.491   4.312
12417TIP3   OH237193   4.186   3.835   5.010
12417TIP3    H137194   4.107   3.886   4.988
12417TIP3    H237195   4.193   3.770   4.941
12418TIP3   OH237196   5.516   1.474   1.498
12418TIP3    H137197   5.498   1.526   1.421
12418TIP3    H237198   5.535   1.538   1.567
12419TIP3   OH237199   5.039   4.696   6.437
12419TIP3    H137200   4.973   4.628   6.428
12419TIP3    H237201   5.070   4.689   6.527
12420TIP3   OH237202   5.544   6.935   0.212
12420TIP3    H137203   5.562   6.918   0.119
12420TIP3    H237204   5.542   7.030   0.218
12421TIP3   OH237205   8.045   2.483   3.077
12421TIP3    H137206   8.129   2.522   3.053
12421TIP3    H237207   8.040   2.403   3.024
12422TIP3   OH237208   4.286   3.550   0.284
12422TIP3    H137209   4.243   3.465   0.291
12422TIP3    H237210   4.367   3.540   0.333
12423TIP3   OH237211   3.654   3.592   2.427
12423TIP3    H137212   3.579   3.640   2.391
12423TIP3    H237213   3.654   3.508   2.382
12424TIP3   OH237214   0.550   6.718   1.424
12424TIP3    H137215   0.645   6.707   1.428
12424TIP3    H237216   0.515   6.631   1.443
12425TIP3   OH237217   6.849   2.340   3.960
12425TIP3    H137218   6.791   2.278   3.916
12425TIP3    H237219   6.890   2.389   3.889
12426TIP3   OH237220   0.849   0.596   3.213
12426TIP3    H137221   0.826   0.650   3.288
12426TIP3    H237222   0.798   0.515   3.224
12427TIP3   OH237223   7.766   7.034   1.497
12427TIP3    H137224   7.819   7.060   1.572
12427TIP3    H237225   7.811   7.071   1.421
12428TIP3   OH237226   3.559   5.940   1.110
12428TIP3    H137227   3.530   5.995   1.183
12428TIP3    H237228   3.508   5.971   1.036
12429TIP3   OH237229   6.933   0.832   2.575
12429TIP3    H137230   6.925   0.737   2.564
12429TIP3    H237231   6.980   0.843   2.657
12430TIP3   OH237232   2.423   0.945   1.763
12430TIP3    H137233   2.330   0.927   1.773
12430TIP3    H237234   2.458   0.869   1.717
12431TIP3   OH237235   3.203   0.666   2.088
12431TIP3    H137236   3.202   0.729   2.160
12431TIP3    H237237   3.289   0.625   2.092
12432TIP3   OH237238   6.566   3.054   2.370
12432TIP3    H137239   6.558   3.148   2.391
12432TIP3    H237240   6.608   3.053   2.284
12433TIP3   OH237241   5.671   7.157   0.735
12433TIP3    H137242   5.724   7.236   0.747
12433TIP3    H237243   5.647   7.131   0.824
12434TIP3   OH237244   1.460   1.508   0.010
12434TIP3    H137245   1.470   1.600   0.035
12434TIP3    H237246   1.369   1.500  -0.019
12435TIP3   OH237247   1.439   7.470  -0.028
12435TIP3    H137248   1.412   7.490   0.062
12435TIP3    H237249   1.395   7.535  -0.082
12436TIP3   OH237250   3.419   1.494   5.078
12436TIP3    H137251   3.345   1.506   5.137
12436TIP3    H237252   3.474   1.571   5.092
12437TIP3   OH237253   2.532   6.610   4.207
12437TIP3    H137254   2.569   6.563   4.133
12437TIP3    H237255   2.591   6.591   4.280
12438TIP3   OH237256   2.630   3.589   0.981
12438TIP3    H137257   2.617   3.651   0.910
12438TIP3    H237258   2.586   3.509   0.951
12439TIP3   OH237259   2.717   1.713   1.556
12439TIP3    H137260   2.772   1.715   1.635
12439TIP3    H237261   2.632   1.682   1.587
12440TIP3   OH237262   5.456   7.222   5.377
12440TIP3    H137263   5.421   7.288   5.436
12440TIP3    H237264   5.471   7.145   5.432
12441TIP3   OH237265   0.597   4.962   3.719
12441TIP3    H137266   0.651   4.966   3.640
12441TIP3    H237267   0.507   4.976   3.687
12442TIP3   OH237268   3.749   5.624   0.585
12442TIP3    H137269   3.812   5.576   0.638
12442TIP3    H237270   3.733   5.704   0.634
12443TIP3   OH237271   4.319   0.292   4.391
12443TIP3    H137272   4.414   0.300   4.381
12443TIP3    H237273   4.307   0.250   4.476
12444TIP3   OH237274   6.313   4.338   3.337
12444TIP3    H137275   6.272   4.369   3.418
12444TIP3    H237276   6.241   4.306   3.284
12445TIP3   OH237277   6.093   7.272   5.805
12445TIP3    H137278   6.072   7.333   5.876
12445TIP3    H237279   6.058   7.188   5.835
12446TIP3   OH237280   6.694   4.340   5.250
12446TIP3    H137281   6.701   4.377   5.162
12446TIP3    H237282   6.649   4.407   5.301
12447TIP3   OH237283   6.203   5.179   2.446
12447TIP3    H137284   6.225   5.230   2.524
12447TIP3    H237285   6.131   5.123   2.474
12448TIP3   OH237286   3.960   1.969   1.649
12448TIP3    H137287   4.018   2.012   1.586
12448TIP3    H237288   3.881   2.025   1.650
12449TIP3   OH237289   1.174   6.984   6.485
12449TIP3    H137290   1.095   6.948   6.524
12449TIP3    H237291   1.240   6.978   6.554
12450TIP3   OH237292   6.567   2.972   3.076
12450TIP3    H137293   6.541   3.013   2.993
12450TIP3    H237294   6.536   2.882   3.069
12451TIP3   OH237295   2.490   5.209   0.504
12451TIP3    H137296   2.503   5.241   0.593
12451TIP3    H237297   2.459   5.119   0.515
12452TIP3   OH237298   3.957   7.430   3.866
12452TIP3    H137299   3.954   7.372   3.790
12452TIP3    H237300   3.967   7.518   3.829
12453TIP3   OH237301   0.199   5.721   2.137
12453TIP3    H137302   0.137   5.762   2.076
12453TIP3    H237303   0.168   5.748   2.224
12454TIP3   OH237304   2.793   3.431   4.363
12454TIP3    H137305   2.750   3.498   4.311
12454TIP3    H237306   2.726   3.403   4.426
12455TIP3   OH237307   2.062   5.511   4.416
12455TIP3    H137308   2.037   5.545   4.330
12455TIP3    H237309   2.064   5.416   4.405
12456TIP3   OH237310   1.690   1.927   2.509
12456TIP3    H137311   1.686   2.021   2.493
12456TIP3    H237312   1.616   1.891   2.459
12457TIP3   OH237313   8.152   0.432   0.193
12457TIP3    H137314   8.099   0.383   0.130
12457TIP3    H237315   8.124   0.399   0.278
12458TIP3   OH237316   4.392   0.391   2.653
12458TIP3    H137317   4.334   0.427   2.720
12458TIP3    H237318   4.335   0.378   2.577
12459TIP3   OH237319   7.031   0.152   1.596
12459TIP3    H137320   6.956   0.117   1.547
12459TIP3    H237321   7.107   0.124   1.545
12460TIP3   OH237322   7.724   1.053   6.559
12460TIP3    H137323   7.663   1.067   6.632
12460TIP3    H237324   7.754   1.140   6.536
12461TIP3   OH237325   1.029   6.118   0.286
12461TIP3    H137326   1.016   6.202   0.330
12461TIP3    H237327   1.012   6.053   0.354
12462TIP3   OH237328   2.019   3.965   4.408
12462TIP3    H137329   2.058   3.913   4.478
12462TIP3    H237330   1.930   3.984   4.439
12463TIP3   OH237331   1.816   0.879   1.607
12463TIP3    H137332   1.900   0.833   1.604
12463TIP3    H237333   1.754   0.819   1.566
12464TIP3   OH237334   0.710   1.819   1.992
12464TIP3    H137335   0.702   1.911   1.965
12464TIP3    H237336   0.652   1.811   2.067
12465TIP3   OH237337   4.138   0.783   6.058
12465TIP3    H137338   4.147   0.830   5.975
12465TIP3    H237339   4.145   0.690   6.033
12466TIP3   OH237340   4.674   4.021   3.623
12466TIP3    H137341   4.590   4.052   3.590
12466TIP3    H237342   4.721   3.991   3.545
12467TIP3   OH237343   6.307   5.042   2.896
12467TIP3    H137344   6.296   4.961   2.945
12467TIP3    H237345   6.312   5.015   2.804
12468TIP3   OH237346   1.895   6.748   4.380
12468TIP3    H137347   1.935   6.698   4.451
12468TIP3    H237348   1.946   6.829   4.376
12469TIP3   OH237349   6.422   5.883   1.181
12469TIP3    H137350   6.448   5.944   1.249
12469TIP3    H237351   6.488   5.895   1.112
12470TIP3   OH237352   6.985   2.463   5.078
12470TIP3    H137353   7.050   2.526   5.046
12470TIP3    H237354   7.030   2.379   5.077
12471TIP3   OH237355   7.830   5.388   6.266
12471TIP3    H137356   7.883   5.314   6.235
12471TIP3    H237357   7.810   5.366   6.357
12472TIP3   OH237358   7.710   1.316   5.248
12472TIP3    H137359   7.687   1.408   5.260
12472TIP3    H237360   7.805   1.313   5.262
12473TIP3   OH237361   4.051   4.058   1.924
12473TIP3    H137362   4.052   4.041   2.018
12473TIP3    H237363   3.963   4.031   1.896
12474TIP3   OH237364   4.344   6.390   3.997
12474TIP3    H137365   4.404   6.407   4.069
12474TIP3    H237366   4.266   6.354   4.039
12475TIP3   OH237367   1.259   5.534   5.840
12475TIP3    H137368   1.214   5.601   5.890
12475TIP3    H237369   1.331   5.580   5.797
12476TIP3   OH237370   0.765   1.179   5.614
12476TIP3    H137371   0.835   1.129   5.657
12476TIP3    H237372   0.784   1.270   5.636
12477TIP3   OH237373   4.502   1.921   4.517
12477TIP3    H137374   4.510   1.977   4.439
12477TIP3    H237375   4.435   1.857   4.493
12478TIP3   OH237376   0.485   5.738   6.744
12478TIP3    H137377   0.553   5.804   6.734
12478TIP3    H237378   0.416   5.765   6.682
12479TIP3   OH237379   0.245   1.245   2.305
12479TIP3    H137380   0.216   1.168   2.355
12479TIP3    H237381   0.278   1.305   2.372
12480TIP3   OH237382   4.246   1.543   3.044
12480TIP3    H137383   4.272   1.461   3.085
12480TIP3    H237384   4.236   1.605   3.116
12481TIP3   OH237385   2.624   0.510   0.473
12481TIP3    H137386   2.627   0.584   0.412
12481TIP3    H237387   2.631   0.433   0.417
12482TIP3   OH237388   2.282   2.123   4.926
12482TIP3    H137389   2.267   2.036   4.889
12482TIP3    H237390   2.341   2.108   5.000
12483TIP3   OH237391   1.618   6.404   5.565
12483TIP3    H137392   1.659   6.321   5.539
12483TIP3    H237393   1.629   6.461   5.488
12484TIP3   OH237394   7.137   4.295   2.399
12484TIP3    H137395   7.045   4.322   2.392
12484TIP3    H237396   7.187   4.370   2.367
12485TIP3   OH237397   7.700   1.237   0.061
12485TIP3    H137398   7.721   1.318   0.016
12485TIP3    H237399   7.659   1.182  -0.006
12486TIP3   OH237400   2.945   0.473   2.532
12486TIP3    H137401   2.971   0.565   2.526
12486TIP3    H237402   2.974   0.434   2.450
12487TIP3   OH237403   6.133   4.147   4.063
12487TIP3    H137404   6.052   4.129   4.111
12487TIP3    H237405   6.107   4.147   3.971
12488TIP3   OH237406   1.069   1.673   3.352
12488TIP3    H137407   0.989   1.644   3.395
12488TIP3    H237408   1.136   1.613   3.384
12489TIP3   OH237409   8.039   1.096   5.142
12489TIP3    H137410   8.062   1.166   5.203
12489TIP3    H237411   8.067   1.016   5.185
12490TIP3   OH237412   5.267   4.065   2.455
12490TIP3    H137413   5.237   4.153   2.478
12490TIP3    H237414   5.301   4.028   2.536
12491TIP3   OH237415   8.064   2.409   6.399
12491TIP3    H137416   8.100   2.479   6.452
12491TIP3    H237417   8.122   2.334   6.414
12492TIP3   OH237418   2.236   3.946   5.536
12492TIP3    H137419   2.258   3.918   5.447
12492TIP3    H237420   2.206   4.036   5.526
12493TIP3   OH237421   4.498   0.171   1.340
12493TIP3    H137422   4.431   0.150   1.405
12493TIP3    H237423   4.563   0.102   1.349
12494TIP3   OH237424   1.698   6.184   4.657
12494TIP3    H137425   1.674   6.155   4.568
12494TIP3    H237426   1.783   6.226   4.646
12495TIP3   OH237427   6.213   7.224   4.946
12495TIP3    H137428   6.275   7.282   4.990
12495TIP3    H237429   6.215   7.251   4.855
12496TIP3   OH237430   6.698   7.729   3.756
12496TIP3    H137431   6.746   7.732   3.673
12496TIP3    H237432   6.764   7.755   3.821
12497TIP3   OH237433   0.358   4.395   3.638
12497TIP3    H137434   0.388   4.485   3.643
12497TIP3    H237435   0.331   4.373   3.728
12498TIP3   OH237436   5.891   5.161   4.635
12498TIP3    H137437   5.926   5.211   4.561
12498TIP3    H237438   5.872   5.074   4.598
12499TIP3   OH237439   7.944   4.635   1.179
12499TIP3    H137440   7.929   4.609   1.270
12499TIP3    H237441   7.856   4.648   1.143
12500TIP3   OH237442   6.233   7.825   2.608
12500TIP3    H137443   6.196   7.740   2.633
12500TIP3    H237444   6.161   7.870   2.563
12501TIP3   OH237445   8.124   1.347   2.040
12501TIP3    H137446   8.032   1.347   2.012
12501TIP3    H237447   8.141   1.258   2.069
12502TIP3   OH237448   3.114   5.043   2.567
12502TIP3    H137449   3.078   4.954   2.568
12502TIP3    H237450   3.081   5.081   2.486
12503TIP3   OH237451   3.078   1.785   2.157
12503TIP3    H137452   3.030   1.702   2.147
12503TIP3    H237453   3.150   1.763   2.217
12504TIP3   OH237454   1.157   3.227   2.932
12504TIP3    H137455   1.129   3.146   2.890
12504TIP3    H237456   1.115   3.296   2.881
12505TIP3   OH237457   8.173   6.235   5.480
12505TIP3    H137458   8.130   6.213   5.562
12505TIP3    H237459   8.165   6.155   5.427
12506TIP3   OH237460   2.344   0.488   5.778
12506TIP3    H137461   2.354   0.398   5.748
12506TIP3    H237462   2.427   0.531   5.757
12507TIP3   OH237463   6.087   3.482   6.346
12507TIP3    H137464   6.100   3.494   6.440
12507TIP3    H237465   6.058   3.391   6.338
12508TIP3   OH237466   2.540   0.695   5.503
12508TIP3    H137467   2.621   0.686   5.453
12508TIP3    H237468   2.479   0.737   5.442
12509TIP3   OH237469   2.977   3.876   0.378
12509TIP3    H137470   3.059   3.923   0.389
12509TIP3    H237471   2.916   3.920   0.436
12510TIP3   OH237472   6.220   5.655   5.666
12510TIP3    H137473   6.196   5.743   5.637
12510TIP3    H237474   6.234   5.606   5.586
12511TIP3   OH237475   5.697   6.206   3.024
12511TIP3    H137476   5.690   6.111   3.022
12511TIP3    H237477   5.738   6.229   2.941
12512TIP3   OH237478   2.037   6.241   1.205
12512TIP3    H137479   2.095   6.166   1.195
12512TIP3    H237480   2.081   6.296   1.270
12513TIP3   OH237481   3.468   2.773   1.421
12513TIP3    H137482   3.475   2.680   1.401
12513TIP3    H237483   3.404   2.778   1.492
12514TIP3   OH237484   6.414   7.492   1.703
12514TIP3    H137485   6.356   7.433   1.655
12514TIP3    H237486   6.485   7.512   1.641
12515TIP3   OH237487   1.722   2.719   2.369
12515TIP3    H137488   1.817   2.710   2.355
12515TIP3    H237489   1.703   2.662   2.443
12516TIP3   OH237490   0.860   1.210   2.814
12516TIP3    H137491   0.872   1.282   2.875
12516TIP3    H237492   0.859   1.252   2.728
12517TIP3   OH237493   8.291   4.901   5.561
12517TIP3    H137494   8.267   4.993   5.575
12517TIP3    H237495   8.212   4.861   5.526
12518TIP3   OH237496   8.300   3.103   2.762
12518TIP3    H137497   8.374   3.085   2.820
12518TIP3    H237498   8.227   3.054   2.799
12519TIP3   OH237499   4.278   1.681   5.539
12519TIP3    H137500   4.330   1.613   5.497
12519TIP3    H237501   4.342   1.746   5.568
12520TIP3   OH237502   5.645   1.886   5.524
12520TIP3    H137503   5.734   1.866   5.555
12520TIP3    H237504   5.644   1.981   5.515
12521TIP3   OH237505   1.586   4.156   5.113
12521TIP3    H137506   1.658   4.098   5.138
12521TIP3    H237507   1.535   4.166   5.193
12522TIP3   OH237508   0.216   7.106   0.570
12522TIP3    H137509   0.231   7.165   0.496
12522TIP3    H237510   0.291   7.121   0.628
12523TIP3   OH237511   5.516   5.384   6.076
12523TIP3    H137512   5.451   5.448   6.105
12523TIP3    H237513   5.468   5.302   6.071
12524TIP3   OH237514   7.201   4.793   4.315
12524TIP3    H137515   7.179   4.770   4.225
12524TIP3    H237516   7.279   4.849   4.307
12525TIP3   OH237517   5.701   5.520   3.781
12525TIP3    H137518   5.622   5.504   3.729
12525TIP3    H237519   5.748   5.589   3.733
12526TIP3   OH237520   3.930   7.596   6.655
12526TIP3    H137521   3.974   7.516   6.683
12526TIP3    H237522   3.887   7.573   6.572
12527TIP3   OH237523   6.111   2.218   2.968
12527TIP3    H137524   6.202   2.242   2.981
12527TIP3    H237525   6.113   2.123   2.953
12528TIP3   OH237526   4.719   7.290   0.908
12528TIP3    H137527   4.796   7.239   0.882
12528TIP3    H237528   4.755   7.368   0.951
12529TIP3   OH237529   4.159   6.627   3.365
12529TIP3    H137530   4.158   6.673   3.281
12529TIP3    H237531   4.128   6.539   3.344
12530TIP3   OH237532   2.603   4.962   6.313
12530TIP3    H137533   2.679   4.999   6.358
12530TIP3    H237534   2.533   5.025   6.329
12531TIP3   OH237535   1.915   4.275   2.580
12531TIP3    H137536   1.965   4.349   2.546
12531TIP3    H237537   1.824   4.295   2.557
12532TIP3   OH237538   0.475   1.925   4.999
12532TIP3    H137539   0.464   2.010   4.954
12532TIP3    H237540   0.552   1.886   4.958
12533TIP3   OH237541   2.428   2.621   4.401
12533TIP3    H137542   2.493   2.683   4.433
12533TIP3    H237543   2.351   2.675   4.382
12534TIP3   OH237544   8.233   7.156   1.738
12534TIP3    H137545   8.301   7.097   1.768
12534TIP3    H237546   8.280   7.225   1.692
12535TIP3   OH237547   2.409   2.394   3.304
12535TIP3    H137548   2.410   2.335   3.379
12535TIP3    H237549   2.424   2.336   3.228
12536TIP3   OH237550   1.823   5.941   3.680
12536TIP3    H137551   1.862   6.008   3.623
12536TIP3    H237552   1.888   5.927   3.748
12537TIP3   OH237553   4.848   3.755   4.863
12537TIP3    H137554   4.939   3.729   4.847
12537TIP3    H237555   4.855   3.831   4.921
12538TIP3   OH237556   6.604   7.018   3.415
12538TIP3    H137557   6.531   7.005   3.476
12538TIP3    H237558   6.656   6.938   3.423
12539TIP3   OH237559   4.164   5.254   2.991
12539TIP3    H137560   4.203   5.244   3.078
12539TIP3    H237561   4.103   5.180   2.984
12540TIP3   OH237562   5.550   1.132   4.729
12540TIP3    H137563   5.552   1.139   4.824
12540TIP3    H237564   5.509   1.047   4.712
12541TIP3   OH237565   2.802   3.703   2.483
12541TIP3    H137566   2.864   3.640   2.519
12541TIP3    H237567   2.827   3.786   2.523
12542TIP3   OH237568   3.219   0.610   4.706
12542TIP3    H137569   3.284   0.567   4.761
12542TIP3    H237570   3.241   0.584   4.617
12543TIP3   OH237571   3.270   6.994   4.786
12543TIP3    H137572   3.292   6.920   4.842
12543TIP3    H237573   3.241   7.063   4.846
12544TIP3   OH237574   4.885   1.089   1.696
12544TIP3    H137575   4.940   1.044   1.761
12544TIP3    H237576   4.883   1.180   1.726
12545TIP3   OH237577   1.079   7.287   2.598
12545TIP3    H137578   1.173   7.270   2.603
12545TIP3    H237579   1.053   7.251   2.513
12546TIP3   OH237580   7.257   0.654   6.213
12546TIP3    H137581   7.188   0.645   6.279
12546TIP3    H237582   7.334   0.681   6.263
12547TIP3   OH237583   2.365   6.344   4.817
12547TIP3    H137584   2.408   6.301   4.743
12547TIP3    H237585   2.382   6.287   4.892
12548TIP3   OH237586   0.250   7.574   6.736
12548TIP3    H137587   0.256   7.653   6.684
12548TIP3    H237588   0.285   7.505   6.680
12549TIP3   OH237589   1.926   3.704   3.147
12549TIP3    H137590   1.900   3.686   3.056
12549TIP3    H237591   1.861   3.657   3.200
12550TIP3   OH237592   3.208   0.049   4.344
12550TIP3    H137593   3.296   0.086   4.335
12550TIP3    H237594   3.222  -0.043   4.364
12551TIP3   OH237595   3.763   0.815   2.238
12551TIP3    H137596   3.739   0.726   2.208
12551TIP3    H237597   3.857   0.820   2.223
12552TIP3   OH237598   5.129   7.403   2.373
12552TIP3    H137599   5.065   7.439   2.312
12552TIP3    H237600   5.107   7.310   2.380
12553TIP3   OH237601   4.609   5.400   6.303
12553TIP3    H137602   4.592   5.354   6.386
12553TIP3    H237603   4.538   5.464   6.297
12554TIP3   OH237604   6.785   0.655   5.131
12554TIP3    H137605   6.708   0.615   5.091
12554TIP3    H237606   6.854   0.647   5.064
12555TIP3   OH237607   4.690   1.726   5.951
12555TIP3    H137608   4.598   1.747   5.968
12555TIP3    H237609   4.693   1.630   5.950
12556TIP3   OH237610   5.138   7.453   1.471
12556TIP3    H137611   5.070   7.465   1.405
12556TIP3    H237612   5.197   7.387   1.434
12557TIP3   OH237613   2.653   2.245   1.341
12557TIP3    H137614   2.668   2.331   1.380
12557TIP3    H237615   2.696   2.250   1.255
12558TIP3   OH237616   3.250   4.822   3.324
12558TIP3    H137617   3.223   4.795   3.237
12558TIP3    H237618   3.243   4.742   3.377
12559TIP3   OH237619   3.028   2.625   1.883
12559TIP3    H137620   2.996   2.713   1.897
12559TIP3    H237621   3.032   2.616   1.787
12560TIP3   OH237622   0.162   6.010   3.112
12560TIP3    H137623   0.215   5.991   3.035
12560TIP3    H237624   0.080   5.962   3.097
12561TIP3   OH237625   0.273   0.717   2.309
12561TIP3    H137626   0.247   0.657   2.378
12561TIP3    H237627   0.335   0.777   2.352
12562TIP3   OH237628   7.133   2.578   3.027
12562TIP3    H137629   7.149   2.663   2.987
12562TIP3    H237630   7.044   2.555   3.001
12563TIP3   OH237631   1.936   5.725   2.587
12563TIP3    H137632   1.888   5.646   2.611
12563TIP3    H237633   1.880   5.768   2.522
12564TIP3   OH237634   3.815   5.489   1.703
12564TIP3    H137635   3.902   5.471   1.669
12564TIP3    H237636   3.764   5.514   1.625
12565TIP3   OH237637   6.701   1.105   3.664
12565TIP3    H137638   6.762   1.148   3.723
12565TIP3    H237639   6.623   1.162   3.664
12566TIP3   OH237640   4.060   5.990   5.300
12566TIP3    H137641   3.992   5.964   5.362
12566TIP3    H237642   4.046   6.084   5.287
12567TIP3   OH237643   0.181   4.946   3.709
12567TIP3    H137644   0.103   4.979   3.755
12567TIP3    H237645   0.150   4.868   3.664
12568TIP3   OH237646   2.845   3.178   5.620
12568TIP3    H137647   2.805   3.215   5.699
12568TIP3    H237648   2.773   3.135   5.575
12569TIP3   OH237649   4.931   6.640   4.401
12569TIP3    H137650   4.914   6.706   4.333
12569TIP3    H237651   4.865   6.573   4.386
12570TIP3   OH237652   1.003   0.494   0.892
12570TIP3    H137653   1.094   0.469   0.878
12570TIP3    H237654   0.952   0.422   0.856
12571TIP3   OH237655   6.423   2.724   3.090
12571TIP3    H137656   6.400   2.720   2.998
12571TIP3    H237657   6.459   2.638   3.110
12572TIP3   OH237658   3.501   4.702   3.430
12572TIP3    H137659   3.517   4.772   3.367
12572TIP3    H237660   3.554   4.629   3.399
12573TIP3   OH237661   1.233   3.820   2.002
12573TIP3    H137662   1.288   3.791   1.929
12573TIP3    H237663   1.249   3.914   2.009
12574TIP3   OH237664   3.688   5.657   5.163
12574TIP3    H137665   3.670   5.745   5.131
12574TIP3    H237666   3.710   5.606   5.085
12575TIP3   OH237667   3.423   0.462   4.837
12575TIP3    H137668   3.511   0.426   4.852
12575TIP3    H237669   3.364   0.394   4.868
12576TIP3   OH237670   7.824   2.743   1.777
12576TIP3    H137671   7.740   2.699   1.791
12576TIP3    H237672   7.882   2.674   1.745
12577TIP3   OH237673   2.875   1.665   1.927
12577TIP3    H137674   2.946   1.685   1.866
12577TIP3    H237675   2.880   1.570   1.940
12578TIP3   OH237676   3.728   7.780   5.547
12578TIP3    H137677   3.769   7.767   5.633
12578TIP3    H237678   3.788   7.740   5.485
12579TIP3   OH237679   3.748   3.727   4.768
12579TIP3    H137680   3.771   3.637   4.789
12579TIP3    H237681   3.683   3.752   4.834
12580TIP3   OH237682   2.627   2.828   4.824
12580TIP3    H137683   2.624   2.805   4.732
12580TIP3    H237684   2.603   2.747   4.870
12581TIP3   OH237685   3.403   3.540   2.802
12581TIP3    H137686   3.331   3.509   2.746
12581TIP3    H237687   3.361   3.557   2.887
12582TIP3   OH237688   6.525   4.059   5.918
12582TIP3    H137689   6.523   4.151   5.945
12582TIP3    H237690   6.588   4.019   5.979
12583TIP3   OH237691   0.464   6.325   5.979
12583TIP3    H137692   0.440   6.232   5.983
12583TIP3    H237693   0.526   6.330   5.907
12584TIP3   OH237694   4.206   2.344   1.113
12584TIP3    H137695   4.134   2.282   1.125
12584TIP3    H237696   4.277   2.308   1.167
12585TIP3   OH237697   2.828   1.547   5.301
12585TIP3    H137698   2.885   1.611   5.342
12585TIP3    H237699   2.797   1.590   5.221
12586TIP3   OH237700   4.015   2.147   6.496
12586TIP3    H137701   4.059   2.231   6.484
12586TIP3    H237702   4.031   2.125   6.588
12587TIP3   OH237703   6.132   5.822   3.352
12587TIP3    H137704   6.080   5.833   3.432
12587TIP3    H237705   6.110   5.733   3.322
12588TIP3   OH237706   4.018   7.617   5.636
12588TIP3    H137707   3.972   7.663   5.706
12588TIP3    H237708   4.012   7.525   5.660
12589TIP3   OH237709   0.029   0.495   1.439
12589TIP3    H137710   0.084   0.561   1.480
12589TIP3    H237711   0.024   0.521   1.347
12590TIP3   OH237712   6.980   5.443   6.373
12590TIP3    H137713   6.974   5.400   6.288
12590TIP3    H237714   6.903   5.500   6.377
12591TIP3   OH237715   5.284   7.120   2.441
12591TIP3    H137716   5.349   7.191   2.442
12591TIP3    H237717   5.330   7.046   2.480
12592TIP3   OH237718   7.848   4.555   5.728
12592TIP3    H137719   7.801   4.512   5.656
12592TIP3    H237720   7.876   4.639   5.692
12593TIP3   OH237721   6.280   3.964   3.644
12593TIP3    H137722   6.217   3.916   3.591
12593TIP3    H237723   6.364   3.952   3.600
12594TIP3   OH237724   1.112   4.533   1.232
12594TIP3    H137725   1.099   4.493   1.318
12594TIP3    H237726   1.146   4.463   1.177
12595TIP3   OH237727   6.417   4.471   0.753
12595TIP3    H137728   6.362   4.485   0.830
12595TIP3    H237729   6.360   4.493   0.679
12596TIP3   OH237730   7.753   6.933   2.930
12596TIP3    H137731   7.788   7.003   2.985
12596TIP3    H237732   7.795   6.853   2.962
12597TIP3   OH237733   5.361   5.990   0.253
12597TIP3    H137734   5.371   6.085   0.244
12597TIP3    H237735   5.438   5.963   0.304
12598TIP3   OH237736   0.271   1.074   6.412
12598TIP3    H137737   0.189   1.078   6.363
12598TIP3    H237738   0.339   1.079   6.345
12599TIP3   OH237739   0.190   7.597   3.932
12599TIP3    H137740   0.215   7.686   3.907
12599TIP3    H237741   0.273   7.548   3.929
12600TIP3   OH237742   8.094   6.523   3.785
12600TIP3    H137743   8.174   6.548   3.739
12600TIP3    H237744   8.055   6.607   3.812
12601TIP3   OH237745   7.861   1.850   6.433
12601TIP3    H137746   7.902   1.764   6.432
12601TIP3    H237747   7.770   1.833   6.409
12602TIP3   OH237748   5.210   6.311   1.221
12602TIP3    H137749   5.140   6.346   1.277
12602TIP3    H237750   5.185   6.220   1.205
12603TIP3   OH237751   0.481   3.396   3.993
12603TIP3    H137752   0.458   3.453   4.067
12603TIP3    H237753   0.493   3.456   3.919
12604TIP3   OH237754   7.632   2.190   1.719
12604TIP3    H137755   7.685   2.111   1.723
12604TIP3    H237756   7.617   2.214   1.810
12605TIP3   OH237757   3.481   4.048   2.375
12605TIP3    H137758   3.456   3.961   2.405
12605TIP3    H237759   3.430   4.108   2.430
12606TIP3   OH237760   6.182   4.768   2.177
12606TIP3    H137761   6.208   4.693   2.123
12606TIP3    H237762   6.087   4.759   2.186
12607TIP3   OH237763   6.513   6.941   2.067
12607TIP3    H137764   6.535   6.882   2.139
12607TIP3    H237765   6.583   6.928   2.002
12608TIP3   OH237766   5.601   4.394   1.396
12608TIP3    H137767   5.582   4.417   1.487
12608TIP3    H237768   5.528   4.339   1.369
12609TIP3   OH237769   6.235   1.805   3.100
12609TIP3    H137770   6.216   1.849   3.017
12609TIP3    H237771   6.150   1.770   3.129
12610TIP3   OH237772   5.818   2.045   5.983
12610TIP3    H137773   5.821   2.061   6.077
12610TIP3    H237774   5.797   2.130   5.945
12611TIP3   OH237775   3.741   5.369   3.660
12611TIP3    H137776   3.666   5.377   3.602
12611TIP3    H237777   3.722   5.427   3.733
12612TIP3   OH237778   2.710   2.156   6.570
12612TIP3    H137779   2.767   2.187   6.500
12612TIP3    H237780   2.621   2.171   6.538
12613TIP3   OH237781   5.467   5.629   2.268
12613TIP3    H137782   5.516   5.569   2.323
12613TIP3    H237783   5.416   5.682   2.329
12614TIP3   OH237784   5.398   1.510   1.248
12614TIP3    H137785   5.365   1.451   1.180
12614TIP3    H237786   5.429   1.586   1.200
12615TIP3   OH237787   4.490   6.438   6.406
12615TIP3    H137788   4.547   6.504   6.367
12615TIP3    H237789   4.533   6.413   6.487
12616TIP3   OH237790   4.788   4.565   6.106
12616TIP3    H137791   4.868   4.513   6.117
12616TIP3    H237792   4.786   4.585   6.013
12617TIP3   OH237793   2.509   1.427   4.791
12617TIP3    H137794   2.578   1.493   4.788
12617TIP3    H237795   2.460   1.440   4.709
12618TIP3   OH237796   4.209   4.285   2.232
12618TIP3    H137797   4.238   4.208   2.281
12618TIP3    H237798   4.279   4.303   2.170
12619TIP3   OH237799   5.792   3.851   2.563
12619TIP3    H137800   5.712   3.871   2.515
12619TIP3    H237801   5.814   3.762   2.536
12620TIP3   OH237802   4.883   6.992   2.209
12620TIP3    H137803   4.876   6.969   2.117
12620TIP3    H237804   4.816   6.938   2.252
12621TIP3   OH237805   6.433   3.192   4.828
12621TIP3    H137806   6.363   3.225   4.772
12621TIP3    H237807   6.462   3.268   4.878
12622TIP3   OH237808   1.550   4.192   5.993
12622TIP3    H137809   1.515   4.275   5.962
12622TIP3    H237810   1.482   4.157   6.050
12623TIP3   OH237811   0.623   5.580   6.572
12623TIP3    H137812   0.549   5.576   6.633
12623TIP3    H237813   0.639   5.673   6.560
12624TIP3   OH237814   2.775   5.951   2.374
12624TIP3    H137815   2.737   5.995   2.297
12624TIP3    H237816   2.851   6.006   2.397
12625TIP3   OH237817   3.678   3.892   4.099
12625TIP3    H137818   3.589   3.875   4.068
12625TIP3    H237819   3.684   3.842   4.181
12626TIP3   OH237820   3.405   2.179   0.479
12626TIP3    H137821   3.428   2.092   0.447
12626TIP3    H237822   3.313   2.191   0.453
12627TIP3   OH237823   2.221   2.788   4.614
12627TIP3    H137824   2.258   2.780   4.702
12627TIP3    H237825   2.152   2.722   4.611
12628TIP3   OH237826   6.101   4.629   2.606
12628TIP3    H137827   6.119   4.535   2.613
12628TIP3    H237828   6.013   4.635   2.571
12629TIP3   OH237829   6.301   5.326   4.519
12629TIP3    H137830   6.371   5.263   4.502
12629TIP3    H237831   6.313   5.350   4.611
12630TIP3   OH237832   0.739   1.627   0.510
12630TIP3    H137833   0.786   1.698   0.466
12630TIP3    H237834   0.741   1.555   0.447
12631TIP3   OH237835   0.529   3.393   1.923
12631TIP3    H137836   0.506   3.484   1.910
12631TIP3    H237837   0.553   3.386   2.015
12632TIP3   OH237838   7.360   7.767   0.561
12632TIP3    H137839   7.359   7.767   0.657
12632TIP3    H237840   7.318   7.684   0.537
12633TIP3   OH237841   7.569   2.691   6.233
12633TIP3    H137842   7.487   2.643   6.235
12633TIP3    H237843   7.635   2.628   6.261
12634TIP3   OH237844   2.537   2.319   5.254
12634TIP3    H137845   2.443   2.329   5.241
12634TIP3    H237846   2.546   2.291   5.345
12635TIP3   OH237847   4.608   5.980   4.390
12635TIP3    H137848   4.610   5.905   4.450
12635TIP3    H237849   4.664   5.953   4.317
12636TIP3   OH237850   0.827   5.454   0.949
12636TIP3    H137851   0.889   5.471   1.019
12636TIP3    H237852   0.839   5.525   0.887
12637TIP3   OH237853   7.587   1.306   2.090
12637TIP3    H137854   7.502   1.311   2.135
12637TIP3    H237855   7.572   1.246   2.017
12638TIP3   OH237856   3.697   6.799   1.586
12638TIP3    H137857   3.749   6.731   1.629
12638TIP3    H237858   3.747   6.820   1.507
12639TIP3   OH237859   0.364   5.248   2.719
12639TIP3    H137860   0.454   5.241   2.687
12639TIP3    H237861   0.353   5.341   2.736
12640TIP3   OH237862   5.488   0.859   4.758
12640TIP3    H137863   5.435   0.782   4.777
12640TIP3    H237864   5.563   0.851   4.817
12641TIP3   OH237865   0.240   0.438   1.909
12641TIP3    H137866   0.158   0.478   1.881
12641TIP3    H237867   0.265   0.488   1.988
12642TIP3   OH237868   8.084   5.882   4.456
12642TIP3    H137869   8.081   5.799   4.504
12642TIP3    H237870   8.031   5.942   4.508
12643TIP3   OH237871   2.479   3.544   1.220
12643TIP3    H137872   2.507   3.581   1.136
12643TIP3    H237873   2.410   3.603   1.250
12644TIP3   OH237874   4.920   6.577   4.752
12644TIP3    H137875   4.860   6.537   4.689
12644TIP3    H237876   4.999   6.524   4.747
12645TIP3   OH237877   6.633   4.024   6.214
12645TIP3    H137878   6.661   4.115   6.199
12645TIP3    H237879   6.652   4.009   6.307
12646TIP3   OH237880   4.886   5.152   6.309
12646TIP3    H137881   4.857   5.078   6.256
12646TIP3    H237882   4.879   5.227   6.249
12647TIP3   OH237883   4.723   5.143   5.767
12647TIP3    H137884   4.645   5.157   5.821
12647TIP3    H237885   4.705   5.194   5.687
12648TIP3   OH237886   7.156   6.724   5.754
12648TIP3    H137887   7.169   6.630   5.769
12648TIP3    H237888   7.205   6.742   5.674
12649TIP3   OH237889   7.918   2.947   3.163
12649TIP3    H137890   7.924   2.851   3.163
12649TIP3    H237891   7.904   2.970   3.255
12650TIP3   OH237892   2.652   1.323   1.807
12650TIP3    H137893   2.733   1.277   1.830
12650TIP3    H237894   2.678   1.386   1.741
12651TIP3   OH237895   3.941   7.242   3.624
12651TIP3    H137896   3.847   7.240   3.639
12651TIP3    H237897   3.973   7.158   3.657
12652TIP3   OH237898   4.367   0.537   3.595
12652TIP3    H137899   4.321   0.492   3.524
12652TIP3    H237900   4.451   0.491   3.601
12653TIP3   OH237901   7.098   6.401   3.653
12653TIP3    H137902   7.185   6.367   3.633
12653TIP3    H237903   7.111   6.495   3.663
12654TIP3   OH237904   3.962   4.976   1.291
12654TIP3    H137905   3.975   5.025   1.373
12654TIP3    H237906   3.952   4.885   1.319
12655TIP3   OH237907   7.803   4.271   5.377
12655TIP3    H137908   7.820   4.307   5.290
12655TIP3    H237909   7.864   4.197   5.385
12656TIP3   OH237910   6.443   5.041   4.034
12656TIP3    H137911   6.377   5.022   3.967
12656TIP3    H237912   6.393   5.053   4.114
12657TIP3   OH237913   0.269   1.107   0.724
12657TIP3    H137914   0.226   1.189   0.749
12657TIP3    H237915   0.259   1.050   0.800
12658TIP3   OH237916   7.692   6.047   2.861
12658TIP3    H137917   7.766   6.020   2.916
12658TIP3    H237918   7.623   6.071   2.924
12659TIP3   OH237919   0.028   1.123   0.491
12659TIP3    H137920   0.095   1.168   0.440
12659TIP3    H237921   0.076   1.081   0.562
12660TIP3   OH237922   4.111   1.422   5.651
12660TIP3    H137923   4.092   1.499   5.596
12660TIP3    H237924   4.065   1.350   5.608
12661TIP3   OH237925   0.514   3.151   2.747
12661TIP3    H137926   0.524   3.066   2.705
12661TIP3    H237927   0.603   3.176   2.773
12662TIP3   OH237928   4.842   0.095   1.222
12662TIP3    H137929   4.879   0.108   1.135
12662TIP3    H237930   4.859   0.177   1.268
12663TIP3   OH237931   2.623   5.710   4.535
12663TIP3    H137932   2.624   5.787   4.592
12663TIP3    H237933   2.714   5.680   4.533
12664TIP3   OH237934   7.493   3.446   2.768
12664TIP3    H137935   7.578   3.422   2.731
12664TIP3    H237936   7.429   3.408   2.708
12665TIP3   OH237937   3.271   3.704   5.128
12665TIP3    H137938   3.323   3.777   5.162
12665TIP3    H237939   3.332   3.630   5.127
12666TIP3   OH237940   3.714   6.224   4.726
12666TIP3    H137941   3.665   6.206   4.807
12666TIP3    H237942   3.666   6.177   4.658
12667TIP3   OH237943   4.736   4.331   3.648
12667TIP3    H137944   4.647   4.346   3.682
12667TIP3    H237945   4.740   4.237   3.632
12668TIP3   OH237946   5.371   4.470   5.635
12668TIP3    H137947   5.454   4.501   5.673
12668TIP3    H237948   5.378   4.490   5.542
12669TIP3   OH237949   6.136   6.060   2.781
12669TIP3    H137950   6.210   6.001   2.791
12669TIP3    H237951   6.059   6.005   2.798
12670TIP3   OH237952   7.736   0.832   1.143
12670TIP3    H137953   7.819   0.820   1.188
12670TIP3    H237954   7.760   0.851   1.052
12671TIP3   OH237955   4.157   4.446   0.869
12671TIP3    H137956   4.180   4.534   0.841
12671TIP3    H237957   4.212   4.388   0.815
12672TIP3   OH237958   1.374   1.684   1.744
12672TIP3    H137959   1.409   1.734   1.670
12672TIP3    H237960   1.385   1.742   1.820
12673TIP3   OH237961   0.355   7.645   4.715
12673TIP3    H137962   0.433   7.649   4.660
12673TIP3    H237963   0.325   7.736   4.720
12674TIP3   OH237964   4.950   4.938   3.203
12674TIP3    H137965   4.996   4.975   3.128
12674TIP3    H237966   4.988   4.851   3.215
12675TIP3   OH237967   3.609   0.905   5.999
12675TIP3    H137968   3.544   0.975   5.995
12675TIP3    H237969   3.559   0.827   6.021
12676TIP3   OH237970   6.974   3.998   4.937
12676TIP3    H137971   6.905   3.969   4.878
12676TIP3    H237972   7.019   4.067   4.888
12677TIP3   OH237973   4.709   7.465   4.030
12677TIP3    H137974   4.721   7.495   4.120
12677TIP3    H237975   4.694   7.371   4.038
12678TIP3   OH237976   5.897   6.995   2.267
12678TIP3    H137977   5.951   6.973   2.342
12678TIP3    H237978   5.936   6.946   2.194
12679TIP3   OH237979   1.660   7.283   4.949
12679TIP3    H137980   1.572   7.278   4.912
12679TIP3    H237981   1.672   7.377   4.968
12680TIP3   OH237982   7.045   2.632   1.198
12680TIP3    H137983   7.086   2.695   1.256
12680TIP3    H237984   7.071   2.547   1.232
12681TIP3   OH237985   4.844   2.644   1.562
12681TIP3    H137986   4.927   2.615   1.523
12681TIP3    H237987   4.799   2.563   1.584
12682TIP3   OH237988   6.248   4.615   4.010
12682TIP3    H137989   6.308   4.544   4.034
12682TIP3    H237990   6.161   4.577   4.018
12683TIP3   OH237991   5.321   6.387   5.995
12683TIP3    H137992   5.396   6.341   6.032
12683TIP3    H237993   5.334   6.384   5.900
12684TIP3   OH237994   3.282   5.754   0.135
12684TIP3    H137995   3.368   5.787   0.162
12684TIP3    H237996   3.280   5.664   0.168
12685TIP3   OH237997   5.894   7.635   0.447
12685TIP3    H137998   5.807   7.671   0.430
12685TIP3    H237999   5.915   7.585   0.368
12686TIP3   OH238000   6.738   2.770   6.676
12686TIP3    H138001   6.822   2.800   6.709
12686TIP3    H238002   6.686   2.850   6.667
12687TIP3   OH238003   7.783   1.510   1.209
12687TIP3    H138004   7.807   1.444   1.145
12687TIP3    H238005   7.693   1.487   1.235
12688TIP3   OH238006   5.745   6.984   3.881
12688TIP3    H138007   5.791   7.049   3.827
12688TIP3    H238008   5.802   6.972   3.957
12689TIP3   OH238009   4.354   2.206   3.855
12689TIP3    H138010   4.310   2.155   3.923
12689TIP3    H238011   4.447   2.201   3.877
12690TIP3   OH238012   5.052   5.492   6.179
12690TIP3    H138013   5.063   5.535   6.263
12690TIP3    H238014   4.964   5.454   6.182
12691TIP3   OH238015   5.875   0.663   2.813
12691TIP3    H138016   5.886   0.718   2.736
12691TIP3    H238017   5.922   0.582   2.792
12692TIP3   OH238018   6.148   1.292   5.639
12692TIP3    H138019   6.056   1.284   5.664
12692TIP3    H238020   6.196   1.276   5.720
12693TIP3   OH238021   6.414   0.485   3.241
12693TIP3    H138022   6.381   0.413   3.293
12693TIP3    H238023   6.501   0.456   3.212
12694TIP3   OH238024   6.137   6.717   0.587
12694TIP3    H138025   6.223   6.739   0.552
12694TIP3    H238026   6.154   6.642   0.644
12695TIP3   OH238027   1.316   6.451   3.878
12695TIP3    H138028   1.238   6.495   3.844
12695TIP3    H238029   1.281   6.380   3.933
12696TIP3   OH238030   8.252   2.610   2.011
12696TIP3    H138031   8.344   2.599   2.037
12696TIP3    H238032   8.237   2.704   2.019
12697TIP3   OH238033   6.931   6.777   1.743
12697TIP3    H138034   6.952   6.717   1.671
12697TIP3    H238035   6.879   6.845   1.702
12698TIP3   OH238036   3.745   1.726   5.920
12698TIP3    H138037   3.837   1.750   5.917
12698TIP3    H238038   3.700   1.805   5.948
12699TIP3   OH238039   2.871   2.226   1.830
12699TIP3    H138040   2.952   2.255   1.789
12699TIP3    H238041   2.888   2.136   1.856
12700TIP3   OH238042   1.050   6.751   5.936
12700TIP3    H138043   1.099   6.810   5.993
12700TIP3    H238044   1.039   6.671   5.987
12701TIP3   OH238045   6.624   6.903   0.082
12701TIP3    H138046   6.639   6.890   0.176
12701TIP3    H238047   6.615   6.815   0.047
12702TIP3   OH238048   7.592   2.279   3.918
12702TIP3    H138049   7.566   2.274   4.010
12702TIP3    H238050   7.511   2.268   3.869
12703TIP3   OH238051   1.004   4.525   2.455
12703TIP3    H138052   1.012   4.602   2.512
12703TIP3    H238053   0.933   4.473   2.494
12704TIP3   OH238054   2.087   5.055   2.332
12704TIP3    H138055   2.011   5.083   2.383
12704TIP3    H238056   2.050   5.017   2.253
12705TIP3   OH238057   7.699   6.064   1.819
12705TIP3    H138058   7.641   6.138   1.802
12705TIP3    H238059   7.641   5.994   1.848
12706TIP3   OH238060   5.804   5.319   6.631
12706TIP3    H138061   5.838   5.402   6.664
12706TIP3    H238062   5.758   5.280   6.706
12707TIP3   OH238063   4.441   3.004   3.838
12707TIP3    H138064   4.381   2.936   3.807
12707TIP3    H238065   4.385   3.063   3.890
12708TIP3   OH238066   7.560   1.087   4.909
12708TIP3    H138067   7.640   1.085   4.962
12708TIP3    H238068   7.566   1.169   4.860
12709TIP3   OH238069   5.663   3.149   2.633
12709TIP3    H138070   5.645   3.215   2.567
12709TIP3    H238071   5.652   3.195   2.716
12710TIP3   OH238072   1.916   0.376   2.587
12710TIP3    H138073   1.992   0.410   2.634
12710TIP3    H238074   1.935   0.393   2.495
12711TIP3   OH238075   1.776   4.030   2.451
12711TIP3    H138076   1.725   4.110   2.438
12711TIP3    H238077   1.724   3.979   2.514
12712TIP3   OH238078   5.745   5.968   1.639
12712TIP3    H138079   5.750   6.058   1.605
12712TIP3    H238080   5.796   5.970   1.720
12713TIP3   OH238081   3.729   6.538   0.451
12713TIP3    H138082   3.699   6.601   0.385
12713TIP3    H238083   3.716   6.584   0.535
12714TIP3   OH238084   2.206   3.090   1.502
12714TIP3    H138085   2.174   3.150   1.434
12714TIP3    H238086   2.165   3.006   1.480
12715TIP3   OH238087   8.223   6.476   0.073
12715TIP3    H138088   8.184   6.539   0.134
12715TIP3    H238089   8.179   6.393   0.093
12716TIP3   OH238090   4.385   3.329   0.068
12716TIP3    H138091   4.344   3.271   0.003
12716TIP3    H238092   4.436   3.270   0.124
12717TIP3   OH238093   6.695   0.899   2.708
12717TIP3    H138094   6.753   0.843   2.656
12717TIP3    H238095   6.656   0.959   2.645
12718TIP3   OH238096   4.771   4.915   2.464
12718TIP3    H138097   4.738   5.002   2.487
12718TIP3    H238098   4.705   4.855   2.498
12719TIP3   OH238099   5.874   2.526   5.699
12719TIP3    H138100   5.792   2.568   5.723
12719TIP3    H238101   5.935   2.598   5.685
12720TIP3   OH238102   6.794   3.114   0.536
12720TIP3    H138103   6.774   3.144   0.447
12720TIP3    H238104   6.709   3.092   0.573
12721TIP3   OH238105   5.204   2.548   3.541
12721TIP3    H138106   5.204   2.621   3.479
12721TIP3    H238107   5.266   2.485   3.504
12722TIP3   OH238108   8.090   3.606   0.857
12722TIP3    H138109   8.140   3.547   0.913
12722TIP3    H238110   8.013   3.631   0.909
12723TIP3   OH238111   4.339   2.371   4.381
12723TIP3    H138112   4.319   2.281   4.356
12723TIP3    H238113   4.367   2.413   4.300
12724TIP3   OH238114   3.678   2.544   4.586
12724TIP3    H138115   3.674   2.632   4.548
12724TIP3    H238116   3.732   2.494   4.525
12725TIP3   OH238117   1.004   1.000   2.879
12725TIP3    H138118   0.935   0.959   2.932
12725TIP3    H238119   0.960   1.073   2.836
12726TIP3   OH238120   5.930   3.969   4.453
12726TIP3    H138121   5.876   3.903   4.496
12726TIP3    H238122   5.953   4.031   4.522
12727TIP3   OH238123   2.264   6.090   4.742
12727TIP3    H138124   2.178   6.129   4.758
12727TIP3    H238125   2.314   6.107   4.822
12728TIP3   OH238126   5.458   6.014   2.838
12728TIP3    H138127   5.422   5.944   2.892
12728TIP3    H238128   5.502   5.968   2.767
12729TIP3   OH238129   7.593   5.033   2.824
12729TIP3    H138130   7.633   5.119   2.834
12729TIP3    H238131   7.593   5.017   2.729
12730TIP3   OH238132   6.504   2.681   2.296
12730TIP3    H138133   6.432   2.687   2.358
12730TIP3    H238134   6.488   2.751   2.233
12731TIP3   OH238135   7.158   3.121   4.434
12731TIP3    H138136   7.179   3.202   4.480
12731TIP3    H238137   7.091   3.147   4.370
12732TIP3   OH238138   4.807   7.698   6.565
12732TIP3    H138139   4.754   7.711   6.486
12732TIP3    H238140   4.885   7.651   6.534
12733TIP3   OH238141   6.848   1.889   5.759
12733TIP3    H138142   6.937   1.866   5.730
12733TIP3    H238143   6.856   1.897   5.854
12734TIP3   OH238144   1.782   2.513   3.114
12734TIP3    H138145   1.772   2.427   3.073
12734TIP3    H238146   1.706   2.522   3.171
12735TIP3   OH238147   4.748   2.241   0.460
12735TIP3    H138148   4.785   2.154   0.445
12735TIP3    H238149   4.688   2.229   0.535
12736TIP3   OH238150   2.164   1.123   6.705
12736TIP3    H138151   2.256   1.147   6.698
12736TIP3    H238152   2.147   1.070   6.627
12737TIP3   OH238153   6.776   1.598   1.962
12737TIP3    H138154   6.712   1.669   1.963
12737TIP3    H238155   6.747   1.537   2.030
12738TIP3   OH238156   1.402   4.929   1.698
12738TIP3    H138157   1.419   4.961   1.787
12738TIP3    H238158   1.307   4.917   1.695
12739TIP3   OH238159   6.637   4.402   2.476
12739TIP3    H138160   6.552   4.386   2.435
12739TIP3    H238161   6.634   4.353   2.558
12740TIP3   OH238162   0.186   1.941   0.452
12740TIP3    H138163   0.130   1.976   0.521
12740TIP3    H238164   0.205   1.851   0.479
12741TIP3   OH238165   3.442   7.281   2.309
12741TIP3    H138166   3.531   7.249   2.294
12741TIP3    H238167   3.453   7.374   2.330
12742TIP3   OH238168   4.398   7.546   5.181
12742TIP3    H138169   4.317   7.594   5.163
12742TIP3    H238170   4.403   7.543   5.277
12743TIP3   OH238171   2.810   4.167   3.785
12743TIP3    H138172   2.788   4.119   3.706
12743TIP3    H238173   2.725   4.186   3.826
12744TIP3   OH238174   1.732   4.479   6.032
12744TIP3    H138175   1.743   4.404   5.974
12744TIP3    H238176   1.807   4.535   6.012
12745TIP3   OH238177   5.105   7.745   6.189
12745TIP3    H138178   5.172   7.678   6.200
12745TIP3    H238179   5.151   7.828   6.201
12746TIP3   OH238180   2.663   4.503   5.136
12746TIP3    H138181   2.730   4.484   5.071
12746TIP3    H238182   2.600   4.430   5.129
12747TIP3   OH238183   1.378   1.245   5.544
12747TIP3    H138184   1.406   1.174   5.601
12747TIP3    H238185   1.449   1.254   5.480
12748TIP3   OH238186   4.210   5.736   1.867
12748TIP3    H138187   4.180   5.800   1.803
12748TIP3    H238188   4.153   5.749   1.943
12749TIP3   OH238189   7.459   0.323   0.485
12749TIP3    H138190   7.510   0.249   0.516
12749TIP3    H238191   7.516   0.399   0.499
12750TIP3   OH238192   5.351   6.885   2.071
12750TIP3    H138193   5.379   6.955   2.013
12750TIP3    H238194   5.305   6.931   2.142
12751TIP3   OH238195   4.400   7.088  -0.009
12751TIP3    H138196   4.445   7.140   0.057
12751TIP3    H238197   4.463   7.020  -0.034
12752TIP3   OH238198   1.749   4.209   4.733
12752TIP3    H138199   1.701   4.286   4.761
12752TIP3    H238200   1.701   4.135   4.770
12753TIP3   OH238201   2.598   5.058   6.025
12753TIP3    H138202   2.550   4.987   5.983
12753TIP3    H238203   2.609   5.030   6.116
12754TIP3   OH238204   5.808   7.146   0.458
12754TIP3    H138205   5.872   7.100   0.404
12754TIP3    H238206   5.851   7.154   0.544
12755TIP3   OH238207   0.135   1.353   2.058
12755TIP3    H138208   0.150   1.303   2.138
12755TIP3    H238209   0.107   1.439   2.089
12756TIP3   OH238210   8.019   6.521   4.706
12756TIP3    H138211   7.963   6.577   4.759
12756TIP3    H238212   8.073   6.581   4.655
12757TIP3   OH238213   1.194   0.891   5.344
12757TIP3    H138214   1.287   0.907   5.363
12757TIP3    H238215   1.177   0.805   5.382
12758TIP3   OH238216   3.503   4.682   2.176
12758TIP3    H138217   3.467   4.609   2.126
12758TIP3    H238218   3.456   4.680   2.259
12759TIP3   OH238219   1.135   6.343   2.790
12759TIP3    H138220   1.133   6.416   2.728
12759TIP3    H238221   1.153   6.266   2.736
12760TIP3   OH238222   1.618   4.459   2.148
12760TIP3    H138223   1.675   4.499   2.082
12760TIP3    H238224   1.669   4.386   2.183
12761TIP3   OH238225   8.159   7.174   1.200
12761TIP3    H138226   8.194   7.235   1.266
12761TIP3    H238227   8.187   7.211   1.117
12762TIP3   OH238228   1.793   6.823   5.052
12762TIP3    H138229   1.820   6.903   5.007
12762TIP3    H238230   1.781   6.850   5.143
12763TIP3   OH238231   6.353   2.973   4.974
12763TIP3    H138232   6.300   2.914   4.920
12763TIP3    H238233   6.375   3.045   4.916
12764TIP3   OH238234   2.073   1.545   4.629
12764TIP3    H138235   2.026   1.520   4.549
12764TIP3    H238236   2.021   1.507   4.700
12765TIP3   OH238237   7.773   1.573   0.788
12765TIP3    H138238   7.776   1.481   0.813
12765TIP3    H238239   7.681   1.597   0.791
12766TIP3   OH238240   1.950   5.957   1.673
12766TIP3    H138241   2.018   5.891   1.684
12766TIP3    H238242   1.956   5.983   1.581
12767TIP3   OH238243   7.310   7.253   6.053
12767TIP3    H138244   7.337   7.230   5.964
12767TIP3    H238245   7.369   7.203   6.110
12768TIP3   OH238246   1.564   4.829   5.805
12768TIP3    H138247   1.502   4.797   5.870
12768TIP3    H238248   1.518   4.898   5.759
12769TIP3   OH238249   5.616   1.513   3.797
12769TIP3    H138250   5.653   1.600   3.812
12769TIP3    H238251   5.540   1.509   3.856
12770TIP3   OH238252   2.663   7.515   5.078
12770TIP3    H138253   2.745   7.507   5.029
12770TIP3    H238254   2.678   7.588   5.137
12771TIP3   OH238255   1.620   4.000   4.867
12771TIP3    H138256   1.537   4.035   4.835
12771TIP3    H238257   1.597   3.951   4.946
12772TIP3   OH238258   5.813   2.137   5.117
12772TIP3    H138259   5.854   2.111   5.034
12772TIP3    H238260   5.793   2.230   5.106
12773TIP3   OH238261   7.310   0.522   6.610
12773TIP3    H138262   7.381   0.574   6.572
12773TIP3    H238263   7.355   0.454   6.661
12774TIP3   OH238264   5.208   6.171   0.584
12774TIP3    H138265   5.183   6.085   0.551
12774TIP3    H238266   5.227   6.157   0.677
12775TIP3   OH238267   5.473   0.709   5.738
12775TIP3    H138268   5.433   0.727   5.653
12775TIP3    H238269   5.540   0.644   5.719
12776TIP3   OH238270   0.570   6.613   1.997
12776TIP3    H138271   0.561   6.561   2.077
12776TIP3    H238272   0.568   6.704   2.027
12777TIP3   OH238273   3.029   6.068   1.538
12777TIP3    H138274   3.028   6.027   1.624
12777TIP3    H238275   2.951   6.034   1.494
12778TIP3   OH238276   6.891   0.232   3.207
12778TIP3    H138277   6.953   0.282   3.260
12778TIP3    H238278   6.884   0.148   3.251
12779TIP3   OH238279   3.785   7.070   5.302
12779TIP3    H138280   3.839   7.097   5.228
12779TIP3    H238281   3.795   7.141   5.366
12780TIP3   OH238282   5.114   5.843   2.646
12780TIP3    H138283   5.033   5.894   2.653
12780TIP3    H238284   5.086   5.752   2.649
12781TIP3   OH238285   4.578   4.914   5.917
12781TIP3    H138286   4.599   4.861   5.841
12781TIP3    H238287   4.652   4.903   5.976
12782TIP3   OH238288   8.095   7.227   6.579
12782TIP3    H138289   8.180   7.241   6.621
12782TIP3    H238290   8.115   7.214   6.487
12783TIP3   OH238291   3.765   5.268   0.585
12783TIP3    H138292   3.858   5.269   0.607
12783TIP3    H238293   3.763   5.277   0.490
12784TIP3   OH238294   3.972   7.550   4.391
12784TIP3    H138295   3.973   7.642   4.419
12784TIP3    H238296   3.925   7.505   4.461
12785TIP3   OH238297   4.623   6.660   3.666
12785TIP3    H138298   4.529   6.671   3.650
12785TIP3    H238299   4.665   6.707   3.594
12786TIP3   OH238300   0.771   0.466   4.206
12786TIP3    H138301   0.683   0.438   4.180
12786TIP3    H238302   0.760   0.500   4.295
12787TIP3   OH238303   5.764   6.895   1.382
12787TIP3    H138304   5.672   6.879   1.402
12787TIP3    H238305   5.780   6.983   1.416
12788TIP3   OH238306   5.160   6.890   1.279
12788TIP3    H138307   5.154   6.885   1.184
12788TIP3    H238308   5.196   6.977   1.297
12789TIP3   OH238309   2.910   0.207   0.787
12789TIP3    H138310   2.892   0.262   0.710
12789TIP3    H238311   2.964   0.262   0.844
12790TIP3   OH238312   3.489   1.079   3.827
12790TIP3    H138313   3.555   1.088   3.759
12790TIP3    H238314   3.533   1.031   3.897
12791TIP3   OH238315   4.627   6.596   0.808
12791TIP3    H138316   4.594   6.511   0.777
12791TIP3    H238317   4.715   6.577   0.840
12792TIP3   OH238318   1.409   3.705   0.826
12792TIP3    H138319   1.333   3.662   0.865
12792TIP3    H238320   1.404   3.683   0.734
12793TIP3   OH238321   1.524   0.018   4.251
12793TIP3    H138322   1.512   0.041   4.159
12793TIP3    H238323   1.583  -0.057   4.249
12794TIP3   OH238324   3.609   2.695   2.991
12794TIP3    H138325   3.674   2.765   2.985
12794TIP3    H238326   3.525   2.739   2.985
12795TIP3   OH238327   5.550   6.188   5.273
12795TIP3    H138328   5.546   6.093   5.285
12795TIP3    H238329   5.643   6.209   5.285
12796TIP3   OH238330   4.026   4.823   4.581
12796TIP3    H138331   4.111   4.798   4.617
12796TIP3    H238332   3.983   4.740   4.561
12797TIP3   OH238333   7.093   3.052   2.009
12797TIP3    H138334   7.008   3.089   1.984
12797TIP3    H238335   7.148   3.063   1.931
12798TIP3   OH238336   1.069   2.808   1.092
12798TIP3    H138337   1.008   2.878   1.071
12798TIP3    H238338   1.155   2.843   1.068
12799TIP3   OH238339   1.065   4.096   3.543
12799TIP3    H138340   1.113   4.033   3.596
12799TIP3    H238341   1.012   4.145   3.606
12800TIP3   OH238342   5.277   3.029   0.582
12800TIP3    H138343   5.310   2.999   0.497
12800TIP3    H238344   5.185   3.004   0.583
12801TIP3   OH238345   6.885   0.435   1.437
12801TIP3    H138346   6.812   0.487   1.403
12801TIP3    H238347   6.962   0.468   1.391
12802TIP3   OH238348   4.982   5.372   0.917
12802TIP3    H138349   5.043   5.331   0.978
12802TIP3    H238350   4.904   5.389   0.970
12803TIP3   OH238351   7.712   3.201   6.293
12803TIP3    H138352   7.790   3.161   6.332
12803TIP3    H238353   7.645   3.193   6.361
12804TIP3   OH238354   5.954   2.239   1.582
12804TIP3    H138355   6.011   2.188   1.640
12804TIP3    H238356   5.873   2.187   1.578
12805TIP3   OH238357   3.990   1.394   2.251
12805TIP3    H138358   3.954   1.387   2.162
12805TIP3    H238359   3.916   1.370   2.308
12806TIP3   OH238360   3.267   1.830   4.926
12806TIP3    H138361   3.202   1.898   4.908
12806TIP3    H238362   3.215   1.750   4.933
12807TIP3   OH238363   3.682   4.197   4.968
12807TIP3    H138364   3.601   4.248   4.977
12807TIP3    H238365   3.651   4.106   4.960
12808TIP3   OH238366   7.310   6.249   6.164
12808TIP3    H138367   7.396   6.267   6.127
12808TIP3    H238368   7.291   6.325   6.219
12809TIP3   OH238369   2.341   6.950   3.369
12809TIP3    H138370   2.435   6.939   3.359
12809TIP3    H238371   2.307   6.861   3.380
12810TIP3   OH238372   2.641   3.634   5.132
12810TIP3    H138373   2.700   3.563   5.108
12810TIP3    H238374   2.567   3.592   5.175
12811TIP3   OH238375   6.560   2.591   1.900
12811TIP3    H138376   6.649   2.605   1.932
12811TIP3    H238377   6.570   2.539   1.820
12812TIP3   OH238378   4.289   3.353   5.299
12812TIP3    H138379   4.351   3.321   5.364
12812TIP3    H238380   4.208   3.368   5.348
12813TIP3   OH238381   4.964   4.883   4.037
12813TIP3    H138382   4.950   4.974   4.011
12813TIP3    H238383   4.937   4.831   3.961
12814TIP3   OH238384   7.507   5.303   2.648
12814TIP3    H138385   7.586   5.316   2.701
12814TIP3    H238386   7.516   5.214   2.615
12815TIP3   OH238387   3.437   6.526   1.670
12815TIP3    H138388   3.471   6.545   1.582
12815TIP3    H238389   3.363   6.586   1.680
12816TIP3   OH238390   7.744   5.203   0.216
12816TIP3    H138391   7.756   5.278   0.158
12816TIP3    H238392   7.807   5.138   0.185
12817TIP3   OH238393   4.496   2.272   5.431
12817TIP3    H138394   4.524   2.298   5.343
12817TIP3    H238395   4.492   2.177   5.429
12818TIP3   OH238396   0.367   6.381   0.795
12818TIP3    H138397   0.278   6.385   0.828
12818TIP3    H238398   0.364   6.316   0.725
12819TIP3   OH238399   7.146   2.552   0.459
12819TIP3    H138400   7.099   2.470   0.445
12819TIP3    H238401   7.184   2.543   0.547
12820TIP3   OH238402   2.833   4.499   1.883
12820TIP3    H138403   2.749   4.505   1.837
12820TIP3    H238404   2.861   4.590   1.894
12821TIP3   OH238405   0.247   5.805   0.302
12821TIP3    H138406   0.332   5.850   0.306
12821TIP3    H238407   0.245   5.766   0.215
12822TIP3   OH238408   3.503   1.430   6.176
12822TIP3    H138409   3.540   1.441   6.088
12822TIP3    H238410   3.409   1.422   6.161
12823TIP3   OH238411   6.954   7.311   0.846
12823TIP3    H138412   6.917   7.320   0.934
12823TIP3    H238413   6.921   7.387   0.799
12824TIP3   OH238414   7.611   1.947   3.850
12824TIP3    H138415   7.705   1.932   3.863
12824TIP3    H238416   7.574   1.940   3.938
12825TIP3   OH238417   1.296   0.283   0.817
12825TIP3    H138418   1.288   0.190   0.837
12825TIP3    H238419   1.345   0.319   0.891
12826TIP3   OH238420   7.694   3.184   4.002
12826TIP3    H138421   7.682   3.277   4.020
12826TIP3    H238422   7.668   3.140   4.083
12827TIP3   OH238423   3.093   4.544   2.725
12827TIP3    H138424   3.009   4.584   2.702
12827TIP3    H238425   3.151   4.618   2.743
12828TIP3   OH238426   7.076   2.156   5.739
12828TIP3    H138427   7.168   2.174   5.754
12828TIP3    H238428   7.075   2.078   5.683
12829TIP3   OH238429   2.336   6.309   1.987
12829TIP3    H138430   2.407   6.319   1.924
12829TIP3    H238431   2.272   6.253   1.943
12830TIP3   OH238432   1.397   5.528   0.407
12830TIP3    H138433   1.450   5.607   0.394
12830TIP3    H238434   1.418   5.500   0.496
12831TIP3   OH238435   0.372   6.549   0.528
12831TIP3    H138436   0.332   6.472   0.568
12831TIP3    H238437   0.461   6.522   0.508
12832TIP3   OH238438   5.273   6.834   0.949
12832TIP3    H138439   5.356   6.820   0.994
12832TIP3    H238440   5.251   6.925   0.966
12833TIP3   OH238441   6.929   2.535   6.209
12833TIP3    H138442   6.873   2.578   6.274
12833TIP3    H238443   7.018   2.551   6.240
12834TIP3   OH238444   6.720   3.643   4.920
12834TIP3    H138445   6.689   3.724   4.960
12834TIP3    H238446   6.809   3.633   4.953
12835TIP3   OH238447   0.674   4.529   1.394
12835TIP3    H138448   0.748   4.468   1.392
12835TIP3    H238449   0.626   4.506   1.473
12836TIP3   OH238450   0.594   3.001   0.964
12836TIP3    H138451   0.579   3.077   0.908
12836TIP3    H238452   0.511   2.953   0.961
12837TIP3   OH238453   1.966   6.795   3.834
12837TIP3    H138454   1.901   6.736   3.872
12837TIP3    H238455   2.050   6.751   3.848
12838TIP3   OH238456   5.278   7.118   6.311
12838TIP3    H138457   5.184   7.130   6.326
12838TIP3    H238458   5.283   7.058   6.237
12839TIP3   OH238459   7.633   7.145   3.563
12839TIP3    H138460   7.663   7.063   3.602
12839TIP3    H238461   7.564   7.176   3.621
12840TIP3   OH238462   8.065   2.830   2.361
12840TIP3    H138463   8.072   2.905   2.302
12840TIP3    H238464   8.011   2.862   2.433
12841TIP3   OH238465   5.861   2.288   3.089
12841TIP3    H138466   5.814   2.315   3.011
12841TIP3    H238467   5.949   2.264   3.058
12842TIP3   OH238468   3.252   4.988   1.211
12842TIP3    H138469   3.240   4.908   1.159
12842TIP3    H238470   3.167   5.001   1.254
12843TIP3   OH238471   5.222   6.227   1.505
12843TIP3    H138472   5.135   6.189   1.489
12843TIP3    H238473   5.204   6.317   1.532
12844TIP3   OH238474   2.234   0.552   3.793
12844TIP3    H138475   2.149   0.577   3.828
12844TIP3    H238476   2.213   0.506   3.711
12845TIP3   OH238477   7.745   0.881   2.884
12845TIP3    H138478   7.806   0.807   2.877
12845TIP3    H238479   7.658   0.842   2.875
12846TIP3   OH238480   2.816   0.101   2.832
12846TIP3    H138481   2.869   0.158   2.775
12846TIP3    H238482   2.727   0.110   2.799
12847TIP3   OH238483   8.261   6.355   5.994
12847TIP3    H138484   8.201   6.430   5.987
12847TIP3    H238485   8.316   6.361   5.916
12848TIP3   OH238486   2.788   0.370   6.205
12848TIP3    H138487   2.718   0.305   6.215
12848TIP3    H238488   2.763   0.421   6.128
12849TIP3   OH238489   1.126   0.135   2.258
12849TIP3    H138490   1.096   0.044   2.262
12849TIP3    H238491   1.063   0.183   2.310
12850TIP3   OH238492   7.277   0.497   3.670
12850TIP3    H138493   7.226   0.447   3.734
12850TIP3    H238494   7.322   0.431   3.618
12851TIP3   OH238495   6.214   7.118   1.348
12851TIP3    H138496   6.213   7.023   1.353
12851TIP3    H238497   6.212   7.147   1.439
12852TIP3   OH238498   5.647   4.011   5.752
12852TIP3    H138499   5.700   3.934   5.735
12852TIP3    H238500   5.662   4.030   5.845
12853TIP3   OH238501   0.391   5.394   6.547
12853TIP3    H138502   0.347   5.329   6.604
12853TIP3    H238503   0.320   5.451   6.518
12854TIP3   OH238504   1.467   0.913   2.331
12854TIP3    H138505   1.498   0.992   2.287
12854TIP3    H238506   1.474   0.934   2.424
12855TIP3   OH238507   7.322   1.555   2.921
12855TIP3    H138508   7.370   1.594   2.848
12855TIP3    H238509   7.260   1.495   2.879
12856TIP3   OH238510   7.284   6.306   2.915
12856TIP3    H138511   7.255   6.384   2.868
12856TIP3    H238512   7.372   6.288   2.881
12857TIP3   OH238513   5.881   1.575   5.730
12857TIP3    H138514   5.865   1.669   5.728
12857TIP3    H238515   5.852   1.545   5.644
12858TIP3   OH238516   3.444   3.731   4.184
12858TIP3    H138517   3.351   3.717   4.200
12858TIP3    H238518   3.488   3.663   4.235
12859TIP3   OH238519   1.234   1.323   6.006
12859TIP3    H138520   1.270   1.270   6.077
12859TIP3    H238521   1.308   1.375   5.975
12860TIP3   OH238522   2.903   7.171   2.926
12860TIP3    H138523   2.869   7.102   2.869
12860TIP3    H238524   2.953   7.228   2.868
12861TIP3   OH238525   1.459   1.937   4.566
12861TIP3    H138526   1.427   1.847   4.578
12861TIP3    H238527   1.414   1.988   4.633
12862TIP3   OH238528   2.356   5.063   6.427
12862TIP3    H138529   2.278   5.008   6.433
12862TIP3    H238530   2.386   5.072   6.517
12863TIP3   OH238531   5.276   2.382   4.096
12863TIP3    H138532   5.204   2.399   4.156
12863TIP3    H238533   5.234   2.351   4.016
12864TIP3   OH238534   1.499   6.426   4.588
12864TIP3    H138535   1.443   6.356   4.554
12864TIP3    H238536   1.439   6.488   4.629
12865TIP3   OH238537   2.527   5.832  -0.017
12865TIP3    H138538   2.499   5.888   0.056
12865TIP3    H238539   2.455   5.769  -0.028
12866TIP3   OH238540   7.946   0.821   3.453
12866TIP3    H138541   7.911   0.761   3.519
12866TIP3    H238542   7.948   0.768   3.373
12867TIP3   OH238543   1.401   0.437   5.681
12867TIP3    H138544   1.357   0.494   5.744
12867TIP3    H238545   1.348   0.444   5.602
12868TIP3   OH238546   6.475   6.617   2.663
12868TIP3    H138547   6.472   6.707   2.695
12868TIP3    H238548   6.568   6.593   2.668
12869TIP3   OH238549   6.638   2.974   5.171
12869TIP3    H138550   6.685   2.935   5.098
12869TIP3    H238551   6.690   2.951   5.248
12870TIP3   OH238552   0.908   2.869   1.693
12870TIP3    H138553   0.971   2.931   1.730
12870TIP3    H238554   0.828   2.921   1.680
12871TIP3   OH238555   5.749   1.246   2.636
12871TIP3    H138556   5.829   1.236   2.689
12871TIP3    H238557   5.679   1.258   2.700
12872TIP3   OH238558   7.661   7.120   3.946
12872TIP3    H138559   7.565   7.115   3.943
12872TIP3    H238560   7.685   7.160   3.862
12873TIP3   OH238561   5.860   4.694   0.822
12873TIP3    H138562   5.769   4.724   0.813
12873TIP3    H238563   5.856   4.600   0.807
12874TIP3   OH238564   6.329   3.410   2.747
12874TIP3    H138565   6.421   3.388   2.758
12874TIP3    H238566   6.291   3.334   2.703
12875TIP3   OH238567   2.153   2.500   2.908
12875TIP3    H138568   2.157   2.529   2.999
12875TIP3    H238569   2.110   2.571   2.861
12876TIP3   OH238570   1.005   2.848   0.066
12876TIP3    H138571   1.070   2.779   0.080
12876TIP3    H238572   0.926   2.816   0.108
12877TIP3   OH238573   3.366   3.394   0.736
12877TIP3    H138574   3.325   3.333   0.797
12877TIP3    H238575   3.339   3.362   0.650
12878TIP3   OH238576   5.755   5.054   3.982
12878TIP3    H138577   5.711   5.131   4.017
12878TIP3    H238578   5.705   5.032   3.903
12879TIP3   OH238579   5.092   2.744   5.827
12879TIP3    H138580   5.125   2.834   5.817
12879TIP3    H238581   5.083   2.711   5.738
12880TIP3   OH238582   1.526   2.629   5.682
12880TIP3    H138583   1.593   2.610   5.616
12880TIP3    H238584   1.450   2.658   5.632
12881TIP3   OH238585   5.058   2.870   4.162
12881TIP3    H138586   5.015   2.949   4.131
12881TIP3    H238587   4.992   2.801   4.151
12882TIP3   OH238588   3.802   5.133   6.650
12882TIP3    H138589   3.873   5.163   6.593
12882TIP3    H238590   3.734   5.200   6.640
12883TIP3   OH238591   1.076   4.219   6.203
12883TIP3    H138592   1.105   4.245   6.116
12883TIP3    H238593   0.997   4.271   6.219
12884TIP3   OH238594   1.408   0.335   6.393
12884TIP3    H138595   1.361   0.334   6.310
12884TIP3    H238596   1.382   0.253   6.436
12885TIP3   OH238597   5.554   1.082   6.601
12885TIP3    H138598   5.503   1.135   6.663
12885TIP3    H238599   5.505   1.087   6.519
12886TIP3   OH238600   5.825   6.940   3.538
12886TIP3    H138601   5.808   7.029   3.570
12886TIP3    H238602   5.754   6.888   3.574
12887TIP3   OH238603   2.742   1.561   1.338
12887TIP3    H138604   2.685   1.498   1.381
12887TIP3    H238605   2.747   1.635   1.398
12888TIP3   OH238606   0.456   7.299   5.339
12888TIP3    H138607   0.451   7.228   5.276
12888TIP3    H238608   0.368   7.338   5.338
12889TIP3   OH238609   1.875   2.155   4.326
12889TIP3    H138610   1.780   2.145   4.331
12889TIP3    H238611   1.894   2.234   4.376
12890TIP3   OH238612   8.174   0.122   4.413
12890TIP3    H138613   8.175   0.169   4.497
12890TIP3    H238614   8.256   0.073   4.413
12891TIP3   OH238615   5.316   2.939   0.312
12891TIP3    H138616   5.284   2.978   0.231
12891TIP3    H238617   5.250   2.873   0.334
12892TIP3   OH238618   1.513   3.479   1.476
12892TIP3    H138619   1.505   3.570   1.448
12892TIP3    H238620   1.547   3.432   1.400
12893TIP3   OH238621   6.714   0.242   4.503
12893TIP3    H138622   6.777   0.294   4.451
12893TIP3    H238623   6.728   0.272   4.593
12894TIP3   OH238624   2.069   4.136   1.232
12894TIP3    H138625   2.073   4.109   1.140
12894TIP3    H238626   1.999   4.201   1.234
12895TIP3   OH238627   7.682   5.396   5.242
12895TIP3    H138628   7.760   5.420   5.293
12895TIP3    H238629   7.617   5.461   5.266
12896TIP3   OH238630   4.194   1.256   2.391
12896TIP3    H138631   4.148   1.223   2.468
12896TIP3    H238632   4.131   1.317   2.350
12897TIP3   OH238633   7.404   1.294   4.520
12897TIP3    H138634   7.387   1.210   4.477
12897TIP3    H238635   7.452   1.345   4.455
12898TIP3   OH238636   3.212   1.603   1.671
12898TIP3    H138637   3.306   1.621   1.669
12898TIP3    H238638   3.197   1.545   1.596
12899TIP3   OH238639   0.634   6.511   0.476
12899TIP3    H138640   0.645   6.417   0.482
12899TIP3    H238641   0.691   6.538   0.404
12900TIP3   OH238642   7.460   2.358   0.047
12900TIP3    H138643   7.488   2.435  -0.003
12900TIP3    H238644   7.414   2.304  -0.017
12901TIP3   OH238645   5.835   0.237   3.410
12901TIP3    H138646   5.852   0.143   3.416
12901TIP3    H238647   5.884   0.265   3.332
12902TIP3   OH238648   5.417   2.514   6.502
12902TIP3    H138649   5.412   2.451   6.574
12902TIP3    H238650   5.443   2.462   6.426
12903TIP3   OH238651   4.091   0.981   4.158
12903TIP3    H138652   3.999   0.970   4.181
12903TIP3    H238653   4.095   1.065   4.113
12904TIP3   OH238654   3.407   1.159   0.974
12904TIP3    H138655   3.443   1.196   1.055
12904TIP3    H238656   3.367   1.234   0.930
12905TIP3   OH238657   3.324   3.181   3.688
12905TIP3    H138658   3.402   3.126   3.684
12905TIP3    H238659   3.280   3.168   3.604
12906TIP3   OH238660   8.157   5.089   1.903
12906TIP3    H138661   8.099   5.147   1.953
12906TIP3    H238662   8.111   5.075   1.820
12907TIP3   OH238663   8.109   4.839   1.148
12907TIP3    H138664   8.192   4.796   1.126
12907TIP3    H238665   8.044   4.769   1.147
12908TIP3   OH238666   6.769   7.087   5.794
12908TIP3    H138667   6.864   7.096   5.806
12908TIP3    H238668   6.757   6.994   5.774
12909TIP3   OH238669   3.930   3.719   2.350
12909TIP3    H138670   3.874   3.665   2.405
12909TIP3    H238671   3.882   3.802   2.341
12910TIP3   OH238672   1.399   3.148   0.303
12910TIP3    H138673   1.389   3.162   0.397
12910TIP3    H238674   1.313   3.120   0.273
12911TIP3   OH238675   1.611   0.325   6.635
12911TIP3    H138676   1.582   0.329   6.726
12911TIP3    H238677   1.542   0.369   6.586
12912TIP3   OH238678   1.319   5.719   2.704
12912TIP3    H138679   1.315   5.715   2.609
12912TIP3    H238680   1.310   5.812   2.725
12913TIP3   OH238681   2.306   6.492   4.459
12913TIP3    H138682   2.308   6.568   4.517
12913TIP3    H238683   2.349   6.423   4.509
12914TIP3   OH238684   1.000   5.338   5.426
12914TIP3    H138685   1.031   5.247   5.418
12914TIP3    H238686   1.056   5.376   5.493
12915TIP3   OH238687   1.445   7.217   0.760
12915TIP3    H138688   1.450   7.132   0.803
12915TIP3    H238689   1.524   7.263   0.787
12916TIP3   OH238690   7.724   1.694   2.196
12916TIP3    H138691   7.636   1.656   2.190
12916TIP3    H238692   7.708   1.784   2.228
12917TIP3   OH238693   6.542   4.111   1.722
12917TIP3    H138694   6.560   4.173   1.793
12917TIP3    H238695   6.487   4.044   1.762
12918TIP3   OH238696   2.820   7.598   4.871
12918TIP3    H138697   2.896   7.642   4.833
12918TIP3    H238698   2.765   7.668   4.905
12919TIP3   OH238699   0.896   4.404   3.938
12919TIP3    H138700   0.869   4.475   3.879
12919TIP3    H238701   0.932   4.449   4.015
12920TIP3   OH238702   7.003   6.089   0.367
12920TIP3    H138703   6.930   6.109   0.308
12920TIP3    H238704   6.966   6.096   0.455
12921TIP3   OH238705   5.179   7.363   4.631
12921TIP3    H138706   5.103   7.421   4.636
12921TIP3    H238707   5.221   7.371   4.717
12922TIP3   OH238708   1.055   5.178   0.146
12922TIP3    H138709   0.960   5.173   0.144
12922TIP3    H238710   1.074   5.233   0.222
12923TIP3   OH238711   8.194   1.197   1.764
12923TIP3    H138712   8.279   1.200   1.809
12923TIP3    H238713   8.139   1.144   1.821
12924TIP3   OH238714   5.782   3.411   2.525
12924TIP3    H138715   5.687   3.414   2.514
12924TIP3    H238716   5.816   3.465   2.454
12925TIP3   OH238717   7.663   5.357   1.927
12925TIP3    H138718   7.671   5.376   1.834
12925TIP3    H238719   7.718   5.422   1.970
12926TIP3   OH238720   1.897   1.514   6.512
12926TIP3    H138721   1.940   1.509   6.597
12926TIP3    H238722   1.848   1.433   6.505
12927TIP3   OH238723   2.803   0.993   4.131
12927TIP3    H138724   2.853   1.055   4.183
12927TIP3    H238725   2.853   0.983   4.050
12928TIP3   OH238726   3.747   3.020   3.834
12928TIP3    H138727   3.730   2.962   3.908
12928TIP3    H238728   3.838   3.000   3.809
12929TIP3   OH238729   2.157   4.169   0.752
12929TIP3    H138730   2.234   4.164   0.695
12929TIP3    H238731   2.111   4.248   0.721
12930TIP3   OH238732   6.943   1.828   4.429
12930TIP3    H138733   6.991   1.907   4.454
12930TIP3    H238734   6.990   1.756   4.471
12931TIP3   OH238735   7.893   3.442   1.621
12931TIP3    H138736   7.858   3.497   1.692
12931TIP3    H238737   7.935   3.369   1.666
12932TIP3   OH238738   3.113   3.898   2.030
12932TIP3    H138739   3.064   3.821   2.001
12932TIP3    H238740   3.134   3.879   2.122
12933TIP3   OH238741   7.359   0.223   1.820
12933TIP3    H138742   7.313   0.147   1.857
12933TIP3    H238743   7.448   0.215   1.852
12934TIP3   OH238744   7.844   3.981   3.657
12934TIP3    H138745   7.853   4.075   3.675
12934TIP3    H238746   7.752   3.963   3.671
12935TIP3   OH238747   3.406   7.491   3.326
12935TIP3    H138748   3.328   7.464   3.278
12935TIP3    H238749   3.405   7.437   3.405
12936TIP3   OH238750   4.702   3.716   1.862
12936TIP3    H138751   4.739   3.793   1.819
12936TIP3    H238752   4.639   3.752   1.925
12937TIP3   OH238753   0.669   7.798   5.346
12937TIP3    H138754   0.588   7.754   5.321
12937TIP3    H238755   0.662   7.811   5.440
12938TIP3   OH238756   6.412   5.170   4.920
12938TIP3    H138757   6.423   5.076   4.928
12938TIP3    H238758   6.327   5.182   4.879
12939TIP3   OH238759   3.825   5.750   6.607
12939TIP3    H138760   3.771   5.828   6.616
12939TIP3    H238761   3.797   5.693   6.679
12940TIP3   OH238762   7.134   3.892   4.496
12940TIP3    H138763   7.055   3.840   4.509
12940TIP3    H238764   7.104   3.982   4.493
12941TIP3   OH238765   1.930   4.718   6.005
12941TIP3    H138766   2.020   4.690   5.991
12941TIP3    H238767   1.887   4.704   5.921
12942TIP3   OH238768   7.143   7.196   2.876
12942TIP3    H138769   7.170   7.277   2.919
12942TIP3    H238770   7.060   7.218   2.834
12943TIP3   OH238771   7.168   5.585   3.463
12943TIP3    H138772   7.080   5.554   3.443
12943TIP3    H238773   7.189   5.546   3.547
12944TIP3   OH238774   6.335   0.745   3.254
12944TIP3    H138775   6.367   0.658   3.231
12944TIP3    H238776   6.395   0.805   3.209
12945TIP3   OH238777   7.447   6.486   1.969
12945TIP3    H138778   7.371   6.534   1.999
12945TIP3    H238779   7.508   6.488   2.042
12946TIP3   OH238780   4.350   5.239   3.221
12946TIP3    H138781   4.366   5.270   3.310
12946TIP3    H238782   4.436   5.209   3.191
12947TIP3   OH238783   6.798   0.306   1.890
12947TIP3    H138784   6.805   0.211   1.880
12947TIP3    H238785   6.730   0.331   1.826
12948TIP3   OH238786   2.597   7.581   1.863
12948TIP3    H138787   2.556   7.646   1.806
12948TIP3    H238788   2.602   7.624   1.948
12949TIP3   OH238789   1.544   0.520   3.217
12949TIP3    H138790   1.477   0.561   3.161
12949TIP3    H238791   1.498   0.448   3.260
12950TIP3   OH238792   3.920   6.222   1.234
12950TIP3    H138793   3.933   6.255   1.323
12950TIP3    H238794   3.878   6.137   1.247
12951TIP3   OH238795   0.566   1.182   5.229
12951TIP3    H138796   0.605   1.216   5.148
12951TIP3    H238797   0.531   1.260   5.272
12952TIP3   OH238798   2.703   4.244   1.979
12952TIP3    H138799   2.728   4.153   1.995
12952TIP3    H238800   2.709   4.286   2.065
12953TIP3   OH238801   0.732   1.463   6.163
12953TIP3    H138802   0.827   1.462   6.177
12953TIP3    H238803   0.720   1.427   6.075
12954TIP3   OH238804   1.710   6.952   4.094
12954TIP3    H138805   1.720   6.979   4.003
12954TIP3    H238806   1.769   7.009   4.143
12955TIP3   OH238807   4.034   7.154   5.201
12955TIP3    H138808   4.122   7.122   5.183
12955TIP3    H238809   4.036   7.178   5.294
12956TIP3   OH238810   2.330   5.354   0.289
12956TIP3    H138811   2.394   5.405   0.239
12956TIP3    H238812   2.363   5.356   0.379
12957TIP3   OH238813   1.311   6.920   0.119
12957TIP3    H138814   1.387   6.934   0.062
12957TIP3    H238815   1.316   6.989   0.184
12958TIP3   OH238816   5.903   4.933   5.926
12958TIP3    H138817   5.891   4.953   6.019
12958TIP3    H238818   5.983   4.979   5.901
12959TIP3   OH238819   5.763   2.402   2.855
12959TIP3    H138820   5.847   2.414   2.810
12959TIP3    H238821   5.706   2.365   2.788
12960TIP3   OH238822   0.654   0.469   2.081
12960TIP3    H138823   0.701   0.422   2.012
12960TIP3    H238824   0.561   0.454   2.061
12961TIP3   OH238825   4.226   4.305   6.323
12961TIP3    H138826   4.143   4.307   6.370
12961TIP3    H238827   4.233   4.216   6.288
12962TIP3   OH238828   5.353   2.075   0.884
12962TIP3    H138829   5.315   2.009   0.942
12962TIP3    H238830   5.281   2.135   0.864
12963TIP3   OH238831   0.617   3.757   0.049
12963TIP3    H138832   0.673   3.822   0.007
12963TIP3    H238833   0.666   3.731   0.128
12964TIP3   OH238834   6.996   4.053   6.704
12964TIP3    H138835   6.916   4.003   6.721
12964TIP3    H238836   7.048   3.995   6.648
12965TIP3   OH238837   3.525   6.482   3.579
12965TIP3    H138838   3.572   6.440   3.507
12965TIP3    H238839   3.582   6.469   3.655
12966TIP3   OH238840   3.000   7.622   0.518
12966TIP3    H138841   2.972   7.547   0.466
12966TIP3    H238842   2.941   7.623   0.594
12967TIP3   OH238843   2.002   4.387   6.740
12967TIP3    H138844   2.021   4.358   6.829
12967TIP3    H238845   2.002   4.306   6.688
12968TIP3   OH238846   7.048   0.840   6.392
12968TIP3    H138847   7.007   0.923   6.416
12968TIP3    H238848   7.111   0.824   6.462
12969TIP3   OH238849   2.579   1.362   1.449
12969TIP3    H138850   2.585   1.267   1.457
12969TIP3    H238851   2.490   1.378   1.419
12970TIP3   OH238852   5.518   6.827   1.072
12970TIP3    H138853   5.602   6.795   1.038
12970TIP3    H238854   5.497   6.768   1.144
12971TIP3   OH238855   0.442   7.521   3.917
12971TIP3    H138856   0.518   7.522   3.975
12971TIP3    H238857   0.477   7.496   3.831
12972TIP3   OH238858   3.427   3.497   6.029
12972TIP3    H138859   3.382   3.485   6.112
12972TIP3    H238860   3.479   3.576   6.040
12973TIP3   OH238861   4.535   3.982   2.436
12973TIP3    H138862   4.576   4.046   2.494
12973TIP3    H238863   4.527   3.903   2.489
12974TIP3   OH238864   6.015   3.743   3.103
12974TIP3    H138865   6.099   3.698   3.090
12974TIP3    H238866   5.952   3.673   3.120
12975TIP3   OH238867   0.985   2.171   2.906
12975TIP3    H138868   1.006   2.240   2.969
12975TIP3    H238869   0.932   2.108   2.955
12976TIP3   OH238870   4.003   3.168   0.147
12976TIP3    H138871   3.984   3.082   0.186
12976TIP3    H238872   4.087   3.155   0.104
12977TIP3   OH238873   8.137   6.137   3.672
12977TIP3    H138874   8.205   6.147   3.738
12977TIP3    H238875   8.060   6.179   3.710
12978TIP3   OH238876   4.772   1.289   0.100
12978TIP3    H138877   4.795   1.267   0.010
12978TIP3    H238878   4.847   1.338   0.133
12979TIP3   OH238879   1.868   1.158   2.333
12979TIP3    H138880   1.793   1.216   2.335
12979TIP3    H238881   1.834   1.076   2.297
12980TIP3   OH238882   2.873   0.567   5.271
12980TIP3    H138883   2.870   0.630   5.199
12980TIP3    H238884   2.810   0.499   5.246
12981TIP3   OH238885   1.367   3.498   2.630
12981TIP3    H138886   1.297   3.444   2.593
12981TIP3    H238887   1.340   3.514   2.720
12982TIP3   OH238888   5.158   5.772   3.121
12982TIP3    H138889   5.191   5.782   3.032
12982TIP3    H238890   5.237   5.770   3.176
12983TIP3   OH238891   6.913   2.712   0.896
12983TIP3    H138892   6.823   2.716   0.862
12983TIP3    H238893   6.904   2.678   0.985
12984TIP3   OH238894   0.796   7.632   5.954
12984TIP3    H138895   0.753   7.639   6.039
12984TIP3    H238896   0.821   7.540   5.947
12985TIP3   OH238897   2.553   0.522   6.018
12985TIP3    H138898   2.594   0.523   5.931
12985TIP3    H238899   2.460   0.509   6.000
12986TIP3   OH238900   1.993   5.441   1.852
12986TIP3    H138901   1.936   5.364   1.842
12986TIP3    H238902   2.049   5.440   1.774
12987TIP3   OH238903   6.843   4.496   4.483
12987TIP3    H138904   6.837   4.543   4.566
12987TIP3    H238905   6.937   4.485   4.469
12988TIP3   OH238906   3.155   3.236   3.897
12988TIP3    H138907   3.221   3.209   3.833
12988TIP3    H238908   3.077   3.186   3.873
12989TIP3   OH238909   3.872   7.009   1.623
12989TIP3    H138910   3.797   6.952   1.643
12989TIP3    H238911   3.835   7.080   1.571
12990TIP3   OH238912   2.220   6.539   1.730
12990TIP3    H138913   2.154   6.546   1.662
12990TIP3    H238914   2.295   6.589   1.697
12991TIP3   OH238915   2.111   0.347   4.511
12991TIP3    H138916   2.078   0.336   4.422
12991TIP3    H238917   2.200   0.313   4.508
12992TIP3   OH238918   4.468   0.418   0.394
12992TIP3    H138919   4.387   0.468   0.383
12992TIP3    H238920   4.446   0.329   0.366
12993TIP3   OH238921   3.086   3.123   5.511
12993TIP3    H138922   3.123   3.043   5.548
12993TIP3    H238923   3.001   3.132   5.553
12994TIP3   OH238924   0.292   0.580   0.247
12994TIP3    H138925   0.247   0.613   0.170
12994TIP3    H238926   0.370   0.537   0.212
12995TIP3   OH238927   7.302   2.201   5.891
12995TIP3    H138928   7.290   2.245   5.975
12995TIP3    H238929   7.356   2.260   5.839
12996TIP3   OH238930   7.639   1.133   1.172
12996TIP3    H138931   7.674   1.048   1.145
12996TIP3    H238932   7.710   1.195   1.152
12997TIP3   OH238933   0.607   4.408   4.970
12997TIP3    H138934   0.529   4.390   5.022
12997TIP3    H238935   0.582   4.387   4.881
12998TIP3   OH238936   4.047   1.951   3.256
12998TIP3    H138937   4.026   1.980   3.345
12998TIP3    H238938   4.010   2.018   3.199
12999TIP3   OH238939   7.164   7.198   5.285
12999TIP3    H138940   7.140   7.230   5.372
12999TIP3    H238941   7.241   7.249   5.260
13000TIP3   OH238942   6.534   3.791   1.547
13000TIP3    H138943   6.557   3.879   1.516
13000TIP3    H238944   6.613   3.739   1.533
13001TIP3   OH238945   4.346   3.234   3.128
13001TIP3    H138946   4.434   3.213   3.158
13001TIP3    H238947   4.331   3.174   3.055
13002TIP3   OH238948   7.217   2.905   0.864
13002TIP3    H138949   7.242   2.814   0.851
13002TIP3    H238950   7.285   2.942   0.920
13003TIP3   OH238951   0.950   5.436   4.152
13003TIP3    H138952   0.868   5.484   4.141
13003TIP3    H238953   0.924   5.344   4.152
13004TIP3   OH238954   4.520   6.429   4.252
13004TIP3    H138955   4.498   6.341   4.284
13004TIP3    H238956   4.605   6.449   4.292
13005TIP3   OH238957   4.915   1.076   4.978
13005TIP3    H138958   4.943   1.077   5.069
13005TIP3    H238959   4.820   1.089   4.982
13006TIP3   OH238960   2.592   6.550   4.831
13006TIP3    H138961   2.559   6.520   4.916
13006TIP3    H238962   2.526   6.521   4.769
13007TIP3   OH238963   0.773   2.070   5.274
13007TIP3    H138964   0.821   2.053   5.354
13007TIP3    H238965   0.754   1.983   5.238
13008TIP3   OH238966   4.522   2.259   0.624
13008TIP3    H138967   4.484   2.219   0.546
13008TIP3    H238968   4.448   2.266   0.685
13009TIP3   OH238969   2.224   1.452   2.923
13009TIP3    H138970   2.184   1.530   2.960
13009TIP3    H238971   2.311   1.481   2.894
13010TIP3   OH238972   7.444   5.775   1.184
13010TIP3    H138973   7.394   5.704   1.144
13010TIP3    H238974   7.378   5.841   1.206
13011TIP3   OH238975   6.170   0.688   5.624
13011TIP3    H138976   6.193   0.752   5.692
13011TIP3    H238977   6.250   0.636   5.613
13012TIP3   OH238978   5.654   1.008   1.524
13012TIP3    H138979   5.598   1.057   1.463
13012TIP3    H238980   5.741   1.013   1.486
13013TIP3   OH238981   1.488   2.743   4.504
13013TIP3    H138982   1.474   2.834   4.531
13013TIP3    H238983   1.497   2.748   4.409
13014TIP3   OH238984   2.557   2.331   6.092
13014TIP3    H138985   2.529   2.270   6.160
13014TIP3    H238986   2.476   2.356   6.047
13015TIP3   OH238987   5.513   0.683   3.535
13015TIP3    H138988   5.542   0.628   3.463
13015TIP3    H238989   5.530   0.631   3.614
13016TIP3   OH238990   0.185   1.955   2.456
13016TIP3    H138991   0.155   2.047   2.458
13016TIP3    H238992   0.219   1.943   2.367
13017TIP3   OH238993   2.312   1.548   0.281
13017TIP3    H138994   2.326   1.453   0.281
13017TIP3    H238995   2.218   1.559   0.268
13018TIP3   OH238996   3.569   7.131   5.776
13018TIP3    H138997   3.615   7.198   5.826
13018TIP3    H238998   3.476   7.151   5.791
13019TIP3   OH238999   7.094   1.616   6.301
13019TIP3    H139000   7.134   1.647   6.220
13019TIP3    H239001   7.154   1.644   6.370
13020TIP3   OH239002   7.740   5.174   2.166
13020TIP3    H139003   7.678   5.197   2.097
13020TIP3    H239004   7.708   5.220   2.243
13021TIP3   OH239005   7.004   1.351   0.861
13021TIP3    H139006   7.032   1.395   0.781
13021TIP3    H239007   6.930   1.296   0.833
13022TIP3   OH239008   3.266   2.693   0.065
13022TIP3    H139009   3.318   2.622   0.028
13022TIP3    H239010   3.227   2.738  -0.010
13023TIP3   OH239011   7.680   3.043   5.330
13023TIP3    H139012   7.749   3.101   5.364
13023TIP3    H239013   7.726   2.984   5.271
13024TIP3   OH239014   4.759   0.960   6.320
13024TIP3    H139015   4.703   0.991   6.248
13024TIP3    H239016   4.741   0.867   6.326
13025TIP3   OH239017   0.402   2.179   4.917
13025TIP3    H139018   0.346   2.229   4.858
13025TIP3    H239019   0.431   2.242   4.982
13026TIP3   OH239020   2.041   5.825   5.940
13026TIP3    H139021   1.992   5.792   6.015
13026TIP3    H239022   2.110   5.880   5.978
13027TIP3   OH239023   0.775   4.775   5.202
13027TIP3    H139024   0.862   4.806   5.176
13027TIP3    H239025   0.737   4.740   5.121
13028TIP3   OH239026   3.053   0.733   2.486
13028TIP3    H139027   2.982   0.723   2.422
13028TIP3    H239028   3.127   0.764   2.434
13029TIP3   OH239029   0.077   0.756   1.275
13029TIP3    H139030   0.131   0.759   1.354
13029TIP3    H239031   0.130   0.706   1.212
13030TIP3   OH239032   1.852   5.724   4.369
13030TIP3    H139033   1.858   5.660   4.440
13030TIP3    H239034   1.884   5.677   4.292
13031TIP3   OH239035   6.086   6.195   5.703
13031TIP3    H139036   6.132   6.225   5.624
13031TIP3    H239037   6.112   6.257   5.771
13032TIP3   OH239038   0.258   1.450   5.596
13032TIP3    H139039   0.348   1.437   5.623
13032TIP3    H239040   0.260   1.530   5.542
13033TIP3   OH239041   5.729   5.035   6.169
13033TIP3    H139042   5.742   5.118   6.216
13033TIP3    H239043   5.704   5.061   6.081
13034TIP3   OH239044   5.426   2.147   1.220
13034TIP3    H139045   5.353   2.189   1.266
13034TIP3    H239046   5.406   2.161   1.128
13035TIP3   OH239047   2.217   0.158   4.763
13035TIP3    H139048   2.271   0.170   4.685
13035TIP3    H239049   2.164   0.238   4.768
13036TIP3   OH239050   4.057   3.445   0.547
13036TIP3    H139051   4.057   3.442   0.452
13036TIP3    H239052   4.087   3.358   0.574
13037TIP3   OH239053   2.368   2.028   1.010
13037TIP3    H139054   2.296   1.967   0.992
13037TIP3    H239055   2.364   2.042   1.105
13038TIP3   OH239056   2.409   7.432   2.104
13038TIP3    H139057   2.401   7.520   2.141
13038TIP3    H239058   2.438   7.447   2.014
13039TIP3   OH239059   2.822   1.568   2.843
13039TIP3    H139060   2.738   1.527   2.825
13039TIP3    H239061   2.841   1.620   2.764
13040TIP3   OH239062   7.054   5.847   0.644
13040TIP3    H139063   7.103   5.816   0.567
13040TIP3    H239064   6.988   5.906   0.608
13041TIP3   OH239065   1.515   0.520   4.458
13041TIP3    H139066   1.469   0.456   4.512
13041TIP3    H239067   1.607   0.495   4.464
13042TIP3   OH239068   6.091   5.839   4.199
13042TIP3    H139069   6.011   5.882   4.169
13042TIP3    H239070   6.068   5.746   4.203
13043TIP3   OH239071   5.449   2.079   3.442
13043TIP3    H139072   5.355   2.077   3.425
13043TIP3    H239073   5.457   2.052   3.533
13044TIP3   OH239074   0.714   2.629   0.991
13044TIP3    H139075   0.640   2.659   0.939
13044TIP3    H239076   0.676   2.566   1.053
13045TIP3   OH239077   2.253   0.196   2.319
13045TIP3    H139078   2.236   0.161   2.407
13045TIP3    H239079   2.167   0.226   2.289
13046TIP3   OH239080   7.774   5.509   2.594
13046TIP3    H139081   7.818   5.470   2.669
13046TIP3    H239082   7.827   5.485   2.518
13047TIP3   OH239083   7.337   7.172   1.896
13047TIP3    H139084   7.283   7.109   1.944
13047TIP3    H239085   7.377   7.121   1.826
13048TIP3   OH239086   7.546   6.171   0.751
13048TIP3    H139087   7.501   6.087   0.758
13048TIP3    H239088   7.607   6.171   0.824
13049TIP3   OH239089   1.158   6.594   0.532
13049TIP3    H139090   1.097   6.528   0.499
13049TIP3    H239091   1.106   6.675   0.532
13050TIP3   OH239092   8.295   3.285   1.383
13050TIP3    H139093   8.252   3.211   1.338
13050TIP3    H239094   8.264   3.362   1.336
13051TIP3   OH239095   1.506   7.683   6.079
13051TIP3    H139096   1.514   7.773   6.047
13051TIP3    H239097   1.565   7.633   6.023
13052TIP3   OH239098   7.942   2.284   1.181
13052TIP3    H139099   7.852   2.287   1.150
13052TIP3    H239100   7.936   2.305   1.274
13053TIP3   OH239101   7.601   0.398   3.092
13053TIP3    H139102   7.693   0.423   3.099
13053TIP3    H239103   7.554   0.463   3.145
13054TIP3   OH239104   3.520   4.396   5.997
13054TIP3    H139105   3.479   4.479   5.974
13054TIP3    H239106   3.452   4.348   6.045
13055TIP3   OH239107   3.064   3.999   5.432
13055TIP3    H139108   3.048   3.929   5.496
13055TIP3    H239109   3.085   4.076   5.485
13056TIP3   OH239110   1.565   5.876   2.423
13056TIP3    H139111   1.525   5.955   2.386
13056TIP3    H239112   1.493   5.831   2.467
13057TIP3   OH239113   7.578   4.277   4.300
13057TIP3    H139114   7.655   4.291   4.356
13057TIP3    H239115   7.604   4.312   4.215
13058TIP3   OH239116   0.170   3.652   5.298
13058TIP3    H139117   0.191   3.577   5.354
13058TIP3    H239118   0.218   3.725   5.336
13059TIP3   OH239119   6.150   3.813   6.340
13059TIP3    H139120   6.219   3.752   6.364
13059TIP3    H239121   6.082   3.758   6.301
13060TIP3   OH239122   7.890   1.970   1.762
13060TIP3    H139123   7.831   1.897   1.782
13060TIP3    H239124   7.937   1.986   1.844
13061TIP3   OH239125   2.796   4.634   2.133
13061TIP3    H139126   2.754   4.699   2.077
13061TIP3    H239127   2.801   4.555   2.079
13062TIP3   OH239128   0.493   0.571   3.100
13062TIP3    H139129   0.490   0.567   3.195
13062TIP3    H239130   0.540   0.651   3.079
13063TIP3   OH239131   0.526   7.281   2.653
13063TIP3    H139132   0.606   7.274   2.601
13063TIP3    H239133   0.459   7.238   2.599
13064TIP3   OH239134   3.759   1.303   5.436
13064TIP3    H139135   3.737   1.341   5.351
13064TIP3    H239136   3.761   1.377   5.496
13065TIP3   OH239137   1.194   5.590   3.144
13065TIP3    H139138   1.172   5.570   3.053
13065TIP3    H239139   1.116   5.634   3.178
13066TIP3   OH239140   6.745   2.569   5.899
13066TIP3    H139141   6.832   2.529   5.902
13066TIP3    H239142   6.688   2.500   5.864
13067TIP3   OH239143   6.156   2.610   0.763
13067TIP3    H139144   6.227   2.589   0.823
13067TIP3    H239145   6.199   2.635   0.682
13068TIP3   OH239146   7.316   3.716   6.037
13068TIP3    H139147   7.243   3.778   6.027
13068TIP3    H239148   7.373   3.757   6.103
13069TIP3   OH239149   2.827   0.378   3.947
13069TIP3    H139150   2.836   0.436   4.022
13069TIP3    H239151   2.884   0.415   3.881
13070TIP3   OH239152   3.941   3.450   0.853
13070TIP3    H139153   3.891   3.492   0.783
13070TIP3    H239154   4.031   3.450   0.821
13071TIP3   OH239155   0.389   3.814   4.929
13071TIP3    H139156   0.308   3.801   4.978
13071TIP3    H239157   0.362   3.827   4.839
13072TIP3   OH239158   0.634   0.010   4.072
13072TIP3    H139159   0.680   0.093   4.060
13072TIP3    H239160   0.626   0.001   4.167
13073TIP3   OH239161   2.029   6.151   5.059
13073TIP3    H139162   1.982   6.215   5.113
13073TIP3    H239163   2.034   6.192   4.972
13074TIP3   OH239164   7.900   7.133   5.106
13074TIP3    H139165   7.876   7.102   5.019
13074TIP3    H239166   7.852   7.075   5.166
13075TIP3   OH239167   0.450   3.011   0.032
13075TIP3    H139168   0.381   2.946   0.019
13075TIP3    H239169   0.402   3.094   0.042
13076TIP3   OH239170   0.329   4.887   5.690
13076TIP3    H139171   0.372   4.951   5.748
13076TIP3    H239172   0.315   4.811   5.746
13077TIP3   OH239173   0.267   5.279   3.771
13077TIP3    H139174   0.209   5.344   3.731
13077TIP3    H239175   0.283   5.215   3.702
13078TIP3   OH239176   4.484   5.713   3.446
13078TIP3    H139177   4.519   5.793   3.408
13078TIP3    H239178   4.561   5.668   3.481
13079TIP3   OH239179   1.128   6.051   0.587
13079TIP3    H139180   1.075   6.129   0.604
13079TIP3    H239181   1.212   6.086   0.557
13080TIP3   OH239182   7.328   4.886   2.789
13080TIP3    H139183   7.386   4.961   2.803
13080TIP3    H239184   7.384   4.819   2.751
13081TIP3   OH239185   6.991   1.219   1.385
13081TIP3    H139186   6.983   1.306   1.347
13081TIP3    H239187   6.975   1.159   1.313
13082TIP3   OH239188   6.472   4.330   2.918
13082TIP3    H139189   6.497   4.362   3.004
13082TIP3    H239190   6.470   4.407   2.862
13083TIP3   OH239191   2.220   3.203   2.631
13083TIP3    H139192   2.197   3.164   2.715
13083TIP3    H239193   2.314   3.220   2.637
13084TIP3   OH239194   6.259   2.191   2.670
13084TIP3    H139195   6.312   2.112   2.663
13084TIP3    H239196   6.240   2.215   2.579
13085TIP3   OH239197   3.379   5.120   1.670
13085TIP3    H139198   3.373   5.065   1.592
13085TIP3    H239199   3.381   5.059   1.743
13086TIP3   OH239200   6.439   6.501   5.525
13086TIP3    H139201   6.473   6.436   5.462
13086TIP3    H239202   6.439   6.583   5.476
13087TIP3   OH239203   6.797   0.323   0.923
13087TIP3    H139204   6.857   0.286   0.987
13087TIP3    H239205   6.819   0.279   0.841
13088TIP3   OH239206   0.199   0.765   2.770
13088TIP3    H139207   0.284   0.766   2.814
13088TIP3    H239208   0.176   0.858   2.760
13089TIP3   OH239209   1.772   1.297   4.334
13089TIP3    H139210   1.699   1.245   4.367
13089TIP3    H239211   1.773   1.280   4.240
13090TIP3   OH239212   7.764   3.918   6.466
13090TIP3    H139213   7.812   3.928   6.384
13090TIP3    H239214   7.787   3.995   6.517
13091TIP3   OH239215   5.309   4.348   3.232
13091TIP3    H139216   5.375   4.319   3.169
13091TIP3    H239217   5.359   4.374   3.309
13092TIP3   OH239218   0.970   1.373   2.059
13092TIP3    H139219   0.992   1.348   2.148
13092TIP3    H239220   0.884   1.415   2.066
13093TIP3   OH239221   8.162   3.957   0.540
13093TIP3    H139222   8.184   3.874   0.583
13093TIP3    H239223   8.075   3.944   0.504
13094TIP3   OH239224   5.962   7.458   0.213
13094TIP3    H139225   5.918   7.503   0.141
13094TIP3    H239226   5.946   7.365   0.196
13095TIP3   OH239227   1.706   7.278   4.214
13095TIP3    H139228   1.777   7.214   4.214
13095TIP3    H239229   1.700   7.306   4.122
13096TIP3   OH239230   4.199   2.427   4.968
13096TIP3    H139231   4.124   2.405   4.913
13096TIP3    H239232   4.232   2.342   4.998
13097TIP3   OH239233   3.329   2.797   1.659
13097TIP3    H139234   3.290   2.820   1.743
13097TIP3    H239235   3.336   2.702   1.661
13098TIP3   OH239236   4.338   6.600   3.007
13098TIP3    H139237   4.429   6.628   2.994
13098TIP3    H239238   4.297   6.671   3.056
13099TIP3   OH239239   5.008   7.140   2.423
13099TIP3    H139240   5.098   7.117   2.446
13099TIP3    H239241   4.959   7.059   2.434
13100TIP3   OH239242   0.071   7.747   2.070
13100TIP3    H139243   0.107   7.690   2.138
13100TIP3    H239244  -0.011   7.704   2.043
13101TIP3   OH239245   1.557   0.595   0.697
13101TIP3    H139246   1.636   0.640   0.666
13101TIP3    H239247   1.533   0.536   0.626
13102TIP3   OH239248   1.588   1.742   3.367
13102TIP3    H139249   1.578   1.678   3.296
13102TIP3    H239250   1.682   1.747   3.382
13103TIP3   OH239251   7.447   0.730   2.275
13103TIP3    H139252   7.449   0.674   2.197
13103TIP3    H239253   7.463   0.819   2.241
13104TIP3   OH239254   8.134   1.159   5.580
13104TIP3    H139255   8.132   1.071   5.619
13104TIP3    H239256   8.190   1.210   5.640
13105TIP3   OH239257   1.874   4.505   0.857
13105TIP3    H139258   1.953   4.500   0.804
13105TIP3    H239259   1.883   4.588   0.905
13106TIP3   OH239260   4.305   2.793   3.694
13106TIP3    H139261   4.220   2.824   3.724
13106TIP3    H239262   4.301   2.801   3.599
13107TIP3   OH239263   2.130   6.638   5.228
13107TIP3    H139264   2.126   6.714   5.170
13107TIP3    H239265   2.088   6.667   5.309
13108TIP3   OH239266   6.022   3.213   2.494
13108TIP3    H139267   6.047   3.210   2.401
13108TIP3    H239268   5.966   3.290   2.501
13109TIP3   OH239269   5.059   0.811   4.062
13109TIP3    H139270   5.041   0.848   4.148
13109TIP3    H239271   4.992   0.848   4.005
13110TIP3   OH239272   3.099   3.050   6.282
13110TIP3    H139273   3.189   3.051   6.248
13110TIP3    H239274   3.059   3.128   6.243
13111TIP3   OH239275   1.502   2.896   0.643
13111TIP3    H139276   1.596   2.879   0.649
13111TIP3    H239277   1.496   2.988   0.620
13112TIP3   OH239278   6.286   5.453   4.095
13112TIP3    H139279   6.305   5.522   4.031
13112TIP3    H239280   6.370   5.408   4.107
13113TIP3   OH239281   3.997   1.529   2.938
13113TIP3    H139282   3.957   1.614   2.922
13113TIP3    H239283   4.084   1.548   2.972
13114TIP3   OH239284   7.878   3.089   2.682
13114TIP3    H139285   7.962   3.073   2.638
13114TIP3    H239286   7.901   3.100   2.774
13115TIP3   OH239287   7.587   5.834   0.227
13115TIP3    H139288   7.542   5.870   0.303
13115TIP3    H239289   7.678   5.864   0.237
13116TIP3   OH239290   6.000   5.971   3.151
13116TIP3    H139291   6.040   5.938   3.232
13116TIP3    H239292   6.018   5.904   3.086
13117TIP3   OH239293   3.395   4.024   4.238
13117TIP3    H139294   3.427   3.934   4.231
13117TIP3    H239295   3.454   4.066   4.300
13118TIP3   OH239296   0.616   1.497   0.869
13118TIP3    H139297   0.527   1.528   0.851
13118TIP3    H239298   0.672   1.572   0.851
13119TIP3   OH239299   4.555   7.767   4.578
13119TIP3    H139300   4.592   7.724   4.655
13119TIP3    H239301   4.497   7.834   4.614
13120TIP3   OH239302   6.429   6.759   3.285
13120TIP3    H139303   6.384   6.808   3.354
13120TIP3    H239304   6.375   6.681   3.273
13121TIP3   OH239305   1.584   1.673   3.646
13121TIP3    H139306   1.638   1.602   3.611
13121TIP3    H239307   1.581   1.738   3.576
13122TIP3   OH239308   0.869   0.697   6.457
13122TIP3    H139309   0.886   0.685   6.550
13122TIP3    H239310   0.946   0.743   6.424
13123TIP3   OH239311   3.585   3.049   0.888
13123TIP3    H139312   3.521   2.979   0.876
13123TIP3    H239313   3.618   3.067   0.800
13124TIP3   OH239314   6.200   5.875   1.956
13124TIP3    H139315   6.192   5.918   2.041
13124TIP3    H239316   6.268   5.924   1.911
13125TIP3   OH239317   0.334   2.968   0.428
13125TIP3    H139318   0.243   2.995   0.415
13125TIP3    H239319   0.327   2.879   0.464
13126TIP3   OH239320   4.724   1.425   5.929
13126TIP3    H139321   4.722   1.356   5.996
13126TIP3    H239322   4.763   1.383   5.853
13127TIP3   OH239323   7.987   3.689   6.441
13127TIP3    H139324   7.895   3.715   6.436
13127TIP3    H239325   7.984   3.595   6.458
13128TIP3   OH239326   6.118   2.678   2.051
13128TIP3    H139327   6.194   2.620   2.050
13128TIP3    H239328   6.074   2.658   2.134
13129TIP3   OH239329   7.946   7.287   1.545
13129TIP3    H139330   7.978   7.355   1.605
13129TIP3    H239331   7.871   7.327   1.501
13130TIP3   OH239332   5.748  -0.007   4.744
13130TIP3    H139333   5.714   0.040   4.668
13130TIP3    H239334   5.739   0.055   4.816
13131TIP3   OH239335   6.052   4.585   4.326
13131TIP3    H139336   6.006   4.546   4.400
13131TIP3    H239337   6.124   4.525   4.307
13132TIP3   OH239338   7.582   4.510   4.092
13132TIP3    H139339   7.600   4.592   4.138
13132TIP3    H239340   7.486   4.506   4.087
13133TIP3   OH239341   4.733   5.566   3.545
13133TIP3    H139342   4.742   5.502   3.474
13133TIP3    H239343   4.815   5.615   3.545
13134TIP3   OH239344   8.137   4.529   3.230
13134TIP3    H139345   8.080   4.590   3.278
13134TIP3    H239346   8.078   4.461   3.198
13135TIP3   OH239347   1.079   3.716   6.412
13135TIP3    H139348   1.114   3.731   6.499
13135TIP3    H239349   1.008   3.780   6.403
13136TIP3   OH239350   6.450   5.408   2.356
13136TIP3    H139351   6.490   5.488   2.321
13136TIP3    H239352   6.438   5.426   2.449
13137TIP3   OH239353   4.011   0.240   0.708
13137TIP3    H139354   3.994   0.191   0.789
13137TIP3    H239355   4.074   0.186   0.660
13138TIP3   OH239356   7.334   0.652   0.611
13138TIP3    H139357   7.378   0.697   0.539
13138TIP3    H239358   7.396   0.657   0.684
13139TIP3   OH239359   0.770   5.814   2.826
13139TIP3    H139360   0.822   5.843   2.751
13139TIP3    H239361   0.787   5.880   2.893
13140TIP3   OH239362   7.951   6.358   2.806
13140TIP3    H139363   7.893   6.383   2.734
13140TIP3    H239364   7.993   6.277   2.776
13141TIP3   OH239365   2.529   4.989   4.262
13141TIP3    H139366   2.585   5.066   4.258
13141TIP3    H239367   2.582   4.922   4.304
13142TIP3   OH239368   0.071   3.564   6.581
13142TIP3    H139369  -0.005   3.578   6.637
13142TIP3    H239370   0.146   3.573   6.640
13143TIP3   OH239371   0.078   2.700   1.609
13143TIP3    H139372   0.113   2.731   1.525
13143TIP3    H239373   0.148   2.715   1.672
13144TIP3   OH239374   6.398   4.074   3.850
13144TIP3    H139375   6.440   4.144   3.800
13144TIP3    H239376   6.335   4.035   3.789
13145TIP3   OH239377   8.122   7.166   5.889
13145TIP3    H139378   8.179   7.094   5.864
13145TIP3    H239379   8.036   7.143   5.854
13146TIP3   OH239380   8.189   6.753   2.460
13146TIP3    H139381   8.174   6.796   2.376
13146TIP3    H239382   8.138   6.672   2.455
13147TIP3   OH239383   7.735   6.218   3.186
13147TIP3    H139384   7.717   6.136   3.232
13147TIP3    H239385   7.811   6.255   3.231
13148TIP3   OH239386   2.364   4.986   1.974
13148TIP3    H139387   2.292   5.049   1.973
13148TIP3    H239388   2.418   5.010   1.898
13149TIP3   OH239389   5.673   0.295   5.815
13149TIP3    H139390   5.581   0.272   5.802
13149TIP3    H239391   5.721   0.217   5.788
13150TIP3   OH239392   5.078   4.193   3.668
13150TIP3    H139393   5.063   4.171   3.760
13150TIP3    H239394   5.077   4.109   3.622
13151TIP3   OH239395   2.548   3.863   4.937
13151TIP3    H139396   2.551   3.767   4.936
13151TIP3    H239397   2.591   3.887   5.019
13152TIP3   OH239398   8.140   5.887   6.528
13152TIP3    H139399   8.179   5.959   6.479
13152TIP3    H239400   8.061   5.924   6.568
13153TIP3   OH239401   0.307   0.549   1.235
13153TIP3    H139402   0.373   0.489   1.199
13153TIP3    H239403   0.261   0.582   1.158
13154TIP3   OH239404   2.444   0.682   2.777
13154TIP3    H139405   2.366   0.735   2.794
13154TIP3    H239406   2.443   0.616   2.847
13155TIP3   OH239407   3.220   7.236   3.385
13155TIP3    H139408   3.186   7.181   3.314
13155TIP3    H239409   3.152   7.234   3.452
13156TIP3   OH239410   4.887   3.858   6.332
13156TIP3    H139411   4.969   3.855   6.382
13156TIP3    H239412   4.849   3.943   6.355
13157TIP3   OH239413   5.889   3.843   5.728
13157TIP3    H139414   5.912   3.926   5.770
13157TIP3    H239415   5.965   3.787   5.740
13158TIP3   OH239416   8.108   3.290   3.533
13158TIP3    H139417   8.144   3.236   3.462
13158TIP3    H239418   8.013   3.289   3.517
13159TIP3   OH239419   0.725   1.530   1.143
13159TIP3    H139420   0.675   1.462   1.189
13159TIP3    H239421   0.714   1.510   1.050
13160TIP3   OH239422   4.241   6.916   4.875
13160TIP3    H139423   4.224   7.003   4.837
13160TIP3    H239424   4.156   6.889   4.910
13161TIP3   OH239425   7.946   3.814   4.947
13161TIP3    H139426   7.897   3.732   4.935
13161TIP3    H239427   8.027   3.801   4.898
13162TIP3   OH239428   7.485   6.572   5.987
13162TIP3    H139429   7.483   6.603   5.896
13162TIP3    H239430   7.508   6.479   5.980
13163TIP3   OH239431   1.356   4.422   1.123
13163TIP3    H139432   1.392   4.502   1.085
13163TIP3    H239433   1.407   4.409   1.204
13164TIP3   OH239434   1.894   2.767   4.793
13164TIP3    H139435   1.799   2.754   4.794
13164TIP3    H239436   1.930   2.679   4.808
13165TIP3   OH239437   1.359   2.366   4.474
13165TIP3    H139438   1.385   2.333   4.388
13165TIP3    H239439   1.269   2.335   4.485
13166TIP3   OH239440   8.022   2.018   0.762
13166TIP3    H139441   8.024   2.001   0.668
13166TIP3    H239442   7.977   1.942   0.800
13167TIP3   OH239443   4.960   0.810   3.460
13167TIP3    H139444   4.877   0.775   3.426
13167TIP3    H239445   4.940   0.834   3.550
13168TIP3   OH239446   3.707   3.483   3.267
13168TIP3    H139447   3.686   3.493   3.360
13168TIP3    H239448   3.626   3.451   3.228
13169TIP3   OH239449   0.982   4.868   4.224
13169TIP3    H139450   1.061   4.821   4.249
13169TIP3    H239451   0.991   4.881   4.129
13170TIP3   OH239452   3.712   7.165   1.441
13170TIP3    H139453   3.678   7.129   1.359
13170TIP3    H239454   3.726   7.258   1.423
13171TIP3   OH239455   2.924   4.855   2.598
13171TIP3    H139456   2.849   4.814   2.556
13171TIP3    H239457   2.888   4.899   2.675
13172TIP3   OH239458   4.376   5.949   0.573
13172TIP3    H139459   4.411   6.029   0.532
13172TIP3    H239460   4.368   5.972   0.665
13173TIP3   OH239461   5.031   7.579   6.463
13173TIP3    H139462   5.090   7.518   6.506
13173TIP3    H239463   5.014   7.539   6.377
13174TIP3   OH239464   0.736   1.777   5.122
13174TIP3    H139465   0.670   1.813   5.064
13174TIP3    H239466   0.803   1.742   5.064
13175TIP3   OH239467   2.966   6.779   5.154
13175TIP3    H139468   2.933   6.753   5.240
13175TIP3    H239469   2.887   6.800   5.104
13176TIP3   OH239470   4.547   0.467   1.768
13176TIP3    H139471   4.549   0.371   1.768
13176TIP3    H239472   4.563   0.492   1.859
13177TIP3   OH239473   1.645   5.775   2.947
13177TIP3    H139474   1.712   5.806   2.887
13177TIP3    H239475   1.629   5.849   3.005
13178TIP3   OH239476   6.665   1.908   1.840
13178TIP3    H139477   6.598   1.955   1.890
13178TIP3    H239478   6.617   1.839   1.794
13179TIP3   OH239479   7.309   3.332   2.598
13179TIP3    H139480   7.220   3.359   2.573
13179TIP3    H239481   7.313   3.240   2.572
13180TIP3   OH239482   3.813   5.517   4.197
13180TIP3    H139483   3.888   5.506   4.254
13180TIP3    H239484   3.821   5.606   4.163
13181TIP3   OH239485   7.545   2.626   4.522
13181TIP3    H139486   7.588   2.592   4.444
13181TIP3    H239487   7.486   2.694   4.489
13182TIP3   OH239488   3.984   4.154   4.440
13182TIP3    H139489   3.899   4.141   4.484
13182TIP3    H239490   3.993   4.078   4.383
13183TIP3   OH239491   0.845   5.018   6.633
13183TIP3    H139492   0.863   5.005   6.539
13183TIP3    H239493   0.753   4.994   6.644
13184TIP3   OH239494   3.123   6.542   0.930
13184TIP3    H139495   3.199   6.492   0.960
13184TIP3    H239496   3.125   6.534   0.834
13185TIP3   OH239497   4.021   2.605   3.640
13185TIP3    H139498   4.096   2.547   3.654
13185TIP3    H239499   4.014   2.614   3.545
13186TIP3   OH239500   3.286   7.108   1.868
13186TIP3    H139501   3.288   7.204   1.875
13186TIP3    H239502   3.247   7.079   1.950
13187TIP3   OH239503   5.103   0.876   1.810
13187TIP3    H139504   5.130   0.968   1.807
13187TIP3    H239505   5.163   0.831   1.750
13188TIP3   OH239506   1.793   5.435   0.725
13188TIP3    H139507   1.735   5.400   0.658
13188TIP3    H239508   1.800   5.366   0.790
13189TIP3   OH239509   1.121   4.933   4.882
13189TIP3    H139510   1.128   4.989   4.960
13189TIP3    H239511   1.157   4.987   4.811
13190TIP3   OH239512   3.392   2.144   1.451
13190TIP3    H139513   3.405   2.063   1.500
13190TIP3    H239514   3.312   2.128   1.401
13191TIP3   OH239515   7.412   7.088   2.252
13191TIP3    H139516   7.472   7.128   2.189
13191TIP3    H239517   7.360   7.161   2.286
13192TIP3   OH239518   5.590   6.488   5.183
13192TIP3    H139519   5.641   6.559   5.222
13192TIP3    H239520   5.634   6.408   5.212
13193TIP3   OH239521   2.190   3.015   5.298
13193TIP3    H139522   2.286   3.013   5.298
13193TIP3    H239523   2.165   2.925   5.321
13194TIP3   OH239524   6.332   6.111   6.378
13194TIP3    H139525   6.425   6.116   6.401
13194TIP3    H239526   6.331   6.121   6.283
13195TIP3   OH239527   7.429   6.971   5.082
13195TIP3    H139528   7.488   6.896   5.073
13195TIP3    H239529   7.447   7.024   5.005
13196TIP3   OH239530   6.248   1.859   2.061
13196TIP3    H139531   6.166   1.811   2.049
13196TIP3    H239532   6.271   1.889   1.973
13197TIP3   OH239533   3.159   4.621   5.281
13197TIP3    H139534   3.102   4.632   5.204
13197TIP3    H239535   3.101   4.635   5.356
13198TIP3   OH239536   6.537   7.606   5.461
13198TIP3    H139537   6.452   7.596   5.419
13198TIP3    H239538   6.580   7.521   5.449
13199TIP3   OH239539   3.985   6.526   5.917
13199TIP3    H139540   3.909   6.546   5.861
13199TIP3    H239541   3.981   6.592   5.987
13200TIP3   OH239542   0.155   4.952   1.357
13200TIP3    H139543   0.184   4.893   1.288
13200TIP3    H239544   0.158   5.039   1.317
13201TIP3   OH239545   2.584   5.051   1.792
13201TIP3    H139546   2.679   5.041   1.803
13201TIP3    H239547   2.568   5.144   1.806
13202TIP3   OH239548   5.015   1.582   1.169
13202TIP3    H139549   4.921   1.562   1.165
13202TIP3    H239550   5.037   1.615   1.082
13203TIP3   OH239551   2.205   4.421   3.416
13203TIP3    H139552   2.199   4.392   3.507
13203TIP3    H239553   2.163   4.352   3.366
13204TIP3   OH239554   5.972   3.177   3.846
13204TIP3    H139555   6.024   3.252   3.877
13204TIP3    H239556   5.912   3.159   3.919
13205TIP3   OH239557   2.224   6.008   5.182
13205TIP3    H139558   2.147   6.041   5.135
13205TIP3    H239559   2.205   6.028   5.274
13206TIP3   OH239560   6.696   4.307   6.183
13206TIP3    H139561   6.732   4.395   6.173
13206TIP3    H239562   6.632   4.299   6.112
13207TIP3   OH239563   6.780   1.164   3.023
13207TIP3    H139564   6.837   1.162   2.946
13207TIP3    H239565   6.707   1.221   2.999
13208TIP3   OH239566   4.946   0.517   1.828
13208TIP3    H139567   4.957   0.455   1.900
13208TIP3    H239568   4.908   0.595   1.869
13209TIP3   OH239569   2.343   5.505   1.844
13209TIP3    H139570   2.300   5.553   1.914
13209TIP3    H239571   2.385   5.572   1.790
13210TIP3   OH239572   3.809   7.187   0.572
13210TIP3    H139573   3.834   7.206   0.662
13210TIP3    H239574   3.858   7.108   0.549
13211TIP3   OH239575   7.160   6.239   4.953
13211TIP3    H139576   7.127   6.232   5.042
13211TIP3    H239577   7.222   6.167   4.944
13212TIP3   OH239578   1.676   6.114   4.153
13212TIP3    H139579   1.693   6.141   4.063
13212TIP3    H239580   1.752   6.060   4.177
13213TIP3   OH239581   7.998   5.071   1.673
13213TIP3    H139582   8.011   5.016   1.596
13213TIP3    H239583   7.917   5.038   1.713
13214TIP3   OH239584   7.021   7.461   2.217
13214TIP3    H139585   7.049   7.548   2.244
13214TIP3    H239586   6.927   7.460   2.235
13215TIP3   OH239587   7.633   2.171   2.028
13215TIP3    H139588   7.557   2.213   2.067
13215TIP3    H239589   7.707   2.201   2.080
13216TIP3   OH239590   3.316   6.099   1.506
13216TIP3    H139591   3.231   6.100   1.549
13216TIP3    H239592   3.308   6.031   1.439
13217TIP3   OH239593   0.133   4.653   6.748
13217TIP3    H139594   0.106   4.595   6.677
13217TIP3    H239595   0.129   4.599   6.827
13218TIP3   OH239596   3.939   6.782   3.033
13218TIP3    H139597   3.954   6.706   2.976
13218TIP3    H239598   3.844   6.783   3.045
13219TIP3   OH239599   7.522   1.408   4.290
13219TIP3    H139600   7.607   1.369   4.273
13219TIP3    H239601   7.493   1.440   4.205
13220TIP3   OH239602   7.211   2.842   2.960
13220TIP3    H139603   7.212   2.907   2.890
13220TIP3    H239604   7.297   2.800   2.956
13221TIP3   OH239605   2.674   6.336   5.175
13221TIP3    H139606   2.608   6.279   5.214
13221TIP3    H239607   2.740   6.276   5.142
13222TIP3   OH239608   2.689   0.119   3.214
13222TIP3    H139609   2.622   0.056   3.242
13222TIP3    H239610   2.673   0.197   3.267
13223TIP3   OH239611   7.598   6.508   1.453
13223TIP3    H139612   7.648   6.559   1.516
13223TIP3    H239613   7.644   6.522   1.370
13224TIP3   OH239614   1.379   6.690   1.300
13224TIP3    H139615   1.361   6.655   1.212
13224TIP3    H239616   1.470   6.668   1.316
13225TIP3   OH239617   3.641   2.742   4.402
13225TIP3    H139618   3.688   2.692   4.335
13225TIP3    H239619   3.616   2.823   4.358
13226TIP3   OH239620   6.645   7.500   3.333
13226TIP3    H139621   6.634   7.452   3.415
13226TIP3    H239622   6.563   7.487   3.285
13227TIP3   OH239623   0.674   5.910   4.649
13227TIP3    H139624   0.589   5.951   4.637
13227TIP3    H239625   0.692   5.919   4.743
13228TIP3   OH239626   3.921   2.190   1.980
13228TIP3    H139627   3.990   2.254   1.966
13228TIP3    H239628   3.946   2.146   2.061
13229TIP3   OH239629   7.943   2.899   0.689
13229TIP3    H139630   8.012   2.856   0.740
13229TIP3    H239631   7.983   2.919   0.605
13230TIP3   OH239632   1.943   6.586   6.637
13230TIP3    H139633   1.952   6.558   6.546
13230TIP3    H239634   2.015   6.648   6.650
13231TIP3   OH239635   2.346   0.862   0.054
13231TIP3    H139636   2.297   0.781   0.041
13231TIP3    H239637   2.416   0.839   0.115
13232TIP3   OH239638   4.721   1.092   4.522
13232TIP3    H139639   4.634   1.057   4.536
13232TIP3    H239640   4.707   1.170   4.467
13233TIP3   OH239641   7.093   2.990   5.977
13233TIP3    H139642   7.067   2.974   5.886
13233TIP3    H239643   7.156   2.921   5.996
13234TIP3   OH239644   4.235   3.444   6.580
13234TIP3    H139645   4.320   3.409   6.606
13234TIP3    H239646   4.198   3.479   6.660
13235TIP3   OH239647   2.094   2.333   3.442
13235TIP3    H139648   2.001   2.347   3.428
13235TIP3    H239649   2.106   2.343   3.537
13236TIP3   OH239650   2.000   0.661   1.553
13236TIP3    H139651   1.977   0.590   1.492
13236TIP3    H239652   1.988   0.622   1.640
13237TIP3   OH239653   0.085   3.697   2.820
13237TIP3    H139654   0.132   3.661   2.895
13237TIP3    H239655   0.152   3.709   2.753
13238TIP3   OH239656   2.367   3.644   4.019
13238TIP3    H139657   2.428   3.708   4.056
13238TIP3    H239658   2.294   3.696   3.987
13239TIP3   OH239659   5.135   1.550   4.952
13239TIP3    H139660   5.088   1.611   4.895
13239TIP3    H239661   5.084   1.470   4.949
13240TIP3   OH239662   4.378   2.015   5.482
13240TIP3    H139663   4.441   1.979   5.544
13240TIP3    H239664   4.396   1.969   5.400
13241TIP3   OH239665   0.614   1.978   0.295
13241TIP3    H139666   0.665   1.898   0.288
13241TIP3    H239667   0.645   2.032   0.223
13242TIP3   OH239668   7.354   1.888   4.323
13242TIP3    H139669   7.280   1.885   4.262
13242TIP3    H239670   7.430   1.861   4.270
13243TIP3   OH239671   6.993   7.516   3.687
13243TIP3    H139672   6.984   7.516   3.591
13243TIP3    H239673   7.082   7.482   3.703
13244TIP3   OH239674   6.796   0.114   0.115
13244TIP3    H139675   6.712   0.156   0.097
13244TIP3    H239676   6.808   0.121   0.209
13245TIP3   OH239677   7.716   0.531   4.376
13245TIP3    H139678   7.641   0.547   4.319
13245TIP3    H239679   7.681   0.540   4.465
13246TIP3   OH239680   6.707   6.504   6.075
13246TIP3    H139681   6.654   6.554   6.014
13246TIP3    H239682   6.789   6.554   6.083
13247TIP3   OH239683   2.497   3.509   1.687
13247TIP3    H139684   2.494   3.604   1.675
13247TIP3    H239685   2.435   3.474   1.623
13248TIP3   OH239686   4.434   6.791   0.827
13248TIP3    H139687   4.493   6.721   0.800
13248TIP3    H239688   4.492   6.858   0.864
13249TIP3   OH239689   5.800   5.571   5.453
13249TIP3    H139690   5.870   5.507   5.460
13249TIP3    H239691   5.808   5.605   5.363
13250TIP3   OH239692   2.123   1.749   0.541
13250TIP3    H139693   2.098   1.830   0.586
13250TIP3    H239694   2.043   1.696   0.543
13251TIP3   OH239695   2.427   0.223   6.402
13251TIP3    H139696   2.515   0.261   6.407
13251TIP3    H239697   2.378   0.269   6.470
13252TIP3   OH239698   6.506   7.419   5.082
13252TIP3    H139699   6.586   7.407   5.031
13252TIP3    H239700   6.467   7.499   5.048
13253TIP3   OH239701   3.817   2.448   6.160
13253TIP3    H139702   3.797   2.412   6.247
13253TIP3    H239703   3.906   2.419   6.142
13254TIP3   OH239704   0.860   6.526   4.937
13254TIP3    H139705   0.934   6.552   4.991
13254TIP3    H239706   0.891   6.450   4.888
13255TIP3   OH239707   6.402   6.127   2.019
13255TIP3    H139708   6.469   6.092   1.959
13255TIP3    H239709   6.366   6.203   1.973
13256TIP3   OH239710   1.272   6.541   5.464
13256TIP3    H139711   1.232   6.623   5.435
13256TIP3    H239712   1.208   6.502   5.524
13257TIP3   OH239713   3.522   0.990   5.548
13257TIP3    H139714   3.466   0.993   5.471
13257TIP3    H239715   3.484   1.054   5.608
13258TIP3   OH239716   0.627   0.626   6.691
13258TIP3    H139717   0.569   0.637   6.766
13258TIP3    H239718   0.660   0.714   6.672
13259TIP3   OH239719   0.940   0.661   4.082
13259TIP3    H139720   0.928   0.580   4.131
13259TIP3    H239721   0.875   0.656   4.012
13260TIP3   OH239722   0.433   4.088   4.975
13260TIP3    H139723   0.449   4.159   4.913
13260TIP3    H239724   0.440   4.008   4.922
13261TIP3   OH239725   6.975   1.349   3.083
13261TIP3    H139726   6.913   1.277   3.090
13261TIP3    H239727   6.923   1.427   3.098
13262TIP3   OH239728   6.826   1.584   3.122
13262TIP3    H139729   6.873   1.628   3.193
13262TIP3    H239730   6.758   1.533   3.165
13263TIP3   OH239731   4.794   0.886   5.957
13263TIP3    H139732   4.757   0.936   5.884
13263TIP3    H239733   4.855   0.946   6.000
13264TIP3   OH239734   8.041   4.573   6.549
13264TIP3    H139735   8.022   4.571   6.643
13264TIP3    H239736   8.070   4.484   6.528
13265TIP3   OH239737   1.782   6.322   0.626
13265TIP3    H139738   1.815   6.288   0.543
13265TIP3    H239739   1.832   6.403   0.640
13266TIP3   OH239740   4.962   3.020   1.979
13266TIP3    H139741   5.041   3.073   1.966
13266TIP3    H239742   4.890   3.079   1.955
13267TIP3   OH239743   6.731   3.846   6.641
13267TIP3    H139744   6.658   3.908   6.639
13267TIP3    H239745   6.704   3.774   6.585
13268TIP3   OH239746   1.574   0.897   3.626
13268TIP3    H139747   1.664   0.902   3.591
13268TIP3    H239748   1.581   0.839   3.701
13269TIP3   OH239749   6.183   0.548   6.453
13269TIP3    H139750   6.088   0.560   6.455
13269TIP3    H239751   6.215   0.594   6.531
13270TIP3   OH239752   5.197   6.855   6.501
13270TIP3    H139753   5.194   6.871   6.407
13270TIP3    H239754   5.209   6.760   6.509
13271TIP3   OH239755   1.772   0.258   6.153
13271TIP3    H139756   1.704   0.197   6.181
13271TIP3    H239757   1.829   0.206   6.097
13272TIP3   OH239758   1.234   7.084   1.006
13272TIP3    H139759   1.250   7.125   1.091
13272TIP3    H239760   1.228   6.990   1.025
13273TIP3   OH239761   0.913   4.800   0.836
13273TIP3    H139762   0.935   4.725   0.781
13273TIP3    H239763   0.965   4.872   0.800
13274TIP3   OH239764   3.682   1.963   1.421
13274TIP3    H139765   3.693   1.977   1.515
13274TIP3    H239766   3.627   1.885   1.415
13275TIP3   OH239767   4.008   6.805   2.607
13275TIP3    H139768   4.076   6.779   2.668
13275TIP3    H239769   4.045   6.786   2.521
13276TIP3   OH239770   6.383   2.045   6.057
13276TIP3    H139771   6.310   1.984   6.046
13276TIP3    H239772   6.354   2.105   6.125
13277TIP3   OH239773   3.509   6.430   4.159
13277TIP3    H139774   3.554   6.489   4.098
13277TIP3    H239775   3.507   6.479   4.241
13278TIP3   OH239776   1.595   6.091   4.427
13278TIP3    H139777   1.640   6.113   4.345
13278TIP3    H239778   1.587   5.996   4.426
13279TIP3   OH239779   7.877   0.004   2.231
13279TIP3    H139780   7.897   0.005   2.325
13279TIP3    H239781   7.928  -0.069   2.196
13280TIP3   OH239782   7.367   1.023   2.871
13280TIP3    H139783   7.372   1.018   2.966
13280TIP3    H239784   7.377   0.932   2.841
13281TIP3   OH239785   7.681   4.434   6.684
13281TIP3    H139786   7.751   4.466   6.627
13281TIP3    H239787   7.603   4.438   6.629
13282TIP3   OH239788   2.571   5.979   4.938
13282TIP3    H139789   2.584   5.962   4.845
13282TIP3    H239790   2.602   5.899   4.982
13283TIP3   OH239791   5.794   5.493   2.407
13283TIP3    H139792   5.855   5.420   2.410
13283TIP3    H239793   5.712   5.458   2.440
13284TIP3   OH239794   5.791   4.991   0.287
13284TIP3    H139795   5.745   5.034   0.215
13284TIP3    H239796   5.766   5.042   0.364
13285TIP3   OH239797   5.789   4.958   4.452
13285TIP3    H139798   5.734   5.018   4.401
13285TIP3    H239799   5.743   4.875   4.450
13286TIP3   OH239800   7.239   1.361   4.000
13286TIP3    H139801   7.304   1.315   4.052
13286TIP3    H239802   7.155   1.337   4.038
13287TIP3   OH239803   2.176   4.845   6.286
13287TIP3    H139804   2.163   4.926   6.236
13287TIP3    H239805   2.178   4.776   6.220
13288TIP3   OH239806   4.954   3.054   2.749
13288TIP3    H139807   4.933   3.077   2.658
13288TIP3    H239808   4.879   3.087   2.799
13289TIP3   OH239809   5.375   3.483   2.968
13289TIP3    H139810   5.337   3.472   2.881
13289TIP3    H239811   5.453   3.538   2.954
13290TIP3   OH239812   0.624   0.142   4.480
13290TIP3    H139813   0.555   0.199   4.447
13290TIP3    H239814   0.606   0.057   4.439
13291TIP3   OH239815   1.491   7.348   5.749
13291TIP3    H139816   1.556   7.323   5.815
13291TIP3    H239817   1.537   7.342   5.666
13292TIP3   OH239818   8.273   5.591   5.832
13292TIP3    H139819   8.181   5.608   5.850
13292TIP3    H239820   8.304   5.545   5.910
13293TIP3   OH239821   2.946   3.322   5.317
13293TIP3    H139822   2.970   3.309   5.409
13293TIP3    H239823   2.980   3.245   5.272
13294TIP3   OH239824   6.009   5.271   1.793
13294TIP3    H139825   5.967   5.301   1.874
13294TIP3    H239826   5.951   5.204   1.760
13295TIP3   OH239827   4.926   1.290   5.708
13295TIP3    H139828   4.858   1.299   5.642
13295TIP3    H239829   5.008   1.295   5.659
13296TIP3   OH239830   7.645   6.635   3.729
13296TIP3    H139831   7.584   6.574   3.687
13296TIP3    H239832   7.588   6.696   3.776
13297TIP3   OH239833   8.175   3.525   2.560
13297TIP3    H139834   8.267   3.498   2.561
13297TIP3    H239835   8.126   3.443   2.557
13298TIP3   OH239836   3.343   6.675   6.741
13298TIP3    H139837   3.261   6.705   6.780
13298TIP3    H239838   3.390   6.756   6.719
13299TIP3   OH239839   5.141   6.211   4.612
13299TIP3    H139840   5.050   6.190   4.630
13299TIP3    H239841   5.141   6.304   4.591
13300TIP3   OH239842   1.080   3.710   5.146
13300TIP3    H139843   1.073   3.697   5.240
13300TIP3    H239844   1.147   3.648   5.117
13301TIP3   OH239845   5.399   3.727   5.808
13301TIP3    H139846   5.452   3.653   5.777
13301TIP3    H239847   5.459   3.801   5.804
13302TIP3   OH239848   0.495   2.641   4.079
13302TIP3    H139849   0.449   2.714   4.037
13302TIP3    H239850   0.568   2.622   4.019
13303TIP3   OH239851   3.238   2.705   3.499
13303TIP3    H139852   3.191   2.763   3.438
13303TIP3    H239853   3.274   2.636   3.443
13304TIP3   OH239854   4.156   4.531   5.321
13304TIP3    H139855   4.066   4.564   5.328
13304TIP3    H239856   4.183   4.553   5.232
13305TIP3   OH239857   1.393   5.552   1.437
13305TIP3    H139858   1.444   5.626   1.404
13305TIP3    H239859   1.444   5.518   1.510
13306TIP3   OH239860   4.696   2.118   2.324
13306TIP3    H139861   4.689   2.023   2.316
13306TIP3    H239862   4.633   2.141   2.392
13307TIP3   OH239863   1.347   3.173   3.584
13307TIP3    H139864   1.278   3.237   3.564
13307TIP3    H239865   1.427   3.212   3.549
13308TIP3   OH239866   1.163   5.053   1.132
13308TIP3    H139867   1.077   5.084   1.161
13308TIP3    H239868   1.165   4.961   1.158
13309TIP3   OH239869   0.800   6.902   3.351
13309TIP3    H139870   0.788   6.864   3.438
13309TIP3    H239871   0.733   6.970   3.345
13310TIP3   OH239872   7.549   2.847   2.077
13310TIP3    H139873   7.461   2.836   2.043
13310TIP3    H239874   7.592   2.763   2.059
13311TIP3   OH239875   2.110   0.684   0.048
13311TIP3    H139876   2.041   0.710  -0.014
13311TIP3    H239877   2.078   0.717   0.133
13312TIP3   OH239878   3.286   5.516   5.450
13312TIP3    H139879   3.357   5.503   5.513
13312TIP3    H239880   3.216   5.460   5.482
13313TIP3   OH239881   0.765   3.143   0.585
13313TIP3    H139882   0.682   3.115   0.625
13313TIP3    H239883   0.739   3.185   0.503
13314TIP3   OH239884   2.508   1.909   5.716
13314TIP3    H139885   2.523   1.894   5.809
13314TIP3    H239886   2.555   1.838   5.672
13315TIP3   OH239887   0.219   6.381   3.520
13315TIP3    H139888   0.155   6.343   3.459
13315TIP3    H239889   0.303   6.345   3.492
13316TIP3   OH239890   6.668   4.592   0.252
13316TIP3    H139891   6.739   4.584   0.316
13316TIP3    H239892   6.692   4.668   0.199
13317TIP3   OH239893   7.860   7.685   3.819
13317TIP3    H139894   7.775   7.660   3.782
13317TIP3    H239895   7.917   7.610   3.803
13318TIP3   OH239896   1.291   4.887   0.236
13318TIP3    H139897   1.273   4.934   0.317
13318TIP3    H239898   1.332   4.952   0.179
13319TIP3   OH239899   4.869   4.100   2.785
13319TIP3    H139900   4.780   4.120   2.753
13319TIP3    H239901   4.879   4.006   2.770
13320TIP3   OH239902   1.580   1.421   5.199
13320TIP3    H139903   1.559   1.331   5.174
13320TIP3    H239904   1.568   1.472   5.118
13321TIP3   OH239905   8.091   0.183   2.112
13321TIP3    H139906   8.122   0.178   2.202
13321TIP3    H239907   8.119   0.270   2.082
13322TIP3   OH239908   1.741   3.525   1.165
13322TIP3    H139909   1.776   3.531   1.254
13322TIP3    H239910   1.660   3.475   1.175
13323TIP3   OH239911   0.289   2.642   0.432
13323TIP3    H139912   0.219   2.603   0.379
13323TIP3    H239913   0.365   2.644   0.374
13324TIP3   OH239914   2.935   2.270   2.548
13324TIP3    H139915   2.940   2.336   2.617
13324TIP3    H239916   2.994   2.303   2.480
13325TIP3   OH239917   7.181   4.461   2.905
13325TIP3    H139918   7.163   4.510   2.824
13325TIP3    H239919   7.160   4.523   2.975
13326TIP3   OH239920   0.316   3.966   3.494
13326TIP3    H139921   0.249   4.024   3.528
13326TIP3    H239922   0.280   3.878   3.506
13327TIP3   OH239923   6.590   6.873   6.606
13327TIP3    H139924   6.530   6.811   6.649
13327TIP3    H239925   6.565   6.959   6.640
13328TIP3   OH239926   0.589   1.780   5.865
13328TIP3    H139927   0.575   1.772   5.959
13328TIP3    H239928   0.649   1.854   5.856
13329TIP3   OH239929   4.357   1.372   6.336
13329TIP3    H139930   4.311   1.452   6.361
13329TIP3    H239931   4.416   1.354   6.409
13330TIP3   OH239932   3.012   6.149   0.260
13330TIP3    H139933   3.097   6.135   0.302
13330TIP3    H239934   3.029   6.135   0.167
13331TIP3   OH239935   6.857   3.321   3.329
13331TIP3    H139936   6.815   3.256   3.273
13331TIP3    H239937   6.874   3.395   3.270
13332TIP3   OH239938   4.016   3.302   3.980
13332TIP3    H139939   3.933   3.278   3.939
13332TIP3    H239940   3.996   3.302   4.074
13333TIP3   OH239941   0.460   6.944   4.125
13333TIP3    H139942   0.376   6.916   4.160
13333TIP3    H239943   0.443   6.963   4.033
13334TIP3   OH239944   7.095   3.786   1.992
13334TIP3    H139945   7.173   3.825   1.951
13334TIP3    H239946   7.118   3.778   2.084
13335TIP3   OH239947   0.778   1.779   3.947
13335TIP3    H139948   0.745   1.690   3.942
13335TIP3    H239949   0.843   1.785   3.876
13336TIP3   OH239950   0.991   7.655   1.555
13336TIP3    H139951   0.974   7.562   1.543
13336TIP3    H239952   0.921   7.699   1.507
13337TIP3   OH239953   1.189   5.354   6.434
13337TIP3    H139954   1.231   5.369   6.519
13337TIP3    H239955   1.097   5.342   6.454
13338TIP3   OH239956   8.102   1.878   5.023
13338TIP3    H139957   8.196   1.894   5.022
13338TIP3    H239958   8.081   1.864   5.115
13339TIP3   OH239959   5.767   6.306   0.181
13339TIP3    H139960   5.735   6.348   0.260
13339TIP3    H239961   5.860   6.290   0.198
13340TIP3   OH239962   1.035   5.976   1.067
13340TIP3    H139963   1.101   6.044   1.079
13340TIP3    H239964   1.079   5.910   1.013
13341TIP3   OH239965   0.276   5.950   2.854
13341TIP3    H139966   0.278   6.044   2.841
13341TIP3    H239967   0.358   5.918   2.815
13342TIP3   OH239968   5.692   5.578   2.735
13342TIP3    H139969   5.620   5.570   2.672
13342TIP3    H239970   5.663   5.528   2.811
13343TIP3   OH239971   6.433   5.560   3.658
13343TIP3    H139972   6.443   5.598   3.571
13343TIP3    H239973   6.405   5.470   3.642
13344TIP3   OH239974   2.704   5.456   3.730
13344TIP3    H139975   2.708   5.471   3.824
13344TIP3    H239976   2.656   5.374   3.722
13345TIP3   OH239977   7.811   1.995   4.974
13345TIP3    H139978   7.807   2.085   5.004
13345TIP3    H239979   7.738   1.986   4.914
13346TIP3   OH239980   0.845   4.548   6.656
13346TIP3    H139981   0.834   4.473   6.598
13346TIP3    H239982   0.930   4.535   6.698
13347TIP3   OH239983   3.930   6.077   2.168
13347TIP3    H139984   3.986   6.000   2.174
13347TIP3    H239985   3.910   6.100   2.259
13348TIP3   OH239986   1.914   6.933   0.283
13348TIP3    H139987   1.896   6.997   0.215
13348TIP3    H239988   2.010   6.933   0.291
13349TIP3   OH239989   3.551   5.742   0.015
13349TIP3    H139990   3.560   5.650   0.039
13349TIP3    H239991   3.621   5.787   0.062
13350TIP3   OH239992   1.841   0.420   1.289
13350TIP3    H139993   1.859   0.364   1.364
13350TIP3    H239994   1.920   0.474   1.280
13351TIP3   OH239995   4.876   3.049   4.771
13351TIP3    H139996   4.851   2.990   4.843
13351TIP3    H239997   4.794   3.068   4.726
13352TIP3   OH239998   7.410   5.025   6.045
13352TIP3    H139999   7.322   5.052   6.021
13352TIP3    H240000   7.467   5.073   5.985
13353TIP3   OH240001   4.449   2.424   5.207
13353TIP3    H140002   4.463   2.505   5.256
13353TIP3    H240003   4.531   2.409   5.160
13354TIP3   OH240004   6.950   5.693   4.098
13354TIP3    H140005   6.935   5.612   4.148
13354TIP3    H240006   7.040   5.685   4.067
13355TIP3   OH240007   8.228   1.337   5.782
13355TIP3    H140008   8.304   1.357   5.837
13355TIP3    H240009   8.199   1.421   5.749
13356TIP3   OH240010   1.625   4.715   3.624
13356TIP3    H140011   1.707   4.667   3.628
13356TIP3    H240012   1.614   4.751   3.712
13357TIP3   OH240013   8.058   7.037   1.526
13357TIP3    H140014   8.137   7.046   1.580
13357TIP3    H240015   8.031   7.127   1.507
13358TIP3   OH240016   4.428   6.491   1.584
13358TIP3    H140017   4.397   6.403   1.564
13358TIP3    H240018   4.510   6.500   1.535
13359TIP3   OH240019   0.545   6.622   5.411
13359TIP3    H140020   0.601   6.546   5.397
13359TIP3    H240021   0.587   6.670   5.482
13360TIP3   OH240022   6.122   6.097   0.274
13360TIP3    H140023   6.131   6.032   0.204
13360TIP3    H240024   6.121   6.181   0.229
13361TIP3   OH240025   7.045   3.227   3.507
13361TIP3    H140026   7.070   3.151   3.454
13361TIP3    H240027   6.988   3.279   3.450
13362TIP3   OH240028   6.868   6.353   4.370
13362TIP3    H140029   6.949   6.378   4.414
13362TIP3    H240030   6.891   6.274   4.320
13363TIP3   OH240031   4.959   1.103   5.875
13363TIP3    H140032   5.051   1.126   5.884
13363TIP3    H240033   4.926   1.162   5.807
13364TIP3   OH240034   6.915   1.569   4.892
13364TIP3    H140035   6.852   1.507   4.929
13364TIP3    H240036   6.891   1.575   4.799
13365TIP3   OH240037   6.235   4.757   0.976
13365TIP3    H140038   6.203   4.765   1.066
13365TIP3    H240039   6.304   4.824   0.969
13366TIP3   OH240040   1.168   7.243   6.190
13366TIP3    H140041   1.258   7.273   6.205
13366TIP3    H240042   1.124   7.260   6.273
13367TIP3   OH240043   6.230   5.583   2.888
13367TIP3    H140044   6.209   5.493   2.912
13367TIP3    H240045   6.288   5.575   2.813
13368TIP3   OH240046   4.682   5.736   6.194
13368TIP3    H140047   4.723   5.767   6.113
13368TIP3    H240048   4.603   5.689   6.166
13369TIP3   OH240049   6.616   0.239   5.458
13369TIP3    H140050   6.566   0.177   5.510
13369TIP3    H240051   6.626   0.196   5.373
13370TIP3   OH240052   6.681   2.039   2.445
13370TIP3    H140053   6.725   2.014   2.364
13370TIP3    H240054   6.709   1.973   2.508
13371TIP3   OH240055   4.382   3.420   1.005
13371TIP3    H140056   4.331   3.369   1.068
13371TIP3    H240057   4.413   3.495   1.056
13372TIP3   OH240058   0.606   0.681   3.642
13372TIP3    H140059   0.608   0.588   3.619
13372TIP3    H240060   0.514   0.701   3.657
13373TIP3   OH240061   4.925  -0.015   2.328
13373TIP3    H140062   4.986   0.056   2.307
13373TIP3    H240063   4.852  -0.002   2.267
13374TIP3   OH240064   0.979   4.916   2.919
13374TIP3    H140065   0.928   4.861   2.859
13374TIP3    H240066   1.069   4.904   2.890
13375TIP3   OH240067   4.115   6.555   5.290
13375TIP3    H140068   4.084   6.588   5.206
13375TIP3    H240069   4.045   6.497   5.320
13376TIP3   OH240070   8.309   0.048   0.669
13376TIP3    H140071   8.304   0.097   0.752
13376TIP3    H240072   8.256  -0.030   0.685
13377TIP3   OH240073   1.405   2.064   1.896
13377TIP3    H140074   1.342   2.052   1.826
13377TIP3    H240075   1.380   2.000   1.962
13378TIP3   OH240076   0.227   1.388   4.545
13378TIP3    H140077   0.236   1.447   4.619
13378TIP3    H240078   0.169   1.319   4.577
13379TIP3   OH240079   0.864   1.525   3.504
13379TIP3    H140080   0.881   1.457   3.569
13379TIP3    H240081   0.802   1.584   3.546
13380TIP3   OH240082   0.069   2.702   4.263
13380TIP3    H140083   0.086   2.682   4.171
13380TIP3    H240084   0.147   2.674   4.309
13381TIP3   OH240085   4.916   7.760   5.285
13381TIP3    H140086   5.007   7.782   5.265
13381TIP3    H240087   4.873   7.846   5.293
13382TIP3   OH240088   6.470   7.566   4.146
13382TIP3    H140089   6.521   7.498   4.190
13382TIP3    H240090   6.486   7.645   4.197
13383TIP3   OH240091   3.047   6.465   4.869
13383TIP3    H140092   3.099   6.385   4.875
13383TIP3    H240093   3.095   6.522   4.809
13384TIP3   OH240094   4.634   6.355   5.969
13384TIP3    H140095   4.565   6.354   6.035
13384TIP3    H240096   4.711   6.387   6.015
13385TIP3   OH240097   5.703   6.599   3.556
13385TIP3    H140098   5.697   6.646   3.640
13385TIP3    H240099   5.616   6.609   3.517
13386TIP3   OH240100   6.833   6.296   6.250
13386TIP3    H140101   6.916   6.274   6.208
13386TIP3    H240102   6.778   6.328   6.179
13387TIP3   OH240103   1.253   0.620   5.486
13387TIP3    H140104   1.168   0.598   5.524
13387TIP3    H240105   1.301   0.662   5.556
13388TIP3   OH240106   1.674   0.895   2.683
13388TIP3    H140107   1.737   0.906   2.611
13388TIP3    H240108   1.622   0.976   2.681
13389TIP3   OH240109   0.039   0.752   4.566
13389TIP3    H140110   0.066   0.662   4.547
13389TIP3    H240111   0.015   0.751   4.659
13390TIP3   OH240112   2.209   3.144   0.468
13390TIP3    H140113   2.217   3.050   0.452
13390TIP3    H240114   2.289   3.181   0.431
13391TIP3   OH240115   4.461   4.913   2.542
13391TIP3    H140116   4.492   5.003   2.538
13391TIP3    H240117   4.470   4.880   2.453
13392TIP3   OH240118   7.025   1.783   2.163
13392TIP3    H140119   7.114   1.801   2.133
13392TIP3    H240120   7.023   1.688   2.175
13393TIP3   OH240121   5.178   4.969   6.047
13393TIP3    H140122   5.129   5.051   6.046
13393TIP3    H240123   5.118   4.905   6.009
13394TIP3   OH240124   5.631   4.695   5.579
13394TIP3    H140125   5.713   4.650   5.598
13394TIP3    H240126   5.641   4.781   5.620
13395TIP3   OH240127   8.126   1.048   4.723
13395TIP3    H140128   8.143   1.069   4.631
13395TIP3    H240129   8.066   0.974   4.721
13396TIP3   OH240130   1.672   2.549   5.454
13396TIP3    H140131   1.706   2.474   5.404
13396TIP3    H240132   1.597   2.580   5.403
13397TIP3   OH240133   5.499   0.879   2.018
13397TIP3    H140134   5.478   0.891   1.925
13397TIP3    H240135   5.491   0.785   2.032
13398TIP3   OH240136   2.402   4.386   0.064
13398TIP3    H140137   2.370   4.317   0.121
13398TIP3    H240138   2.392   4.466   0.115
13399TIP3   OH240139   1.997   7.276   5.277
13399TIP3    H140140   2.037   7.224   5.208
13399TIP3    H240141   1.983   7.215   5.349
13400TIP3   OH240142   0.581   2.610   2.291
13400TIP3    H140143   0.516   2.657   2.239
13400TIP3    H240144   0.610   2.539   2.233
13401TIP3   OH240145   6.584   6.439   4.822
13401TIP3    H140146   6.537   6.521   4.835
13401TIP3    H240147   6.637   6.429   4.901
13402TIP3   OH240148   1.929   4.696   2.180
13402TIP3    H140149   1.907   4.650   2.098
13402TIP3    H240150   1.896   4.785   2.167
13403TIP3   OH240151   2.450   0.197   1.449
13403TIP3    H140152   2.475   0.136   1.518
13403TIP3    H240153   2.485   0.159   1.368
13404TIP3   OH240154   1.511   4.299   4.315
13404TIP3    H140155   1.603   4.323   4.309
13404TIP3    H240156   1.474   4.326   4.231
13405TIP3   OH240157   6.822   5.532   1.071
13405TIP3    H140158   6.894   5.504   1.128
13405TIP3    H240159   6.864   5.558   0.990
13406TIP3   OH240160   4.822   7.506   2.540
13406TIP3    H140161   4.736   7.549   2.534
13406TIP3    H240162   4.862   7.522   2.454
13407TIP3   OH240163   7.247   3.392   6.247
13407TIP3    H140164   7.159   3.402   6.211
13407TIP3    H240165   7.255   3.299   6.268
13408TIP3   OH240166   3.988   7.561   1.387
13408TIP3    H140167   4.008   7.478   1.430
13408TIP3    H240168   3.895   7.576   1.405
13409TIP3   OH240169   2.655   4.338   4.646
13409TIP3    H140170   2.678   4.300   4.561
13409TIP3    H240171   2.644   4.263   4.703
13410TIP3   OH240172   4.147   4.893   1.612
13410TIP3    H140173   4.082   4.961   1.593
13410TIP3    H240174   4.217   4.939   1.658
13411TIP3   OH240175   0.449   0.737   5.823
13411TIP3    H140176   0.416   0.827   5.825
13411TIP3    H240177   0.510   0.732   5.896
13412TIP3   OH240178   5.337   2.728   4.347
13412TIP3    H140179   5.429   2.749   4.333
13412TIP3    H240180   5.296   2.740   4.261
13413TIP3   OH240181   1.768   3.693   3.566
13413TIP3    H140182   1.728   3.623   3.616
13413TIP3    H240183   1.808   3.648   3.491
13414TIP3   OH240184   2.637   6.625   3.013
13414TIP3    H140185   2.581   6.637   3.089
13414TIP3    H240186   2.665   6.713   2.989
13415TIP3   OH240187   7.153   3.365   2.004
13415TIP3    H140188   7.181   3.431   2.068
13415TIP3    H240189   7.079   3.321   2.046
13416TIP3   OH240190   1.801   4.358   1.831
13416TIP3    H140191   1.714   4.341   1.794
13416TIP3    H240192   1.833   4.271   1.855
13417TIP3   OH240193   3.954   5.710   2.778
13417TIP3    H140194   3.988   5.734   2.692
13417TIP3    H240195   3.997   5.770   2.839
13418TIP3   OH240196   7.557   1.344   0.832
13418TIP3    H140197   7.610   1.323   0.754
13418TIP3    H240198   7.470   1.312   0.811
13419TIP3   OH240199   5.203   0.409   1.569
13419TIP3    H140200   5.289   0.404   1.527
13419TIP3    H240201   5.148   0.456   1.507
13420TIP3   OH240202   7.104   2.687   4.001
13420TIP3    H140203   7.063   2.674   4.086
13420TIP3    H240204   7.083   2.607   3.952
13421TIP3   OH240205   6.498   5.502   0.708
13421TIP3    H140206   6.441   5.520   0.633
13421TIP3    H240207   6.571   5.452   0.670
13422TIP3   OH240208   6.908   5.042   5.813
13422TIP3    H140209   6.837   4.981   5.793
13422TIP3    H240210   6.868   5.129   5.809
13423TIP3   OH240211   0.253   1.886   2.738
13423TIP3    H140212   0.233   1.899   2.645
13423TIP3    H240213   0.200   1.811   2.764
13424TIP3   OH240214   7.936   5.353   3.325
13424TIP3    H140215   7.871   5.358   3.395
13424TIP3    H240216   7.927   5.436   3.278
13425TIP3   OH240217   0.466   2.863   1.368
13425TIP3    H140218   0.459   2.957   1.348
13425TIP3    H240219   0.541   2.833   1.318
13426TIP3   OH240220   1.517   7.746   3.417
13426TIP3    H140221   1.516   7.688   3.494
13426TIP3    H240222   1.575   7.818   3.442
13427TIP3   OH240223   1.117   2.710   4.405
13427TIP3    H140224   1.166   2.686   4.326
13427TIP3    H240225   1.078   2.627   4.435
13428TIP3   OH240226   0.984   7.010   2.943
13428TIP3    H140227   1.069   7.003   2.986
13428TIP3    H240228   0.959   7.102   2.954
13429TIP3   OH240229   3.675   0.101   1.240
13429TIP3    H140230   3.633   0.070   1.320
13429TIP3    H240231   3.759   0.055   1.238
13430TIP3   OH240232   7.213   0.219   0.585
13430TIP3    H140233   7.285   0.281   0.595
13430TIP3    H240234   7.158   0.233   0.662
13431TIP3   OH240235   0.548   3.418   1.086
13431TIP3    H140236   0.579   3.376   1.005
13431TIP3    H240237   0.578   3.361   1.156
13432TIP3   OH240238   6.594   0.444   2.501
13432TIP3    H140239   6.515   0.423   2.552
13432TIP3    H240240   6.580   0.534   2.471
13433TIP3   OH240241   7.141   6.318   2.274
13433TIP3    H140242   7.076   6.254   2.246
13433TIP3    H240243   7.147   6.305   2.369
13434TIP3   OH240244   4.049   6.579   6.308
13434TIP3    H140245   4.106   6.536   6.244
13434TIP3    H240246   4.108   6.604   6.379
13435TIP3   OH240247   0.765   4.566   6.022
13435TIP3    H140248   0.715   4.646   6.034
13435TIP3    H240249   0.857   4.593   6.034
13436TIP3   OH240250   5.141   3.350   3.646
13436TIP3    H140251   5.130   3.270   3.595
13436TIP3    H240252   5.052   3.373   3.673
13437TIP3   OH240253   7.318   0.399   6.068
13437TIP3    H140254   7.234   0.413   6.025
13437TIP3    H240255   7.326   0.472   6.130
13438TIP3   OH240256   4.209   6.949   5.532
13438TIP3    H140257   4.296   6.982   5.556
13438TIP3    H240258   4.158   7.028   5.514
13439TIP3   OH240259   7.434   1.612   2.164
13439TIP3    H140260   7.439   1.536   2.221
13439TIP3    H240261   7.419   1.576   2.076
13440TIP3   OH240262   2.383   5.595   3.643
13440TIP3    H140263   2.428   5.679   3.634
13440TIP3    H240264   2.404   5.547   3.563
13441TIP3   OH240265   0.564   6.720   3.114
13441TIP3    H140266   0.650   6.756   3.135
13441TIP3    H240267   0.582   6.644   3.059
13442TIP3   OH240268   1.505   4.030   1.244
13442TIP3    H140269   1.550   3.946   1.256
13442TIP3    H240270   1.532   4.060   1.157
13443TIP3   OH240271   6.013   2.885   1.603
13443TIP3    H140272   6.029   2.957   1.664
13443TIP3    H240273   5.918   2.876   1.600
13444TIP3   OH240274   5.258   2.324   1.003
13444TIP3    H140275   5.310   2.395   1.040
13444TIP3    H240276   5.172   2.332   1.045
13445TIP3   OH240277   5.855   1.499   1.889
13445TIP3    H140278   5.840   1.588   1.857
13445TIP3    H240279   5.820   1.442   1.821
13446TIP3   OH240280   6.904   5.752   3.291
13446TIP3    H140281   6.875   5.795   3.372
13446TIP3    H240282   6.851   5.792   3.223
13447TIP3   OH240283   4.404   2.532   2.087
13447TIP3    H140284   4.444   2.445   2.088
13447TIP3    H240285   4.367   2.542   2.175
13448TIP3   OH240286   1.634   1.085   3.846
13448TIP3    H140287   1.550   1.127   3.827
13448TIP3    H240288   1.617   0.991   3.834
13449TIP3   OH240289   4.891   6.290   0.338
13449TIP3    H140290   4.914   6.326   0.252
13449TIP3    H240291   4.845   6.361   0.382
13450TIP3   OH240292   8.074   5.570   2.165
13450TIP3    H140293   8.095   5.626   2.239
13450TIP3    H240294   8.021   5.625   2.107
13451TIP3   OH240295   2.258   6.791   1.494
13451TIP3    H140296   2.316   6.860   1.527
13451TIP3    H240297   2.186   6.788   1.557
13452TIP3   OH240298   6.528   4.047   2.853
13452TIP3    H140299   6.517   4.022   2.761
13452TIP3    H240300   6.503   4.139   2.856
13453TIP3   OH240301   3.006   2.950   1.579
13453TIP3    H140302   2.969   2.944   1.668
13453TIP3    H240303   3.074   3.016   1.586
13454TIP3   OH240304   0.290   7.463   2.974
13454TIP3    H140305   0.254   7.548   2.946
13454TIP3    H240306   0.232   7.398   2.932
13455TIP3   OH240307   2.203   2.390   0.694
13455TIP3    H140308   2.129   2.446   0.719
13455TIP3    H240309   2.257   2.385   0.772
13456TIP3   OH240310   5.651   5.997   2.307
13456TIP3    H140311   5.671   5.911   2.346
13456TIP3    H240312   5.629   5.977   2.216
13457TIP3   OH240313   8.069   6.944   4.420
13457TIP3    H140314   8.017   7.023   4.407
13457TIP3    H240315   8.098   6.920   4.331
13458TIP3   OH240316   0.640   3.424   2.192
13458TIP3    H140317   0.727   3.393   2.217
13458TIP3    H240318   0.611   3.479   2.265
13459TIP3   OH240319   6.302   1.398   5.202
13459TIP3    H140320   6.227   1.423   5.149
13459TIP3    H240321   6.377   1.435   5.157
13460TIP3   OH240322   6.039   6.881   4.441
13460TIP3    H140323   6.029   6.811   4.376
13460TIP3    H240324   5.958   6.879   4.491
13461TIP3   OH240325   7.560   0.373   0.240
13461TIP3    H140326   7.514   0.346   0.319
13461TIP3    H240327   7.624   0.437   0.270
13462TIP3   OH240328   3.326   7.737   1.940
13462TIP3    H140329   3.256   7.792   1.973
13462TIP3    H240330   3.362   7.695   2.018
13463TIP3   OH240331   6.818   3.010   4.417
13463TIP3    H140332   6.755   2.968   4.358
13463TIP3    H240333   6.796   3.103   4.414
13464TIP3   OH240334   5.034   4.671   3.262
13464TIP3    H140335   5.064   4.661   3.352
13464TIP3    H240336   4.940   4.655   3.266
13465TIP3   OH240337   3.711   0.863   3.550
13465TIP3    H140338   3.755   0.819   3.623
13465TIP3    H240339   3.636   0.807   3.530
13466TIP3   OH240340   5.417   6.432   2.258
13466TIP3    H140341   5.475   6.503   2.283
13466TIP3    H240342   5.444   6.358   2.313
13467TIP3   OH240343   5.452   2.183   4.368
13467TIP3    H140344   5.455   2.115   4.435
13467TIP3    H240345   5.539   2.224   4.372
13468TIP3   OH240346   6.075   5.809   2.906
13468TIP3    H140347   6.138   5.738   2.919
13468TIP3    H240348   6.010   5.773   2.846
13469TIP3   OH240349   5.296   4.293   0.899
13469TIP3    H140350   5.260   4.246   0.824
13469TIP3    H240351   5.264   4.245   0.975
13470TIP3   OH240352   4.066   7.368   0.931
13470TIP3    H140353   4.013   7.446   0.916
13470TIP3    H240354   4.133   7.396   0.993
13471TIP3   OH240355   5.089   0.024   0.353
13471TIP3    H140356   5.031   0.014   0.428
13471TIP3    H240357   5.111  -0.066   0.328
13472TIP3   OH240358   4.550   5.919   5.025
13472TIP3    H140359   4.467   5.906   5.072
13472TIP3    H240360   4.595   5.835   5.034
13473TIP3   OH240361   5.808  -0.008   0.943
13473TIP3    H140362   5.858   0.071   0.967
13473TIP3    H240363   5.784   0.007   0.851
13474TIP3   OH240364   1.779   4.657   5.432
13474TIP3    H140365   1.716   4.606   5.484
13474TIP3    H240366   1.780   4.743   5.474
13475TIP3   OH240367   6.730   7.380   5.749
13475TIP3    H140368   6.639   7.403   5.766
13475TIP3    H240369   6.731   7.285   5.745
13476TIP3   OH240370   2.453   1.252   2.753
13476TIP3    H140371   2.411   1.296   2.680
13476TIP3    H240372   2.437   1.309   2.828
13477TIP3   OH240373   4.168   2.428   2.506
13477TIP3    H140374   4.199   2.365   2.571
13477TIP3    H240375   4.072   2.427   2.516
13478TIP3   OH240376   1.580   6.772   0.079
13478TIP3    H140377   1.503   6.720   0.103
13478TIP3    H240378   1.620   6.796   0.162
13479TIP3   OH240379   3.760   3.672   5.950
13479TIP3    H140380   3.822   3.739   5.980
13479TIP3    H240381   3.682   3.687   6.003
13480TIP3   OH240382   2.044   6.393   1.895
13480TIP3    H140383   1.981   6.384   1.823
13480TIP3    H240384   2.108   6.457   1.863
13481TIP3   OH240385   4.663   6.684   4.909
13481TIP3    H140386   4.647   6.766   4.863
13481TIP3    H240387   4.739   6.645   4.865
13482TIP3   OH240388   5.678   6.106   0.898
13482TIP3    H140389   5.694   6.046   0.971
13482TIP3    H240390   5.605   6.160   0.927
13483TIP3   OH240391   7.797   6.074   2.618
13483TIP3    H140392   7.743   6.084   2.696
13483TIP3    H240393   7.766   6.142   2.559
13484TIP3   OH240394   1.194   6.632   0.829
13484TIP3    H140395   1.273   6.665   0.786
13484TIP3    H240396   1.125   6.640   0.764
13485TIP3   OH240397   3.964   6.176   3.260
13485TIP3    H140398   4.040   6.119   3.272
13485TIP3    H240399   3.938   6.163   3.169
13486TIP3   OH240400   3.049   5.197   2.351
13486TIP3    H140401   2.957   5.173   2.340
13486TIP3    H240402   3.072   5.245   2.272
13487TIP3   OH240403   0.125   5.540   1.651
13487TIP3    H140404   0.045   5.531   1.703
13487TIP3    H240405   0.193   5.503   1.706
13488TIP3   OH240406   0.870   2.557   0.146
13488TIP3    H140407   0.917   2.483   0.184
13488TIP3    H240408   0.858   2.618   0.220
13489TIP3   OH240409   4.705   1.301   6.180
13489TIP3    H140410   4.736   1.298   6.270
13489TIP3    H240411   4.669   1.213   6.165
13490TIP3   OH240412   7.186   4.085   5.099
13490TIP3    H140413   7.137   4.031   5.037
13490TIP3    H240414   7.119   4.139   5.142
13491TIP3   OH240415   3.100   1.216   3.963
13491TIP3    H140416   3.163   1.174   3.904
13491TIP3    H240417   3.150   1.233   4.043
13492TIP3   OH240418   7.880   3.430   1.328
13492TIP3    H140419   7.888   3.420   1.423
13492TIP3    H240420   7.970   3.448   1.299
13493TIP3   OH240421   4.748   1.727   5.548
13493TIP3    H140422   4.807   1.671   5.598
13493TIP3    H240423   4.785   1.728   5.459
13494TIP3   OH240424   1.856   4.441   3.062
13494TIP3    H140425   1.764   4.430   3.037
13494TIP3    H240426   1.899   4.362   3.030
13495TIP3   OH240427   6.413   4.332   2.320
13495TIP3    H140428   6.448   4.267   2.259
13495TIP3    H240429   6.326   4.298   2.343
13496TIP3   OH240430   2.247   0.495   6.217
13496TIP3    H140431   2.220   0.482   6.126
13496TIP3    H240432   2.180   0.450   6.269
13497TIP3   OH240433   1.772   4.339   5.295
13497TIP3    H140434   1.791   4.280   5.222
13497TIP3    H240435   1.684   4.372   5.277
13498TIP3   OH240436   7.895   4.509   6.312
13498TIP3    H140437   7.950   4.552   6.377
13498TIP3    H240438   7.954   4.491   6.239
13499TIP3   OH240439   3.811   4.239   2.436
13499TIP3    H140440   3.870   4.314   2.447
13499TIP3    H240441   3.765   4.232   2.519
13500TIP3   OH240442   2.141   7.792   3.582
13500TIP3    H140443   2.155   7.747   3.665
13500TIP3    H240444   2.050   7.774   3.560
13501TIP3   OH240445   2.552   4.044   6.135
13501TIP3    H140446   2.492   4.119   6.136
13501TIP3    H240447   2.495   3.968   6.125
13502TIP3   OH240448   5.453   5.835   4.328
13502TIP3    H140449   5.367   5.842   4.371
13502TIP3    H240450   5.486   5.749   4.355
13503TIP3   OH240451   5.433   5.852   0.696
13503TIP3    H140452   5.492   5.817   0.763
13503TIP3    H240453   5.483   5.923   0.655
13504TIP3   OH240454   6.013   5.832   5.325
13504TIP3    H140455   6.082   5.849   5.261
13504TIP3    H240456   5.967   5.755   5.290
13505TIP3   OH240457   2.289   6.098   0.521
13505TIP3    H140458   2.271   6.005   0.530
13505TIP3    H240459   2.207   6.136   0.489
13506TIP3   OH240460   1.834   4.681   6.268
13506TIP3    H140461   1.847   4.666   6.174
13506TIP3    H240462   1.908   4.737   6.293
13507TIP3   OH240463   4.819   4.906   5.709
13507TIP3    H140464   4.873   4.950   5.644
13507TIP3    H240465   4.774   4.976   5.755
13508TIP3   OH240466   2.567   2.839   3.303
13508TIP3    H140467   2.585   2.796   3.387
13508TIP3    H240468   2.519   2.773   3.253
13509TIP3   OH240469   8.138   7.594   2.686
13509TIP3    H140470   8.050   7.575   2.652
13509TIP3    H240471   8.132   7.683   2.721
13510TIP3   OH240472   3.317   6.585   6.468
13510TIP3    H140473   3.256   6.512   6.455
13510TIP3    H240474   3.324   6.594   6.563
13511TIP3   OH240475   3.181   0.513   4.215
13511TIP3    H140476   3.200   0.464   4.135
13511TIP3    H240477   3.149   0.598   4.184
13512TIP3   OH240478   4.178   4.159   6.043
13512TIP3    H140479   4.096   4.194   6.078
13512TIP3    H240480   4.152   4.111   5.964
13513TIP3   OH240481   0.855   6.268   3.759
13513TIP3    H140482   0.927   6.264   3.695
13513TIP3    H240483   0.818   6.355   3.747
13514TIP3   OH240484   0.097   6.907   3.121
13514TIP3    H140485   0.152   6.852   3.066
13514TIP3    H240486   0.099   6.993   3.080
13515TIP3   OH240487   5.360   5.014   4.995
13515TIP3    H140488   5.374   4.989   5.086
13515TIP3    H240489   5.377   4.934   4.945
13516TIP3   OH240490   5.242   6.731   4.797
13516TIP3    H140491   5.226   6.735   4.703
13516TIP3    H240492   5.165   6.771   4.837
13517TIP3   OH240493   7.953   5.003   3.274
13517TIP3    H140494   7.950   5.065   3.347
13517TIP3    H240495   7.865   5.003   3.238
13518TIP3   OH240496   3.129   1.254   5.411
13518TIP3    H140497   3.132   1.237   5.317
13518TIP3    H240498   3.208   1.306   5.428
13519TIP3   OH240499   1.397   2.116   4.800
13519TIP3    H140500   1.472   2.068   4.835
13519TIP3    H240501   1.430   2.204   4.786
13520TIP3   OH240502   4.084   5.237   3.940
13520TIP3    H140503   4.081   5.333   3.941
13520TIP3    H240504   4.124   5.214   4.024
13521TIP3   OH240505   0.969   1.117   6.494
13521TIP3    H140506   1.022   1.050   6.452
13521TIP3    H240507   1.008   1.200   6.464
13522TIP3   OH240508   2.603   5.162   1.386
13522TIP3    H140509   2.602   5.246   1.431
13522TIP3    H240510   2.639   5.100   1.450
13523TIP3   OH240511   7.013   4.947   5.158
13523TIP3    H140512   7.091   4.938   5.103
13523TIP3    H240513   6.982   5.036   5.141
13524TIP3   OH240514   6.974   7.157   2.399
13524TIP3    H140515   6.944   7.138   2.488
13524TIP3    H240516   7.070   7.158   2.405
13525TIP3   OH240517   2.012   1.995   2.905
13525TIP3    H140518   2.009   2.081   2.864
13525TIP3    H240519   1.968   2.007   2.989
13526TIP3   OH240520   1.126   6.970   1.822
13526TIP3    H140521   1.141   6.914   1.898
13526TIP3    H240522   1.031   6.967   1.809
13527TIP3   OH240523   4.835   3.832   4.601
13527TIP3    H140524   4.845   3.927   4.600
13527TIP3    H240525   4.856   3.807   4.691
13528TIP3   OH240526   3.401   4.068   0.045
13528TIP3    H140527   3.474   4.021   0.004
13528TIP3    H240528   3.394   4.150  -0.005
13529TIP3   OH240529   7.962   1.996   2.450
13529TIP3    H140530   7.943   1.903   2.462
13529TIP3    H240531   7.988   2.027   2.537
13530TIP3   OH240532   0.479   7.536   5.844
13530TIP3    H140533   0.564   7.550   5.803
13530TIP3    H240534   0.431   7.481   5.782
13531TIP3   OH240535   1.462   4.877   2.607
13531TIP3    H140536   1.424   4.872   2.519
13531TIP3    H240537   1.549   4.915   2.593
13532TIP3   OH240538   7.677   1.456   2.974
13532TIP3    H140539   7.701   1.547   2.956
13532TIP3    H240540   7.585   1.450   2.946
13533TIP3   OH240541   6.170   5.201   3.947
13533TIP3    H140542   6.078   5.221   3.962
13533TIP3    H240543   6.217   5.265   4.001
13534TIP3   OH240544   1.751   2.694   5.875
13534TIP3    H140545   1.729   2.786   5.892
13534TIP3    H240546   1.711   2.675   5.790
13535TIP3   OH240547   0.146   6.353   5.790
13535TIP3    H140548   0.229   6.309   5.770
13535TIP3    H240549   0.147   6.432   5.736
13536TIP3   OH240550   4.256   6.586   6.520
13536TIP3    H140551   4.236   6.504   6.565
13536TIP3    H240552   4.336   6.568   6.471
13537TIP3   OH240553   5.497   6.737   6.414
13537TIP3    H140554   5.569   6.800   6.410
13537TIP3    H240555   5.465   6.743   6.504
13538TIP3   OH240556   5.497   7.332   3.904
13538TIP3    H140557   5.592   7.335   3.916
13538TIP3    H240558   5.462   7.321   3.992
13539TIP3   OH240559   0.427   4.394   5.171
13539TIP3    H140560   0.334   4.416   5.171
13539TIP3    H240561   0.465   4.449   5.239
13540TIP3   OH240562   7.672   0.898   3.796
13540TIP3    H140563   7.765   0.921   3.798
13540TIP3    H240564   7.647   0.905   3.704
13541TIP3   OH240565   0.767   2.917   4.320
13541TIP3    H140566   0.853   2.959   4.327
13541TIP3    H240567   0.768   2.850   4.388
13542TIP3   OH240568   1.760   5.966   0.453
13542TIP3    H140569   1.749   5.972   0.548
13542TIP3    H240570   1.748   6.056   0.421
13543TIP3   OH240571   1.581   7.579   6.346
13543TIP3    H140572   1.518   7.578   6.418
13543TIP3    H240573   1.527   7.572   6.267
13544TIP3   OH240574   6.646   2.597   4.954
13544TIP3    H140575   6.627   2.642   4.872
13544TIP3    H240576   6.735   2.622   4.976
13545TIP3   OH240577   0.483   7.052   1.124
13545TIP3    H140578   0.491   7.007   1.040
13545TIP3    H240579   0.480   7.145   1.101
13546TIP3   OH240580   6.122   0.771   6.114
13546TIP3    H140581   6.144   0.705   6.048
13546TIP3    H240582   6.026   0.771   6.116
13547TIP3   OH240583   6.080   5.051   0.316
13547TIP3    H140584   5.987   5.042   0.338
13547TIP3    H240585   6.101   5.141   0.339
13548TIP3   OH240586   7.065   1.430   1.889
13548TIP3    H140587   7.007   1.496   1.852
13548TIP3    H240588   7.042   1.349   1.844
13549TIP3   OH240589   3.178   2.721   0.986
13549TIP3    H140590   3.151   2.805   1.022
13549TIP3    H240591   3.250   2.692   1.043
13550TIP3   OH240592   4.894   0.566   2.700
13550TIP3    H140593   4.965   0.503   2.682
13550TIP3    H240594   4.924   0.616   2.775
13551TIP3   OH240595   1.874   5.934   1.955
13551TIP3    H140596   1.896   5.961   1.866
13551TIP3    H240597   1.901   5.842   1.959
13552TIP3   OH240598   0.869   4.321   5.830
13552TIP3    H140599   0.829   4.315   5.744
13552TIP3    H240600   0.889   4.414   5.841
13553TIP3   OH240601   3.364   6.908   0.465
13553TIP3    H140602   3.335   6.996   0.489
13553TIP3    H240603   3.320   6.851   0.528
13554TIP3   OH240604   7.536   7.226   0.396
13554TIP3    H140605   7.574   7.308   0.427
13554TIP3    H240606   7.541   7.232   0.300
13555TIP3   OH240607   7.785   5.161   0.679
13555TIP3    H140608   7.700   5.119   0.669
13555TIP3    H240609   7.789   5.184   0.772
13556TIP3   OH240610   0.124   5.321   2.519
13556TIP3    H140611   0.213   5.286   2.518
13556TIP3    H240612   0.111   5.350   2.609
13557TIP3   OH240613   2.961   2.216   2.129
13557TIP3    H140614   3.022   2.153   2.091
13557TIP3    H240615   2.875   2.176   2.117
13558TIP3   OH240616   5.685   0.798   3.747
13558TIP3    H140617   5.622   0.764   3.683
13558TIP3    H240618   5.679   0.738   3.821
13559TIP3   OH240619   2.491   3.065   0.954
13559TIP3    H140620   2.484   3.096   0.864
13559TIP3    H240621   2.553   2.992   0.950
13560TIP3   OH240622   2.941   2.459   2.750
13560TIP3    H140623   3.027   2.438   2.787
13560TIP3    H240624   2.901   2.516   2.815
13561TIP3   OH240625   3.321   0.106   6.459
13561TIP3    H140626   3.231   0.120   6.489
13561TIP3    H240627   3.314   0.104   6.364
13562TIP3   OH240628   6.893   0.074   5.263
13562TIP3    H140629   6.900   0.167   5.242
13562TIP3    H240630   6.799   0.059   5.275
13563TIP3   OH240631   2.203   0.424   2.512
13563TIP3    H140632   2.280   0.372   2.535
13563TIP3    H240633   2.180   0.470   2.592
13564TIP3   OH240634   6.555   2.938   1.888
13564TIP3    H140635   6.501   2.886   1.828
13564TIP3    H240636   6.574   3.018   1.840
13565TIP3   OH240637   4.777   3.708   2.960
13565TIP3    H140638   4.772   3.620   2.922
13565TIP3    H240639   4.786   3.694   3.054
13566TIP3   OH240640   2.016   2.282   5.969
13566TIP3    H140641   2.010   2.186   5.973
13566TIP3    H240642   1.950   2.308   5.905
13567TIP3   OH240643   1.647   3.636   6.404
13567TIP3    H140644   1.713   3.568   6.390
13567TIP3    H240645   1.630   3.633   6.498
13568TIP3   OH240646   4.828   7.102   3.789
13568TIP3    H140647   4.767   7.084   3.861
13568TIP3    H240648   4.861   7.016   3.764
13569TIP3   OH240649   0.216   4.521   6.058
13569TIP3    H140650   0.278   4.470   6.109
13569TIP3    H240651   0.136   4.522   6.111
13570TIP3   OH240652   4.569   7.263   4.510
13570TIP3    H140653   4.559   7.181   4.463
13570TIP3    H240654   4.493   7.266   4.568
13571TIP3   OH240655   1.384   2.238   4.243
13571TIP3    H140656   1.357   2.157   4.288
13571TIP3    H240657   1.364   2.222   4.151
13572TIP3   OH240658   6.213   2.875   1.067
13572TIP3    H140659   6.250   2.928   1.137
13572TIP3    H240660   6.239   2.785   1.087
13573TIP3   OH240661   0.918   5.116   6.348
13573TIP3    H140662   0.840   5.094   6.297
13573TIP3    H240663   0.901   5.203   6.383
13574TIP3   OH240664   4.097   4.755   3.339
13574TIP3    H140665   4.114   4.817   3.268
13574TIP3    H240666   4.023   4.793   3.387
13575TIP3   OH240667   2.328   2.620   6.039
13575TIP3    H140668   2.241   2.652   6.014
13575TIP3    H240669   2.377   2.620   5.956
13576TIP3   OH240670   1.941   5.360   2.894
13576TIP3    H140671   1.970   5.297   2.961
13576TIP3    H240672   1.961   5.445   2.932
13577TIP3   OH240673   3.926   2.870   2.602
13577TIP3    H140674   3.989   2.941   2.618
13577TIP3    H240675   3.872   2.867   2.681
13578TIP3   OH240676   7.800   3.760   2.503
13578TIP3    H140677   7.776   3.714   2.584
13578TIP3    H240678   7.738   3.728   2.438
13579TIP3   OH240679   7.118   4.274   6.064
13579TIP3    H140680   7.209   4.245   6.062
13579TIP3    H240681   7.088   4.254   6.153
13580TIP3   OH240682   3.216   4.977   3.827
13580TIP3    H140683   3.278   4.947   3.761
13580TIP3    H240684   3.143   5.015   3.777
13581TIP3   OH240685   3.914   7.610   4.843
13581TIP3    H140686   3.880   7.540   4.787
13581TIP3    H240687   3.869   7.689   4.813
13582TIP3   OH240688   3.749   6.986   3.805
13582TIP3    H140689   3.725   7.071   3.769
13582TIP3    H240690   3.830   6.962   3.759
13583TIP3   OH240691   6.626   0.130   2.300
13583TIP3    H140692   6.672   0.207   2.267
13583TIP3    H240693   6.681   0.056   2.274
13584TIP3   OH240694   1.743   4.940   4.181
13584TIP3    H140695   1.698   4.857   4.165
13584TIP3    H240696   1.736   4.988   4.099
13585TIP3   OH240697   5.926   6.351   1.850
13585TIP3    H140698   5.860   6.378   1.913
13585TIP3    H240699   5.992   6.306   1.903
13586TIP3   OH240700   2.653   2.292   4.553
13586TIP3    H140701   2.718   2.256   4.494
13586TIP3    H240702   2.604   2.216   4.585
13587TIP3   OH240703   6.535   7.598   0.070
13587TIP3    H140704   6.506   7.615  -0.020
13587TIP3    H240705   6.479   7.528   0.101
13588TIP3   OH240706   7.032   1.235   4.412
13588TIP3    H140707   6.980   1.303   4.455
13588TIP3    H240708   7.109   1.281   4.379
13589TIP3   OH240709   6.935   7.089   0.179
13589TIP3    H140710   6.965   7.020   0.119
13589TIP3    H240711   6.944   7.050   0.266
13590TIP3   OH240712   1.134   1.075   0.312
13590TIP3    H140713   1.195   1.118   0.252
13590TIP3    H240714   1.050   1.078   0.267
13591TIP3   OH240715   1.049   6.979   3.261
13591TIP3    H140716   1.097   7.051   3.304
13591TIP3    H240717   0.962   6.983   3.300
13592TIP3   OH240718   1.817   5.485   2.674
13592TIP3    H140719   1.739   5.430   2.678
13592TIP3    H240720   1.863   5.467   2.756
13593TIP3   OH240721   5.514   5.939   1.807
13593TIP3    H140722   5.546   5.927   1.896
13593TIP3    H240723   5.586   5.982   1.761
13594TIP3   OH240724   1.983   2.544   0.764
13594TIP3    H140725   1.946   2.498   0.689
13594TIP3    H240726   2.038   2.613   0.726
13595TIP3   OH240727   5.389   0.619   1.174
13595TIP3    H140728   5.318   0.620   1.110
13595TIP3    H240729   5.462   0.576   1.128
13596TIP3   OH240730   0.843   5.384   0.148
13596TIP3    H140731   0.809   5.473   0.148
13596TIP3    H240732   0.802   5.343   0.224
13597TIP3   OH240733   6.445   4.247   5.341
13597TIP3    H140734   6.531   4.280   5.369
13597TIP3    H240735   6.387   4.323   5.349
13598TIP3   OH240736   4.308   0.763   1.542
13598TIP3    H140737   4.259   0.838   1.575
13598TIP3    H240738   4.375   0.801   1.485
13599TIP3   OH240739   3.878   6.847   5.991
13599TIP3    H140740   3.935   6.852   5.914
13599TIP3    H240741   3.921   6.903   6.056
13600TIP3   OH240742   7.933   1.487   0.013
13600TIP3    H140743   7.922   1.505   0.106
13600TIP3    H240744   7.960   1.571  -0.025
13601TIP3   OH240745   1.162   3.396   2.052
13601TIP3    H140746   1.127   3.484   2.042
13601TIP3    H240747   1.244   3.408   2.099
13602TIP3   OH240748   4.149   4.946   0.746
13602TIP3    H140749   4.084   4.948   0.675
13602TIP3    H240750   4.116   5.008   0.810
13603TIP3   OH240751   0.861   1.997   1.104
13603TIP3    H140752   0.819   2.077   1.133
13603TIP3    H240753   0.808   1.968   1.029
13604TIP3   OH240754   0.417   3.535   6.381
13604TIP3    H140755   0.506   3.529   6.416
13604TIP3    H240756   0.408   3.626   6.354
13605TIP3   OH240757   5.026   4.598  -0.022
13605TIP3    H140758   4.971   4.556  -0.088
13605TIP3    H240759   4.966   4.653   0.027
13606TIP3   OH240760   4.693   1.844   6.723
13606TIP3    H140761   4.641   1.878   6.796
13606TIP3    H240762   4.783   1.870   6.743
13607TIP3   OH240763   2.618   2.533   5.812
13607TIP3    H140764   2.624   2.438   5.818
13607TIP3    H240765   2.708   2.563   5.822
13608TIP3   OH240766   1.508   2.297   3.543
13608TIP3    H140767   1.495   2.226   3.481
13608TIP3    H240768   1.583   2.346   3.509
13609TIP3   OH240769   4.746   0.632   3.471
13609TIP3    H140770   4.808   0.562   3.452
13609TIP3    H240771   4.751   0.644   3.566
13610TIP3   OH240772   0.573   0.216   0.955
13610TIP3    H140773   0.542   0.151   1.018
13610TIP3    H240774   0.656   0.246   0.990
13611TIP3   OH240775   1.294   5.307   5.244
13611TIP3    H140776   1.357   5.368   5.282
13611TIP3    H240777   1.280   5.241   5.311
13612TIP3   OH240778   4.126   7.358   2.187
13612TIP3    H140779   4.212   7.395   2.170
13612TIP3    H240780   4.125   7.276   2.138
13613TIP3   OH240781   0.157   2.838   0.921
13613TIP3    H140782   0.220   2.908   0.941
13613TIP3    H240783   0.135   2.853   0.829
13614TIP3   OH240784   5.798   6.733   4.843
13614TIP3    H140785   5.715   6.781   4.843
13614TIP3    H240786   5.835   6.749   4.929
13615TIP3   OH240787   4.000   5.520   2.560
13615TIP3    H140788   4.035   5.503   2.647
13615TIP3    H240789   4.077   5.548   2.509
13616TIP3   OH240790   4.769   0.972   5.519
13616TIP3    H140791   4.772   1.028   5.597
13616TIP3    H240792   4.739   1.031   5.450
13617TIP3   OH240793   2.983   0.951   2.648
13617TIP3    H140794   2.926   0.962   2.572
13617TIP3    H240795   3.034   0.872   2.629
13618TIP3   OH240796   6.190   1.689   5.747
13618TIP3    H140797   6.204   1.682   5.652
13618TIP3    H240798   6.117   1.630   5.764
13619TIP3   OH240799  -0.015   4.553   0.966
13619TIP3    H140800   0.005   4.565   1.059
13619TIP3    H240801   0.019   4.632   0.924
13620TIP3   OH240802   0.247   0.854   6.673
13620TIP3    H140803   0.247   0.928   6.734
13620TIP3    H240804   0.154   0.834   6.661
13621TIP3   OH240805   6.286   4.048   6.356
13621TIP3    H140806   6.305   4.063   6.263
13621TIP3    H240807   6.268   3.955   6.362
13622TIP3   OH240808   0.464   5.165   5.764
13622TIP3    H140809   0.408   5.238   5.739
13622TIP3    H240810   0.550   5.186   5.727
13623TIP3   OH240811   0.157   4.021   2.455
13623TIP3    H140812   0.097   4.037   2.528
13623TIP3    H240813   0.192   3.933   2.471
13624TIP3   OH240814   6.535   3.007   3.350
13624TIP3    H140815   6.621   3.024   3.387
13624TIP3    H240816   6.546   3.021   3.255
13625TIP3   OH240817   3.025   7.701   6.483
13625TIP3    H140818   2.974   7.774   6.518
13625TIP3    H240819   2.992   7.624   6.531
13626TIP3   OH240820   2.678   5.552   1.065
13626TIP3    H140821   2.722   5.581   0.985
13626TIP3    H240822   2.587   5.579   1.054
13627TIP3   OH240823   5.908   7.135   4.071
13627TIP3    H140824   5.903   7.169   4.160
13627TIP3    H240825   5.838   7.180   4.024
13628TIP3   OH240826   7.155   0.162   5.338
13628TIP3    H140827   7.114   0.103   5.274
13628TIP3    H240828   7.082   0.210   5.377
13629TIP3   OH240829   7.492   4.878   3.487
13629TIP3    H140830   7.437   4.901   3.413
13629TIP3    H240831   7.572   4.929   3.474
13630TIP3   OH240832   4.040   3.806   5.720
13630TIP3    H140833   4.073   3.801   5.810
13630TIP3    H240834   3.973   3.874   5.724
13631TIP3   OH240835   7.887   6.275   0.945
13631TIP3    H140836   7.805   6.228   0.964
13631TIP3    H240837   7.941   6.261   1.023
13632TIP3   OH240838   4.486   2.155   2.524
13632TIP3    H140839   4.504   2.179   2.615
13632TIP3    H240840   4.433   2.075   2.531
13633TIP3   OH240841   7.971   0.677   1.451
13633TIP3    H140842   8.007   0.760   1.419
13633TIP3    H240843   7.990   0.615   1.380
13634TIP3   OH240844   5.107   2.782   0.491
13634TIP3    H140845   5.060   2.846   0.545
13634TIP3    H240846   5.072   2.794   0.403
13635TIP3   OH240847   2.957   2.356   0.888
13635TIP3    H140848   3.049   2.338   0.866
13635TIP3    H240849   2.910   2.339   0.806
13636TIP3   OH240850   3.660   3.821   2.551
13636TIP3    H140851   3.706   3.865   2.480
13636TIP3    H240852   3.638   3.735   2.516
13637TIP3   OH240853   5.043   7.071   0.302
13637TIP3    H140854   5.066   7.063   0.210
13637TIP3    H240855   5.055   6.983   0.338
13638TIP3   OH240856   3.410   2.308   3.013
13638TIP3    H140857   3.350   2.373   2.976
13638TIP3    H240858   3.496   2.334   2.979
13639TIP3   OH240859   6.617   4.300   4.852
13639TIP3    H140860   6.652   4.352   4.925
13639TIP3    H240861   6.570   4.363   4.798
13640TIP3   OH240862   3.760   0.575   2.077
13640TIP3    H140863   3.795   0.496   2.034
13640TIP3    H240864   3.764   0.642   2.009
13641TIP3   OH240865   7.283   3.204   0.753
13641TIP3    H140866   7.307   3.184   0.844
13641TIP3    H240867   7.204   3.153   0.737
13642TIP3   OH240868   2.547   1.089   1.455
13642TIP3    H140869   2.455   1.064   1.466
13642TIP3    H240870   2.569   1.062   1.366
13643TIP3   OH240871   2.665   1.975   1.115
13643TIP3    H140872   2.667   1.879   1.112
13643TIP3    H240873   2.711   1.997   1.196
13644TIP3   OH240874   6.271   4.286   6.511
13644TIP3    H140875   6.177   4.296   6.528
13644TIP3    H240876   6.277   4.212   6.451
13645TIP3   OH240877   5.788   1.927   6.298
13645TIP3    H140878   5.795   1.951   6.390
13645TIP3    H240879   5.860   1.866   6.284
13646TIP3   OH240880   3.281   3.975   1.195
13646TIP3    H140881   3.195   3.948   1.163
13646TIP3    H240882   3.321   3.894   1.227
13647TIP3   OH240883   7.339   0.128   2.152
13647TIP3    H140884   7.257   0.150   2.195
13647TIP3    H240885   7.406   0.165   2.210
13648TIP3   OH240886   4.006   6.751   0.544
13648TIP3    H140887   3.948   6.688   0.500
13648TIP3    H240888   3.978   6.749   0.636
13649TIP3   OH240889   4.204   7.513   0.353
13649TIP3    H140890   4.157   7.561   0.421
13649TIP3    H240891   4.234   7.580   0.292
13650TIP3   OH240892   2.155   5.348   2.657
13650TIP3    H140893   2.116   5.356   2.744
13650TIP3    H240894   2.151   5.254   2.639
13651TIP3   OH240895   5.307   1.440   3.620
13651TIP3    H140896   5.362   1.504   3.666
13651TIP3    H240897   5.361   1.408   3.548
13652TIP3   OH240898   6.617   1.924   0.068
13652TIP3    H140899   6.558   1.979   0.017
13652TIP3    H240900   6.613   1.838   0.026
13653TIP3   OH240901   4.808   7.103   0.552
13653TIP3    H140902   4.735   7.159   0.524
13653TIP3    H240903   4.769   7.016   0.561
13654TIP3   OH240904   8.103   0.083   1.363
13654TIP3    H140905   8.137  -0.004   1.380
13654TIP3    H240906   8.008   0.071   1.360
13655TIP3   OH240907   2.709   0.222   5.040
13655TIP3    H140908   2.701   0.310   5.076
13655TIP3    H240909   2.796   0.220   5.000
13656TIP3   OH240910   7.241   7.416   3.699
13656TIP3    H140911   7.263   7.397   3.608
13656TIP3    H240912   7.281   7.502   3.716
13657TIP3   OH240913   6.598   5.649   1.588
13657TIP3    H140914   6.671   5.670   1.531
13657TIP3    H240915   6.597   5.554   1.593
13658TIP3   OH240916   0.473   3.994   0.079
13658TIP3    H140917   0.495   3.903   0.058
13658TIP3    H240918   0.548   4.025   0.130
13659TIP3   OH240919   8.143   0.029   1.894
13659TIP3    H140920   8.226   0.070   1.871
13659TIP3    H240921   8.114   0.076   1.972
13660TIP3   OH240922   7.874   2.181   2.269
13660TIP3    H140923   7.919   2.122   2.329
13660TIP3    H240924   7.826   2.241   2.326
13661TIP3   OH240925   0.567   1.160   3.526
13661TIP3    H140926   0.596   1.179   3.437
13661TIP3    H240927   0.517   1.078   3.519
13662TIP3   OH240928   6.182   0.614   5.094
13662TIP3    H140929   6.209   0.582   5.008
13662TIP3    H240930   6.262   0.612   5.147
13663TIP3   OH240931   5.565   3.473   5.564
13663TIP3    H140932   5.552   3.435   5.651
13663TIP3    H240933   5.647   3.434   5.533
13664TIP3   OH240934   3.767   1.165   2.634
13664TIP3    H140935   3.800   1.126   2.715
13664TIP3    H240936   3.675   1.184   2.653
13665TIP3   OH240937   1.319   3.352   4.327
13665TIP3    H140938   1.412   3.339   4.307
13665TIP3    H240939   1.320   3.420   4.395
13666TIP3   OH240940   1.118   4.754   1.074
13666TIP3    H140941   1.027   4.754   1.047
13666TIP3    H240942   1.122   4.690   1.145
13667TIP3   OH240943   6.067   6.341   0.153
13667TIP3    H140944   6.099   6.318   0.066
13667TIP3    H240945   6.064   6.437   0.153
13668TIP3   OH240946   2.086   5.423   0.188
13668TIP3    H140947   2.068   5.496   0.246
13668TIP3    H240948   2.166   5.383   0.222
13669TIP3   OH240949   8.281   6.738   5.183
13669TIP3    H140950   8.207   6.715   5.127
13669TIP3    H240951   8.330   6.656   5.194
13670TIP3   OH240952   1.653   0.225   0.730
13670TIP3    H140953   1.629   0.255   0.818
13670TIP3    H240954   1.703   0.144   0.745
13671TIP3   OH240955   1.905   4.025   5.584
13671TIP3    H140956   1.875   4.019   5.675
13671TIP3    H240957   1.934   3.936   5.563
13672TIP3   OH240958   1.112   3.341   1.775
13672TIP3    H140959   1.053   3.413   1.755
13672TIP3    H240960   1.151   3.365   1.860
13673TIP3   OH240961   2.317   6.278   4.234
13673TIP3    H140962   2.345   6.360   4.274
13673TIP3    H240963   2.236   6.255   4.282
13674TIP3   OH240964   6.801   4.856   3.684
13674TIP3    H140965   6.827   4.948   3.691
13674TIP3    H240966   6.842   4.814   3.759
13675TIP3   OH240967   1.571   4.856   0.520
13675TIP3    H140968   1.521   4.882   0.598
13675TIP3    H240969   1.568   4.760   0.521
13676TIP3   OH240970   8.147   4.190   5.032
13676TIP3    H140971   8.156   4.097   5.054
13676TIP3    H240972   8.197   4.200   4.951
13677TIP3   OH240973   7.316   3.294   3.583
13677TIP3    H140974   7.335   3.202   3.602
13677TIP3    H240975   7.236   3.292   3.531
13678TIP3   OH240976   7.680   5.489   5.568
13678TIP3    H140977   7.741   5.502   5.496
13678TIP3    H240978   7.687   5.568   5.621
13679TIP3   OH240979   4.480   2.679   0.339
13679TIP3    H140980   4.490   2.609   0.404
13679TIP3    H240981   4.430   2.638   0.268
13680TIP3   OH240982   3.456   6.440   2.539
13680TIP3    H140983   3.501   6.364   2.574
13680TIP3    H240984   3.487   6.447   2.449
13681TIP3   OH240985   2.564   3.611   4.825
13681TIP3    H140986   2.658   3.616   4.839
13681TIP3    H240987   2.555   3.574   4.737
13682TIP3   OH240988   0.067   2.059   5.974
13682TIP3    H140989   0.065   1.973   5.930
13682TIP3    H240990   0.017   2.046   6.054
13683TIP3   OH240991   3.531   1.937   0.359
13683TIP3    H140992   3.498   1.877   0.427
13683TIP3    H240993   3.513   1.891   0.277
13684TIP3   OH240994   5.102   0.931   2.498
13684TIP3    H140995   5.077   1.022   2.512
13684TIP3    H240996   5.019   0.883   2.502
13685TIP3   OH240997   3.327   1.812   4.279
13685TIP3    H140998   3.238   1.778   4.265
13685TIP3    H240999   3.324   1.850   4.367
13686TIP3   OH241000   2.567   5.125   5.129
13686TIP3    H141001   2.498   5.140   5.064
13686TIP3    H241002   2.527   5.150   5.212
13687TIP3   OH241003   7.739   6.834   0.862
13687TIP3    H141004   7.705   6.895   0.927
13687TIP3    H241005   7.681   6.842   0.787
13688TIP3   OH241006   3.638   3.777   2.835
13688TIP3    H141007   3.566   3.717   2.856
13688TIP3    H241008   3.674   3.744   2.753
13689TIP3   OH241009   0.486   2.668   6.702
13689TIP3    H141010   0.535   2.736   6.656
13689TIP3    H241011   0.424   2.716   6.757
13690TIP3   OH241012   7.309   5.300   5.217
13690TIP3    H141013   7.287   5.353   5.294
13690TIP3    H241014   7.296   5.360   5.143
13691TIP3   OH241015   6.615   1.733   5.506
13691TIP3    H141016   6.556   1.710   5.434
13691TIP3    H241017   6.668   1.654   5.520
13692TIP3   OH241018   1.607   3.001   3.690
13692TIP3    H141019   1.581   3.004   3.782
13692TIP3    H241020   1.578   2.915   3.660
13693TIP3   OH241021   2.888   5.077   6.389
13693TIP3    H141022   2.910   5.166   6.361
13693TIP3    H241023   2.877   5.084   6.484
13694TIP3   OH241024   0.466   6.238   3.155
13694TIP3    H141025   0.405   6.311   3.164
13694TIP3    H241026   0.487   6.235   3.061
13695TIP3   OH241027   2.431   2.644   0.461
13695TIP3    H141028   2.494   2.712   0.481
13695TIP3    H241029   2.462   2.567   0.508
13696TIP3   OH241030   6.646   2.850   4.228
13696TIP3    H141031   6.582   2.810   4.287
13696TIP3    H241032   6.652   2.790   4.154
13697TIP3   OH241033   6.265   3.242   6.687
13697TIP3    H141034   6.331   3.212   6.625
13697TIP3    H241035   6.190   3.184   6.672
13698TIP3   OH241036   0.169   7.266   6.331
13698TIP3    H141037   0.258   7.232   6.322
13698TIP3    H241038   0.119   7.193   6.368
13699TIP3   OH241039   7.261   6.147   0.427
13699TIP3    H141040   7.183   6.146   0.372
13699TIP3    H241041   7.233   6.189   0.508
13700TIP3   OH241042   4.086   6.405   4.938
13700TIP3    H141043   4.170   6.382   4.977
13700TIP3    H241044   4.059   6.485   4.983
13701TIP3   OH241045   7.261   2.536   5.843
13701TIP3    H141046   7.262   2.627   5.873
13701TIP3    H241047   7.336   2.496   5.887
13702TIP3   OH241048   0.284   3.384   5.421
13702TIP3    H141049   0.338   3.317   5.464
13702TIP3    H241050   0.195   3.364   5.448
13703TIP3   OH241051   5.559   1.687   2.717
13703TIP3    H141052   5.470   1.655   2.729
13703TIP3    H241053   5.556   1.779   2.744
13704TIP3   OH241054   4.166   5.286   6.271
13704TIP3    H141055   4.204   5.363   6.314
13704TIP3    H241056   4.074   5.287   6.296
13705TIP3   OH241057   4.845   2.957   2.230
13705TIP3    H141058   4.811   2.868   2.223
13705TIP3    H241059   4.871   2.979   2.141
13706TIP3   OH241060   0.802   4.392   0.738
13706TIP3    H141061   0.874   4.454   0.749
13706TIP3    H241062   0.844   4.310   0.713
13707TIP3   OH241063   4.335   6.368   5.023
13707TIP3    H141064   4.385   6.317   5.086
13707TIP3    H241065   4.400   6.403   4.963
13708TIP3   OH241066   6.747   6.769   3.472
13708TIP3    H141067   6.805   6.753   3.398
13708TIP3    H241068   6.760   6.694   3.529
13709TIP3   OH241069   2.703   7.553   0.033
13709TIP3    H141070   2.617   7.510   0.029
13709TIP3    H241071   2.683   7.644   0.054
13710TIP3   OH241072   6.116   5.099   0.744
13710TIP3    H141073   6.064   5.104   0.824
13710TIP3    H241074   6.105   5.009   0.713
13711TIP3   OH241075   7.098   1.018   2.254
13711TIP3    H141076   7.024   1.041   2.310
13711TIP3    H241077   7.131   0.936   2.291
13712TIP3   OH241078   6.048   1.239   5.320
13712TIP3    H141079   6.027   1.333   5.326
13712TIP3    H241080   6.024   1.215   5.230
13713TIP3   OH241081   6.514   1.449   1.879
13713TIP3    H141082   6.527   1.542   1.858
13713TIP3    H241083   6.603   1.414   1.884
13714TIP3   OH241084   0.044   4.012   5.288
13714TIP3    H141085  -0.030   3.972   5.242
13714TIP3    H241086   0.072   4.083   5.230
13715TIP3   OH241087   5.692   1.033   2.901
13715TIP3    H141088   5.669   1.098   2.968
13715TIP3    H241089   5.712   0.954   2.950
13716TIP3   OH241090   5.667   2.739   5.825
13716TIP3    H141091   5.621   2.726   5.742
13716TIP3    H241092   5.668   2.834   5.837
13717TIP3   OH241093   0.499   0.118   3.839
13717TIP3    H141094   0.519   0.070   3.919
13717TIP3    H241095   0.432   0.182   3.865
13718TIP3   OH241096   5.589   0.386   1.579
13718TIP3    H141097   5.536   0.376   1.658
13718TIP3    H241098   5.525   0.394   1.508
13719TIP3   OH241099   7.387   6.844   2.112
13719TIP3    H141100   7.352   6.903   2.178
13719TIP3    H241101   7.479   6.832   2.137
13720TIP3   OH241102   6.015   6.559   2.865
13720TIP3    H141103   5.967   6.528   2.942
13720TIP3    H241104   6.070   6.485   2.839
13721TIP3   OH241105   3.238   3.600   4.627
13721TIP3    H141106   3.149   3.566   4.619
13721TIP3    H241107   3.250   3.617   4.720
13722TIP3   OH241108   0.007   4.083   6.505
13722TIP3    H141109  -0.048   4.014   6.542
13722TIP3    H241110   0.084   4.085   6.562
13723TIP3   OH241111   7.689   4.680   2.499
13723TIP3    H141112   7.670   4.701   2.407
13723TIP3    H241113   7.771   4.726   2.517
13724TIP3   OH241114   6.097   3.761   3.912
13724TIP3    H141115   6.123   3.772   4.003
13724TIP3    H241116   6.046   3.839   3.892
13725TIP3   OH241117   5.181   5.099   5.705
13725TIP3    H141118   5.194   5.050   5.623
13725TIP3    H241119   5.206   5.189   5.683
13726TIP3   OH241120   7.368   0.017   2.499
13726TIP3    H141121   7.295   0.079   2.513
13726TIP3    H241122   7.444   0.060   2.538
13727TIP3   OH241123   0.364   4.106   1.584
13727TIP3    H141124   0.400   4.064   1.662
13727TIP3    H241125   0.440   4.130   1.531
13728TIP3   OH241126   1.129   7.691   1.977
13728TIP3    H141127   1.084   7.617   2.018
13728TIP3    H241128   1.073   7.766   1.995
13729TIP3   OH241129   5.208   6.633   4.193
13729TIP3    H141130   5.262   6.592   4.261
13729TIP3    H241131   5.202   6.724   4.220
13730TIP3   OH241132   7.288   1.291   5.867
13730TIP3    H141133   7.383   1.292   5.873
13730TIP3    H241134   7.260   1.232   5.937
13731TIP3   OH241135   7.352   2.941   3.557
13731TIP3    H141136   7.283   2.923   3.493
13731TIP3    H241137   7.311   2.921   3.642
13732TIP3   OH241138   4.640   6.212   3.353
13732TIP3    H141139   4.696   6.216   3.430
13732TIP3    H241140   4.618   6.119   3.343
13733TIP3   OH241141   1.451   6.870   4.203
13733TIP3    H141142   1.534   6.915   4.190
13733TIP3    H241143   1.420   6.850   4.115
13734TIP3   OH241144   8.217   2.266   1.121
13734TIP3    H141145   8.229   2.271   1.027
13734TIP3    H241146   8.123   2.276   1.134
13735TIP3   OH241147   2.777   6.278   3.644
13735TIP3    H141148   2.748   6.337   3.575
13735TIP3    H241149   2.763   6.190   3.608
13736TIP3   OH241150   0.559   6.695   1.092
13736TIP3    H141151   0.508   6.636   1.147
13736TIP3    H241152   0.599   6.638   1.027
13737TIP3   OH241153   8.172   5.649   2.924
13737TIP3    H141154   8.107   5.606   2.979
13737TIP3    H241155   8.257   5.621   2.960
13738TIP3   OH241156   5.865   5.650   5.189
13738TIP3    H141157   5.816   5.696   5.121
13738TIP3    H241158   5.903   5.574   5.144
13739TIP3   OH241159   7.762   0.982   0.894
13739TIP3    H141160   7.756   1.000   0.800
13739TIP3    H241161   7.836   1.036   0.923
13740TIP3   OH241162   7.999   1.721   0.882
13740TIP3    H141163   7.936   1.746   0.950
13740TIP3    H241164   7.949   1.663   0.824
13741TIP3   OH241165   4.630   2.360   1.962
13741TIP3    H141166   4.718   2.375   1.929
13741TIP3    H241167   4.580   2.436   1.933
13742TIP3   OH241168   6.361   6.609   0.932
13742TIP3    H141169   6.429   6.543   0.914
13742TIP3    H241170   6.401   6.692   0.910
13743TIP3   OH241171   3.358   2.964   0.670
13743TIP3    H141172   3.361   2.920   0.755
13743TIP3    H241173   3.311   3.046   0.688
13744TIP3   OH241174   2.926   1.291   1.923
13744TIP3    H141175   2.932   1.228   1.995
13744TIP3    H241176   3.010   1.283   1.877
13745TIP3   OH241177   3.369   6.430   1.019
13745TIP3    H141178   3.405   6.379   1.092
13745TIP3    H241179   3.442   6.440   0.958
13746TIP3   OH241180   7.852   2.909   4.626
13746TIP3    H141181   7.816   2.823   4.604
13746TIP3    H241182   7.776   2.964   4.642
13747TIP3   OH241183   1.413   7.260   5.251
13747TIP3    H141184   1.497   7.306   5.247
13747TIP3    H241185   1.402   7.238   5.344
13748TIP3   OH241186   1.893   3.341   1.790
13748TIP3    H141187   1.811   3.313   1.750
13748TIP3    H241188   1.947   3.371   1.717
13749TIP3   OH241189   0.093   6.760   6.339
13749TIP3    H141190   0.123   6.703   6.268
13749TIP3    H241191   0.031   6.706   6.389
13750TIP3   OH241192   0.297   5.445   1.117
13750TIP3    H141193   0.377   5.457   1.066
13750TIP3    H241194   0.238   5.514   1.085
13751TIP3   OH241195   7.406   1.493   6.530
13751TIP3    H141196   7.437   1.408   6.500
13751TIP3    H241197   7.419   1.491   6.625
13752TIP3   OH241198   6.527   0.690   0.362
13752TIP3    H141199   6.508   0.633   0.287
13752TIP3    H241200   6.548   0.775   0.323
13753TIP3   OH241201   2.156   2.844   3.010
13753TIP3    H141202   2.205   2.782   2.955
13753TIP3    H241203   2.064   2.820   2.997
13754TIP3   OH241204   2.462   5.339   2.994
13754TIP3    H141205   2.398   5.286   3.041
13754TIP3    H241206   2.413   5.417   2.967
13755TIP3   OH241207   2.672   4.126   6.474
13755TIP3    H141208   2.722   4.072   6.535
13755TIP3    H241209   2.727   4.134   6.397
13756TIP3   OH241210   3.864   4.863   6.597
13756TIP3    H141211   3.805   4.802   6.642
13756TIP3    H241212   3.845   4.948   6.636
13757TIP3   OH241213   0.823   0.751   3.450
13757TIP3    H141214   0.753   0.710   3.502
13757TIP3    H241215   0.899   0.747   3.507
13758TIP3   OH241216   4.571   2.876   4.794
13758TIP3    H141217   4.503   2.828   4.748
13758TIP3    H241218   4.641   2.812   4.808
13759TIP3   OH241219   4.032   4.392   2.534
13759TIP3    H141220   4.047   4.411   2.442
13759TIP3    H241221   4.111   4.420   2.579
13760TIP3   OH241222   4.991   1.599   5.686
13760TIP3    H141223   5.083   1.618   5.668
13760TIP3    H241224   4.974   1.517   5.640
13761TIP3   OH241225   6.910   5.854   3.773
13761TIP3    H141226   6.917   5.928   3.713
13761TIP3    H241227   6.981   5.795   3.748
13762TIP3   OH241228   1.389   4.809   6.775
13762TIP3    H141229   1.378   4.724   6.732
13762TIP3    H241230   1.320   4.864   6.737
13763TIP3   OH241231   5.666   3.166   1.822
13763TIP3    H141232   5.654   3.225   1.896
13763TIP3    H241233   5.750   3.123   1.837
13764TIP3   OH241234   5.261   2.906   3.704
13764TIP3    H141235   5.205   2.976   3.671
13764TIP3    H241236   5.350   2.939   3.691
13765TIP3   OH241237   2.196   7.329   1.382
13765TIP3    H141238   2.272   7.386   1.385
13765TIP3    H241239   2.152   7.343   1.466
13766TIP3   OH241240   3.215   0.946   6.638
13766TIP3    H141241   3.222   1.034   6.673
13766TIP3    H241242   3.282   0.942   6.569
13767TIP3   OH241243   5.825   6.026   0.058
13767TIP3    H141244   5.861   6.019   0.146
13767TIP3    H241245   5.731   6.014   0.069
13768TIP3   OH241246   5.563   0.980   0.851
13768TIP3    H141247   5.633   1.044   0.833
13768TIP3    H241248   5.588   0.941   0.935
13769TIP3   OH241249   7.133   4.899   3.961
13769TIP3    H141250   7.211   4.847   3.978
13769TIP3    H241251   7.147   4.980   4.009
13770TIP3   OH241252   5.450   7.078   6.540
13770TIP3    H141253   5.387   7.107   6.475
13770TIP3    H241254   5.519   7.036   6.490
13771TIP3   OH241255   2.836   5.133   6.642
13771TIP3    H141256   2.776   5.095   6.706
13771TIP3    H241257   2.836   5.227   6.662
13772TIP3   OH241258   2.477   6.956   2.037
13772TIP3    H141259   2.494   7.030   2.096
13772TIP3    H241260   2.509   6.985   1.952
13773TIP3   OH241261   3.398   6.058   0.916
13773TIP3    H141262   3.311   6.100   0.913
13773TIP3    H241263   3.390   5.983   0.857
13774TIP3   OH241264   1.032   0.196   3.283
13774TIP3    H141265   1.124   0.190   3.258
13774TIP3    H241266   1.017   0.119   3.339
13775TIP3   OH241267   6.864   5.627   0.610
13775TIP3    H141268   6.803   5.555   0.595
13775TIP3    H241269   6.922   5.596   0.680
13776TIP3   OH241270   8.311   0.890   1.873
13776TIP3    H141271   8.215   0.884   1.879
13776TIP3    H241272   8.330   0.882   1.780
13777TIP3   OH241273   7.312   1.741   6.447
13777TIP3    H141274   7.332   1.648   6.459
13777TIP3    H241275   7.281   1.770   6.533
13778TIP3   OH241276   3.446   0.279   3.064
13778TIP3    H141277   3.357   0.244   3.075
13778TIP3    H241278   3.469   0.256   2.974
13779TIP3   OH241279   4.396   3.246   1.990
13779TIP3    H141280   4.374   3.264   2.081
13779TIP3    H241281   4.413   3.332   1.952
13780TIP3   OH241282   3.190   5.518   3.409
13780TIP3    H141283   3.160   5.609   3.404
13780TIP3    H241284   3.151   5.485   3.490
13781TIP3   OH241285   0.793   6.843   0.971
13781TIP3    H141286   0.831   6.766   0.930
13781TIP3    H241287   0.762   6.813   1.056
13782TIP3   OH241288   4.614   0.620   1.557
13782TIP3    H141289   4.574   0.566   1.625
13782TIP3    H241290   4.570   0.594   1.476
13783TIP3   OH241291   4.265   2.706   1.920
13783TIP3    H141292   4.233   2.660   1.843
13783TIP3    H241293   4.311   2.639   1.971
13784TIP3   OH241294   4.227   4.017   4.704
13784TIP3    H141295   4.257   4.058   4.623
13784TIP3    H241296   4.306   3.980   4.743
13785TIP3   OH241297   4.940   0.870   4.751
13785TIP3    H141298   4.946   0.951   4.801
13785TIP3    H241299   4.997   0.883   4.676
13786TIP3   OH241300   5.908   3.804   5.107
13786TIP3    H141301   5.892   3.884   5.158
13786TIP3    H241302   5.985   3.825   5.054
13787TIP3   OH241303   1.140   0.773   4.377
13787TIP3    H141304   1.081   0.747   4.449
13787TIP3    H241305   1.086   0.830   4.322
13788TIP3   OH241306   3.641   0.791   1.370
13788TIP3    H141307   3.706   0.725   1.393
13788TIP3    H241308   3.560   0.759   1.410
13789TIP3   OH241309   5.229   0.229   3.050
13789TIP3    H141310   5.304   0.183   3.087
13789TIP3    H241311   5.246   0.232   2.956
13790TIP3   OH241312   6.371   7.003   5.295
13790TIP3    H141313   6.426   7.010   5.373
13790TIP3    H241314   6.373   7.091   5.257
13791TIP3   OH241315   0.709   3.722   2.080
13791TIP3    H141316   0.805   3.717   2.079
13791TIP3    H241317   0.683   3.664   2.151
13792TIP3   OH241318   7.095   6.275   1.133
13792TIP3    H141319   7.053   6.204   1.085
13792TIP3    H241320   7.023   6.336   1.153
13793TIP3   OH241321   3.077   4.259   0.320
13793TIP3    H141322   3.165   4.296   0.306
13793TIP3    H241323   3.089   4.194   0.389
13794TIP3   OH241324   6.370   3.986   4.758
13794TIP3    H141325   6.344   4.004   4.668
13794TIP3    H241326   6.396   3.895   4.758
13795TIP3   OH241327   0.336   7.578   0.457
13795TIP3    H141328   0.288   7.565   0.539
13795TIP3    H241329   0.420   7.615   0.483
13796TIP3   OH241330   3.836   1.672   5.027
13796TIP3    H141331   3.860   1.580   5.017
13796TIP3    H241332   3.746   1.670   5.061
13797TIP3   OH241333   1.650   2.812   2.813
13797TIP3    H141334   1.710   2.864   2.866
13797TIP3    H241335   1.585   2.874   2.780
13798TIP3   OH241336   0.373   1.501   1.371
13798TIP3    H141337   0.295   1.470   1.324
13798TIP3    H241338   0.442   1.440   1.347
13799TIP3   OH241339   4.257   3.642   2.513
13799TIP3    H141340   4.169   3.616   2.485
13799TIP3    H241341   4.266   3.606   2.601
13800TIP3   OH241342   6.504   7.736   5.935
13800TIP3    H141343   6.508   7.791   6.013
13800TIP3    H241344   6.491   7.647   5.969
13801TIP3   OH241345   3.907   5.424   5.385
13801TIP3    H141346   3.934   5.457   5.299
13801TIP3    H241347   3.861   5.497   5.426
13802TIP3   OH241348   4.591   3.589   0.155
13802TIP3    H141349   4.627   3.559   0.072
13802TIP3    H241350   4.565   3.510   0.201
13803TIP3   OH241351   7.383   7.643   3.746
13803TIP3    H141352   7.397   7.702   3.821
13803TIP3    H241353   7.365   7.701   3.673
13804TIP3   OH241354   3.034   1.894   3.099
13804TIP3    H141355   3.016   1.929   3.186
13804TIP3    H241356   3.102   1.828   3.113
13805TIP3   OH241357   1.854   7.563   2.414
13805TIP3    H141358   1.909   7.641   2.415
13805TIP3    H241359   1.769   7.592   2.448
13806TIP3   OH241360   7.015   7.138   3.647
13806TIP3    H141361   7.011   7.227   3.613
13806TIP3    H241362   6.924   7.110   3.653
13807TIP3   OH241363   0.156   7.027   2.223
13807TIP3    H141364   0.077   6.976   2.237
13807TIP3    H241365   0.227   6.972   2.257
13808TIP3   OH241366   7.647   3.768   5.128
13808TIP3    H141367   7.704   3.837   5.163
13808TIP3    H241368   7.574   3.765   5.189
13809TIP3   OH241369   1.706   6.735   0.692
13809TIP3    H141370   1.763   6.714   0.618
13809TIP3    H241371   1.763   6.726   0.769
13810TIP3   OH241372   4.929   4.219   0.875
13810TIP3    H141373   4.916   4.294   0.816
13810TIP3    H241374   4.947   4.259   0.960
13811TIP3   OH241375   2.271   5.729   5.150
13811TIP3    H141376   2.359   5.753   5.122
13811TIP3    H241377   2.218   5.806   5.131
13812TIP3   OH241378   3.900   5.319   6.385
13812TIP3    H141379   3.836   5.293   6.318
13812TIP3    H241380   3.865   5.401   6.420
13813TIP3   OH241381   3.863   0.572   2.481
13813TIP3    H141382   3.788   0.551   2.424
13813TIP3    H241383   3.828   0.634   2.545
13814TIP3   OH241384   5.467   4.245   0.472
13814TIP3    H141385   5.439   4.296   0.396
13814TIP3    H241386   5.385   4.224   0.517
13815TIP3   OH241387   1.673   3.759   1.703
13815TIP3    H141388   1.701   3.835   1.651
13815TIP3    H241389   1.753   3.724   1.741
13816TIP3   OH241390   3.657   2.577   5.999
13816TIP3    H141391   3.596   2.598   6.070
13816TIP3    H241392   3.732   2.538   6.044
13817TIP3   OH241393   0.633   5.754   4.427
13817TIP3    H141394   0.541   5.731   4.430
13817TIP3    H241395   0.648   5.805   4.507
13818TIP3   OH241396   6.930   4.529   3.819
13818TIP3    H141397   6.995   4.555   3.753
13818TIP3    H241398   6.883   4.456   3.778
13819TIP3   OH241399   2.123   0.466   5.967
13819TIP3    H141400   2.185   0.501   5.904
13819TIP3    H241401   2.060   0.416   5.914
13820TIP3   OH241402   5.881   2.937   5.389
13820TIP3    H141403   5.907   3.014   5.338
13820TIP3    H241404   5.849   2.875   5.324
13821TIP3   OH241405   5.597   4.566   1.946
13821TIP3    H141406   5.638   4.578   1.861
13821TIP3    H241407   5.513   4.609   1.939
13822TIP3   OH241408   6.414   0.899   2.786
13822TIP3    H141409   6.476   0.955   2.738
13822TIP3    H241410   6.339   0.891   2.728
13823TIP3   OH241411   7.846   2.788   4.227
13823TIP3    H141412   7.937   2.786   4.257
13823TIP3    H241413   7.850   2.823   4.138
13824TIP3   OH241414   1.370   2.499   6.188
13824TIP3    H141415   1.432   2.428   6.204
13824TIP3    H241416   1.411   2.552   6.120
13825TIP3   OH241417   6.473   4.561   2.724
13825TIP3    H141418   6.425   4.578   2.644
13825TIP3    H241419   6.556   4.607   2.712
13826TIP3   OH241420   1.148   5.671   3.466
13826TIP3    H141421   1.144   5.740   3.401
13826TIP3    H241422   1.174   5.715   3.547
13827TIP3   OH241423   6.592   6.862   5.714
13827TIP3    H141424   6.640   6.788   5.678
13827TIP3    H241425   6.540   6.825   5.785
13828TIP3   OH241426   5.588   2.741   6.455
13828TIP3    H141427   5.564   2.648   6.459
13828TIP3    H241428   5.664   2.743   6.397
13829TIP3   OH241429   3.569   6.642   6.321
13829TIP3    H141430   3.630   6.587   6.272
13829TIP3    H241431   3.548   6.590   6.399
13830TIP3   OH241432   6.746   6.885   3.759
13830TIP3    H141433   6.805   6.902   3.833
13830TIP3    H241434   6.750   6.965   3.706
13831TIP3   OH241435   8.237   3.530   5.165
13831TIP3    H141436   8.245   3.608   5.221
13831TIP3    H241437   8.321   3.484   5.177
13832TIP3   OH241438   7.410   6.596   2.607
13832TIP3    H141439   7.465   6.561   2.537
13832TIP3    H241440   7.472   6.625   2.675
13833TIP3   OH241441   5.683   6.889   5.046
13833TIP3    H141442   5.588   6.880   5.052
13833TIP3    H241443   5.701   6.980   5.067
13834TIP3   OH241444   5.166   5.843   0.346
13834TIP3    H141445   5.234   5.895   0.303
13834TIP3    H241446   5.095   5.905   0.363
13835TIP3   OH241447   7.772   0.262   4.697
13835TIP3    H141448   7.697   0.266   4.637
13835TIP3    H241449   7.831   0.198   4.658
13836TIP3   OH241450   5.426   7.033   0.641
13836TIP3    H141451   5.503   7.059   0.691
13836TIP3    H241452   5.447   6.947   0.606
13837TIP3   OH241453   3.075   0.296   6.053
13837TIP3    H141454   3.009   0.271   5.988
13837TIP3    H241455   3.056   0.388   6.071
13838TIP3   OH241456   7.402   0.487   1.053
13838TIP3    H141457   7.467   0.499   1.122
13838TIP3    H241458   7.406   0.568   1.002
13839TIP3   OH241459   0.388   1.341   4.873
13839TIP3    H141460   0.450   1.358   4.944
13839TIP3    H241461   0.391   1.246   4.860
13840TIP3   OH241462   5.218   1.542   1.482
13840TIP3    H141463   5.290   1.538   1.419
13840TIP3    H241464   5.156   1.604   1.443
13841TIP3   OH241465   4.084   1.173   5.521
13841TIP3    H141466   4.117   1.100   5.469
13841TIP3    H241467   3.994   1.149   5.543
13842TIP3   OH241468   0.874   5.761   0.909
13842TIP3    H141469   0.877   5.745   1.003
13842TIP3    H241470   0.962   5.741   0.878
13843TIP3   OH241471   3.511   0.089   2.504
13843TIP3    H141472   3.585   0.075   2.563
13843TIP3    H241473   3.489   0.181   2.515
13844TIP3   OH241474   3.393   7.310   4.939
13844TIP3    H141475   3.329   7.350   4.998
13844TIP3    H241476   3.385   7.359   4.857
13845TIP3   OH241477   0.720   4.254   5.626
13845TIP3    H141478   0.677   4.336   5.603
13845TIP3    H241479   0.649   4.190   5.631
13846TIP3   OH241480   0.472   2.719   5.784
13846TIP3    H141481   0.410   2.654   5.752
13846TIP3    H241482   0.545   2.668   5.818
13847TIP3   OH241483   4.224   5.336   1.832
13847TIP3    H141484   4.292   5.401   1.814
13847TIP3    H241485   4.231   5.319   1.926
13848TIP3   OH241486   3.925   1.208   0.090
13848TIP3    H141487   3.925   1.167   0.177
13848TIP3    H241488   3.863   1.155   0.039
13849TIP3   OH241489   6.684   3.861   4.056
13849TIP3    H141490   6.699   3.912   4.135
13849TIP3    H241491   6.617   3.797   4.080
13850TIP3   OH241492   5.047   5.019   6.707
13850TIP3    H141493   5.132   5.063   6.713
13850TIP3    H241494   5.066   4.927   6.727
13851TIP3   OH241495   5.791   6.814   4.525
13851TIP3    H141496   5.807   6.801   4.619
13851TIP3    H241497   5.728   6.746   4.502
13852TIP3   OH241498   7.754   7.377   4.099
13852TIP3    H141499   7.668   7.369   4.140
13852TIP3    H241500   7.741   7.345   4.010
13853TIP3   OH241501   7.126   4.208   4.758
13853TIP3    H141502   7.189   4.137   4.747
13853TIP3    H241503   7.128   4.256   4.675
13854TIP3   OH241504   5.416   0.057   4.919
13854TIP3    H141505   5.501   0.066   4.960
13854TIP3    H241506   5.396   0.144   4.884
13855TIP3   OH241507   1.904   0.578   3.685
13855TIP3    H141508   1.910   0.652   3.624
13855TIP3    H241509   1.813   0.579   3.716
13856TIP3   OH241510   7.035   2.748   4.798
13856TIP3    H141511   6.978   2.810   4.751
13856TIP3    H241512   7.031   2.668   4.745
13857TIP3   OH241513   5.598   4.282   3.759
13857TIP3    H141514   5.638   4.236   3.685
13857TIP3    H241515   5.672   4.314   3.810
13858TIP3   OH241516   1.314   6.219   4.503
13858TIP3    H141517   1.365   6.151   4.459
13858TIP3    H241518   1.225   6.184   4.506
13859TIP3   OH241519   0.920   0.805   0.764
13859TIP3    H141520   1.014   0.789   0.753
13859TIP3    H241521   0.913   0.899   0.776
13860TIP3   OH241522   6.532   3.048   5.763
13860TIP3    H141523   6.500   3.073   5.676
13860TIP3    H241524   6.602   3.110   5.782
13861TIP3   OH241525   3.687   1.768   2.674
13861TIP3    H141526   3.617   1.787   2.736
13861TIP3    H241527   3.651   1.795   2.589
13862TIP3   OH241528   4.205   4.848   1.340
13862TIP3    H141529   4.182   4.872   1.429
13862TIP3    H241530   4.199   4.752   1.338
13863TIP3   OH241531   3.752   6.886   5.649
13863TIP3    H141532   3.734   6.793   5.659
13863TIP3    H241533   3.682   6.930   5.698
13864TIP3   OH241534   5.291   2.184   1.899
13864TIP3    H141535   5.291   2.123   1.973
13864TIP3    H241536   5.350   2.144   1.835
13865TIP3   OH241537   3.977   6.515   3.175
13865TIP3    H141538   3.909   6.466   3.129
13865TIP3    H241539   3.929   6.562   3.243
13866TIP3   OH241540   2.032   6.971   6.637
13866TIP3    H141541   1.992   7.044   6.685
13866TIP3    H241542   2.114   7.007   6.604
13867TIP3   OH241543   7.410   7.461   0.119
13867TIP3    H141544   7.318   7.438   0.133
13867TIP3    H241545   7.458   7.379   0.138
13868TIP3   OH241546   6.218   1.736   2.555
13868TIP3    H141547   6.151   1.722   2.489
13868TIP3    H241548   6.284   1.669   2.537
13869TIP3   OH241549   6.689   2.674   5.447
13869TIP3    H141550   6.724   2.595   5.487
13869TIP3    H241551   6.753   2.698   5.380
13870TIP3   OH241552   4.682   3.753   6.218
13870TIP3    H141553   4.747   3.805   6.265
13870TIP3    H241554   4.615   3.734   6.284
13871TIP3   OH241555   7.344   7.600   6.581
13871TIP3    H141556   7.254   7.570   6.579
13871TIP3    H241557   7.377   7.585   6.492
13872TIP3   OH241558   5.613   5.576   0.443
13872TIP3    H141559   5.592   5.595   0.351
13872TIP3    H241560   5.542   5.618   0.492
13873TIP3   OH241561   3.399   4.990   1.936
13873TIP3    H141562   3.471   4.936   1.902
13873TIP3    H241563   3.321   4.938   1.919
13874TIP3   OH241564   3.258   7.805   0.206
13874TIP3    H141565   3.231   7.772   0.120
13874TIP3    H241566   3.241   7.899   0.201
13875TIP3   OH241567   7.996   1.715   2.161
13875TIP3    H141568   8.005   1.676   2.074
13875TIP3    H241569   7.904   1.702   2.183
13876TIP3   OH241570   0.135   1.895   2.160
13876TIP3    H141571   0.065   1.847   2.205
13876TIP3    H241572   0.114   1.987   2.174
13877TIP3   OH241573   3.134   6.197   1.260
13877TIP3    H141574   3.222   6.179   1.292
13877TIP3    H241575   3.076   6.174   1.333
13878TIP3   OH241576   4.253   6.791   5.311
13878TIP3    H141577   4.234   6.850   5.384
13878TIP3    H241578   4.172   6.740   5.300
13879TIP3   OH241579   4.652   0.314   6.109
13879TIP3    H141580   4.641   0.219   6.110
13879TIP3    H241581   4.738   0.328   6.070
13880TIP3   OH241582   3.996   0.754   5.089
13880TIP3    H141583   3.930   0.779   5.153
13880TIP3    H241584   4.050   0.832   5.079
13881TIP3   OH241585   4.312   1.214   4.421
13881TIP3    H141586   4.358   1.244   4.343
13881TIP3    H241587   4.247   1.282   4.439
13882TIP3   OH241588   0.015   4.480   3.447
13882TIP3    H141589  -0.034   4.491   3.365
13882TIP3    H241590  -0.024   4.402   3.487
13883TIP3   OH241591   4.382   3.436   3.893
13883TIP3    H141592   4.440   3.509   3.914
13883TIP3    H241593   4.294   3.474   3.893
13884TIP3   OH241594   2.010   1.144   2.075
13884TIP3    H141595   1.976   1.128   2.163
13884TIP3    H241596   1.970   1.076   2.021
13885TIP3   OH241597   2.825   7.711   3.811
13885TIP3    H141598   2.821   7.615   3.800
13885TIP3    H241599   2.755   7.744   3.754
13886TIP3   OH241600   3.017   0.691   6.456
13886TIP3    H141601   3.067   0.746   6.395
13886TIP3    H241602   2.926   0.698   6.425
13887TIP3   OH241603   6.000   2.767   3.808
13887TIP3    H141604   5.934   2.829   3.840
13887TIP3    H241605   6.033   2.807   3.727
13888TIP3   OH241606   2.960   3.551   3.722
13888TIP3    H141607   3.045   3.593   3.731
13888TIP3    H241608   2.921   3.593   3.645
13889TIP3   OH241609   6.279   5.068   1.448
13889TIP3    H141610   6.262   4.976   1.468
13889TIP3    H241611   6.352   5.092   1.505
13890TIP3   OH241612   2.041   4.806   3.898
13890TIP3    H141613   2.004   4.869   3.836
13890TIP3    H241614   2.047   4.854   3.981
13891TIP3   OH241615   4.396   1.207   5.350
13891TIP3    H141616   4.399   1.224   5.256
13891TIP3    H241617   4.323   1.147   5.361
13892TIP3   OH241618   6.714   1.054   1.243
13892TIP3    H141619   6.751   0.976   1.201
13892TIP3    H241620   6.747   1.126   1.190
13893TIP3   OH241621   2.253   5.800   4.742
13893TIP3    H141622   2.175   5.786   4.795
13893TIP3    H241623   2.261   5.895   4.735
13894TIP3   OH241624   7.360   2.686   4.854
13894TIP3    H141625   7.335   2.742   4.781
13894TIP3    H241626   7.306   2.607   4.843
13895TIP3   OH241627   5.993   1.491   5.238
13895TIP3    H141628   6.032   1.487   5.151
13895TIP3    H241629   5.940   1.571   5.236
13896TIP3   OH241630   5.104   7.032   4.975
13896TIP3    H141631   5.039   6.962   4.990
13896TIP3    H241632   5.076   7.073   4.894
13897TIP3   OH241633   4.352   2.776   0.098
13897TIP3    H141634   4.341   2.790   0.004
13897TIP3    H241635   4.405   2.851   0.127
13898TIP3   OH241636   2.545   7.334   6.434
13898TIP3    H141637   2.484   7.356   6.505
13898TIP3    H241638   2.490   7.303   6.363
13899TIP3   OH241639   1.963   7.444   4.106
13899TIP3    H141640   1.979   7.365   4.054
13899TIP3    H241641   1.974   7.416   4.197
13900TIP3   OH241642   5.748   2.051   0.879
13900TIP3    H141643   5.828   2.099   0.901
13900TIP3    H241644   5.678   2.111   0.901
13901TIP3   OH241645   5.846   7.409   3.100
13901TIP3    H141646   5.768   7.376   3.144
13901TIP3    H241647   5.918   7.390   3.161
13902TIP3   OH241648   3.549   4.228   4.109
13902TIP3    H141649   3.520   4.295   4.171
13902TIP3    H241650   3.496   4.151   4.129
13903TIP3   OH241651   4.531   0.440   2.055
13903TIP3    H141652   4.621   0.428   2.086
13903TIP3    H241653   4.497   0.351   2.044
13904TIP3   OH241654   5.424   1.208   4.297
13904TIP3    H141655   5.420   1.290   4.345
13904TIP3    H241656   5.401   1.141   4.362
13905TIP3   OH241657   8.181   0.802   3.828
13905TIP3    H141658   8.184   0.793   3.733
13905TIP3    H241659   8.250   0.745   3.860
13906TIP3   OH241660   3.583   2.164   3.486
13906TIP3    H141661   3.568   2.207   3.402
13906TIP3    H241662   3.573   2.234   3.551
13907TIP3   OH241663   5.613   3.449   0.728
13907TIP3    H141664   5.619   3.356   0.706
13907TIP3    H241665   5.669   3.459   0.805
13908TIP3   OH241666   1.372   0.858   3.890
13908TIP3    H141667   1.325   0.782   3.923
13908TIP3    H241668   1.343   0.867   3.799
13909TIP3   OH241669   7.380   4.115   2.812
13909TIP3    H141670   7.415   4.204   2.823
13909TIP3    H241671   7.386   4.099   2.718
13910TIP3   OH241672   2.703   6.428   3.415
13910TIP3    H141673   2.640   6.469   3.475
13910TIP3    H241674   2.742   6.501   3.367
13911TIP3   OH241675   0.231   2.996   5.605
13911TIP3    H141676   0.158   3.057   5.610
13911TIP3    H241677   0.193   2.915   5.571
13912TIP3   OH241678   0.866   3.315   1.501
13912TIP3    H141679   0.797   3.347   1.559
13912TIP3    H241680   0.918   3.393   1.481
13913TIP3   OH241681   8.168   7.406   1.367
13913TIP3    H141682   8.156   7.483   1.312
13913TIP3    H241683   8.085   7.397   1.414
13914TIP3   OH241684   2.750   3.388   4.832
13914TIP3    H141685   2.741   3.309   4.779
13914TIP3    H241686   2.825   3.371   4.889
13915TIP3   OH241687   3.330   4.956   6.081
13915TIP3    H141688   3.259   4.986   6.137
13915TIP3    H241689   3.288   4.938   5.997
13916TIP3   OH241690   0.007   4.552   1.239
13916TIP3    H141691  -0.013   4.606   1.316
13916TIP3    H241692  -0.027   4.465   1.263
13917TIP3   OH241693   5.570   4.656   6.152
13917TIP3    H141694   5.499   4.712   6.183
13917TIP3    H241695   5.587   4.686   6.063
13918TIP3   OH241696   0.131   1.304   5.101
13918TIP3    H141697   0.096   1.229   5.052
13918TIP3    H241698   0.065   1.321   5.168
13919TIP3   OH241699   1.586   3.062   1.426
13919TIP3    H141700   1.649   3.050   1.497
13919TIP3    H241701   1.515   3.001   1.445
13920TIP3   OH241702   5.048   4.823   3.656
13920TIP3    H141703   4.974   4.846   3.713
13920TIP3    H241704   5.125   4.857   3.701
13921TIP3   OH241705   7.168   5.333   2.686
13921TIP3    H141706   7.191   5.243   2.708
13921TIP3    H241707   7.156   5.376   2.770
13922TIP3   OH241708   4.355   5.870   3.661
13922TIP3    H141709   4.378   5.806   3.594
13922TIP3    H241710   4.283   5.829   3.709
13923TIP3   OH241711   2.389   1.530   5.782
13923TIP3    H141712   2.338   1.456   5.750
13923TIP3    H241713   2.479   1.508   5.758
13924TIP3   OH241714   2.772   4.171   5.330
13924TIP3    H141715   2.812   4.256   5.308
13924TIP3    H241716   2.698   4.193   5.386
13925TIP3   OH241717   3.593   5.818   3.096
13925TIP3    H141718   3.600   5.724   3.113
13925TIP3    H241719   3.656   5.835   3.026
13926TIP3   OH241720   1.258   3.403   3.426
13926TIP3    H141721   1.247   3.485   3.473
13926TIP3    H241722   1.352   3.395   3.412
13927TIP3   OH241723   3.793   4.737   2.295
13927TIP3    H141724   3.819   4.650   2.265
13927TIP3    H241725   3.757   4.779   2.217
13928TIP3   OH241726   4.121   4.191   3.424
13928TIP3    H141727   4.199   4.194   3.368
13928TIP3    H241728   4.117   4.101   3.455
13929TIP3   OH241729   1.258   6.984   3.005
13929TIP3    H141730   1.298   7.058   2.959
13929TIP3    H241731   1.260   7.009   3.097
13930TIP3   OH241732   7.366   0.456   1.364
13930TIP3    H141733   7.381   0.400   1.440
13930TIP3    H241734   7.415   0.536   1.383
13931TIP3   OH241735   0.085   6.861   3.899
13931TIP3    H141736   0.008   6.833   3.850
13931TIP3    H241737   0.067   6.952   3.924
13932TIP3   OH241738   4.485   0.681   2.624
13932TIP3    H141739   4.537   0.672   2.544
13932TIP3    H241740   4.403   0.636   2.604
13933TIP3   OH241741   7.629   3.998   0.451
13933TIP3    H141742   7.579   4.040   0.522
13933TIP3    H241743   7.623   4.059   0.378
13934TIP3   OH241744   8.198   4.073   5.734
13934TIP3    H141745   8.260   4.115   5.795
13934TIP3    H241746   8.254   4.039   5.664
13935TIP3   OH241747   6.039   4.843   3.485
13935TIP3    H141748   5.988   4.907   3.434
13935TIP3    H241749   6.055   4.771   3.424
13936TIP3   OH241750   1.318   0.499   1.538
13936TIP3    H141751   1.230   0.480   1.505
13936TIP3    H241752   1.304   0.554   1.615
13937TIP3   OH241753   4.270   0.427   3.346
13937TIP3    H141754   4.219   0.497   3.303
13937TIP3    H241755   4.322   0.389   3.275
13938TIP3   OH241756   4.276   1.592   2.529
13938TIP3    H141757   4.351   1.545   2.493
13938TIP3    H241758   4.267   1.557   2.618
13939TIP3   OH241759   3.452   2.740   5.054
13939TIP3    H141760   3.381   2.804   5.060
13939TIP3    H241761   3.407   2.657   5.038
13940TIP3   OH241762   3.024   5.277   1.734
13940TIP3    H141763   3.044   5.286   1.641
13940TIP3    H241764   3.092   5.329   1.778
13941TIP3   OH241765   4.851   5.895   1.553
13941TIP3    H141766   4.846   5.870   1.460
13941TIP3    H241767   4.856   5.812   1.600
13942TIP3   OH241768   5.657   4.011   1.286
13942TIP3    H141769   5.597   4.073   1.245
13942TIP3    H241770   5.742   4.056   1.285
13943TIP3   OH241771   1.277   0.151   5.281
13943TIP3    H141772   1.338   0.145   5.355
13943TIP3    H241773   1.233   0.066   5.279
13944TIP3   OH241774   6.174   5.100   5.130
13944TIP3    H141775   6.174   5.162   5.203
13944TIP3    H241776   6.146   5.151   5.055
13945TIP3   OH241777   4.269   1.993   5.194
13945TIP3    H141778   4.288   2.007   5.101
13945TIP3    H241779   4.266   2.081   5.231
13946TIP3   OH241780   4.201   0.181   2.109
13946TIP3    H141781   4.111   0.148   2.098
13946TIP3    H241782   4.192   0.276   2.104
13947TIP3   OH241783   0.850   2.868   6.367
13947TIP3    H141784   0.903   2.947   6.373
13947TIP3    H241785   0.805   2.876   6.282
13948TIP3   OH241786   5.081   6.037   4.876
13948TIP3    H141787   5.163   6.003   4.842
13948TIP3    H241788   5.018   5.966   4.862
13949TIP3   OH241789   4.815   7.286   2.241
13949TIP3    H141790   4.761   7.267   2.165
13949TIP3    H241791   4.855   7.202   2.265
13950TIP3   OH241792   2.087   3.847   4.163
13950TIP3    H141793   2.054   3.891   4.242
13950TIP3    H241794   2.173   3.887   4.147
13951TIP3   OH241795   0.249   4.347   3.365
13951TIP3    H141796   0.157   4.358   3.387
13951TIP3    H241797   0.293   4.345   3.450
13952TIP3   OH241798   3.012   7.051   5.501
13952TIP3    H141799   2.936   7.097   5.465
13952TIP3    H241800   3.080   7.061   5.435
13953TIP3   OH241801   3.183   7.504   0.981
13953TIP3    H141802   3.170   7.426   0.928
13953TIP3    H241803   3.150   7.576   0.926
13954TIP3   OH241804   5.474   2.044   0.175
13954TIP3    H141805   5.395   2.095   0.153
13954TIP3    H241806   5.456   1.957   0.141
13955TIP3   OH241807   4.586   2.507   3.481
13955TIP3    H141808   4.536   2.529   3.402
13955TIP3    H241809   4.522   2.516   3.553
13956TIP3   OH241810   5.998   6.439   2.538
13956TIP3    H141811   6.012   6.444   2.633
13956TIP3    H241812   6.087   6.438   2.501
13957TIP3   OH241813   2.430   3.312   0.393
13957TIP3    H141814   2.381   3.393   0.406
13957TIP3    H241815   2.446   3.308   0.299
13958TIP3   OH241816   0.285   2.375   4.488
13958TIP3    H141817   0.242   2.290   4.477
13958TIP3    H241818   0.221   2.439   4.459
13959TIP3   OH241819   1.316   7.253   1.229
13959TIP3    H141820   1.367   7.213   1.300
13959TIP3    H241821   1.236   7.284   1.273
13960TIP3   OH241822   7.125   4.457   2.076
13960TIP3    H141823   7.201   4.454   2.134
13960TIP3    H241824   7.161   4.457   1.988
13961TIP3   OH241825   0.139   5.833   4.571
13961TIP3    H141826   0.067   5.774   4.589
13961TIP3    H241827   0.106   5.892   4.503
13962TIP3   OH241828   4.570   1.378   1.852
13962TIP3    H141829   4.522   1.304   1.889
13962TIP3    H241830   4.502   1.445   1.839
13963TIP3   OH241831   1.586   7.244   0.231
13963TIP3    H141832   1.510   7.191   0.256
13963TIP3    H241833   1.630   7.192   0.163
13964TIP3   OH241834   2.579   7.616   5.783
13964TIP3    H141835   2.646   7.668   5.828
13964TIP3    H241836   2.512   7.601   5.850
13965TIP3   OH241837   2.972   4.620   5.060
13965TIP3    H141838   2.908   4.691   5.067
13965TIP3    H241839   3.007   4.628   4.971
13966TIP3   OH241840   7.323   5.065   1.301
13966TIP3    H141841   7.238   5.098   1.274
13966TIP3    H241842   7.336   4.985   1.250
13967TIP3   OH241843   5.650   6.022   6.677
13967TIP3    H141844   5.694   5.968   6.612
13967TIP3    H241845   5.578   5.968   6.709
13968TIP3   OH241846   3.110   1.248   0.190
13968TIP3    H141847   3.112   1.342   0.207
13968TIP3    H241848   3.038   1.236   0.128
13969TIP3   OH241849   5.489   3.806   1.382
13969TIP3    H141850   5.544   3.884   1.369
13969TIP3    H241851   5.510   3.750   1.307
13970TIP3   OH241852   1.550   7.510   0.617
13970TIP3    H141853   1.538   7.523   0.711
13970TIP3    H241854   1.600   7.429   0.610
13971TIP3   OH241855   0.078   7.465   6.529
13971TIP3    H141856   0.104   7.429   6.444
13971TIP3    H241857   0.095   7.394   6.591
13972TIP3   OH241858   7.883   7.008   0.359
13972TIP3    H141859   7.867   6.914   0.349
13972TIP3    H241860   7.872   7.024   0.452
13973TIP3   OH241861   1.311   6.998   5.251
13973TIP3    H141862   1.344   7.087   5.243
13973TIP3    H241863   1.216   7.006   5.240
13974TIP3   OH241864   7.682   4.324   6.337
13974TIP3    H141865   7.747   4.386   6.304
13974TIP3    H241866   7.734   4.255   6.378
13975TIP3   OH241867   5.824   5.372   3.405
13975TIP3    H141868   5.789   5.457   3.431
13975TIP3    H241869   5.904   5.362   3.457
13976TIP3   OH241870   3.024   1.341   0.703
13976TIP3    H141871   2.938   1.379   0.688
13976TIP3    H241872   3.007   1.259   0.750
13977TIP3   OH241873   7.089   5.014   3.333
13977TIP3    H141874   7.160   5.033   3.271
13977TIP3    H241875   7.126   5.033   3.419
13978TIP3   OH241876   3.813   1.290   1.195
13978TIP3    H141877   3.887   1.277   1.136
13978TIP3    H241878   3.799   1.205   1.236
13979TIP3   OH241879   4.810   4.904   3.798
13979TIP3    H141880   4.784   4.989   3.763
13979TIP3    H241881   4.728   4.859   3.814
13980TIP3   OH241882   5.311   1.886   5.111
13980TIP3    H141883   5.315   1.933   5.028
13980TIP3    H241884   5.348   1.800   5.092
13981TIP3   OH241885   2.686   2.255   3.529
13981TIP3    H141886   2.637   2.300   3.598
13981TIP3    H241887   2.619   2.209   3.479
13982TIP3   OH241888   7.445   0.826   6.665
13982TIP3    H141889   7.486   0.795   6.584
13982TIP3    H241890   7.488   0.910   6.683
13983TIP3   OH241891   7.574   3.885   3.685
13983TIP3    H141892   7.528   3.882   3.601
13983TIP3    H241893   7.519   3.835   3.745
13984TIP3   OH241894   3.183   1.124   2.279
13984TIP3    H141895   3.206   1.137   2.371
13984TIP3    H241896   3.235   1.189   2.232
13985TIP3   OH241897   4.196   6.653   6.042
13985TIP3    H141898   4.271   6.680   5.988
13985TIP3    H241899   4.166   6.571   6.003
13986TIP3   OH241900   5.443   4.786   5.402
13986TIP3    H141901   5.492   4.790   5.484
13986TIP3    H241902   5.448   4.694   5.375
13987TIP3   OH241903   0.412   0.491   3.851
13987TIP3    H141904   0.451   0.577   3.869
13987TIP3    H241905   0.456   0.461   3.772
13988TIP3   OH241906   8.152   7.450   3.329
13988TIP3    H141907   8.139   7.371   3.275
13988TIP3    H241908   8.135   7.523   3.269
13989TIP3   OH241909   8.202   7.362   0.416
13989TIP3    H141910   8.123   7.408   0.445
13989TIP3    H241911   8.270   7.389   0.477
13990TIP3   OH241912   3.491   4.044   0.396
13990TIP3    H141913   3.469   4.055   0.488
13990TIP3    H241914   3.584   4.022   0.396
13991TIP3   OH241915   3.219   1.947   5.585
13991TIP3    H141916   3.161   2.000   5.640
13991TIP3    H241917   3.161   1.881   5.547
13992TIP3   OH241918   6.000   0.215   6.599
13992TIP3    H141919   5.925   0.271   6.620
13992TIP3    H241920   6.022   0.173   6.681
13993TIP3   OH241921   5.711   7.253   0.120
13993TIP3    H141922   5.765   7.186   0.161
13993TIP3    H241923   5.724   7.240   0.026
13994TIP3   OH241924   4.241   5.042   6.427
13994TIP3    H141925   4.283   5.106   6.483
13994TIP3    H241926   4.277   5.059   6.340
13995TIP3   OH241927   3.201   6.238   4.875
13995TIP3    H141928   3.215   6.244   4.780
13995TIP3    H241929   3.177   6.146   4.889
13996TIP3   OH241930   2.027   4.725   0.933
13996TIP3    H141931   2.084   4.768   0.997
13996TIP3    H241932   2.016   4.789   0.863
13997TIP3   OH241933   0.395   1.942   6.505
13997TIP3    H141934   0.328   2.009   6.521
13997TIP3    H241935   0.431   1.924   6.592
13998TIP3   OH241936   0.084   1.981   5.038
13998TIP3    H141937   0.038   2.064   5.030
13998TIP3    H241938   0.138   1.990   5.116
13999TIP3   OH241939   7.323   1.560   5.960
13999TIP3    H141940   7.321   1.467   5.936
13999TIP3    H241941   7.258   1.602   5.904
14000TIP3   OH241942   7.758   0.143   3.270
14000TIP3    H141943   7.683   0.196   3.295
14000TIP3    H241944   7.781   0.095   3.350
14001TIP3   OH241945   6.645   1.833   3.626
14001TIP3    H141946   6.635   1.765   3.559
14001TIP3    H241947   6.572   1.892   3.611
14002TIP3   OH241948   0.856   5.311   3.575
14002TIP3    H141949   0.835   5.313   3.668
14002TIP3    H241950   0.907   5.231   3.564
14003TIP3   OH241951   6.637   5.776   0.195
14003TIP3    H141952   6.660   5.701   0.139
14003TIP3    H241953   6.721   5.814   0.220
14004TIP3   OH241954   3.554   1.415   1.762
14004TIP3    H141955   3.612   1.360   1.814
14004TIP3    H241956   3.468   1.373   1.770
14005TIP3   OH241957   5.440   7.241   4.176
14005TIP3    H141958   5.397   7.172   4.125
14005TIP3    H241959   5.371   7.274   4.234
14006TIP3   OH241960   3.034   0.291   2.739
14006TIP3    H141961   3.022   0.328   2.827
14006TIP3    H241962   3.028   0.365   2.680
14007TIP3   OH241963   2.966   7.231   0.563
14007TIP3    H141964   2.889   7.277   0.530
14007TIP3    H241965   2.959   7.142   0.527
14008TIP3   OH241966   2.597   7.467   6.028
14008TIP3    H141967   2.580   7.393   6.088
14008TIP3    H241968   2.691   7.465   6.015
14009TIP3   OH241969   2.599   1.049   6.189
14009TIP3    H141970   2.504   1.059   6.198
14009TIP3    H241971   2.610   0.964   6.146
14010TIP3   OH241972   5.703   0.133   3.903
14010TIP3    H141973   5.640   0.180   3.958
14010TIP3    H241974   5.652   0.063   3.862
14011TIP3   OH241975   2.001   0.950   3.379
14011TIP3    H141976   1.964   0.907   3.456
14011TIP3    H241977   1.942   0.926   3.308
14012TIP3   OH241978   7.704   6.734   6.217
14012TIP3    H141979   7.673   6.749   6.128
14012TIP3    H241980   7.634   6.685   6.260
14013TIP3   OH241981   5.058   0.566   1.331
14013TIP3    H141982   5.011   0.589   1.412
14013TIP3    H241983   5.112   0.643   1.313
14014TIP3   OH241984   3.269   0.578   5.692
14014TIP3    H141985   3.228   0.658   5.724
14014TIP3    H241986   3.224   0.560   5.609
14015TIP3   OH241987   2.592   5.981   1.815
14015TIP3    H141988   2.651   5.927   1.763
14015TIP3    H241989   2.505   5.964   1.778
14016TIP3   OH241990   5.633   7.696   1.885
14016TIP3    H141991   5.707   7.721   1.830
14016TIP3    H241992   5.568   7.661   1.824
14017TIP3   OH241993   5.655   7.085   2.390
14017TIP3    H141994   5.655   7.011   2.451
14017TIP3    H241995   5.736   7.076   2.341
14018TIP3   OH241996   5.293   5.450   6.425
14018TIP3    H141997   5.346   5.421   6.499
14018TIP3    H241998   5.211   5.401   6.434
14019TIP3   OH241999   7.237   3.955   4.806
14019TIP3    H142000   7.318   3.934   4.853
14019TIP3    H242001   7.178   3.883   4.829
14020TIP3   OH242002   7.344   0.315   4.240
14020TIP3    H142003   7.389   0.265   4.172
14020TIP3    H242004   7.271   0.260   4.267
14021TIP3   OH242005   6.625   0.950   3.443
14021TIP3    H142006   6.531   0.954   3.428
14021TIP3    H242007   6.640   1.008   3.518
14022TIP3   OH242008   1.333   6.462   5.846
14022TIP3    H142009   1.256   6.460   5.902
14022TIP3    H242010   1.335   6.550   5.810
14023TIP3   OH242011   6.390   2.402   0.232
14023TIP3    H142012   6.312   2.366   0.275
14023TIP3    H242013   6.457   2.405   0.300
14024TIP3   OH242014   6.238   6.366   5.032
14024TIP3    H142015   6.274   6.281   5.060
14024TIP3    H242016   6.187   6.345   4.954
14025TIP3   OH242017   4.346   5.957   2.737
14025TIP3    H142018   4.419   5.982   2.793
14025TIP3    H242019   4.378   5.972   2.648
14026TIP3   OH242020   7.234   2.151   2.290
14026TIP3    H142021   7.221   2.076   2.348
14026TIP3    H242022   7.261   2.222   2.348
14027TIP3   OH242023   0.316   2.538   5.658
14027TIP3    H142024   0.290   2.583   5.577
14027TIP3    H242025   0.283   2.449   5.647
14028TIP3   OH242026   5.683   5.663   1.300
14028TIP3    H142027   5.635   5.669   1.217
14028TIP3    H242028   5.634   5.717   1.361
14029TIP3   OH242029   6.922   0.578   1.661
14029TIP3    H142030   6.899   0.668   1.636
14029TIP3    H242031   6.904   0.526   1.583
14030TIP3   OH242032   4.475   4.184   5.381
14030TIP3    H142033   4.426   4.162   5.302
14030TIP3    H242034   4.443   4.271   5.405
14031TIP3   OH242035   7.488   0.954   2.083
14031TIP3    H142036   7.448   0.892   2.023
14031TIP3    H242037   7.541   1.011   2.027
14032TIP3   OH242038   6.971   4.916   1.237
14032TIP3    H142039   6.935   4.975   1.172
14032TIP3    H242040   6.926   4.939   1.318
14033TIP3   OH242041   3.577   3.761   1.981
14033TIP3    H142042   3.597   3.720   1.897
14033TIP3    H242043   3.494   3.806   1.967
14034TIP3   OH242044   2.354   0.204   3.076
14034TIP3    H142045   2.414   0.131   3.093
14034TIP3    H242046   2.270   0.161   3.060
14035TIP3   OH242047   1.405   2.384   0.382
14035TIP3    H142048   1.368   2.463   0.342
14035TIP3    H242049   1.452   2.340   0.311
14036TIP3   OH242050   2.213   7.433   5.708
14036TIP3    H142051   2.198   7.525   5.730
14036TIP3    H242052   2.177   7.423   5.619
14037TIP3   OH242053   7.206   7.787   1.266
14037TIP3    H142054   7.144   7.796   1.194
14037TIP3    H242055   7.286   7.754   1.225
14038TIP3   OH242056   4.925   1.691   0.255
14038TIP3    H142057   4.929   1.612   0.201
14038TIP3    H242058   4.991   1.749   0.219
14039TIP3   OH242059   5.630   6.689   0.636
14039TIP3    H142060   5.682   6.749   0.582
14039TIP3    H242061   5.540   6.702   0.604
14040TIP3   OH242062   2.930   2.604   5.598
14040TIP3    H142063   2.876   2.538   5.555
14040TIP3    H242064   2.918   2.587   5.692
14041TIP3   OH242065   0.252   7.529   3.641
14041TIP3    H142066   0.224   7.612   3.679
14041TIP3    H242067   0.171   7.481   3.624
14042TIP3   OH242068   3.928   5.911   0.382
14042TIP3    H142069   3.995   5.885   0.444
14042TIP3    H242070   3.960   5.993   0.344
14043TIP3   OH242071   2.250   5.183   4.735
14043TIP3    H142072   2.316   5.249   4.714
14043TIP3    H242073   2.200   5.172   4.654
14044TIP3   OH242074   1.665   7.835   6.285
14044TIP3    H142075   1.644   7.743   6.303
14044TIP3    H242076   1.724   7.832   6.210
14045TIP3   OH242077   3.266   7.511   0.508
14045TIP3    H142078   3.184   7.533   0.553
14045TIP3    H242079   3.298   7.594   0.474
14046TIP3   OH242080   2.020   3.473   3.904
14046TIP3    H142081   2.063   3.419   3.970
14046TIP3    H242082   2.068   3.556   3.905
14047TIP3   OH242083   0.034   2.347   4.236
14047TIP3    H142084   0.045   2.435   4.199
14047TIP3    H242085   0.026   2.290   4.160
14048TIP3   OH242086   0.886   0.101   0.101
14048TIP3    H142087   0.869   0.142   0.186
14048TIP3    H242088   0.974   0.132   0.077
14049TIP3   OH242089   0.922   5.969   5.738
14049TIP3    H142090   0.992   5.946   5.799
14049TIP3    H242091   0.941   6.059   5.713
14050TIP3   OH242092   7.201   0.548   4.158
14050TIP3    H142093   7.240   0.464   4.183
14050TIP3    H242094   7.119   0.552   4.206
14051TIP3   OH242095   6.116   2.509   3.030
14051TIP3    H142096   6.183   2.469   2.975
14051TIP3    H242097   6.084   2.438   3.085
14052TIP3   OH242098   6.556   7.747   0.764
14052TIP3    H142099   6.511   7.749   0.680
14052TIP3    H242100   6.487   7.760   0.829
14053TIP3   OH242101   6.134   2.899   5.214
14053TIP3    H142102   6.091   2.977   5.180
14053TIP3    H242103   6.078   2.869   5.286
14054TIP3   OH242104   5.689   4.560   5.326
14054TIP3    H142105   5.781   4.536   5.337
14054TIP3    H242106   5.657   4.575   5.414
14055TIP3   OH242107   3.937   0.967   5.331
14055TIP3    H142108   3.873   0.905   5.296
14055TIP3    H242109   3.899   0.998   5.413
14056TIP3   OH242110   7.974   3.556   6.773
14056TIP3    H142111   7.951   3.471   6.810
14056TIP3    H242112   7.893   3.587   6.732
14057TIP3   OH242113   7.997   6.193   0.544
14057TIP3    H142114   7.953   6.267   0.586
14057TIP3    H242115   7.940   6.170   0.470
14058TIP3   OH242116   5.012   6.670   1.862
14058TIP3    H142117   5.105   6.691   1.857
14058TIP3    H242118   4.993   6.665   1.956
14059TIP3   OH242119   0.702   1.161   3.788
14059TIP3    H142120   0.701   1.139   3.695
14059TIP3    H242121   0.710   1.256   3.790
14060TIP3   OH242122   5.815   1.431   4.415
14060TIP3    H142123   5.764   1.394   4.487
14060TIP3    H242124   5.761   1.415   4.337
14061TIP3   OH242125   7.610   7.379   2.347
14061TIP3    H142126   7.580   7.294   2.381
14061TIP3    H242127   7.700   7.386   2.380
14062TIP3   OH242128   0.032   5.646   1.259
14062TIP3    H142129   0.011   5.587   1.186
14062TIP3    H242130   0.109   5.694   1.230
14063TIP3   OH242131   7.315   2.091   1.981
14063TIP3    H142132   7.338   2.071   1.890
14063TIP3    H242133   7.313   2.006   2.025
14064TIP3   OH242134   6.284   7.258   4.665
14064TIP3    H142135   6.232   7.236   4.587
14064TIP3    H242136   6.297   7.174   4.709
14065TIP3   OH242137   3.300   3.132   4.099
14065TIP3    H142138   3.326   3.212   4.146
14065TIP3    H242139   3.252   3.164   4.023
14066TIP3   OH242140   6.401   6.611   1.541
14066TIP3    H142141   6.311   6.578   1.538
14066TIP3    H242142   6.395   6.695   1.587
14067TIP3   OH242143   4.396   0.521   5.098
14067TIP3    H142144   4.448   0.528   5.178
14067TIP3    H242145   4.353   0.607   5.090
14068TIP3   OH242146   6.651   0.082   0.490
14068TIP3    H142147   6.671   0.170   0.459
14068TIP3    H242148   6.731   0.052   0.533
14069TIP3   OH242149   3.037   3.380   1.138
14069TIP3    H142150   3.000   3.307   1.188
14069TIP3    H242151   2.973   3.451   1.149
14070TIP3   OH242152   7.604   2.889   3.207
14070TIP3    H142153   7.601   2.957   3.275
14070TIP3    H242154   7.586   2.808   3.254
14071TIP3   OH242155   2.635   2.848   0.888
14071TIP3    H142156   2.575   2.784   0.851
14071TIP3    H242157   2.722   2.818   0.862
14072TIP3   OH242158   3.130   4.579   2.097
14072TIP3    H142159   3.205   4.519   2.100
14072TIP3    H242160   3.074   4.552   2.170
14073TIP3   OH242161   7.064   5.254   1.188
14073TIP3    H142162   7.088   5.339   1.225
14073TIP3    H242163   6.969   5.260   1.173
14074TIP3   OH242164   1.593   6.554   6.174
14074TIP3    H142165   1.646   6.608   6.115
14074TIP3    H242166   1.620   6.580   6.262
14075TIP3   OH242167   2.693   5.200   2.572
14075TIP3    H142168   2.656   5.170   2.489
14075TIP3    H242169   2.626   5.256   2.609
14076TIP3   OH242170   7.469   0.807   1.798
14076TIP3    H142171   7.396   0.758   1.760
14076TIP3    H242172   7.546   0.753   1.780
14077TIP3   OH242173   5.952   1.313   1.422
14077TIP3    H142174   5.940   1.407   1.439
14077TIP3    H242175   5.967   1.275   1.508
14078TIP3   OH242176   4.839   0.391   3.125
14078TIP3    H142177   4.866   0.466   3.178
14078TIP3    H242178   4.902   0.389   3.053
14079TIP3   OH242179   0.755   7.202   1.492
14079TIP3    H142180   0.680   7.237   1.444
14079TIP3    H242181   0.820   7.272   1.490
14080TIP3   OH242182   6.249   0.104   4.471
14080TIP3    H142183   6.255   0.186   4.519
14080TIP3    H242184   6.320   0.108   4.407
14081TIP3   OH242185   7.920   0.226   3.038
14081TIP3    H142186   7.934   0.164   2.965
14081TIP3    H242187   7.834   0.202   3.072
14082TIP3   OH242188   2.851   6.213   4.529
14082TIP3    H142189   2.944   6.204   4.508
14082TIP3    H242190   2.848   6.285   4.592
14083TIP3   OH242191   8.006   5.330   3.901
14083TIP3    H142192   8.032   5.422   3.909
14083TIP3    H242193   8.065   5.283   3.962
14084TIP3   OH242194   7.319   7.489   6.194
14084TIP3    H142195   7.320   7.411   6.138
14084TIP3    H242196   7.368   7.462   6.272
14085TIP3   OH242197   3.652   1.051   0.968
14085TIP3    H142198   3.697   1.102   0.900
14085TIP3    H242199   3.560   1.076   0.958
14086TIP3   OH242200   6.141   7.154   2.822
14086TIP3    H142201   6.156   7.242   2.856
14086TIP3    H242202   6.056   7.160   2.777
14087TIP3   OH242203   2.328   6.358   6.060
14087TIP3    H142204   2.301   6.295   5.993
14087TIP3    H242205   2.247   6.380   6.106
14088TIP3   OH242206   7.029   3.159   3.779
14088TIP3    H142207   7.116   3.178   3.813
14088TIP3    H242208   7.036   3.175   3.685
14089TIP3   OH242209   8.033   7.554   3.086
14089TIP3    H142210   7.948   7.556   3.041
14089TIP3    H242211   8.085   7.491   3.036
14090TIP3   OH242212   0.838   4.295   1.897
14090TIP3    H142213   0.845   4.268   1.806
14090TIP3    H242214   0.870   4.385   1.899
14091TIP3   OH242215   8.159   5.951   3.482
14091TIP3    H142216   8.133   5.980   3.395
14091TIP3    H242217   8.135   6.024   3.540
14092TIP3   OH242218   6.484   5.140   1.634
14092TIP3    H142219   6.424   5.211   1.610
14092TIP3    H242220   6.568   5.184   1.650
14093TIP3   OH242221   5.683   2.980   5.946
14093TIP3    H142222   5.594   3.014   5.936
14093TIP3    H242223   5.738   3.058   5.946
14094TIP3   OH242224   4.164   6.616   1.617
14094TIP3    H142225   4.246   6.572   1.596
14094TIP3    H242226   4.179   6.655   1.703
14095TIP3   OH242227   6.028   6.900   3.829
14095TIP3    H142228   6.000   6.834   3.765
14095TIP3    H242229   6.000   6.865   3.913
14096TIP3   OH242230   6.385   0.378   3.969
14096TIP3    H142231   6.440   0.417   4.037
14096TIP3    H242232   6.351   0.298   4.009
14097TIP3   OH242233   1.951   0.397   0.937
14097TIP3    H142234   1.905   0.480   0.951
14097TIP3    H242235   1.977   0.399   0.845
14098TIP3   OH242236   7.711   3.357   4.625
14098TIP3    H142237   7.667   3.272   4.632
14098TIP3    H242238   7.640   3.421   4.637
14099TIP3   OH242239   1.074   1.837   2.440
14099TIP3    H142240   1.045   1.927   2.457
14099TIP3    H242241   1.165   1.846   2.413
14100TIP3   OH242242   4.108   0.354   5.196
14100TIP3    H142243   4.138   0.296   5.125
14100TIP3    H242244   4.032   0.400   5.159
14101TIP3   OH242245   3.141   1.526   4.371
14101TIP3    H142246   3.128   1.577   4.450
14101TIP3    H242247   3.097   1.576   4.302
14102TIP3   OH242248   2.072   2.268   1.625
14102TIP3    H142249   2.156   2.288   1.665
14102TIP3    H242250   2.030   2.206   1.686
14103TIP3   OH242251   6.614   6.086   6.334
14103TIP3    H142252   6.642   6.127   6.253
14103TIP3    H242253   6.632   6.151   6.402
14104TIP3   OH242254   0.833   0.972   5.841
14104TIP3    H142255   0.860   0.930   5.759
14104TIP3    H242256   0.737   0.965   5.840
14105TIP3   OH242257   4.236   7.705   3.760
14105TIP3    H142258   4.305   7.709   3.827
14105TIP3    H242259   4.196   7.619   3.772
14106TIP3   OH242260   5.291   4.205   4.501
14106TIP3    H142261   5.283   4.110   4.509
14106TIP3    H242262   5.366   4.217   4.443
14107TIP3   OH242263   0.310   6.253   0.287
14107TIP3    H142264   0.311   6.255   0.382
14107TIP3    H242265   0.223   6.220   0.265
14108TIP3   OH242266   6.209   7.004   6.569
14108TIP3    H142267   6.286   7.044   6.529
14108TIP3    H242268   6.239   6.917   6.597
14109TIP3   OH242269   3.189   0.502   2.944
14109TIP3    H142270   3.206   0.419   2.901
14109TIP3    H242271   3.260   0.512   3.007
14110TIP3   OH242272   4.489   4.606   1.106
14110TIP3    H142273   4.472   4.527   1.054
14110TIP3    H242274   4.543   4.661   1.049
14111TIP3   OH242275   5.654   2.613   2.568
14111TIP3    H142276   5.559   2.603   2.572
14111TIP3    H242277   5.676   2.663   2.646
14112TIP3   OH242278   4.756   4.104   6.381
14112TIP3    H142279   4.715   4.131   6.298
14112TIP3    H242280   4.682   4.088   6.439
14113TIP3   OH242281   1.416   7.823   1.073
14113TIP3    H142282   1.431   7.729   1.085
14113TIP3    H242283   1.480   7.850   1.008
14114TIP3   OH242284   0.752   7.395   2.237
14114TIP3    H142285   0.742   7.367   2.328
14114TIP3    H242286   0.708   7.327   2.186
14115TIP3   OH242287   5.873   7.228   4.344
14115TIP3    H142288   5.827   7.144   4.342
14115TIP3    H242289   5.811   7.288   4.384
14116TIP3   OH242290   2.881   5.365   2.698
14116TIP3    H142291   2.974   5.367   2.675
14116TIP3    H242292   2.844   5.297   2.641
14117TIP3   OH242293   7.162   5.700   4.707
14117TIP3    H142294   7.115   5.632   4.757
14117TIP3    H242295   7.254   5.683   4.725
14118TIP3   OH242296   8.227   5.922   3.011
14118TIP3    H142297   8.225   5.963   2.925
14118TIP3    H242298   8.226   5.828   2.992
14119TIP3   OH242299   1.187   4.755   3.094
14119TIP3    H142300   1.144   4.841   3.099
14119TIP3    H242301   1.152   4.715   3.015
14120TIP3   OH242302   0.228   1.556   5.151
14120TIP3    H142303   0.215   1.464   5.129
14120TIP3    H242304   0.213   1.603   5.068
14121TIP3   OH242305   4.589   1.400   4.807
14121TIP3    H142306   4.590   1.317   4.854
14121TIP3    H242307   4.513   1.394   4.749
14122TIP3   OH242308   4.116   2.566   0.922
14122TIP3    H142309   4.148   2.505   0.988
14122TIP3    H242310   4.150   2.651   0.949
14123TIP3   OH242311   7.991   0.410   6.134
14123TIP3    H142312   7.899   0.396   6.112
14123TIP3    H242313   8.031   0.438   6.052
14124TIP3   OH242314   5.594   1.801   5.800
14124TIP3    H142315   5.689   1.798   5.791
14124TIP3    H242316   5.563   1.829   5.713
14125TIP3   OH242317   5.449   5.437   4.776
14125TIP3    H142318   5.389   5.376   4.818
14125TIP3    H242319   5.426   5.522   4.812
14126TIP3   OH242320   5.679   0.382   4.932
14126TIP3    H142321   5.713   0.295   4.954
14126TIP3    H242322   5.691   0.389   4.837
14127TIP3   OH242323   6.960   2.566   2.375
14127TIP3    H142324   6.924   2.480   2.355
14127TIP3    H242325   6.885   2.625   2.375
14128TIP3   OH242326   4.067   0.172   5.779
14128TIP3    H142327   4.006   0.107   5.814
14128TIP3    H242328   4.011   0.243   5.747
14129TIP3   OH242329   4.523   2.940   3.410
14129TIP3    H142330   4.429   2.954   3.422
14129TIP3    H242331   4.556   2.925   3.498
14130TIP3   OH242332   4.720   5.734   3.985
14130TIP3    H142333   4.689   5.664   3.928
14130TIP3    H242334   4.670   5.723   4.067
14131TIP3   OH242335   2.569   1.871   5.975
14131TIP3    H142336   2.537   1.810   6.042
14131TIP3    H242337   2.529   1.955   5.998
14132TIP3   OH242338   6.274   0.226   0.988
14132TIP3    H142339   6.360   0.184   0.986
14132TIP3    H242340   6.291   0.317   0.965
14133TIP3   OH242341   2.817   1.314   0.036
14133TIP3    H142342   2.762   1.338   0.110
14133TIP3    H242343   2.776   1.236  -0.001
14134TIP3   OH242344   0.021   6.408   1.743
14134TIP3    H142345   0.015   6.411   1.648
14134TIP3    H242346   0.050   6.319   1.762
14135TIP3   OH242347   5.992   5.397   2.616
14135TIP3    H142348   5.924   5.338   2.584
14135TIP3    H242349   6.065   5.339   2.640
14136TIP3   OH242350   0.323   5.875   6.573
14136TIP3    H142351   0.290   5.943   6.631
14136TIP3    H242352   0.342   5.920   6.491
14137TIP3   OH242353   5.165   1.627   5.206
14137TIP3    H142354   5.195   1.716   5.188
14137TIP3    H242355   5.182   1.580   5.125
14138TIP3   OH242356   7.522   1.927   6.681
14138TIP3    H142357   7.441   1.881   6.704
14138TIP3    H242358   7.507   1.960   6.592
14139TIP3   OH242359   0.360   4.094   6.290
14139TIP3    H142360   0.440   4.093   6.237
14139TIP3    H242361   0.392   4.098   6.380
14140TIP3   OH242362   1.294   4.613   0.742
14140TIP3    H142363   1.333   4.652   0.820
14140TIP3    H242364   1.362   4.619   0.676
14141TIP3   OH242365   2.199   0.119   0.679
14141TIP3    H142366   2.112   0.156   0.694
14141TIP3    H242367   2.235   0.106   0.767
14142TIP3   OH242368   5.207   0.164   0.897
14142TIP3    H142369   5.291   0.209   0.897
14142TIP3    H242370   5.181   0.162   0.989
14143TIP3   OH242371   1.800   0.959   2.138
14143TIP3    H142372   1.753   1.040   2.115
14143TIP3    H242373   1.808   0.912   2.055
14144TIP3   OH242374   0.325   4.666   5.867
14144TIP3    H142375   0.268   4.629   5.934
14144TIP3    H242376   0.414   4.649   5.900
14145TIP3   OH242377   1.485   1.537   4.943
14145TIP3    H142378   1.399   1.495   4.950
14145TIP3    H242379   1.468   1.629   4.962
14146TIP3   OH242380   7.717   4.712   1.685
14146TIP3    H142381   7.695   4.801   1.713
14146TIP3    H242382   7.739   4.721   1.593
14147TIP3   OH242383   1.341   5.963   0.879
14147TIP3    H142384   1.426   5.983   0.839
14147TIP3    H242385   1.357   5.884   0.931
14148TIP3   OH242386   2.871   5.918   2.971
14148TIP3    H142387   2.901   6.001   2.935
14148TIP3    H242388   2.950   5.876   3.005
14149TIP3   OH242389   5.031   2.244   5.250
14149TIP3    H142390   4.998   2.308   5.313
14149TIP3    H242391   4.975   2.253   5.173
14150TIP3   OH242392   5.826   4.406   2.090
14150TIP3    H142393   5.861   4.495   2.087
14150TIP3    H242394   5.743   4.412   2.044
14151TIP3   OH242395   2.002   0.429   5.432
14151TIP3    H142396   2.050   0.454   5.352
14151TIP3    H242397   1.910   0.440   5.409
14152TIP3   OH242398   3.736   5.495   5.841
14152TIP3    H142399   3.787   5.418   5.866
14152TIP3    H242400   3.645   5.467   5.849
14153TIP3   OH242401   5.219   6.322   6.557
14153TIP3    H142402   5.301   6.283   6.526
14153TIP3    H242403   5.161   6.320   6.482
14154TIP3   OH242404   3.421   5.616   5.864
14154TIP3    H142405   3.357   5.554   5.830
14154TIP3    H242406   3.387   5.640   5.950
14155TIP3   OH242407   0.412   3.215   4.909
14155TIP3    H142408   0.337   3.207   4.968
14155TIP3    H242409   0.396   3.150   4.840
14156TIP3   OH242410   4.807   2.164   4.587
14156TIP3    H142411   4.732   2.206   4.545
14156TIP3    H242412   4.878   2.228   4.580
14157TIP3   OH242413   1.563   0.393   2.109
14157TIP3    H142414   1.520   0.462   2.160
14157TIP3    H242415   1.492   0.343   2.070
14158TIP3   OH242416   7.157   6.986   1.235
14158TIP3    H142417   7.175   7.061   1.179
14158TIP3    H242418   7.063   6.970   1.225
14159TIP3   OH242419   2.003   1.787   0.028
14159TIP3    H142420   2.035   1.850   0.092
14159TIP3    H242421   1.908   1.803   0.024
14160TIP3   OH242422   2.063   6.698   3.248
14160TIP3    H142423   2.013   6.651   3.314
14160TIP3    H242424   2.118   6.632   3.207
14161TIP3   OH242425   4.961   6.675   3.280
14161TIP3    H142426   5.005   6.759   3.286
14161TIP3    H242427   5.027   6.615   3.244
14162TIP3   OH242428   7.288   3.520   4.774
14162TIP3    H142429   7.271   3.452   4.709
14162TIP3    H242430   7.383   3.527   4.778
14163TIP3   OH242431   5.814   4.750   4.715
14163TIP3    H142432   5.839   4.668   4.757
14163TIP3    H242433   5.789   4.725   4.626
14164TIP3   OH242434   4.938   3.796   1.455
14164TIP3    H142435   4.914   3.844   1.534
14164TIP3    H242436   4.924   3.858   1.384
14165TIP3   OH242437   7.216   4.645   3.160
14165TIP3    H142438   7.301   4.632   3.200
14165TIP3    H242439   7.162   4.574   3.194
14166TIP3   OH242440   1.219   5.253   3.677
14166TIP3    H142441   1.218   5.324   3.613
14166TIP3    H242442   1.269   5.288   3.751
14167TIP3   OH242443   2.366   5.032   1.374
14167TIP3    H142444   2.399   4.950   1.338
14167TIP3    H242445   2.442   5.090   1.377
14168TIP3   OH242446   5.512   3.764   0.034
14168TIP3    H142447   5.596   3.721   0.018
14168TIP3    H242448   5.449   3.693   0.034
14169TIP3   OH242449   5.258   5.948   1.690
14169TIP3    H142450   5.348   5.949   1.724
14169TIP3    H242451   5.205   5.981   1.763
14170TIP3   OH242452   5.991   3.131   5.235
14170TIP3    H142453   5.945   3.148   5.153
14170TIP3    H242454   6.048   3.206   5.247
14171TIP3   OH242455   1.785   3.508   5.608
14171TIP3    H142456   1.763   3.581   5.666
14171TIP3    H242457   1.864   3.537   5.562
14172TIP3   OH242458   6.689   2.216   1.073
14172TIP3    H142459   6.663   2.127   1.052
14172TIP3    H242460   6.643   2.236   1.155
14173TIP3   OH242461   5.667   3.364   3.401
14173TIP3    H142462   5.683   3.271   3.384
14173TIP3    H242463   5.571   3.372   3.403
14174TIP3   OH242464   0.606   6.876   4.532
14174TIP3    H142465   0.607   6.789   4.570
14174TIP3    H242466   0.606   6.861   4.438
14175TIP3   OH242467   5.039   3.530   3.179
14175TIP3    H142468   5.013   3.616   3.146
14175TIP3    H242469   5.092   3.493   3.108
14176TIP3   OH242470   7.207   5.468   0.568
14176TIP3    H142471   7.294   5.463   0.526
14176TIP3    H242472   7.149   5.499   0.498
14177TIP3   OH242473   4.062   1.086   0.859
14177TIP3    H142474   4.098   1.037   0.933
14177TIP3    H242475   4.009   1.023   0.812
14178TIP3   OH242476   1.917   2.779   0.465
14178TIP3    H142477   1.862   2.703   0.443
14178TIP3    H242478   1.869   2.823   0.535
14179TIP3   OH242479   4.357   5.284   0.244
14179TIP3    H142480   4.288   5.234   0.200
14179TIP3    H242481   4.321   5.306   0.330
14180TIP3   OH242482   4.592   2.214   3.134
14180TIP3    H142483   4.627   2.256   3.055
14180TIP3    H242484   4.518   2.270   3.159
14181TIP3   OH242485   6.652   1.704   2.404
14181TIP3    H142486   6.675   1.716   2.312
14181TIP3    H242487   6.558   1.724   2.408
14182TIP3   OH242488   4.664   1.187   1.337
14182TIP3    H142489   4.678   1.166   1.429
14182TIP3    H242490   4.572   1.214   1.332
14183TIP3   OH242491   5.616   3.294   0.175
14183TIP3    H142492   5.612   3.202   0.201
14183TIP3    H242493   5.585   3.342   0.252
14184TIP3   OH242494   1.676   3.245   5.702
14184TIP3    H142495   1.729   3.324   5.712
14184TIP3    H242496   1.601   3.274   5.649
14185TIP3   OH242497   2.008   2.797   2.398
14185TIP3    H142498   2.075   2.845   2.350
14185TIP3    H242499   2.004   2.840   2.484
14186TIP3   OH242500   7.774   0.324   1.183
14186TIP3    H142501   7.785   0.330   1.088
14186TIP3    H242502   7.836   0.389   1.218
14187TIP3   OH242503   8.071   6.205   2.000
14187TIP3    H142504   8.052   6.141   1.931
14187TIP3    H242505   8.045   6.161   2.081
14188TIP3   OH242506   5.647   5.097   0.483
14188TIP3    H142507   5.657   5.132   0.572
14188TIP3    H242508   5.553   5.095   0.469
14189TIP3   OH242509   7.228   5.252   3.041
14189TIP3    H142510   7.134   5.254   3.024
14189TIP3    H242511   7.251   5.344   3.059
14190TIP3   OH242512   4.384   1.710   5.996
14190TIP3    H142513   4.296   1.681   5.973
14190TIP3    H242514   4.420   1.640   6.050
14191TIP3   OH242515   5.895   7.592   1.655
14191TIP3    H142516   5.947   7.612   1.577
14191TIP3    H242517   5.902   7.671   1.709
14192TIP3   OH242518   8.258   0.951   3.267
14192TIP3    H142519   8.171   0.970   3.300
14192TIP3    H242520   8.246   0.933   3.174
14193TIP3   OH242521   8.218   3.696   0.645
14193TIP3    H142522   8.151   3.678   0.712
14193TIP3    H242523   8.301   3.696   0.693
14194TIP3   OH242524   3.822   1.485   0.123
14194TIP3    H142525   3.731   1.471   0.151
14194TIP3    H242526   3.852   1.398   0.095
14195TIP3   OH242527   7.484   4.053   6.394
14195TIP3    H142528   7.496   4.147   6.376
14195TIP3    H242529   7.533   4.038   6.475
14196TIP3   OH242530   6.580   4.902   0.304
14196TIP3    H142531   6.521   4.920   0.231
14196TIP3    H242532   6.664   4.882   0.263
14197TIP3   OH242533   4.507   2.426   6.750
14197TIP3    H142534   4.547   2.360   6.807
14197TIP3    H242535   4.518   2.391   6.662
14198TIP3   OH242536   1.728   7.722   4.825
14198TIP3    H142537   1.758   7.636   4.794
14198TIP3    H242538   1.671   7.701   4.899
14199TIP3   OH242539   1.942   5.838   2.837
14199TIP3    H142540   1.933   5.807   2.747
14199TIP3    H242541   1.967   5.760   2.886
14200TIP3   OH242542   0.876   3.721   0.142
14200TIP3    H142543   0.961   3.765   0.141
14200TIP3    H242544   0.882   3.655   0.072
14201TIP3   OH242545   5.984   7.084   5.044
14201TIP3    H142546   6.039   7.143   4.992
14201TIP3    H242547   6.024   7.084   5.131
14202TIP3   OH242548   3.235   2.336   5.286
14202TIP3    H142549   3.196   2.412   5.330
14202TIP3    H242550   3.283   2.290   5.355
14203TIP3   OH242551   6.342   1.346   6.657
14203TIP3    H142552   6.247   1.343   6.664
14203TIP3    H242553   6.370   1.398   6.733
14204TIP3   OH242554   1.576   5.023   2.999
14204TIP3    H142555   1.482   5.037   3.010
14204TIP3    H242556   1.586   4.928   3.003
14205TIP3   OH242557   5.862   3.155   0.776
14205TIP3    H142558   5.891   3.175   0.688
14205TIP3    H242559   5.927   3.093   0.810
14206TIP3   OH242560   1.266   2.919   3.587
14206TIP3    H142561   1.174   2.918   3.614
14206TIP3    H242562   1.293   3.010   3.595
14207TIP3   OH242563   7.010   4.157   5.525
14207TIP3    H142564   7.068   4.178   5.598
14207TIP3    H242565   6.926   4.136   5.566
14208TIP3   OH242566   3.350   0.787   4.004
14208TIP3    H142567   3.257   0.774   4.024
14208TIP3    H242568   3.383   0.699   3.986
14209TIP3   OH242569   2.850   0.803   5.648
14209TIP3    H142570   2.940   0.826   5.624
14209TIP3    H242571   2.796   0.842   5.579
14210TIP3   OH242572   1.099   5.902   2.932
14210TIP3    H142573   1.127   5.886   3.022
14210TIP3    H242574   1.022   5.958   2.941
14211TIP3   OH242575   0.802   4.211   2.352
14211TIP3    H142576   0.795   4.150   2.278
14211TIP3    H242577   0.793   4.297   2.313
14212TIP3   OH242578   7.732   7.398   1.899
14212TIP3    H142579   7.688   7.453   1.963
14212TIP3    H242580   7.694   7.425   1.815
14213TIP3   OH242581   0.877   4.812   4.912
14213TIP3    H142582   0.959   4.860   4.898
14213TIP3    H242583   0.842   4.798   4.824
14214TIP3   OH242584   4.826   5.358   6.108
14214TIP3    H142585   4.754   5.359   6.172
14214TIP3    H242586   4.787   5.392   6.027
14215TIP3   OH242587   6.330   4.996   0.125
14215TIP3    H142588   6.350   5.043   0.044
14215TIP3    H242589   6.314   5.065   0.189
14216TIP3   OH242590   5.287   3.816   6.133
14216TIP3    H142591   5.245   3.758   6.070
14216TIP3    H242592   5.371   3.838   6.093
14217TIP3   OH242593   2.456   3.351   0.825
14217TIP3    H142594   2.366   3.323   0.811
14217TIP3    H242595   2.508   3.297   0.766
14218TIP3   OH242596   6.320   2.112   6.454
14218TIP3    H142597   6.228   2.095   6.434
14218TIP3    H242598   6.357   2.150   6.374
14219TIP3   OH242599   0.214   7.706   2.907
14219TIP3    H142600   0.146   7.774   2.913
14219TIP3    H242601   0.295   7.755   2.892
14220TIP3   OH242602   1.695   5.245   2.841
14220TIP3    H142603   1.667   5.190   2.915
14220TIP3    H242604   1.788   5.261   2.857
14221TIP3   OH242605   8.153   7.638   1.911
14221TIP3    H142606   8.159   7.546   1.937
14221TIP3    H242607   8.062   7.650   1.886
14222TIP3   OH242608   5.366   3.315   3.203
14222TIP3    H142609   5.311   3.238   3.216
14222TIP3    H242610   5.330   3.357   3.125
14223TIP3   OH242611   0.044   5.646   5.569
14223TIP3    H142612   0.131   5.622   5.537
14223TIP3    H242613   0.045   5.622   5.662
14224TIP3   OH242614   3.648   1.228   1.948
14224TIP3    H142615   3.692   1.282   2.014
14224TIP3    H242616   3.629   1.146   1.993
14225TIP3   OH242617   1.251   0.793   5.729
14225TIP3    H142618   1.186   0.771   5.795
14225TIP3    H242619   1.335   0.784   5.774
14226TIP3   OH242620   2.651   7.073   1.872
14226TIP3    H142621   2.682   7.106   1.956
14226TIP3    H242622   2.606   7.147   1.831
14227TIP3   OH242623   6.205   5.910   0.084
14227TIP3    H142624   6.161   5.832   0.119
14227TIP3    H242625   6.292   5.907   0.124
14228TIP3   OH242626   3.777   6.328   4.377
14228TIP3    H142627   3.761   6.242   4.417
14228TIP3    H242628   3.716   6.332   4.304
14229TIP3   OH242629   8.048   6.246   4.863
14229TIP3    H142630   7.987   6.320   4.858
14229TIP3    H242631   8.125   6.275   4.816
14230TIP3   OH242632   6.579   2.585   3.367
14230TIP3    H142633   6.502   2.546   3.326
14230TIP3    H242634   6.545   2.659   3.418
14231TIP3   OH242635   2.278   5.944   1.300
14231TIP3    H142636   2.272   5.905   1.213
14231TIP3    H242637   2.343   6.014   1.290
14232TIP3   OH242638   3.983   4.199   3.937
14232TIP3    H142639   3.943   4.192   3.850
14232TIP3    H242640   3.930   4.142   3.992
14233TIP3   OH242641   5.525   2.376   6.292
14233TIP3    H142642   5.526   2.291   6.335
14233TIP3    H242643   5.442   2.379   6.245
14234TIP3   OH242644   4.704   0.335   1.093
14234TIP3    H142645   4.639   0.374   1.152
14234TIP3    H242646   4.728   0.252   1.135
14235TIP3   OH242647   3.253   6.615   2.898
14235TIP3    H142648   3.338   6.614   2.854
14235TIP3    H242649   3.189   6.624   2.827
14236TIP3   OH242650   3.951   0.366   4.565
14236TIP3    H142651   3.958   0.358   4.470
14236TIP3    H242652   4.015   0.433   4.589
14237TIP3   OH242653   2.857   2.200   4.412
14237TIP3    H142654   2.907   2.272   4.452
14237TIP3    H242655   2.873   2.209   4.318
14238TIP3   OH242656   4.705   4.714   2.087
14238TIP3    H142657   4.707   4.623   2.057
14238TIP3    H242658   4.784   4.724   2.140
14239TIP3   OH242659   1.688   1.329   1.166
14239TIP3    H142660   1.636   1.296   1.240
14239TIP3    H242661   1.625   1.377   1.112
14240TIP3   OH242662   4.465   7.671   6.106
14240TIP3    H142663   4.473   7.628   6.021
14240TIP3    H242664   4.424   7.755   6.087
14241TIP3   OH242665   7.276   5.252   1.888
14241TIP3    H142666   7.234   5.191   1.828
14241TIP3    H242667   7.241   5.338   1.863
14242TIP3   OH242668   4.480   0.805   3.574
14242TIP3    H142669   4.471   0.712   3.550
14242TIP3    H242670   4.397   0.845   3.547
14243TIP3   OH242671   5.661   3.750   1.616
14243TIP3    H142672   5.613   3.757   1.699
14243TIP3    H242673   5.594   3.763   1.549
14244TIP3   OH242674   5.173   5.371   4.669
14244TIP3    H142675   5.253   5.419   4.648
14244TIP3    H242676   5.203   5.296   4.722
14245TIP3   OH242677   2.836   6.660   1.384
14245TIP3    H142678   2.794   6.588   1.338
14245TIP3    H242679   2.802   6.655   1.473
14246TIP3   OH242680   6.226   7.325   6.282
14246TIP3    H142681   6.149   7.382   6.289
14246TIP3    H242682   6.252   7.308   6.372
14247TIP3   OH242683   1.351   3.166   1.590
14247TIP3    H142684   1.261   3.149   1.562
14247TIP3    H242685   1.387   3.225   1.523
14248TIP3   OH242686   5.435   0.540   2.953
14248TIP3    H142687   5.488   0.476   3.001
14248TIP3    H242688   5.411   0.604   3.020
14249TIP3   OH242689   1.252   6.378   2.149
14249TIP3    H142690   1.286   6.423   2.226
14249TIP3    H242691   1.315   6.308   2.132
14250TIP3   OH242692   5.120   5.644   5.648
14250TIP3    H142693   5.128   5.664   5.555
14250TIP3    H242694   5.063   5.567   5.650
14251TIP3   OH242695   0.184   1.896   1.018
14251TIP3    H142696   0.230   1.905   0.935
14251TIP3    H242697   0.100   1.856   0.995
14252TIP3   OH242698   3.086   2.175   5.097
14252TIP3    H142699   3.160   2.196   5.154
14252TIP3    H242700   3.009   2.199   5.148
14253TIP3   OH242701   3.477   2.486   4.856
14253TIP3    H142702   3.445   2.549   4.791
14253TIP3    H242703   3.536   2.428   4.806
14254TIP3   OH242704   1.426   7.241   2.089
14254TIP3    H142705   1.418   7.221   1.995
14254TIP3    H242706   1.419   7.337   2.093
14255TIP3   OH242707   7.596   3.612   3.432
14255TIP3    H142708   7.628   3.591   3.519
14255TIP3    H242709   7.648   3.689   3.406
14256TIP3   OH242710   5.198   6.740   0.705
14256TIP3    H142711   5.194   6.645   0.713
14256TIP3    H242712   5.219   6.771   0.794
14257TIP3   OH242713   5.427   1.966   2.057
14257TIP3    H142714   5.468   1.939   2.138
14257TIP3    H242715   5.441   1.893   1.997
14258TIP3   OH242716   2.917   2.692   4.975
14258TIP3    H142717   2.839   2.734   5.011
14258TIP3    H242718   2.921   2.607   5.019
14259TIP3   OH242719   4.351   1.627   4.525
14259TIP3    H142720   4.299   1.691   4.573
14259TIP3    H242721   4.293   1.553   4.512
14260TIP3   OH242722   3.338   3.968   6.107
14260TIP3    H142723   3.392   3.978   6.029
14260TIP3    H242724   3.320   4.058   6.135
14261TIP3   OH242725   5.539   4.351   2.685
14261TIP3    H142726   5.584   4.409   2.747
14261TIP3    H242727   5.538   4.266   2.728
14262TIP3   OH242728   3.008   5.812   3.597
14262TIP3    H142729   3.055   5.883   3.640
14262TIP3    H242730   2.989   5.845   3.509
14263TIP3   OH242731   3.365   6.434   6.203
14263TIP3    H142732   3.379   6.475   6.118
14263TIP3    H242733   3.389   6.502   6.267
14264TIP3   OH242734   2.306   0.874   1.034
14264TIP3    H142735   2.301   0.780   1.016
14264TIP3    H242736   2.302   0.916   0.948
14265TIP3   OH242737   6.732   7.159   3.966
14265TIP3    H142738   6.748   7.202   3.882
14265TIP3    H242739   6.649   7.195   3.996
14266TIP3   OH242740   5.102   3.368   6.759
14266TIP3    H142741   5.055   3.411   6.687
14266TIP3    H242742   5.182   3.419   6.769
14267TIP3   OH242743   6.594   0.076   5.228
14267TIP3    H142744   6.503   0.102   5.219
14267TIP3    H242745   6.593  -0.020   5.222
14268TIP3   OH242746   7.457   0.932   1.561
14268TIP3    H142747   7.453   1.028   1.556
14268TIP3    H242748   7.491   0.914   1.649
14269TIP3   OH242749   1.578   7.810   0.842
14269TIP3    H142750   1.647   7.744   0.840
14269TIP3    H242751   1.625   7.894   0.847
14270TIP3   OH242752   7.787   0.175  -0.024
14270TIP3    H142753   7.695   0.152  -0.039
14270TIP3    H242754   7.784   0.235   0.052
14271TIP3   OH242755   8.226   6.164   6.190
14271TIP3    H142756   8.253   6.233   6.128
14271TIP3    H242757   8.173   6.210   6.255
14272TIP3   OH242758   3.725   5.963   3.280
14272TIP3    H142759   3.664   5.919   3.221
14272TIP3    H242760   3.799   5.902   3.287
14273TIP3   OH242761   5.497   1.702   4.970
14273TIP3    H142762   5.571   1.753   5.002
14273TIP3    H242763   5.535   1.619   4.942
14274TIP3   OH242764   5.455   3.465   4.888
14274TIP3    H142765   5.371   3.476   4.933
14274TIP3    H242766   5.468   3.548   4.841
14275TIP3   OH242767   3.168   4.692   1.838
14275TIP3    H142768   3.143   4.613   1.791
14275TIP3    H242769   3.156   4.669   1.930
14276TIP3   OH242770   1.568   5.381   2.131
14276TIP3    H142771   1.610   5.305   2.090
14276TIP3    H242772   1.637   5.447   2.136
14277TIP3   OH242773   1.958   6.012   3.447
14277TIP3    H142774   1.893   5.950   3.414
14277TIP3    H242775   2.042   5.978   3.416
14278TIP3   OH242776   6.029   3.536   4.614
14278TIP3    H142777   5.951   3.502   4.570
14278TIP3    H242778   6.102   3.505   4.561
14279TIP3   OH242779   7.959   0.058   2.810
14279TIP3    H142780   7.960  -0.037   2.799
14279TIP3    H242781   7.915   0.091   2.731
14280TIP3   OH242782   1.067   5.691   5.238
14280TIP3    H142783   1.006   5.739   5.294
14280TIP3    H242784   1.098   5.756   5.174
14281TIP3   OH242785   1.759   6.959   1.961
14281TIP3    H142786   1.785   6.980   1.872
14281TIP3    H242787   1.812   6.883   1.985
14282TIP3   OH242788   0.667   5.848   6.527
14282TIP3    H142789   0.697   5.939   6.525
14282TIP3    H242790   0.596   5.845   6.462
14283TIP3   OH242791   7.599   2.650   3.936
14283TIP3    H142792   7.540   2.645   3.861
14283TIP3    H242793   7.684   2.621   3.901
14284TIP3   OH242794   0.963   1.742   3.709
14284TIP3    H142795   1.038   1.790   3.743
14284TIP3    H242796   0.996   1.653   3.695
14285TIP3   OH242797   1.216   3.562   0.274
14285TIP3    H142798   1.178   3.487   0.318
14285TIP3    H242799   1.282   3.595   0.335
14286TIP3   OH242800   1.443   3.390   5.298
14286TIP3    H142801   1.394   3.452   5.243
14286TIP3    H242802   1.448   3.311   5.245
14287TIP3   OH242803   6.566   1.956   5.894
14287TIP3    H142804   6.636   1.969   5.958
14287TIP3    H242805   6.487   1.986   5.940
14288TIP3   OH242806   3.455   0.236   2.790
14288TIP3    H142807   3.549   0.240   2.775
14288TIP3    H242808   3.420   0.311   2.741
14289TIP3   OH242809   3.703   7.606   3.346
14289TIP3    H142810   3.620   7.653   3.332
14289TIP3    H242811   3.679   7.532   3.401
14290TIP3   OH242812   3.776   1.335   2.402
14290TIP3    H142813   3.760   1.261   2.460
14290TIP3    H242814   3.755   1.412   2.455
14291TIP3   OH242815   6.085   3.351   3.069
14291TIP3    H142816   6.019   3.356   3.138
14291TIP3    H242817   6.139   3.429   3.081
14292TIP3   OH242818   5.581   6.158   2.025
14292TIP3    H142819   5.538   6.224   1.971
14292TIP3    H242820   5.510   6.121   2.078
14293TIP3   OH242821   1.934   4.319   5.535
14293TIP3    H142822   1.924   4.225   5.549
14293TIP3    H242823   1.861   4.342   5.477
14294TIP3   OH242824   4.512   7.747   3.612
14294TIP3    H142825   4.444   7.685   3.587
14294TIP3    H242826   4.520   7.736   3.707
14295TIP3   OH242827   6.412   0.432   5.287
14295TIP3    H142828   6.447   0.368   5.350
14295TIP3    H242829   6.344   0.479   5.335
14296TIP3   OH242830   1.094   1.175   5.398
14296TIP3    H142831   1.187   1.191   5.415
14296TIP3    H242832   1.074   1.098   5.450
14297TIP3   OH242833   7.094   1.888   5.642
14297TIP3    H142834   7.184   1.899   5.671
14297TIP3    H242835   7.096   1.815   5.580
14298TIP3   OH242836   7.773   6.653   1.588
14298TIP3    H142837   7.840   6.612   1.643
14298TIP3    H242838   7.822   6.715   1.533
14299TIP3   OH242839   2.479   2.325   3.736
14299TIP3    H142840   2.536   2.367   3.800
14299TIP3    H242841   2.428   2.262   3.787
14300TIP3   OH242842   4.933   0.848   0.755
14300TIP3    H142843   4.916   0.808   0.670
14300TIP3    H242844   5.029   0.846   0.763
14301TIP3   OH242845   7.890   5.879   3.020
14301TIP3    H142846   7.893   5.843   2.931
14301TIP3    H242847   7.903   5.803   3.077
14302TIP3   OH242848   2.685   4.939   0.791
14302TIP3    H142849   2.687   4.970   0.700
14302TIP3    H242850   2.755   4.874   0.795
14303TIP3   OH242851   6.187   6.967   3.032
14303TIP3    H142852   6.282   6.957   3.028
14303TIP3    H242853   6.167   7.035   2.969
14304TIP3   OH242854   6.956   3.985   3.654
14304TIP3    H142855   6.992   3.908   3.697
14304TIP3    H242856   6.880   4.008   3.707
14305TIP3   OH242857   6.645   6.498   1.466
14305TIP3    H142858   6.651   6.433   1.396
14305TIP3    H242859   6.551   6.501   1.486
14306TIP3   OH242860   2.320   4.689   5.207
14306TIP3    H142861   2.286   4.764   5.257
14306TIP3    H242862   2.407   4.716   5.179
14307TIP3   OH242863   2.803   2.334   5.576
14307TIP3    H142864   2.708   2.344   5.580
14307TIP3    H242865   2.818   2.242   5.596
14308TIP3   OH242866   6.701   1.491   1.010
14308TIP3    H142867   6.698   1.526   0.920
14308TIP3    H242868   6.667   1.402   1.002
14309TIP3   OH242869   3.214   6.844   0.699
14309TIP3    H142870   3.239   6.815   0.787
14309TIP3    H242871   3.144   6.908   0.714
14310TIP3   OH242872   2.852   1.422   3.435
14310TIP3    H142873   2.895   1.346   3.474
14310TIP3    H242874   2.807   1.389   3.358
14311TIP3   OH242875   4.734   5.386   1.342
14311TIP3    H142876   4.746   5.351   1.431
14311TIP3    H242877   4.814   5.433   1.323
14312TIP3   OH242878   2.038   0.221   2.140
14312TIP3    H142879   2.038   0.127   2.122
14312TIP3    H242880   2.055   0.261   2.055
14313TIP3   OH242881   1.192   3.072   2.567
14313TIP3    H142882   1.246   3.043   2.640
14313TIP3    H242883   1.160   2.992   2.527
14314TIP3   OH242884   6.020   0.611   4.139
14314TIP3    H142885   5.937   0.564   4.132
14314TIP3    H242886   6.058   0.606   4.051
14315TIP3   OH242887   0.275   7.061   5.509
14315TIP3    H142888   0.249   7.093   5.595
14315TIP3    H242889   0.364   7.095   5.497
14316TIP3   OH242890   6.970   4.494   1.728
14316TIP3    H142891   6.912   4.466   1.799
14316TIP3    H242892   7.058   4.473   1.760
14317TIP3   OH242893   0.357   6.851   1.653
14317TIP3    H142894   0.336   6.824   1.742
14317TIP3    H242895   0.436   6.801   1.630
14318TIP3   OH242896   3.485   4.862   6.363
14318TIP3    H142897   3.510   4.902   6.279
14318TIP3    H242898   3.479   4.936   6.424
14319TIP3   OH242899   3.486   0.457   6.620
14319TIP3    H142900   3.564   0.477   6.673
14319TIP3    H242901   3.416   0.508   6.661
14320TIP3   OH242902   1.537   4.370   0.862
14320TIP3    H142903   1.492   4.435   0.917
14320TIP3    H242904   1.595   4.422   0.807
14321TIP3   OH242905   3.806   3.970   2.355
14321TIP3    H142906   3.817   4.057   2.392
14321TIP3    H242907   3.780   3.985   2.264
14322TIP3   OH242908   5.240   0.543   2.755
14322TIP3    H142909   5.314   0.546   2.816
14322TIP3    H242910   5.229   0.633   2.726
14323TIP3   OH242911   1.723   6.640   4.179
14323TIP3    H142912   1.637   6.680   4.186
14323TIP3    H242913   1.783   6.702   4.219
14324TIP3   OH242914   1.972   3.008   3.613
14324TIP3    H142915   1.890   2.958   3.617
14324TIP3    H242916   2.041   2.942   3.609
14325TIP3   OH242917   1.883   5.985   4.289
14325TIP3    H142918   1.861   5.893   4.307
14325TIP3    H242919   1.971   5.982   4.252
14326TIP3   OH242920   0.969   3.503   4.395
14326TIP3    H142921   1.017   3.564   4.338
14326TIP3    H242922   1.021   3.422   4.393
14327TIP3   OH242923   1.521   2.626   2.967
14327TIP3    H142924   1.570   2.690   2.916
14327TIP3    H242925   1.589   2.572   3.009
14328TIP3   OH242926   1.335   0.265   3.589
14328TIP3    H142927   1.325   0.349   3.635
14328TIP3    H242928   1.359   0.290   3.500
14329TIP3   OH242929   7.089   4.005   1.324
14329TIP3    H142930   7.007   4.026   1.280
14329TIP3    H242931   7.153   3.999   1.253
14330TIP3   OH242932   5.107   5.016   2.653
14330TIP3    H142933   5.198   4.998   2.630
14330TIP3    H242934   5.065   5.036   2.570
14331TIP3   OH242935   6.091   5.810   1.460
14331TIP3    H142936   6.170   5.808   1.514
14331TIP3    H242937   6.066   5.718   1.452
14332TIP3   OH242938   0.626   5.226   4.256
14332TIP3    H142939   0.578   5.309   4.260
14332TIP3    H242940   0.560   5.161   4.237
14333TIP3   OH242941   1.680   7.285   6.268
14333TIP3    H142942   1.730   7.253   6.343
14333TIP3    H242943   1.738   7.347   6.224
14334TIP3   OH242944   4.096   3.795   4.550
14334TIP3    H142945   4.144   3.835   4.622
14334TIP3    H242946   4.141   3.826   4.471
14335TIP3   OH242947   3.017   1.794   1.719
14335TIP3    H142948   3.052   1.853   1.652
14335TIP3    H242949   3.077   1.720   1.719
14336TIP3   OH242950   7.283   7.045   6.603
14336TIP3    H142951   7.281   6.960   6.647
14336TIP3    H242952   7.267   7.024   6.511
14337TIP3   OH242953   4.515   2.295   1.093
14337TIP3    H142954   4.555   2.235   1.155
14337TIP3    H242955   4.573   2.294   1.017
14338TIP3   OH242956   7.986   5.535   0.651
14338TIP3    H142957   7.939   5.471   0.597
14338TIP3    H242958   8.066   5.553   0.602
14339TIP3   OH242959   0.909   3.446   2.588
14339TIP3    H142960   0.847   3.417   2.655
14339TIP3    H242961   0.853   3.474   2.515
14340TIP3   OH242962   2.055   7.537   4.503
14340TIP3    H142963   2.015   7.620   4.479
14340TIP3    H242964   2.059   7.538   4.598
14341TIP3   OH242965   3.457   1.603   3.475
14341TIP3    H142966   3.515   1.546   3.527
14341TIP3    H242967   3.486   1.692   3.495
14342TIP3   OH242968   5.650   4.955   3.755
14342TIP3    H142969   5.716   4.896   3.719
14342TIP3    H242970   5.569   4.930   3.710
14343TIP3   OH242971   5.253   5.722   4.146
14343TIP3    H142972   5.221   5.805   4.181
14343TIP3    H242973   5.177   5.684   4.102
14344TIP3   OH242974   7.251   4.491   5.103
14344TIP3    H142975   7.192   4.495   5.179
14344TIP3    H242976   7.275   4.583   5.088
14345TIP3   OH242977   0.712   6.936   5.255
14345TIP3    H142978   0.769   6.937   5.178
14345TIP3    H242979   0.744   7.008   5.309
14346TIP3   OH242980   4.599   3.805   1.578
14346TIP3    H142981   4.523   3.767   1.622
14346TIP3    H242982   4.572   3.893   1.554
14347TIP3   OH242983   1.788   1.479   3.535
14347TIP3    H142984   1.803   1.420   3.609
14347TIP3    H242985   1.765   1.420   3.463
14348TIP3   OH242986   2.142   5.235   5.778
14348TIP3    H142987   2.141   5.143   5.804
14348TIP3    H242988   2.200   5.278   5.840
14349TIP3   OH242989   6.847   0.517   6.728
14349TIP3    H142990   6.922   0.470   6.692
14349TIP3    H242991   6.873   0.609   6.726
14350TIP3   OH242992   0.292   1.692   3.569
14350TIP3    H142993   0.327   1.778   3.546
14350TIP3    H242994   0.319   1.679   3.660
14351TIP3   OH242995   5.819   3.170   5.008
14351TIP3    H142996   5.775   3.252   4.989
14351TIP3    H242997   5.861   3.146   4.926
14352TIP3   OH242998   3.886   1.646   0.608
14352TIP3    H142999   3.970   1.679   0.640
14352TIP3    H243000   3.893   1.651   0.513
14353TIP3   OH243001   6.010   1.888   1.469
14353TIP3    H143002   6.064   1.860   1.543
14353TIP3    H243003   5.929   1.838   1.477
14354TIP3   OH243004   1.070   1.621   0.896
14354TIP3    H143005   1.025   1.556   0.951
14354TIP3    H243006   1.161   1.592   0.895
14355TIP3   OH243007   4.532   3.110   4.595
14355TIP3    H143008   4.466   3.113   4.525
14355TIP3    H243009   4.516   3.027   4.639
14356TIP3   OH243010   6.561   1.766   3.280
14356TIP3    H143011   6.478   1.789   3.322
14356TIP3    H243012   6.600   1.701   3.339
14357TIP3   OH243013   4.383   6.913   4.091
14357TIP3    H143014   4.303   6.878   4.053
14357TIP3    H243015   4.428   6.836   4.127
14358TIP3   OH243016   1.407   2.648   6.680
14358TIP3    H143017   1.468   2.695   6.737
14358TIP3    H243018   1.408   2.698   6.598
14359TIP3   OH243019   5.598   6.038   5.979
14359TIP3    H143020   5.677   6.026   6.031
14359TIP3    H243021   5.526   6.030   6.041
14360TIP3   OH243022   7.554   5.848   1.861
14360TIP3    H143023   7.600   5.793   1.798
14360TIP3    H243024   7.461   5.839   1.837
14361TIP3   OH243025   0.327   6.137   4.189
14361TIP3    H143026   0.362   6.202   4.128
14361TIP3    H243027   0.322   6.184   4.273
14362TIP3   OH243028   4.044   2.575   3.976
14362TIP3    H143029   4.108   2.535   3.916
14362TIP3    H243030   4.072   2.667   3.981
14363TIP3   OH243031   0.169   4.053   6.072
14363TIP3    H143032   0.143   4.132   6.025
14363TIP3    H243033   0.246   4.078   6.122
14364TIP3   OH243034   3.396   2.206   4.194
14364TIP3    H143035   3.360   2.240   4.112
14364TIP3    H243036   3.475   2.159   4.168
14365TIP3   OH243037   3.284   4.212   6.671
14365TIP3    H143038   3.225   4.192   6.744
14365TIP3    H243039   3.370   4.226   6.712
14366TIP3   OH243040   2.933   5.900   4.810
14366TIP3    H143041   2.973   5.912   4.896
14366TIP3    H243042   2.990   5.837   4.766
14367TIP3   OH243043   7.843   1.336   1.963
14367TIP3    H143044   7.770   1.302   2.015
14367TIP3    H243045   7.813   1.423   1.935
14368TIP3   OH243046   6.176   5.499   0.893
14368TIP3    H143047   6.102   5.553   0.921
14368TIP3    H243048   6.180   5.509   0.798
14369TIP3   OH243049   1.519   6.925   1.172
14369TIP3    H143050   1.484   6.879   1.248
14369TIP3    H243051   1.609   6.893   1.163
14370TIP3   OH243052   1.203   2.718   2.265
14370TIP3    H143053   1.152   2.766   2.200
14370TIP3    H243054   1.181   2.759   2.348
14371TIP3   OH243055   1.242   6.129   1.720
14371TIP3    H143056   1.263   6.078   1.799
14371TIP3    H243057   1.280   6.078   1.648
14372TIP3   OH243058   7.404   4.305   0.235
14372TIP3    H143059   7.434   4.306   0.326
14372TIP3    H243060   7.400   4.397   0.210
14373TIP3   OH243061   1.833   1.118   3.036
14373TIP3    H143062   1.832   1.210   3.061
14373TIP3    H243063   1.756   1.107   2.981
14374TIP3   OH243064   3.529   1.826   4.905
14374TIP3    H143065   3.434   1.832   4.900
14374TIP3    H243066   3.561   1.910   4.873
14375TIP3   OH243067   2.616   2.107   1.693
14375TIP3    H143068   2.678   2.171   1.727
14375TIP3    H243069   2.628   2.030   1.747
14376TIP3   OH243070   5.878   2.087   2.022
14376TIP3    H143071   5.902   2.179   2.023
14376TIP3    H243072   5.905   2.053   2.107
14377TIP3   OH243073   7.438   6.120   2.636
14377TIP3    H143074   7.466   6.173   2.711
14377TIP3    H243075   7.400   6.184   2.575
14378TIP3   OH243076   1.795   1.264   3.719
14378TIP3    H143077   1.882   1.225   3.716
14378TIP3    H243078   1.742   1.202   3.769
14379TIP3   OH243079   6.455   4.165   2.100
14379TIP3    H143080   6.540   4.142   2.061
14379TIP3    H243081   6.396   4.096   2.070
14380TIP3   OH243082   3.088   6.947   6.009
14380TIP3    H143083   3.108   6.976   5.920
14380TIP3    H243084   3.098   7.026   6.063
14381TIP3   OH243085   7.081   3.129   6.772
14381TIP3    H143086   7.106   3.037   6.765
14381TIP3    H243087   7.117   3.170   6.694
14382TIP3   OH243088   3.061   7.534  -0.026
14382TIP3    H143089   3.061   7.570   0.063
14382TIP3    H243090   3.151   7.545  -0.056
14383TIP3   OH243091   3.401   1.241   3.549
14383TIP3    H143092   3.483   1.263   3.594
14383TIP3    H243093   3.396   1.304   3.477
14384TIP3   OH243094   1.360   5.250   0.606
14384TIP3    H143095   1.419   5.178   0.628
14384TIP3    H243096   1.316   5.271   0.688
14385TIP3   OH243097   1.721   3.488   4.002
14385TIP3    H143098   1.780   3.556   4.036
14385TIP3    H243099   1.772   3.444   3.934
14386TIP3   OH243100   6.225   3.305   2.288
14386TIP3    H143101   6.231   3.211   2.304
14386TIP3    H243102   6.315   3.331   2.269
14387TIP3   OH243103   0.747   3.941   1.337
14387TIP3    H143104   0.729   4.022   1.385
14387TIP3    H243105   0.661   3.908   1.311
14388TIP3   OH243106   7.685  -0.012   4.417
14388TIP3    H143107   7.674  -0.041   4.508
14388TIP3    H243108   7.647   0.076   4.415
14389TIP3   OH243109   6.682   6.504   5.082
14389TIP3    H143110   6.741   6.577   5.065
14389TIP3    H243111   6.724   6.455   5.152
14390TIP3   OH243112   2.673   0.540   2.639
14390TIP3    H143113   2.734   0.608   2.611
14390TIP3    H243114   2.603   0.587   2.683
14391TIP3   OH243115   6.371   2.447   0.522
14391TIP3    H143116   6.363   2.394   0.602
14391TIP3    H243117   6.459   2.430   0.490
14392TIP3   OH243118   3.835   7.395   4.642
14392TIP3    H143119   3.756   7.449   4.636
14392TIP3    H243120   3.804   7.306   4.628
14393TIP3   OH243121   5.035   3.739   1.830
14393TIP3    H143122   4.990   3.787   1.900
14393TIP3    H243123   4.996   3.772   1.749
14394TIP3   OH243124   4.574   1.398   5.177
14394TIP3    H143125   4.640   1.330   5.162
14394TIP3    H243126   4.499   1.371   5.124
14395TIP3   OH243127   6.719   5.151   0.463
14395TIP3    H143128   6.658   5.084   0.493
14395TIP3    H243129   6.806   5.119   0.489
14396TIP3   OH243130   1.870   2.749   3.009
14396TIP3    H143131   1.828   2.682   3.062
14396TIP3    H243132   1.907   2.702   2.934
14397TIP3   OH243133   4.207   4.166   0.075
14397TIP3    H143134   4.148   4.186   0.002
14397TIP3    H243135   4.178   4.222   0.146
14398TIP3   OH243136   5.884   1.236   1.142
14398TIP3    H143137   5.957   1.272   1.091
14398TIP3    H243138   5.901   1.266   1.231
14399TIP3   OH243139   5.187   5.722   0.770
14399TIP3    H143140   5.161   5.764   0.852
14399TIP3    H243141   5.260   5.776   0.738
14400TIP3   OH243142   5.253   2.318   5.970
14400TIP3    H143143   5.248   2.288   6.061
14400TIP3    H243144   5.202   2.253   5.921
14401TIP3   OH243145   6.829   5.307   4.881
14401TIP3    H143146   6.792   5.229   4.838
14401TIP3    H243147   6.890   5.272   4.946
14402TIP3   OH243148   2.767   6.499   0.460
14402TIP3    H143149   2.727   6.515   0.374
14402TIP3    H243150   2.693   6.481   0.518
14403TIP3   OH243151   5.807   5.885   4.113
14403TIP3    H143152   5.765   5.812   4.068
14403TIP3    H243153   5.736   5.928   4.161
14404TIP3   OH243154   0.689   1.272   4.990
14404TIP3    H143155   0.751   1.320   5.046
14404TIP3    H243156   0.700   1.311   4.903
14405TIP3   OH243157   1.858   6.710   0.441
14405TIP3    H143158   1.903   6.629   0.416
14405TIP3    H243159   1.901   6.778   0.390
14406TIP3   OH243160   1.358   2.680   3.440
14406TIP3    H143161   1.317   2.755   3.483
14406TIP3    H243162   1.300   2.660   3.366
14407TIP3   OH243163   4.616   3.442   6.044
14407TIP3    H143164   4.658   3.357   6.031
14407TIP3    H243165   4.682   3.493   6.092
14408TIP3   OH243166   4.290   2.443   0.198
14408TIP3    H143167   4.362   2.389   0.166
14408TIP3    H243168   4.244   2.470   0.119
14409TIP3   OH243169   6.638   3.581   4.377
14409TIP3    H143170   6.718   3.584   4.324
14409TIP3    H243171   6.669   3.572   4.467
14410TIP3   OH243172   5.571   1.850   0.862
14410TIP3    H143173   5.498   1.904   0.893
14410TIP3    H243174   5.649   1.903   0.880
14411TIP3   OH243175   0.650   4.681   3.247
14411TIP3    H143176   0.734   4.641   3.270
14411TIP3    H243177   0.593   4.663   3.322
14412TIP3   OH243178   4.826   3.331   5.388
14412TIP3    H143179   4.838   3.319   5.482
14412TIP3    H243180   4.914   3.327   5.351
14413TIP3   OH243181   1.896   4.501   3.324
14413TIP3    H143182   1.988   4.513   3.300
14413TIP3    H243183   1.853   4.478   3.241
14414TIP3   OH243184   3.306   5.811   6.021
14414TIP3    H143185   3.258   5.848   5.947
14414TIP3    H243186   3.238   5.771   6.076
14415TIP3   OH243187   2.570   1.737   3.058
14415TIP3    H143188   2.644   1.747   3.117
14415TIP3    H243189   2.521   1.818   3.066
14416TIP3   OH243190   0.564   3.860   3.489
14416TIP3    H143191   0.542   3.795   3.423
14416TIP3    H243192   0.486   3.916   3.494
14417TIP3   OH243193   6.919   5.502   5.949
14417TIP3    H143194   6.835   5.501   5.996
14417TIP3    H243195   6.896   5.513   5.857
14418TIP3   OH243196   4.956   6.568   3.630
14418TIP3    H143197   5.005   6.519   3.564
14418TIP3    H243198   4.900   6.502   3.672
14419TIP3   OH243199   2.666   3.111   1.680
14419TIP3    H143200   2.663   3.182   1.745
14419TIP3    H243201   2.619   3.146   1.604
14420TIP3   OH243202   6.527   1.995   1.054
14420TIP3    H143203   6.476   2.011   0.975
14420TIP3    H243204   6.549   1.902   1.050
14421TIP3   OH243205   5.386   2.368   3.424
14421TIP3    H143206   5.465   2.418   3.405
14421TIP3    H243207   5.417   2.279   3.438
14422TIP3   OH243208   6.384   0.706   6.611
14422TIP3    H143209   6.395   0.620   6.571
14422TIP3    H243210   6.445   0.705   6.685
14423TIP3   OH243211   5.859   0.459   1.878
14423TIP3    H143212   5.954   0.450   1.886
14423TIP3    H243213   5.834   0.388   1.818
14424TIP3   OH243214   6.147   0.797   5.330
14424TIP3    H143215   6.080   0.731   5.347
14424TIP3    H243216   6.153   0.848   5.411
14425TIP3   OH243217   2.375   2.368   0.922
14425TIP3    H143218   2.457   2.409   0.949
14425TIP3    H243219   2.336   2.335   1.003
14426TIP3   OH243220   3.984   5.899   0.034
14426TIP3    H143221   4.036   5.974   0.064
14426TIP3    H243222   4.047   5.828   0.026
14427TIP3   OH243223   4.300   1.135   1.623
14427TIP3    H143224   4.390   1.153   1.649
14427TIP3    H243225   4.252   1.215   1.643
14428TIP3   OH243226   6.698   4.919   1.949
14428TIP3    H143227   6.778   4.878   1.916
14428TIP3    H243228   6.727   5.005   1.979
14429TIP3   OH243229   4.992   2.385   0.566
14429TIP3    H143230   4.958   2.472   0.585
14429TIP3    H243231   4.914   2.335   0.539
14430TIP3   OH243232   3.119   4.426   3.741
14430TIP3    H143233   3.055   4.433   3.813
14430TIP3    H243234   3.148   4.335   3.744
14431TIP3   OH243235   1.627   5.122   4.342
14431TIP3    H143236   1.705   5.172   4.365
14431TIP3    H243237   1.661   5.045   4.296
14432TIP3   OH243238   5.088   3.563   2.865
14432TIP3    H143239   5.114   3.478   2.902
14432TIP3    H243240   4.993   3.558   2.857
14433TIP3   OH243241   8.190   7.796   5.881
14433TIP3    H143242   8.157   7.886   5.887
14433TIP3    H243243   8.239   7.783   5.961
14434TIP3   OH243244   3.294   6.265   4.140
14434TIP3    H143245   3.320   6.182   4.180
14434TIP3    H243246   3.374   6.318   4.142
14435TIP3   OH243247   4.047   6.388   4.412
14435TIP3    H143248   3.960   6.361   4.384
14435TIP3    H243249   4.034   6.426   4.499
14436TIP3   OH243250   5.180   0.970   5.513
14436TIP3    H143251   5.117   0.944   5.580
14436TIP3    H243252   5.206   0.887   5.472
14437TIP3   OH243253   6.283   7.360   2.605
14437TIP3    H143254   6.274   7.302   2.529
14437TIP3    H243255   6.378   7.367   2.618
14438TIP3   OH243256   0.408   2.595   3.413
14438TIP3    H143257   0.471   2.524   3.403
14438TIP3    H243258   0.408   2.615   3.507
14439TIP3   OH243259   1.443   5.513   2.354
14439TIP3    H143260   1.447   5.472   2.440
14439TIP3    H243261   1.521   5.483   2.309
14440TIP3   OH243262   4.866   2.068   1.518
14440TIP3    H143263   4.910   2.127   1.456
14440TIP3    H243264   4.885   2.106   1.604
14441TIP3   OH243265   6.176   4.848   2.441
14441TIP3    H143266   6.172   4.772   2.500
14441TIP3    H243267   6.182   4.811   2.354
14442TIP3   OH243268   7.808   7.430   1.233
14442TIP3    H143269   7.886   7.429   1.178
14442TIP3    H243270   7.740   7.387   1.180
14443TIP3   OH243271   4.854   7.744   6.089
14443TIP3    H143272   4.796   7.759   6.164
14443TIP3    H243273   4.942   7.745   6.127
14444TIP3   OH243274   6.888   4.917   3.079
14444TIP3    H143275   6.976   4.881   3.079
14444TIP3    H243276   6.842   4.871   3.009
14445TIP3   OH243277   3.220   6.911   2.892
14445TIP3    H143278   3.315   6.896   2.886
14445TIP3    H243279   3.197   6.884   2.980
14446TIP3   OH243280   2.087   3.509   5.444
14446TIP3    H143281   2.111   3.555   5.364
14446TIP3    H243282   2.123   3.421   5.433
14447TIP3   OH243283   4.044   5.672   5.803
14447TIP3    H143284   4.053   5.712   5.717
14447TIP3    H243285   4.073   5.582   5.791
14448TIP3   OH243286   0.615   6.051   2.538
14448TIP3    H143287   0.539   6.110   2.536
14448TIP3    H243288   0.633   6.034   2.446
14449TIP3   OH243289   5.572   7.397   4.449
14449TIP3    H143290   5.575   7.306   4.479
14449TIP3    H243291   5.479   7.419   4.448
14450TIP3   OH243292   1.025   0.913   4.143
14450TIP3    H143293   0.975   0.970   4.085
14450TIP3    H243294   0.991   0.825   4.126
14451TIP3   OH243295   1.123   3.879   3.347
14451TIP3    H143296   1.066   3.930   3.404
14451TIP3    H243297   1.208   3.880   3.390
14452TIP3   OH243298   4.960   3.033   1.532
14452TIP3    H143299   5.027   3.040   1.464
14452TIP3    H243300   4.980   3.104   1.594
14453TIP3   OH243301   0.466   6.994   5.204
14453TIP3    H143302   0.554   6.978   5.239
14453TIP3    H243303   0.420   6.911   5.218
14454TIP3   OH243304   6.545   4.003   0.222
14454TIP3    H143305   6.588   4.024   0.139
14454TIP3    H243306   6.571   4.072   0.282
14455TIP3   OH243307   2.052   2.819   2.074
14455TIP3    H143308   2.065   2.893   2.015
14455TIP3    H243309   1.960   2.826   2.102
14456TIP3   OH243310   4.843   7.709   1.875
14456TIP3    H143311   4.837   7.805   1.883
14456TIP3    H243312   4.753   7.679   1.887
14457TIP3   OH243313   6.703   2.272   0.009
14457TIP3    H143314   6.611   2.256  -0.014
14457TIP3    H243315   6.699   2.320   0.092
14458TIP3   OH243316   3.469   7.300   5.548
14458TIP3    H143317   3.518   7.258   5.619
14458TIP3    H243318   3.442   7.385   5.585
14459TIP3   OH243319   0.432   4.516   5.385
14459TIP3    H143320   0.444   4.597   5.435
14459TIP3    H243321   0.468   4.447   5.440
14460TIP3   OH243322   5.298   2.893   6.021
14460TIP3    H143323   5.306   2.809   6.065
14460TIP3    H243324   5.212   2.892   5.980
14461TIP3   OH243325   5.396   3.974   0.756
14461TIP3    H143326   5.440   3.974   0.841
14461TIP3    H243327   5.355   3.887   0.751
14462TIP3   OH243328   6.620   6.844   0.371
14462TIP3    H143329   6.634   6.750   0.373
14462TIP3    H243330   6.564   6.862   0.446
14463TIP3   OH243331   5.814   6.276   2.791
14463TIP3    H143332   5.744   6.290   2.728
14463TIP3    H243333   5.875   6.349   2.777
14464TIP3   OH243334   4.954   5.586   0.758
14464TIP3    H143335   4.971   5.511   0.815
14464TIP3    H243336   5.040   5.621   0.737
14465TIP3   OH243337   2.490   1.409   2.275
14465TIP3    H143338   2.485   1.495   2.317
14465TIP3    H243339   2.470   1.426   2.183
14466TIP3   OH243340   5.641   3.641   6.354
14466TIP3    H143341   5.601   3.555   6.338
14466TIP3    H243342   5.692   3.629   6.434
14467TIP3   OH243343   0.754   7.269   2.497
14467TIP3    H143344   0.819   7.256   2.567
14467TIP3    H243345   0.745   7.182   2.457
14468TIP3   OH243346   7.976   1.992   2.025
14468TIP3    H143347   8.017   1.923   2.077
14468TIP3    H243348   7.934   2.049   2.089
14469TIP3   OH243349   5.644   3.164   0.934
14469TIP3    H143350   5.602   3.080   0.913
14469TIP3    H243351   5.726   3.162   0.885
14470TIP3   OH243352   3.759   7.055   4.869
14470TIP3    H143353   3.742   7.132   4.923
14470TIP3    H243354   3.704   7.067   4.792
14471TIP3   OH243355   2.427   1.025   2.886
14471TIP3    H143356   2.469   1.103   2.851
14471TIP3    H243357   2.347   1.015   2.834
14472TIP3   OH243358   4.245   3.362   2.478
14472TIP3    H143359   4.243   3.369   2.574
14472TIP3    H243360   4.338   3.356   2.456
14473TIP3   OH243361   5.228   5.457   4.250
14473TIP3    H143362   5.135   5.457   4.270
14473TIP3    H243363   5.254   5.549   4.255
14474TIP3   OH243364   1.213   0.613   3.940
14474TIP3    H143365   1.241   0.578   4.024
14474TIP3    H243366   1.125   0.646   3.955
14475TIP3   OH243367   8.266   0.525   6.526
14475TIP3    H143368   8.350   0.522   6.480
14475TIP3    H243369   8.205   0.480   6.468
14476TIP3   OH243370   2.213   2.536   2.531
14476TIP3    H143371   2.143   2.601   2.534
14476TIP3    H243372   2.292   2.585   2.507
14477TIP3   OH243373   1.508   4.431   5.254
14477TIP3    H143374   1.425   4.444   5.300
14477TIP3    H243375   1.485   4.428   5.162
14478TIP3   OH243376   0.036   5.416   4.795
14478TIP3    H143377   0.105   5.352   4.811
14478TIP3    H243378   0.071   5.472   4.726
14479TIP3   OH243379   1.467   4.229   1.438
14479TIP3    H143380   1.511   4.284   1.373
14479TIP3    H243381   1.469   4.141   1.400
14480TIP3   OH243382   1.103   7.255   2.286
14480TIP3    H143383   1.080   7.198   2.213
14480TIP3    H243384   1.121   7.196   2.359
14481TIP3   OH243385   5.172   3.011   6.717
14481TIP3    H143386   5.261   3.017   6.753
14481TIP3    H243387   5.117   2.994   6.793
14482TIP3   OH243388   2.747   0.141   6.652
14482TIP3    H143389   2.712   0.224   6.621
14482TIP3    H243390   2.777   0.096   6.572
14483TIP3   OH243391   4.936   1.189   6.671
14483TIP3    H143392   4.991   1.115   6.697
14483TIP3    H243393   4.988   1.267   6.692
14484TIP3   OH243394   3.253   6.157   2.539
14484TIP3    H143395   3.252   6.216   2.464
14484TIP3    H243396   3.314   6.087   2.515
14485TIP3   OH243397   6.840   0.516   5.839
14485TIP3    H143398   6.793   0.526   5.921
14485TIP3    H243399   6.833   0.602   5.796
14486TIP3   OH243400   1.258   2.794   0.727
14486TIP3    H143401   1.305   2.856   0.671
14486TIP3    H243402   1.277   2.824   0.816
14487TIP3   OH243403   4.263   1.401   6.672
14487TIP3    H143404   4.313   1.447   6.739
14487TIP3    H243405   4.216   1.470   6.625
14488TIP3   OH243406   7.273   0.925   3.366
14488TIP3    H143407   7.206   0.988   3.391
14488TIP3    H243408   7.295   0.880   3.448
14489TIP3   OH243409   7.930   0.849   4.741
14489TIP3    H143410   7.988   0.791   4.790
14489TIP3    H243411   7.864   0.791   4.703
14490TIP3   OH243412   0.111   6.479   4.278
14490TIP3    H143413   0.023   6.466   4.315
14490TIP3    H243414   0.105   6.564   4.233
14491TIP3   OH243415   1.677   1.403   4.794
14491TIP3    H143416   1.630   1.451   4.863
14491TIP3    H243417   1.613   1.394   4.723
14492TIP3   OH243418   5.665   7.234   4.895
14492TIP3    H143419   5.748   7.281   4.898
14492TIP3    H243420   5.652   7.204   4.985
14493TIP3   OH243421   7.456   7.258   6.668
14493TIP3    H143422   7.483   7.218   6.750
14493TIP3    H243423   7.361   7.248   6.666
14494TIP3   OH243424   4.824   2.940   5.019
14494TIP3    H143425   4.759   2.962   5.085
14494TIP3    H243426   4.808   2.848   4.999
14495TIP3   OH243427   6.959   3.175   1.387
14495TIP3    H143428   6.881   3.136   1.346
14495TIP3    H243429   6.978   3.116   1.460
14496TIP3   OH243430   0.471   0.749   1.016
14496TIP3    H143431   0.480   0.669   0.964
14496TIP3    H243432   0.561   0.772   1.039
14497TIP3   OH243433   5.596   2.755   5.527
14497TIP3    H143434   5.656   2.683   5.510
14497TIP3    H243435   5.594   2.805   5.445
14498TIP3   OH243436   4.407   0.465   4.805
14498TIP3    H143437   4.494   0.439   4.773
14498TIP3    H243438   4.418   0.471   4.900
14499TIP3   OH243439   7.944   5.614   0.287
14499TIP3    H143440   7.899   5.648   0.365
14499TIP3    H243441   8.020   5.672   0.277
14500TIP3   OH243442   7.069   5.931   6.365
14500TIP3    H143443   7.077   6.024   6.341
14500TIP3    H243444   6.986   5.903   6.325
14501TIP3   OH243445   2.898   7.502   3.061
14501TIP3    H143446   2.897   7.501   2.966
14501TIP3    H243447   2.825   7.446   3.087
14502TIP3   OH243448   3.298   2.667   5.827
14502TIP3    H143449   3.322   2.624   5.745
14502TIP3    H243450   3.374   2.656   5.884
14503TIP3   OH243451   0.154   3.426   3.602
14503TIP3    H143452   0.199   3.444   3.520
14503TIP3    H243453   0.178   3.336   3.624
14504TIP3   OH243454   0.071   2.668   2.702
14504TIP3    H143455   0.090   2.574   2.711
14504TIP3    H243456   0.007   2.673   2.631
14505TIP3   OH243457   7.231   1.588   4.192
14505TIP3    H143458   7.263   1.598   4.102
14505TIP3    H243459   7.170   1.514   4.188
14506TIP3   OH243460   0.412   3.861   4.139
14506TIP3    H143461   0.333   3.899   4.177
14506TIP3    H243462   0.394   3.857   4.045
14507TIP3   OH243463   2.409   6.588   5.849
14507TIP3    H143464   2.385   6.594   5.941
14507TIP3    H243465   2.455   6.504   5.842
14508TIP3   OH243466   7.616   0.450   0.760
14508TIP3    H143467   7.608   0.542   0.785
14508TIP3    H243468   7.530   0.412   0.780
14509TIP3   OH243469   1.263   7.549   2.836
14509TIP3    H143470   1.226   7.517   2.754
14509TIP3    H243471   1.355   7.521   2.833
14510TIP3   OH243472   0.414   2.700   4.582
14510TIP3    H143473   0.399   2.659   4.497
14510TIP3    H243474   0.409   2.628   4.645
14511TIP3   OH243475   2.214   4.607   3.990
14511TIP3    H143476   2.157   4.652   3.929
14511TIP3    H243477   2.158   4.587   4.065
14512TIP3   OH243478   2.828   4.012   2.036
14512TIP3    H143479   2.808   3.968   2.119
14512TIP3    H243480   2.918   4.043   2.047
14513TIP3   OH243481   7.155   4.191   4.132
14513TIP3    H143482   7.220   4.182   4.203
14513TIP3    H243483   7.130   4.101   4.112
14514TIP3   OH243484   7.976   6.388   3.526
14514TIP3    H143485   7.882   6.377   3.534
14514TIP3    H243486   8.011   6.362   3.612
14515TIP3   OH243487   5.311   0.316   2.150
14515TIP3    H143488   5.393   0.305   2.101
14515TIP3    H243489   5.315   0.405   2.184
14516TIP3   OH243490   5.209   3.213   2.340
14516TIP3    H143491   5.174   3.244   2.423
14516TIP3    H243492   5.177   3.275   2.275
14517TIP3   OH243493   5.560   2.644   1.296
14517TIP3    H143494   5.632   2.617   1.239
14517TIP3    H243495   5.582   2.608   1.382
14518TIP3   OH243496   1.199   0.617   0.543
14518TIP3    H143497   1.141   0.551   0.505
14518TIP3    H243498   1.171   0.699   0.503
14519TIP3   OH243499   7.406   4.555   6.302
14519TIP3    H143500   7.344   4.614   6.259
14519TIP3    H243501   7.459   4.613   6.358
14520TIP3   OH243502   7.824   4.929   2.591
14520TIP3    H143503   7.877   4.921   2.670
14520TIP3    H243504   7.737   4.902   2.618
14521TIP3   OH243505   6.217   0.617   0.627
14521TIP3    H143506   6.219   0.654   0.538
14521TIP3    H243507   6.167   0.536   0.617
14522TIP3   OH243508   6.275   4.588   1.967
14522TIP3    H143509   6.358   4.547   1.992
14522TIP3    H243510   6.281   4.597   1.872
14523TIP3   OH243511   4.599   7.247   5.069
14523TIP3    H143512   4.530   7.311   5.085
14523TIP3    H243513   4.657   7.254   5.145
14524TIP3   OH243514   2.362   3.543   3.225
14524TIP3    H143515   2.452   3.560   3.250
14524TIP3    H243516   2.348   3.594   3.146
14525TIP3   OH243517   2.604   6.152   2.906
14525TIP3    H143518   2.695   6.127   2.892
14525TIP3    H243519   2.586   6.128   2.997
14526TIP3   OH243520   6.611   7.265   0.254
14526TIP3    H143521   6.565   7.182   0.239
14526TIP3    H243522   6.668   7.275   0.178
14527TIP3   OH243523   4.152   4.356   4.082
14527TIP3    H143524   4.108   4.388   4.161
14527TIP3    H243525   4.081   4.315   4.032
14528TIP3   OH243526   1.890   4.599   3.568
14528TIP3    H143527   1.872   4.528   3.630
14528TIP3    H243528   1.898   4.555   3.483
14529TIP3   OH243529   5.032   1.145   3.306
14529TIP3    H143530   5.089   1.193   3.365
14529TIP3    H243531   5.007   1.067   3.355
14530TIP3   OH243532   2.756   4.835   4.370
14530TIP3    H143533   2.814   4.878   4.308
14530TIP3    H243534   2.737   4.901   4.436
14531TIP3   OH243535   6.044   4.700   5.823
14531TIP3    H143536   6.120   4.698   5.882
14531TIP3    H243537   6.002   4.784   5.841
14532TIP3   OH243538   7.353   6.030   4.779
14532TIP3    H143539   7.437   5.994   4.806
14532TIP3    H243540   7.344   6.005   4.687
14533TIP3   OH243541   2.785   6.734   2.599
14533TIP3    H143542   2.773   6.670   2.529
14533TIP3    H243543   2.699   6.773   2.612
14534TIP3   OH243544   3.747   2.594   2.694
14534TIP3    H143545   3.806   2.546   2.753
14534TIP3    H243546   3.746   2.683   2.729
14535TIP3   OH243547   8.119   0.883   4.439
14535TIP3    H143548   8.048   0.820   4.430
14535TIP3    H243549   8.178   0.844   4.503
14536TIP3   OH243550   4.868   7.624   5.562
14536TIP3    H143551   4.803   7.636   5.492
14536TIP3    H243552   4.948   7.664   5.527
14537TIP3   OH243553   0.690   7.044   2.350
14537TIP3    H143554   0.737   7.001   2.278
14537TIP3    H243555   0.610   7.078   2.310
14538TIP3   OH243556   5.849   6.294   1.592
14538TIP3    H143557   5.880   6.308   1.681
14538TIP3    H243558   5.923   6.252   1.547
14539TIP3   OH243559   2.092   2.518   1.471
14539TIP3    H143560   2.093   2.452   1.541
14539TIP3    H243561   2.042   2.477   1.401
14540TIP3   OH243562   4.835   3.896   1.687
14540TIP3    H143563   4.796   3.977   1.720
14540TIP3    H243564   4.765   3.856   1.635
14541TIP3   OH243565   1.762   3.396   4.434
14541TIP3    H143566   1.808   3.358   4.509
14541TIP3    H243567   1.786   3.488   4.435
14542TIP3   OH243568   4.165   3.309   2.220
14542TIP3    H143569   4.119   3.393   2.213
14542TIP3    H243570   4.183   3.299   2.313
14543TIP3   OH243571   2.609   4.751   6.553
14543TIP3    H143572   2.569   4.790   6.631
14543TIP3    H243573   2.585   4.811   6.482
14544TIP3   OH243574   7.093   4.938   5.615
14544TIP3    H143575   7.039   4.988   5.677
14544TIP3    H243576   7.183   4.960   5.639
14545TIP3   OH243577   3.964   5.113   1.540
14545TIP3    H143578   3.979   5.203   1.571
14545TIP3    H243579   3.869   5.104   1.536
14546TIP3   OH243580   2.172   1.894   5.487
14546TIP3    H143581   2.247   1.835   5.476
14546TIP3    H243582   2.097   1.836   5.494
14547TIP3   OH243583   5.181   0.277   0.236
14547TIP3    H143584   5.115   0.239   0.295
14547TIP3    H243585   5.133   0.296   0.156
14548TIP3   OH243586   3.273   5.756   4.167
14548TIP3    H143587   3.183   5.724   4.171
14548TIP3    H243588   3.305   5.748   4.257
14549TIP3   OH243589   6.307   5.293   3.711
14549TIP3    H143590   6.223   5.271   3.751
14549TIP3    H243591   6.366   5.308   3.785
14550TIP3   OH243592   5.590   5.103   5.919
14550TIP3    H143593   5.547   5.176   5.874
14550TIP3    H243594   5.612   5.041   5.849
14551TIP3   OH243595   6.823   2.952   5.361
14551TIP3    H143596   6.857   2.863   5.356
14551TIP3    H243597   6.847   2.982   5.449
14552TIP3   OH243598   2.307   5.221   2.249
14552TIP3    H143599   2.234   5.187   2.302
14552TIP3    H243600   2.268   5.239   2.163
14553TIP3   OH243601   6.281   0.015   6.622
14553TIP3    H143602   6.240   0.077   6.562
14553TIP3    H243603   6.374   0.038   6.620
14554TIP3   OH243604   5.035   4.586   0.730
14554TIP3    H143605   5.071   4.633   0.655
14554TIP3    H243606   4.980   4.518   0.690
14555TIP3   OH243607   1.416   7.361   4.855
14555TIP3    H143608   1.380   7.288   4.904
14555TIP3    H243609   1.344   7.424   4.848
14556TIP3   OH243610   6.007   2.355   5.294
14556TIP3    H143611   6.042   2.421   5.234
14556TIP3    H243612   6.059   2.277   5.275
14557TIP3   OH243613   1.639   4.280   2.547
14557TIP3    H143614   1.545   4.298   2.550
14557TIP3    H243615   1.656   4.226   2.624
14558TIP3   OH243616   1.129   6.414   4.716
14558TIP3    H143617   1.083   6.468   4.652
14558TIP3    H243618   1.105   6.324   4.695
14559TIP3   OH243619   3.875   2.869   2.190
14559TIP3    H143620   3.784   2.865   2.161
14559TIP3    H243621   3.912   2.944   2.144
14560TIP3   OH243622   3.852   6.700   6.494
14560TIP3    H143623   3.909   6.693   6.417
14560TIP3    H243624   3.868   6.788   6.528
14561TIP3   OH243625   4.754   5.320   4.142
14561TIP3    H143626   4.727   5.252   4.081
14561TIP3    H243627   4.806   5.381   4.089
14562TIP3   OH243628   1.344   5.088   1.952
14562TIP3    H143629   1.268   5.146   1.956
14562TIP3    H243630   1.337   5.033   2.030
14563TIP3   OH243631   2.295   3.686   2.659
14563TIP3    H143632   2.338   3.616   2.610
14563TIP3    H243633   2.202   3.664   2.655
14564TIP3   OH243634   8.239   3.549   1.559
14564TIP3    H143635   8.224   3.612   1.630
14564TIP3    H243636   8.270   3.470   1.603
14565TIP3   OH243637   8.217   6.537   6.401
14565TIP3    H143638   8.177   6.452   6.383
14565TIP3    H243639   8.143   6.595   6.417
14566TIP3   OH243640   2.169   0.954   0.815
14566TIP3    H143641   2.178   1.019   0.885
14566TIP3    H243642   2.229   0.984   0.747
14567TIP3   OH243643   6.859   2.805   5.011
14567TIP3    H143644   6.928   2.762   4.959
14567TIP3    H243645   6.833   2.881   4.959
14568TIP3   OH243646   4.547   3.912   3.279
14568TIP3    H143647   4.553   3.853   3.355
14568TIP3    H243648   4.636   3.944   3.266
14569TIP3   OH243649   5.430   6.246   0.242
14569TIP3    H143650   5.396   6.308   0.306
14569TIP3    H243651   5.524   6.262   0.239
14570TIP3   OH243652   4.627   4.210   0.606
14570TIP3    H143653   4.605   4.148   0.676
14570TIP3    H243654   4.573   4.286   0.624
14571TIP3   OH243655   5.391   5.573   6.212
14571TIP3    H143656   5.340   5.513   6.266
14571TIP3    H243657   5.325   5.623   6.164
14572TIP3   OH243658   5.467   2.134   6.449
14572TIP3    H143659   5.548   2.130   6.500
14572TIP3    H243660   5.405   2.181   6.505
14573TIP3   OH243661   3.768   0.222   2.289
14573TIP3    H143662   3.714   0.295   2.320
14573TIP3    H243663   3.839   0.216   2.353
14574TIP3   OH243664   0.153   5.721   3.663
14574TIP3    H143665   0.174   5.712   3.756
14574TIP3    H243666   0.219   5.669   3.618
14575TIP3   OH243667   5.585   6.486   6.310
14575TIP3    H143668   5.540   6.569   6.328
14575TIP3    H243669   5.536   6.420   6.359
14576TIP3   OH243670   3.866   2.500   4.780
14576TIP3    H143671   3.806   2.539   4.716
14576TIP3    H243672   3.940   2.560   4.782
14577TIP3   OH243673   2.438   4.252   1.198
14577TIP3    H143674   2.386   4.243   1.278
14577TIP3    H243675   2.461   4.345   1.195
14578TIP3   OH243676   5.330   3.801   0.523
14578TIP3    H143677   5.417   3.836   0.543
14578TIP3    H243678   5.344   3.744   0.447
14579TIP3   OH243679   2.037   4.944   5.468
14579TIP3    H143680   2.089   4.873   5.429
14579TIP3    H243681   2.019   4.914   5.557
14580TIP3   OH243682   6.567   5.002   0.795
14580TIP3    H143683   6.564   5.098   0.800
14580TIP3    H243684   6.492   4.973   0.848
14581TIP3   OH243685   5.925   1.749   4.282
14581TIP3    H143686   5.839   1.755   4.322
14581TIP3    H243687   5.909   1.709   4.196
14582TIP3   OH243688   5.225   7.107   6.688
14582TIP3    H143689   5.169   7.051   6.634
14582TIP3    H243690   5.314   7.078   6.669
14583TIP3   OH243691   4.395   2.487   2.877
14583TIP3    H143692   4.406   2.398   2.844
14583TIP3    H243693   4.449   2.540   2.819
14584TIP3   OH243694   2.351   0.693   4.482
14584TIP3    H143695   2.367   0.760   4.415
14584TIP3    H243696   2.264   0.659   4.462
14585TIP3   OH243697   6.197   5.429   5.819
14585TIP3    H143698   6.145   5.436   5.899
14585TIP3    H243699   6.197   5.517   5.782
14586TIP3   OH243700   1.097   4.587   6.762
14586TIP3    H143701   1.149   4.510   6.787
14586TIP3    H243702   1.141   4.622   6.685
14587TIP3   OH243703   5.845   7.768   4.167
14587TIP3    H143704   5.886   7.698   4.116
14587TIP3    H243705   5.824   7.835   4.103
14588TIP3   OH243706   5.795   6.195   4.312
14588TIP3    H143707   5.845   6.242   4.378
14588TIP3    H243708   5.849   6.120   4.290
14589TIP3   OH243709   0.950   6.630   4.675
14589TIP3    H143710   0.900   6.623   4.756
14589TIP3    H243711   0.986   6.719   4.676
14590TIP3   OH243712   6.370   0.080   2.266
14590TIP3    H143713   6.370   0.021   2.190
14590TIP3    H243714   6.460   0.077   2.299
14591TIP3   OH243715   3.644   4.913   2.086
14591TIP3    H143716   3.578   4.843   2.082
14591TIP3    H243717   3.617   4.967   2.161
14592TIP3   OH243718   4.419   0.175   0.257
14592TIP3    H143719   4.435   0.225   0.176
14592TIP3    H243720   4.422   0.084   0.230
14593TIP3   OH243721   7.999   2.770   0.240
14593TIP3    H143722   8.005   2.774   0.145
14593TIP3    H243723   8.026   2.681   0.262
14594TIP3   OH243724   4.182   6.308   2.419
14594TIP3    H143725   4.112   6.242   2.419
14594TIP3    H243726   4.235   6.285   2.342
14595TIP3   OH243727   5.215   4.580   0.285
14595TIP3    H143728   5.233   4.643   0.215
14595TIP3    H243729   5.199   4.634   0.362
14596TIP3   OH243730   3.742   7.456   0.930
14596TIP3    H143731   3.770   7.509   1.005
14596TIP3    H243732   3.647   7.458   0.933
14597TIP3   OH243733   5.458   6.702   5.427
14597TIP3    H143734   5.511   6.780   5.444
14597TIP3    H243735   5.515   6.645   5.375
14598TIP3   OH243736   4.574   6.324   0.701
14598TIP3    H143737   4.544   6.310   0.611
14598TIP3    H243738   4.501   6.298   0.756
14599TIP3   OH243739   0.734   6.780   0.278
14599TIP3    H143740   0.828   6.772   0.263
14599TIP3    H243741   0.718   6.874   0.275
14600TIP3   OH243742   6.680   1.304   5.838
14600TIP3    H143743   6.747   1.240   5.859
14600TIP3    H243744   6.705   1.383   5.887
14601TIP3   OH243745   0.188   0.927   4.380
14601TIP3    H143746   0.101   0.892   4.396
14601TIP3    H243747   0.173   1.018   4.352
14602TIP3   OH243748   1.988   6.806   5.417
14602TIP3    H143749   1.928   6.850   5.477
14602TIP3    H243750   2.048   6.875   5.387
14603TIP3   OH243751   8.011   3.912   5.849
14603TIP3    H143752   8.092   3.960   5.831
14603TIP3    H243753   8.034   3.821   5.834
14604TIP3   OH243754   0.643   2.868   6.592
14604TIP3    H143755   0.699   2.848   6.516
14604TIP3    H243756   0.560   2.896   6.554
14605TIP3   OH243757   6.493   5.229   5.848
14605TIP3    H143758   6.541   5.224   5.930
14605TIP3    H243759   6.428   5.297   5.862
14606TIP3   OH243760   3.891   4.592   5.378
14606TIP3    H143761   3.879   4.604   5.472
14606TIP3    H243762   3.817   4.538   5.350
14607TIP3   OH243763   5.680   1.542   4.161
14607TIP3    H143764   5.703   1.575   4.075
14607TIP3    H243765   5.682   1.447   4.151
14608TIP3   OH243766   4.799   2.201   5.521
14608TIP3    H143767   4.763   2.177   5.435
14608TIP3    H243768   4.803   2.118   5.569
14609TIP3   OH243769   4.408   2.577   1.106
14609TIP3    H143770   4.470   2.608   1.172
14609TIP3    H243771   4.433   2.485   1.092
14610TIP3   OH243772   2.755   3.695   1.915
14610TIP3    H143773   2.726   3.784   1.936
14610TIP3    H243774   2.705   3.640   1.974
14611TIP3   OH243775   2.553   5.526   5.725
14611TIP3    H143776   2.528   5.447   5.774
14611TIP3    H243777   2.472   5.555   5.683
14612TIP3   OH243778   7.723   4.104   0.145
14612TIP3    H143779   7.807   4.132   0.180
14612TIP3    H243780   7.686   4.182   0.104
14613TIP3   OH243781   7.651   6.822   4.895
14613TIP3    H143782   7.636   6.807   4.988
14613TIP3    H243783   7.579   6.776   4.852
14614TIP3   OH243784   0.922   3.622   3.453
14614TIP3    H143785   0.923   3.694   3.516
14614TIP3    H243786   0.939   3.544   3.505
14615TIP3   OH243787   4.258   5.600   2.440
14615TIP3    H143788   4.190   5.652   2.396
14615TIP3    H243789   4.340   5.642   2.414
14616TIP3   OH243790   7.982   0.324   3.413
14616TIP3    H143791   8.013   0.301   3.326
14616TIP3    H243792   7.893   0.358   3.399
14617TIP3   OH243793   6.845   1.061   1.581
14617TIP3    H143794   6.934   1.051   1.615
14617TIP3    H243795   6.856   1.108   1.498
14618TIP3   OH243796   2.618   0.134   1.233
14618TIP3    H143797   2.712   0.141   1.251
14618TIP3    H243798   2.604   0.190   1.157
14619TIP3   OH243799   5.112   0.200   2.324
14619TIP3    H143800   5.098   0.265   2.393
14619TIP3    H243801   5.177   0.240   2.266
14620TIP3   OH243802   0.230   0.651   1.552
14620TIP3    H143803   0.240   0.658   1.647
14620TIP3    H243804   0.317   0.667   1.517
14621TIP3   OH243805   8.064   7.834   2.962
14621TIP3    H143806   8.141   7.866   3.009
14621TIP3    H243807   8.050   7.745   2.996
14622TIP3   OH243808   6.826   5.006   5.500
14622TIP3    H143809   6.914   4.984   5.529
14622TIP3    H243810   6.769   4.962   5.563
14623TIP3   OH243811   6.280   3.324   4.651
14623TIP3    H143812   6.244   3.335   4.563
14623TIP3    H243813   6.331   3.403   4.666
14624TIP3   OH243814   2.424   1.286   0.572
14624TIP3    H143815   2.358   1.354   0.579
14624TIP3    H243816   2.507   1.333   0.562
14625TIP3   OH243817   0.748   5.132   3.323
14625TIP3    H143818   0.791   5.049   3.301
14625TIP3    H243819   0.736   5.127   3.418
14626TIP3   OH243820   6.112   7.082   6.151
14626TIP3    H143821   6.069   7.023   6.213
14626TIP3    H243822   6.149   7.152   6.205
14627TIP3   OH243823   0.509   5.912   3.805
14627TIP3    H143824   0.517   6.003   3.835
14627TIP3    H243825   0.466   5.919   3.720
14628TIP3   OH243826   2.035   2.919   1.817
14628TIP3    H143827   2.066   3.009   1.825
14628TIP3    H243828   1.943   2.923   1.843
14629TIP3   OH243829   2.214   4.667   6.018
14629TIP3    H143830   2.308   4.680   6.009
14629TIP3    H243831   2.205   4.585   6.068
14630TIP3   OH243832   1.429   6.343   0.371
14630TIP3    H143833   1.525   6.332   0.372
14630TIP3    H243834   1.409   6.382   0.456
14631TIP3   OH243835   0.597   0.827   0.599
14631TIP3    H143836   0.654   0.844   0.524
14631TIP3    H243837   0.583   0.732   0.597
14632TIP3   OH243838   7.481   3.586   6.331
14632TIP3    H143839   7.538   3.547   6.265
14632TIP3    H243840   7.399   3.537   6.323
14633TIP3   OH243841   6.272   3.631   0.145
14633TIP3    H143842   6.180   3.654   0.160
14633TIP3    H243843   6.321   3.701   0.188
14634TIP3   OH243844   7.514   5.116   1.772
14634TIP3    H143845   7.554   5.201   1.755
14634TIP3    H243846   7.447   5.133   1.837
14635TIP3   OH243847   2.783   3.006   3.652
14635TIP3    H143848   2.724   2.933   3.673
14635TIP3    H243849   2.845   3.008   3.725
14636TIP3   OH243850   7.491   2.809   5.054
14636TIP3    H143851   7.534   2.876   5.002
14636TIP3    H243852   7.428   2.769   4.994
14637TIP3   OH243853   8.194   0.515   3.406
14637TIP3    H143854   8.132   0.444   3.424
14637TIP3    H243855   8.277   0.484   3.444
14638TIP3   OH243856   4.273   4.920   2.758
14638TIP3    H143857   4.194   4.962   2.724
14638TIP3    H243858   4.331   4.911   2.682
14639TIP3   OH243859   5.989   6.015   1.061
14639TIP3    H143860   6.038   5.940   1.095
14639TIP3    H243861   5.898   5.997   1.083
14640TIP3   OH243862   7.258   3.286   3.177
14640TIP3    H143863   7.191   3.326   3.122
14640TIP3    H243864   7.286   3.357   3.235
14641TIP3   OH243865   5.221   0.493   1.825
14641TIP3    H143866   5.129   0.502   1.848
14641TIP3    H243867   5.224   0.516   1.732
14642TIP3   OH243868   2.167   0.896   1.833
14642TIP3    H143869   2.194   0.824   1.889
14642TIP3    H243870   2.086   0.865   1.792
14643TIP3   OH243871   4.877   4.257   6.569
14643TIP3    H143872   4.844   4.203   6.497
14643TIP3    H243873   4.862   4.204   6.647
14644TIP3   OH243874   0.738   2.020   1.529
14644TIP3    H143875   0.740   2.029   1.624
14644TIP3    H243876   0.658   1.971   1.511
14645TIP3   OH243877   6.575   2.836   0.465
14645TIP3    H143878   6.658   2.791   0.478
14645TIP3    H243879   6.560   2.833   0.370
14646TIP3   OH243880   6.179   2.068   4.953
14646TIP3    H143881   6.182   2.162   4.938
14646TIP3    H243882   6.090   2.042   4.929
14647TIP3   OH243883   4.664   0.966   3.472
14647TIP3    H143884   4.691   1.021   3.546
14647TIP3    H243885   4.605   0.902   3.511
14648TIP3   OH243886   5.484   2.684   2.178
14648TIP3    H143887   5.456   2.749   2.242
14648TIP3    H243888   5.465   2.724   2.093
14649TIP3   OH243889   4.013   6.182   0.354
14649TIP3    H143890   3.923   6.213   0.358
14649TIP3    H243891   4.037   6.189   0.261
14650TIP3   OH243892   3.667   1.431   5.213
14650TIP3    H143893   3.655   1.522   5.187
14650TIP3    H243894   3.579   1.393   5.206
14651TIP3   OH243895   5.848   5.378   3.961
14651TIP3    H143896   5.777   5.357   3.900
14651TIP3    H243897   5.821   5.336   4.043
14652TIP3   OH243898   6.441   4.853   3.292
14652TIP3    H143899   6.520   4.836   3.343
14652TIP3    H243900   6.470   4.908   3.219
14653TIP3   OH243901   7.416   3.687   0.988
14653TIP3    H143902   7.390   3.602   0.952
14653TIP3    H243903   7.512   3.685   0.988
14654TIP3   OH243904   7.358   2.506   6.482
14654TIP3    H143905   7.380   2.417   6.454
14654TIP3    H243906   7.440   2.543   6.514
14655TIP3   OH243907   2.836   7.551   0.766
14655TIP3    H143908   2.763   7.525   0.711
14655TIP3    H243909   2.805   7.628   0.814
14656TIP3   OH243910   4.562   1.500   2.512
14656TIP3    H143911   4.591   1.573   2.566
14656TIP3    H243912   4.619   1.427   2.538
14657TIP3   OH243913   0.707   0.828   4.529
14657TIP3    H143914   0.617   0.812   4.558
14657TIP3    H243915   0.744   0.740   4.516
14658TIP3   OH243916   4.902   6.117   6.367
14658TIP3    H143917   4.888   6.075   6.282
14658TIP3    H243918   4.889   6.046   6.430
14659TIP3   OH243919   2.563   4.977   3.827
14659TIP3    H143920   2.569   4.920   3.751
14659TIP3    H243921   2.562   4.918   3.902
14660TIP3   OH243922   5.450   1.744   0.109
14660TIP3    H143923   5.501   1.750   0.029
14660TIP3    H243924   5.509   1.705   0.173
14661TIP3   OH243925   1.627   3.478   2.722
14661TIP3    H143926   1.699   3.484   2.660
14661TIP3    H243927   1.550   3.505   2.672
14662TIP3   OH243928   3.240   3.376   2.654
14662TIP3    H143929   3.205   3.304   2.706
14662TIP3    H243930   3.307   3.335   2.599
14663TIP3   OH243931   5.514   1.897   6.303
14663TIP3    H143932   5.609   1.897   6.291
14663TIP3    H243933   5.492   1.986   6.331
14664TIP3   OH243934   4.106   5.773   6.051
14664TIP3    H143935   4.166   5.701   6.071
14664TIP3    H243936   4.086   5.763   5.958
14665TIP3   OH243937   6.572   7.704   2.210
14665TIP3    H143938   6.611   7.621   2.237
14665TIP3    H243939   6.479   7.686   2.203
14666TIP3   OH243940   0.729   4.816   3.948
14666TIP3    H143941   0.806   4.772   3.912
14666TIP3    H243942   0.676   4.839   3.871
14667TIP3   OH243943   7.362   1.887   5.277
14667TIP3    H143944   7.417   1.921   5.207
14667TIP3    H243945   7.390   1.796   5.287
14668TIP3   OH243946   7.997   6.455   3.046
14668TIP3    H143947   8.013   6.398   3.122
14668TIP3    H243948   7.959   6.397   2.980
14669TIP3   OH243949   3.267   7.456   5.960
14669TIP3    H143950   3.286   7.530   5.903
14669TIP3    H243951   3.317   7.473   6.040
14670TIP3   OH243952   4.735   1.812   3.305
14670TIP3    H143953   4.722   1.907   3.312
14670TIP3    H243954   4.829   1.800   3.319
14671TIP3   OH243955   4.977   6.270   5.722
14671TIP3    H143956   4.955   6.206   5.789
14671TIP3    H243957   4.898   6.321   5.710
14672TIP3   OH243958   3.293   0.177   6.182
14672TIP3    H143959   3.360   0.220   6.128
14672TIP3    H243960   3.210   0.208   6.146
14673TIP3   OH243961   5.377   3.205   0.822
14673TIP3    H143962   5.401   3.197   0.730
14673TIP3    H243963   5.460   3.215   0.868
14674TIP3   OH243964   3.611   3.828   3.240
14674TIP3    H143965   3.625   3.921   3.220
14674TIP3    H243966   3.691   3.800   3.283
14675TIP3   OH243967   4.201   4.596   2.375
14675TIP3    H143968   4.283   4.555   2.346
14675TIP3    H243969   4.208   4.599   2.470
14676TIP3   OH243970   4.004   6.987   3.674
14676TIP3    H143971   3.986   6.895   3.654
14676TIP3    H243972   4.097   6.997   3.657
14677TIP3   OH243973   7.642   5.961   1.225
14677TIP3    H143974   7.601   5.951   1.310
14677TIP3    H243975   7.606   5.889   1.172
14678TIP3   OH243976   3.119   5.856   0.986
14678TIP3    H143977   3.205   5.835   0.948
14678TIP3    H243978   3.119   5.951   0.994
14679TIP3   OH243979   4.912   0.430   0.384
14679TIP3    H143980   4.850   0.357   0.376
14679TIP3    H243981   4.917   0.447   0.478
14680TIP3   OH243982   5.212   0.817   3.346
14680TIP3    H143983   5.135   0.826   3.402
14680TIP3    H243984   5.258   0.901   3.354
14681TIP3   OH243985   8.250   4.274   1.094
14681TIP3    H143986   8.160   4.271   1.125
14681TIP3    H243987   8.262   4.364   1.064
14682TIP3   OH243988   8.008   1.255   4.556
14682TIP3    H143989   7.927   1.243   4.506
14682TIP3    H243990   8.006   1.347   4.584
14683TIP3   OH243991   1.133   0.120   6.603
14683TIP3    H143992   1.096   0.071   6.530
14683TIP3    H243993   1.227   0.122   6.587
14684TIP3   OH243994   4.098   2.693   4.768
14684TIP3    H143995   4.039   2.736   4.706
14684TIP3    H243996   4.144   2.628   4.715
14685TIP3   OH243997   3.534   3.028   3.668
14685TIP3    H143998   3.518   2.937   3.644
14685TIP3    H243999   3.605   3.024   3.731
14686TIP3   OH244000   7.979   3.946   2.975
14686TIP3    H144001   8.039   3.876   2.952
14686TIP3    H244002   7.982   4.006   2.900
14687TIP3   OH244003   7.666   5.088   3.460
14687TIP3    H144004   7.639   5.179   3.459
14687TIP3    H244005   7.675   5.064   3.368
14688TIP3   OH244006   0.367   3.177   4.579
14688TIP3    H144007   0.401   3.254   4.535
14688TIP3    H244008   0.436   3.111   4.569
14689TIP3   OH244009   0.076   1.004   1.553
14689TIP3    H144010   0.096   1.097   1.564
14689TIP3    H244011   0.143   0.959   1.604
14690TIP3   OH244012   0.520   5.238   2.269
14690TIP3    H144013   0.495   5.322   2.229
14690TIP3    H244014   0.456   5.175   2.236
14691TIP3   OH244015   2.032   2.523   4.824
14691TIP3    H144016   2.088   2.531   4.747
14691TIP3    H244017   2.082   2.470   4.886
14692TIP3   OH244018   3.756   7.684   1.537
14692TIP3    H144019   3.666   7.718   1.528
14692TIP3    H244020   3.786   7.720   1.621
14693TIP3   OH244021   3.603   6.850   5.930
14693TIP3    H144022   3.587   6.871   6.022
14693TIP3    H244023   3.698   6.857   5.920
14694TIP3   OH244024   7.731   2.582   0.378
14694TIP3    H144025   7.804   2.529   0.411
14694TIP3    H244026   7.746   2.669   0.415
14695TIP3   OH244027   7.995   3.400   6.482
14695TIP3    H144028   8.077   3.358   6.507
14695TIP3    H244029   7.972   3.359   6.398
14696TIP3   OH244030   3.021   6.915   3.428
14696TIP3    H144031   3.044   7.006   3.448
14696TIP3    H244032   2.929   6.908   3.451
14697TIP3   OH244033   1.493   6.886   5.433
14697TIP3    H144034   1.432   6.910   5.502
14697TIP3    H244035   1.452   6.917   5.352
14698TIP3   OH244036   4.457   5.308  -0.028
14698TIP3    H144037   4.541   5.267  -0.009
14698TIP3    H244038   4.414   5.317   0.057
14699TIP3   OH244039   0.573   4.530   0.342
14699TIP3    H144040   0.549   4.457   0.399
14699TIP3    H244041   0.569   4.494   0.254
14700TIP3   OH244042   7.295   6.699   0.819
14700TIP3    H144043   7.217   6.689   0.764
14700TIP3    H244044   7.282   6.639   0.891
14701TIP3   OH244045   6.382   3.024   4.419
14701TIP3    H144046   6.465   3.072   4.426
14701TIP3    H244047   6.343   3.056   4.338
14702TIP3   OH244048   7.965   5.650   5.936
14702TIP3    H144049   7.985   5.620   6.025
14702TIP3    H244050   7.931   5.573   5.891
14703TIP3   OH244051   1.888   1.638   3.051
14703TIP3    H144052   1.914   1.677   2.967
14703TIP3    H244053   1.971   1.612   3.091
14704TIP3   OH244054   2.161   1.455   2.291
14704TIP3    H144055   2.186   1.547   2.283
14704TIP3    H244056   2.141   1.428   2.201
14705TIP3   OH244057   5.531   5.415   2.444
14705TIP3    H144058   5.455   5.374   2.485
14705TIP3    H244059   5.548   5.362   2.367
14706TIP3   OH244060   3.877   2.341   0.092
14706TIP3    H144061   3.794   2.308   0.057
14706TIP3    H244062   3.873   2.320   0.185
14707TIP3   OH244063   0.103   3.232   2.221
14707TIP3    H144064   0.174   3.281   2.261
14707TIP3    H244065   0.090   3.157   2.280
14708TIP3   OH244066   6.443   2.036   0.369
14708TIP3    H144067   6.387   2.103   0.330
14708TIP3    H244068   6.477   1.987   0.294
14709TIP3   OH244069   3.734   0.844   6.421
14709TIP3    H144070   3.741   0.749   6.409
14709TIP3    H244071   3.669   0.855   6.490
14710TIP3   OH244072   6.633   4.900   2.890
14710TIP3    H144073   6.627   4.812   2.926
14710TIP3    H244074   6.653   4.955   2.966
14711TIP3   OH244075   4.522   0.918   5.268
14711TIP3    H144076   4.490   0.875   5.347
14711TIP3    H244077   4.555   1.003   5.298
14712TIP3   OH244078   0.941   2.445   1.742
14712TIP3    H144079   0.872   2.478   1.684
14712TIP3    H244080   1.005   2.516   1.745
14713TIP3   OH244081   2.433   0.419   0.655
14713TIP3    H144082   2.373   0.365   0.604
14713TIP3    H244083   2.495   0.452   0.590
14714TIP3   OH244084   3.163   0.871   4.655
14714TIP3    H144085   3.189   0.789   4.696
14714TIP3    H244086   3.079   0.851   4.613
14715TIP3   OH244087   1.575   0.954   5.627
14715TIP3    H144088   1.581   1.032   5.681
14715TIP3    H244089   1.570   0.881   5.689
14716TIP3   OH244090   3.772   7.493   2.568
14716TIP3    H144091   3.682   7.461   2.561
14716TIP3    H244092   3.812   7.437   2.634
14717TIP3   OH244093   2.712   6.896   5.077
14717TIP3    H144094   2.697   6.925   5.167
14717TIP3    H244095   2.684   6.970   5.023
14718TIP3   OH244096   2.784   6.225   1.101
14718TIP3    H144097   2.845   6.296   1.119
14718TIP3    H244098   2.794   6.207   1.008
14719TIP3   OH244099   6.165   3.738   2.194
14719TIP3    H144100   6.227   3.766   2.262
14719TIP3    H244101   6.091   3.798   2.203
14720TIP3   OH244102   1.714   5.462   1.264
14720TIP3    H144103   1.752   5.380   1.232
14720TIP3    H244104   1.623   5.440   1.284
14721TIP3   OH244105   7.434   5.532   1.034
14721TIP3    H144106   7.453   5.577   0.951
14721TIP3    H244107   7.368   5.467   1.011
14722TIP3   OH244108   6.721   1.721   0.567
14722TIP3    H144109   6.783   1.793   0.567
14722TIP3    H244110   6.691   1.714   0.477
14723TIP3   OH244111   4.894   3.558   2.093
14723TIP3    H144112   4.801   3.579   2.100
14723TIP3    H244113   4.938   3.643   2.084
14724TIP3   OH244114   2.783   3.330   3.873
14724TIP3    H144115   2.872   3.319   3.908
14724TIP3    H244116   2.726   3.296   3.941
14725TIP3   OH244117   3.742   0.243   6.130
14725TIP3    H144118   3.830   0.206   6.132
14725TIP3    H244119   3.756   0.338   6.134
14726TIP3   OH244120   2.864   5.501   6.112
14726TIP3    H144121   2.782   5.548   6.130
14726TIP3    H244122   2.840   5.409   6.114
14727TIP3   OH244123   6.924   6.814   5.846
14727TIP3    H144124   6.852   6.791   5.788
14727TIP3    H244125   7.001   6.772   5.808
14728TIP3   OH244126   3.230   1.184   5.129
14728TIP3    H144127   3.309   1.231   5.153
14728TIP3    H244128   3.255   1.092   5.128
14729TIP3   OH244129   3.788   0.778   2.637
14729TIP3    H144130   3.869   0.829   2.629
14729TIP3    H244131   3.728   0.836   2.683
14730TIP3   OH244132   4.537   2.933   0.415
14730TIP3    H144133   4.477   2.956   0.486
14730TIP3    H244134   4.526   2.839   0.403
14731TIP3   OH244135   7.479   5.313   4.176
14731TIP3    H144136   7.520   5.334   4.092
14731TIP3    H244137   7.438   5.395   4.204
14732TIP3   OH244138   4.700   7.437   3.355
14732TIP3    H144139   4.765   7.459   3.289
14732TIP3    H244140   4.751   7.403   3.428
14733TIP3   OH244141   4.811   1.047   0.259
14733TIP3    H144142   4.754   1.107   0.211
14733TIP3    H244143   4.816   1.084   0.347
14734TIP3   OH244144   1.065   2.909   2.104
14734TIP3    H144145   1.130   2.976   2.084
14734TIP3    H244146   0.981   2.951   2.087
14735TIP3   OH244147   3.772   1.770   6.581
14735TIP3    H144148   3.698   1.829   6.570
14735TIP3    H244149   3.733   1.683   6.590
14736TIP3   OH244150   2.424   4.545   6.239
14736TIP3    H144151   2.456   4.459   6.213
14736TIP3    H244152   2.428   4.544   6.334
14737TIP3   OH244153   1.338   6.939   1.623
14737TIP3    H144154   1.284   6.910   1.549
14737TIP3    H244155   1.275   6.959   1.692
14738TIP3   OH244156   7.870   0.262   0.296
14738TIP3    H144157   7.864   0.176   0.339
14738TIP3    H244158   7.909   0.319   0.362
14739TIP3   OH244159   4.223   4.125   3.738
14739TIP3    H144160   4.212   4.075   3.819
14739TIP3    H244161   4.134   4.150   3.712
14740TIP3   OH244162   5.078   3.321   5.276
14740TIP3    H144163   5.060   3.274   5.195
14740TIP3    H244164   5.148   3.270   5.318
14741TIP3   OH244165   8.025   5.593   6.597
14741TIP3    H144166   8.099   5.648   6.570
14741TIP3    H244167   7.950   5.628   6.548
14742TIP3   OH244168   4.070   2.424   2.101
14742TIP3    H144169   4.121   2.495   2.141
14742TIP3    H244170   4.118   2.345   2.125
14743TIP3   OH244171   3.032   3.105   1.006
14743TIP3    H144172   3.023   3.125   1.099
14743TIP3    H244173   2.974   3.167   0.962
14744TIP3   OH244174   3.086   0.226   6.615
14744TIP3    H144175   3.026   0.216   6.541
14744TIP3    H244176   3.089   0.321   6.630
14745TIP3   OH244177   7.255   7.496   2.761
14745TIP3    H144178   7.230   7.482   2.853
14745TIP3    H244179   7.171   7.507   2.715
14746TIP3   OH244180   1.793   6.219   0.355
14746TIP3    H144181   1.819   6.172   0.276
14746TIP3    H244182   1.774   6.308   0.325
14747TIP3   OH244183   4.253   6.366   0.790
14747TIP3    H144184   4.271   6.409   0.706
14747TIP3    H244185   4.161   6.340   0.785
14748TIP3   OH244186   1.771   6.693   2.991
14748TIP3    H144187   1.834   6.622   2.979
14748TIP3    H244188   1.806   6.764   2.936
14749TIP3   OH244189   2.357   5.533   6.123
14749TIP3    H144190   2.292   5.591   6.162
14749TIP3    H244191   2.360   5.457   6.180
14750TIP3   OH244192   1.499   1.980   1.173
14750TIP3    H144193   1.445   1.902   1.184
14750TIP3    H244194   1.438   2.053   1.183
14751TIP3   OH244195   6.387   2.945   0.829
14751TIP3    H144196   6.347   3.032   0.834
14751TIP3    H244197   6.338   2.892   0.893
14752TIP3   OH244198   7.336   6.522   1.484
14752TIP3    H144199   7.426   6.494   1.470
14752TIP3    H244200   7.297   6.453   1.537
14753TIP3   OH244201   1.635   4.059   6.509
14753TIP3    H144202   1.564   3.995   6.501
14753TIP3    H244203   1.677   4.037   6.592
14754TIP3   OH244204   4.165   2.431   1.463
14754TIP3    H144205   4.148   2.521   1.433
14754TIP3    H244206   4.255   2.414   1.436
14755TIP3   OH244207   5.020   7.323   2.655
14755TIP3    H144208   5.036   7.400   2.601
14755TIP3    H244209   4.970   7.264   2.598
14756TIP3   OH244210   6.185   0.708   0.372
14756TIP3    H144211   6.250   0.693   0.304
14756TIP3    H244212   6.141   0.789   0.346
14757TIP3   OH244213   1.572   0.863   0.112
14757TIP3    H144214   1.622   0.943   0.098
14757TIP3    H244215   1.618   0.816   0.182
14758TIP3   OH244216   3.215   1.103   6.250
14758TIP3    H144217   3.129   1.107   6.292
14758TIP3    H244218   3.269   1.055   6.313
14759TIP3   OH244219   4.302   6.278   4.459
14759TIP3    H144220   4.226   6.334   4.444
14759TIP3    H244221   4.306   6.270   4.554
14760TIP3   OH244222   6.444   1.679   0.317
14760TIP3    H144223   6.434   1.642   0.229
14760TIP3    H244224   6.537   1.701   0.324
14761TIP3   OH244225   2.629   3.150   4.756
14761TIP3    H144226   2.644   3.105   4.673
14761TIP3    H244227   2.681   3.102   4.820
14762TIP3   OH244228   3.117   5.512   0.488
14762TIP3    H144229   3.052   5.581   0.504
14762TIP3    H244230   3.079   5.434   0.527
14763TIP3   OH244231   5.072   3.625   5.368
14763TIP3    H144232   5.123   3.544   5.358
14763TIP3    H244233   5.097   3.658   5.454
14764TIP3   OH244234   0.861   4.677   2.781
14764TIP3    H144235   0.795   4.668   2.850
14764TIP3    H244236   0.863   4.591   2.738
14765TIP3   OH244237   6.467   2.001   3.529
14765TIP3    H144238   6.381   1.980   3.491
14765TIP3    H244239   6.497   2.077   3.479
14766TIP3   OH244240   2.171   5.796   1.743
14766TIP3    H144241   2.253   5.845   1.739
14766TIP3    H244242   2.180   5.740   1.820
14767TIP3   OH244243   0.737   0.301   6.360
14767TIP3    H144244   0.768   0.340   6.442
14767TIP3    H244245   0.671   0.237   6.388
14768TIP3   OH244246   7.755   2.867   3.982
14768TIP3    H144247   7.764   2.891   3.890
14768TIP3    H244248   7.697   2.790   3.982
14769TIP3   OH244249   6.915   1.977   3.961
14769TIP3    H144250   6.832   2.002   3.922
14769TIP3    H244251   6.981   2.007   3.899
14770TIP3   OH244252   3.175   5.804   2.838
14770TIP3    H144253   3.177   5.709   2.826
14770TIP3    H244254   3.125   5.837   2.764
14771TIP3   OH244255   5.406   6.053   3.256
14771TIP3    H144256   5.327   6.094   3.221
14771TIP3    H244257   5.402   5.963   3.225
14772TIP3   OH244258   5.355   3.707   3.595
14772TIP3    H144259   5.313   3.667   3.519
14772TIP3    H244260   5.287   3.708   3.662
14773TIP3   OH244261   6.556   0.963   6.200
14773TIP3    H144262   6.551   0.890   6.262
14773TIP3    H244263   6.591   0.924   6.120
14774TIP3   OH244264   6.228   0.055   0.474
14774TIP3    H144265   6.260   0.021   0.557
14774TIP3    H244266   6.242  -0.016   0.411
14775TIP3   OH244267   4.025   5.936   2.972
14775TIP3    H144268   4.043   6.011   2.915
14775TIP3    H244269   4.088   5.945   3.044
14776TIP3   OH244270   6.212   7.275   1.086
14776TIP3    H144271   6.303   7.288   1.057
14776TIP3    H244272   6.219   7.218   1.162
14777TIP3   OH244273   1.722   5.213   5.944
14777TIP3    H144274   1.753   5.290   5.991
14777TIP3    H244275   1.744   5.139   6.001
14778TIP3   OH244276   1.212   7.720   5.459
14778TIP3    H144277   1.184   7.716   5.551
14778TIP3    H244278   1.173   7.801   5.426
14779TIP3   OH244279   2.799   5.262   5.093
14779TIP3    H144280   2.869   5.199   5.109
14779TIP3    H244281   2.719   5.215   5.118
14780TIP3   OH244282   2.126   3.856   0.550
14780TIP3    H144283   2.094   3.895   0.631
14780TIP3    H244284   2.073   3.777   0.539
14781TIP3   OH244285   4.084   4.653   4.295
14781TIP3    H144286   4.015   4.589   4.310
14781TIP3    H244287   4.068   4.686   4.206
14782TIP3   OH244288   6.321   6.720   3.753
14782TIP3    H144289   6.295   6.697   3.842
14782TIP3    H244290   6.240   6.711   3.702
14783TIP3   OH244291   0.448   3.634   4.562
14783TIP3    H144292   0.385   3.587   4.618
14783TIP3    H244293   0.438   3.726   4.586
14784TIP3   OH244294   3.323   0.453   0.818
14784TIP3    H144295   3.349   0.545   0.812
14784TIP3    H244296   3.340   0.418   0.731
14785TIP3   OH244297   3.130   4.176   5.127
14785TIP3    H144298   3.210   4.224   5.151
14785TIP3    H244299   3.111   4.205   5.037
14786TIP3   OH244300   2.301   1.901   0.385
14786TIP3    H144301   2.232   1.837   0.402
14786TIP3    H244302   2.267   1.983   0.420
14787TIP3   OH244303   3.791   5.666   3.436
14787TIP3    H144304   3.764   5.630   3.352
14787TIP3    H244305   3.744   5.614   3.502
14788TIP3   OH244306   1.073   6.763   0.175
14788TIP3    H144307   1.108   6.680   0.206
14788TIP3    H244308   1.149   6.813   0.146
14789TIP3   OH244309   5.495   3.490   1.550
14789TIP3    H144310   5.421   3.481   1.491
14789TIP3    H244311   5.572   3.474   1.495
14790TIP3   OH244312   1.638   0.201   5.250
14790TIP3    H144313   1.562   0.238   5.205
14790TIP3    H244314   1.602   0.162   5.330
14791TIP3   OH244315   7.732   6.302   3.583
14791TIP3    H144316   7.748   6.210   3.559
14791TIP3    H244317   7.637   6.312   3.576
14792TIP3   OH244318   4.429   4.795   4.203
14792TIP3    H144319   4.404   4.878   4.163
14792TIP3    H244320   4.457   4.740   4.129
14793TIP3   OH244321   6.648   3.500   2.643
14793TIP3    H144322   6.560   3.539   2.636
14793TIP3    H244323   6.685   3.539   2.722
14794TIP3   OH244324   6.538   4.937   6.387
14794TIP3    H144325   6.616   4.954   6.440
14794TIP3    H244326   6.565   4.958   6.298
14795TIP3   OH244327   7.879   5.436   4.205
14795TIP3    H144328   7.843   5.445   4.116
14795TIP3    H244329   7.968   5.405   4.192
14796TIP3   OH244330   7.428   6.623   1.104
14796TIP3    H144331   7.501   6.567   1.131
14796TIP3    H244332   7.451   6.710   1.137
14797TIP3   OH244333   3.172   1.376   0.472
14797TIP3    H144334   3.246   1.327   0.509
14797TIP3    H244335   3.098   1.357   0.530
14798TIP3   OH244336   6.881   0.785   1.486
14798TIP3    H144337   6.875   0.878   1.508
14798TIP3    H244338   6.861   0.780   1.393
14799TIP3   OH244339   8.242   1.476   1.826
14799TIP3    H144340   8.220   1.413   1.894
14799TIP3    H244341   8.254   1.559   1.872
14800TIP3   OH244342   3.853   5.688   5.390
14800TIP3    H144343   3.782   5.682   5.326
14800TIP3    H244344   3.824   5.757   5.450
14801TIP3   OH244345   1.068   0.418   0.382
14801TIP3    H144346   1.092   0.448   0.295
14801TIP3    H244347   1.133   0.351   0.403
14802TIP3   OH244348   1.247   6.415   1.728
14802TIP3    H144349   1.268   6.450   1.642
14802TIP3    H244350   1.223   6.324   1.713
14803TIP3   OH244351   5.256   2.260   2.619
14803TIP3    H144352   5.198   2.304   2.681
14803TIP3    H244353   5.320   2.326   2.594
14804TIP3   OH244354   6.399   1.385   0.148
14804TIP3    H144355   6.317   1.340   0.166
14804TIP3    H244356   6.374   1.476   0.132
14805TIP3   OH244357   8.157   0.922   1.386
14805TIP3    H144358   8.196   0.969   1.459
14805TIP3    H244359   8.228   0.867   1.352
14806TIP3   OH244360   6.195   3.990   5.233
14806TIP3    H144361   6.289   4.002   5.246
14806TIP3    H244362   6.163   3.959   5.318
14807TIP3   OH244363   0.471   0.792   4.649
14807TIP3    H144364   0.497   0.764   4.736
14807TIP3    H244365   0.394   0.739   4.629
14808TIP3   OH244366   6.202   3.145   0.857
14808TIP3    H144367   6.152   3.079   0.906
14808TIP3    H244368   6.150   3.225   0.863
14809TIP3   OH244369   6.027   4.676   5.257
14809TIP3    H144370   6.093   4.646   5.320
14809TIP3    H244371   6.031   4.771   5.261
14810TIP3   OH244372   0.662   2.395   2.081
14810TIP3    H144373   0.742   2.364   2.039
14810TIP3    H244374   0.621   2.316   2.116
14811TIP3   OH244375   4.719   2.488   5.405
14811TIP3    H144376   4.664   2.421   5.446
14811TIP3    H244377   4.803   2.481   5.450
14812TIP3   OH244378   0.016   3.299   1.659
14812TIP3    H144379   0.011   3.298   1.563
14812TIP3    H244380   0.094   3.247   1.679
14813TIP3   OH244381   7.271   2.996   0.140
14813TIP3    H144382   7.360   2.967   0.121
14813TIP3    H244383   7.252   2.959   0.227
14814TIP3   OH244384   3.305   6.069   3.560
14814TIP3    H144385   3.215   6.099   3.549
14814TIP3    H244386   3.350   6.100   3.481
14815TIP3   OH244387   8.038   3.251   6.235
14815TIP3    H144388   8.098   3.224   6.166
14815TIP3    H244389   8.062   3.198   6.311
   8.28525   7.81141   6.76488   0.00000   0.00000  -2.76175   0.00000  -2.76175  -3.90571
