Title t= 290.00000 step= 145000
19942
    1ASP      N    1   1.031   2.484   3.512
    1ASP    HT1    2   1.017   2.463   3.613
    1ASP    HT2    3   0.950   2.435   3.468
    1ASP    HT3    4   1.024   2.581   3.477
    1ASP     CA    5   1.157   2.424   3.461
    1ASP     HA    6   1.233   2.497   3.484
    1ASP     CB    7   1.195   2.306   3.554
    1ASP    HB1    8   1.112   2.234   3.539
    1ASP    HB2    9   1.202   2.330   3.662
    1ASP     CG   10   1.318   2.235   3.512
    1ASP    OD1   11   1.339   2.118   3.560
    1ASP    OD2   12   1.408   2.291   3.443
    1ASP      C   13   1.161   2.399   3.306
    1ASP      O   14   1.203   2.487   3.228
    2ALA      N   15   1.125   2.279   3.263
    2ALA     HN   16   1.091   2.216   3.333
    2ALA     CA   17   1.160   2.229   3.131
    2ALA     HA   18   1.147   2.316   3.068
    2ALA     CB   19   1.300   2.172   3.119
    2ALA    HB1   20   1.377   2.252   3.124
    2ALA    HB2   21   1.311   2.110   3.027
    2ALA    HB3   22   1.323   2.108   3.208
    2ALA      C   23   1.065   2.125   3.081
    2ALA      O   24   1.017   2.034   3.153
    3ASP      N   25   1.033   2.142   2.947
    3ASP     HN   26   1.066   2.219   2.891
    3ASP     CA   27   0.962   2.045   2.872
    3ASP     HA   28   0.874   2.022   2.930
    3ASP     CB   29   0.894   2.100   2.739
    3ASP    HB1   30   0.833   2.029   2.680
    3ASP    HB2   31   0.980   2.124   2.673
    3ASP     CG   32   0.808   2.215   2.771
    3ASP    OD1   33   0.851   2.326   2.742
    3ASP    OD2   34   0.696   2.195   2.830
    3ASP      C   35   1.038   1.918   2.852
    3ASP      O   36   1.147   1.922   2.804
    4GLY      N   37   0.986   1.801   2.897
    4GLY     HN   38   0.892   1.799   2.930
    4GLY     CA   39   1.053   1.670   2.884
    4GLY    HA1   40   0.987   1.595   2.925
    4GLY    HA2   41   1.147   1.688   2.935
    4GLY      C   42   1.085   1.621   2.750
    4GLY      O   43   1.037   1.680   2.652
    5PRO      N   44   1.165   1.520   2.729
    5PRO     CD   45   1.188   1.416   2.826
    5PRO    HD1   46   1.094   1.391   2.880
    5PRO    HD2   47   1.268   1.444   2.897
    5PRO     CA   48   1.207   1.473   2.595
    5PRO     HA   49   1.259   1.557   2.553
    5PRO     CB   50   1.300   1.352   2.623
    5PRO    HB1   51   1.406   1.382   2.638
    5PRO    HB2   52   1.292   1.282   2.537
    5PRO     CG   53   1.233   1.294   2.753
    5PRO    HG1   54   1.149   1.225   2.730
    5PRO    HG2   55   1.312   1.240   2.809
    5PRO      C   56   1.092   1.443   2.496
    5PRO      O   57   0.977   1.424   2.532
    6GLY      N   58   1.125   1.444   2.365
    6GLY     HN   59   1.216   1.476   2.339
    6GLY     CA   60   1.037   1.416   2.254
    6GLY    HA1   61   1.026   1.512   2.205
    6GLY    HA2   62   0.943   1.375   2.290
    6GLY      C   63   1.087   1.326   2.149
    6GLY      O   64   1.022   1.277   2.059
    7ASP      N   65   1.221   1.310   2.152
    7ASP     HN   66   1.286   1.360   2.208
    7ASP     CA   67   1.289   1.223   2.054
    7ASP     HA   68   1.258   1.253   1.955
    7ASP     CB   69   1.436   1.255   2.073
    7ASP    HB1   70   1.467   1.222   2.175
    7ASP    HB2   71   1.449   1.365   2.077
    7ASP     CG   72   1.523   1.189   1.968
    7ASP    OD1   73   1.467   1.147   1.866
    7ASP    OD2   74   1.647   1.198   1.977
    7ASP      C   75   1.257   1.076   2.096
    7ASP      O   76   1.258   1.051   2.215
    8PRO      N   77   1.224   0.986   2.003
    8PRO     CD   78   1.166   1.013   1.873
    8PRO    HD1   79   1.251   1.025   1.803
    8PRO    HD2   80   1.103   1.105   1.871
    8PRO     CA   81   1.236   0.840   2.035
    8PRO     HA   82   1.182   0.822   2.127
    8PRO     CB   83   1.170   0.774   1.922
    8PRO    HB1   84   1.116   0.681   1.946
    8PRO    HB2   85   1.240   0.749   1.839
    8PRO     CG   86   1.083   0.887   1.853
    8PRO    HG1   87   1.070   0.859   1.746
    8PRO    HG2   88   0.990   0.889   1.914
    8PRO      C   89   1.376   0.788   2.057
    8PRO      O   90   1.396   0.694   2.137
    9ASP      N   91   1.469   0.830   1.978
    9ASP     HN   92   1.446   0.889   1.901
    9ASP     CA   93   1.606   0.796   1.984
    9ASP     HA   94   1.617   0.689   1.976
    9ASP     CB   95   1.696   0.866   1.877
    9ASP    HB1   96   1.801   0.837   1.900
    9ASP    HB2   97   1.674   0.975   1.878
    9ASP     CG   98   1.674   0.819   1.736
    9ASP    OD1   99   1.729   0.876   1.639
    9ASP    OD2  100   1.601   0.720   1.711
    9ASP      C  101   1.672   0.831   2.118
    9ASP      O  102   1.743   0.746   2.173
   10ALA      N  103   1.654   0.957   2.170
   10ALA     HN  104   1.599   1.020   2.116
   10ALA     CA  105   1.716   1.002   2.293
   10ALA     HA  106   1.823   0.991   2.280
   10ALA     CB  107   1.688   1.152   2.323
   10ALA    HB1  108   1.717   1.219   2.239
   10ALA    HB2  109   1.744   1.195   2.409
   10ALA    HB3  110   1.580   1.171   2.342
   10ALA      C  111   1.678   0.922   2.413
   10ALA      O  112   1.571   0.865   2.426
   11GLY      N  113   1.774   0.901   2.508
   11GLY     HN  114   1.863   0.947   2.505
   11GLY     CA  115   1.751   0.847   2.637
   11GLY    HA1  116   1.777   0.742   2.629
   11GLY    HA2  117   1.651   0.867   2.673
   11GLY      C  118   1.845   0.895   2.753
   11GLY    OT1  119   1.801   0.894   2.873
   11GLY    OT2  120   1.961   0.936   2.729
   12LIT    LIT  121   4.458   4.865   2.323
   13LIT    LIT  122   1.149   2.561   0.775
   14LIT    LIT  123   3.594   0.027   4.883
   15LIT    LIT  124   5.312   0.353   4.580
   16LIT    LIT  125   0.638   0.787   4.706
   17LIT    LIT  126   4.347   0.110   4.043
   18LIT    LIT  127   2.176   3.104   3.315
   19LIT    LIT  128   0.473  -0.010   1.602
   20LIT    LIT  129   1.872   2.165   4.441
   21LIT    LIT  130   4.646   2.880   1.166
   22LIT    LIT  131   5.836   3.629   1.914
   23LIT    LIT  132   5.715   0.551   2.096
   24LIT    LIT  133   0.108   5.136   4.601
   25LIT    LIT  134   1.458   4.340   2.428
   26LIT    LIT  135   3.522   2.098   4.494
   27LIT    LIT  136   5.874   4.867   3.819
   28LIT    LIT  137   1.524   2.121   3.446
   29LIT    LIT  138   2.565   4.845   2.250
   30LIT    LIT  139   3.020   0.071   4.502
   31LIT    LIT  140   4.640   3.019   1.980
   32LIT    LIT  141   5.250   5.540   2.163
   33LIT    LIT  142   3.544   0.854   0.274
   34CLA    CLA  143   1.999   4.138   1.281
   35CLA    CLA  144   0.740   0.630   2.557
   36CLA    CLA  145   5.040   3.278   2.734
   37CLA    CLA  146   5.141   2.107   3.443
   38CLA    CLA  147   1.791   2.618   3.425
   39CLA    CLA  148   1.573   5.000   2.234
   40CLA    CLA  149   0.691   0.355   4.992
   41CLA    CLA  150   0.849   3.101   0.765
   42CLA    CLA  151   5.791   5.571   1.451
   43CLA    CLA  152   0.907   1.715   4.497
   44CLA    CLA  153   1.633   5.959   1.114
   45CLA    CLA  154   1.754   2.583   4.956
   46CLA    CLA  155   4.216   2.227   3.526
   47CLA    CLA  156   3.407   2.287   4.414
   48CLA    CLA  157   2.841   0.957   4.701
   49CLA    CLA  158   5.089   5.650   2.786
   50CLA    CLA  159   2.138   3.996   0.885
   51CLA    CLA  160   3.147   5.155   1.102
   52TIP3   OH2  161   2.980   0.810   3.499
   52TIP3    H1  162   3.062   0.807   3.549
   52TIP3    H2  163   2.931   0.733   3.529
   53TIP3   OH2  164   1.386   2.820   1.968
   53TIP3    H1  165   1.321   2.825   2.039
   53TIP3    H2  166   1.445   2.750   1.994
   54TIP3   OH2  167   2.461   0.949   3.886
   54TIP3    H1  168   2.527   0.896   3.840
   54TIP3    H2  169   2.476   0.931   3.978
   55TIP3   OH2  170   4.943   5.493   1.934
   55TIP3    H1  171   4.900   5.414   1.904
   55TIP3    H2  172   5.036   5.475   1.924
   56TIP3   OH2  173   5.117   4.185   4.689
   56TIP3    H1  174   5.022   4.179   4.683
   56TIP3    H2  175   5.146   4.210   4.601
   57TIP3   OH2  176   5.472   3.330   3.908
   57TIP3    H1  177   5.511   3.364   3.989
   57TIP3    H2  178   5.530   3.259   3.882
   58TIP3   OH2  179   4.131  -0.023   0.576
   58TIP3    H1  180   4.159   0.051   0.630
   58TIP3    H2  181   4.037  -0.029   0.590
   59TIP3   OH2  182   1.779   4.082   3.331
   59TIP3    H1  183   1.734   4.159   3.365
   59TIP3    H2  184   1.729   4.007   3.365
   60TIP3   OH2  185   1.082   0.293   4.782
   60TIP3    H1  186   1.084   0.224   4.715
   60TIP3    H2  187   1.011   0.351   4.753
   61TIP3   OH2  188   5.145   3.790   5.012
   61TIP3    H1  189   5.140   3.767   5.105
   61TIP3    H2  190   5.156   3.885   5.011
   62TIP3   OH2  191   3.726   3.426   1.303
   62TIP3    H1  192   3.687   3.499   1.254
   62TIP3    H2  193   3.808   3.408   1.257
   63TIP3   OH2  194   1.095   1.420   0.704
   63TIP3    H1  195   1.035   1.402   0.777
   63TIP3    H2  196   1.058   1.496   0.660
   64TIP3   OH2  197   2.261   4.299   2.721
   64TIP3    H1  198   2.275   4.322   2.813
   64TIP3    H2  199   2.245   4.205   2.722
   65TIP3   OH2  200   5.524   1.269   1.915
   65TIP3    H1  201   5.483   1.184   1.904
   65TIP3    H2  202   5.454   1.332   1.896
   66TIP3   OH2  203   2.257   5.380   4.398
   66TIP3    H1  204   2.224   5.312   4.457
   66TIP3    H2  205   2.220   5.461   4.433
   67TIP3   OH2  206   1.393   0.320   4.171
   67TIP3    H1  207   1.357   0.405   4.197
   67TIP3    H2  208   1.336   0.290   4.100
   68TIP3   OH2  209   4.231   1.165   2.940
   68TIP3    H1  210   4.182   1.241   2.909
   68TIP3    H2  211   4.289   1.200   3.008
   69TIP3   OH2  212   2.418   5.204   0.570
   69TIP3    H1  213   2.468   5.282   0.549
   69TIP3    H2  214   2.430   5.192   0.664
   70TIP3   OH2  215   5.020   0.438   4.184
   70TIP3    H1  216   5.020   0.351   4.145
   70TIP3    H2  217   5.099   0.480   4.150
   71TIP3   OH2  218   5.298   1.817   2.690
   71TIP3    H1  219   5.337   1.782   2.770
   71TIP3    H2  220   5.314   1.911   2.695
   72TIP3   OH2  221   4.528   4.374   1.161
   72TIP3    H1  222   4.519   4.281   1.183
   72TIP3    H2  223   4.592   4.375   1.090
   73TIP3   OH2  224   0.462   5.044   4.817
   73TIP3    H1  225   0.527   4.982   4.851
   73TIP3    H2  226   0.514   5.108   4.768
   74TIP3   OH2  227   5.731   1.543   2.588
   74TIP3    H1  228   5.693   1.488   2.519
   74TIP3    H2  229   5.819   1.508   2.601
   75TIP3   OH2  230   5.816   0.720   1.572
   75TIP3    H1  231   5.742   0.724   1.632
   75TIP3    H2  232   5.809   0.634   1.530
   76TIP3   OH2  233   2.254   4.686   4.447
   76TIP3    H1  234   2.291   4.617   4.501
   76TIP3    H2  235   2.225   4.753   4.509
   77TIP3   OH2  236   1.072   2.699   2.985
   77TIP3    H1  237   1.162   2.673   3.002
   77TIP3    H2  238   1.035   2.717   3.071
   78TIP3   OH2  239   5.314   2.602   3.064
   78TIP3    H1  240   5.342   2.537   2.999
   78TIP3    H2  241   5.353   2.684   3.033
   79TIP3   OH2  242   0.131   5.801   1.707
   79TIP3    H1  243   0.208   5.744   1.707
   79TIP3    H2  244   0.063   5.750   1.751
   80TIP3   OH2  245   0.241   5.422   0.353
   80TIP3    H1  246   0.246   5.333   0.319
   80TIP3    H2  247   0.284   5.475   0.286
   81TIP3   OH2  248   1.356   2.611   4.232
   81TIP3    H1  249   1.285   2.600   4.295
   81TIP3    H2  250   1.417   2.540   4.251
   82TIP3   OH2  251   0.347   0.963   3.936
   82TIP3    H1  252   0.261   0.937   3.902
   82TIP3    H2  253   0.401   0.976   3.859
   83TIP3   OH2  254   4.284   3.086   2.606
   83TIP3    H1  255   4.373   3.059   2.586
   83TIP3    H2  256   4.289   3.121   2.695
   84TIP3   OH2  257   0.342   1.937   2.136
   84TIP3    H1  258   0.270   2.000   2.145
   84TIP3    H2  259   0.368   1.943   2.044
   85TIP3   OH2  260   2.002   0.263   0.364
   85TIP3    H1  261   2.082   0.262   0.418
   85TIP3    H2  262   2.014   0.191   0.303
   86TIP3   OH2  263   3.911   4.036   0.594
   86TIP3    H1  264   3.948   4.123   0.579
   86TIP3    H2  265   3.970   3.977   0.548
   87TIP3   OH2  266   0.404   1.756   1.500
   87TIP3    H1  267   0.343   1.829   1.493
   87TIP3    H2  268   0.487   1.791   1.470
   88TIP3   OH2  269   2.071   1.463   2.990
   88TIP3    H1  270   1.992   1.431   3.033
   88TIP3    H2  271   2.092   1.544   3.037
   89TIP3   OH2  272   1.492   5.539   1.779
   89TIP3    H1  273   1.506   5.569   1.689
   89TIP3    H2  274   1.417   5.481   1.774
   90TIP3   OH2  275   5.711   5.329   2.316
   90TIP3    H1  276   5.776   5.387   2.355
   90TIP3    H2  277   5.629   5.353   2.359
   91TIP3   OH2  278   2.518   2.386   1.699
   91TIP3    H1  279   2.445   2.384   1.761
   91TIP3    H2  280   2.519   2.298   1.661
   92TIP3   OH2  281   5.403   2.872   0.811
   92TIP3    H1  282   5.318   2.912   0.826
   92TIP3    H2  283   5.428   2.900   0.723
   93TIP3   OH2  284   3.949   4.885   3.640
   93TIP3    H1  285   3.862   4.851   3.618
   93TIP3    H2  286   4.009   4.813   3.624
   94TIP3   OH2  287   5.264   4.200   2.448
   94TIP3    H1  288   5.279   4.279   2.501
   94TIP3    H2  289   5.198   4.226   2.384
   95TIP3   OH2  290   3.429   4.049   2.804
   95TIP3    H1  291   3.401   3.992   2.731
   95TIP3    H2  292   3.524   4.057   2.792
   96TIP3   OH2  293   0.259   4.981   1.933
   96TIP3    H1  294   0.177   5.024   1.910
   96TIP3    H2  295   0.304   4.967   1.849
   97TIP3   OH2  296   6.384   1.838   4.621
   97TIP3    H1  297   6.313   1.875   4.568
   97TIP3    H2  298   6.409   1.758   4.575
   98TIP3   OH2  299   1.015   2.005   4.539
   98TIP3    H1  300   0.992   1.912   4.548
   98TIP3    H2  301   1.029   2.017   4.446
   99TIP3   OH2  302   1.335   1.823   2.261
   99TIP3    H1  303   1.354   1.733   2.288
   99TIP3    H2  304   1.317   1.869   2.343
  100TIP3   OH2  305   0.244   4.052   3.595
  100TIP3    H1  306   0.197   3.970   3.578
  100TIP3    H2  307   0.334   4.033   3.568
  101TIP3   OH2  308   6.241   0.708   2.887
  101TIP3    H1  309   6.148   0.727   2.876
  101TIP3    H2  310   6.243   0.619   2.923
  102TIP3   OH2  311   3.610   2.168   2.903
  102TIP3    H1  312   3.549   2.095   2.915
  102TIP3    H2  313   3.685   2.146   2.958
  103TIP3   OH2  314   0.830   5.351   3.909
  103TIP3    H1  315   0.914   5.346   3.955
  103TIP3    H2  316   0.837   5.431   3.857
  104TIP3   OH2  317   2.674   5.003   0.971
  104TIP3    H1  318   2.582   5.000   0.946
  104TIP3    H2  319   2.677   5.068   1.041
  105TIP3   OH2  320   4.774   0.725   3.657
  105TIP3    H1  321   4.843   0.782   3.624
  105TIP3    H2  322   4.758   0.757   3.746
  106TIP3   OH2  323   0.583   5.248   2.001
  106TIP3    H1  324   0.591   5.301   1.922
  106TIP3    H2  325   0.606   5.307   2.073
  107TIP3   OH2  326   0.142   1.583   3.284
  107TIP3    H1  327   0.164   1.497   3.246
  107TIP3    H2  328   0.215   1.639   3.260
  108TIP3   OH2  329   6.071   2.377   3.735
  108TIP3    H1  330   6.031   2.335   3.811
  108TIP3    H2  331   6.141   2.318   3.709
  109TIP3   OH2  332   4.840   0.979   3.329
  109TIP3    H1  333   4.882   1.063   3.343
  109TIP3    H2  334   4.824   0.975   3.235
  110TIP3   OH2  335   3.519   1.344   3.290
  110TIP3    H1  336   3.504   1.398   3.212
  110TIP3    H2  337   3.614   1.346   3.303
  111TIP3   OH2  338   0.604   3.393   2.473
  111TIP3    H1  339   0.513   3.401   2.446
  111TIP3    H2  340   0.633   3.483   2.487
  112TIP3   OH2  341   4.612   5.700   2.357
  112TIP3    H1  342   4.621   5.703   2.453
  112TIP3    H2  343   4.572   5.785   2.335
  113TIP3   OH2  344   1.432   0.124   1.700
  113TIP3    H1  345   1.398   0.075   1.626
  113TIP3    H2  346   1.417   0.067   1.776
  114TIP3   OH2  347   0.363   0.998   2.997
  114TIP3    H1  348   0.458   1.011   2.992
  114TIP3    H2  349   0.349   0.910   2.963
  115TIP3   OH2  350   3.315   2.082   2.858
  115TIP3    H1  351   3.281   2.091   2.947
  115TIP3    H2  352   3.260   2.016   2.817
  116TIP3   OH2  353   3.340   2.819   2.142
  116TIP3    H1  354   3.247   2.834   2.158
  116TIP3    H2  355   3.347   2.813   2.046
  117TIP3   OH2  356   1.117   0.049   0.900
  117TIP3    H1  357   1.185  -0.012   0.873
  117TIP3    H2  358   1.153   0.135   0.880
  118TIP3   OH2  359   6.168   0.020   3.713
  118TIP3    H1  360   6.259   0.007   3.741
  118TIP3    H2  361   6.175   0.052   3.624
  119TIP3   OH2  362   2.416   5.063   0.960
  119TIP3    H1  363   2.447   5.150   0.938
  119TIP3    H2  364   2.345   5.077   1.022
  120TIP3   OH2  365   0.092   2.223   2.610
  120TIP3    H1  366   0.165   2.179   2.567
  120TIP3    H2  367   0.035   2.251   2.539
  121TIP3   OH2  368   4.903   0.259   3.910
  121TIP3    H1  369   4.994   0.228   3.913
  121TIP3    H2  370   4.910   0.352   3.932
  122TIP3   OH2  371   4.071   0.343   0.365
  122TIP3    H1  372   3.993   0.340   0.421
  122TIP3    H2  373   4.141   0.308   0.419
  123TIP3   OH2  374   4.650   1.260   3.396
  123TIP3    H1  375   4.734   1.219   3.415
  123TIP3    H2  376   4.658   1.348   3.433
  124TIP3   OH2  377   3.923   4.648   2.217
  124TIP3    H1  378   3.867   4.699   2.158
  124TIP3    H2  379   3.999   4.626   2.164
  125TIP3   OH2  380   3.479   4.129   0.726
  125TIP3    H1  381   3.512   4.217   0.706
  125TIP3    H2  382   3.532   4.071   0.671
  126TIP3   OH2  383   1.466   5.416   2.939
  126TIP3    H1  384   1.543   5.387   2.890
  126TIP3    H2  385   1.405   5.343   2.932
  127TIP3   OH2  386   3.241   3.500   5.111
  127TIP3    H1  387   3.193   3.509   5.029
  127TIP3    H2  388   3.315   3.443   5.090
  128TIP3   OH2  389   4.004   3.117   1.093
  128TIP3    H1  390   3.914   3.107   1.123
  128TIP3    H2  391   3.999   3.113   0.998
  129TIP3   OH2  392   3.009   1.029   1.567
  129TIP3    H1  393   2.919   1.060   1.555
  129TIP3    H2  394   3.019   1.021   1.662
  130TIP3   OH2  395   5.002   3.798   4.604
  130TIP3    H1  396   4.918   3.841   4.586
  130TIP3    H2  397   5.001   3.719   4.551
  131TIP3   OH2  398   1.560   2.009   5.032
  131TIP3    H1  399   1.655   2.018   5.041
  131TIP3    H2  400   1.525   2.092   5.064
  132TIP3   OH2  401   5.389   2.007   0.867
  132TIP3    H1  402   5.311   1.960   0.898
  132TIP3    H2  403   5.373   2.020   0.774
  133TIP3   OH2  404   3.152   1.132   3.644
  133TIP3    H1  405   3.175   1.204   3.586
  133TIP3    H2  406   3.163   1.168   3.732
  134TIP3   OH2  407   3.447   2.962   4.990
  134TIP3    H1  408   3.465   2.971   5.083
  134TIP3    H2  409   3.482   3.042   4.951
  135TIP3   OH2  410   2.337   5.595   1.165
  135TIP3    H1  411   2.290   5.679   1.163
  135TIP3    H2  412   2.275   5.532   1.128
  136TIP3   OH2  413   5.760   2.847   4.639
  136TIP3    H1  414   5.730   2.929   4.678
  136TIP3    H2  415   5.850   2.837   4.670
  137TIP3   OH2  416   0.205   1.555   0.710
  137TIP3    H1  417   0.236   1.491   0.774
  137TIP3    H2  418   0.163   1.503   0.642
  138TIP3   OH2  419   3.319   2.834   0.032
  138TIP3    H1  420   3.260   2.760   0.044
  138TIP3    H2  421   3.356   2.821  -0.055
  139TIP3   OH2  422   5.020   1.266   2.248
  139TIP3    H1  423   4.964   1.191   2.230
  139TIP3    H2  424   4.984   1.306   2.327
  140TIP3   OH2  425   5.909   0.315   1.672
  140TIP3    H1  426   5.905   0.233   1.623
  140TIP3    H2  427   6.002   0.327   1.692
  141TIP3   OH2  428   5.686   0.701   2.824
  141TIP3    H1  429   5.599   0.741   2.831
  141TIP3    H2  430   5.693   0.673   2.733
  142TIP3   OH2  431   5.224   3.871   4.720
  142TIP3    H1  432   5.206   3.901   4.809
  142TIP3    H2  433   5.138   3.859   4.681
  143TIP3   OH2  434   3.967   0.822   1.815
  143TIP3    H1  435   3.908   0.761   1.770
  143TIP3    H2  436   3.969   0.790   1.906
  144TIP3   OH2  437   1.149   5.053   3.179
  144TIP3    H1  438   1.174   5.138   3.144
  144TIP3    H2  439   1.184   5.053   3.269
  145TIP3   OH2  440   4.814   3.732   0.585
  145TIP3    H1  441   4.759   3.715   0.508
  145TIP3    H2  442   4.885   3.787   0.551
  146TIP3   OH2  443   2.364   4.956   4.690
  146TIP3    H1  444   2.327   4.868   4.700
  146TIP3    H2  445   2.291   5.015   4.706
  147TIP3   OH2  446   5.465   2.509   2.296
  147TIP3    H1  447   5.556   2.521   2.325
  147TIP3    H2  448   5.473   2.472   2.208
  148TIP3   OH2  449   0.623   2.961   3.587
  148TIP3    H1  450   0.535   2.987   3.615
  148TIP3    H2  451   0.624   2.866   3.596
  149TIP3   OH2  452   0.610   2.633   4.499
  149TIP3    H1  453   0.618   2.591   4.414
  149TIP3    H2  454   0.516   2.631   4.518
  150TIP3   OH2  455   0.541   0.629   2.226
  150TIP3    H1  456   0.490   0.710   2.223
  150TIP3    H2  457   0.622   0.651   2.180
  151TIP3   OH2  458   5.788   1.685   2.243
  151TIP3    H1  459   5.766   1.595   2.217
  151TIP3    H2  460   5.709   1.735   2.222
  152TIP3   OH2  461   0.698   2.607   0.240
  152TIP3    H1  462   0.747   2.573   0.164
  152TIP3    H2  463   0.723   2.699   0.245
  153TIP3   OH2  464   0.458   0.240   3.890
  153TIP3    H1  465   0.376   0.218   3.846
  153TIP3    H2  466   0.435   0.308   3.953
  154TIP3   OH2  467   0.754   3.215   3.565
  154TIP3    H1  468   0.712   3.130   3.577
  154TIP3    H2  469   0.710   3.273   3.627
  155TIP3   OH2  470   1.903   3.946   0.622
  155TIP3    H1  471   1.975   3.965   0.682
  155TIP3    H2  472   1.890   3.851   0.629
  156TIP3   OH2  473   5.959   3.356   2.498
  156TIP3    H1  474   5.941   3.357   2.405
  156TIP3    H2  475   5.962   3.448   2.524
  157TIP3   OH2  476   1.408   3.030   2.172
  157TIP3    H1  477   1.483   2.998   2.121
  157TIP3    H2  478   1.333   2.981   2.138
  158TIP3   OH2  479   5.256   0.706   4.890
  158TIP3    H1  480   5.291   0.788   4.857
  158TIP3    H2  481   5.243   0.721   4.984
  159TIP3   OH2  482   2.578   0.539   0.083
  159TIP3    H1  483   2.605   0.556   0.174
  159TIP3    H2  484   2.536   0.620   0.056
  160TIP3   OH2  485   6.150   4.923   0.026
  160TIP3    H1  486   6.164   4.858   0.094
  160TIP3    H2  487   6.238   4.956   0.006
  161TIP3   OH2  488   4.307   0.916   2.487
  161TIP3    H1  489   4.231   0.881   2.440
  161TIP3    H2  490   4.344   0.981   2.427
  162TIP3   OH2  491   0.066   2.276   3.297
  162TIP3    H1  492   0.030   2.190   3.277
  162TIP3    H2  493  -0.010   2.331   3.317
  163TIP3   OH2  494   2.344   1.963   3.813
  163TIP3    H1  495   2.305   1.977   3.899
  163TIP3    H2  496   2.294   1.891   3.775
  164TIP3   OH2  497   5.662   0.278   4.250
  164TIP3    H1  498   5.694   0.229   4.174
  164TIP3    H2  499   5.618   0.354   4.213
  165TIP3   OH2  500   2.342   1.670   0.790
  165TIP3    H1  501   2.321   1.733   0.858
  165TIP3    H2  502   2.390   1.600   0.835
  166TIP3   OH2  503   3.897   0.059   3.579
  166TIP3    H1  504   3.989   0.073   3.600
  166TIP3    H2  505   3.854   0.142   3.601
  167TIP3   OH2  506   1.452   0.162   3.520
  167TIP3    H1  507   1.474   0.199   3.434
  167TIP3    H2  508   1.479   0.071   3.514
  168TIP3   OH2  509   0.575   2.688   3.983
  168TIP3    H1  510   0.566   2.597   3.954
  168TIP3    H2  511   0.664   2.713   3.956
  169TIP3   OH2  512   5.058   0.547   2.609
  169TIP3    H1  513   4.979   0.496   2.626
  169TIP3    H2  514   5.029   0.617   2.550
  170TIP3   OH2  515   5.976   2.326   3.225
  170TIP3    H1  516   5.918   2.250   3.233
  170TIP3    H2  517   6.024   2.328   3.308
  171TIP3   OH2  518   6.039   0.859   0.898
  171TIP3    H1  519   6.123   0.881   0.859
  171TIP3    H2  520   6.059   0.790   0.961
  172TIP3   OH2  521   2.504   4.614   3.361
  172TIP3    H1  522   2.444   4.688   3.355
  172TIP3    H2  523   2.513   4.582   3.272
  173TIP3   OH2  524   2.552   1.015   1.746
  173TIP3    H1  525   2.499   1.006   1.667
  173TIP3    H2  526   2.491   0.997   1.818
  174TIP3   OH2  527   5.145   1.604   2.257
  174TIP3    H1  528   5.196   1.533   2.217
  174TIP3    H2  529   5.206   1.646   2.318
  175TIP3   OH2  530   5.421   1.477   0.393
  175TIP3    H1  531   5.408   1.447   0.483
  175TIP3    H2  532   5.514   1.462   0.376
  176TIP3   OH2  533   5.756   3.326   2.220
  176TIP3    H1  534   5.789   3.387   2.153
  176TIP3    H2  535   5.762   3.240   2.179
  177TIP3   OH2  536   6.093   4.792   0.846
  177TIP3    H1  537   6.104   4.868   0.903
  177TIP3    H2  538   6.101   4.827   0.758
  178TIP3   OH2  539   1.483   1.897   3.190
  178TIP3    H1  540   1.575   1.908   3.168
  178TIP3    H2  541   1.436   1.916   3.108
  179TIP3   OH2  542   3.738   6.055   1.651
  179TIP3    H1  543   3.699   5.989   1.593
  179TIP3    H2  544   3.764   6.006   1.729
  180TIP3   OH2  545   6.173   4.090   4.758
  180TIP3    H1  546   6.243   4.025   4.753
  180TIP3    H2  547   6.092   4.039   4.750
  181TIP3   OH2  548   5.400   2.851   2.970
  181TIP3    H1  549   5.379   2.896   2.889
  181TIP3    H2  550   5.431   2.920   3.029
  182TIP3   OH2  551   2.013   3.783   4.800
  182TIP3    H1  552   1.933   3.788   4.853
  182TIP3    H2  553   1.987   3.733   4.723
  183TIP3   OH2  554   5.046   4.127   1.425
  183TIP3    H1  555   4.994   4.074   1.486
  183TIP3    H2  556   4.990   4.139   1.349
  184TIP3   OH2  557   4.563   4.091   1.885
  184TIP3    H1  558   4.534   4.173   1.926
  184TIP3    H2  559   4.640   4.066   1.935
  185TIP3   OH2  560   4.466   5.523   4.467
  185TIP3    H1  561   4.519   5.458   4.514
  185TIP3    H2  562   4.380   5.519   4.511
  186TIP3   OH2  563   4.539   3.372   2.698
  186TIP3    H1  564   4.543   3.466   2.711
  186TIP3    H2  565   4.536   3.360   2.603
  187TIP3   OH2  566   4.635   5.808   1.660
  187TIP3    H1  567   4.554   5.842   1.698
  187TIP3    H2  568   4.639   5.717   1.689
  188TIP3   OH2  569   2.112   4.862   2.092
  188TIP3    H1  570   2.057   4.829   2.022
  188TIP3    H2  571   2.186   4.801   2.095
  189TIP3   OH2  572   2.445   1.145   0.195
  189TIP3    H1  573   2.383   1.169   0.264
  189TIP3    H2  574   2.399   1.077   0.144
  190TIP3   OH2  575   5.166   0.644   1.665
  190TIP3    H1  576   5.258   0.620   1.666
  190TIP3    H2  577   5.139   0.633   1.574
  191TIP3   OH2  578   6.174   3.410   5.082
  191TIP3    H1  579   6.247   3.469   5.062
  191TIP3    H2  580   6.207   3.354   5.152
  192TIP3   OH2  581   0.639   1.438   3.379
  192TIP3    H1  582   0.718   1.488   3.401
  192TIP3    H2  583   0.605   1.479   3.300
  193TIP3   OH2  584   5.793   5.296   4.616
  193TIP3    H1  585   5.716   5.239   4.612
  193TIP3    H2  586   5.832   5.279   4.702
  194TIP3   OH2  587   5.584   0.098   3.555
  194TIP3    H1  588   5.532   0.091   3.475
  194TIP3    H2  589   5.617   0.010   3.571
  195TIP3   OH2  590   3.072   1.024   0.340
  195TIP3    H1  591   3.024   1.107   0.343
  195TIP3    H2  592   3.116   1.019   0.425
  196TIP3   OH2  593   2.650   5.706   3.204
  196TIP3    H1  594   2.724   5.677   3.152
  196TIP3    H2  595   2.690   5.744   3.283
  197TIP3   OH2  596   5.002   5.322   1.121
  197TIP3    H1  597   4.984   5.228   1.131
  197TIP3    H2  598   4.967   5.344   1.035
  198TIP3   OH2  599   3.517   5.869   1.822
  198TIP3    H1  600   3.603   5.852   1.861
  198TIP3    H2  601   3.474   5.784   1.822
  199TIP3   OH2  602   0.183  -0.045   0.159
  199TIP3    H1  603   0.089  -0.058   0.144
  199TIP3    H2  604   0.202   0.040   0.119
  200TIP3   OH2  605   5.199   3.450   1.271
  200TIP3    H1  606   5.134   3.444   1.201
  200TIP3    H2  607   5.227   3.360   1.286
  201TIP3   OH2  608   0.808   2.936   3.389
  201TIP3    H1  609   0.780   3.019   3.350
  201TIP3    H2  610   0.748   2.921   3.461
  202TIP3   OH2  611   1.858   5.369   3.433
  202TIP3    H1  612   1.865   5.427   3.357
  202TIP3    H2  613   1.897   5.419   3.505
  203TIP3   OH2  614   3.142   4.210   3.856
  203TIP3    H1  615   3.147   4.299   3.821
  203TIP3    H2  616   3.075   4.167   3.804
  204TIP3   OH2  617   0.477   4.754   2.378
  204TIP3    H1  618   0.541   4.683   2.384
  204TIP3    H2  619   0.524   4.827   2.338
  205TIP3   OH2  620   5.448   0.364   1.169
  205TIP3    H1  621   5.506   0.298   1.133
  205TIP3    H2  622   5.416   0.327   1.251
  206TIP3   OH2  623   5.560   5.045   0.018
  206TIP3    H1  624   5.642   5.062  -0.029
  206TIP3    H2  625   5.557   5.112   0.086
  207TIP3   OH2  626   3.772   0.944   0.542
  207TIP3    H1  627   3.836   1.008   0.573
  207TIP3    H2  628   3.823   0.882   0.491
  208TIP3   OH2  629   1.798   2.820   4.013
  208TIP3    H1  630   1.723   2.878   4.003
  208TIP3    H2  631   1.809   2.780   3.927
  209TIP3   OH2  632   1.876   4.880   2.273
  209TIP3    H1  633   1.790   4.916   2.251
  209TIP3    H2  634   1.927   4.889   2.193
  210TIP3   OH2  635   3.329   2.490   1.890
  210TIP3    H1  636   3.252   2.468   1.943
  210TIP3    H2  637   3.402   2.486   1.952
  211TIP3   OH2  638   6.228   4.350   1.494
  211TIP3    H1  639   6.288   4.425   1.497
  211TIP3    H2  640   6.161   4.376   1.430
  212TIP3   OH2  641   1.836   5.058   1.391
  212TIP3    H1  642   1.759   5.075   1.337
  212TIP3    H2  643   1.870   5.145   1.412
  213TIP3   OH2  644   4.909   5.242   5.002
  213TIP3    H1  645   4.942   5.326   5.034
  213TIP3    H2  646   4.816   5.257   4.986
  214TIP3   OH2  647   3.498   4.432   4.786
  214TIP3    H1  648   3.482   4.411   4.878
  214TIP3    H2  649   3.412   4.429   4.746
  215TIP3   OH2  650   5.791   1.622   4.738
  215TIP3    H1  651   5.711   1.570   4.737
  215TIP3    H2  652   5.821   1.617   4.829
  216TIP3   OH2  653   5.238   1.385   2.146
  216TIP3    H1  654   5.175   1.323   2.183
  216TIP3    H2  655   5.324   1.349   2.168
  217TIP3   OH2  656   3.321   1.728   0.993
  217TIP3    H1  657   3.325   1.819   1.022
  217TIP3    H2  658   3.296   1.679   1.071
  218TIP3   OH2  659   2.437   2.955   4.167
  218TIP3    H1  660   2.387   2.911   4.235
  218TIP3    H2  661   2.452   2.887   4.100
  219TIP3   OH2  662   2.744   5.474   0.025
  219TIP3    H1  663   2.803   5.479   0.100
  219TIP3    H2  664   2.780   5.403  -0.029
  220TIP3   OH2  665   4.739   3.409   4.182
  220TIP3    H1  666   4.652   3.400   4.222
  220TIP3    H2  667   4.796   3.353   4.236
  221TIP3   OH2  668   4.580   4.246   0.016
  221TIP3    H1  669   4.597   4.289   0.099
  221TIP3    H2  670   4.552   4.158   0.040
  222TIP3   OH2  671   3.491   2.361   0.915
  222TIP3    H1  672   3.573   2.370   0.867
  222TIP3    H2  673   3.518   2.345   1.005
  223TIP3   OH2  674   5.345   4.048   3.471
  223TIP3    H1  675   5.346   3.953   3.476
  223TIP3    H2  676   5.410   4.077   3.535
  224TIP3   OH2  677   4.176   3.231   1.262
  224TIP3    H1  678   4.122   3.203   1.188
  224TIP3    H2  679   4.171   3.326   1.260
  225TIP3   OH2  680   4.449   3.619   0.174
  225TIP3    H1  681   4.359   3.588   0.189
  225TIP3    H2  682   4.499   3.539   0.160
  226TIP3   OH2  683   6.022   4.288   2.986
  226TIP3    H1  684   5.954   4.275   3.053
  226TIP3    H2  685   5.974   4.318   2.909
  227TIP3   OH2  686   1.125   2.334   2.705
  227TIP3    H1  687   1.136   2.405   2.642
  227TIP3    H2  688   1.031   2.329   2.720
  228TIP3   OH2  689   4.907   5.138   0.782
  228TIP3    H1  690   4.935   5.055   0.820
  228TIP3    H2  691   4.813   5.127   0.766
  229TIP3   OH2  692   2.596   3.189   3.674
  229TIP3    H1  693   2.504   3.188   3.700
  229TIP3    H2  694   2.645   3.197   3.756
  230TIP3   OH2  695   5.786   0.509   1.909
  230TIP3    H1  696   5.744   0.551   1.834
  230TIP3    H2  697   5.786   0.416   1.887
  231TIP3   OH2  698   1.487   0.146   0.963
  231TIP3    H1  699   1.475   0.241   0.959
  231TIP3    H2  700   1.479   0.117   0.872
  232TIP3   OH2  701   1.684   2.415   2.207
  232TIP3    H1  702   1.701   2.383   2.118
  232TIP3    H2  703   1.644   2.501   2.194
  233TIP3   OH2  704   4.764   0.515   0.581
  233TIP3    H1  705   4.705   0.590   0.578
  233TIP3    H2  706   4.738   0.461   0.506
  234TIP3   OH2  707   3.984   0.241   4.092
  234TIP3    H1  708   3.903   0.283   4.062
  234TIP3    H2  709   4.049   0.312   4.092
  235TIP3   OH2  710   5.772   4.036   2.946
  235TIP3    H1  711   5.798   3.974   3.014
  235TIP3    H2  712   5.777   4.122   2.990
  236TIP3   OH2  713   3.135   4.902   2.099
  236TIP3    H1  714   3.227   4.901   2.075
  236TIP3    H2  715   3.102   4.986   2.065
  237TIP3   OH2  716   4.536   0.080   1.759
  237TIP3    H1  717   4.504   0.002   1.804
  237TIP3    H2  718   4.480   0.089   1.683
  238TIP3   OH2  719   4.303   4.143   2.814
  238TIP3    H1  720   4.256   4.093   2.881
  238TIP3    H2  721   4.366   4.081   2.777
  239TIP3   OH2  722   3.501   1.133   1.797
  239TIP3    H1  723   3.515   1.225   1.818
  239TIP3    H2  724   3.408   1.118   1.811
  240TIP3   OH2  725   1.363   1.442   0.151
  240TIP3    H1  726   1.351   1.510   0.217
  240TIP3    H2  727   1.443   1.468   0.105
  241TIP3   OH2  728   3.505   3.355   2.879
  241TIP3    H1  729   3.526   3.264   2.899
  241TIP3    H2  730   3.416   3.352   2.842
  242TIP3   OH2  731   2.534   3.330   1.274
  242TIP3    H1  732   2.533   3.342   1.369
  242TIP3    H2  733   2.548   3.418   1.239
  243TIP3   OH2  734   4.323   5.699   0.934
  243TIP3    H1  735   4.405   5.739   0.963
  243TIP3    H2  736   4.350   5.616   0.893
  244TIP3   OH2  737   2.898   3.387   5.033
  244TIP3    H1  738   2.904   3.441   5.111
  244TIP3    H2  739   2.851   3.441   4.970
  245TIP3   OH2  740   3.810   2.128   3.094
  245TIP3    H1  741   3.842   2.097   3.178
  245TIP3    H2  742   3.886   2.123   3.036
  246TIP3   OH2  743   2.160   5.319   2.159
  246TIP3    H1  744   2.124   5.392   2.209
  246TIP3    H2  745   2.254   5.337   2.154
  247TIP3   OH2  746   3.764   3.026   3.954
  247TIP3    H1  747   3.670   3.009   3.963
  247TIP3    H2  748   3.787   3.075   4.033
  248TIP3   OH2  749   4.671   3.854   0.820
  248TIP3    H1  750   4.742   3.838   0.758
  248TIP3    H2  751   4.646   3.945   0.804
  249TIP3   OH2  752   4.348   4.927   0.846
  249TIP3    H1  753   4.268   4.945   0.895
  249TIP3    H2  754   4.332   4.843   0.803
  250TIP3   OH2  755   3.392   4.788   1.050
  250TIP3    H1  756   3.384   4.694   1.039
  250TIP3    H2  757   3.323   4.812   1.112
  251TIP3   OH2  758   3.238   1.372   0.489
  251TIP3    H1  759   3.226   1.353   0.582
  251TIP3    H2  760   3.330   1.350   0.472
  252TIP3   OH2  761   5.093   5.041   3.880
  252TIP3    H1  762   5.051   4.956   3.867
  252TIP3    H2  763   5.081   5.087   3.797
  253TIP3   OH2  764   0.640   2.712   1.096
  253TIP3    H1  765   0.587   2.760   1.161
  253TIP3    H2  766   0.661   2.778   1.030
  254TIP3   OH2  767   1.577   5.722   0.904
  254TIP3    H1  768   1.489   5.696   0.930
  254TIP3    H2  769   1.602   5.791   0.965
  255TIP3   OH2  770   3.797   2.377   3.419
  255TIP3    H1  771   3.784   2.304   3.480
  255TIP3    H2  772   3.716   2.380   3.368
  256TIP3   OH2  773   4.511   5.781   3.840
  256TIP3    H1  774   4.587   5.820   3.884
  256TIP3    H2  775   4.547   5.745   3.759
  257TIP3   OH2  776   0.399   1.350   0.871
  257TIP3    H1  777   0.481   1.388   0.901
  257TIP3    H2  778   0.337   1.368   0.941
  258TIP3   OH2  779   5.585   2.613   4.000
  258TIP3    H1  780   5.513   2.667   3.967
  258TIP3    H2  781   5.576   2.615   4.095
  259TIP3   OH2  782   0.554   1.716   1.924
  259TIP3    H1  783   0.542   1.804   1.961
  259TIP3    H2  784   0.470   1.695   1.883
  260TIP3   OH2  785   3.835   5.616   2.626
  260TIP3    H1  786   3.891   5.629   2.550
  260TIP3    H2  787   3.895   5.588   2.695
  261TIP3   OH2  788   2.908   0.504   2.554
  261TIP3    H1  789   2.889   0.429   2.497
  261TIP3    H2  790   2.880   0.580   2.502
  262TIP3   OH2  791   2.315   3.157   4.002
  262TIP3    H1  792   2.388   3.212   4.033
  262TIP3    H2  793   2.325   3.075   4.051
  263TIP3   OH2  794   3.291   2.780   4.126
  263TIP3    H1  795   3.306   2.688   4.107
  263TIP3    H2  796   3.211   2.802   4.079
  264TIP3   OH2  797   2.005   2.096   4.569
  264TIP3    H1  798   2.083   2.041   4.561
  264TIP3    H2  799   2.016   2.142   4.652
  265TIP3   OH2  800   5.668   5.506   5.028
  265TIP3    H1  801   5.573   5.500   5.040
  265TIP3    H2  802   5.702   5.532   5.114
  266TIP3   OH2  803   2.166   5.074   4.802
  266TIP3    H1  804   2.113   5.019   4.859
  266TIP3    H2  805   2.116   5.156   4.796
  267TIP3   OH2  806   2.642   5.417   1.797
  267TIP3    H1  807   2.716   5.376   1.842
  267TIP3    H2  808   2.649   5.510   1.819
  268TIP3   OH2  809   3.054   1.364   1.632
  268TIP3    H1  810   3.017   1.422   1.565
  268TIP3    H2  811   2.978   1.317   1.668
  269TIP3   OH2  812   0.040   1.895   3.928
  269TIP3    H1  813   0.040   1.823   3.866
  269TIP3    H2  814   0.044   1.853   4.014
  270TIP3   OH2  815   0.893   0.998   1.081
  270TIP3    H1  816   0.984   0.972   1.087
  270TIP3    H2  817   0.852   0.931   1.027
  271TIP3   OH2  818   5.768   0.322   0.822
  271TIP3    H1  819   5.726   0.251   0.773
  271TIP3    H2  820   5.857   0.289   0.838
  272TIP3   OH2  821   1.749   3.760   3.688
  272TIP3    H1  822   1.656   3.735   3.688
  272TIP3    H2  823   1.781   3.729   3.773
  273TIP3   OH2  824   4.574   1.793   4.978
  273TIP3    H1  825   4.537   1.765   4.894
  273TIP3    H2  826   4.542   1.883   4.989
  274TIP3   OH2  827   5.522   5.594   3.698
  274TIP3    H1  828   5.463   5.657   3.657
  274TIP3    H2  829   5.540   5.631   3.784
  275TIP3   OH2  830   1.327   4.785   3.441
  275TIP3    H1  831   1.375   4.734   3.376
  275TIP3    H2  832   1.237   4.752   3.436
  276TIP3   OH2  833   1.567   2.076   0.265
  276TIP3    H1  834   1.637   2.091   0.201
  276TIP3    H2  835   1.513   2.155   0.261
  277TIP3   OH2  836   0.292   3.599   3.662
  277TIP3    H1  837   0.260   3.584   3.573
  277TIP3    H2  838   0.240   3.674   3.694
  278TIP3   OH2  839   5.641   3.309   1.241
  278TIP3    H1  840   5.609   3.357   1.165
  278TIP3    H2  841   5.731   3.284   1.219
  279TIP3   OH2  842   5.371   0.438   2.599
  279TIP3    H1  843   5.280   0.446   2.571
  279TIP3    H2  844   5.381   0.503   2.668
  280TIP3   OH2  845   1.319   0.442   1.610
  280TIP3    H1  846   1.391   0.417   1.668
  280TIP3    H2  847   1.284   0.358   1.578
  281TIP3   OH2  848   4.830   5.571   4.720
  281TIP3    H1  849   4.784   5.597   4.640
  281TIP3    H2  850   4.876   5.491   4.696
  282TIP3   OH2  851   1.915   4.045   4.274
  282TIP3    H1  852   1.887   4.134   4.253
  282TIP3    H2  853   1.955   4.013   4.193
  283TIP3   OH2  854   1.755   2.379   5.211
  283TIP3    H1  855   1.795   2.428   5.138
  283TIP3    H2  856   1.814   2.306   5.226
  284TIP3   OH2  857   1.651   1.858   1.900
  284TIP3    H1  858   1.557   1.842   1.908
  284TIP3    H2  859   1.689   1.770   1.890
  285TIP3   OH2  860   3.968   4.767   1.815
  285TIP3    H1  861   4.059   4.748   1.839
  285TIP3    H2  862   3.974   4.802   1.726
  286TIP3   OH2  863   3.178   0.714   3.032
  286TIP3    H1  864   3.219   0.673   3.109
  286TIP3    H2  865   3.148   0.640   2.979
  287TIP3   OH2  866   5.142   4.197   3.105
  287TIP3    H1  867   5.062   4.184   3.053
  287TIP3    H2  868   5.198   4.252   3.051
  288TIP3   OH2  869   6.183   2.217   2.019
  288TIP3    H1  870   6.133   2.278   2.073
  288TIP3    H2  871   6.126   2.141   2.010
  289TIP3   OH2  872   2.950   3.938   0.118
  289TIP3    H1  873   2.956   3.938   0.214
  289TIP3    H2  874   2.950   4.031   0.095
  290TIP3   OH2  875   2.981   2.225   3.676
  290TIP3    H1  876   3.019   2.292   3.733
  290TIP3    H2  877   2.968   2.269   3.593
  291TIP3   OH2  878   1.147   5.112   1.645
  291TIP3    H1  879   1.221   5.058   1.672
  291TIP3    H2  880   1.184   5.176   1.585
  292TIP3   OH2  881   0.522   1.100   0.978
  292TIP3    H1  882   0.580   1.139   1.043
  292TIP3    H2  883   0.472   1.174   0.943
  293TIP3   OH2  884   6.041   5.573   4.550
  293TIP3    H1  885   6.040   5.597   4.642
  293TIP3    H2  886   5.949   5.568   4.525
  294TIP3   OH2  887   5.823   1.102   3.416
  294TIP3    H1  888   5.849   1.028   3.471
  294TIP3    H2  889   5.803   1.172   3.478
  295TIP3   OH2  890   4.372   0.174   0.234
  295TIP3    H1  891   4.397   0.161   0.325
  295TIP3    H2  892   4.419   0.106   0.186
  296TIP3   OH2  893   1.009   4.342   3.216
  296TIP3    H1  894   1.074   4.275   3.196
  296TIP3    H2  895   0.984   4.379   3.132
  297TIP3   OH2  896   5.039   5.362   4.669
  297TIP3    H1  897   5.030   5.382   4.576
  297TIP3    H2  898   4.979   5.288   4.683
  298TIP3   OH2  899   2.477   5.734   4.723
  298TIP3    H1  900   2.495   5.720   4.630
  298TIP3    H2  901   2.529   5.811   4.746
  299TIP3   OH2  902   2.227   5.071   1.237
  299TIP3    H1  903   2.286   4.995   1.240
  299TIP3    H2  904   2.144   5.036   1.206
  300TIP3   OH2  905   2.874   4.045   0.771
  300TIP3    H1  906   2.927   4.124   0.760
  300TIP3    H2  907   2.924   3.991   0.832
  301TIP3   OH2  908   2.226   1.146   5.043
  301TIP3    H1  909   2.189   1.065   5.077
  301TIP3    H2  910   2.280   1.120   4.969
  302TIP3   OH2  911   5.610   0.884   2.409
  302TIP3    H1  912   5.562   0.930   2.477
  302TIP3    H2  913   5.702   0.908   2.424
  303TIP3   OH2  914   1.261   4.465   4.557
  303TIP3    H1  915   1.224   4.433   4.475
  303TIP3    H2  916   1.356   4.453   4.547
  304TIP3   OH2  917   5.726   5.361   2.998
  304TIP3    H1  918   5.643   5.315   3.009
  304TIP3    H2  919   5.772   5.350   3.081
  305TIP3   OH2  920   4.125   5.777   1.091
  305TIP3    H1  921   4.048   5.729   1.120
  305TIP3    H2  922   4.183   5.711   1.053
  306TIP3   OH2  923   2.673   0.903   3.181
  306TIP3    H1  924   2.711   0.922   3.267
  306TIP3    H2  925   2.599   0.845   3.201
  307TIP3   OH2  926   2.753   1.725   4.536
  307TIP3    H1  927   2.835   1.682   4.512
  307TIP3    H2  928   2.687   1.656   4.528
  308TIP3   OH2  929   3.896   5.976   4.988
  308TIP3    H1  930   3.817   5.954   5.036
  308TIP3    H2  931   3.966   5.968   5.052
  309TIP3   OH2  932   3.372   5.107   0.862
  309TIP3    H1  933   3.304   5.091   0.927
  309TIP3    H2  934   3.353   5.195   0.829
  310TIP3   OH2  935   2.845   2.812   1.431
  310TIP3    H1  936   2.879   2.772   1.351
  310TIP3    H2  937   2.782   2.748   1.465
  311TIP3   OH2  938   3.601   5.300   3.364
  311TIP3    H1  939   3.682   5.291   3.415
  311TIP3    H2  940   3.533   5.312   3.430
  312TIP3   OH2  941   0.937   5.128   2.457
  312TIP3    H1  942   0.863   5.122   2.517
  312TIP3    H2  943   0.972   5.038   2.453
  313TIP3   OH2  944   5.080   3.799   2.272
  313TIP3    H1  945   5.101   3.811   2.180
  313TIP3    H2  946   5.025   3.721   2.274
  314TIP3   OH2  947   1.317   0.689   2.705
  314TIP3    H1  948   1.330   0.773   2.662
  314TIP3    H2  949   1.223   0.684   2.722
  315TIP3   OH2  950   2.073   5.328   5.130
  315TIP3    H1  951   2.120   5.389   5.186
  315TIP3    H2  952   1.981   5.337   5.155
  316TIP3   OH2  953   6.365   0.460   0.011
  316TIP3    H1  954   6.324   0.514   0.078
  316TIP3    H2  955   6.295   0.442  -0.052
  317TIP3   OH2  956   5.848   3.543   4.619
  317TIP3    H1  957   5.927   3.537   4.673
  317TIP3    H2  958   5.789   3.476   4.655
  318TIP3   OH2  959   4.394   0.052   2.618
  318TIP3    H1  960   4.327   0.022   2.680
  318TIP3    H2  961   4.464  -0.013   2.626
  319TIP3   OH2  962   1.966   5.002   2.745
  319TIP3    H1  963   1.936   5.091   2.763
  319TIP3    H2  964   1.964   4.958   2.829
  320TIP3   OH2  965   4.314   4.130   0.578
  320TIP3    H1  966   4.334   4.038   0.557
  320TIP3    H2  967   4.219   4.137   0.567
  321TIP3   OH2  968   0.751   0.668   0.693
  321TIP3    H1  969   0.803   0.591   0.672
  321TIP3    H2  970   0.765   0.728   0.619
  322TIP3   OH2  971   0.372   3.686   3.192
  322TIP3    H1  972   0.333   3.689   3.105
  322TIP3    H2  973   0.452   3.633   3.181
  323TIP3   OH2  974   4.602   1.553   3.407
  323TIP3    H1  975   4.594   1.582   3.497
  323TIP3    H2  976   4.673   1.606   3.371
  324TIP3   OH2  977   3.545   0.787   0.649
  324TIP3    H1  978   3.495   0.849   0.703
  324TIP3    H2  979   3.610   0.842   0.605
  325TIP3   OH2  980   2.378   0.448   4.398
  325TIP3    H1  981   2.295   0.489   4.377
  325TIP3    H2  982   2.379   0.443   4.494
  326TIP3   OH2  983   3.115   1.803   3.273
  326TIP3    H1  984   3.201   1.773   3.243
  326TIP3    H2  985   3.132   1.839   3.360
  327TIP3   OH2  986   2.179   2.703   4.910
  327TIP3    H1  987   2.168   2.718   4.816
  327TIP3    H2  988   2.273   2.685   4.921
  328TIP3   OH2  989   6.319   1.124   1.593
  328TIP3    H1  990   6.362   1.172   1.663
  328TIP3    H2  991   6.226   1.125   1.617
  329TIP3   OH2  992   5.024   4.560   4.973
  329TIP3    H1  993   4.978   4.528   4.896
  329TIP3    H2  994   5.115   4.534   4.960
  330TIP3   OH2  995   4.238   1.810   3.296
  330TIP3    H1  996   4.164   1.820   3.236
  330TIP3    H2  997   4.269   1.720   3.282
  331TIP3   OH2  998   2.507   2.468   3.125
  331TIP3    H1  999   2.572   2.448   3.057
  331TIP3    H2 1000   2.469   2.383   3.147
  332TIP3   OH2 1001   3.273   2.810   0.409
  332TIP3    H1 1002   3.251   2.900   0.432
  332TIP3    H2 1003   3.321   2.777   0.485
  333TIP3   OH2 1004   4.392   0.915   1.222
  333TIP3    H1 1005   4.402   0.877   1.310
  333TIP3    H2 1006   4.466   0.976   1.214
  334TIP3   OH2 1007   3.089  -0.010   0.807
  334TIP3    H1 1008   3.087  -0.106   0.802
  334TIP3    H2 1009   3.045   0.010   0.890
  335TIP3   OH2 1010   1.038   0.647   3.663
  335TIP3    H1 1011   1.042   0.591   3.586
  335TIP3    H2 1012   1.116   0.625   3.714
  336TIP3   OH2 1013   2.642   4.855   2.444
  336TIP3    H1 1014   2.693   4.929   2.477
  336TIP3    H2 1015   2.703   4.781   2.448
  337TIP3   OH2 1016   0.075   3.462   0.702
  337TIP3    H1 1017   0.116   3.381   0.734
  337TIP3    H2 1018   0.078   3.522   0.776
  338TIP3   OH2 1019   4.264   2.977   4.556
  338TIP3    H1 1020   4.237   3.022   4.476
  338TIP3    H2 1021   4.359   2.979   4.553
  339TIP3   OH2 1022   3.539   1.214   2.552
  339TIP3    H1 1023   3.630   1.216   2.582
  339TIP3    H2 1024   3.489   1.243   2.628
  340TIP3   OH2 1025   0.438   0.320   0.781
  340TIP3    H1 1026   0.457   0.369   0.861
  340TIP3    H2 1027   0.349   0.348   0.758
  341TIP3   OH2 1028   3.254   0.911   2.518
  341TIP3    H1 1029   3.201   0.859   2.578
  341TIP3    H2 1030   3.191   0.961   2.466
  342TIP3   OH2 1031   1.432   0.848   0.922
  342TIP3    H1 1032   1.461   0.757   0.929
  342TIP3    H2 1033   1.428   0.864   0.827
  343TIP3   OH2 1034   0.029   4.610   0.777
  343TIP3    H1 1035   0.041   4.700   0.809
  343TIP3    H2 1036   0.028   4.618   0.682
  344TIP3   OH2 1037   0.699   4.441   0.452
  344TIP3    H1 1038   0.610   4.471   0.433
  344TIP3    H2 1039   0.731   4.406   0.369
  345TIP3   OH2 1040   0.183   5.136   4.804
  345TIP3    H1 1041   0.275   5.112   4.817
  345TIP3    H2 1042   0.139   5.105   4.883
  346TIP3   OH2 1043   3.535   1.319   5.079
  346TIP3    H1 1044   3.585   1.323   5.161
  346TIP3    H2 1045   3.492   1.405   5.073
  347TIP3   OH2 1046   0.877   2.995   4.990
  347TIP3    H1 1047   0.922   3.072   5.026
  347TIP3    H2 1048   0.885   2.928   5.059
  348TIP3   OH2 1049   5.666   1.811   2.549
  348TIP3    H1 1050   5.690   1.721   2.568
  348TIP3    H2 1051   5.688   1.860   2.628
  349TIP3   OH2 1052   4.957   3.461   0.429
  349TIP3    H1 1053   4.938   3.478   0.336
  349TIP3    H2 1054   5.044   3.499   0.442
  350TIP3   OH2 1055   1.981   5.561   1.396
  350TIP3    H1 1056   1.921   5.613   1.342
  350TIP3    H2 1057   1.978   5.603   1.482
  351TIP3   OH2 1058   1.909   1.129   0.084
  351TIP3    H1 1059   1.844   1.136   0.013
  351TIP3    H2 1060   1.970   1.062   0.053
  352TIP3   OH2 1061   4.560   4.561   0.023
  352TIP3    H1 1062   4.592   4.498   0.088
  352TIP3    H2 1063   4.583   4.646   0.060
  353TIP3   OH2 1064   4.096   2.614   1.917
  353TIP3    H1 1065   4.074   2.573   1.834
  353TIP3    H2 1066   4.191   2.604   1.924
  354TIP3   OH2 1067   4.910   5.116   4.625
  354TIP3    H1 1068   4.846   5.056   4.664
  354TIP3    H2 1069   4.884   5.124   4.534
  355TIP3   OH2 1070   1.737   3.963   1.791
  355TIP3    H1 1071   1.794   3.959   1.868
  355TIP3    H2 1072   1.760   3.884   1.741
  356TIP3   OH2 1073   5.196   1.886   3.798
  356TIP3    H1 1074   5.170   1.905   3.888
  356TIP3    H2 1075   5.278   1.933   3.786
  357TIP3   OH2 1076   2.256   1.256   2.859
  357TIP3    H1 1077   2.178   1.308   2.880
  357TIP3    H2 1078   2.226   1.165   2.863
  358TIP3   OH2 1079   4.391   4.867   0.273
  358TIP3    H1 1080   4.427   4.794   0.222
  358TIP3    H2 1081   4.468   4.917   0.299
  359TIP3   OH2 1082   5.121   1.459   4.416
  359TIP3    H1 1083   5.154   1.541   4.452
  359TIP3    H2 1084   5.157   1.454   4.328
  360TIP3   OH2 1085   4.285   1.227   1.733
  360TIP3    H1 1086   4.200   1.199   1.765
  360TIP3    H2 1087   4.287   1.321   1.749
  361TIP3   OH2 1088   2.003   1.388   0.848
  361TIP3    H1 1089   2.052   1.358   0.771
  361TIP3    H2 1090   1.998   1.312   0.905
  362TIP3   OH2 1091   4.633   1.413   2.344
  362TIP3    H1 1092   4.711   1.460   2.315
  362TIP3    H2 1093   4.603   1.365   2.267
  363TIP3   OH2 1094   5.928   4.876   0.567
  363TIP3    H1 1095   5.884   4.827   0.497
  363TIP3    H2 1096   6.021   4.874   0.542
  364TIP3   OH2 1097   1.807   1.274   2.762
  364TIP3    H1 1098   1.774   1.362   2.777
  364TIP3    H2 1099   1.837   1.244   2.848
  365TIP3   OH2 1100   3.822   5.588   5.089
  365TIP3    H1 1101   3.841   5.495   5.100
  365TIP3    H2 1102   3.879   5.617   5.018
  366TIP3   OH2 1103   3.170   3.752   4.969
  366TIP3    H1 1104   3.100   3.778   4.910
  366TIP3    H2 1105   3.145   3.788   5.054
  367TIP3   OH2 1106   0.732   2.399   3.132
  367TIP3    H1 1107   0.791   2.441   3.069
  367TIP3    H2 1108   0.683   2.336   3.080
  368TIP3   OH2 1109   2.547   3.975   2.403
  368TIP3    H1 1110   2.501   4.057   2.421
  368TIP3    H2 1111   2.568   3.979   2.309
  369TIP3   OH2 1112   6.209   2.882   3.937
  369TIP3    H1 1113   6.124   2.841   3.917
  369TIP3    H2 1114   6.273   2.817   3.908
  370TIP3   OH2 1115   6.042   4.583   4.565
  370TIP3    H1 1116   6.072   4.499   4.530
  370TIP3    H2 1117   5.959   4.562   4.609
  371TIP3   OH2 1118   1.970   0.551   3.189
  371TIP3    H1 1119   1.909   0.589   3.126
  371TIP3    H2 1120   2.023   0.625   3.219
  372TIP3   OH2 1121   3.627   2.328   3.180
  372TIP3    H1 1122   3.656   2.370   3.099
  372TIP3    H2 1123   3.686   2.253   3.191
  373TIP3   OH2 1124   5.991   4.972   4.225
  373TIP3    H1 1125   5.967   4.883   4.200
  373TIP3    H2 1126   5.998   4.968   4.321
  374TIP3   OH2 1127   2.816   1.193   0.981
  374TIP3    H1 1128   2.847   1.139   1.053
  374TIP3    H2 1129   2.720   1.184   0.984
  375TIP3   OH2 1130   0.328   3.855   3.987
  375TIP3    H1 1131   0.386   3.797   4.037
  375TIP3    H2 1132   0.241   3.838   4.022
  376TIP3   OH2 1133   4.253   4.019   3.580
  376TIP3    H1 1134   4.192   3.951   3.606
  376TIP3    H2 1135   4.340   3.981   3.595
  377TIP3   OH2 1136   5.486   2.373   3.625
  377TIP3    H1 1137   5.392   2.353   3.633
  377TIP3    H2 1138   5.495   2.461   3.661
  378TIP3   OH2 1139   4.948   4.687   4.012
  378TIP3    H1 1140   4.883   4.647   4.070
  378TIP3    H2 1141   5.028   4.636   4.028
  379TIP3   OH2 1142   5.536   0.969   2.169
  379TIP3    H1 1143   5.447   1.004   2.180
  379TIP3    H2 1144   5.556   0.928   2.252
  380TIP3   OH2 1145   3.194   3.911   4.259
  380TIP3    H1 1146   3.194   3.984   4.321
  380TIP3    H2 1147   3.197   3.832   4.313
  381TIP3   OH2 1148   2.324   2.279   4.693
  381TIP3    H1 1149   2.304   2.211   4.757
  381TIP3    H2 1150   2.420   2.283   4.692
  382TIP3   OH2 1151   1.732   0.095   2.629
  382TIP3    H1 1152   1.664   0.077   2.564
  382TIP3    H2 1153   1.701   0.174   2.674
  383TIP3   OH2 1154   2.574   1.952   4.952
  383TIP3    H1 1155   2.638   1.907   4.897
  383TIP3    H2 1156   2.621   1.967   5.035
  384TIP3   OH2 1157   0.854   1.185   3.253
  384TIP3    H1 1158   0.936   1.135   3.252
  384TIP3    H2 1159   0.881   1.276   3.256
  385TIP3   OH2 1160   0.576   2.361   1.699
  385TIP3    H1 1161   0.558   2.378   1.607
  385TIP3    H2 1162   0.602   2.269   1.702
  386TIP3   OH2 1163   3.471   1.309   1.443
  386TIP3    H1 1164   3.550   1.283   1.490
  386TIP3    H2 1165   3.406   1.243   1.467
  387TIP3   OH2 1166   4.330   3.812   4.916
  387TIP3    H1 1167   4.365   3.880   4.858
  387TIP3    H2 1168   4.408   3.772   4.955
  388TIP3   OH2 1169   5.411   3.977   4.067
  388TIP3    H1 1170   5.336   3.978   4.126
  388TIP3    H2 1171   5.376   3.947   3.983
  389TIP3   OH2 1172   4.198   3.118   4.774
  389TIP3    H1 1173   4.245   3.066   4.838
  389TIP3    H2 1174   4.186   3.060   4.699
  390TIP3   OH2 1175   4.105   5.887   4.311
  390TIP3    H1 1176   4.157   5.808   4.298
  390TIP3    H2 1177   4.038   5.883   4.243
  391TIP3   OH2 1178   4.705   0.100   2.641
  391TIP3    H1 1179   4.795   0.126   2.625
  391TIP3    H2 1180   4.671   0.077   2.554
  392TIP3   OH2 1181   2.417   2.769   2.714
  392TIP3    H1 1182   2.462   2.822   2.780
  392TIP3    H2 1183   2.426   2.679   2.744
  393TIP3   OH2 1184   5.477   2.610   0.854
  393TIP3    H1 1185   5.390   2.577   0.877
  393TIP3    H2 1186   5.462   2.699   0.823
  394TIP3   OH2 1187   4.742   2.801   1.626
  394TIP3    H1 1188   4.694   2.719   1.638
  394TIP3    H2 1189   4.774   2.797   1.536
  395TIP3   OH2 1190   4.556   1.949   4.318
  395TIP3    H1 1191   4.526   1.954   4.227
  395TIP3    H2 1192   4.481   1.977   4.370
  396TIP3   OH2 1193   1.093   3.546   0.031
  396TIP3    H1 1194   1.015   3.578  -0.013
  396TIP3    H2 1195   1.140   3.625   0.058
  397TIP3   OH2 1196   4.310   4.611   3.372
  397TIP3    H1 1197   4.324   4.602   3.466
  397TIP3    H2 1198   4.215   4.623   3.362
  398TIP3   OH2 1199   5.353   4.434   3.457
  398TIP3    H1 1200   5.325   4.374   3.526
  398TIP3    H2 1201   5.296   4.414   3.383
  399TIP3   OH2 1202   3.453   1.822   2.717
  399TIP3    H1 1203   3.391   1.837   2.645
  399TIP3    H2 1204   3.536   1.853   2.683
  400TIP3   OH2 1205   4.696   4.082   2.435
  400TIP3    H1 1206   4.661   4.165   2.404
  400TIP3    H2 1207   4.735   4.102   2.520
  401TIP3   OH2 1208   3.778   2.432   2.022
  401TIP3    H1 1209   3.854   2.436   2.080
  401TIP3    H2 1210   3.756   2.523   2.005
  402TIP3   OH2 1211   1.596   5.086   1.659
  402TIP3    H1 1212   1.602   5.086   1.754
  402TIP3    H2 1213   1.615   4.995   1.634
  403TIP3   OH2 1214   2.168   1.674   1.385
  403TIP3    H1 1215   2.244   1.639   1.338
  403TIP3    H2 1216   2.174   1.635   1.472
  404TIP3   OH2 1217   4.628   0.519   3.828
  404TIP3    H1 1218   4.671   0.561   3.753
  404TIP3    H2 1219   4.546   0.485   3.791
  405TIP3   OH2 1220   1.356   5.884   0.439
  405TIP3    H1 1221   1.303   5.943   0.492
  405TIP3    H2 1222   1.331   5.796   0.469
  406TIP3   OH2 1223   0.466   2.223   3.959
  406TIP3    H1 1224   0.394   2.165   3.933
  406TIP3    H2 1225   0.508   2.179   4.033
  407TIP3   OH2 1226   3.610   0.537   0.718
  407TIP3    H1 1227   3.552   0.508   0.648
  407TIP3    H2 1228   3.609   0.632   0.713
  408TIP3   OH2 1229   3.106   1.700   2.598
  408TIP3    H1 1230   3.103   1.794   2.613
  408TIP3    H2 1231   3.097   1.690   2.503
  409TIP3   OH2 1232   1.324   1.627   5.013
  409TIP3    H1 1233   1.347   1.601   5.102
  409TIP3    H2 1234   1.408   1.631   4.966
  410TIP3   OH2 1235   2.874   3.640   2.962
  410TIP3    H1 1236   2.893   3.713   3.020
  410TIP3    H2 1237   2.826   3.678   2.888
  411TIP3   OH2 1238   5.250   0.172   4.618
  411TIP3    H1 1239   5.270   0.108   4.687
  411TIP3    H2 1240   5.220   0.119   4.544
  412TIP3   OH2 1241   0.667   2.081   1.738
  412TIP3    H1 1242   0.669   2.043   1.650
  412TIP3    H2 1243   0.758   2.088   1.764
  413TIP3   OH2 1244   0.075   6.005   3.227
  413TIP3    H1 1245   0.007   5.974   3.167
  413TIP3    H2 1246   0.093   5.930   3.284
  414TIP3   OH2 1247   5.993   0.695   3.786
  414TIP3    H1 1248   5.929   0.732   3.846
  414TIP3    H2 1249   6.060   0.657   3.842
  415TIP3   OH2 1250   6.270   3.866   4.325
  415TIP3    H1 1251   6.189   3.915   4.319
  415TIP3    H2 1252   6.254   3.802   4.395
  416TIP3   OH2 1253   5.993   3.123   4.398
  416TIP3    H1 1254   6.035   3.194   4.447
  416TIP3    H2 1255   6.041   3.044   4.425
  417TIP3   OH2 1256   2.803   0.330   4.175
  417TIP3    H1 1257   2.715   0.350   4.208
  417TIP3    H2 1258   2.813   0.389   4.100
  418TIP3   OH2 1259   2.172   0.616   1.601
  418TIP3    H1 1260   2.080   0.634   1.579
  418TIP3    H2 1261   2.188   0.528   1.565
  419TIP3   OH2 1262   4.372   1.758   3.762
  419TIP3    H1 1263   4.396   1.816   3.835
  419TIP3    H2 1264   4.328   1.816   3.700
  420TIP3   OH2 1265   0.880   4.639   0.097
  420TIP3    H1 1266   0.849   4.565   0.045
  420TIP3    H2 1267   0.976   4.632   0.093
  421TIP3   OH2 1268   3.653   0.824   3.944
  421TIP3    H1 1269   3.733   0.865   3.909
  421TIP3    H2 1270   3.594   0.898   3.959
  422TIP3   OH2 1271   1.058   2.457   0.923
  422TIP3    H1 1272   1.121   2.433   0.991
  422TIP3    H2 1273   0.973   2.452   0.966
  423TIP3   OH2 1274   5.353   1.672   0.078
  423TIP3    H1 1275   5.309   1.602   0.126
  423TIP3    H2 1276   5.389   1.729   0.146
  424TIP3   OH2 1277   5.285   3.746   2.014
  424TIP3    H1 1278   5.354   3.799   2.054
  424TIP3    H2 1279   5.222   3.809   1.980
  425TIP3   OH2 1280   0.759   1.342   4.094
  425TIP3    H1 1281   0.746   1.292   4.014
  425TIP3    H2 1282   0.696   1.413   4.089
  426TIP3   OH2 1283   6.041   0.479   4.993
  426TIP3    H1 1284   5.971   0.432   5.038
  426TIP3    H2 1285   6.097   0.512   5.063
  427TIP3   OH2 1286   0.310   3.626   1.113
  427TIP3    H1 1287   0.260   3.562   1.164
  427TIP3    H2 1288   0.401   3.606   1.133
  428TIP3   OH2 1289   4.609   4.840   4.052
  428TIP3    H1 1290   4.667   4.802   3.987
  428TIP3    H2 1291   4.665   4.896   4.105
  429TIP3   OH2 1292   2.263   2.967   4.973
  429TIP3    H1 1293   2.220   2.985   4.890
  429TIP3    H2 1294   2.329   3.035   4.981
  430TIP3   OH2 1295   4.700   3.834   3.187
  430TIP3    H1 1296   4.732   3.885   3.261
  430TIP3    H2 1297   4.717   3.743   3.211
  431TIP3   OH2 1298   5.286   3.049   5.045
  431TIP3    H1 1299   5.190   3.054   5.047
  431TIP3    H2 1300   5.311   3.120   4.986
  432TIP3   OH2 1301   5.712   5.883   4.394
  432TIP3    H1 1302   5.771   5.856   4.465
  432TIP3    H2 1303   5.728   5.977   4.384
  433TIP3   OH2 1304   1.562   0.331   0.729
  433TIP3    H1 1305   1.494   0.295   0.671
  433TIP3    H2 1306   1.546   0.426   0.728
  434TIP3   OH2 1307   6.174   1.541   0.074
  434TIP3    H1 1308   6.165   1.605   0.145
  434TIP3    H2 1309   6.105   1.563   0.012
  435TIP3   OH2 1310   0.958   4.990   2.953
  435TIP3    H1 1311   0.930   5.082   2.949
  435TIP3    H2 1312   1.045   4.994   2.993
  436TIP3   OH2 1313   4.088   4.324   4.534
  436TIP3    H1 1314   4.001   4.285   4.536
  436TIP3    H2 1315   4.132   4.282   4.460
  437TIP3   OH2 1316   2.857   1.956   2.562
  437TIP3    H1 1317   2.791   1.888   2.549
  437TIP3    H2 1318   2.892   1.940   2.649
  438TIP3   OH2 1319   5.592   5.410   1.822
  438TIP3    H1 1320   5.683   5.429   1.847
  438TIP3    H2 1321   5.556   5.362   1.897
  439TIP3   OH2 1322   2.063   5.734   3.779
  439TIP3    H1 1323   2.057   5.826   3.755
  439TIP3    H2 1324   2.156   5.720   3.798
  440TIP3   OH2 1325   5.038   1.839   4.462
  440TIP3    H1 1326   4.971   1.814   4.526
  440TIP3    H2 1327   5.114   1.785   4.484
  441TIP3   OH2 1328   0.271   0.295   1.915
  441TIP3    H1 1329   0.190   0.307   1.965
  441TIP3    H2 1330   0.305   0.384   1.903
  442TIP3   OH2 1331   4.441   3.700   4.128
  442TIP3    H1 1332   4.428   3.605   4.120
  442TIP3    H2 1333   4.514   3.719   4.069
  443TIP3   OH2 1334   4.361   0.722   0.057
  443TIP3    H1 1335   4.336   0.699   0.146
  443TIP3    H2 1336   4.342   0.816   0.051
  444TIP3   OH2 1337   2.884   3.226   1.360
  444TIP3    H1 1338   2.822   3.176   1.412
  444TIP3    H2 1339   2.929   3.162   1.306
  445TIP3   OH2 1340   5.770   3.046   2.101
  445TIP3    H1 1341   5.709   3.020   2.169
  445TIP3    H2 1342   5.770   2.974   2.039
  446TIP3   OH2 1343   6.085   3.949   5.127
  446TIP3    H1 1344   6.073   4.044   5.120
  446TIP3    H2 1345   6.032   3.914   5.055
  447TIP3   OH2 1346   1.588   5.005   1.915
  447TIP3    H1 1347   1.550   4.917   1.920
  447TIP3    H2 1348   1.594   5.034   2.006
  448TIP3   OH2 1349   1.970   5.891   0.984
  448TIP3    H1 1350   1.946   5.891   1.077
  448TIP3    H2 1351   1.900   5.843   0.941
  449TIP3   OH2 1352   3.671   0.084   3.891
  449TIP3    H1 1353   3.626   0.076   3.807
  449TIP3    H2 1354   3.679  -0.006   3.922
  450TIP3   OH2 1355   0.904   2.749   3.216
  450TIP3    H1 1356   0.841   2.801   3.266
  450TIP3    H2 1357   0.909   2.666   3.262
  451TIP3   OH2 1358   3.214   2.334   1.609
  451TIP3    H1 1359   3.171   2.367   1.688
  451TIP3    H2 1360   3.296   2.294   1.641
  452TIP3   OH2 1361   1.358   3.205   0.930
  452TIP3    H1 1362   1.426   3.211   0.863
  452TIP3    H2 1363   1.276   3.196   0.881
  453TIP3   OH2 1364   0.089   2.245   0.860
  453TIP3    H1 1365   0.003   2.278   0.837
  453TIP3    H2 1366   0.127   2.314   0.916
  454TIP3   OH2 1367   1.007   5.392   3.565
  454TIP3    H1 1368   1.023   5.422   3.654
  454TIP3    H2 1369   1.068   5.443   3.511
  455TIP3   OH2 1370   1.049   3.081   0.198
  455TIP3    H1 1371   0.982   3.150   0.191
  455TIP3    H2 1372   1.057   3.067   0.293
  456TIP3   OH2 1373   2.505   2.715   4.051
  456TIP3    H1 1374   2.433   2.694   3.992
  456TIP3    H2 1375   2.535   2.629   4.083
  457TIP3   OH2 1376   4.800   5.955   0.615
  457TIP3    H1 1377   4.850   5.933   0.536
  457TIP3    H2 1378   4.759   6.039   0.595
  458TIP3   OH2 1379   0.102   5.656   1.976
  458TIP3    H1 1380   0.051   5.619   2.048
  458TIP3    H2 1381   0.100   5.751   1.991
  459TIP3   OH2 1382   5.991   1.008   1.150
  459TIP3    H1 1383   5.985   0.971   1.062
  459TIP3    H2 1384   5.902   1.001   1.185
  460TIP3   OH2 1385   1.865   2.366   3.614
  460TIP3    H1 1386   1.942   2.309   3.624
  460TIP3    H2 1387   1.890   2.428   3.546
  461TIP3   OH2 1388   5.207   5.733   4.376
  461TIP3    H1 1389   5.125   5.734   4.425
  461TIP3    H2 1390   5.264   5.795   4.422
  462TIP3   OH2 1391   3.156   0.572   5.180
  462TIP3    H1 1392   3.180   0.659   5.147
  462TIP3    H2 1393   3.158   0.516   5.103
  463TIP3   OH2 1394   3.285   2.354   3.117
  463TIP3    H1 1395   3.251   2.339   3.205
  463TIP3    H2 1396   3.265   2.273   3.069
  464TIP3   OH2 1397   2.989   5.522   0.955
  464TIP3    H1 1398   3.010   5.566   0.872
  464TIP3    H2 1399   2.954   5.437   0.929
  465TIP3   OH2 1400   2.157   5.006   4.377
  465TIP3    H1 1401   2.105   4.964   4.446
  465TIP3    H2 1402   2.215   5.066   4.424
  466TIP3   OH2 1403   2.903   4.236   4.986
  466TIP3    H1 1404   2.840   4.189   5.040
  466TIP3    H2 1405   2.867   4.324   4.977
  467TIP3   OH2 1406   2.194   0.340   4.094
  467TIP3    H1 1407   2.153   0.298   4.018
  467TIP3    H2 1408   2.153   0.427   4.099
  468TIP3   OH2 1409   4.551   0.701   0.301
  468TIP3    H1 1410   4.468   0.737   0.334
  468TIP3    H2 1411   4.577   0.761   0.231
  469TIP3   OH2 1412   4.352   0.538   2.262
  469TIP3    H1 1413   4.367   0.448   2.292
  469TIP3    H2 1414   4.370   0.592   2.339
  470TIP3   OH2 1415   3.626   4.220   1.005
  470TIP3    H1 1416   3.540   4.258   1.024
  470TIP3    H2 1417   3.657   4.268   0.928
  471TIP3   OH2 1418   3.740   2.807   2.653
  471TIP3    H1 1419   3.670   2.750   2.686
  471TIP3    H2 1420   3.696   2.864   2.590
  472TIP3   OH2 1421   5.653   5.876   1.830
  472TIP3    H1 1422   5.576   5.828   1.862
  472TIP3    H2 1423   5.692   5.818   1.765
  473TIP3   OH2 1424   5.974   2.713   4.441
  473TIP3    H1 1425   5.934   2.723   4.527
  473TIP3    H2 1426   5.920   2.646   4.398
  474TIP3   OH2 1427   0.659   4.486   3.946
  474TIP3    H1 1428   0.617   4.405   3.976
  474TIP3    H2 1429   0.642   4.550   4.016
  475TIP3   OH2 1430   2.764   1.409   2.519
  475TIP3    H1 1431   2.825   1.420   2.592
  475TIP3    H2 1432   2.698   1.348   2.553
  476TIP3   OH2 1433   0.405   3.429   1.458
  476TIP3    H1 1434   0.359   3.468   1.383
  476TIP3    H2 1435   0.397   3.335   1.444
  477TIP3   OH2 1436   2.508   1.543   4.303
  477TIP3    H1 1437   2.531   1.636   4.297
  477TIP3    H2 1438   2.535   1.507   4.218
  478TIP3   OH2 1439   1.161   2.485   0.596
  478TIP3    H1 1440   1.197   2.412   0.546
  478TIP3    H2 1441   1.123   2.543   0.530
  479TIP3   OH2 1442   0.906   4.466   3.825
  479TIP3    H1 1443   0.937   4.557   3.826
  479TIP3    H2 1444   0.828   4.467   3.881
  480TIP3   OH2 1445   2.537   4.217   0.354
  480TIP3    H1 1446   2.519   4.127   0.325
  480TIP3    H2 1447   2.615   4.243   0.305
  481TIP3   OH2 1448   3.228   3.715   2.838
  481TIP3    H1 1449   3.276   3.712   2.920
  481TIP3    H2 1450   3.160   3.648   2.848
  482TIP3   OH2 1451   2.054   1.202   2.632
  482TIP3    H1 1452   2.039   1.107   2.634
  482TIP3    H2 1453   1.969   1.239   2.654
  483TIP3   OH2 1454   5.253   2.538   0.662
  483TIP3    H1 1455   5.230   2.627   0.635
  483TIP3    H2 1456   5.216   2.529   0.750
  484TIP3   OH2 1457   5.121   2.183   2.389
  484TIP3    H1 1458   5.087   2.153   2.473
  484TIP3    H2 1459   5.170   2.263   2.411
  485TIP3   OH2 1460   1.411   1.621   2.062
  485TIP3    H1 1461   1.327   1.666   2.072
  485TIP3    H2 1462   1.430   1.625   1.968
  486TIP3   OH2 1463   0.527   0.925   3.249
  486TIP3    H1 1464   0.551   0.890   3.163
  486TIP3    H2 1465   0.447   0.878   3.273
  487TIP3   OH2 1466   1.802   1.197   1.280
  487TIP3    H1 1467   1.878   1.183   1.224
  487TIP3    H2 1468   1.798   1.118   1.335
  488TIP3   OH2 1469   1.128   1.629   3.902
  488TIP3    H1 1470   1.191   1.557   3.901
  488TIP3    H2 1471   1.178   1.703   3.936
  489TIP3   OH2 1472   5.130   0.996   4.577
  489TIP3    H1 1473   5.154   1.084   4.548
  489TIP3    H2 1474   5.193   0.975   4.646
  490TIP3   OH2 1475   0.661   4.211   1.324
  490TIP3    H1 1476   0.706   4.280   1.374
  490TIP3    H2 1477   0.704   4.212   1.238
  491TIP3   OH2 1478   6.093   4.476   3.918
  491TIP3    H1 1479   6.174   4.436   3.887
  491TIP3    H2 1480   6.076   4.433   4.002
  492TIP3   OH2 1481   1.298   0.165   2.035
  492TIP3    H1 1482   1.378   0.186   2.084
  492TIP3    H2 1483   1.293   0.234   1.968
  493TIP3   OH2 1484   2.634   0.348   3.602
  493TIP3    H1 1485   2.721   0.330   3.566
  493TIP3    H2 1486   2.619   0.277   3.664
  494TIP3   OH2 1487   0.934   4.599   1.939
  494TIP3    H1 1488   0.914   4.646   2.020
  494TIP3    H2 1489   1.024   4.566   1.952
  495TIP3   OH2 1490   0.487   1.784   0.234
  495TIP3    H1 1491   0.537   1.863   0.214
  495TIP3    H2 1492   0.396   1.814   0.241
  496TIP3   OH2 1493   1.482   0.920   4.540
  496TIP3    H1 1494   1.395   0.905   4.503
  496TIP3    H2 1495   1.470   0.994   4.600
  497TIP3   OH2 1496   0.582   1.910   2.270
  497TIP3    H1 1497   0.499   1.923   2.225
  497TIP3    H2 1498   0.557   1.890   2.360
  498TIP3   OH2 1499   0.647   3.924   3.152
  498TIP3    H1 1500   0.738   3.948   3.172
  498TIP3    H2 1501   0.602   4.008   3.141
  499TIP3   OH2 1502   6.208   5.460   0.730
  499TIP3    H1 1503   6.158   5.382   0.708
  499TIP3    H2 1504   6.281   5.460   0.668
  500TIP3   OH2 1505   2.827   4.659   1.610
  500TIP3    H1 1506   2.846   4.625   1.697
  500TIP3    H2 1507   2.893   4.727   1.595
  501TIP3   OH2 1508   1.808   0.456   1.623
  501TIP3    H1 1509   1.743   0.389   1.646
  501TIP3    H2 1510   1.839   0.489   1.707
  502TIP3   OH2 1511   1.233   5.774   5.196
  502TIP3    H1 1512   1.243   5.838   5.266
  502TIP3    H2 1513   1.168   5.812   5.137
  503TIP3   OH2 1514   2.853   4.451   0.781
  503TIP3    H1 1515   2.892   4.507   0.713
  503TIP3    H2 1516   2.924   4.392   0.807
  504TIP3   OH2 1517   1.594   4.385   4.729
  504TIP3    H1 1518   1.591   4.314   4.666
  504TIP3    H2 1519   1.527   4.364   4.794
  505TIP3   OH2 1520   2.235   3.299   0.786
  505TIP3    H1 1521   2.246   3.206   0.802
  505TIP3    H2 1522   2.290   3.342   0.851
  506TIP3   OH2 1523   0.727   4.174   1.744
  506TIP3    H1 1524   0.807   4.120   1.740
  506TIP3    H2 1525   0.760   4.263   1.756
  507TIP3   OH2 1526   2.446   2.933   1.521
  507TIP3    H1 1527   2.391   2.975   1.586
  507TIP3    H2 1528   2.515   2.890   1.571
  508TIP3   OH2 1529   5.713   3.234   5.092
  508TIP3    H1 1530   5.692   3.142   5.077
  508TIP3    H2 1531   5.635   3.282   5.063
  509TIP3   OH2 1532   6.190   0.837   3.499
  509TIP3    H1 1533   6.096   0.847   3.516
  509TIP3    H2 1534   6.224   0.792   3.576
  510TIP3   OH2 1535   4.312   5.998   3.107
  510TIP3    H1 1536   4.256   6.008   3.030
  510TIP3    H2 1537   4.298   5.907   3.134
  511TIP3   OH2 1538   6.332   3.586   1.108
  511TIP3    H1 1539   6.371   3.629   1.032
  511TIP3    H2 1540   6.247   3.630   1.119
  512TIP3   OH2 1541   1.947   0.543   1.330
  512TIP3    H1 1542   1.916   0.588   1.408
  512TIP3    H2 1543   1.978   0.458   1.361
  513TIP3   OH2 1544   2.911   1.076   1.218
  513TIP3    H1 1545   2.833   1.091   1.272
  513TIP3    H2 1546   2.948   0.994   1.250
  514TIP3   OH2 1547   3.498   4.298   3.471
  514TIP3    H1 1548   3.426   4.329   3.525
  514TIP3    H2 1549   3.468   4.213   3.438
  515TIP3   OH2 1550   0.590   1.721   4.637
  515TIP3    H1 1551   0.633   1.702   4.554
  515TIP3    H2 1552   0.656   1.704   4.704
  516TIP3   OH2 1553   0.851   5.046   0.319
  516TIP3    H1 1554   0.824   5.027   0.229
  516TIP3    H2 1555   0.787   5.110   0.350
  517TIP3   OH2 1556   2.190   2.581   0.903
  517TIP3    H1 1557   2.154   2.568   0.816
  517TIP3    H2 1558   2.278   2.544   0.898
  518TIP3   OH2 1559   0.182   0.406   0.734
  518TIP3    H1 1560   0.109   0.458   0.768
  518TIP3    H2 1561   0.232   0.466   0.679
  519TIP3   OH2 1562   1.275   5.535   3.123
  519TIP3    H1 1563   1.338   5.466   3.146
  519TIP3    H2 1564   1.197   5.487   3.094
  520TIP3   OH2 1565   5.915   5.179   1.588
  520TIP3    H1 1566   5.949   5.255   1.634
  520TIP3    H2 1567   5.962   5.105   1.625
  521TIP3   OH2 1568   0.201   3.682   2.978
  521TIP3    H1 1569   0.147   3.703   2.902
  521TIP3    H2 1570   0.139   3.680   3.052
  522TIP3   OH2 1571   6.307   1.677   3.785
  522TIP3    H1 1572   6.369   1.642   3.721
  522TIP3    H2 1573   6.276   1.600   3.833
  523TIP3   OH2 1574   5.629   0.443   0.082
  523TIP3    H1 1575   5.669   0.530   0.076
  523TIP3    H2 1576   5.702   0.384   0.096
  524TIP3   OH2 1577   5.580   5.017   1.115
  524TIP3    H1 1578   5.629   5.059   1.044
  524TIP3    H2 1579   5.609   4.926   1.112
  525TIP3   OH2 1580   3.524   3.268   2.525
  525TIP3    H1 1581   3.620   3.273   2.533
  525TIP3    H2 1582   3.497   3.212   2.598
  526TIP3   OH2 1583   2.462   5.398   5.149
  526TIP3    H1 1584   2.446   5.455   5.074
  526TIP3    H2 1585   2.469   5.456   5.224
  527TIP3   OH2 1586   1.535   2.641   0.113
  527TIP3    H1 1587   1.575   2.636   0.027
  527TIP3    H2 1588   1.474   2.567   0.116
  528TIP3   OH2 1589   1.783   3.134   0.759
  528TIP3    H1 1590   1.847   3.202   0.737
  528TIP3    H2 1591   1.836   3.056   0.778
  529TIP3   OH2 1592   5.910   5.149   2.186
  529TIP3    H1 1593   5.885   5.064   2.221
  529TIP3    H2 1594   5.838   5.207   2.210
  530TIP3   OH2 1595   3.135   2.568   0.342
  530TIP3    H1 1596   3.154   2.577   0.249
  530TIP3    H2 1597   3.177   2.644   0.383
  531TIP3   OH2 1598   0.718   0.627   4.000
  531TIP3    H1 1599   0.733   0.704   3.946
  531TIP3    H2 1600   0.708   0.555   3.938
  532TIP3   OH2 1601   5.822   3.682   3.722
  532TIP3    H1 1602   5.878   3.623   3.772
  532TIP3    H2 1603   5.792   3.747   3.786
  533TIP3   OH2 1604   1.069   4.665   1.686
  533TIP3    H1 1605   1.007   4.593   1.676
  533TIP3    H2 1606   1.040   4.711   1.765
  534TIP3   OH2 1607   5.628   0.322   2.619
  534TIP3    H1 1608   5.536   0.347   2.612
  534TIP3    H2 1609   5.661   0.374   2.693
  535TIP3   OH2 1610   0.606   0.070   3.720
  535TIP3    H1 1611   0.676   0.119   3.676
  535TIP3    H2 1612   0.551   0.138   3.760
  536TIP3   OH2 1613   2.058   1.247   0.313
  536TIP3    H1 1614   2.052   1.244   0.218
  536TIP3    H2 1615   1.997   1.316   0.339
  537TIP3   OH2 1616   2.346   0.817   5.166
  537TIP3    H1 1617   2.257   0.850   5.172
  537TIP3    H2 1618   2.356   0.758   5.242
  538TIP3   OH2 1619   5.529   5.205   4.526
  538TIP3    H1 1620   5.476   5.283   4.512
  538TIP3    H2 1621   5.469   5.142   4.566
  539TIP3   OH2 1622   3.889   0.836   1.510
  539TIP3    H1 1623   3.816   0.877   1.463
  539TIP3    H2 1624   3.846   0.778   1.574
  540TIP3   OH2 1625   5.567   3.388   3.495
  540TIP3    H1 1626   5.520   3.469   3.517
  540TIP3    H2 1627   5.507   3.318   3.519
  541TIP3   OH2 1628   0.174   1.070   2.767
  541TIP3    H1 1629   0.189   0.991   2.715
  541TIP3    H2 1630   0.227   1.058   2.846
  542TIP3   OH2 1631   0.249   1.696   2.265
  542TIP3    H1 1632   0.290   1.781   2.256
  542TIP3    H2 1633   0.297   1.639   2.204
  543TIP3   OH2 1634   3.708   2.958   0.848
  543TIP3    H1 1635   3.699   2.906   0.928
  543TIP3    H2 1636   3.674   3.044   0.871
  544TIP3   OH2 1637   5.505   5.116   1.659
  544TIP3    H1 1638   5.493   5.088   1.568
  544TIP3    H2 1639   5.598   5.137   1.665
  545TIP3   OH2 1640   2.638   1.302   4.381
  545TIP3    H1 1641   2.609   1.388   4.411
  545TIP3    H2 1642   2.574   1.241   4.417
  546TIP3   OH2 1643   0.360   4.957   0.110
  546TIP3    H1 1644   0.330   4.979   0.022
  546TIP3    H2 1645   0.327   4.868   0.126
  547TIP3   OH2 1646   5.457   1.764   2.072
  547TIP3    H1 1647   5.484   1.790   2.160
  547TIP3    H2 1648   5.365   1.787   2.067
  548TIP3   OH2 1649   6.079   5.832   1.482
  548TIP3    H1 1650   6.028   5.840   1.402
  548TIP3    H2 1651   6.120   5.745   1.476
  549TIP3   OH2 1652   4.451   4.301   3.619
  549TIP3    H1 1653   4.437   4.395   3.632
  549TIP3    H2 1654   4.404   4.282   3.538
  550TIP3   OH2 1655   5.406   0.743   3.207
  550TIP3    H1 1656   5.359   0.805   3.151
  550TIP3    H2 1657   5.350   0.666   3.211
  551TIP3   OH2 1658   5.761   3.432   0.736
  551TIP3    H1 1659   5.770   3.527   0.736
  551TIP3    H2 1660   5.850   3.399   0.745
  552TIP3   OH2 1661   2.600   3.706   0.405
  552TIP3    H1 1662   2.653   3.727   0.329
  552TIP3    H2 1663   2.573   3.791   0.440
  553TIP3   OH2 1664   4.137   2.315   4.707
  553TIP3    H1 1665   4.143   2.282   4.797
  553TIP3    H2 1666   4.227   2.334   4.682
  554TIP3   OH2 1667   3.248   5.233   4.380
  554TIP3    H1 1668   3.253   5.160   4.443
  554TIP3    H2 1669   3.154   5.245   4.366
  555TIP3   OH2 1670   4.621   1.338   1.077
  555TIP3    H1 1671   4.632   1.433   1.080
  555TIP3    H2 1672   4.711   1.304   1.074
  556TIP3   OH2 1673   1.585   4.379   5.147
  556TIP3    H1 1674   1.568   4.433   5.070
  556TIP3    H2 1675   1.520   4.309   5.143
  557TIP3   OH2 1676   1.334   3.298   2.006
  557TIP3    H1 1677   1.259   3.348   2.037
  557TIP3    H2 1678   1.390   3.289   2.083
  558TIP3   OH2 1679   2.895   0.623   0.496
  558TIP3    H1 1680   2.965   0.559   0.479
  558TIP3    H2 1681   2.936   0.708   0.481
  559TIP3   OH2 1682   3.491   0.166   3.326
  559TIP3    H1 1683   3.515   0.127   3.242
  559TIP3    H2 1684   3.468   0.092   3.381
  560TIP3   OH2 1685   3.641   2.418   4.797
  560TIP3    H1 1686   3.646   2.450   4.707
  560TIP3    H2 1687   3.687   2.485   4.849
  561TIP3   OH2 1688   0.685   0.056   1.886
  561TIP3    H1 1689   0.770   0.098   1.896
  561TIP3    H2 1690   0.704  -0.038   1.893
  562TIP3   OH2 1691   3.257   0.843   5.120
  562TIP3    H1 1692   3.249   0.880   5.032
  562TIP3    H2 1693   3.220   0.910   5.177
  563TIP3   OH2 1694   0.573   0.107   4.377
  563TIP3    H1 1695   0.541   0.084   4.290
  563TIP3    H2 1696   0.526   0.049   4.437
  564TIP3   OH2 1697   0.779   0.510   2.076
  564TIP3    H1 1698   0.854   0.489   2.131
  564TIP3    H2 1699   0.800   0.472   1.991
  565TIP3   OH2 1700   0.270   1.980   1.495
  565TIP3    H1 1701   0.251   2.059   1.443
  565TIP3    H2 1702   0.294   2.014   1.582
  566TIP3   OH2 1703   1.956   3.070   4.747
  566TIP3    H1 1704   1.871   3.075   4.703
  566TIP3    H2 1705   1.950   2.991   4.801
  567TIP3   OH2 1706   4.469   5.732   4.798
  567TIP3    H1 1707   4.508   5.651   4.832
  567TIP3    H2 1708   4.423   5.769   4.873
  568TIP3   OH2 1709   5.743   2.706   1.383
  568TIP3    H1 1710   5.805   2.779   1.379
  568TIP3    H2 1711   5.677   2.727   1.317
  569TIP3   OH2 1712   5.454   4.862   3.302
  569TIP3    H1 1713   5.522   4.810   3.345
  569TIP3    H2 1714   5.404   4.799   3.251
  570TIP3   OH2 1715   3.278   1.190   4.131
  570TIP3    H1 1716   3.314   1.102   4.137
  570TIP3    H2 1717   3.192   1.179   4.090
  571TIP3   OH2 1718   5.345   4.905   3.547
  571TIP3    H1 1719   5.261   4.861   3.565
  571TIP3    H2 1720   5.366   4.880   3.457
  572TIP3   OH2 1721   5.293   5.368   0.473
  572TIP3    H1 1722   5.321   5.432   0.408
  572TIP3    H2 1723   5.229   5.414   0.527
  573TIP3   OH2 1724   3.751   3.094   4.722
  573TIP3    H1 1725   3.712   3.010   4.697
  573TIP3    H2 1726   3.800   3.122   4.645
  574TIP3   OH2 1727   1.957   0.454   2.873
  574TIP3    H1 1728   1.957   0.544   2.907
  574TIP3    H2 1729   1.993   0.402   2.944
  575TIP3   OH2 1730   6.010   5.299   0.598
  575TIP3    H1 1731   5.933   5.243   0.585
  575TIP3    H2 1732   5.994   5.375   0.542
  576TIP3   OH2 1733   5.463   4.893   2.048
  576TIP3    H1 1734   5.426   4.870   2.133
  576TIP3    H2 1735   5.502   4.811   2.016
  577TIP3   OH2 1736   2.196   3.188   2.774
  577TIP3    H1 1737   2.128   3.124   2.751
  577TIP3    H2 1738   2.159   3.238   2.846
  578TIP3   OH2 1739   5.128   1.040   3.592
  578TIP3    H1 1740   5.072   1.112   3.621
  578TIP3    H2 1741   5.071   0.962   3.596
  579TIP3   OH2 1742   1.963   3.796   2.573
  579TIP3    H1 1743   1.973   3.758   2.486
  579TIP3    H2 1744   2.026   3.749   2.628
  580TIP3   OH2 1745   4.163   5.085   1.942
  580TIP3    H1 1746   4.247   5.116   1.976
  580TIP3    H2 1747   4.104   5.160   1.951
  581TIP3   OH2 1748   3.447   0.426   0.497
  581TIP3    H1 1749   3.431   0.456   0.407
  581TIP3    H2 1750   3.497   0.345   0.487
  582TIP3   OH2 1751   6.093   3.774   2.733
  582TIP3    H1 1752   6.028   3.779   2.663
  582TIP3    H2 1753   6.045   3.801   2.812
  583TIP3   OH2 1754   1.065   5.790   2.326
  583TIP3    H1 1755   1.008   5.795   2.249
  583TIP3    H2 1756   1.154   5.791   2.290
  584TIP3   OH2 1757   3.248   5.494   0.459
  584TIP3    H1 1758   3.259   5.399   0.450
  584TIP3    H2 1759   3.270   5.529   0.373
  585TIP3   OH2 1760   4.006   1.272   3.885
  585TIP3    H1 1761   4.024   1.181   3.860
  585TIP3    H2 1762   3.965   1.311   3.808
  586TIP3   OH2 1763   0.071   0.119   1.803
  586TIP3    H1 1764   0.073   0.057   1.876
  586TIP3    H2 1765   0.152   0.169   1.812
  587TIP3   OH2 1766   5.344   2.927   3.473
  587TIP3    H1 1767   5.289   2.868   3.525
  587TIP3    H2 1768   5.321   2.905   3.382
  588TIP3   OH2 1769   5.271   2.123   3.154
  588TIP3    H1 1770   5.235   2.141   3.240
  588TIP3    H2 1771   5.201   2.147   3.093
  589TIP3   OH2 1772   6.275   0.782   1.621
  589TIP3    H1 1773   6.211   0.817   1.682
  589TIP3    H2 1774   6.360   0.808   1.658
  590TIP3   OH2 1775   4.285   2.779   4.741
  590TIP3    H1 1776   4.263   2.858   4.692
  590TIP3    H2 1777   4.208   2.724   4.735
  591TIP3   OH2 1778   3.030   4.564   4.446
  591TIP3    H1 1779   3.105   4.528   4.398
  591TIP3    H2 1780   3.014   4.501   4.517
  592TIP3   OH2 1781   1.855   0.805   3.542
  592TIP3    H1 1782   1.929   0.854   3.578
  592TIP3    H2 1783   1.777   0.851   3.572
  593TIP3   OH2 1784   2.723   0.707   2.169
  593TIP3    H1 1785   2.791   0.708   2.236
  593TIP3    H2 1786   2.643   0.733   2.214
  594TIP3   OH2 1787   6.155   5.627   4.842
  594TIP3    H1 1788   6.070   5.584   4.843
  594TIP3    H2 1789   6.201   5.592   4.918
  595TIP3   OH2 1790   3.126   0.736   0.837
  595TIP3    H1 1791   3.034   0.719   0.857
  595TIP3    H2 1792   3.157   0.657   0.793
  596TIP3   OH2 1793   0.640   2.895   0.867
  596TIP3    H1 1794   0.705   2.963   0.847
  596TIP3    H2 1795   0.668   2.819   0.816
  597TIP3   OH2 1796   3.635   3.736   5.205
  597TIP3    H1 1797   3.621   3.736   5.300
  597TIP3    H2 1798   3.546   3.733   5.168
  598TIP3   OH2 1799   1.325   5.448   2.614
  598TIP3    H1 1800   1.282   5.441   2.529
  598TIP3    H2 1801   1.418   5.456   2.593
  599TIP3   OH2 1802   1.433   0.386   4.558
  599TIP3    H1 1803   1.461   0.468   4.515
  599TIP3    H2 1804   1.369   0.414   4.623
  600TIP3   OH2 1805   2.895   0.571   4.967
  600TIP3    H1 1806   2.928   0.629   4.898
  600TIP3    H2 1807   2.826   0.621   5.009
  601TIP3   OH2 1808   1.586   4.908   0.644
  601TIP3    H1 1809   1.531   4.829   0.641
  601TIP3    H2 1810   1.527   4.979   0.618
  602TIP3   OH2 1811   0.087   4.350   0.790
  602TIP3    H1 1812   0.048   4.437   0.777
  602TIP3    H2 1813   0.124   4.353   0.878
  603TIP3   OH2 1814   3.615   0.949   2.012
  603TIP3    H1 1815   3.604   0.860   1.977
  603TIP3    H2 1816   3.540   0.998   1.980
  604TIP3   OH2 1817   2.993   0.944   3.213
  604TIP3    H1 1818   2.914   0.931   3.266
  604TIP3    H2 1819   3.025   0.856   3.196
  605TIP3   OH2 1820   5.893   0.846   2.673
  605TIP3    H1 1821   5.800   0.860   2.692
  605TIP3    H2 1822   5.938   0.869   2.754
  606TIP3   OH2 1823   5.379   1.325   3.170
  606TIP3    H1 1824   5.347   1.369   3.249
  606TIP3    H2 1825   5.459   1.281   3.197
  607TIP3   OH2 1826   5.894   1.480   5.019
  607TIP3    H1 1827   5.920   1.549   5.081
  607TIP3    H2 1828   5.977   1.437   4.996
  608TIP3   OH2 1829   2.636   5.605   1.351
  608TIP3    H1 1830   2.723   5.597   1.311
  608TIP3    H2 1831   2.641   5.685   1.403
  609TIP3   OH2 1832   1.741   4.025   3.801
  609TIP3    H1 1833   1.762   3.955   3.738
  609TIP3    H2 1834   1.782   4.103   3.764
  610TIP3   OH2 1835   0.418   0.193   0.526
  610TIP3    H1 1836   0.331   0.161   0.549
  610TIP3    H2 1837   0.448   0.238   0.605
  611TIP3   OH2 1838   1.543   3.894   5.042
  611TIP3    H1 1839   1.569   3.939   4.962
  611TIP3    H2 1840   1.592   3.938   5.111
  612TIP3   OH2 1841   5.768   3.864   2.241
  612TIP3    H1 1842   5.677   3.840   2.259
  612TIP3    H2 1843   5.786   3.936   2.303
  613TIP3   OH2 1844   5.565   5.625   4.514
  613TIP3    H1 1845   5.566   5.599   4.606
  613TIP3    H2 1846   5.492   5.576   4.477
  614TIP3   OH2 1847   5.427   3.053   2.148
  614TIP3    H1 1848   5.391   3.119   2.208
  614TIP3    H2 1849   5.402   2.969   2.186
  615TIP3   OH2 1850   4.635   2.739   3.634
  615TIP3    H1 1851   4.573   2.806   3.663
  615TIP3    H2 1852   4.696   2.787   3.578
  616TIP3   OH2 1853   2.252   6.032   3.031
  616TIP3    H1 1854   2.161   6.010   3.010
  616TIP3    H2 1855   2.248   6.071   3.118
  617TIP3   OH2 1856   0.909   5.407   0.908
  617TIP3    H1 1857   0.843   5.475   0.898
  617TIP3    H2 1858   0.861   5.330   0.939
  618TIP3   OH2 1859   1.411   3.508   2.316
  618TIP3    H1 1860   1.493   3.459   2.311
  618TIP3    H2 1861   1.344   3.441   2.330
  619TIP3   OH2 1862   0.941   1.222   4.408
  619TIP3    H1 1863   0.869   1.185   4.357
  619TIP3    H2 1864   0.946   1.313   4.378
  620TIP3   OH2 1865   4.808   1.836   4.629
  620TIP3    H1 1866   4.842   1.776   4.696
  620TIP3    H2 1867   4.715   1.816   4.624
  621TIP3   OH2 1868   6.179   5.001   1.461
  621TIP3    H1 1869   6.247   4.936   1.476
  621TIP3    H2 1870   6.128   5.001   1.542
  622TIP3   OH2 1871   1.237   1.383   3.934
  622TIP3    H1 1872   1.172   1.316   3.911
  622TIP3    H2 1873   1.247   1.376   4.028
  623TIP3   OH2 1874   3.477   2.454   2.943
  623TIP3    H1 1875   3.511   2.370   2.913
  623TIP3    H2 1876   3.414   2.431   3.012
  624TIP3   OH2 1877   4.921   0.370   3.262
  624TIP3    H1 1878   4.982   0.441   3.281
  624TIP3    H2 1879   4.844   0.389   3.315
  625TIP3   OH2 1880   3.388   4.909   2.047
  625TIP3    H1 1881   3.431   4.854   1.981
  625TIP3    H2 1882   3.454   4.923   2.114
  626TIP3   OH2 1883   1.949  -0.022   5.105
  626TIP3    H1 1884   1.864   0.021   5.101
  626TIP3    H2 1885   1.965  -0.053   5.015
  627TIP3   OH2 1886   1.433   3.650   1.486
  627TIP3    H1 1887   1.419   3.573   1.430
  627TIP3    H2 1888   1.345   3.683   1.503
  628TIP3   OH2 1889   5.140   4.551   4.181
  628TIP3    H1 1890   5.149   4.640   4.148
  628TIP3    H2 1891   5.096   4.561   4.266
  629TIP3   OH2 1892   0.430   4.418   4.348
  629TIP3    H1 1893   0.372   4.400   4.422
  629TIP3    H2 1894   0.516   4.431   4.388
  630TIP3   OH2 1895   2.479   0.316   1.536
  630TIP3    H1 1896   2.496   0.230   1.498
  630TIP3    H2 1897   2.566   0.353   1.552
  631TIP3   OH2 1898   4.247   3.699   1.062
  631TIP3    H1 1899   4.301   3.678   0.987
  631TIP3    H2 1900   4.166   3.735   1.025
  632TIP3   OH2 1901   3.543   0.441   4.491
  632TIP3    H1 1902   3.480   0.510   4.474
  632TIP3    H2 1903   3.595   0.436   4.410
  633TIP3   OH2 1904   2.475   5.140   3.737
  633TIP3    H1 1905   2.473   5.093   3.654
  633TIP3    H2 1906   2.443   5.228   3.716
  634TIP3   OH2 1907   5.329   3.549   1.814
  634TIP3    H1 1908   5.313   3.624   1.871
  634TIP3    H2 1909   5.395   3.579   1.752
  635TIP3   OH2 1910   3.635   0.222   0.572
  635TIP3    H1 1911   3.698   0.289   0.598
  635TIP3    H2 1912   3.619   0.172   0.651
  636TIP3   OH2 1913   4.409   2.525   2.298
  636TIP3    H1 1914   4.320   2.502   2.323
  636TIP3    H2 1915   4.465   2.472   2.354
  637TIP3   OH2 1916   1.661   5.194   0.417
  637TIP3    H1 1917   1.576   5.160   0.446
  637TIP3    H2 1918   1.674   5.273   0.469
  638TIP3   OH2 1919   1.987   5.033   5.095
  638TIP3    H1 1920   1.972   5.004   5.185
  638TIP3    H2 1921   2.013   5.125   5.103
  639TIP3   OH2 1922   5.913   1.393   4.511
  639TIP3    H1 1923   5.840   1.347   4.469
  639TIP3    H2 1924   5.888   1.399   4.603
  640TIP3   OH2 1925   5.845   2.863   1.925
  640TIP3    H1 1926   5.834   2.775   1.961
  640TIP3    H2 1927   5.940   2.877   1.926
  641TIP3   OH2 1928   0.122   1.745   4.140
  641TIP3    H1 1929   0.173   1.712   4.066
  641TIP3    H2 1930   0.177   1.814   4.178
  642TIP3   OH2 1931   4.920   4.773   0.647
  642TIP3    H1 1932   4.877   4.706   0.701
  642TIP3    H2 1933   4.982   4.815   0.707
  643TIP3   OH2 1934   3.529   3.885   3.578
  643TIP3    H1 1935   3.463   3.823   3.548
  643TIP3    H2 1936   3.480   3.957   3.617
  644TIP3   OH2 1937   2.326   2.282   2.862
  644TIP3    H1 1938   2.361   2.276   2.951
  644TIP3    H2 1939   2.259   2.213   2.858
  645TIP3   OH2 1940   3.937   1.656   2.348
  645TIP3    H1 1941   3.875   1.726   2.331
  645TIP3    H2 1942   3.898   1.578   2.308
  646TIP3   OH2 1943   5.488   3.216   1.915
  646TIP3    H1 1944   5.569   3.260   1.944
  646TIP3    H2 1945   5.475   3.146   1.979
  647TIP3   OH2 1946   5.689   4.510   0.758
  647TIP3    H1 1947   5.670   4.587   0.812
  647TIP3    H2 1948   5.618   4.507   0.695
  648TIP3   OH2 1949   4.016   2.459   3.631
  648TIP3    H1 1950   4.067   2.394   3.583
  648TIP3    H2 1951   4.034   2.542   3.586
  649TIP3   OH2 1952   2.424   4.510   1.688
  649TIP3    H1 1953   2.436   4.428   1.735
  649TIP3    H2 1954   2.409   4.485   1.597
  650TIP3   OH2 1955   5.780   4.901   1.479
  650TIP3    H1 1956   5.752   4.885   1.569
  650TIP3    H2 1957   5.762   4.993   1.464
  651TIP3   OH2 1958   3.610   5.903   5.062
  651TIP3    H1 1959   3.595   5.985   5.016
  651TIP3    H2 1960   3.564   5.914   5.146
  652TIP3   OH2 1961   2.111   5.226   3.977
  652TIP3    H1 1962   2.132   5.226   3.884
  652TIP3    H2 1963   2.091   5.135   3.998
  653TIP3   OH2 1964   3.451   1.966   1.346
  653TIP3    H1 1965   3.499   1.947   1.266
  653TIP3    H2 1966   3.359   1.953   1.323
  654TIP3   OH2 1967   2.427   2.586   4.827
  654TIP3    H1 1968   2.457   2.632   4.906
  654TIP3    H2 1969   2.481   2.622   4.756
  655TIP3   OH2 1970   4.941   2.375   0.635
  655TIP3    H1 1971   4.957   2.433   0.710
  655TIP3    H2 1972   5.028   2.348   0.607
  656TIP3   OH2 1973   2.494   1.802   0.594
  656TIP3    H1 1974   2.454   1.889   0.599
  656TIP3    H2 1975   2.461   1.756   0.672
  657TIP3   OH2 1976   3.650   2.998   2.489
  657TIP3    H1 1977   3.731   3.004   2.438
  657TIP3    H2 1978   3.581   3.020   2.425
  658TIP3   OH2 1979   1.355   0.702   1.596
  658TIP3    H1 1980   1.326   0.612   1.612
  658TIP3    H2 1981   1.432   0.712   1.653
  659TIP3   OH2 1982   2.472   1.550   3.570
  659TIP3    H1 1983   2.502   1.549   3.661
  659TIP3    H2 1984   2.380   1.527   3.575
  660TIP3   OH2 1985   3.555   1.799   0.869
  660TIP3    H1 1986   3.616   1.783   0.940
  660TIP3    H2 1987   3.469   1.779   0.906
  661TIP3   OH2 1988   2.872   3.068   2.994
  661TIP3    H1 1989   2.824   3.099   2.917
  661TIP3    H2 1990   2.955   3.115   2.991
  662TIP3   OH2 1991   4.994   2.868   1.832
  662TIP3    H1 1992   5.006   2.835   1.743
  662TIP3    H2 1993   5.036   2.954   1.832
  663TIP3   OH2 1994   4.707   4.962   4.718
  663TIP3    H1 1995   4.633   5.005   4.762
  663TIP3    H2 1996   4.739   4.898   4.782
  664TIP3   OH2 1997   2.728   0.149   1.568
  664TIP3    H1 1998   2.798   0.165   1.505
  664TIP3    H2 1999   2.727   0.228   1.622
  665TIP3   OH2 2000   3.925   0.139   2.582
  665TIP3    H1 2001   3.991   0.120   2.515
  665TIP3    H2 2002   3.841   0.126   2.538
  666TIP3   OH2 2003   4.261   4.850   2.303
  666TIP3    H1 2004   4.207   4.848   2.224
  666TIP3    H2 2005   4.229   4.776   2.355
  667TIP3   OH2 2006   5.503   3.674   1.645
  667TIP3    H1 2007   5.465   3.653   1.560
  667TIP3    H2 2008   5.551   3.755   1.630
  668TIP3   OH2 2009   5.459   1.074   2.560
  668TIP3    H1 2010   5.374   1.096   2.521
  668TIP3    H2 2011   5.454   1.111   2.649
  669TIP3   OH2 2012   4.854   3.766   0.263
  669TIP3    H1 2013   4.892   3.706   0.199
  669TIP3    H2 2014   4.760   3.746   0.263
  670TIP3   OH2 2015   5.521   0.563   5.002
  670TIP3    H1 2016   5.442   0.583   5.052
  670TIP3    H2 2017   5.514   0.469   4.984
  671TIP3   OH2 2018   2.159   2.284   5.025
  671TIP3    H1 2019   2.250   2.312   5.017
  671TIP3    H2 2020   2.116   2.356   5.071
  672TIP3   OH2 2021   0.164   2.461   4.356
  672TIP3    H1 2022   0.172   2.527   4.425
  672TIP3    H2 2023   0.103   2.396   4.392
  673TIP3   OH2 2024   2.337   1.802   1.038
  673TIP3    H1 2025   2.347   1.710   1.061
  673TIP3    H2 2026   2.242   1.816   1.036
  674TIP3   OH2 2027   2.950   2.476   4.936
  674TIP3    H1 2028   2.966   2.426   5.016
  674TIP3    H2 2029   2.883   2.540   4.961
  675TIP3   OH2 2030   1.749   0.133   0.757
  675TIP3    H1 2031   1.795   0.197   0.703
  675TIP3    H2 2032   1.666   0.175   0.779
  676TIP3   OH2 2033   3.201   3.066   0.456
  676TIP3    H1 2034   3.115   3.025   0.448
  676TIP3    H2 2035   3.185   3.143   0.511
  677TIP3   OH2 2036   2.424   4.716   4.095
  677TIP3    H1 2037   2.414   4.808   4.122
  677TIP3    H2 2038   2.511   4.713   4.055
  678TIP3   OH2 2039   0.663   1.919   4.375
  678TIP3    H1 2040   0.634   1.853   4.312
  678TIP3    H2 2041   0.738   1.880   4.418
  679TIP3   OH2 2042   1.940   0.525   1.048
  679TIP3    H1 2043   1.912   0.536   1.138
  679TIP3    H2 2044   2.030   0.492   1.055
  680TIP3   OH2 2045   0.761   5.589   1.148
  680TIP3    H1 2046   0.671   5.572   1.175
  680TIP3    H2 2047   0.813   5.524   1.196
  681TIP3   OH2 2048   2.721   4.045   1.245
  681TIP3    H1 2049   2.655   4.112   1.261
  681TIP3    H2 2050   2.706   4.017   1.154
  682TIP3   OH2 2051   1.747   2.849   4.310
  682TIP3    H1 2052   1.697   2.789   4.366
  682TIP3    H2 2053   1.798   2.792   4.252
  683TIP3   OH2 2054   6.186   4.001   3.857
  683TIP3    H1 2055   6.177   4.068   3.790
  683TIP3    H2 2056   6.208   3.921   3.809
  684TIP3   OH2 2057   2.398   1.172   1.120
  684TIP3    H1 2058   2.332   1.107   1.145
  684TIP3    H2 2059   2.423   1.148   1.031
  685TIP3   OH2 2060   4.047   3.931   0.398
  685TIP3    H1 2061   4.078   4.002   0.341
  685TIP3    H2 2062   4.039   3.856   0.340
  686TIP3   OH2 2063   1.155   0.363   3.982
  686TIP3    H1 2064   1.154   0.274   3.947
  686TIP3    H2 2065   1.066   0.377   4.014
  687TIP3   OH2 2066   1.332   4.435   2.966
  687TIP3    H1 2067   1.348   4.341   2.962
  687TIP3    H2 2068   1.290   4.449   3.050
  688TIP3   OH2 2069   0.593   2.159   5.065
  688TIP3    H1 2070   0.660   2.106   5.022
  688TIP3    H2 2071   0.573   2.113   5.147
  689TIP3   OH2 2072   1.809   2.726   3.742
  689TIP3    H1 2073   1.773   2.791   3.682
  689TIP3    H2 2074   1.819   2.647   3.688
  690TIP3   OH2 2075   3.438   5.097   3.932
  690TIP3    H1 2076   3.483   5.169   3.887
  690TIP3    H2 2077   3.486   5.087   4.014
  691TIP3   OH2 2078   3.590   5.837   0.563
  691TIP3    H1 2079   3.606   5.827   0.657
  691TIP3    H2 2080   3.656   5.900   0.534
  692TIP3   OH2 2081   3.718   2.714   1.339
  692TIP3    H1 2082   3.794   2.772   1.346
  692TIP3    H2 2083   3.749   2.640   1.288
  693TIP3   OH2 2084   2.256   5.711   2.890
  693TIP3    H1 2085   2.310   5.739   2.964
  693TIP3    H2 2086   2.173   5.756   2.902
  694TIP3   OH2 2087   6.128   3.279   2.726
  694TIP3    H1 2088   6.085   3.267   2.811
  694TIP3    H2 2089   6.057   3.305   2.668
  695TIP3   OH2 2090   0.456   1.544   2.132
  695TIP3    H1 2091   0.521   1.590   2.080
  695TIP3    H2 2092   0.491   1.543   2.221
  696TIP3   OH2 2093   6.301   3.704   4.979
  696TIP3    H1 2094   6.209   3.683   4.968
  696TIP3    H2 2095   6.314   3.711   5.073
  697TIP3   OH2 2096   2.943   3.197   4.785
  697TIP3    H1 2097   2.928   3.290   4.764
  697TIP3    H2 2098   2.946   3.194   4.880
  698TIP3   OH2 2099   2.873   2.483   3.637
  698TIP3    H1 2100   2.914   2.490   3.551
  698TIP3    H2 2101   2.801   2.421   3.624
  699TIP3   OH2 2102   2.150   4.437   3.786
  699TIP3    H1 2103   2.179   4.496   3.855
  699TIP3    H2 2104   2.174   4.483   3.705
  700TIP3   OH2 2105   3.168   5.556   1.176
  700TIP3    H1 2106   3.123   5.517   1.101
  700TIP3    H2 2107   3.177   5.648   1.154
  701TIP3   OH2 2108   6.065   1.593   3.525
  701TIP3    H1 2109   6.147   1.545   3.513
  701TIP3    H2 2110   6.002   1.526   3.552
  702TIP3   OH2 2111   2.235   2.004   2.617
  702TIP3    H1 2112   2.304   1.957   2.665
  702TIP3    H2 2113   2.274   2.022   2.532
  703TIP3   OH2 2114   1.965   3.342   0.716
  703TIP3    H1 2115   2.047   3.311   0.756
  703TIP3    H2 2116   1.934   3.409   0.777
  704TIP3   OH2 2117   3.538   5.116   2.705
  704TIP3    H1 2118   3.569   5.099   2.616
  704TIP3    H2 2119   3.515   5.030   2.740
  705TIP3   OH2 2120   3.065   2.979   1.584
  705TIP3    H1 2121   2.995   2.935   1.535
  705TIP3    H2 2122   3.020   3.027   1.653
  706TIP3   OH2 2123   0.137   2.595   3.013
  706TIP3    H1 2124   0.081   2.669   3.038
  706TIP3    H2 2125   0.147   2.604   2.919
  707TIP3   OH2 2126   4.019   1.068   4.589
  707TIP3    H1 2127   4.081   1.130   4.625
  707TIP3    H2 2128   3.934   1.094   4.627
  708TIP3   OH2 2129   4.120   0.817   4.484
  708TIP3    H1 2130   4.111   0.901   4.529
  708TIP3    H2 2131   4.110   0.751   4.553
  709TIP3   OH2 2132   5.828   2.648   3.343
  709TIP3    H1 2133   5.870   2.640   3.429
  709TIP3    H2 2134   5.807   2.741   3.335
  710TIP3   OH2 2135   1.122   2.507   5.123
  710TIP3    H1 2136   1.127   2.417   5.092
  710TIP3    H2 2137   1.070   2.502   5.203
  711TIP3   OH2 2138   2.969   0.626   4.381
  711TIP3    H1 2139   2.981   0.594   4.471
  711TIP3    H2 2140   2.883   0.594   4.355
  712TIP3   OH2 2141   1.989   4.584   0.542
  712TIP3    H1 2142   1.959   4.645   0.474
  712TIP3    H2 2143   1.956   4.623   0.624
  713TIP3   OH2 2144   5.185   0.448   4.467
  713TIP3    H1 2145   5.139   0.393   4.404
  713TIP3    H2 2146   5.215   0.523   4.417
  714TIP3   OH2 2147   2.567   3.460   4.561
  714TIP3    H1 2148   2.535   3.537   4.610
  714TIP3    H2 2149   2.527   3.386   4.606
  715TIP3   OH2 2150   3.609   0.974   1.423
  715TIP3    H1 2151   3.557   0.952   1.346
  715TIP3    H2 2152   3.561   0.934   1.496
  716TIP3   OH2 2153   5.569   1.699   1.408
  716TIP3    H1 2154   5.585   1.707   1.502
  716TIP3    H2 2155   5.485   1.654   1.402
  717TIP3   OH2 2156   1.519   0.967   3.983
  717TIP3    H1 2157   1.498   0.989   4.074
  717TIP3    H2 2158   1.449   0.907   3.957
  718TIP3   OH2 2159   2.374   0.819   4.879
  718TIP3    H1 2160   2.374   0.913   4.863
  718TIP3    H2 2161   2.341   0.810   4.968
  719TIP3   OH2 2162   0.800   3.679   0.757
  719TIP3    H1 2163   0.836   3.664   0.669
  719TIP3    H2 2164   0.787   3.590   0.792
  720TIP3   OH2 2165   4.738   4.454   1.720
  720TIP3    H1 2166   4.729   4.548   1.707
  720TIP3    H2 2167   4.814   4.444   1.778
  721TIP3   OH2 2168   5.308   5.455   0.198
  721TIP3    H1 2169   5.252   5.424   0.127
  721TIP3    H2 2170   5.397   5.445   0.165
  722TIP3   OH2 2171   0.927   2.701   2.023
  722TIP3    H1 2172   1.005   2.654   2.052
  722TIP3    H2 2173   0.865   2.632   1.999
  723TIP3   OH2 2174   4.327   1.517   1.759
  723TIP3    H1 2175   4.329   1.612   1.748
  723TIP3    H2 2176   4.418   1.494   1.778
  724TIP3   OH2 2177   4.524   5.040   2.418
  724TIP3    H1 2178   4.533   5.120   2.367
  724TIP3    H2 2179   4.577   5.055   2.497
  725TIP3   OH2 2180   1.061   3.859   2.612
  725TIP3    H1 2181   1.135   3.892   2.662
  725TIP3    H2 2182   1.080   3.884   2.521
  726TIP3   OH2 2183   3.179   4.953  -0.027
  726TIP3    H1 2184   3.159   4.884   0.036
  726TIP3    H2 2185   3.253   4.919  -0.078
  727TIP3   OH2 2186   6.301   5.014   0.672
  727TIP3    H1 2187   6.345   4.933   0.696
  727TIP3    H2 2188   6.370   5.067   0.629
  728TIP3   OH2 2189   0.308   2.013   2.671
  728TIP3    H1 2190   0.325   1.966   2.753
  728TIP3    H2 2191   0.299   2.105   2.697
  729TIP3   OH2 2192   1.563   0.830   2.948
  729TIP3    H1 2193   1.652   0.850   2.921
  729TIP3    H2 2194   1.523   0.916   2.964
  730TIP3   OH2 2195   6.012   5.169   3.068
  730TIP3    H1 2196   5.955   5.238   3.103
  730TIP3    H2 2197   6.058   5.135   3.144
  731TIP3   OH2 2198   4.102   4.644   3.055
  731TIP3    H1 2199   4.124   4.556   3.085
  731TIP3    H2 2200   4.185   4.683   3.029
  732TIP3   OH2 2201   2.046   1.244   3.568
  732TIP3    H1 2202   2.082   1.175   3.513
  732TIP3    H2 2203   2.006   1.197   3.642
  733TIP3   OH2 2204   0.000   4.683   2.158
  733TIP3    H1 2205   0.014   4.616   2.092
  733TIP3    H2 2206   0.084   4.729   2.163
  734TIP3   OH2 2207   1.167   5.170   2.128
  734TIP3    H1 2208   1.150   5.216   2.046
  734TIP3    H2 2209   1.110   5.213   2.192
  735TIP3   OH2 2210   5.300   1.853   3.363
  735TIP3    H1 2211   5.346   1.909   3.300
  735TIP3    H2 2212   5.255   1.914   3.420
  736TIP3   OH2 2213   4.702   5.168   3.241
  736TIP3    H1 2214   4.772   5.233   3.235
  736TIP3    H2 2215   4.639   5.195   3.174
  737TIP3   OH2 2216   3.516   4.094   1.883
  737TIP3    H1 2217   3.509   4.187   1.904
  737TIP3    H2 2218   3.522   4.050   1.968
  738TIP3   OH2 2219   0.164   5.842   4.831
  738TIP3    H1 2220   0.070   5.846   4.815
  738TIP3    H2 2221   0.203   5.840   4.744
  739TIP3   OH2 2222   1.032   1.597   4.995
  739TIP3    H1 2223   1.123   1.572   5.010
  739TIP3    H2 2224   0.996   1.608   5.082
  740TIP3   OH2 2225   2.732   3.483   1.926
  740TIP3    H1 2226   2.678   3.472   2.004
  740TIP3    H2 2227   2.704   3.566   1.888
  741TIP3   OH2 2228   2.579   2.274   2.560
  741TIP3    H1 2229   2.593   2.227   2.642
  741TIP3    H2 2230   2.660   2.263   2.511
  742TIP3   OH2 2231   4.822   1.176   4.388
  742TIP3    H1 2232   4.792   1.244   4.328
  742TIP3    H2 2233   4.862   1.223   4.461
  743TIP3   OH2 2234   2.901   0.306   2.969
  743TIP3    H1 2235   2.929   0.262   3.049
  743TIP3    H2 2236   2.856   0.384   2.999
  744TIP3   OH2 2237   0.610   3.603   4.904
  744TIP3    H1 2238   0.532   3.565   4.945
  744TIP3    H2 2239   0.637   3.539   4.839
  745TIP3   OH2 2240   6.053   2.617   2.191
  745TIP3    H1 2241   6.120   2.677   2.159
  745TIP3    H2 2242   6.081   2.595   2.280
  746TIP3   OH2 2243   3.161   3.479   4.849
  746TIP3    H1 2244   3.125   3.565   4.827
  746TIP3    H2 2245   3.182   3.439   4.764
  747TIP3   OH2 2246   1.369   2.883   2.582
  747TIP3    H1 2247   1.441   2.915   2.529
  747TIP3    H2 2248   1.290   2.905   2.532
  748TIP3   OH2 2249   0.718   1.651   4.210
  748TIP3    H1 2250   0.776   1.662   4.285
  748TIP3    H2 2251   0.777   1.645   4.134
  749TIP3   OH2 2252   2.191   4.988   0.199
  749TIP3    H1 2253   2.263   5.004   0.260
  749TIP3    H2 2254   2.233   4.951   0.122
  750TIP3   OH2 2255   3.915   2.870   1.674
  750TIP3    H1 2256   3.909   2.909   1.587
  750TIP3    H2 2257   4.006   2.842   1.681
  751TIP3   OH2 2258   0.806   3.212   3.117
  751TIP3    H1 2259   0.722   3.237   3.080
  751TIP3    H2 2260   0.834   3.136   3.065
  752TIP3   OH2 2261   5.652   5.388   0.450
  752TIP3    H1 2262   5.638   5.394   0.545
  752TIP3    H2 2263   5.614   5.469   0.415
  753TIP3   OH2 2264   0.143   5.366   1.369
  753TIP3    H1 2265   0.151   5.458   1.394
  753TIP3    H2 2266   0.133   5.367   1.274
  754TIP3   OH2 2267   0.472   5.210   3.227
  754TIP3    H1 2268   0.509   5.134   3.274
  754TIP3    H2 2269   0.462   5.179   3.137
  755TIP3   OH2 2270   4.224   1.250   0.828
  755TIP3    H1 2271   4.146   1.297   0.797
  755TIP3    H2 2272   4.197   1.212   0.912
  756TIP3   OH2 2273   5.607   4.173   1.291
  756TIP3    H1 2274   5.624   4.122   1.212
  756TIP3    H2 2275   5.521   4.143   1.321
  757TIP3   OH2 2276   5.443   4.112   4.590
  757TIP3    H1 2277   5.357   4.117   4.548
  757TIP3    H2 2278   5.481   4.199   4.576
  758TIP3   OH2 2279   4.391   5.737   2.894
  758TIP3    H1 2280   4.303   5.746   2.856
  758TIP3    H2 2281   4.378   5.744   2.988
  759TIP3   OH2 2282   0.873   0.990   1.389
  759TIP3    H1 2283   0.846   0.965   1.478
  759TIP3    H2 2284   0.910   1.078   1.399
  760TIP3   OH2 2285   6.236   4.063   0.413
  760TIP3    H1 2286   6.155   4.073   0.363
  760TIP3    H2 2287   6.293   4.011   0.356
  761TIP3   OH2 2288   0.908   3.445   2.875
  761TIP3    H1 2289   0.937   3.358   2.902
  761TIP3    H2 2290   0.824   3.431   2.832
  762TIP3   OH2 2291   2.897   3.746   2.063
  762TIP3    H1 2292   2.850   3.715   1.986
  762TIP3    H2 2293   2.979   3.781   2.029
  763TIP3   OH2 2294   3.929   5.299   0.404
  763TIP3    H1 2295   3.863   5.254   0.457
  763TIP3    H2 2296   3.950   5.378   0.453
  764TIP3   OH2 2297   3.733   4.523   0.289
  764TIP3    H1 2298   3.789   4.575   0.346
  764TIP3    H2 2299   3.777   4.438   0.284
  765TIP3   OH2 2300   1.676   5.290   0.141
  765TIP3    H1 2301   1.707   5.380   0.148
  765TIP3    H2 2302   1.687   5.254   0.229
  766TIP3   OH2 2303   0.524   1.526   1.228
  766TIP3    H1 2304   0.526   1.464   1.300
  766TIP3    H2 2305   0.443   1.506   1.181
  767TIP3   OH2 2306   0.685   3.666   2.476
  767TIP3    H1 2307   0.611   3.646   2.420
  767TIP3    H2 2308   0.756   3.687   2.415
  768TIP3   OH2 2309   2.690   4.851   3.453
  768TIP3    H1 2310   2.721   4.787   3.389
  768TIP3    H2 2311   2.731   4.826   3.535
  769TIP3   OH2 2312   0.273   3.204   4.646
  769TIP3    H1 2313   0.189   3.165   4.619
  769TIP3    H2 2314   0.273   3.289   4.603
  770TIP3   OH2 2315   1.440   0.116   4.657
  770TIP3    H1 2316   1.350   0.147   4.668
  770TIP3    H2 2317   1.478   0.174   4.591
  771TIP3   OH2 2318   0.075   1.412   0.513
  771TIP3    H1 2319  -0.012   1.421   0.551
  771TIP3    H2 2320   0.063   1.356   0.436
  772TIP3   OH2 2321   2.237   1.072   0.742
  772TIP3    H1 2322   2.170   1.119   0.691
  772TIP3    H2 2323   2.192   1.047   0.823
  773TIP3   OH2 2324   1.051   0.654   2.747
  773TIP3    H1 2325   0.988   0.716   2.711
  773TIP3    H2 2326   1.034   0.573   2.699
  774TIP3   OH2 2327   5.729   0.678   4.261
  774TIP3    H1 2328   5.759   0.599   4.304
  774TIP3    H2 2329   5.713   0.651   4.170
  775TIP3   OH2 2330   0.019   2.664   3.854
  775TIP3    H1 2331   0.026   2.603   3.927
  775TIP3    H2 2332   0.106   2.705   3.848
  776TIP3   OH2 2333   1.466   5.373  -0.054
  776TIP3    H1 2334   1.456   5.289  -0.099
  776TIP3    H2 2335   1.502   5.349   0.031
  777TIP3   OH2 2336   0.442   0.752   3.676
  777TIP3    H1 2337   0.403   0.770   3.590
  777TIP3    H2 2338   0.372   0.710   3.726
  778TIP3   OH2 2339   4.145   2.642   1.459
  778TIP3    H1 2340   4.100   2.630   1.543
  778TIP3    H2 2341   4.124   2.564   1.409
  779TIP3   OH2 2342   3.547   1.347   0.476
  779TIP3    H1 2343   3.574   1.363   0.567
  779TIP3    H2 2344   3.555   1.252   0.466
  780TIP3   OH2 2345   3.600   4.328   1.702
  780TIP3    H1 2346   3.613   4.233   1.704
  780TIP3    H2 2347   3.663   4.360   1.638
  781TIP3   OH2 2348   0.331   3.433   4.092
  781TIP3    H1 2349   0.246   3.444   4.134
  781TIP3    H2 2350   0.360   3.345   4.116
  782TIP3   OH2 2351   0.945   3.928   2.940
  782TIP3    H1 2352   0.917   3.957   3.026
  782TIP3    H2 2353   0.978   3.839   2.954
  783TIP3   OH2 2354   2.597   2.860   0.903
  783TIP3    H1 2355   2.568   2.798   0.970
  783TIP3    H2 2356   2.666   2.911   0.946
  784TIP3   OH2 2357   3.282   2.287   1.106
  784TIP3    H1 2358   3.289   2.361   1.166
  784TIP3    H2 2359   3.326   2.316   1.026
  785TIP3   OH2 2360   4.342   5.756   0.609
  785TIP3    H1 2361   4.345   5.661   0.601
  785TIP3    H2 2362   4.415   5.778   0.668
  786TIP3   OH2 2363   3.139   4.788   4.569
  786TIP3    H1 2364   3.117   4.752   4.655
  786TIP3    H2 2365   3.081   4.742   4.508
  787TIP3   OH2 2366   2.759   1.696   0.467
  787TIP3    H1 2367   2.674   1.739   0.478
  787TIP3    H2 2368   2.823   1.764   0.489
  788TIP3   OH2 2369   2.949   3.409   3.796
  788TIP3    H1 2370   3.008   3.469   3.751
  788TIP3    H2 2371   2.878   3.465   3.827
  789TIP3   OH2 2372   0.132   3.845   4.534
  789TIP3    H1 2373   0.078   3.848   4.613
  789TIP3    H2 2374   0.070   3.851   4.462
  790TIP3   OH2 2375   2.712   5.070   4.070
  790TIP3    H1 2376   2.780   5.025   4.021
  790TIP3    H2 2377   2.672   5.002   4.125
  791TIP3   OH2 2378   3.794   3.371   0.321
  791TIP3    H1 2379   3.858   3.395   0.388
  791TIP3    H2 2380   3.789   3.276   0.327
  792TIP3   OH2 2381   0.247   2.439   1.068
  792TIP3    H1 2382   0.172   2.491   1.098
  792TIP3    H2 2383   0.289   2.409   1.149
  793TIP3   OH2 2384   3.531   4.721   3.944
  793TIP3    H1 2385   3.465   4.706   4.012
  793TIP3    H2 2386   3.509   4.659   3.875
  794TIP3   OH2 2387   0.717   4.385   3.196
  794TIP3    H1 2388   0.798   4.364   3.243
  794TIP3    H2 2389   0.677   4.300   3.178
  795TIP3   OH2 2390   2.534   2.130   1.604
  795TIP3    H1 2391   2.440   2.109   1.600
  795TIP3    H2 2392   2.572   2.080   1.531
  796TIP3   OH2 2393   5.949   4.303   1.893
  796TIP3    H1 2394   6.024   4.247   1.915
  796TIP3    H2 2395   5.985   4.369   1.834
  797TIP3   OH2 2396   4.939   5.334   2.818
  797TIP3    H1 2397   4.849   5.352   2.844
  797TIP3    H2 2398   4.987   5.414   2.841
  798TIP3   OH2 2399   2.593   3.505   3.831
  798TIP3    H1 2400   2.635   3.422   3.852
  798TIP3    H2 2401   2.639   3.538   3.754
  799TIP3   OH2 2402   3.599   3.547   0.399
  799TIP3    H1 2403   3.608   3.612   0.329
  799TIP3    H2 2404   3.676   3.490   0.387
  800TIP3   OH2 2405   4.689   1.357   4.806
  800TIP3    H1 2406   4.740   1.384   4.729
  800TIP3    H2 2407   4.698   1.262   4.809
  801TIP3   OH2 2408   5.880   2.985   1.052
  801TIP3    H1 2409   5.787   2.970   1.033
  801TIP3    H2 2410   5.884   3.076   1.082
  802TIP3   OH2 2411   4.983   0.579   4.883
  802TIP3    H1 2412   5.038   0.657   4.889
  802TIP3    H2 2413   4.996   0.546   4.795
  803TIP3   OH2 2414   1.488   3.706   3.889
  803TIP3    H1 2415   1.574   3.710   3.932
  803TIP3    H2 2416   1.432   3.764   3.941
  804TIP3   OH2 2417   5.026   1.421   5.162
  804TIP3    H1 2418   5.019   1.444   5.069
  804TIP3    H2 2419   4.936   1.411   5.191
  805TIP3   OH2 2420   1.373   5.821   2.520
  805TIP3    H1 2421   1.296   5.773   2.489
  805TIP3    H2 2422   1.341   5.870   2.596
  806TIP3   OH2 2423   0.209   0.466   2.276
  806TIP3    H1 2424   0.299   0.496   2.261
  806TIP3    H2 2425   0.169   0.536   2.328
  807TIP3   OH2 2426   4.841   1.445   3.198
  807TIP3    H1 2427   4.774   1.403   3.253
  807TIP3    H2 2428   4.851   1.533   3.235
  808TIP3   OH2 2429   0.730   0.871   0.120
  808TIP3    H1 2430   0.712   0.890   0.213
  808TIP3    H2 2431   0.703   0.780   0.109
  809TIP3   OH2 2432   4.541   1.174   3.161
  809TIP3    H1 2433   4.587   1.220   3.231
  809TIP3    H2 2434   4.597   1.099   3.140
  810TIP3   OH2 2435   1.223   2.931   0.445
  810TIP3    H1 2436   1.296   2.890   0.399
  810TIP3    H2 2437   1.250   2.932   0.537
  811TIP3   OH2 2438   2.172   0.514   4.871
  811TIP3    H1 2439   2.098   0.499   4.812
  811TIP3    H2 2440   2.245   0.533   4.812
  812TIP3   OH2 2441   2.331   3.577   3.793
  812TIP3    H1 2442   2.286   3.599   3.711
  812TIP3    H2 2443   2.422   3.562   3.766
  813TIP3   OH2 2444   6.113   4.216   3.694
  813TIP3    H1 2445   6.139   4.212   3.602
  813TIP3    H2 2446   6.173   4.280   3.733
  814TIP3   OH2 2447   4.586   4.635   0.818
  814TIP3    H1 2448   4.644   4.582   0.764
  814TIP3    H2 2449   4.521   4.670   0.756
  815TIP3   OH2 2450   4.296   4.845   4.654
  815TIP3    H1 2451   4.362   4.853   4.585
  815TIP3    H2 2452   4.293   4.751   4.673
  816TIP3   OH2 2453   3.642   2.185   3.637
  816TIP3    H1 2454   3.593   2.142   3.707
  816TIP3    H2 2455   3.707   2.239   3.682
  817TIP3   OH2 2456   5.126   1.479   0.137
  817TIP3    H1 2457   5.144   1.396   0.181
  817TIP3    H2 2458   5.047   1.513   0.180
  818TIP3   OH2 2459   4.890   0.875   5.088
  818TIP3    H1 2460   4.928   0.944   5.143
  818TIP3    H2 2461   4.917   0.898   4.999
  819TIP3   OH2 2462   3.820   5.168   4.125
  819TIP3    H1 2463   3.872   5.196   4.200
  819TIP3    H2 2464   3.842   5.076   4.113
  820TIP3   OH2 2465   0.241   4.471   3.060
  820TIP3    H1 2466   0.333   4.474   3.031
  820TIP3    H2 2467   0.194   4.523   2.995
  821TIP3   OH2 2468   1.001   4.090   1.798
  821TIP3    H1 2469   1.089   4.120   1.774
  821TIP3    H2 2470   0.988   4.122   1.887
  822TIP3   OH2 2471   1.712   3.481   0.174
  822TIP3    H1 2472   1.744   3.415   0.235
  822TIP3    H2 2473   1.622   3.454   0.154
  823TIP3   OH2 2474   1.470   4.401   2.732
  823TIP3    H1 2475   1.493   4.318   2.775
  823TIP3    H2 2476   1.419   4.448   2.798
  824TIP3   OH2 2477   1.524   5.324   0.904
  824TIP3    H1 2478   1.564   5.238   0.895
  824TIP3    H2 2479   1.585   5.374   0.958
  825TIP3   OH2 2480   5.796   5.108   0.596
  825TIP3    H1 2481   5.844   5.026   0.590
  825TIP3    H2 2482   5.707   5.086   0.568
  826TIP3   OH2 2483   1.868   1.374   3.373
  826TIP3    H1 2484   1.781   1.358   3.410
  826TIP3    H2 2485   1.929   1.344   3.441
  827TIP3   OH2 2486   1.834   1.057   0.588
  827TIP3    H1 2487   1.802   1.042   0.499
  827TIP3    H2 2488   1.756   1.059   0.643
  828TIP3   OH2 2489   2.674   3.045   4.100
  828TIP3    H1 2490   2.592   3.041   4.148
  828TIP3    H2 2491   2.664   2.980   4.030
  829TIP3   OH2 2492   4.797   3.006   4.920
  829TIP3    H1 2493   4.880   2.959   4.931
  829TIP3    H2 2494   4.733   2.937   4.906
  830TIP3   OH2 2495   5.565   1.831   0.576
  830TIP3    H1 2496   5.579   1.771   0.649
  830TIP3    H2 2497   5.571   1.918   0.615
  831TIP3   OH2 2498   0.354   3.168   1.410
  831TIP3    H1 2499   0.396   3.089   1.376
  831TIP3    H2 2500   0.261   3.156   1.390
  832TIP3   OH2 2501   0.032   3.717   0.040
  832TIP3    H1 2502   0.073   3.715  -0.047
  832TIP3    H2 2503   0.082   3.653   0.091
  833TIP3   OH2 2504   2.934   5.471   5.204
  833TIP3    H1 2505   2.899   5.537   5.145
  833TIP3    H2 2506   2.954   5.396   5.148
  834TIP3   OH2 2507   1.392   1.973   1.487
  834TIP3    H1 2508   1.369   1.893   1.441
  834TIP3    H2 2509   1.353   2.043   1.435
  835TIP3   OH2 2510   3.679   4.771   3.073
  835TIP3    H1 2511   3.652   4.711   3.142
  835TIP3    H2 2512   3.740   4.720   3.019
  836TIP3   OH2 2513   1.226   4.622   0.106
  836TIP3    H1 2514   1.218   4.713   0.136
  836TIP3    H2 2515   1.319   4.602   0.115
  837TIP3   OH2 2516   5.308   0.754   2.514
  837TIP3    H1 2517   5.271   0.736   2.600
  837TIP3    H2 2518   5.362   0.832   2.526
  838TIP3   OH2 2519   0.427   5.281   2.772
  838TIP3    H1 2520   0.427   5.244   2.683
  838TIP3    H2 2521   0.490   5.354   2.767
  839TIP3   OH2 2522   6.145   0.221   4.924
  839TIP3    H1 2523   6.093   0.300   4.939
  839TIP3    H2 2524   6.083   0.149   4.936
  840TIP3   OH2 2525   2.245   0.857   3.109
  840TIP3    H1 2526   2.175   0.907   3.152
  840TIP3    H2 2527   2.305   0.834   3.180
  841TIP3   OH2 2528   0.726   1.206   1.158
  841TIP3    H1 2529   0.688   1.207   1.246
  841TIP3    H2 2530   0.786   1.132   1.158
  842TIP3   OH2 2531   1.187   3.626   1.149
  842TIP3    H1 2532   1.166   3.652   1.059
  842TIP3    H2 2533   1.239   3.699   1.183
  843TIP3   OH2 2534   4.614   2.533   3.123
  843TIP3    H1 2535   4.698   2.578   3.111
  843TIP3    H2 2536   4.622   2.454   3.069
  844TIP3   OH2 2537   2.217   2.733   1.479
  844TIP3    H1 2538   2.293   2.787   1.458
  844TIP3    H2 2539   2.185   2.769   1.562
  845TIP3   OH2 2540   3.757   0.749   5.098
  845TIP3    H1 2541   3.787   0.834   5.132
  845TIP3    H2 2542   3.838   0.703   5.074
  846TIP3   OH2 2543   4.780   5.601   1.078
  846TIP3    H1 2544   4.793   5.630   0.987
  846TIP3    H2 2545   4.818   5.513   1.080
  847TIP3   OH2 2546   1.244   0.889   4.413
  847TIP3    H1 2547   1.220   0.803   4.447
  847TIP3    H2 2548   1.215   0.951   4.480
  848TIP3   OH2 2549   1.455   4.467   3.834
  848TIP3    H1 2550   1.420   4.385   3.868
  848TIP3    H2 2551   1.468   4.522   3.911
  849TIP3   OH2 2552   0.804   5.340   1.268
  849TIP3    H1 2553   0.762   5.265   1.226
  849TIP3    H2 2554   0.898   5.326   1.254
  850TIP3   OH2 2555   2.885   1.978   3.651
  850TIP3    H1 2556   2.811   1.942   3.701
  850TIP3    H2 2557   2.898   2.066   3.688
  851TIP3   OH2 2558   1.069   2.915   0.950
  851TIP3    H1 2559   1.052   2.885   1.039
  851TIP3    H2 2560   0.991   2.967   0.927
  852TIP3   OH2 2561   3.446   4.882   1.466
  852TIP3    H1 2562   3.480   4.794   1.450
  852TIP3    H2 2563   3.421   4.881   1.559
  853TIP3   OH2 2564   3.112   1.399   2.010
  853TIP3    H1 2565   3.184   1.457   1.985
  853TIP3    H2 2566   3.113   1.400   2.106
  854TIP3   OH2 2567   0.060   0.642   2.695
  854TIP3    H1 2568   0.078   0.549   2.706
  854TIP3    H2 2569  -0.010   0.660   2.758
  855TIP3   OH2 2570   0.844   2.380   4.995
  855TIP3    H1 2571   0.819   2.290   4.975
  855TIP3    H2 2572   0.928   2.373   5.040
  856TIP3   OH2 2573   0.955   3.071   3.793
  856TIP3    H1 2574   0.950   2.982   3.759
  856TIP3    H2 2575   0.864   3.098   3.803
  857TIP3   OH2 2576   0.296   3.420   2.649
  857TIP3    H1 2577   0.314   3.432   2.555
  857TIP3    H2 2578   0.321   3.503   2.689
  858TIP3   OH2 2579   0.783   0.781   2.083
  858TIP3    H1 2580   0.821   0.811   2.165
  858TIP3    H2 2581   0.786   0.685   2.089
  859TIP3   OH2 2582   1.498   1.069   1.591
  859TIP3    H1 2583   1.569   1.006   1.602
  859TIP3    H2 2584   1.453   1.070   1.675
  860TIP3   OH2 2585   0.581   3.886   4.843
  860TIP3    H1 2586   0.498   3.841   4.859
  860TIP3    H2 2587   0.629   3.827   4.786
  861TIP3   OH2 2588   0.634   4.815   2.029
  861TIP3    H1 2589   0.546   4.814   1.992
  861TIP3    H2 2590   0.690   4.845   1.957
  862TIP3   OH2 2591   0.975   5.493   0.356
  862TIP3    H1 2592   0.893   5.450   0.379
  862TIP3    H2 2593   1.043   5.436   0.392
  863TIP3   OH2 2594   2.394   2.214   3.118
  863TIP3    H1 2595   2.391   2.120   3.102
  863TIP3    H2 2596   2.302   2.241   3.125
  864TIP3   OH2 2597   3.716   3.595   4.516
  864TIP3    H1 2598   3.659   3.575   4.591
  864TIP3    H2 2599   3.791   3.639   4.554
  865TIP3   OH2 2600   1.815   0.869   3.273
  865TIP3    H1 2601   1.797   0.780   3.243
  865TIP3    H2 2602   1.859   0.857   3.357
  866TIP3   OH2 2603   4.247   3.501   2.504
  866TIP3    H1 2604   4.234   3.563   2.432
  866TIP3    H2 2605   4.185   3.529   2.571
  867TIP3   OH2 2606   3.811   1.619   4.138
  867TIP3    H1 2607   3.856   1.538   4.115
  867TIP3    H2 2608   3.720   1.593   4.153
  868TIP3   OH2 2609   5.225   3.018   1.446
  868TIP3    H1 2610   5.131   3.030   1.432
  868TIP3    H2 2611   5.265   3.095   1.406
  869TIP3   OH2 2612   3.687   5.408   0.478
  869TIP3    H1 2613   3.654   5.429   0.565
  869TIP3    H2 2614   3.759   5.470   0.464
  870TIP3   OH2 2615   2.468   0.193   4.680
  870TIP3    H1 2616   2.394   0.172   4.624
  870TIP3    H2 2617   2.505   0.108   4.703
  871TIP3   OH2 2618   3.927   5.508   4.714
  871TIP3    H1 2619   3.974   5.426   4.699
  871TIP3    H2 2620   3.994   5.576   4.708
  872TIP3   OH2 2621   1.940   4.724   1.123
  872TIP3    H1 2622   1.994   4.723   1.202
  872TIP3    H2 2623   1.851   4.707   1.156
  873TIP3   OH2 2624   0.980   5.472   4.264
  873TIP3    H1 2625   0.987   5.472   4.360
  873TIP3    H2 2626   0.887   5.463   4.247
  874TIP3   OH2 2627   5.872   4.694   3.918
  874TIP3    H1 2628   5.948   4.656   3.961
  874TIP3    H2 2629   5.797   4.651   3.960
  875TIP3   OH2 2630   4.896   5.448   4.429
  875TIP3    H1 2631   4.932   5.441   4.341
  875TIP3    H2 2632   4.884   5.542   4.442
  876TIP3   OH2 2633   2.782   4.550   1.047
  876TIP3    H1 2634   2.815   4.497   1.120
  876TIP3    H2 2635   2.850   4.544   0.980
  877TIP3   OH2 2636   0.902   3.270   1.206
  877TIP3    H1 2637   0.977   3.275   1.147
  877TIP3    H2 2638   0.936   3.226   1.284
  878TIP3   OH2 2639   1.305   3.685   2.523
  878TIP3    H1 2640   1.295   3.601   2.569
  878TIP3    H2 2641   1.288   3.664   2.431
  879TIP3   OH2 2642   0.219   3.943   0.721
  879TIP3    H1 2643   0.182   3.892   0.649
  879TIP3    H2 2644   0.198   4.034   0.698
  880TIP3   OH2 2645   3.191   0.162   4.900
  880TIP3    H1 2646   3.096   0.174   4.906
  880TIP3    H2 2647   3.228   0.237   4.946
  881TIP3   OH2 2648   4.675   0.720   3.078
  881TIP3    H1 2649   4.640   0.697   3.163
  881TIP3    H2 2650   4.654   0.645   3.022
  882TIP3   OH2 2651   4.620   0.914   1.788
  882TIP3    H1 2652   4.618   0.827   1.748
  882TIP3    H2 2653   4.673   0.967   1.728
  883TIP3   OH2 2654   4.856   2.056   3.932
  883TIP3    H1 2655   4.867   2.150   3.950
  883TIP3    H2 2656   4.862   2.050   3.837
  884TIP3   OH2 2657   1.640   1.674   3.394
  884TIP3    H1 2658   1.658   1.581   3.407
  884TIP3    H2 2659   1.616   1.706   3.481
  885TIP3   OH2 2660   5.570   0.901   4.352
  885TIP3    H1 2661   5.621   0.826   4.321
  885TIP3    H2 2662   5.594   0.973   4.294
  886TIP3   OH2 2663   2.197   1.396   5.186
  886TIP3    H1 2664   2.214   1.336   5.114
  886TIP3    H2 2665   2.283   1.435   5.206
  887TIP3   OH2 2666   3.075   0.973   1.860
  887TIP3    H1 2667   3.021   0.913   1.911
  887TIP3    H2 2668   3.164   0.940   1.871
  888TIP3   OH2 2669   3.986   3.919   3.304
  888TIP3    H1 2670   4.000   3.914   3.209
  888TIP3    H2 2671   4.048   3.985   3.334
  889TIP3   OH2 2672   4.365   4.593   3.660
  889TIP3    H1 2673   4.349   4.598   3.755
  889TIP3    H2 2674   4.394   4.681   3.636
  890TIP3   OH2 2675   6.215   3.067   0.025
  890TIP3    H1 2676   6.180   3.067   0.114
  890TIP3    H2 2677   6.269   3.145   0.020
  891TIP3   OH2 2678   3.226   3.449   2.538
  891TIP3    H1 2679   3.160   3.516   2.520
  891TIP3    H2 2680   3.252   3.417   2.451
  892TIP3   OH2 2681   3.748   4.701   4.565
  892TIP3    H1 2682   3.654   4.720   4.573
  892TIP3    H2 2683   3.786   4.783   4.534
  893TIP3   OH2 2684   3.535   0.108   3.635
  893TIP3    H1 2685   3.609   0.163   3.608
  893TIP3    H2 2686   3.459   0.165   3.628
  894TIP3   OH2 2687   1.350   0.418   0.273
  894TIP3    H1 2688   1.275   0.382   0.226
  894TIP3    H2 2689   1.417   0.431   0.206
  895TIP3   OH2 2690   0.387   2.642   1.623
  895TIP3    H1 2691   0.382   2.727   1.667
  895TIP3    H2 2692   0.326   2.586   1.671
  896TIP3   OH2 2693   4.953   0.194   4.518
  896TIP3    H1 2694   4.944   0.170   4.610
  896TIP3    H2 2695   5.029   0.144   4.488
  897TIP3   OH2 2696   2.451   2.538   0.794
  897TIP3    H1 2697   2.452   2.612   0.734
  897TIP3    H2 2698   2.442   2.461   0.738
  898TIP3   OH2 2699   6.304   1.031   1.326
  898TIP3    H1 2700   6.301   0.942   1.360
  898TIP3    H2 2701   6.352   1.081   1.391
  899TIP3   OH2 2702   1.446   5.773   3.135
  899TIP3    H1 2703   1.367   5.718   3.140
  899TIP3    H2 2704   1.516   5.712   3.112
  900TIP3   OH2 2705   0.149   3.092   3.424
  900TIP3    H1 2706   0.218   3.098   3.491
  900TIP3    H2 2707   0.083   3.035   3.463
  901TIP3   OH2 2708   3.365   3.766   1.784
  901TIP3    H1 2709   3.310   3.783   1.708
  901TIP3    H2 2710   3.453   3.755   1.748
  902TIP3   OH2 2711   0.285   4.803   3.028
  902TIP3    H1 2712   0.240   4.888   3.029
  902TIP3    H2 2713   0.370   4.820   3.068
  903TIP3   OH2 2714   3.131   2.558   4.716
  903TIP3    H1 2715   3.082   2.565   4.634
  903TIP3    H2 2716   3.065   2.539   4.782
  904TIP3   OH2 2717   4.661   3.915   2.227
  904TIP3    H1 2718   4.728   3.956   2.172
  904TIP3    H2 2719   4.656   3.971   2.305
  905TIP3   OH2 2720   4.575   2.966   2.635
  905TIP3    H1 2721   4.671   2.972   2.633
  905TIP3    H2 2722   4.555   2.887   2.585
  906TIP3   OH2 2723   4.371   0.143   1.538
  906TIP3    H1 2724   4.285   0.105   1.521
  906TIP3    H2 2725   4.426   0.112   1.465
  907TIP3   OH2 2726   3.556   2.679   4.899
  907TIP3    H1 2727   3.532   2.771   4.906
  907TIP3    H2 2728   3.502   2.646   4.827
  908TIP3   OH2 2729   1.637   1.347   3.547
  908TIP3    H1 2730   1.563   1.403   3.568
  908TIP3    H2 2731   1.613   1.260   3.578
  909TIP3   OH2 2732   5.161   1.909   1.004
  909TIP3    H1 2733   5.088   1.970   1.013
  909TIP3    H2 2734   5.119   1.823   0.995
  910TIP3   OH2 2735   5.857   4.321   2.763
  910TIP3    H1 2736   5.919   4.257   2.727
  910TIP3    H2 2737   5.772   4.278   2.757
  911TIP3   OH2 2738   2.493   2.553   2.092
  911TIP3    H1 2739   2.434   2.626   2.113
  911TIP3    H2 2740   2.434   2.485   2.059
  912TIP3   OH2 2741   5.283   1.195   4.504
  912TIP3    H1 2742   5.371   1.176   4.538
  912TIP3    H2 2743   5.288   1.285   4.473
  913TIP3   OH2 2744   1.492   5.298   1.539
  913TIP3    H1 2745   1.541   5.222   1.570
  913TIP3    H2 2746   1.458   5.338   1.619
  914TIP3   OH2 2747   5.418   1.742   1.709
  914TIP3    H1 2748   5.327   1.718   1.721
  914TIP3    H2 2749   5.466   1.660   1.720
  915TIP3   OH2 2750   0.345   5.767   0.222
  915TIP3    H1 2751   0.368   5.685   0.266
  915TIP3    H2 2752   0.314   5.740   0.136
  916TIP3   OH2 2753   0.441   4.056   4.652
  916TIP3    H1 2754   0.371   4.081   4.711
  916TIP3    H2 2755   0.513   4.031   4.710
  917TIP3   OH2 2756   3.052   1.639   3.914
  917TIP3    H1 2757   3.036   1.593   3.997
  917TIP3    H2 2758   3.118   1.587   3.870
  918TIP3   OH2 2759   2.872   0.292   3.481
  918TIP3    H1 2760   2.934   0.232   3.522
  918TIP3    H2 2761   2.865   0.262   3.391
  919TIP3   OH2 2762   6.155   0.657   4.073
  919TIP3    H1 2763   6.247   0.682   4.082
  919TIP3    H2 2764   6.112   0.701   4.146
  920TIP3   OH2 2765   0.325   1.363   2.633
  920TIP3    H1 2766   0.373   1.442   2.657
  920TIP3    H2 2767   0.300   1.323   2.717
  921TIP3   OH2 2768   5.224   0.575   0.703
  921TIP3    H1 2769   5.167   0.603   0.631
  921TIP3    H2 2770   5.171   0.584   0.781
  922TIP3   OH2 2771   4.298   1.953   5.169
  922TIP3    H1 2772   4.359   1.967   5.241
  922TIP3    H2 2773   4.338   1.999   5.095
  923TIP3   OH2 2774   5.234   4.989   1.378
  923TIP3    H1 2775   5.330   4.984   1.382
  923TIP3    H2 2776   5.216   5.083   1.380
  924TIP3   OH2 2777   1.073   4.694   3.401
  924TIP3    H1 2778   1.057   4.716   3.309
  924TIP3    H2 2779   1.009   4.747   3.450
  925TIP3   OH2 2780   0.542   0.792   4.873
  925TIP3    H1 2781   0.551   0.877   4.917
  925TIP3    H2 2782   0.557   0.728   4.943
  926TIP3   OH2 2783   6.137   4.425   2.538
  926TIP3    H1 2784   6.179   4.426   2.452
  926TIP3    H2 2785   6.166   4.343   2.578
  927TIP3   OH2 2786   4.480   3.478   3.585
  927TIP3    H1 2787   4.399   3.520   3.557
  927TIP3    H2 2788   4.462   3.447   3.673
  928TIP3   OH2 2789   0.253   4.824   2.211
  928TIP3    H1 2790   0.311   4.819   2.287
  928TIP3    H2 2791   0.242   4.918   2.195
  929TIP3   OH2 2792   0.417   2.089   0.287
  929TIP3    H1 2793   0.354   2.116   0.220
  929TIP3    H2 2794   0.398   2.145   0.362
  930TIP3   OH2 2795   5.151   1.936   2.926
  930TIP3    H1 2796   5.214   1.966   2.860
  930TIP3    H2 2797   5.119   2.016   2.967
  931TIP3   OH2 2798   3.351   5.830   3.154
  931TIP3    H1 2799   3.372   5.780   3.233
  931TIP3    H2 2800   3.316   5.765   3.093
  932TIP3   OH2 2801   4.172   2.390   2.385
  932TIP3    H1 2802   4.157   2.304   2.423
  932TIP3    H2 2803   4.165   2.377   2.291
  933TIP3   OH2 2804   3.278   0.110   0.554
  933TIP3    H1 2805   3.306   0.061   0.631
  933TIP3    H2 2806   3.287   0.202   0.580
  934TIP3   OH2 2807   2.208   4.421   3.041
  934TIP3    H1 2808   2.251   4.507   3.046
  934TIP3    H2 2809   2.115   4.440   3.054
  935TIP3   OH2 2810   3.599   4.122   4.258
  935TIP3    H1 2811   3.573   4.033   4.281
  935TIP3    H2 2812   3.693   4.116   4.241
  936TIP3   OH2 2813   5.227   1.188   2.503
  936TIP3    H1 2814   5.288   1.257   2.530
  936TIP3    H2 2815   5.141   1.231   2.503
  937TIP3   OH2 2816   0.660   1.723   3.737
  937TIP3    H1 2817   0.608   1.750   3.813
  937TIP3    H2 2818   0.682   1.805   3.692
  938TIP3   OH2 2819   5.355   4.788   1.018
  938TIP3    H1 2820   5.424   4.750   1.072
  938TIP3    H2 2821   5.308   4.846   1.077
  939TIP3   OH2 2822   4.823   0.643   4.192
  939TIP3    H1 2823   4.743   0.653   4.243
  939TIP3    H2 2824   4.868   0.568   4.231
  940TIP3   OH2 2825   6.169   3.846   3.581
  940TIP3    H1 2826   6.189   3.768   3.633
  940TIP3    H2 2827   6.251   3.865   3.535
  941TIP3   OH2 2828   4.509   4.873   3.651
  941TIP3    H1 2829   4.534   4.944   3.591
  941TIP3    H2 2830   4.437   4.910   3.702
  942TIP3   OH2 2831   1.083   5.366   1.192
  942TIP3    H1 2832   1.128   5.296   1.145
  942TIP3    H2 2833   1.036   5.414   1.124
  943TIP3   OH2 2834   4.061   1.737   3.093
  943TIP3    H1 2835   3.987   1.757   3.035
  943TIP3    H2 2836   4.122   1.689   3.037
  944TIP3   OH2 2837   3.245   4.280   0.727
  944TIP3    H1 2838   3.291   4.353   0.770
  944TIP3    H2 2839   3.313   4.212   0.717
  945TIP3   OH2 2840   3.295   4.733   0.203
  945TIP3    H1 2841   3.332   4.685   0.278
  945TIP3    H2 2842   3.347   4.813   0.199
  946TIP3   OH2 2843   4.133   5.717   4.698
  946TIP3    H1 2844   4.173   5.794   4.740
  946TIP3    H2 2845   4.205   5.654   4.689
  947TIP3   OH2 2846   2.273   5.240   0.020
  947TIP3    H1 2847   2.223   5.253   0.100
  947TIP3    H2 2848   2.359   5.211   0.050
  948TIP3   OH2 2849   3.746   0.286   3.645
  948TIP3    H1 2850   3.735   0.338   3.724
  948TIP3    H2 2851   3.763   0.350   3.576
  949TIP3   OH2 2852   1.916   1.668   0.120
  949TIP3    H1 2853   1.865   1.588   0.127
  949TIP3    H2 2854   2.007   1.639   0.126
  950TIP3   OH2 2855   0.590   2.448   3.866
  950TIP3    H1 2856   0.584   2.461   3.771
  950TIP3    H2 2857   0.535   2.372   3.884
  951TIP3   OH2 2858   4.525   3.369   5.165
  951TIP3    H1 2859   4.576   3.433   5.215
  951TIP3    H2 2860   4.566   3.285   5.185
  952TIP3   OH2 2861   5.110   3.513   3.651
  952TIP3    H1 2862   5.083   3.545   3.565
  952TIP3    H2 2863   5.030   3.473   3.687
  953TIP3   OH2 2864   5.227   3.879   2.475
  953TIP3    H1 2865   5.179   3.855   2.396
  953TIP3    H2 2866   5.319   3.861   2.454
  954TIP3   OH2 2867   6.002   3.695   4.999
  954TIP3    H1 2868   5.936   3.732   4.941
  954TIP3    H2 2869   5.962   3.615   5.034
  955TIP3   OH2 2870   0.083   1.437   2.290
  955TIP3    H1 2871   0.052   1.441   2.199
  955TIP3    H2 2872   0.123   1.522   2.305
  956TIP3   OH2 2873   0.849   5.000   5.061
  956TIP3    H1 2874   0.890   5.042   4.986
  956TIP3    H2 2875   0.779   4.946   5.023
  957TIP3   OH2 2876   3.846   4.664   4.295
  957TIP3    H1 2877   3.900   4.642   4.371
  957TIP3    H2 2878   3.761   4.626   4.315
  958TIP3   OH2 2879   2.409   0.508   3.988
  958TIP3    H1 2880   2.390   0.423   4.029
  958TIP3    H2 2881   2.457   0.485   3.908
  959TIP3   OH2 2882   3.875   4.366   2.196
  959TIP3    H1 2883   3.797   4.384   2.144
  959TIP3    H2 2884   3.917   4.451   2.209
  960TIP3   OH2 2885   4.798   1.711   3.289
  960TIP3    H1 2886   4.877   1.764   3.293
  960TIP3    H2 2887   4.778   1.704   3.195
  961TIP3   OH2 2888   4.241   0.270   2.872
  961TIP3    H1 2889   4.222   0.210   2.800
  961TIP3    H2 2890   4.155   0.287   2.912
  962TIP3   OH2 2891   6.187   1.970   1.626
  962TIP3    H1 2892   6.245   1.914   1.575
  962TIP3    H2 2893   6.103   1.925   1.625
  963TIP3   OH2 2894   2.142   1.550   1.636
  963TIP3    H1 2895   2.190   1.552   1.719
  963TIP3    H2 2896   2.130   1.457   1.618
  964TIP3   OH2 2897   1.691   0.231   1.710
  964TIP3    H1 2898   1.607   0.189   1.690
  964TIP3    H2 2899   1.685   0.252   1.804
  965TIP3   OH2 2900   2.431   0.273   4.990
  965TIP3    H1 2901   2.480   0.199   4.954
  965TIP3    H2 2902   2.370   0.297   4.921
  966TIP3   OH2 2903   5.425   5.272   0.699
  966TIP3    H1 2904   5.508   5.311   0.724
  966TIP3    H2 2905   5.401   5.316   0.617
  967TIP3   OH2 2906   3.886   1.385   2.985
  967TIP3    H1 2907   3.936   1.372   3.066
  967TIP3    H2 2908   3.953   1.390   2.917
  968TIP3   OH2 2909   0.354   3.729   4.725
  968TIP3    H1 2910   0.294   3.791   4.684
  968TIP3    H2 2911   0.437   3.743   4.679
  969TIP3   OH2 2912   4.355   3.844   3.884
  969TIP3    H1 2913   4.437   3.892   3.893
  969TIP3    H2 2914   4.324   3.833   3.974
  970TIP3   OH2 2915   6.347   4.117   4.083
  970TIP3    H1 2916   6.284   4.091   4.016
  970TIP3    H2 2917   6.299   4.180   4.137
  971TIP3   OH2 2918   1.919   5.515   0.429
  971TIP3    H1 2919   1.924   5.455   0.354
  971TIP3    H2 2920   1.956   5.597   0.396
  972TIP3   OH2 2921   4.307   0.712   2.059
  972TIP3    H1 2922   4.317   0.667   2.143
  972TIP3    H2 2923   4.345   0.798   2.073
  973TIP3   OH2 2924   0.703   3.785   1.575
  973TIP3    H1 2925   0.753   3.750   1.501
  973TIP3    H2 2926   0.678   3.873   1.548
  974TIP3   OH2 2927   1.917   4.654   0.787
  974TIP3    H1 2928   1.971   4.653   0.866
  974TIP3    H2 2929   1.831   4.626   0.817
  975TIP3   OH2 2930   5.903   3.451   5.046
  975TIP3    H1 2931   5.844   3.376   5.055
  975TIP3    H2 2932   5.990   3.414   5.061
  976TIP3   OH2 2933   3.557   2.417   4.005
  976TIP3    H1 2934   3.634   2.364   3.984
  976TIP3    H2 2935   3.573   2.448   4.094
  977TIP3   OH2 2936   2.126   1.464   2.071
  977TIP3    H1 2937   2.069   1.390   2.093
  977TIP3    H2 2938   2.205   1.449   2.123
  978TIP3   OH2 2939   1.565   3.534   1.160
  978TIP3    H1 2940   1.628   3.579   1.215
  978TIP3    H2 2941   1.562   3.444   1.194
  979TIP3   OH2 2942   5.312   3.799   4.458
  979TIP3    H1 2943   5.231   3.767   4.419
  979TIP3    H2 2944   5.288   3.824   4.547
  980TIP3   OH2 2945   5.492   1.852   2.907
  980TIP3    H1 2946   5.535   1.920   2.856
  980TIP3    H2 2947   5.537   1.771   2.884
  981TIP3   OH2 2948   2.137   1.886   4.989
  981TIP3    H1 2949   2.157   1.946   5.061
  981TIP3    H2 2950   2.107   1.806   5.032
  982TIP3   OH2 2951   2.135   4.292   0.908
  982TIP3    H1 2952   2.122   4.198   0.916
  982TIP3    H2 2953   2.195   4.302   0.835
  983TIP3   OH2 2954  -0.019   4.038   2.239
  983TIP3    H1 2955   0.075   4.029   2.254
  983TIP3    H2 2956  -0.036   3.984   2.161
  984TIP3   OH2 2957   3.771   0.670   1.667
  984TIP3    H1 2958   3.802   0.580   1.673
  984TIP3    H2 2959   3.700   0.675   1.732
  985TIP3   OH2 2960   0.005   3.833   0.888
  985TIP3    H1 2961   0.090   3.829   0.845
  985TIP3    H2 2962  -0.013   3.927   0.899
  986TIP3   OH2 2963   5.829   1.913   3.495
  986TIP3    H1 2964   5.913   1.885   3.459
  986TIP3    H2 2965   5.845   2.003   3.525
  987TIP3   OH2 2966   4.239   2.943   3.783
  987TIP3    H1 2967   4.335   2.943   3.782
  987TIP3    H2 2968   4.216   3.035   3.800
  988TIP3   OH2 2969   3.560   5.680   0.076
  988TIP3    H1 2970   3.533   5.618   0.008
  988TIP3    H2 2971   3.596   5.754   0.028
  989TIP3   OH2 2972   6.355   5.356   1.115
  989TIP3    H1 2973   6.320   5.297   1.183
  989TIP3    H2 2974   6.284   5.417   1.097
  990TIP3   OH2 2975   3.962   5.301   2.069
  990TIP3    H1 2976   3.904   5.251   2.127
  990TIP3    H2 2977   3.929   5.391   2.074
  991TIP3   OH2 2978   4.662   5.261   2.298
  991TIP3    H1 2979   4.598   5.333   2.301
  991TIP3    H2 2980   4.736   5.293   2.349
  992TIP3   OH2 2981   3.999   2.551   0.997
  992TIP3    H1 2982   4.052   2.484   0.954
  992TIP3    H2 2983   4.055   2.587   1.065
  993TIP3   OH2 2984   2.380   0.875   1.931
  993TIP3    H1 2985   2.406   0.816   1.861
  993TIP3    H2 2986   2.419   0.838   2.010
  994TIP3   OH2 2987   1.289   2.120   2.437
  994TIP3    H1 2988   1.318   2.144   2.525
  994TIP3    H2 2989   1.195   2.109   2.445
  995TIP3   OH2 2990   3.708   1.981   2.540
  995TIP3    H1 2991   3.640   2.039   2.574
  995TIP3    H2 2992   3.779   1.986   2.605
  996TIP3   OH2 2993   0.914   5.567   2.399
  996TIP3    H1 2994   0.903   5.561   2.494
  996TIP3    H2 2995   0.937   5.659   2.383
  997TIP3   OH2 2996   4.065   2.056   4.542
  997TIP3    H1 2997   4.057   2.124   4.609
  997TIP3    H2 2998   4.107   2.099   4.468
  998TIP3   OH2 2999   5.175   2.219   0.619
  998TIP3    H1 3000   5.147   2.128   0.611
  998TIP3    H2 3001   5.173   2.236   0.713
  999TIP3   OH2 3002   2.590   2.298   3.839
  999TIP3    H1 3003   2.668   2.285   3.785
  999TIP3    H2 3004   2.517   2.296   3.778
 1000TIP3   OH2 3005   1.013   3.831   3.454
 1000TIP3    H1 3006   0.991   3.756   3.508
 1000TIP3    H2 3007   1.041   3.899   3.516
 1001TIP3   OH2 3008   4.235   2.012   1.682
 1001TIP3    H1 3009   4.179   1.955   1.735
 1001TIP3    H2 3010   4.314   1.960   1.666
 1002TIP3   OH2 3011   1.819   0.943   5.071
 1002TIP3    H1 3012   1.730   0.931   5.038
 1002TIP3    H2 3013   1.844   0.857   5.105
 1003TIP3   OH2 3014   3.546   3.035   0.613
 1003TIP3    H1 3015   3.494   2.965   0.651
 1003TIP3    H2 3016   3.493   3.114   0.623
 1004TIP3   OH2 3017   3.259   5.417   2.014
 1004TIP3    H1 3018   3.187   5.469   2.050
 1004TIP3    H2 3019   3.309   5.389   2.091
 1005TIP3   OH2 3020   0.929   4.011   3.228
 1005TIP3    H1 3021   0.960   4.099   3.249
 1005TIP3    H2 3022   0.964   3.956   3.298
 1006TIP3   OH2 3023   0.823   1.494   4.704
 1006TIP3    H1 3024   0.791   1.504   4.794
 1006TIP3    H2 3025   0.850   1.582   4.678
 1007TIP3   OH2 3026   4.984   3.556   3.147
 1007TIP3    H1 3027   5.013   3.616   3.078
 1007TIP3    H2 3028   5.022   3.472   3.123
 1008TIP3   OH2 3029   1.683   5.413   0.598
 1008TIP3    H1 3030   1.726   5.454   0.523
 1008TIP3    H2 3031   1.744   5.424   0.670
 1009TIP3   OH2 3032   1.887   2.117   3.122
 1009TIP3    H1 3033   1.927   2.204   3.131
 1009TIP3    H2 3034   1.799   2.135   3.088
 1010TIP3   OH2 3035   2.236   2.932   2.944
 1010TIP3    H1 3036   2.201   2.944   3.032
 1010TIP3    H2 3037   2.159   2.920   2.889
 1011TIP3   OH2 3038   2.560   5.506   1.061
 1011TIP3    H1 3039   2.465   5.510   1.070
 1011TIP3    H2 3040   2.593   5.540   1.144
 1012TIP3   OH2 3041   0.669   2.182   4.617
 1012TIP3    H1 3042   0.740   2.119   4.628
 1012TIP3    H2 3043   0.594   2.130   4.590
 1013TIP3   OH2 3044   5.028   3.145   3.219
 1013TIP3    H1 3045   5.001   3.205   3.150
 1013TIP3    H2 3046   5.123   3.138   3.210
 1014TIP3   OH2 3047   4.686   3.557   1.475
 1014TIP3    H1 3048   4.691   3.603   1.559
 1014TIP3    H2 3049   4.684   3.627   1.410
 1015TIP3   OH2 3050   4.301   2.054   3.865
 1015TIP3    H1 3051   4.367   2.070   3.797
 1015TIP3    H2 3052   4.236   2.124   3.852
 1016TIP3   OH2 3053   2.763   3.517   1.543
 1016TIP3    H1 3054   2.753   3.526   1.448
 1016TIP3    H2 3055   2.687   3.562   1.580
 1017TIP3   OH2 3056   3.597   1.708   3.900
 1017TIP3    H1 3057   3.677   1.707   3.953
 1017TIP3    H2 3058   3.603   1.631   3.845
 1018TIP3   OH2 3059   0.691   0.405   3.835
 1018TIP3    H1 3060   0.752   0.377   3.767
 1018TIP3    H2 3061   0.622   0.339   3.835
 1019TIP3   OH2 3062   2.981   3.897   4.075
 1019TIP3    H1 3063   2.915   3.940   4.128
 1019TIP3    H2 3064   3.063   3.913   4.122
 1020TIP3   OH2 3065   0.042   4.397   4.368
 1020TIP3    H1 3066  -0.018   4.379   4.441
 1020TIP3    H2 3067   0.125   4.420   4.409
 1021TIP3   OH2 3068   3.267   5.080   3.680
 1021TIP3    H1 3069   3.266   5.097   3.774
 1021TIP3    H2 3070   3.174   5.074   3.656
 1022TIP3   OH2 3071   2.887   2.142   0.286
 1022TIP3    H1 3072   2.817   2.085   0.254
 1022TIP3    H2 3073   2.963   2.118   0.233
 1023TIP3   OH2 3074   3.950   4.500   0.865
 1023TIP3    H1 3075   3.957   4.451   0.947
 1023TIP3    H2 3076   3.892   4.447   0.810
 1024TIP3   OH2 3077   3.137   3.703   4.411
 1024TIP3    H1 3078   3.120   3.669   4.498
 1024TIP3    H2 3079   3.104   3.635   4.352
 1025TIP3   OH2 3080   5.929   2.164   3.560
 1025TIP3    H1 3081   5.866   2.230   3.529
 1025TIP3    H2 3082   5.977   2.208   3.629
 1026TIP3   OH2 3083   2.935   2.078   2.326
 1026TIP3    H1 3084   2.904   2.030   2.403
 1026TIP3    H2 3085   2.855   2.116   2.288
 1027TIP3   OH2 3086   4.871   5.959   0.908
 1027TIP3    H1 3087   4.835   5.940   0.820
 1027TIP3    H2 3088   4.873   6.054   0.913
 1028TIP3   OH2 3089   3.573   3.948   2.110
 1028TIP3    H1 3090   3.641   3.999   2.154
 1028TIP3    H2 3091   3.515   3.920   2.181
 1029TIP3   OH2 3092   2.642   5.714   2.892
 1029TIP3    H1 3093   2.590   5.792   2.872
 1029TIP3    H2 3094   2.712   5.747   2.949
 1030TIP3   OH2 3095   5.473   4.771   0.751
 1030TIP3    H1 3096   5.561   4.808   0.752
 1030TIP3    H2 3097   5.433   4.803   0.832
 1031TIP3   OH2 3098   4.241   5.534   5.179
 1031TIP3    H1 3099   4.212   5.455   5.134
 1031TIP3    H2 3100   4.169   5.557   5.238
 1032TIP3   OH2 3101   3.803   1.192   4.972
 1032TIP3    H1 3102   3.760   1.272   4.943
 1032TIP3    H2 3103   3.783   1.186   5.065
 1033TIP3   OH2 3104   2.971   5.364   2.432
 1033TIP3    H1 3105   3.010   5.322   2.509
 1033TIP3    H2 3106   3.008   5.452   2.431
 1034TIP3   OH2 3107   5.887   2.584   0.788
 1034TIP3    H1 3108   5.940   2.624   0.857
 1034TIP3    H2 3109   5.830   2.522   0.833
 1035TIP3   OH2 3110   0.239   2.725   3.693
 1035TIP3    H1 3111   0.282   2.640   3.705
 1035TIP3    H2 3112   0.183   2.712   3.617
 1036TIP3   OH2 3113   4.973   2.043   0.127
 1036TIP3    H1 3114   5.022   2.057   0.045
 1036TIP3    H2 3115   4.951   1.950   0.125
 1037TIP3   OH2 3116   3.021   5.175   3.823
 1037TIP3    H1 3117   2.931   5.150   3.804
 1037TIP3    H2 3118   3.026   5.175   3.919
 1038TIP3   OH2 3119   6.097   1.199   4.256
 1038TIP3    H1 3120   6.108   1.280   4.207
 1038TIP3    H2 3121   6.130   1.218   4.344
 1039TIP3   OH2 3122   0.409   1.793   0.932
 1039TIP3    H1 3123   0.363   1.713   0.956
 1039TIP3    H2 3124   0.368   1.820   0.850
 1040TIP3   OH2 3125   3.138   0.414   3.736
 1040TIP3    H1 3126   3.156   0.362   3.657
 1040TIP3    H2 3127   3.090   0.355   3.793
 1041TIP3   OH2 3128   0.457   5.994   4.911
 1041TIP3    H1 3129   0.485   5.983   4.821
 1041TIP3    H2 3130   0.466   5.907   4.950
 1042TIP3   OH2 3131   5.323   2.458   3.881
 1042TIP3    H1 3132   5.236   2.484   3.913
 1042TIP3    H2 3133   5.355   2.535   3.834
 1043TIP3   OH2 3134   1.625   2.111   3.014
 1043TIP3    H1 3135   1.634   2.046   2.945
 1043TIP3    H2 3136   1.612   2.194   2.968
 1044TIP3   OH2 3137   2.625   2.644   1.503
 1044TIP3    H1 3138   2.589   2.674   1.587
 1044TIP3    H2 3139   2.560   2.672   1.438
 1045TIP3   OH2 3140   0.010   2.486   4.107
 1045TIP3    H1 3141   0.084   2.506   4.164
 1045TIP3    H2 3142   0.036   2.405   4.062
 1046TIP3   OH2 3143   4.735   1.338   2.939
 1046TIP3    H1 3144   4.704   1.248   2.931
 1046TIP3    H2 3145   4.805   1.333   3.004
 1047TIP3   OH2 3146   2.708   2.858   0.308
 1047TIP3    H1 3147   2.731   2.775   0.350
 1047TIP3    H2 3148   2.637   2.836   0.248
 1048TIP3   OH2 3149   0.913   1.245   1.503
 1048TIP3    H1 3150   0.927   1.250   1.598
 1048TIP3    H2 3151   0.870   1.327   1.481
 1049TIP3   OH2 3152   5.868   2.939   2.623
 1049TIP3    H1 3153   5.913   2.856   2.611
 1049TIP3    H2 3154   5.777   2.922   2.599
 1050TIP3   OH2 3155   2.235   5.435   2.472
 1050TIP3    H1 3156   2.158   5.379   2.482
 1050TIP3    H2 3157   2.210   5.500   2.406
 1051TIP3   OH2 3158   4.125   1.410   2.827
 1051TIP3    H1 3159   4.067   1.431   2.754
 1051TIP3    H2 3160   4.153   1.495   2.859
 1052TIP3   OH2 3161   2.938   5.445   2.121
 1052TIP3    H1 3162   2.969   5.391   2.194
 1052TIP3    H2 3163   2.888   5.385   2.066
 1053TIP3   OH2 3164   1.785   4.524   2.117
 1053TIP3    H1 3165   1.818   4.583   2.185
 1053TIP3    H2 3166   1.698   4.558   2.096
 1054TIP3   OH2 3167   4.714   4.250   4.518
 1054TIP3    H1 3168   4.735   4.161   4.489
 1054TIP3    H2 3169   4.624   4.244   4.550
 1055TIP3   OH2 3170   5.511   1.240   1.096
 1055TIP3    H1 3171   5.505   1.144   1.096
 1055TIP3    H2 3172   5.561   1.261   1.018
 1056TIP3   OH2 3173   6.100   0.807   2.047
 1056TIP3    H1 3174   6.098   0.867   2.121
 1056TIP3    H2 3175   6.112   0.864   1.971
 1057TIP3   OH2 3176   0.077   1.297   4.336
 1057TIP3    H1 3177  -0.015   1.306   4.311
 1057TIP3    H2 3178   0.126   1.325   4.259
 1058TIP3   OH2 3179   2.840   3.513   0.980
 1058TIP3    H1 3180   2.815   3.603   1.003
 1058TIP3    H2 3181   2.757   3.467   0.967
 1059TIP3   OH2 3182   4.235   1.573   1.010
 1059TIP3    H1 3183   4.312   1.547   0.960
 1059TIP3    H2 3184   4.197   1.490   1.041
 1060TIP3   OH2 3185   6.148   3.789   2.127
 1060TIP3    H1 3186   6.099   3.871   2.126
 1060TIP3    H2 3187   6.225   3.806   2.072
 1061TIP3   OH2 3188   0.750   0.516   2.843
 1061TIP3    H1 3189   0.763   0.531   2.749
 1061TIP3    H2 3190   0.752   0.421   2.853
 1062TIP3   OH2 3191   4.976   3.195   2.444
 1062TIP3    H1 3192   5.009   3.206   2.534
 1062TIP3    H2 3193   4.975   3.101   2.431
 1063TIP3   OH2 3194   1.134   3.748   0.417
 1063TIP3    H1 3195   1.188   3.772   0.493
 1063TIP3    H2 3196   1.188   3.771   0.342
 1064TIP3   OH2 3197   0.043   3.405   0.341
 1064TIP3    H1 3198   0.004   3.340   0.400
 1064TIP3    H2 3199   0.127   3.366   0.316
 1065TIP3   OH2 3200   3.940   5.033   3.300
 1065TIP3    H1 3201   3.948   5.117   3.255
 1065TIP3    H2 3202   3.989   5.046   3.382
 1066TIP3   OH2 3203   3.742   2.680   1.791
 1066TIP3    H1 3204   3.674   2.676   1.725
 1066TIP3    H2 3205   3.811   2.733   1.752
 1067TIP3   OH2 3206   6.006   5.156   0.326
 1067TIP3    H1 3207   6.061   5.225   0.360
 1067TIP3    H2 3208   6.034   5.077   0.372
 1068TIP3   OH2 3209   1.398   1.518   1.468
 1068TIP3    H1 3210   1.365   1.438   1.428
 1068TIP3    H2 3211   1.407   1.496   1.561
 1069TIP3   OH2 3212   5.548   2.297   3.113
 1069TIP3    H1 3213   5.591   2.236   3.173
 1069TIP3    H2 3214   5.456   2.294   3.138
 1070TIP3   OH2 3215   5.080   2.710   2.930
 1070TIP3    H1 3216   5.137   2.784   2.909
 1070TIP3    H2 3217   5.136   2.648   2.975
 1071TIP3   OH2 3218   1.482   1.768   2.685
 1071TIP3    H1 3219   1.533   1.831   2.635
 1071TIP3    H2 3220   1.482   1.689   2.631
 1072TIP3   OH2 3221   1.521   5.307   4.781
 1072TIP3    H1 3222   1.614   5.326   4.791
 1072TIP3    H2 3223   1.515   5.261   4.697
 1073TIP3   OH2 3224   1.879   1.273   4.299
 1073TIP3    H1 3225   1.796   1.319   4.287
 1073TIP3    H2 3226   1.873   1.198   4.240
 1074TIP3   OH2 3227   1.649   4.509   2.990
 1074TIP3    H1 3228   1.653   4.423   3.033
 1074TIP3    H2 3229   1.674   4.492   2.899
 1075TIP3   OH2 3230   2.431   4.226   2.520
 1075TIP3    H1 3231   2.376   4.229   2.598
 1075TIP3    H2 3232   2.470   4.313   2.514
 1076TIP3   OH2 3233   4.074   3.808   3.624
 1076TIP3    H1 3234   3.983   3.829   3.601
 1076TIP3    H2 3235   4.074   3.802   3.719
 1077TIP3   OH2 3236   2.099   0.776   1.321
 1077TIP3    H1 3237   2.075   0.750   1.410
 1077TIP3    H2 3238   2.024   0.750   1.268
 1078TIP3   OH2 3239   3.745   2.216   0.175
 1078TIP3    H1 3240   3.692   2.146   0.215
 1078TIP3    H2 3241   3.762   2.184   0.086
 1079TIP3   OH2 3242   3.336   3.041   1.757
 1079TIP3    H1 3243   3.357   2.972   1.820
 1079TIP3    H2 3244   3.319   2.994   1.675
 1080TIP3   OH2 3245   4.656   5.134   0.686
 1080TIP3    H1 3246   4.616   5.196   0.625
 1080TIP3    H2 3247   4.604   5.142   0.766
 1081TIP3   OH2 3248   2.912   1.679   4.810
 1081TIP3    H1 3249   2.924   1.594   4.766
 1081TIP3    H2 3250   2.818   1.695   4.805
 1082TIP3   OH2 3251   3.000   1.432   1.259
 1082TIP3    H1 3252   3.061   1.360   1.244
 1082TIP3    H2 3253   2.975   1.461   1.171
 1083TIP3   OH2 3254   0.954   5.783   1.839
 1083TIP3    H1 3255   1.047   5.769   1.818
 1083TIP3    H2 3256   0.910   5.779   1.754
 1084TIP3   OH2 3257   0.506   1.374   5.093
 1084TIP3    H1 3258   0.510   1.280   5.110
 1084TIP3    H2 3259   0.433   1.384   5.032
 1085TIP3   OH2 3260   1.053   0.376   2.043
 1085TIP3    H1 3261   1.076   0.372   2.135
 1085TIP3    H2 3262   1.127   0.419   2.001
 1086TIP3   OH2 3263   1.492   2.650   1.594
 1086TIP3    H1 3264   1.565   2.591   1.608
 1086TIP3    H2 3265   1.511   2.725   1.650
 1087TIP3   OH2 3266   0.044   0.184   0.916
 1087TIP3    H1 3267  -0.009   0.191   0.836
 1087TIP3    H2 3268   0.122   0.136   0.889
 1088TIP3   OH2 3269   0.674   1.168   3.573
 1088TIP3    H1 3270   0.654   1.246   3.521
 1088TIP3    H2 3271   0.754   1.191   3.621
 1089TIP3   OH2 3272   3.952   0.042   2.977
 1089TIP3    H1 3273   3.901  -0.039   2.986
 1089TIP3    H2 3274   4.006   0.046   3.056
 1090TIP3   OH2 3275   2.013   2.184   4.827
 1090TIP3    H1 3276   1.926   2.211   4.856
 1090TIP3    H2 3277   2.072   2.214   4.896
 1091TIP3   OH2 3278   1.510   1.626   3.057
 1091TIP3    H1 3279   1.450   1.688   3.015
 1091TIP3    H2 3280   1.512   1.654   3.149
 1092TIP3   OH2 3281   6.295   3.947   3.073
 1092TIP3    H1 3282   6.214   3.981   3.110
 1092TIP3    H2 3283   6.316   3.871   3.127
 1093TIP3   OH2 3284   4.492   3.698   0.679
 1093TIP3    H1 3285   4.548   3.625   0.653
 1093TIP3    H2 3286   4.547   3.751   0.736
 1094TIP3   OH2 3287   5.097   5.779   4.786
 1094TIP3    H1 3288   5.161   5.803   4.719
 1094TIP3    H2 3289   5.012   5.783   4.741
 1095TIP3   OH2 3290   5.658   2.791   2.334
 1095TIP3    H1 3291   5.580   2.809   2.282
 1095TIP3    H2 3292   5.643   2.837   2.417
 1096TIP3   OH2 3293   3.796   0.125   5.174
 1096TIP3    H1 3294   3.787   0.051   5.234
 1096TIP3    H2 3295   3.888   0.121   5.146
 1097TIP3   OH2 3296   0.963   1.992   1.132
 1097TIP3    H1 3297   0.957   1.951   1.218
 1097TIP3    H2 3298   1.020   1.933   1.082
 1098TIP3   OH2 3299   1.913   0.519   2.219
 1098TIP3    H1 3300   1.987   0.563   2.178
 1098TIP3    H2 3301   1.851   0.590   2.240
 1099TIP3   OH2 3302   6.121   5.776   4.352
 1099TIP3    H1 3303   6.097   5.723   4.275
 1099TIP3    H2 3304   6.129   5.713   4.423
 1100TIP3   OH2 3305   6.021   2.789   4.739
 1100TIP3    H1 3306   6.047   2.809   4.829
 1100TIP3    H2 3307   6.104   2.780   4.692
 1101TIP3   OH2 3308   6.326   1.078   3.424
 1101TIP3    H1 3309   6.286   1.105   3.341
 1101TIP3    H2 3310   6.254   1.045   3.477
 1102TIP3   OH2 3311   3.061   3.696   1.127
 1102TIP3    H1 3312   3.138   3.664   1.079
 1102TIP3    H2 3313   3.021   3.617   1.164
 1103TIP3   OH2 3314   1.050   2.254   4.635
 1103TIP3    H1 3315   1.038   2.165   4.600
 1103TIP3    H2 3316   0.962   2.284   4.654
 1104TIP3   OH2 3317   5.646   1.910   1.619
 1104TIP3    H1 3318   5.620   1.996   1.585
 1104TIP3    H2 3319   5.564   1.869   1.647
 1105TIP3   OH2 3320   5.816   5.917   0.507
 1105TIP3    H1 3321   5.866   5.943   0.430
 1105TIP3    H2 3322   5.882   5.897   0.573
 1106TIP3   OH2 3323   2.224   3.150   2.460
 1106TIP3    H1 3324   2.230   3.142   2.556
 1106TIP3    H2 3325   2.248   3.064   2.427
 1107TIP3   OH2 3326   4.908   1.272   2.498
 1107TIP3    H1 3327   4.817   1.246   2.482
 1107TIP3    H2 3328   4.904   1.325   2.578
 1108TIP3   OH2 3329   5.192   5.430   4.004
 1108TIP3    H1 3330   5.193   5.520   4.037
 1108TIP3    H2 3331   5.212   5.439   3.911
 1109TIP3   OH2 3332   4.953   4.206   2.275
 1109TIP3    H1 3333   5.007   4.212   2.197
 1109TIP3    H2 3334   4.867   4.180   2.242
 1110TIP3   OH2 3335   3.718   0.944   0.212
 1110TIP3    H1 3336   3.795   0.974   0.261
 1110TIP3    H2 3337   3.742   0.955   0.120
 1111TIP3   OH2 3338   0.982   3.548   4.618
 1111TIP3    H1 3339   0.965   3.508   4.533
 1111TIP3    H2 3340   1.073   3.524   4.638
 1112TIP3   OH2 3341   3.994   2.806   2.799
 1112TIP3    H1 3342   3.918   2.788   2.743
 1112TIP3    H2 3343   4.066   2.759   2.757
 1113TIP3   OH2 3344   0.142   1.829   1.850
 1113TIP3    H1 3345   0.131   1.924   1.842
 1113TIP3    H2 3346   0.233   1.814   1.822
 1114TIP3   OH2 3347   4.245   2.280   1.825
 1114TIP3    H1 3348   4.288   2.273   1.739
 1114TIP3    H2 3349   4.276   2.203   1.873
 1115TIP3   OH2 3350   3.640   5.816   0.830
 1115TIP3    H1 3351   3.600   5.775   0.907
 1115TIP3    H2 3352   3.729   5.837   0.858
 1116TIP3   OH2 3353   2.908   1.398   4.703
 1116TIP3    H1 3354   2.833   1.343   4.727
 1116TIP3    H2 3355   2.974   1.336   4.672
 1117TIP3   OH2 3356   2.783   0.969   3.438
 1117TIP3    H1 3357   2.859   0.922   3.471
 1117TIP3    H2 3358   2.762   1.032   3.508
 1118TIP3   OH2 3359   1.089   5.928   0.092
 1118TIP3    H1 3360   1.178   5.893   0.097
 1118TIP3    H2 3361   1.077   5.948  -0.001
 1119TIP3   OH2 3362   0.276   0.961   2.402
 1119TIP3    H1 3363   0.233   1.047   2.408
 1119TIP3    H2 3364   0.254   0.918   2.484
 1120TIP3   OH2 3365   5.830   5.865   1.343
 1120TIP3    H1 3366   5.817   5.927   1.415
 1120TIP3    H2 3367   5.819   5.779   1.383
 1121TIP3   OH2 3368   1.173   0.217   3.485
 1121TIP3    H1 3369   1.255   0.171   3.503
 1121TIP3    H2 3370   1.196   0.282   3.419
 1122TIP3   OH2 3371   0.095   5.109   2.945
 1122TIP3    H1 3372   0.081   5.142   3.034
 1122TIP3    H2 3373   0.188   5.119   2.929
 1123TIP3   OH2 3374   1.221   3.107   3.514
 1123TIP3    H1 3375   1.179   3.176   3.462
 1123TIP3    H2 3376   1.245   3.150   3.596
 1124TIP3   OH2 3377   5.473   2.049   1.400
 1124TIP3    H1 3378   5.411   1.998   1.349
 1124TIP3    H2 3379   5.546   2.065   1.341
 1125TIP3   OH2 3380   2.320   1.529   0.569
 1125TIP3    H1 3381   2.329   1.585   0.647
 1125TIP3    H2 3382   2.381   1.568   0.506
 1126TIP3   OH2 3383   6.019   1.646   1.717
 1126TIP3    H1 3384   6.089   1.651   1.783
 1126TIP3    H2 3385   5.938   1.647   1.767
 1127TIP3   OH2 3386   0.524   0.582   4.646
 1127TIP3    H1 3387   0.547   0.527   4.571
 1127TIP3    H2 3388   0.433   0.561   4.664
 1128TIP3   OH2 3389   1.976   0.315   3.323
 1128TIP3    H1 3390   1.885   0.287   3.312
 1128TIP3    H2 3391   1.979   0.403   3.285
 1129TIP3   OH2 3392   3.556   5.241   2.133
 1129TIP3    H1 3393   3.485   5.286   2.179
 1129TIP3    H2 3394   3.579   5.300   2.061
 1130TIP3   OH2 3395   1.330   4.704   3.987
 1130TIP3    H1 3396   1.275   4.626   3.994
 1130TIP3    H2 3397   1.322   4.729   3.895
 1131TIP3   OH2 3398   4.866   4.681   4.582
 1131TIP3    H1 3399   4.789   4.675   4.526
 1131TIP3    H2 3400   4.916   4.601   4.562
 1132TIP3   OH2 3401   4.046   0.940   3.007
 1132TIP3    H1 3402   4.099   1.010   2.968
 1132TIP3    H2 3403   3.957   0.957   2.977
 1133TIP3   OH2 3404   3.433   2.182   1.715
 1133TIP3    H1 3405   3.432   2.148   1.804
 1133TIP3    H2 3406   3.477   2.115   1.664
 1134TIP3   OH2 3407   1.795   4.989   4.779
 1134TIP3    H1 3408   1.859   5.013   4.712
 1134TIP3    H2 3409   1.711   5.020   4.744
 1135TIP3   OH2 3410   5.803   2.745   4.935
 1135TIP3    H1 3411   5.845   2.760   4.850
 1135TIP3    H2 3412   5.713   2.775   4.922
 1136TIP3   OH2 3413   4.786   0.867   3.873
 1136TIP3    H1 3414   4.794   0.868   3.968
 1136TIP3    H2 3415   4.729   0.942   3.853
 1137TIP3   OH2 3416   3.643   5.123   2.440
 1137TIP3    H1 3417   3.604   5.207   2.417
 1137TIP3    H2 3418   3.736   5.142   2.452
 1138TIP3   OH2 3419   3.467   3.449   4.498
 1138TIP3    H1 3420   3.539   3.449   4.435
 1138TIP3    H2 3421   3.495   3.388   4.567
 1139TIP3   OH2 3422   3.640   2.194   2.327
 1139TIP3    H1 3423   3.676   2.107   2.347
 1139TIP3    H2 3424   3.561   2.200   2.381
 1140TIP3   OH2 3425   5.120   2.309   2.668
 1140TIP3    H1 3426   5.206   2.341   2.644
 1140TIP3    H2 3427   5.074   2.385   2.703
 1141TIP3   OH2 3428   1.079   1.118   0.208
 1141TIP3    H1 3429   1.081   1.136   0.302
 1141TIP3    H2 3430   1.157   1.066   0.191
 1142TIP3   OH2 3431   3.935   3.753   2.868
 1142TIP3    H1 3432   3.996   3.680   2.853
 1142TIP3    H2 3433   3.849   3.711   2.872
 1143TIP3   OH2 3434   3.248   4.109  -0.012
 1143TIP3    H1 3435   3.175   4.170  -0.026
 1143TIP3    H2 3436   3.261   4.108   0.082
 1144TIP3   OH2 3437   4.875   3.736   1.932
 1144TIP3    H1 3438   4.889   3.682   2.010
 1144TIP3    H2 3439   4.926   3.815   1.948
 1145TIP3   OH2 3440   5.887   6.002   3.263
 1145TIP3    H1 3441   5.877   5.981   3.356
 1145TIP3    H2 3442   5.846   5.929   3.217
 1146TIP3   OH2 3443   1.536   4.783   2.468
 1146TIP3    H1 3444   1.557   4.824   2.384
 1146TIP3    H2 3445   1.614   4.797   2.522
 1147TIP3   OH2 3446   3.426   5.404   4.263
 1147TIP3    H1 3447   3.349   5.361   4.301
 1147TIP3    H2 3448   3.491   5.335   4.254
 1148TIP3   OH2 3449   1.285   3.286   2.362
 1148TIP3    H1 3450   1.284   3.206   2.309
 1148TIP3    H2 3451   1.194   3.299   2.388
 1149TIP3   OH2 3452   1.620   1.141   3.800
 1149TIP3    H1 3453   1.593   1.071   3.859
 1149TIP3    H2 3454   1.669   1.201   3.855
 1150TIP3   OH2 3455   0.882   0.077   4.716
 1150TIP3    H1 3456   0.889   0.055   4.809
 1150TIP3    H2 3457   0.854   0.168   4.715
 1151TIP3   OH2 3458   2.213   3.624   4.227
 1151TIP3    H1 3459   2.258   3.697   4.185
 1151TIP3    H2 3460   2.255   3.546   4.191
 1152TIP3   OH2 3461   4.104   1.105   5.204
 1152TIP3    H1 3462   4.120   1.111   5.110
 1152TIP3    H2 3463   4.116   1.194   5.237
 1153TIP3   OH2 3464   6.161   4.905   0.417
 1153TIP3    H1 3465   6.153   4.838   0.350
 1153TIP3    H2 3466   6.249   4.893   0.453
 1154TIP3   OH2 3467   5.146   1.948   0.652
 1154TIP3    H1 3468   5.069   1.893   0.660
 1154TIP3    H2 3469   5.203   1.901   0.590
 1155TIP3   OH2 3470   6.041   3.972   3.223
 1155TIP3    H1 3471   6.081   3.992   3.307
 1155TIP3    H2 3472   5.947   3.969   3.241
 1156TIP3   OH2 3473   2.484   4.226   4.747
 1156TIP3    H1 3474   2.435   4.291   4.798
 1156TIP3    H2 3475   2.525   4.277   4.677
 1157TIP3   OH2 3476   6.092   3.088   4.906
 1157TIP3    H1 3477   6.144   3.007   4.908
 1157TIP3    H2 3478   6.082   3.112   4.998
 1158TIP3   OH2 3479   2.088   4.071   4.724
 1158TIP3    H1 3480   2.037   4.002   4.682
 1158TIP3    H2 3481   2.158   4.026   4.770
 1159TIP3   OH2 3482   1.586   5.162   5.011
 1159TIP3    H1 3483   1.508   5.116   4.980
 1159TIP3    H2 3484   1.591   5.241   4.956
 1160TIP3   OH2 3485   2.172   5.344   1.196
 1160TIP3    H1 3486   2.223   5.354   1.276
 1160TIP3    H2 3487   2.157   5.249   1.189
 1161TIP3   OH2 3488   2.117   2.417   1.721
 1161TIP3    H1 3489   2.046   2.355   1.739
 1161TIP3    H2 3490   2.194   2.362   1.708
 1162TIP3   OH2 3491   1.131   4.383   0.841
 1162TIP3    H1 3492   1.219   4.419   0.840
 1162TIP3    H2 3493   1.141   4.293   0.810
 1163TIP3   OH2 3494   0.157   5.165   3.487
 1163TIP3    H1 3495   0.094   5.180   3.558
 1163TIP3    H2 3496   0.234   5.128   3.530
 1164TIP3   OH2 3497   0.227   2.495   3.250
 1164TIP3    H1 3498   0.169   2.423   3.277
 1164TIP3    H2 3499   0.205   2.510   3.158
 1165TIP3   OH2 3500   0.654   0.555   0.050
 1165TIP3    H1 3501   0.568   0.564   0.009
 1165TIP3    H2 3502   0.636   0.550   0.144
 1166TIP3   OH2 3503   2.490   3.044   1.260
 1166TIP3    H1 3504   2.467   3.014   1.348
 1166TIP3    H2 3505   2.501   3.139   1.270
 1167TIP3   OH2 3506   2.550   1.895   4.550
 1167TIP3    H1 3507   2.575   1.974   4.502
 1167TIP3    H2 3508   2.619   1.832   4.531
 1168TIP3   OH2 3509   0.717   2.663   0.756
 1168TIP3    H1 3510   0.750   2.585   0.800
 1168TIP3    H2 3511   0.641   2.633   0.706
 1169TIP3   OH2 3512   3.178   2.481   4.303
 1169TIP3    H1 3513   3.199   2.478   4.210
 1169TIP3    H2 3514   3.241   2.422   4.344
 1170TIP3   OH2 3515   5.485   1.202   1.455
 1170TIP3    H1 3516   5.561   1.157   1.418
 1170TIP3    H2 3517   5.464   1.154   1.534
 1171TIP3   OH2 3518   3.268   3.548   4.003
 1171TIP3    H1 3519   3.349   3.563   4.053
 1171TIP3    H2 3520   3.281   3.599   3.923
 1172TIP3   OH2 3521   4.713   5.964   3.285
 1172TIP3    H1 3522   4.743   5.923   3.366
 1172TIP3    H2 3523   4.717   6.058   3.304
 1173TIP3   OH2 3524   1.725   0.075  -0.016
 1173TIP3    H1 3525   1.717   0.146  -0.080
 1173TIP3    H2 3526   1.657   0.092   0.049
 1174TIP3   OH2 3527   2.011   4.230   1.673
 1174TIP3    H1 3528   1.918   4.214   1.657
 1174TIP3    H2 3529   2.022   4.324   1.662
 1175TIP3   OH2 3530   5.689   2.005   2.788
 1175TIP3    H1 3531   5.708   2.055   2.709
 1175TIP3    H2 3532   5.753   2.036   2.853
 1176TIP3   OH2 3533   1.498   2.898   1.706
 1176TIP3    H1 3534   1.417   2.910   1.656
 1176TIP3    H2 3535   1.470   2.889   1.797
 1177TIP3   OH2 3536   2.374   2.208   3.411
 1177TIP3    H1 3537   2.390   2.239   3.322
 1177TIP3    H2 3538   2.448   2.149   3.429
 1178TIP3   OH2 3539   0.660   3.594   2.121
 1178TIP3    H1 3540   0.743   3.639   2.106
 1178TIP3    H2 3541   0.686   3.504   2.143
 1179TIP3   OH2 3542   0.958   3.223   4.058
 1179TIP3    H1 3543   0.923   3.216   3.969
 1179TIP3    H2 3544   0.893   3.178   4.113
 1180TIP3   OH2 3545   5.669   1.786   3.693
 1180TIP3    H1 3546   5.587   1.831   3.712
 1180TIP3    H2 3547   5.711   1.839   3.625
 1181TIP3   OH2 3548   1.419   0.904   0.657
 1181TIP3    H1 3549   1.360   0.952   0.600
 1181TIP3    H2 3550   1.490   0.966   0.676
 1182TIP3   OH2 3551   0.959   4.309   4.136
 1182TIP3    H1 3552   0.908   4.250   4.191
 1182TIP3    H2 3553   0.961   4.267   4.051
 1183TIP3   OH2 3554   4.412   1.425   2.758
 1183TIP3    H1 3555   4.485   1.484   2.771
 1183TIP3    H2 3556   4.375   1.413   2.846
 1184TIP3   OH2 3557   1.269   5.123   2.430
 1184TIP3    H1 3558   1.284   5.041   2.383
 1184TIP3    H2 3559   1.174   5.125   2.446
 1185TIP3   OH2 3560   2.175   2.823   1.861
 1185TIP3    H1 3561   2.221   2.903   1.836
 1185TIP3    H2 3562   2.232   2.781   1.925
 1186TIP3   OH2 3563   0.134   2.922   2.298
 1186TIP3    H1 3564   0.219   2.892   2.329
 1186TIP3    H2 3565   0.095   2.965   2.375
 1187TIP3   OH2 3566   5.908   0.727   2.415
 1187TIP3    H1 3567   5.938   0.636   2.413
 1187TIP3    H2 3568   5.946   0.763   2.494
 1188TIP3   OH2 3569   2.833   4.544   1.901
 1188TIP3    H1 3570   2.766   4.510   1.960
 1188TIP3    H2 3571   2.898   4.584   1.958
 1189TIP3   OH2 3572   5.962   1.266   1.884
 1189TIP3    H1 3573   5.900   1.307   1.824
 1189TIP3    H2 3574   5.917   1.188   1.915
 1190TIP3   OH2 3575   4.672   3.673   1.742
 1190TIP3    H1 3576   4.626   3.603   1.789
 1190TIP3    H2 3577   4.744   3.697   1.800
 1191TIP3   OH2 3578   3.843   1.492   0.668
 1191TIP3    H1 3579   3.891   1.539   0.737
 1191TIP3    H2 3580   3.751   1.511   0.687
 1192TIP3   OH2 3581   3.296   5.799   2.399
 1192TIP3    H1 3582   3.302   5.813   2.305
 1192TIP3    H2 3583   3.262   5.882   2.434
 1193TIP3   OH2 3584   1.581   3.281   2.165
 1193TIP3    H1 3585   1.519   3.218   2.129
 1193TIP3    H2 3586   1.667   3.248   2.139
 1194TIP3   OH2 3587   5.359   5.459   5.050
 1194TIP3    H1 3588   5.331   5.371   5.077
 1194TIP3    H2 3589   5.299   5.482   4.980
 1195TIP3   OH2 3590   4.852   5.045   3.684
 1195TIP3    H1 3591   4.909   4.969   3.697
 1195TIP3    H2 3592   4.815   5.032   3.597
 1196TIP3   OH2 3593   5.671   0.615   2.576
 1196TIP3    H1 3594   5.687   0.683   2.511
 1196TIP3    H2 3595   5.725   0.542   2.547
 1197TIP3   OH2 3596   0.442   0.645   2.648
 1197TIP3    H1 3597   0.530   0.629   2.614
 1197TIP3    H2 3598   0.439   0.600   2.732
 1198TIP3   OH2 3599   2.605   0.452   2.433
 1198TIP3    H1 3600   2.534   0.427   2.492
 1198TIP3    H2 3601   2.608   0.548   2.438
 1199TIP3   OH2 3602   0.740   1.788   3.085
 1199TIP3    H1 3603   0.672   1.815   3.023
 1199TIP3    H2 3604   0.692   1.754   3.161
 1200TIP3   OH2 3605   5.245   4.407   4.812
 1200TIP3    H1 3606   5.232   4.432   4.721
 1200TIP3    H2 3607   5.205   4.320   4.818
 1201TIP3   OH2 3608   6.056   5.261   3.560
 1201TIP3    H1 3609   6.068   5.352   3.587
 1201TIP3    H2 3610   5.962   5.250   3.555
 1202TIP3   OH2 3611   3.379   5.486   1.321
 1202TIP3    H1 3612   3.337   5.425   1.382
 1202TIP3    H2 3613   3.308   5.517   1.265
 1203TIP3   OH2 3614   5.721   3.129   2.992
 1203TIP3    H1 3615   5.651   3.150   3.054
 1203TIP3    H2 3616   5.677   3.081   2.922
 1204TIP3   OH2 3617   4.093   3.382   0.921
 1204TIP3    H1 3618   4.127   3.453   0.867
 1204TIP3    H2 3619   4.080   3.309   0.860
 1205TIP3   OH2 3620   4.768   5.957   4.620
 1205TIP3    H1 3621   4.674   5.965   4.605
 1205TIP3    H2 3622   4.781   5.992   4.708
 1206TIP3   OH2 3623   0.977   1.379   3.596
 1206TIP3    H1 3624   1.043   1.325   3.552
 1206TIP3    H2 3625   1.019   1.464   3.607
 1207TIP3   OH2 3626   5.131   4.336   4.003
 1207TIP3    H1 3627   5.144   4.416   4.053
 1207TIP3    H2 3628   5.068   4.285   4.053
 1208TIP3   OH2 3629   4.906   5.576   0.577
 1208TIP3    H1 3630   4.980   5.606   0.524
 1208TIP3    H2 3631   4.890   5.486   0.549
 1209TIP3   OH2 3632   5.359   5.469   4.458
 1209TIP3    H1 3633   5.300   5.541   4.438
 1209TIP3    H2 3634   5.311   5.390   4.435
 1210TIP3   OH2 3635   4.142   3.421   1.708
 1210TIP3    H1 3636   4.079   3.356   1.742
 1210TIP3    H2 3637   4.183   3.457   1.787
 1211TIP3   OH2 3638   4.373   4.832   4.213
 1211TIP3    H1 3639   4.308   4.901   4.203
 1211TIP3    H2 3640   4.441   4.853   4.149
 1212TIP3   OH2 3641   2.598   4.215   1.936
 1212TIP3    H1 3642   2.568   4.243   1.850
 1212TIP3    H2 3643   2.520   4.175   1.977
 1213TIP3   OH2 3644   2.383   5.031   0.381
 1213TIP3    H1 3645   2.357   4.959   0.438
 1213TIP3    H2 3646   2.412   5.100   0.440
 1214TIP3   OH2 3647   0.724   1.470   2.936
 1214TIP3    H1 3648   0.742   1.398   2.876
 1214TIP3    H2 3649   0.727   1.548   2.882
 1215TIP3   OH2 3650   4.847   2.884   0.326
 1215TIP3    H1 3651   4.831   2.913   0.236
 1215TIP3    H2 3652   4.942   2.895   0.338
 1216TIP3   OH2 3653   0.492   4.912   2.715
 1216TIP3    H1 3654   0.424   4.921   2.648
 1216TIP3    H2 3655   0.530   4.826   2.699
 1217TIP3   OH2 3656   1.338   3.942   3.080
 1217TIP3    H1 3657   1.296   3.856   3.079
 1217TIP3    H2 3658   1.426   3.926   3.045
 1218TIP3   OH2 3659   6.169   3.331   0.152
 1218TIP3    H1 3660   6.258   3.338   0.186
 1218TIP3    H2 3661   6.138   3.421   0.145
 1219TIP3   OH2 3662   1.406   2.293   2.266
 1219TIP3    H1 3663   1.376   2.223   2.324
 1219TIP3    H2 3664   1.495   2.268   2.241
 1220TIP3   OH2 3665   0.328   5.629   4.821
 1220TIP3    H1 3666   0.259   5.562   4.820
 1220TIP3    H2 3667   0.283   5.709   4.847
 1221TIP3   OH2 3668   4.842   5.424   1.467
 1221TIP3    H1 3669   4.910   5.404   1.531
 1221TIP3    H2 3670   4.885   5.411   1.382
 1222TIP3   OH2 3671   1.406   3.473   3.325
 1222TIP3    H1 3672   1.414   3.437   3.414
 1222TIP3    H2 3673   1.315   3.500   3.319
 1223TIP3   OH2 3674   1.454   1.593   3.601
 1223TIP3    H1 3675   1.401   1.542   3.540
 1223TIP3    H2 3676   1.437   1.554   3.686
 1224TIP3   OH2 3677   4.666  -0.010   3.206
 1224TIP3    H1 3678   4.734  -0.031   3.269
 1224TIP3    H2 3679   4.658   0.085   3.211
 1225TIP3   OH2 3680   0.967   1.799   3.249
 1225TIP3    H1 3681   1.023   1.876   3.251
 1225TIP3    H2 3682   0.902   1.820   3.181
 1226TIP3   OH2 3683   6.248   3.104   2.921
 1226TIP3    H1 3684   6.155   3.080   2.915
 1226TIP3    H2 3685   6.282   3.092   2.833
 1227TIP3   OH2 3686   5.134   4.583   1.587
 1227TIP3    H1 3687   5.096   4.669   1.569
 1227TIP3    H2 3688   5.126   4.535   1.505
 1228TIP3   OH2 3689   3.544   3.857   3.296
 1228TIP3    H1 3690   3.532   3.766   3.266
 1228TIP3    H2 3691   3.570   3.849   3.388
 1229TIP3   OH2 3692   0.774   1.226   2.793
 1229TIP3    H1 3693   0.822   1.188   2.719
 1229TIP3    H2 3694   0.793   1.166   2.866
 1230TIP3   OH2 3695   0.210   1.500   5.129
 1230TIP3    H1 3696   0.251   1.481   5.044
 1230TIP3    H2 3697   0.182   1.415   5.162
 1231TIP3   OH2 3698   4.066   0.672   2.906
 1231TIP3    H1 3699   3.986   0.635   2.868
 1231TIP3    H2 3700   4.052   0.766   2.906
 1232TIP3   OH2 3701   1.552   1.763   4.901
 1232TIP3    H1 3702   1.618   1.700   4.933
 1232TIP3    H2 3703   1.570   1.843   4.951
 1233TIP3   OH2 3704   3.891   2.155   1.315
 1233TIP3    H1 3705   3.947   2.080   1.297
 1233TIP3    H2 3706   3.916   2.183   1.403
 1234TIP3   OH2 3707   2.791   5.783   5.198
 1234TIP3    H1 3708   2.809   5.755   5.108
 1234TIP3    H2 3709   2.843   5.862   5.210
 1235TIP3   OH2 3710   0.799   5.918   4.557
 1235TIP3    H1 3711   0.795   5.854   4.628
 1235TIP3    H2 3712   0.733   5.888   4.495
 1236TIP3   OH2 3713   4.154   4.415   0.685
 1236TIP3    H1 3714   4.079   4.449   0.734
 1236TIP3    H2 3715   4.214   4.382   0.752
 1237TIP3   OH2 3716   3.026   5.826   3.264
 1237TIP3    H1 3717   3.081   5.777   3.326
 1237TIP3    H2 3718   3.013   5.911   3.306
 1238TIP3   OH2 3719   4.282   5.966   3.812
 1238TIP3    H1 3720   4.371   5.932   3.803
 1238TIP3    H2 3721   4.282   6.013   3.896
 1239TIP3   OH2 3722   3.014   2.438   1.802
 1239TIP3    H1 3723   3.048   2.441   1.892
 1239TIP3    H2 3724   2.951   2.366   1.803
 1240TIP3   OH2 3725   0.640   1.198   1.724
 1240TIP3    H1 3726   0.588   1.170   1.799
 1240TIP3    H2 3727   0.638   1.293   1.727
 1241TIP3   OH2 3728   2.653   1.245   2.086
 1241TIP3    H1 3729   2.693   1.159   2.074
 1241TIP3    H2 3730   2.705   1.303   2.029
 1242TIP3   OH2 3731   1.840   4.304   0.835
 1242TIP3    H1 3732   1.875   4.341   0.916
 1242TIP3    H2 3733   1.841   4.209   0.849
 1243TIP3   OH2 3734   3.390   1.098   0.613
 1243TIP3    H1 3735   3.358   1.028   0.671
 1243TIP3    H2 3736   3.438   1.157   0.672
 1244TIP3   OH2 3737   6.172   2.933   4.441
 1244TIP3    H1 3738   6.141   2.842   4.445
 1244TIP3    H2 3739   6.203   2.943   4.351
 1245TIP3   OH2 3740   4.461   1.113   1.914
 1245TIP3    H1 3741   4.405   1.164   1.856
 1245TIP3    H2 3742   4.513   1.059   1.855
 1246TIP3   OH2 3743   5.960   1.164   3.872
 1246TIP3    H1 3744   5.906   1.091   3.841
 1246TIP3    H2 3745   6.048   1.128   3.879
 1247TIP3   OH2 3746   3.674   0.624   2.959
 1247TIP3    H1 3747   3.593   0.660   2.996
 1247TIP3    H2 3748   3.716   0.580   3.032
 1248TIP3   OH2 3749   3.541   2.772   4.348
 1248TIP3    H1 3750   3.498   2.808   4.426
 1248TIP3    H2 3751   3.471   2.762   4.284
 1249TIP3   OH2 3752   2.975   1.269   2.962
 1249TIP3    H1 3753   3.051   1.304   3.008
 1249TIP3    H2 3754   2.912   1.248   3.031
 1250TIP3   OH2 3755   5.275   2.564   0.005
 1250TIP3    H1 3756   5.279   2.475   0.038
 1250TIP3    H2 3757   5.365   2.582  -0.026
 1251TIP3   OH2 3758   2.464   4.058   0.869
 1251TIP3    H1 3759   2.480   4.136   0.817
 1251TIP3    H2 3760   2.375   4.030   0.845
 1252TIP3   OH2 3761   2.684   4.598   2.708
 1252TIP3    H1 3762   2.610   4.658   2.702
 1252TIP3    H2 3763   2.644   4.512   2.721
 1253TIP3   OH2 3764   4.711   2.488   4.501
 1253TIP3    H1 3765   4.662   2.558   4.543
 1253TIP3    H2 3766   4.645   2.422   4.478
 1254TIP3   OH2 3767   0.901   1.363   0.884
 1254TIP3    H1 3768   0.941   1.336   0.966
 1254TIP3    H2 3769   0.824   1.414   0.910
 1255TIP3   OH2 3770   5.009   2.603   4.795
 1255TIP3    H1 3771   4.943   2.534   4.798
 1255TIP3    H2 3772   5.042   2.600   4.706
 1256TIP3   OH2 3773   2.385   0.315   0.778
 1256TIP3    H1 3774   2.416   0.226   0.758
 1256TIP3    H2 3775   2.455   0.372   0.749
 1257TIP3   OH2 3776   1.195   1.644   3.198
 1257TIP3    H1 3777   1.113   1.692   3.196
 1257TIP3    H2 3778   1.245   1.684   3.270
 1258TIP3   OH2 3779   2.672   3.704   2.769
 1258TIP3    H1 3780   2.620   3.640   2.720
 1258TIP3    H2 3781   2.700   3.768   2.702
 1259TIP3   OH2 3782   2.085   2.423   4.658
 1259TIP3    H1 3783   2.171   2.382   4.646
 1259TIP3    H2 3784   2.043   2.372   4.727
 1260TIP3   OH2 3785   4.244   1.085   1.059
 1260TIP3    H1 3786   4.310   1.046   1.116
 1260TIP3    H2 3787   4.171   1.024   1.061
 1261TIP3   OH2 3788   5.757   2.071   0.300
 1261TIP3    H1 3789   5.661   2.067   0.297
 1261TIP3    H2 3790   5.782   2.005   0.364
 1262TIP3   OH2 3791   0.940   5.725   0.764
 1262TIP3    H1 3792   0.935   5.744   0.671
 1262TIP3    H2 3793   0.856   5.685   0.786
 1263TIP3   OH2 3794   1.431   1.286   4.315
 1263TIP3    H1 3795   1.391   1.290   4.402
 1263TIP3    H2 3796   1.383   1.216   4.270
 1264TIP3   OH2 3797   2.029   4.273   0.261
 1264TIP3    H1 3798   2.004   4.271   0.169
 1264TIP3    H2 3799   2.124   4.285   0.260
 1265TIP3   OH2 3800   0.904   1.249   1.789
 1265TIP3    H1 3801   0.821   1.203   1.776
 1265TIP3    H2 3802   0.925   1.235   1.882
 1266TIP3   OH2 3803   5.014   2.736   4.075
 1266TIP3    H1 3804   4.949   2.712   4.009
 1266TIP3    H2 3805   5.033   2.654   4.121
 1267TIP3   OH2 3806   5.142   0.251   1.637
 1267TIP3    H1 3807   5.083   0.321   1.666
 1267TIP3    H2 3808   5.122   0.178   1.695
 1268TIP3   OH2 3809   5.201   0.698   4.339
 1268TIP3    H1 3810   5.203   0.792   4.319
 1268TIP3    H2 3811   5.280   0.663   4.297
 1269TIP3   OH2 3812   1.102   3.809   4.610
 1269TIP3    H1 3813   1.147   3.827   4.692
 1269TIP3    H2 3814   1.044   3.735   4.630
 1270TIP3   OH2 3815   1.375   2.867   4.465
 1270TIP3    H1 3816   1.332   2.781   4.461
 1270TIP3    H2 3817   1.446   2.855   4.528
 1271TIP3   OH2 3818   3.702   1.485   2.693
 1271TIP3    H1 3819   3.653   1.479   2.612
 1271TIP3    H2 3820   3.637   1.511   2.759
 1272TIP3   OH2 3821  -0.033   2.713   2.127
 1272TIP3    H1 3822  -0.003   2.790   2.176
 1272TIP3    H2 3823   0.048   2.668   2.103
 1273TIP3   OH2 3824   0.358   5.041   1.428
 1273TIP3    H1 3825   0.395   5.094   1.358
 1273TIP3    H2 3826   0.280   5.089   1.456
 1274TIP3   OH2 3827   0.975   0.474   3.232
 1274TIP3    H1 3828   0.983   0.406   3.165
 1274TIP3    H2 3829   0.961   0.554   3.182
 1275TIP3   OH2 3830   1.704   1.460   0.073
 1275TIP3    H1 3831   1.692   1.424   0.161
 1275TIP3    H2 3832   1.683   1.387   0.015
 1276TIP3   OH2 3833   6.206   5.888   4.831
 1276TIP3    H1 3834   6.194   5.794   4.823
 1276TIP3    H2 3835   6.117   5.924   4.825
 1277TIP3   OH2 3836   5.305   4.237   2.871
 1277TIP3    H1 3837   5.239   4.291   2.827
 1277TIP3    H2 3838   5.337   4.178   2.802
 1278TIP3   OH2 3839   2.310   5.434   0.347
 1278TIP3    H1 3840   2.261   5.439   0.429
 1278TIP3    H2 3841   2.398   5.407   0.373
 1279TIP3   OH2 3842   4.579   2.649   0.735
 1279TIP3    H1 3843   4.575   2.743   0.753
 1279TIP3    H2 3844   4.652   2.640   0.674
 1280TIP3   OH2 3845   3.169   5.835   5.040
 1280TIP3    H1 3846   3.144   5.907   4.982
 1280TIP3    H2 3847   3.251   5.864   5.081
 1281TIP3   OH2 3848   4.183   0.402   4.716
 1281TIP3    H1 3849   4.088   0.393   4.726
 1281TIP3    H2 3850   4.219   0.326   4.762
 1282TIP3   OH2 3851   5.513   3.582   2.185
 1282TIP3    H1 3852   5.439   3.582   2.125
 1282TIP3    H2 3853   5.475   3.560   2.270
 1283TIP3   OH2 3854   5.334   1.519   2.465
 1283TIP3    H1 3855   5.292   1.512   2.551
 1283TIP3    H2 3856   5.321   1.610   2.439
 1284TIP3   OH2 3857   0.357   0.534   1.006
 1284TIP3    H1 3858   0.447   0.511   1.029
 1284TIP3    H2 3859   0.366   0.598   0.935
 1285TIP3   OH2 3860   2.061   1.054   1.954
 1285TIP3    H1 3861   1.998   1.097   1.897
 1285TIP3    H2 3862   2.074   0.968   1.915
 1286TIP3   OH2 3863   3.952   1.397   3.612
 1286TIP3    H1 3864   3.998   1.400   3.528
 1286TIP3    H2 3865   3.863   1.369   3.590
 1287TIP3   OH2 3866   2.858   1.219   3.605
 1287TIP3    H1 3867   2.848   1.311   3.630
 1287TIP3    H2 3868   2.952   1.203   3.610
 1288TIP3   OH2 3869   6.336   0.956   4.399
 1288TIP3    H1 3870   6.265   0.975   4.338
 1288TIP3    H2 3871   6.293   0.950   4.484
 1289TIP3   OH2 3872   4.457   1.648   0.244
 1289TIP3    H1 3873   4.402   1.725   0.231
 1289TIP3    H2 3874   4.403   1.589   0.297
 1290TIP3   OH2 3875   2.562   3.682   0.879
 1290TIP3    H1 3876   2.623   3.696   0.806
 1290TIP3    H2 3877   2.597   3.736   0.950
 1291TIP3   OH2 3878   0.350   5.595   2.128
 1291TIP3    H1 3879   0.326   5.630   2.213
 1291TIP3    H2 3880   0.278   5.621   2.070
 1292TIP3   OH2 3881   5.957   3.009   2.888
 1292TIP3    H1 3882   5.902   2.989   2.812
 1292TIP3    H2 3883   5.899   3.056   2.948
 1293TIP3   OH2 3884   4.381   2.516   2.685
 1293TIP3    H1 3885   4.311   2.566   2.641
 1293TIP3    H2 3886   4.361   2.525   2.778
 1294TIP3   OH2 3887   3.907   0.433   4.517
 1294TIP3    H1 3888   3.979   0.380   4.481
 1294TIP3    H2 3889   3.855   0.458   4.441
 1295TIP3   OH2 3890   1.230   5.129   3.803
 1295TIP3    H1 3891   1.155   5.168   3.847
 1295TIP3    H2 3892   1.208   5.036   3.796
 1296TIP3   OH2 3893   0.602   1.764   3.375
 1296TIP3    H1 3894   0.644   1.691   3.420
 1296TIP3    H2 3895   0.634   1.842   3.421
 1297TIP3   OH2 3896   3.913   2.819   3.799
 1297TIP3    H1 3897   3.879   2.828   3.710
 1297TIP3    H2 3898   3.853   2.871   3.852
 1298TIP3   OH2 3899   2.459   5.268   2.492
 1298TIP3    H1 3900   2.524   5.333   2.466
 1298TIP3    H2 3901   2.375   5.308   2.471
 1299TIP3   OH2 3902   4.388   4.168   2.228
 1299TIP3    H1 3903   4.357   4.121   2.305
 1299TIP3    H2 3904   4.323   4.149   2.160
 1300TIP3   OH2 3905   4.876   5.359   3.171
 1300TIP3    H1 3906   4.882   5.399   3.258
 1300TIP3    H2 3907   4.862   5.432   3.111
 1301TIP3   OH2 3908   1.951   2.906   0.722
 1301TIP3    H1 3909   2.039   2.917   0.760
 1301TIP3    H2 3910   1.904   2.853   0.785
 1302TIP3   OH2 3911   4.640   5.160   1.507
 1302TIP3    H1 3912   4.581   5.143   1.433
 1302TIP3    H2 3913   4.646   5.256   1.509
 1303TIP3   OH2 3914   2.999   4.585   0.600
 1303TIP3    H1 3915   3.085   4.576   0.640
 1303TIP3    H2 3916   3.006   4.662   0.543
 1304TIP3   OH2 3917   4.004   5.433   2.797
 1304TIP3    H1 3918   3.934   5.368   2.792
 1304TIP3    H2 3919   4.078   5.392   2.753
 1305TIP3   OH2 3920   6.381   1.403   1.058
 1305TIP3    H1 3921   6.332   1.347   1.118
 1305TIP3    H2 3922   6.361   1.368   0.971
 1306TIP3   OH2 3923   2.378   5.871   0.519
 1306TIP3    H1 3924   2.394   5.794   0.573
 1306TIP3    H2 3925   2.306   5.845   0.461
 1307TIP3   OH2 3926   0.892   2.997   2.969
 1307TIP3    H1 3927   0.860   2.910   2.989
 1307TIP3    H2 3928   0.893   3.002   2.874
 1308TIP3   OH2 3929   3.496   5.714   1.044
 1308TIP3    H1 3930   3.418   5.739   1.093
 1308TIP3    H2 3931   3.469   5.639   0.992
 1309TIP3   OH2 3932   2.139   2.642   4.292
 1309TIP3    H1 3933   2.131   2.737   4.279
 1309TIP3    H2 3934   2.051   2.608   4.273
 1310TIP3   OH2 3935   4.458   2.488   1.324
 1310TIP3    H1 3936   4.545   2.454   1.342
 1310TIP3    H2 3937   4.399   2.413   1.337
 1311TIP3   OH2 3938   3.235   4.249   3.198
 1311TIP3    H1 3939   3.279   4.277   3.117
 1311TIP3    H2 3940   3.304   4.209   3.250
 1312TIP3   OH2 3941   4.426   0.948   2.143
 1312TIP3    H1 3942   4.423   1.013   2.073
 1312TIP3    H2 3943   4.432   0.999   2.224
 1313TIP3   OH2 3944   1.226   5.681   1.760
 1313TIP3    H1 3945   1.310   5.635   1.771
 1313TIP3    H2 3946   1.169   5.616   1.718
 1314TIP3   OH2 3947   3.684   2.126   4.141
 1314TIP3    H1 3948   3.714   2.041   4.111
 1314TIP3    H2 3949   3.627   2.107   4.215
 1315TIP3   OH2 3950   5.615   4.276   2.151
 1315TIP3    H1 3951   5.578   4.227   2.225
 1315TIP3    H2 3952   5.549   4.343   2.132
 1316TIP3   OH2 3953   1.405   0.393   1.311
 1316TIP3    H1 3954   1.344   0.352   1.372
 1316TIP3    H2 3955   1.442   0.467   1.359
 1317TIP3   OH2 3956   5.235   1.272   0.293
 1317TIP3    H1 3957   5.312   1.306   0.339
 1317TIP3    H2 3958   5.166   1.271   0.359
 1318TIP3   OH2 3959   0.351   1.540   2.950
 1318TIP3    H1 3960   0.288   1.534   3.022
 1318TIP3    H2 3961   0.373   1.449   2.929
 1319TIP3   OH2 3962   5.954   3.160   1.413
 1319TIP3    H1 3963   5.932   3.198   1.328
 1319TIP3    H2 3964   5.896   3.083   1.420
 1320TIP3   OH2 3965   4.013   5.719   3.588
 1320TIP3    H1 3966   3.949   5.653   3.613
 1320TIP3    H2 3967   4.050   5.750   3.671
 1321TIP3   OH2 3968   6.169   1.075   1.955
 1321TIP3    H1 3969   6.251   1.123   1.962
 1321TIP3    H2 3970   6.113   1.131   1.900
 1322TIP3   OH2 3971   6.366   0.557   4.713
 1322TIP3    H1 3972   6.293   0.614   4.686
 1322TIP3    H2 3973   6.340   0.523   4.798
 1323TIP3   OH2 3974   5.248   2.034   1.608
 1323TIP3    H1 3975   5.305   2.029   1.684
 1323TIP3    H2 3976   5.302   2.003   1.535
 1324TIP3   OH2 3977   1.263   0.553   3.795
 1324TIP3    H1 3978   1.292   0.609   3.868
 1324TIP3    H2 3979   1.219   0.480   3.838
 1325TIP3   OH2 3980   0.311   1.988   4.915
 1325TIP3    H1 3981   0.284   1.986   5.007
 1325TIP3    H2 3982   0.397   1.946   4.914
 1326TIP3   OH2 3983   1.480   4.518   2.505
 1326TIP3    H1 3984   1.472   4.513   2.601
 1326TIP3    H2 3985   1.478   4.612   2.486
 1327TIP3   OH2 3986   3.848   4.196   4.555
 1327TIP3    H1 3987   3.777   4.261   4.556
 1327TIP3    H2 3988   3.816   4.127   4.496
 1328TIP3   OH2 3989   3.276   0.770   3.358
 1328TIP3    H1 3990   3.275   0.752   3.452
 1328TIP3    H2 3991   3.321   0.854   3.350
 1329TIP3   OH2 3992   5.271   5.960   2.718
 1329TIP3    H1 3993   5.319   5.922   2.646
 1329TIP3    H2 3994   5.179   5.942   2.698
 1330TIP3   OH2 3995   4.147   4.287   4.832
 1330TIP3    H1 3996   4.141   4.283   4.737
 1330TIP3    H2 3997   4.056   4.297   4.861
 1331TIP3   OH2 3998   0.999   2.799   1.743
 1331TIP3    H1 3999   1.074   2.751   1.709
 1331TIP3    H2 4000   1.000   2.782   1.837
 1332TIP3   OH2 4001   1.392   0.645   3.050
 1332TIP3    H1 4002   1.436   0.726   3.025
 1332TIP3    H2 4003   1.341   0.620   2.972
 1333TIP3   OH2 4004   2.125   5.798   4.852
 1333TIP3    H1 4005   2.037   5.813   4.885
 1333TIP3    H2 4006   2.179   5.785   4.930
 1334TIP3   OH2 4007   5.485   4.814   4.234
 1334TIP3    H1 4008   5.393   4.829   4.254
 1334TIP3    H2 4009   5.531   4.846   4.311
 1335TIP3   OH2 4010   0.341   5.000   0.458
 1335TIP3    H1 4011   0.344   5.065   0.528
 1335TIP3    H2 4012   0.281   4.934   0.489
 1336TIP3   OH2 4013   0.642   4.800   1.650
 1336TIP3    H1 4014   0.618   4.721   1.698
 1336TIP3    H2 4015   0.737   4.799   1.646
 1337TIP3   OH2 4016   1.229   4.940   2.212
 1337TIP3    H1 4017   1.231   5.033   2.191
 1337TIP3    H2 4018   1.247   4.895   2.130
 1338TIP3   OH2 4019   5.595   1.407   2.406
 1338TIP3    H1 4020   5.568   1.377   2.319
 1338TIP3    H2 4021   5.519   1.452   2.441
 1339TIP3   OH2 4022   0.764   1.465   5.025
 1339TIP3    H1 4023   0.681   1.421   5.044
 1339TIP3    H2 4024   0.747   1.557   5.042
 1340TIP3   OH2 4025   3.727   0.426   4.280
 1340TIP3    H1 4026   3.763   0.358   4.222
 1340TIP3    H2 4027   3.772   0.506   4.253
 1341TIP3   OH2 4028   4.561   3.079   0.228
 1341TIP3    H1 4029   4.652   3.060   0.249
 1341TIP3    H2 4030   4.541   3.022   0.154
 1342TIP3   OH2 4031   3.716   3.069   2.775
 1342TIP3    H1 4032   3.631   3.083   2.734
 1342TIP3    H2 4033   3.769   3.027   2.706
 1343TIP3   OH2 4034   0.764   0.459   4.214
 1343TIP3    H1 4035   0.803   0.405   4.145
 1343TIP3    H2 4036   0.739   0.540   4.168
 1344TIP3   OH2 4037   5.528   1.146   0.780
 1344TIP3    H1 4038   5.451   1.090   0.788
 1344TIP3    H2 4039   5.602   1.086   0.787
 1345TIP3   OH2 4040   4.700   5.901   0.247
 1345TIP3    H1 4041   4.657   5.942   0.173
 1345TIP3    H2 4042   4.629   5.860   0.297
 1346TIP3   OH2 4043   2.308   1.114   2.051
 1346TIP3    H1 4044   2.218   1.101   2.023
 1346TIP3    H2 4045   2.359   1.050   2.000
 1347TIP3   OH2 4046   1.075   4.557   2.639
 1347TIP3    H1 4047   1.104   4.466   2.627
 1347TIP3    H2 4048   1.145   4.598   2.690
 1348TIP3   OH2 4049   3.841   0.866   4.450
 1348TIP3    H1 4050   3.935   0.852   4.436
 1348TIP3    H2 4051   3.835   0.906   4.537
 1349TIP3   OH2 4052   4.954   5.005   0.222
 1349TIP3    H1 4053   4.918   4.972   0.304
 1349TIP3    H2 4054   5.023   5.066   0.249
 1350TIP3   OH2 4055   5.704   2.437   2.426
 1350TIP3    H1 4056   5.723   2.444   2.520
 1350TIP3    H2 4057   5.788   2.453   2.383
 1351TIP3   OH2 4058   2.235   0.347   2.152
 1351TIP3    H1 4059   2.304   0.388   2.101
 1351TIP3    H2 4060   2.235   0.395   2.235
 1352TIP3   OH2 4061   2.037   1.757   0.379
 1352TIP3    H1 4062   2.088   1.822   0.329
 1352TIP3    H2 4063   1.976   1.721   0.314
 1353TIP3   OH2 4064   4.521   3.157   4.016
 1353TIP3    H1 4065   4.539   3.174   4.109
 1353TIP3    H2 4066   4.429   3.130   4.014
 1354TIP3   OH2 4067   4.918   3.416   1.416
 1354TIP3    H1 4068   4.973   3.449   1.487
 1354TIP3    H2 4069   4.833   3.458   1.430
 1355TIP3   OH2 4070   1.047   5.864   3.077
 1355TIP3    H1 4071   0.997   5.795   3.121
 1355TIP3    H2 4072   0.998   5.882   2.997
 1356TIP3   OH2 4073   1.128   5.269   4.662
 1356TIP3    H1 4074   1.106   5.315   4.581
 1356TIP3    H2 4075   1.160   5.338   4.721
 1357TIP3   OH2 4076   4.808   2.603   2.514
 1357TIP3    H1 4077   4.860   2.540   2.563
 1357TIP3    H2 4078   4.754   2.647   2.580
 1358TIP3   OH2 4079   2.706   2.267   3.520
 1358TIP3    H1 4080   2.710   2.331   3.448
 1358TIP3    H2 4081   2.689   2.184   3.476
 1359TIP3   OH2 4082   3.802   5.079   5.178
 1359TIP3    H1 4083   3.863   5.044   5.112
 1359TIP3    H2 4084   3.724   5.025   5.169
 1360TIP3   OH2 4085   3.740   3.441   1.589
 1360TIP3    H1 4086   3.726   3.464   1.497
 1360TIP3    H2 4087   3.683   3.366   1.603
 1361TIP3   OH2 4088   2.493   5.470   2.864
 1361TIP3    H1 4089   2.406   5.476   2.825
 1361TIP3    H2 4090   2.516   5.560   2.887
 1362TIP3   OH2 4091   0.521   3.789   1.867
 1362TIP3    H1 4092   0.493   3.751   1.784
 1362TIP3    H2 4093   0.617   3.785   1.864
 1363TIP3   OH2 4094   5.046   3.875   3.918
 1363TIP3    H1 4095   5.014   3.817   3.849
 1363TIP3    H2 4096   5.120   3.921   3.878
 1364TIP3   OH2 4097   4.918   3.173   0.871
 1364TIP3    H1 4098   4.933   3.200   0.780
 1364TIP3    H2 4099   4.833   3.210   0.893
 1365TIP3   OH2 4100   3.503   2.773   3.668
 1365TIP3    H1 4101   3.578   2.762   3.727
 1365TIP3    H2 4102   3.533   2.835   3.602
 1366TIP3   OH2 4103   1.028   0.119   2.217
 1366TIP3    H1 4104   0.956   0.158   2.268
 1366TIP3    H2 4105   1.085   0.193   2.198
 1367TIP3   OH2 4106   6.180   4.900   1.951
 1367TIP3    H1 4107   6.133   4.869   2.028
 1367TIP3    H2 4108   6.227   4.978   1.981
 1368TIP3   OH2 4109   2.675   1.231   4.769
 1368TIP3    H1 4110   2.642   1.266   4.851
 1368TIP3    H2 4111   2.717   1.149   4.793
 1369TIP3   OH2 4112   0.873   0.024   4.997
 1369TIP3    H1 4113   0.904  -0.049   5.051
 1369TIP3    H2 4114   0.902   0.102   5.044
 1370TIP3   OH2 4115   3.417   1.800   0.150
 1370TIP3    H1 4116   3.448   1.723   0.198
 1370TIP3    H2 4117   3.322   1.794   0.154
 1371TIP3   OH2 4118   0.787   2.891   4.729
 1371TIP3    H1 4119   0.818   2.802   4.715
 1371TIP3    H2 4120   0.797   2.905   4.824
 1372TIP3   OH2 4121   4.101   1.658   3.662
 1372TIP3    H1 4122   4.131   1.582   3.613
 1372TIP3    H2 4123   4.181   1.701   3.690
 1373TIP3   OH2 4124   4.759   4.868   0.893
 1373TIP3    H1 4125   4.694   4.935   0.914
 1373TIP3    H2 4126   4.707   4.794   0.861
 1374TIP3   OH2 4127   1.321   2.581   0.845
 1374TIP3    H1 4128   1.352   2.494   0.869
 1374TIP3    H2 4129   1.377   2.641   0.893
 1375TIP3   OH2 4130   0.997   3.854   4.041
 1375TIP3    H1 4131   0.909   3.831   4.011
 1375TIP3    H2 4132   0.984   3.934   4.093
 1376TIP3   OH2 4133   4.936   3.606   3.426
 1376TIP3    H1 4134   4.948   3.545   3.353
 1376TIP3    H2 4135   4.845   3.634   3.419
 1377TIP3   OH2 4136   5.037   1.269   0.472
 1377TIP3    H1 4137   5.015   1.294   0.562
 1377TIP3    H2 4138   4.992   1.186   0.458
 1378TIP3   OH2 4139   2.042   0.071   0.698
 1378TIP3    H1 4140   2.021  -0.006   0.644
 1378TIP3    H2 4141   2.028   0.042   0.788
 1379TIP3   OH2 4142   1.266   5.936   0.750
 1379TIP3    H1 4143   1.353   5.898   0.751
 1379TIP3    H2 4144   1.211   5.872   0.795
 1380TIP3   OH2 4145   0.848   5.632   2.683
 1380TIP3    H1 4146   0.793   5.709   2.700
 1380TIP3    H2 4147   0.938   5.663   2.698
 1381TIP3   OH2 4148   5.041   3.215   4.978
 1381TIP3    H1 4149   4.981   3.288   4.991
 1381TIP3    H2 4150   5.022   3.154   5.049
 1382TIP3   OH2 4151   4.149   3.910   1.791
 1382TIP3    H1 4152   4.161   3.825   1.749
 1382TIP3    H2 4153   4.185   3.973   1.729
 1383TIP3   OH2 4154   4.081   2.363   3.281
 1383TIP3    H1 4155   3.997   2.354   3.326
 1383TIP3    H2 4156   4.144   2.319   3.338
 1384TIP3   OH2 4157   5.615   0.691   1.768
 1384TIP3    H1 4158   5.611   0.777   1.809
 1384TIP3    H2 4159   5.524   0.661   1.765
 1385TIP3   OH2 4160   3.230   4.087   1.759
 1385TIP3    H1 4161   3.312   4.078   1.806
 1385TIP3    H2 4162   3.232   4.017   1.693
 1386TIP3   OH2 4163  -0.033   3.924   1.942
 1386TIP3    H1 4164   0.008   3.837   1.943
 1386TIP3    H2 4165   0.016   3.972   1.874
 1387TIP3   OH2 4166   0.783   3.074   4.269
 1387TIP3    H1 4167   0.741   3.009   4.326
 1387TIP3    H2 4168   0.730   3.153   4.281
 1388TIP3   OH2 4169   2.609  -0.004   2.967
 1388TIP3    H1 4170   2.518   0.020   2.981
 1388TIP3    H2 4171   2.614  -0.027   2.874
 1389TIP3   OH2 4172   3.170   4.966   3.203
 1389TIP3    H1 4173   3.137   4.896   3.147
 1389TIP3    H2 4174   3.110   5.039   3.190
 1390TIP3   OH2 4175   6.080   2.831   5.071
 1390TIP3    H1 4176   6.103   2.756   5.125
 1390TIP3    H2 4177   6.099   2.907   5.126
 1391TIP3   OH2 4178   3.127   5.543   4.918
 1391TIP3    H1 4179   3.198   5.491   4.957
 1391TIP3    H2 4180   3.168   5.627   4.898
 1392TIP3   OH2 4181   3.191   0.216   0.102
 1392TIP3    H1 4182   3.258   0.184   0.041
 1392TIP3    H2 4183   3.167   0.139   0.153
 1393TIP3   OH2 4184   0.740   3.407   0.837
 1393TIP3    H1 4185   0.725   3.408   0.931
 1393TIP3    H2 4186   0.788   3.326   0.821
 1394TIP3   OH2 4187   0.891   4.295   2.326
 1394TIP3    H1 4188   0.827   4.353   2.286
 1394TIP3    H2 4189   0.972   4.346   2.329
 1395TIP3   OH2 4190   2.408   1.722   4.763
 1395TIP3    H1 4191   2.373   1.676   4.686
 1395TIP3    H2 4192   2.437   1.807   4.728
 1396TIP3   OH2 4193   3.051   1.115   2.139
 1396TIP3    H1 4194   3.064   1.189   2.080
 1396TIP3    H2 4195   3.048   1.039   2.081
 1397TIP3   OH2 4196   4.717   1.825   2.149
 1397TIP3    H1 4197   4.759   1.749   2.188
 1397TIP3    H2 4198   4.639   1.840   2.202
 1398TIP3   OH2 4199   4.174   2.876   4.253
 1398TIP3    H1 4200   4.123   2.847   4.329
 1398TIP3    H2 4201   4.117   2.939   4.209
 1399TIP3   OH2 4202   4.805   3.408   1.880
 1399TIP3    H1 4203   4.835   3.407   1.971
 1399TIP3    H2 4204   4.882   3.433   1.829
 1400TIP3   OH2 4205   5.079   0.338   4.966
 1400TIP3    H1 4206   5.051   0.428   4.946
 1400TIP3    H2 4207   5.155   0.349   5.022
 1401TIP3   OH2 4208   5.389   1.464   1.516
 1401TIP3    H1 4209   5.466   1.488   1.566
 1401TIP3    H2 4210   5.410   1.377   1.480
 1402TIP3   OH2 4211   2.165   0.603   4.359
 1402TIP3    H1 4212   2.138   0.628   4.270
 1402TIP3    H2 4213   2.114   0.659   4.416
 1403TIP3   OH2 4214   2.761   4.378   1.270
 1403TIP3    H1 4215   2.732   4.462   1.305
 1403TIP3    H2 4216   2.685   4.345   1.223
 1404TIP3   OH2 4217   4.991   0.395   0.139
 1404TIP3    H1 4218   4.964   0.340   0.213
 1404TIP3    H2 4219   5.065   0.446   0.172
 1405TIP3   OH2 4220   5.047   1.657   4.027
 1405TIP3    H1 4221   4.970   1.686   4.076
 1405TIP3    H2 4222   5.115   1.722   4.047
 1406TIP3   OH2 4223   4.355   3.993   4.397
 1406TIP3    H1 4224   4.423   4.055   4.369
 1406TIP3    H2 4225   4.306   3.975   4.316
 1407TIP3   OH2 4226   3.409   0.420   3.861
 1407TIP3    H1 4227   3.394   0.337   3.907
 1407TIP3    H2 4228   3.333   0.429   3.802
 1408TIP3   OH2 4229   4.194   0.311   3.448
 1408TIP3    H1 4230   4.236   0.295   3.532
 1408TIP3    H2 4231   4.237   0.252   3.387
 1409TIP3   OH2 4232   2.761   5.783   0.664
 1409TIP3    H1 4233   2.671   5.784   0.699
 1409TIP3    H2 4234   2.756   5.836   0.584
 1410TIP3   OH2 4235   5.428   0.658   4.196
 1410TIP3    H1 4236   5.490   0.723   4.229
 1410TIP3    H2 4237   5.474   0.615   4.124
 1411TIP3   OH2 4238   0.973   4.938   1.779
 1411TIP3    H1 4239   1.008   5.008   1.723
 1411TIP3    H2 4240   0.913   4.984   1.838
 1412TIP3   OH2 4241   0.443   2.874   4.671
 1412TIP3    H1 4242   0.481   2.805   4.726
 1412TIP3    H2 4243   0.489   2.953   4.697
 1413TIP3   OH2 4244   6.127   1.218   4.528
 1413TIP3    H1 4245   6.050   1.271   4.547
 1413TIP3    H2 4246   6.200   1.269   4.565
 1414TIP3   OH2 4247   3.061   5.969   0.942
 1414TIP3    H1 4248   3.017   5.927   1.016
 1414TIP3    H2 4249   3.004   6.043   0.919
 1415TIP3   OH2 4250   3.483   5.320   2.883
 1415TIP3    H1 4251   3.511   5.254   2.820
 1415TIP3    H2 4252   3.471   5.273   2.965
 1416TIP3   OH2 4253   3.796   2.685   4.449
 1416TIP3    H1 4254   3.737   2.650   4.515
 1416TIP3    H2 4255   3.738   2.718   4.380
 1417TIP3   OH2 4256   4.865   5.687   2.230
 1417TIP3    H1 4257   4.801   5.671   2.300
 1417TIP3    H2 4258   4.812   5.714   2.155
 1418TIP3   OH2 4259   0.355   2.996   3.683
 1418TIP3    H1 4260   0.286   3.055   3.712
 1418TIP3    H2 4261   0.316   2.908   3.693
 1419TIP3   OH2 4262   4.715   0.636   3.336
 1419TIP3    H1 4263   4.809   0.645   3.317
 1419TIP3    H2 4264   4.711   0.570   3.405
 1420TIP3   OH2 4265   3.725   5.985   3.102
 1420TIP3    H1 4266   3.698   5.895   3.117
 1420TIP3    H2 4267   3.795   6.000   3.165
 1421TIP3   OH2 4268   5.356   2.377   2.826
 1421TIP3    H1 4269   5.337   2.458   2.778
 1421TIP3    H2 4270   5.445   2.354   2.799
 1422TIP3   OH2 4271   2.732   4.167   3.898
 1422TIP3    H1 4272   2.729   4.170   3.994
 1422TIP3    H2 4273   2.704   4.078   3.876
 1423TIP3   OH2 4274   3.179   5.858   4.587
 1423TIP3    H1 4275   3.157   5.778   4.634
 1423TIP3    H2 4276   3.246   5.900   4.640
 1424TIP3   OH2 4277   4.321   1.935   4.467
 1424TIP3    H1 4278   4.319   1.854   4.416
 1424TIP3    H2 4279   4.232   1.943   4.503
 1425TIP3   OH2 4280   3.863   0.874   1.021
 1425TIP3    H1 4281   3.785   0.821   1.008
 1425TIP3    H2 4282   3.922   0.818   1.071
 1426TIP3   OH2 4283   5.621   0.948   1.894
 1426TIP3    H1 4284   5.716   0.940   1.901
 1426TIP3    H2 4285   5.590   0.950   1.984
 1427TIP3   OH2 4286   5.198   4.133   1.776
 1427TIP3    H1 4287   5.215   4.090   1.692
 1427TIP3    H2 4288   5.262   4.204   1.779
 1428TIP3   OH2 4289   1.665   1.006   3.585
 1428TIP3    H1 4290   1.588   0.951   3.601
 1428TIP3    H2 4291   1.664   1.070   3.657
 1429TIP3   OH2 4292   3.492   1.950   2.249
 1429TIP3    H1 4293   3.431   1.956   2.323
 1429TIP3    H2 4294   3.441   1.981   2.174
 1430TIP3   OH2 4295   6.245   3.619   3.724
 1430TIP3    H1 4296   6.190   3.586   3.795
 1430TIP3    H2 4297   6.269   3.541   3.674
 1431TIP3   OH2 4298   0.744   0.242   2.878
 1431TIP3    H1 4299   0.728   0.148   2.870
 1431TIP3    H2 4300   0.715   0.264   2.966
 1432TIP3   OH2 4301   3.830   2.860   0.319
 1432TIP3    H1 4302   3.913   2.814   0.333
 1432TIP3    H2 4303   3.766   2.811   0.372
 1433TIP3   OH2 4304   5.961   3.860   0.850
 1433TIP3    H1 4305   6.046   3.824   0.824
 1433TIP3    H2 4306   5.982   3.933   0.908
 1434TIP3   OH2 4307   1.285   1.404   3.469
 1434TIP3    H1 4308   1.268   1.320   3.511
 1434TIP3    H2 4309   1.268   1.389   3.376
 1435TIP3   OH2 4310   2.984   4.235   2.094
 1435TIP3    H1 4311   3.072   4.201   2.110
 1435TIP3    H2 4312   2.957   4.191   2.013
 1436TIP3   OH2 4313   5.135   0.272   0.712
 1436TIP3    H1 4314   5.139   0.179   0.690
 1436TIP3    H2 4315   5.221   0.292   0.749
 1437TIP3   OH2 4316   6.002   3.434   4.323
 1437TIP3    H1 4317   6.009   3.529   4.309
 1437TIP3    H2 4318   5.947   3.404   4.250
 1438TIP3   OH2 4319   4.601   5.555   1.798
 1438TIP3    H1 4320   4.669   5.529   1.861
 1438TIP3    H2 4321   4.539   5.607   1.849
 1439TIP3   OH2 4322   5.692   4.439   1.875
 1439TIP3    H1 4323   5.739   4.487   1.942
 1439TIP3    H2 4324   5.738   4.355   1.868
 1440TIP3   OH2 4325   3.234   1.703   4.333
 1440TIP3    H1 4326   3.179   1.749   4.396
 1440TIP3    H2 4327   3.321   1.741   4.345
 1441TIP3   OH2 4328   0.125   0.256   0.177
 1441TIP3    H1 4329   0.212   0.285   0.203
 1441TIP3    H2 4330   0.104   0.309   0.100
 1442TIP3   OH2 4331   4.520   4.776   3.224
 1442TIP3    H1 4332   4.503   4.713   3.293
 1442TIP3    H2 4333   4.611   4.802   3.236
 1443TIP3   OH2 4334   6.119   4.107   1.643
 1443TIP3    H1 4335   6.135   4.184   1.589
 1443TIP3    H2 4336   6.189   4.046   1.619
 1444TIP3   OH2 4337   2.471   2.970   2.522
 1444TIP3    H1 4338   2.539   2.920   2.478
 1444TIP3    H2 4339   2.440   2.912   2.592
 1445TIP3   OH2 4340   4.676   4.109   0.683
 1445TIP3    H1 4341   4.667   4.180   0.747
 1445TIP3    H2 4342   4.698   4.153   0.601
 1446TIP3   OH2 4343   2.423   4.197   2.964
 1446TIP3    H1 4344   2.485   4.260   3.002
 1446TIP3    H2 4345   2.369   4.168   3.038
 1447TIP3   OH2 4346   3.744   1.365   4.728
 1447TIP3    H1 4347   3.713   1.299   4.666
 1447TIP3    H2 4348   3.810   1.414   4.680
 1448TIP3   OH2 4349   4.624   4.372   2.663
 1448TIP3    H1 4350   4.713   4.338   2.659
 1448TIP3    H2 4351   4.607   4.404   2.575
 1449TIP3   OH2 4352   3.716   1.215   3.616
 1449TIP3    H1 4353   3.759   1.184   3.536
 1449TIP3    H2 4354   3.627   1.181   3.611
 1450TIP3   OH2 4355   2.731   4.432   3.901
 1450TIP3    H1 4356   2.640   4.437   3.870
 1450TIP3    H2 4357   2.748   4.338   3.910
 1451TIP3   OH2 4358   1.993   4.015   0.352
 1451TIP3    H1 4359   1.970   4.004   0.445
 1451TIP3    H2 4360   2.009   4.109   0.343
 1452TIP3   OH2 4361   3.657   2.176   4.622
 1452TIP3    H1 4362   3.748   2.175   4.653
 1452TIP3    H2 4363   3.617   2.249   4.668
 1453TIP3   OH2 4364   6.151   1.735   0.615
 1453TIP3    H1 4365   6.217   1.790   0.656
 1453TIP3    H2 4366   6.067   1.774   0.640
 1454TIP3   OH2 4367   0.533   0.834   2.826
 1454TIP3    H1 4368   0.499   0.771   2.763
 1454TIP3    H2 4369   0.597   0.885   2.776
 1455TIP3   OH2 4370   0.458   1.533   3.590
 1455TIP3    H1 4371   0.503   1.606   3.632
 1455TIP3    H2 4372   0.514   1.509   3.517
 1456TIP3   OH2 4373   0.612   5.632   2.070
 1456TIP3    H1 4374   0.523   5.598   2.075
 1456TIP3    H2 4375   0.604   5.722   2.103
 1457TIP3   OH2 4376   5.249   5.178   5.056
 1457TIP3    H1 4377   5.186   5.249   5.071
 1457TIP3    H2 4378   5.204   5.118   4.997
 1458TIP3   OH2 4379   5.337   4.978   0.313
 1458TIP3    H1 4380   5.269   4.933   0.363
 1458TIP3    H2 4381   5.295   5.057   0.280
 1459TIP3   OH2 4382   0.304   4.403   5.080
 1459TIP3    H1 4383   0.215   4.420   5.110
 1459TIP3    H2 4384   0.335   4.331   5.135
 1460TIP3   OH2 4385   0.987   1.488   0.283
 1460TIP3    H1 4386   0.938   1.421   0.330
 1460TIP3    H2 4387   1.056   1.514   0.344
 1461TIP3   OH2 4388   2.761   0.886   0.357
 1461TIP3    H1 4389   2.734   0.864   0.268
 1461TIP3    H2 4390   2.833   0.826   0.376
 1462TIP3   OH2 4391   2.792   2.445   1.536
 1462TIP3    H1 4392   2.743   2.514   1.490
 1462TIP3    H2 4393   2.785   2.468   1.628
 1463TIP3   OH2 4394   6.013   2.214   2.243
 1463TIP3    H1 4395   6.079   2.165   2.291
 1463TIP3    H2 4396   5.990   2.287   2.301
 1464TIP3   OH2 4397   4.880   5.010   4.060
 1464TIP3    H1 4398   4.835   5.064   3.994
 1464TIP3    H2 4399   4.971   5.039   4.055
 1465TIP3   OH2 4400   4.223   4.812   1.941
 1465TIP3    H1 4401   4.297   4.847   1.990
 1465TIP3    H2 4402   4.191   4.886   1.889
 1466TIP3   OH2 4403   5.097   3.737   2.969
 1466TIP3    H1 4404   5.134   3.741   2.881
 1466TIP3    H2 4405   5.009   3.775   2.960
 1467TIP3   OH2 4406   3.163   1.954   1.726
 1467TIP3    H1 4407   3.187   2.032   1.675
 1467TIP3    H2 4408   3.073   1.936   1.701
 1468TIP3   OH2 4409   0.462   1.354   0.594
 1468TIP3    H1 4410   0.457   1.367   0.689
 1468TIP3    H2 4411   0.377   1.383   0.561
 1469TIP3   OH2 4412   0.519   3.810   2.149
 1469TIP3    H1 4413   0.564   3.725   2.146
 1469TIP3    H2 4414   0.490   3.825   2.059
 1470TIP3   OH2 4415   1.854   3.590   4.622
 1470TIP3    H1 4416   1.817   3.578   4.535
 1470TIP3    H2 4417   1.941   3.549   4.617
 1471TIP3   OH2 4418   3.434   0.226   1.914
 1471TIP3    H1 4419   3.467   0.292   1.853
 1471TIP3    H2 4420   3.471   0.143   1.883
 1472TIP3   OH2 4421   2.529   2.692   4.591
 1472TIP3    H1 4422   2.498   2.749   4.520
 1472TIP3    H2 4423   2.609   2.653   4.557
 1473TIP3   OH2 4424   2.575   0.282   1.010
 1473TIP3    H1 4425   2.556   0.352   1.073
 1473TIP3    H2 4426   2.505   0.289   0.945
 1474TIP3   OH2 4427   0.805   2.928   1.378
 1474TIP3    H1 4428   0.793   2.848   1.429
 1474TIP3    H2 4429   0.718   2.968   1.375
 1475TIP3   OH2 4430   0.948   5.006   3.865
 1475TIP3    H1 4431   0.939   4.970   3.954
 1475TIP3    H2 4432   0.937   5.101   3.877
 1476TIP3   OH2 4433   0.844   3.283   0.158
 1476TIP3    H1 4434   0.792   3.299   0.237
 1476TIP3    H2 4435   0.852   3.369   0.117
 1477TIP3   OH2 4436   0.597   1.466   1.771
 1477TIP3    H1 4437   0.647   1.459   1.853
 1477TIP3    H2 4438   0.511   1.499   1.799
 1478TIP3   OH2 4439   3.545   2.885   3.990
 1478TIP3    H1 4440   3.605   2.817   3.961
 1478TIP3    H2 4441   3.482   2.839   4.046
 1479TIP3   OH2 4442   4.564   1.154   4.063
 1479TIP3    H1 4443   4.551   1.070   4.106
 1479TIP3    H2 4444   4.563   1.218   4.135
 1480TIP3   OH2 4445   1.802   2.067   1.971
 1480TIP3    H1 4446   1.737   2.098   2.034
 1480TIP3    H2 4447   1.766   1.984   1.939
 1481TIP3   OH2 4448   6.220   5.876   4.070
 1481TIP3    H1 4449   6.154   5.827   4.021
 1481TIP3    H2 4450   6.170   5.942   4.118
 1482TIP3   OH2 4451   1.794   2.079   3.986
 1482TIP3    H1 4452   1.854   2.023   4.035
 1482TIP3    H2 4453   1.769   2.027   3.910
 1483TIP3   OH2 4454   4.396   2.376   4.642
 1483TIP3    H1 4455   4.432   2.287   4.638
 1483TIP3    H2 4456   4.390   2.396   4.735
 1484TIP3   OH2 4457   3.930   2.898   1.388
 1484TIP3    H1 4458   3.865   2.966   1.410
 1484TIP3    H2 4459   4.014   2.942   1.396
 1485TIP3   OH2 4460   0.450   0.096   1.768
 1485TIP3    H1 4461   0.513   0.071   1.835
 1485TIP3    H2 4462   0.414   0.180   1.799
 1486TIP3   OH2 4463   0.884   0.985   0.504
 1486TIP3    H1 4464   0.964   1.001   0.554
 1486TIP3    H2 4465   0.816   0.970   0.571
 1487TIP3   OH2 4466   4.598   0.930   3.509
 1487TIP3    H1 4467   4.650   0.971   3.440
 1487TIP3    H2 4468   4.643   0.847   3.527
 1488TIP3   OH2 4469   3.674   4.468   3.220
 1488TIP3    H1 4470   3.704   4.482   3.131
 1488TIP3    H2 4471   3.701   4.378   3.241
 1489TIP3   OH2 4472   4.466   5.452   1.305
 1489TIP3    H1 4473   4.448   5.546   1.296
 1489TIP3    H2 4474   4.497   5.442   1.395
 1490TIP3   OH2 4475   6.142   4.719   4.798
 1490TIP3    H1 4476   6.238   4.719   4.804
 1490TIP3    H2 4477   6.123   4.656   4.729
 1491TIP3   OH2 4478   3.918   5.258   3.129
 1491TIP3    H1 4479   3.876   5.342   3.145
 1491TIP3    H2 4480   3.849   5.202   3.095
 1492TIP3   OH2 4481   3.238   2.292   0.357
 1492TIP3    H1 4482   3.327   2.270   0.382
 1492TIP3    H2 4483   3.242   2.384   0.330
 1493TIP3   OH2 4484   0.572   3.280   2.988
 1493TIP3    H1 4485   0.478   3.265   2.985
 1493TIP3    H2 4486   0.600   3.280   2.897
 1494TIP3   OH2 4487   2.411   4.947   0.022
 1494TIP3    H1 4488   2.487   4.986   0.065
 1494TIP3    H2 4489   2.439   4.859  -0.001
 1495TIP3   OH2 4490   4.304   5.342   0.109
 1495TIP3    H1 4491   4.298   5.434   0.136
 1495TIP3    H2 4492   4.214   5.310   0.115
 1496TIP3   OH2 4493   4.490   4.092   0.293
 1496TIP3    H1 4494   4.428   4.164   0.299
 1496TIP3    H2 4495   4.476   4.041   0.373
 1497TIP3   OH2 4496   1.752   5.945   0.180
 1497TIP3    H1 4497   1.716   5.983   0.260
 1497TIP3    H2 4498   1.689   5.877   0.155
 1498TIP3   OH2 4499   0.904   0.789   2.353
 1498TIP3    H1 4500   0.846   0.742   2.412
 1498TIP3    H2 4501   0.990   0.786   2.395
 1499TIP3   OH2 4502   5.843   4.158   3.628
 1499TIP3    H1 4503   5.890   4.083   3.594
 1499TIP3    H2 4504   5.912   4.221   3.651
 1500TIP3   OH2 4505   1.465   3.176   5.123
 1500TIP3    H1 4506   1.374   3.149   5.132
 1500TIP3    H2 4507   1.492   3.198   5.212
 1501TIP3   OH2 4508   1.344   3.685   4.541
 1501TIP3    H1 4509   1.320   3.596   4.513
 1501TIP3    H2 4510   1.266   3.737   4.525
 1502TIP3   OH2 4511   1.525   0.080   4.079
 1502TIP3    H1 4512   1.619   0.084   4.098
 1502TIP3    H2 4513   1.489   0.159   4.118
 1503TIP3   OH2 4514   1.493   0.465   0.036
 1503TIP3    H1 4515   1.585   0.438   0.035
 1503TIP3    H2 4516   1.492   0.551  -0.007
 1504TIP3   OH2 4517   1.754   2.574   2.963
 1504TIP3    H1 4518   1.797   2.491   2.942
 1504TIP3    H2 4519   1.740   2.616   2.878
 1505TIP3   OH2 4520   4.751   5.592   2.676
 1505TIP3    H1 4521   4.844   5.609   2.687
 1505TIP3    H2 4522   4.719   5.575   2.765
 1506TIP3   OH2 4523   5.197   3.392   3.010
 1506TIP3    H1 4524   5.148   3.350   2.939
 1506TIP3    H2 4525   5.244   3.464   2.967
 1507TIP3   OH2 4526   5.663   0.722   3.469
 1507TIP3    H1 4527   5.639   0.639   3.426
 1507TIP3    H2 4528   5.586   0.778   3.457
 1508TIP3   OH2 4529   2.915   3.779   3.840
 1508TIP3    H1 4530   2.821   3.791   3.827
 1508TIP3    H2 4531   2.930   3.806   3.930
 1509TIP3   OH2 4532   5.871   5.094   1.916
 1509TIP3    H1 4533   5.915   5.098   2.001
 1509TIP3    H2 4534   5.929   5.142   1.857
 1510TIP3   OH2 4535   5.927   1.250   1.302
 1510TIP3    H1 4536   5.890   1.161   1.305
 1510TIP3    H2 4537   5.852   1.307   1.317
 1511TIP3   OH2 4538   5.362   2.776   1.486
 1511TIP3    H1 4539   5.300   2.849   1.488
 1511TIP3    H2 4540   5.426   2.800   1.419
 1512TIP3   OH2 4541   4.169   0.119   2.423
 1512TIP3    H1 4542   4.201   0.054   2.486
 1512TIP3    H2 4543   4.246   0.172   2.401
 1513TIP3   OH2 4544   0.973   3.149   1.448
 1513TIP3    H1 4545   0.964   3.118   1.539
 1513TIP3    H2 4546   0.897   3.112   1.403
 1514TIP3   OH2 4547   5.721   4.691   3.138
 1514TIP3    H1 4548   5.743   4.631   3.066
 1514TIP3    H2 4549   5.676   4.635   3.202
 1515TIP3   OH2 4550   5.511   3.868   4.699
 1515TIP3    H1 4551   5.496   3.944   4.642
 1515TIP3    H2 4552   5.424   3.842   4.727
 1516TIP3   OH2 4553   1.620   3.185   0.253
 1516TIP3    H1 4554   1.567   3.217   0.180
 1516TIP3    H2 4555   1.557   3.163   0.321
 1517TIP3   OH2 4556   1.645   4.244   3.550
 1517TIP3    H1 4557   1.608   4.161   3.581
 1517TIP3    H2 4558   1.735   4.242   3.580
 1518TIP3   OH2 4559   0.283   5.740   2.345
 1518TIP3    H1 4560   0.347   5.804   2.374
 1518TIP3    H2 4561   0.199   5.784   2.353
 1519TIP3   OH2 4562   3.111   0.207   4.615
 1519TIP3    H1 4563   3.079   0.212   4.705
 1519TIP3    H2 4564   3.167   0.284   4.605
 1520TIP3   OH2 4565   2.201   2.115   0.896
 1520TIP3    H1 4566   2.184   2.021   0.891
 1520TIP3    H2 4567   2.197   2.136   0.989
 1521TIP3   OH2 4568   0.128   5.435   4.849
 1521TIP3    H1 4569   0.055   5.439   4.912
 1521TIP3    H2 4570   0.145   5.341   4.839
 1522TIP3   OH2 4571   3.521   1.739   4.349
 1522TIP3    H1 4572   3.547   1.696   4.430
 1522TIP3    H2 4573   3.540   1.675   4.281
 1523TIP3   OH2 4574   2.734   3.856   1.448
 1523TIP3    H1 4575   2.711   3.905   1.368
 1523TIP3    H2 4576   2.671   3.784   1.451
 1524TIP3   OH2 4577   4.797   2.261   3.257
 1524TIP3    H1 4578   4.781   2.241   3.349
 1524TIP3    H2 4579   4.886   2.296   3.255
 1525TIP3   OH2 4580   4.901   1.316   4.620
 1525TIP3    H1 4581   4.941   1.267   4.692
 1525TIP3    H2 4582   4.973   1.331   4.558
 1526TIP3   OH2 4583   5.149   0.843   1.416
 1526TIP3    H1 4584   5.066   0.878   1.446
 1526TIP3    H2 4585   5.214   0.907   1.444
 1527TIP3   OH2 4586   1.522   1.638   0.378
 1527TIP3    H1 4587   1.526   1.721   0.332
 1527TIP3    H2 4588   1.579   1.650   0.454
 1528TIP3   OH2 4589   2.076   2.939   5.198
 1528TIP3    H1 4590   2.118   2.923   5.113
 1528TIP3    H2 4591   1.996   2.987   5.176
 1529TIP3   OH2 4592   6.270   4.765   4.446
 1529TIP3    H1 4593   6.301   4.793   4.360
 1529TIP3    H2 4594   6.202   4.700   4.427
 1530TIP3   OH2 4595   2.577   3.464   2.632
 1530TIP3    H1 4596   2.671   3.459   2.647
 1530TIP3    H2 4597   2.542   3.383   2.670
 1531TIP3   OH2 4598   4.823   1.950   5.017
 1531TIP3    H1 4599   4.761   1.877   5.026
 1531TIP3    H2 4600   4.909   1.910   5.032
 1532TIP3   OH2 4601   2.647   1.897   1.784
 1532TIP3    H1 4602   2.610   1.979   1.752
 1532TIP3    H2 4603   2.645   1.906   1.880
 1533TIP3   OH2 4604   5.617   5.980   1.482
 1533TIP3    H1 4605   5.536   5.931   1.495
 1533TIP3    H2 4606   5.609   6.019   1.395
 1534TIP3   OH2 4607   0.912   0.466   3.489
 1534TIP3    H1 4608   0.957   0.446   3.407
 1534TIP3    H2 4609   0.830   0.506   3.463
 1535TIP3   OH2 4610   6.016   0.680   0.622
 1535TIP3    H1 4611   6.057   0.753   0.575
 1535TIP3    H2 4612   5.994   0.716   0.708
 1536TIP3   OH2 4613   2.140   0.526   5.151
 1536TIP3    H1 4614   2.231   0.541   5.178
 1536TIP3    H2 4615   2.144   0.521   5.055
 1537TIP3   OH2 4616   0.831   4.126   3.675
 1537TIP3    H1 4617   0.858   4.189   3.608
 1537TIP3    H2 4618   0.740   4.148   3.694
 1538TIP3   OH2 4619   0.733   0.946   3.414
 1538TIP3    H1 4620   0.648   0.932   3.371
 1538TIP3    H2 4621   0.729   1.035   3.449
 1539TIP3   OH2 4622   4.710   1.699   3.006
 1539TIP3    H1 4623   4.707   1.656   2.920
 1539TIP3    H2 4624   4.622   1.734   3.018
 1540TIP3   OH2 4625   1.309   0.798   3.422
 1540TIP3    H1 4626   1.218   0.822   3.439
 1540TIP3    H2 4627   1.305   0.711   3.382
 1541TIP3   OH2 4628   1.342   4.219   1.011
 1541TIP3    H1 4629   1.421   4.174   0.981
 1541TIP3    H2 4630   1.270   4.162   0.985
 1542TIP3   OH2 4631   5.873   4.074   2.403
 1542TIP3    H1 4632   5.948   4.134   2.396
 1542TIP3    H2 4633   5.808   4.124   2.453
 1543TIP3   OH2 4634   0.686   5.515   0.188
 1543TIP3    H1 4635   0.738   5.434   0.181
 1543TIP3    H2 4636   0.750   5.585   0.176
 1544TIP3   OH2 4637   4.615   1.421   5.072
 1544TIP3    H1 4638   4.655   1.386   4.992
 1544TIP3    H2 4639   4.529   1.379   5.075
 1545TIP3   OH2 4640   4.051   2.266   3.909
 1545TIP3    H1 4641   4.011   2.256   3.995
 1545TIP3    H2 4642   4.122   2.328   3.921
 1546TIP3   OH2 4643   5.283   3.896   0.510
 1546TIP3    H1 4644   5.192   3.925   0.514
 1546TIP3    H2 4645   5.328   3.962   0.458
 1547TIP3   OH2 4646   0.498   3.280   2.163
 1547TIP3    H1 4647   0.592   3.284   2.182
 1547TIP3    H2 4648   0.494   3.261   2.070
 1548TIP3   OH2 4649   1.421   3.544   2.869
 1548TIP3    H1 4650   1.365   3.470   2.845
 1548TIP3    H2 4651   1.460   3.571   2.786
 1549TIP3   OH2 4652   4.472   2.762   2.491
 1549TIP3    H1 4653   4.469   2.673   2.526
 1549TIP3    H2 4654   4.529   2.755   2.414
 1550TIP3   OH2 4655   4.175   0.936   3.643
 1550TIP3    H1 4656   4.086   0.936   3.680
 1550TIP3    H2 4657   4.165   0.892   3.559
 1551TIP3   OH2 4658   3.713   4.708   2.739
 1551TIP3    H1 4659   3.642   4.720   2.802
 1551TIP3    H2 4660   3.774   4.649   2.784
 1552TIP3   OH2 4661   2.732   2.416   2.948
 1552TIP3    H1 4662   2.731   2.500   2.994
 1552TIP3    H2 4663   2.821   2.384   2.958
 1553TIP3   OH2 4664   4.899   0.235   2.832
 1553TIP3    H1 4665   4.831   0.178   2.868
 1553TIP3    H2 4666   4.855   0.320   2.820
 1554TIP3   OH2 4667   3.395   2.458   1.329
 1554TIP3    H1 4668   3.397   2.477   1.423
 1554TIP3    H2 4669   3.444   2.377   1.319
 1555TIP3   OH2 4670   3.482   2.135   2.650
 1555TIP3    H1 4671   3.435   2.144   2.732
 1555TIP3    H2 4672   3.538   2.212   2.645
 1556TIP3   OH2 4673   3.688   5.095   3.085
 1556TIP3    H1 4674   3.624   5.124   3.150
 1556TIP3    H2 4675   3.669   5.002   3.073
 1557TIP3   OH2 4676   0.211   5.630   1.380
 1557TIP3    H1 4677   0.283   5.693   1.390
 1557TIP3    H2 4678   0.162   5.663   1.305
 1558TIP3   OH2 4679   0.043   4.843   4.847
 1558TIP3    H1 4680   0.039   4.896   4.927
 1558TIP3    H2 4681   0.135   4.818   4.839
 1559TIP3   OH2 4682   2.061   0.199   3.567
 1559TIP3    H1 4683   2.090   0.132   3.507
 1559TIP3    H2 4684   2.055   0.279   3.514
 1560TIP3   OH2 4685   5.218   2.565   1.200
 1560TIP3    H1 4686   5.249   2.655   1.195
 1560TIP3    H2 4687   5.127   2.573   1.231
 1561TIP3   OH2 4688   2.463   2.215   1.020
 1561TIP3    H1 4689   2.387   2.218   0.962
 1561TIP3    H2 4690   2.429   2.187   1.104
 1562TIP3   OH2 4691   3.271   2.188   3.742
 1562TIP3    H1 4692   3.345   2.248   3.746
 1562TIP3    H2 4693   3.238   2.186   3.832
 1563TIP3   OH2 4694   4.044   3.131   4.114
 1563TIP3    H1 4695   4.072   3.110   4.025
 1563TIP3    H2 4696   3.959   3.173   4.102
 1564TIP3   OH2 4697   4.379   4.601   1.542
 1564TIP3    H1 4698   4.314   4.549   1.496
 1564TIP3    H2 4699   4.463   4.569   1.509
 1565TIP3   OH2 4700   4.992   1.373   1.966
 1565TIP3    H1 4701   5.008   1.338   2.054
 1565TIP3    H2 4702   5.077   1.367   1.923
 1566TIP3   OH2 4703   6.297   0.283   3.209
 1566TIP3    H1 4704   6.362   0.245   3.268
 1566TIP3    H2 4705   6.224   0.221   3.211
 1567TIP3   OH2 4706   5.301   0.447   4.763
 1567TIP3    H1 4707   5.360   0.406   4.826
 1567TIP3    H2 4708   5.284   0.534   4.799
 1568TIP3   OH2 4709   5.097   5.234   3.548
 1568TIP3    H1 4710   5.168   5.256   3.609
 1568TIP3    H2 4711   5.133   5.252   3.461
 1569TIP3   OH2 4712   3.700   3.316   2.210
 1569TIP3    H1 4713   3.708   3.221   2.218
 1569TIP3    H2 4714   3.771   3.351   2.263
 1570TIP3   OH2 4715   0.064   4.979   0.998
 1570TIP3    H1 4716   0.149   5.016   1.022
 1570TIP3    H2 4717   0.000   5.041   1.033
 1571TIP3   OH2 4718   5.310   0.040   2.509
 1571TIP3    H1 4719   5.244   0.086   2.561
 1571TIP3    H2 4720   5.295   0.069   2.419
 1572TIP3   OH2 4721   3.613   5.872   2.154
 1572TIP3    H1 4722   3.668   5.858   2.077
 1572TIP3    H2 4723   3.670   5.916   2.217
 1573TIP3   OH2 4724   1.995   4.318   0.584
 1573TIP3    H1 4725   1.933   4.310   0.657
 1573TIP3    H2 4726   1.979   4.405   0.548
 1574TIP3   OH2 4727   3.074   5.757   0.480
 1574TIP3    H1 4728   3.169   5.768   0.474
 1574TIP3    H2 4729   3.055   5.679   0.429
 1575TIP3   OH2 4730   4.882   0.607   3.922
 1575TIP3    H1 4731   4.809   0.656   3.883
 1575TIP3    H2 4732   4.867   0.613   4.016
 1576TIP3   OH2 4733   5.714   1.077   1.353
 1576TIP3    H1 4734   5.672   1.047   1.272
 1576TIP3    H2 4735   5.768   1.003   1.381
 1577TIP3   OH2 4736   0.321   3.718   2.320
 1577TIP3    H1 4737   0.377   3.769   2.261
 1577TIP3    H2 4738   0.263   3.782   2.361
 1578TIP3   OH2 4739   1.900   1.607   3.182
 1578TIP3    H1 4740   1.860   1.573   3.262
 1578TIP3    H2 4741   1.843   1.680   3.156
 1579TIP3   OH2 4742   1.264   0.561   3.280
 1579TIP3    H1 4743   1.313   0.607   3.211
 1579TIP3    H2 4744   1.173   0.586   3.266
 1580TIP3   OH2 4745   2.256   0.920   1.158
 1580TIP3    H1 4746   2.222   0.924   1.069
 1580TIP3    H2 4747   2.184   0.881   1.209
 1581TIP3   OH2 4748   3.376   5.798   3.680
 1581TIP3    H1 4749   3.299   5.853   3.668
 1581TIP3    H2 4750   3.346   5.710   3.656
 1582TIP3   OH2 4751   0.254   1.015   4.207
 1582TIP3    H1 4752   0.268   0.986   4.117
 1582TIP3    H2 4753   0.178   1.072   4.202
 1583TIP3   OH2 4754   2.514   3.288   0.277
 1583TIP3    H1 4755   2.588   3.227   0.272
 1583TIP3    H2 4756   2.470   3.278   0.193
 1584TIP3   OH2 4757   1.627   3.294   2.674
 1584TIP3    H1 4758   1.549   3.240   2.667
 1584TIP3    H2 4759   1.632   3.340   2.590
 1585TIP3   OH2 4760   5.224   1.317   1.819
 1585TIP3    H1 4761   5.280   1.382   1.777
 1585TIP3    H2 4762   5.211   1.250   1.752
 1586TIP3   OH2 4763   6.074   4.977   1.709
 1586TIP3    H1 4764   6.056   4.885   1.687
 1586TIP3    H2 4765   6.134   4.972   1.784
 1587TIP3   OH2 4766   4.054   1.471   1.701
 1587TIP3    H1 4767   4.050   1.387   1.746
 1587TIP3    H2 4768   4.135   1.511   1.733
 1588TIP3   OH2 4769   1.748   2.849   2.415
 1588TIP3    H1 4770   1.755   2.940   2.444
 1588TIP3    H2 4771   1.801   2.800   2.477
 1589TIP3   OH2 4772   4.567   2.561   4.236
 1589TIP3    H1 4773   4.500   2.515   4.286
 1589TIP3    H2 4774   4.617   2.609   4.302
 1590TIP3   OH2 4775   5.975   2.594   3.585
 1590TIP3    H1 4776   5.981   2.668   3.646
 1590TIP3    H2 4777   5.984   2.517   3.640
 1591TIP3   OH2 4778   1.906   4.096   2.842
 1591TIP3    H1 4779   1.899   4.133   2.754
 1591TIP3    H2 4780   1.846   4.150   2.895
 1592TIP3   OH2 4781   0.998   4.719   3.852
 1592TIP3    H1 4782   0.978   4.747   3.941
 1592TIP3    H2 4783   1.000   4.801   3.801
 1593TIP3   OH2 4784   4.023   0.130   1.258
 1593TIP3    H1 4785   3.938   0.093   1.235
 1593TIP3    H2 4786   4.003   0.213   1.301
 1594TIP3   OH2 4787   4.249   1.891   1.364
 1594TIP3    H1 4788   4.157   1.884   1.337
 1594TIP3    H2 4789   4.245   1.933   1.450
 1595TIP3   OH2 4790   6.038   1.221   5.091
 1595TIP3    H1 4791   6.120   1.260   5.123
 1595TIP3    H2 4792   6.064   1.135   5.057
 1596TIP3   OH2 4793   5.905   4.836   3.628
 1596TIP3    H1 4794   5.882   4.870   3.541
 1596TIP3    H2 4795   5.948   4.752   3.610
 1597TIP3   OH2 4796   5.033   0.893   1.801
 1597TIP3    H1 4797   5.091   0.820   1.778
 1597TIP3    H2 4798   4.984   0.862   1.877
 1598TIP3   OH2 4799   1.464   3.555   0.897
 1598TIP3    H1 4800   1.502   3.547   0.985
 1598TIP3    H2 4801   1.514   3.492   0.845
 1599TIP3   OH2 4802   1.973   1.064   3.805
 1599TIP3    H1 4803   1.972   1.150   3.847
 1599TIP3    H2 4804   1.901   1.016   3.847
 1600TIP3   OH2 4805   5.234   2.727   3.289
 1600TIP3    H1 4806   5.223   2.667   3.362
 1600TIP3    H2 4807   5.248   2.671   3.213
 1601TIP3   OH2 4808   3.057   5.592   0.706
 1601TIP3    H1 4809   3.133   5.545   0.670
 1601TIP3    H2 4810   3.044   5.665   0.645
 1602TIP3   OH2 4811   1.018   2.708   0.766
 1602TIP3    H1 4812   1.023   2.794   0.808
 1602TIP3    H2 4813   0.931   2.706   0.727
 1603TIP3   OH2 4814   5.604   1.389   0.136
 1603TIP3    H1 4815   5.510   1.375   0.132
 1603TIP3    H2 4816   5.633   1.390   0.045
 1604TIP3   OH2 4817   2.510   3.136   5.014
 1604TIP3    H1 4818   2.565   3.058   5.009
 1604TIP3    H2 4819   2.540   3.182   5.092
 1605TIP3   OH2 4820   2.794   1.408   1.462
 1605TIP3    H1 4821   2.802   1.318   1.432
 1605TIP3    H2 4822   2.751   1.454   1.389
 1606TIP3   OH2 4823   2.511   5.705   2.431
 1606TIP3    H1 4824   2.447   5.747   2.374
 1606TIP3    H2 4825   2.477   5.719   2.520
 1607TIP3   OH2 4826   6.074   1.460   2.772
 1607TIP3    H1 4827   6.123   1.435   2.695
 1607TIP3    H2 4828   6.050   1.377   2.814
 1608TIP3   OH2 4829   0.879   1.138   2.556
 1608TIP3    H1 4830   0.934   1.122   2.480
 1608TIP3    H2 4831   0.797   1.172   2.519
 1609TIP3   OH2 4832   0.170   5.815   3.476
 1609TIP3    H1 4833   0.260   5.792   3.452
 1609TIP3    H2 4834   0.173   5.908   3.496
 1610TIP3   OH2 4835   4.905   2.617   3.576
 1610TIP3    H1 4836   4.886   2.534   3.618
 1610TIP3    H2 4837   4.824   2.667   3.584
 1611TIP3   OH2 4838   0.693   0.826   3.803
 1611TIP3    H1 4839   0.599   0.821   3.783
 1611TIP3    H2 4840   0.736   0.799   3.722
 1612TIP3   OH2 4841   4.086   3.934   2.058
 1612TIP3    H1 4842   4.112   3.927   1.966
 1612TIP3    H2 4843   4.017   3.868   2.068
 1613TIP3   OH2 4844   1.316   0.503   2.497
 1613TIP3    H1 4845   1.407   0.505   2.467
 1613TIP3    H2 4846   1.322   0.480   2.590
 1614TIP3   OH2 4847   2.353   2.504   4.361
 1614TIP3    H1 4848   2.355   2.416   4.324
 1614TIP3    H2 4849   2.270   2.541   4.330
 1615TIP3   OH2 4850   5.863   4.114   0.648
 1615TIP3    H1 4851   5.775   4.123   0.610
 1615TIP3    H2 4852   5.905   4.046   0.595
 1616TIP3   OH2 4853   0.516   4.186   3.207
 1616TIP3    H1 4854   0.470   4.264   3.239
 1616TIP3    H2 4855   0.455   4.145   3.146
 1617TIP3   OH2 4856   3.290   3.352   3.716
 1617TIP3    H1 4857   3.272   3.258   3.715
 1617TIP3    H2 4858   3.359   3.362   3.782
 1618TIP3   OH2 4859   3.688   4.500   3.535
 1618TIP3    H1 4860   3.683   4.483   3.441
 1618TIP3    H2 4861   3.627   4.438   3.574
 1619TIP3   OH2 4862   3.193   4.221   2.811
 1619TIP3    H1 4863   3.271   4.180   2.772
 1619TIP3    H2 4864   3.179   4.174   2.893
 1620TIP3   OH2 4865   5.826   2.145   1.906
 1620TIP3    H1 4866   5.906   2.104   1.939
 1620TIP3    H2 4867   5.756   2.083   1.928
 1621TIP3   OH2 4868   3.607   4.677   1.222
 1621TIP3    H1 4869   3.579   4.719   1.142
 1621TIP3    H2 4870   3.558   4.595   1.225
 1622TIP3   OH2 4871   0.420   0.852   1.596
 1622TIP3    H1 4872   0.353   0.790   1.623
 1622TIP3    H2 4873   0.503   0.811   1.622
 1623TIP3   OH2 4874   5.830   2.321   0.384
 1623TIP3    H1 4875   5.796   2.244   0.339
 1623TIP3    H2 4876   5.860   2.289   0.469
 1624TIP3   OH2 4877   0.616   5.869   1.585
 1624TIP3    H1 4878   0.659   5.852   1.501
 1624TIP3    H2 4879   0.636   5.961   1.604
 1625TIP3   OH2 4880   1.582   3.301   1.305
 1625TIP3    H1 4881   1.521   3.318   1.378
 1625TIP3    H2 4882   1.651   3.248   1.344
 1626TIP3   OH2 4883   5.223   2.957   2.785
 1626TIP3    H1 4884   5.189   3.036   2.827
 1626TIP3    H2 4885   5.252   2.987   2.698
 1627TIP3   OH2 4886   2.846   4.892   1.875
 1627TIP3    H1 4887   2.930   4.854   1.848
 1627TIP3    H2 4888   2.811   4.930   1.795
 1628TIP3   OH2 4889   6.182  -0.026   1.501
 1628TIP3    H1 4890   6.249  -0.023   1.433
 1628TIP3    H2 4891   6.201   0.049   1.558
 1629TIP3   OH2 4892   0.544   5.875   3.220
 1629TIP3    H1 4893   0.569   5.796   3.172
 1629TIP3    H2 4894   0.548   5.945   3.155
 1630TIP3   OH2 4895   4.963   1.742   0.934
 1630TIP3    H1 4896   4.979   1.721   1.026
 1630TIP3    H2 4897   4.996   1.666   0.886
 1631TIP3   OH2 4898   0.676   0.212   1.016
 1631TIP3    H1 4899   0.753   0.174   1.058
 1631TIP3    H2 4900   0.644   0.278   1.078
 1632TIP3   OH2 4901   4.298   0.318   4.446
 1632TIP3    H1 4902   4.320   0.411   4.453
 1632TIP3    H2 4903   4.209   0.317   4.413
 1633TIP3   OH2 4904   5.304   5.062   3.040
 1633TIP3    H1 4905   5.243   5.032   3.107
 1633TIP3    H2 4906   5.250   5.107   2.976
 1634TIP3   OH2 4907   5.217   3.599   4.083
 1634TIP3    H1 4908   5.264   3.612   4.001
 1634TIP3    H2 4909   5.136   3.555   4.058
 1635TIP3   OH2 4910   2.673   0.874   1.093
 1635TIP3    H1 4911   2.746   0.844   1.147
 1635TIP3    H2 4912   2.603   0.811   1.109
 1636TIP3   OH2 4913   1.660   4.538   0.840
 1636TIP3    H1 4914   1.715   4.473   0.796
 1636TIP3    H2 4915   1.615   4.488   0.909
 1637TIP3   OH2 4916   4.118   5.869   3.385
 1637TIP3    H1 4917   4.046   5.836   3.439
 1637TIP3    H2 4918   4.197   5.837   3.429
 1638TIP3   OH2 4919   1.984   1.728   4.261
 1638TIP3    H1 4920   2.069   1.689   4.239
 1638TIP3    H2 4921   1.956   1.681   4.340
 1639TIP3   OH2 4922   5.672   4.151   1.608
 1639TIP3    H1 4923   5.609   4.158   1.536
 1639TIP3    H2 4924   5.718   4.235   1.608
 1640TIP3   OH2 4925   3.906   1.959   4.334
 1640TIP3    H1 4926   3.982   1.956   4.393
 1640TIP3    H2 4927   3.939   2.004   4.256
 1641TIP3   OH2 4928   1.223   0.193   2.946
 1641TIP3    H1 4929   1.313   0.190   2.976
 1641TIP3    H2 4930   1.230   0.198   2.850
 1642TIP3   OH2 4931   4.916   4.544   1.149
 1642TIP3    H1 4932   4.959   4.556   1.065
 1642TIP3    H2 4933   4.843   4.606   1.147
 1643TIP3   OH2 4934   1.425   4.104   3.406
 1643TIP3    H1 4935   1.500   4.076   3.458
 1643TIP3    H2 4936   1.387   4.023   3.372
 1644TIP3   OH2 4937   3.336   1.121   3.038
 1644TIP3    H1 4938   3.269   1.064   2.998
 1644TIP3    H2 4939   3.323   1.111   3.132
 1645TIP3   OH2 4940   2.189   0.004   3.971
 1645TIP3    H1 4941   2.124  -0.058   4.006
 1645TIP3    H2 4942   2.141   0.057   3.908
 1646TIP3   OH2 4943   4.424   5.474   2.778
 1646TIP3    H1 4944   4.427   5.568   2.791
 1646TIP3    H2 4945   4.355   5.460   2.714
 1647TIP3   OH2 4946   5.887   2.363   4.316
 1647TIP3    H1 4947   5.889   2.271   4.291
 1647TIP3    H2 4948   5.866   2.410   4.235
 1648TIP3   OH2 4949   5.347   0.698   1.225
 1648TIP3    H1 4950   5.331   0.650   1.306
 1648TIP3    H2 4951   5.440   0.682   1.206
 1649TIP3   OH2 4952   1.147   4.482   3.991
 1649TIP3    H1 4953   1.086   4.526   3.932
 1649TIP3    H2 4954   1.097   4.467   4.071
 1650TIP3   OH2 4955   1.753   4.219   1.571
 1650TIP3    H1 4956   1.713   4.181   1.493
 1650TIP3    H2 4957   1.726   4.310   1.570
 1651TIP3   OH2 4958   3.031   3.963   2.874
 1651TIP3    H1 4959   3.099   3.956   2.807
 1651TIP3    H2 4960   3.078   3.959   2.957
 1652TIP3   OH2 4961   5.231   4.311   3.702
 1652TIP3    H1 4962   5.175   4.261   3.643
 1652TIP3    H2 4963   5.192   4.299   3.788
 1653TIP3   OH2 4964   1.603   4.125   4.102
 1653TIP3    H1 4965   1.687   4.172   4.102
 1653TIP3    H2 4966   1.624   4.039   4.065
 1654TIP3   OH2 4967   5.680   5.024   3.316
 1654TIP3    H1 4968   5.716   4.977   3.241
 1654TIP3    H2 4969   5.587   5.002   3.316
 1655TIP3   OH2 4970   3.607   0.686   1.908
 1655TIP3    H1 4971   3.604   0.662   2.001
 1655TIP3    H2 4972   3.571   0.610   1.862
 1656TIP3   OH2 4973   0.453   1.710   4.233
 1656TIP3    H1 4974   0.431   1.646   4.300
 1656TIP3    H2 4975   0.542   1.688   4.206
 1657TIP3   OH2 4976   1.056   2.945   4.221
 1657TIP3    H1 4977   0.970   2.988   4.225
 1657TIP3    H2 4978   1.051   2.875   4.287
 1658TIP3   OH2 4979   3.545   3.570   3.249
 1658TIP3    H1 4980   3.614   3.522   3.203
 1658TIP3    H2 4981   3.542   3.529   3.336
 1659TIP3   OH2 4982   2.019   1.832   3.390
 1659TIP3    H1 4983   1.934   1.788   3.380
 1659TIP3    H2 4984   2.005   1.895   3.460
 1660TIP3   OH2 4985   3.532   2.347   2.112
 1660TIP3    H1 4986   3.607   2.394   2.077
 1660TIP3    H2 4987   3.566   2.301   2.189
 1661TIP3   OH2 4988   0.545   3.917   2.596
 1661TIP3    H1 4989   0.632   3.931   2.635
 1661TIP3    H2 4990   0.562   3.913   2.502
 1662TIP3   OH2 4991   2.149   4.997   3.163
 1662TIP3    H1 4992   2.155   5.084   3.122
 1662TIP3    H2 4993   2.070   4.959   3.126
 1663TIP3   OH2 4994   2.885   5.518   3.473
 1663TIP3    H1 4995   2.811   5.457   3.468
 1663TIP3    H2 4996   2.914   5.526   3.382
 1664TIP3   OH2 4997   5.976   2.256   3.980
 1664TIP3    H1 4998   5.987   2.173   4.026
 1664TIP3    H2 4999   5.882   2.273   3.982
 1665TIP3   OH2 5000   1.733   4.525   1.572
 1665TIP3    H1 5001   1.789   4.520   1.495
 1665TIP3    H2 5002   1.735   4.618   1.597
 1666TIP3   OH2 5003   1.992   4.667   3.306
 1666TIP3    H1 5004   1.950   4.622   3.232
 1666TIP3    H2 5005   1.922   4.719   3.345
 1667TIP3   OH2 5006   5.286   1.081   1.961
 1667TIP3    H1 5007   5.255   1.169   1.937
 1667TIP3    H2 5008   5.250   1.066   2.048
 1668TIP3   OH2 5009   1.804   1.360   3.107
 1668TIP3    H1 5010   1.853   1.281   3.086
 1668TIP3    H2 5011   1.831   1.382   3.196
 1669TIP3   OH2 5012   1.196   4.558   1.368
 1669TIP3    H1 5013   1.185   4.592   1.457
 1669TIP3    H2 5014   1.196   4.463   1.378
 1670TIP3   OH2 5015   2.385   0.431   2.577
 1670TIP3    H1 5016   2.344   0.477   2.649
 1670TIP3    H2 5017   2.323   0.362   2.554
 1671TIP3   OH2 5018   2.058   0.191   3.833
 1671TIP3    H1 5019   2.064   0.201   3.738
 1671TIP3    H2 5020   1.964   0.194   3.852
 1672TIP3   OH2 5021   0.886   3.279   1.906
 1672TIP3    H1 5022   0.936   3.221   1.849
 1672TIP3    H2 5023   0.887   3.235   1.991
 1673TIP3   OH2 5024   3.353   3.463   1.009
 1673TIP3    H1 5025   3.338   3.542   1.061
 1673TIP3    H2 5026   3.414   3.490   0.940
 1674TIP3   OH2 5027   3.515   2.641   0.558
 1674TIP3    H1 5028   3.586   2.705   0.552
 1674TIP3    H2 5029   3.454   2.678   0.622
 1675TIP3   OH2 5030   5.268   5.040   0.682
 1675TIP3    H1 5031   5.336   5.076   0.738
 1675TIP3    H2 5032   5.228   5.116   0.640
 1676TIP3   OH2 5033   2.137   2.717   2.632
 1676TIP3    H1 5034   2.145   2.625   2.656
 1676TIP3    H2 5035   2.215   2.759   2.669
 1677TIP3   OH2 5036   3.113   3.102   3.370
 1677TIP3    H1 5037   3.171   3.036   3.407
 1677TIP3    H2 5038   3.042   3.051   3.329
 1678TIP3   OH2 5039   2.708   2.521   2.424
 1678TIP3    H1 5040   2.705   2.529   2.520
 1678TIP3    H2 5041   2.619   2.498   2.399
 1679TIP3   OH2 5042   2.775   1.381   0.154
 1679TIP3    H1 5043   2.755   1.464   0.111
 1679TIP3    H2 5044   2.859   1.395   0.198
 1680TIP3   OH2 5045   4.144   5.729   3.861
 1680TIP3    H1 5046   4.192   5.811   3.847
 1680TIP3    H2 5047   4.210   5.669   3.895
 1681TIP3   OH2 5048   2.899   4.360   1.708
 1681TIP3    H1 5049   2.866   4.425   1.771
 1681TIP3    H2 5050   2.821   4.311   1.681
 1682TIP3   OH2 5051   5.486   2.130   3.495
 1682TIP3    H1 5052   5.393   2.134   3.477
 1682TIP3    H2 5053   5.502   2.202   3.556
 1683TIP3   OH2 5054   6.015   3.461   3.852
 1683TIP3    H1 5055   5.947   3.399   3.878
 1683TIP3    H2 5056   6.065   3.478   3.932
 1684TIP3   OH2 5057   3.025   4.651   2.053
 1684TIP3    H1 5058   3.077   4.727   2.078
 1684TIP3    H2 5059   3.047   4.584   2.117
 1685TIP3   OH2 5060   2.557   2.368   0.172
 1685TIP3    H1 5061   2.560   2.280   0.211
 1685TIP3    H2 5062   2.638   2.410   0.202
 1686TIP3   OH2 5063   4.766   3.180   1.183
 1686TIP3    H1 5064   4.686   3.181   1.235
 1686TIP3    H2 5065   4.744   3.230   1.104
 1687TIP3   OH2 5066   4.991   5.339   4.190
 1687TIP3    H1 5067   4.944   5.296   4.119
 1687TIP3    H2 5068   5.068   5.376   4.149
 1688TIP3   OH2 5069   5.381   3.550   4.270
 1688TIP3    H1 5070   5.311   3.586   4.216
 1688TIP3    H2 5071   5.420   3.627   4.313
 1689TIP3   OH2 5072   4.838   5.869   3.527
 1689TIP3    H1 5073   4.845   5.945   3.585
 1689TIP3    H2 5074   4.929   5.841   3.514
 1690TIP3   OH2 5075   4.929   3.586   2.196
 1690TIP3    H1 5076   4.931   3.496   2.165
 1690TIP3    H2 5077   4.843   3.596   2.236
 1691TIP3   OH2 5078   1.889   4.443   4.539
 1691TIP3    H1 5079   1.844   4.479   4.462
 1691TIP3    H2 5080   1.870   4.349   4.536
 1692TIP3   OH2 5081   6.169   3.128   3.795
 1692TIP3    H1 5082   6.219   3.199   3.834
 1692TIP3    H2 5083   6.187   3.052   3.852
 1693TIP3   OH2 5084   3.589   3.717   1.260
 1693TIP3    H1 5085   3.649   3.777   1.215
 1693TIP3    H2 5086   3.572   3.759   1.344
 1694TIP3   OH2 5087   4.015   0.769   0.119
 1694TIP3    H1 5088   3.933   0.721   0.128
 1694TIP3    H2 5089   3.997   0.837   0.055
 1695TIP3   OH2 5090   4.085   2.899   0.670
 1695TIP3    H1 5091   4.135   2.886   0.590
 1695TIP3    H2 5092   4.018   2.831   0.669
 1696TIP3   OH2 5093   1.009   2.221   2.172
 1696TIP3    H1 5094   1.029   2.197   2.263
 1696TIP3    H2 5095   0.917   2.246   2.173
 1697TIP3   OH2 5096   1.801   2.332   1.312
 1697TIP3    H1 5097   1.836   2.352   1.225
 1697TIP3    H2 5098   1.743   2.257   1.298
 1698TIP3   OH2 5099   0.833   5.161   2.212
 1698TIP3    H1 5100   0.797   5.249   2.218
 1698TIP3    H2 5101   0.884   5.150   2.292
 1699TIP3   OH2 5102   0.754   0.169   0.065
 1699TIP3    H1 5103   0.768   0.243   0.006
 1699TIP3    H2 5104   0.841   0.148   0.099
 1700TIP3   OH2 5105   4.136   0.663   4.236
 1700TIP3    H1 5106   4.086   0.716   4.174
 1700TIP3    H2 5107   4.095   0.680   4.321
 1701TIP3   OH2 5108   0.310   3.478   4.535
 1701TIP3    H1 5109   0.404   3.492   4.525
 1701TIP3    H2 5110   0.285   3.533   4.609
 1702TIP3   OH2 5111   2.000   2.051   2.341
 1702TIP3    H1 5112   1.940   2.123   2.362
 1702TIP3    H2 5113   1.962   1.974   2.383
 1703TIP3   OH2 5114   1.932   1.867   2.532
 1703TIP3    H1 5115   1.933   1.793   2.473
 1703TIP3    H2 5116   2.017   1.864   2.577
 1704TIP3   OH2 5117   4.525   3.446   4.839
 1704TIP3    H1 5118   4.593   3.384   4.867
 1704TIP3    H2 5119   4.452   3.430   4.899
 1705TIP3   OH2 5120   4.768   0.385   4.497
 1705TIP3    H1 5121   4.720   0.383   4.414
 1705TIP3    H2 5122   4.837   0.320   4.486
 1706TIP3   OH2 5123   3.044   5.598   0.113
 1706TIP3    H1 5124   2.999   5.546   0.179
 1706TIP3    H2 5125   3.104   5.654   0.164
 1707TIP3   OH2 5126   0.811   1.642   2.453
 1707TIP3    H1 5127   0.856   1.558   2.467
 1707TIP3    H2 5128   0.877   1.699   2.414
 1708TIP3   OH2 5129   2.924   5.043   1.303
 1708TIP3    H1 5130   2.981   5.060   1.228
 1708TIP3    H2 5131   2.882   4.960   1.283
 1709TIP3   OH2 5132   4.413   0.862   2.998
 1709TIP3    H1 5133   4.487   0.803   3.008
 1709TIP3    H2 5134   4.417   0.889   2.906
 1710TIP3   OH2 5135   5.171   5.778   0.647
 1710TIP3    H1 5136   5.079   5.797   0.668
 1710TIP3    H2 5137   5.187   5.692   0.687
 1711TIP3   OH2 5138   4.097   4.273   0.444
 1711TIP3    H1 5139   4.160   4.289   0.374
 1711TIP3    H2 5140   4.118   4.339   0.510
 1712TIP3   OH2 5141   2.834   0.757   2.418
 1712TIP3    H1 5142   2.793   0.775   2.503
 1712TIP3    H2 5143   2.882   0.837   2.397
 1713TIP3   OH2 5144   1.012   1.826   0.781
 1713TIP3    H1 5145   0.925   1.795   0.807
 1713TIP3    H2 5146   1.010   1.920   0.796
 1714TIP3   OH2 5147   4.512   3.272   1.281
 1714TIP3    H1 5148   4.541   3.360   1.259
 1714TIP3    H2 5149   4.443   3.285   1.346
 1715TIP3   OH2 5150   0.781   2.773   2.709
 1715TIP3    H1 5151   0.750   2.750   2.796
 1715TIP3    H2 5152   0.877   2.772   2.716
 1716TIP3   OH2 5153   3.791   5.358   2.265
 1716TIP3    H1 5154   3.715   5.312   2.227
 1716TIP3    H2 5155   3.762   5.449   2.272
 1717TIP3   OH2 5156   5.716   4.295   3.416
 1717TIP3    H1 5157   5.716   4.372   3.471
 1717TIP3    H2 5158   5.754   4.226   3.470
 1718TIP3   OH2 5159   4.116   5.289   3.408
 1718TIP3    H1 5160   4.199   5.269   3.366
 1718TIP3    H2 5161   4.096   5.212   3.461
 1719TIP3   OH2 5162   4.153   0.000   2.729
 1719TIP3    H1 5163   4.090   0.053   2.680
 1719TIP3    H2 5164   4.099  -0.054   2.787
 1720TIP3   OH2 5165   1.816   5.579   2.340
 1720TIP3    H1 5166   1.786   5.615   2.423
 1720TIP3    H2 5167   1.775   5.492   2.336
 1721TIP3   OH2 5168   0.478   0.755   0.446
 1721TIP3    H1 5169   0.573   0.751   0.432
 1721TIP3    H2 5170   0.448   0.823   0.386
 1722TIP3   OH2 5171   6.200   2.395   4.393
 1722TIP3    H1 5172   6.165   2.467   4.341
 1722TIP3    H2 5173   6.155   2.401   4.477
 1723TIP3   OH2 5174   6.038   4.617   1.035
 1723TIP3    H1 5175   6.004   4.678   1.101
 1723TIP3    H2 5176   6.053   4.671   0.958
 1724TIP3   OH2 5177   5.464   2.243   1.578
 1724TIP3    H1 5178   5.466   2.181   1.505
 1724TIP3    H2 5179   5.554   2.244   1.611
 1725TIP3   OH2 5180   5.203   0.921   3.103
 1725TIP3    H1 5181   5.188   0.965   3.187
 1725TIP3    H2 5182   5.115   0.906   3.068
 1726TIP3   OH2 5183   0.065   0.368   2.079
 1726TIP3    H1 5184   0.118   0.383   2.157
 1726TIP3    H2 5185   0.037   0.455   2.052
 1727TIP3   OH2 5186   5.304   0.129   2.235
 1727TIP3    H1 5187   5.333   0.058   2.178
 1727TIP3    H2 5188   5.240   0.177   2.182
 1728TIP3   OH2 5189   3.590   1.496   2.408
 1728TIP3    H1 5190   3.531   1.423   2.393
 1728TIP3    H2 5191   3.535   1.574   2.402
 1729TIP3   OH2 5192   3.598   1.843   2.003
 1729TIP3    H1 5193   3.521   1.857   1.949
 1729TIP3    H2 5194   3.604   1.921   2.058
 1730TIP3   OH2 5195   2.229   1.502   1.005
 1730TIP3    H1 5196   2.139   1.471   1.005
 1730TIP3    H2 5197   2.270   1.456   0.931
 1731TIP3   OH2 5198   2.080   2.316   2.466
 1731TIP3    H1 5199   2.019   2.359   2.406
 1731TIP3    H2 5200   2.027   2.251   2.511
 1732TIP3   OH2 5201   4.238   3.990   4.112
 1732TIP3    H1 5202   4.266   4.074   4.076
 1732TIP3    H2 5203   4.152   4.008   4.150
 1733TIP3   OH2 5204   6.203   4.233   4.516
 1733TIP3    H1 5205   6.192   4.159   4.457
 1733TIP3    H2 5206   6.181   4.198   4.603
 1734TIP3   OH2 5207   3.804   1.170   1.416
 1734TIP3    H1 5208   3.773   1.202   1.501
 1734TIP3    H2 5209   3.731   1.118   1.382
 1735TIP3   OH2 5210   1.320   3.126   4.431
 1735TIP3    H1 5211   1.331   3.031   4.429
 1735TIP3    H2 5212   1.256   3.143   4.361
 1736TIP3   OH2 5213   1.820   0.374   0.020
 1736TIP3    H1 5214   1.786   0.354   0.108
 1736TIP3    H2 5215   1.910   0.400   0.034
 1737TIP3   OH2 5216   5.138   2.549   3.460
 1737TIP3    H1 5217   5.167   2.485   3.525
 1737TIP3    H2 5218   5.064   2.594   3.501
 1738TIP3   OH2 5219   1.192   3.782   1.557
 1738TIP3    H1 5220   1.200   3.876   1.576
 1738TIP3    H2 5221   1.126   3.777   1.488
 1739TIP3   OH2 5222   2.773   0.398   1.242
 1739TIP3    H1 5223   2.779   0.322   1.300
 1739TIP3    H2 5224   2.680   0.410   1.227
 1740TIP3   OH2 5225   1.863   4.497   3.885
 1740TIP3    H1 5226   1.951   4.490   3.849
 1740TIP3    H2 5227   1.807   4.508   3.808
 1741TIP3   OH2 5228   2.157   2.585   3.605
 1741TIP3    H1 5229   2.148   2.628   3.690
 1741TIP3    H2 5230   2.150   2.491   3.624
 1742TIP3   OH2 5231   1.380   5.932   0.145
 1742TIP3    H1 5232   1.412   5.845   0.122
 1742TIP3    H2 5233   1.400   5.942   0.239
 1743TIP3   OH2 5234   1.472   3.765   3.589
 1743TIP3    H1 5235   1.411   3.768   3.516
 1743TIP3    H2 5236   1.433   3.705   3.652
 1744TIP3   OH2 5237   5.261   1.771   2.412
 1744TIP3    H1 5238   5.284   1.860   2.385
 1744TIP3    H2 5239   5.249   1.777   2.507
 1745TIP3   OH2 5240   1.576   1.660   1.268
 1745TIP3    H1 5241   1.523   1.624   1.340
 1745TIP3    H2 5242   1.650   1.600   1.260
 1746TIP3   OH2 5243   0.315   1.378   1.122
 1746TIP3    H1 5244   0.307   1.293   1.166
 1746TIP3    H2 5245   0.226   1.414   1.124
 1747TIP3   OH2 5246   1.028   2.266   1.180
 1747TIP3    H1 5247   1.094   2.259   1.111
 1747TIP3    H2 5248   0.988   2.179   1.184
 1748TIP3   OH2 5249   0.995   5.018   3.561
 1748TIP3    H1 5250   0.940   4.939   3.566
 1748TIP3    H2 5251   0.999   5.049   3.652
 1749TIP3   OH2 5252   2.300   5.418   3.793
 1749TIP3    H1 5253   2.225   5.359   3.784
 1749TIP3    H2 5254   2.343   5.389   3.873
 1750TIP3   OH2 5255   4.709   2.187   4.896
 1750TIP3    H1 5256   4.746   2.099   4.900
 1750TIP3    H2 5257   4.710   2.209   4.803
 1751TIP3   OH2 5258   1.275   4.666   2.826
 1751TIP3    H1 5259   1.284   4.592   2.887
 1751TIP3    H2 5260   1.288   4.744   2.880
 1752TIP3   OH2 5261   3.134   2.189   2.464
 1752TIP3    H1 5262   3.065   2.151   2.410
 1752TIP3    H2 5263   3.090   2.261   2.510
 1753TIP3   OH2 5264   0.302   5.268   5.202
 1753TIP3    H1 5265   0.293   5.362   5.186
 1753TIP3    H2 5266   0.391   5.247   5.172
 1754TIP3   OH2 5267   2.317   2.342   1.922
 1754TIP3    H1 5268   2.313   2.251   1.951
 1754TIP3    H2 5269   2.226   2.372   1.924
 1755TIP3   OH2 5270   0.242   5.994   2.109
 1755TIP3    H1 5271   0.176   5.975   2.042
 1755TIP3    H2 5272   0.194   5.985   2.192
 1756TIP3   OH2 5273   1.989   0.304   4.283
 1756TIP3    H1 5274   1.952   0.245   4.217
 1756TIP3    H2 5275   2.063   0.346   4.238
 1757TIP3   OH2 5276   3.422   1.952   3.199
 1757TIP3    H1 5277   3.466   2.016   3.256
 1757TIP3    H2 5278   3.433   1.869   3.244
 1758TIP3   OH2 5279   2.002   0.742   0.145
 1758TIP3    H1 5280   2.008   0.650   0.170
 1758TIP3    H2 5281   2.060   0.788   0.206
 1759TIP3   OH2 5282   5.351   4.439   2.579
 1759TIP3    H1 5283   5.324   4.525   2.547
 1759TIP3    H2 5284   5.442   4.452   2.606
 1760TIP3   OH2 5285   1.329   3.468   3.594
 1760TIP3    H1 5286   1.344   3.429   3.680
 1760TIP3    H2 5287   1.243   3.509   3.601
 1761TIP3   OH2 5288   1.427   1.104   3.082
 1761TIP3    H1 5289   1.467   1.180   3.040
 1761TIP3    H2 5290   1.484   1.085   3.157
 1762TIP3   OH2 5291   2.997   3.614   2.558
 1762TIP3    H1 5292   2.974   3.602   2.466
 1762TIP3    H2 5293   2.981   3.707   2.575
 1763TIP3   OH2 5294   3.672   5.775   3.640
 1763TIP3    H1 5295   3.593   5.722   3.629
 1763TIP3    H2 5296   3.743   5.710   3.641
 1764TIP3   OH2 5297   1.457   3.360   4.484
 1764TIP3    H1 5298   1.550   3.348   4.503
 1764TIP3    H2 5299   1.425   3.271   4.468
 1765TIP3   OH2 5300   1.599   1.936   4.180
 1765TIP3    H1 5301   1.529   1.902   4.235
 1765TIP3    H2 5302   1.562   2.015   4.140
 1766TIP3   OH2 5303   1.181   0.132   0.556
 1766TIP3    H1 5304   1.144   0.213   0.591
 1766TIP3    H2 5305   1.104   0.079   0.533
 1767TIP3   OH2 5306   5.227   5.515   4.835
 1767TIP3    H1 5307   5.172   5.447   4.796
 1767TIP3    H2 5308   5.183   5.597   4.811
 1768TIP3   OH2 5309   4.636   5.709   4.336
 1768TIP3    H1 5310   4.581   5.785   4.319
 1768TIP3    H2 5311   4.582   5.651   4.390
 1769TIP3   OH2 5312   5.064   4.776   3.425
 1769TIP3    H1 5313   5.069   4.732   3.510
 1769TIP3    H2 5314   4.975   4.760   3.394
 1770TIP3   OH2 5315   0.650   4.265   0.758
 1770TIP3    H1 5316   0.570   4.272   0.706
 1770TIP3    H2 5317   0.624   4.215   0.836
 1771TIP3   OH2 5318   4.341   0.114   3.317
 1771TIP3    H1 5319   4.434   0.137   3.313
 1771TIP3    H2 5320   4.338   0.039   3.377
 1772TIP3   OH2 5321   3.373   6.027   0.013
 1772TIP3    H1 5322   3.329   5.949  -0.022
 1772TIP3    H2 5323   3.334   6.039   0.100
 1773TIP3   OH2 5324   2.834   2.681   3.852
 1773TIP3    H1 5325   2.852   2.623   3.927
 1773TIP3    H2 5326   2.812   2.621   3.781
 1774TIP3   OH2 5327   1.658   2.258   4.184
 1774TIP3    H1 5328   1.695   2.341   4.154
 1774TIP3    H2 5329   1.680   2.195   4.115
 1775TIP3   OH2 5330   3.112   0.477   1.328
 1775TIP3    H1 5331   3.137   0.564   1.361
 1775TIP3    H2 5332   3.051   0.444   1.394
 1776TIP3   OH2 5333   0.248   2.251   4.917
 1776TIP3    H1 5334   0.225   2.258   5.009
 1776TIP3    H2 5335   0.266   2.158   4.903
 1777TIP3   OH2 5336   1.115   0.715   4.596
 1777TIP3    H1 5337   1.136   0.763   4.676
 1777TIP3    H2 5338   1.167   0.635   4.601
 1778TIP3   OH2 5339   1.539   3.706   4.775
 1778TIP3    H1 5340   1.511   3.652   4.701
 1778TIP3    H2 5341   1.592   3.775   4.735
 1779TIP3   OH2 5342   5.052   6.003   3.945
 1779TIP3    H1 5343   5.053   5.973   4.036
 1779TIP3    H2 5344   4.981   5.952   3.904
 1780TIP3   OH2 5345   5.394   4.032   2.654
 1780TIP3    H1 5346   5.372   3.953   2.703
 1780TIP3    H2 5347   5.333   4.033   2.580
 1781TIP3   OH2 5348   1.028   1.682   3.641
 1781TIP3    H1 5349   1.048   1.665   3.734
 1781TIP3    H2 5350   1.104   1.730   3.609
 1782TIP3   OH2 5351   3.005   3.770   1.751
 1782TIP3    H1 5352   2.944   3.828   1.705
 1782TIP3    H2 5353   3.005   3.690   1.699
 1783TIP3   OH2 5354   4.671   5.092   3.879
 1783TIP3    H1 5355   4.748   5.058   3.832
 1783TIP3    H2 5356   4.619   5.015   3.898
 1784TIP3   OH2 5357   4.412   2.797   0.454
 1784TIP3    H1 5358   4.421   2.724   0.516
 1784TIP3    H2 5359   4.490   2.850   0.469
 1785TIP3   OH2 5360   5.723   2.379   3.456
 1785TIP3    H1 5361   5.738   2.457   3.402
 1785TIP3    H2 5362   5.636   2.391   3.493
 1786TIP3   OH2 5363   2.936   4.477   0.322
 1786TIP3    H1 5364   2.850   4.516   0.338
 1786TIP3    H2 5365   2.985   4.496   0.402
 1787TIP3   OH2 5366   3.217   2.362   4.992
 1787TIP3    H1 5367   3.162   2.301   4.943
 1787TIP3    H2 5368   3.183   2.448   4.968
 1788TIP3   OH2 5369   4.711   1.001   3.080
 1788TIP3    H1 5370   4.709   0.906   3.087
 1788TIP3    H2 5371   4.782   1.019   3.018
 1789TIP3   OH2 5372   3.171   4.313   1.615
 1789TIP3    H1 5373   3.079   4.317   1.644
 1789TIP3    H2 5374   3.219   4.283   1.693
 1790TIP3   OH2 5375   5.446   4.917   2.823
 1790TIP3    H1 5376   5.534   4.886   2.843
 1790TIP3    H2 5377   5.424   4.977   2.895
 1791TIP3   OH2 5378   4.058   1.853   2.528
 1791TIP3    H1 5379   3.991   1.852   2.596
 1791TIP3    H2 5380   4.036   1.779   2.472
 1792TIP3   OH2 5381   0.805   4.237   4.345
 1792TIP3    H1 5382   0.756   4.159   4.370
 1792TIP3    H2 5383   0.785   4.301   4.413
 1793TIP3   OH2 5384   4.354   1.116   1.475
 1793TIP3    H1 5385   4.389   1.143   1.560
 1793TIP3    H2 5386   4.262   1.099   1.492
 1794TIP3   OH2 5387   3.362   4.937   4.210
 1794TIP3    H1 5388   3.329   5.010   4.262
 1794TIP3    H2 5389   3.455   4.955   4.199
 1795TIP3   OH2 5390   1.002   0.402   1.130
 1795TIP3    H1 5391   1.041   0.440   1.208
 1795TIP3    H2 5392   0.952   0.326   1.162
 1796TIP3   OH2 5393   2.586   2.398   4.496
 1796TIP3    H1 5394   2.523   2.459   4.456
 1796TIP3    H2 5395   2.665   2.451   4.510
 1797TIP3   OH2 5396   5.890   3.857   1.189
 1797TIP3    H1 5397   5.849   3.865   1.275
 1797TIP3    H2 5398   5.938   3.939   1.177
 1798TIP3   OH2 5399   5.586   2.266   4.841
 1798TIP3    H1 5400   5.676   2.248   4.812
 1798TIP3    H2 5401   5.592   2.351   4.885
 1799TIP3   OH2 5402   4.489   3.064   1.860
 1799TIP3    H1 5403   4.515   3.073   1.769
 1799TIP3    H2 5404   4.397   3.090   1.862
 1800TIP3   OH2 5405   0.315   5.340   1.991
 1800TIP3    H1 5406   0.365   5.278   2.044
 1800TIP3    H2 5407   0.328   5.425   2.034
 1801TIP3   OH2 5408   3.292   5.009   4.540
 1801TIP3    H1 5409   3.385   4.990   4.555
 1801TIP3    H2 5410   3.248   4.925   4.550
 1802TIP3   OH2 5411   0.725   5.607   0.876
 1802TIP3    H1 5412   0.730   5.610   0.972
 1802TIP3    H2 5413   0.653   5.666   0.855
 1803TIP3   OH2 5414   4.024   0.630   4.944
 1803TIP3    H1 5415   3.982   0.545   4.940
 1803TIP3    H2 5416   4.079   0.634   4.866
 1804TIP3   OH2 5417   3.644   1.963   1.130
 1804TIP3    H1 5418   3.705   1.989   1.199
 1804TIP3    H2 5419   3.699   1.932   1.059
 1805TIP3   OH2 5420   3.215   1.479   0.174
 1805TIP3    H1 5421   3.158   1.519   0.240
 1805TIP3    H2 5422   3.169   1.399   0.147
 1806TIP3   OH2 5423   2.519   1.954   1.183
 1806TIP3    H1 5424   2.456   1.911   1.127
 1806TIP3    H2 5425   2.596   1.968   1.128
 1807TIP3   OH2 5426   3.979   1.070   0.672
 1807TIP3    H1 5427   3.964   1.070   0.766
 1807TIP3    H2 5428   4.046   1.003   0.658
 1808TIP3   OH2 5429   3.225   4.804   1.275
 1808TIP3    H1 5430   3.308   4.830   1.314
 1808TIP3    H2 5431   3.207   4.718   1.311
 1809TIP3   OH2 5432   4.846   1.592   2.244
 1809TIP3    H1 5433   4.895   1.652   2.300
 1809TIP3    H2 5434   4.912   1.550   2.189
 1810TIP3   OH2 5435   3.302   3.410   0.378
 1810TIP3    H1 5436   3.235   3.466   0.417
 1810TIP3    H2 5437   3.384   3.455   0.395
 1811TIP3   OH2 5438   4.180   5.649   1.450
 1811TIP3    H1 5439   4.263   5.692   1.431
 1811TIP3    H2 5440   4.114   5.714   1.430
 1812TIP3   OH2 5441   5.402   3.197   3.564
 1812TIP3    H1 5442   5.318   3.220   3.524
 1812TIP3    H2 5443   5.409   3.102   3.551
 1813TIP3   OH2 5444   3.956   1.120   0.266
 1813TIP3    H1 5445   4.049   1.140   0.258
 1813TIP3    H2 5446   3.927   1.168   0.344
 1814TIP3   OH2 5447   2.823   2.993   2.200
 1814TIP3    H1 5448   2.829   2.935   2.276
 1814TIP3    H2 5449   2.828   3.082   2.236
 1815TIP3   OH2 5450   0.081   1.924   2.362
 1815TIP3    H1 5451   0.035   1.926   2.446
 1815TIP3    H2 5452   0.122   1.838   2.359
 1816TIP3   OH2 5453   6.257   0.213   1.592
 1816TIP3    H1 5454   6.322   0.191   1.659
 1816TIP3    H2 5455   6.226   0.300   1.615
 1817TIP3   OH2 5456   2.531   2.313   0.562
 1817TIP3    H1 5457   2.503   2.253   0.492
 1817TIP3    H2 5458   2.608   2.271   0.600
 1818TIP3   OH2 5459  -0.043   1.475   2.611
 1818TIP3    H1 5460   0.001   1.526   2.679
 1818TIP3    H2 5461   0.022   1.468   2.541
 1819TIP3   OH2 5462   3.202   0.302   2.567
 1819TIP3    H1 5463   3.132   0.270   2.623
 1819TIP3    H2 5464   3.280   0.303   2.623
 1820TIP3   OH2 5465   0.477   4.408   3.619
 1820TIP3    H1 5466   0.463   4.392   3.525
 1820TIP3    H2 5467   0.413   4.475   3.641
 1821TIP3   OH2 5468   0.095   5.087   5.074
 1821TIP3    H1 5469   0.008   5.084   5.113
 1821TIP3    H2 5470   0.144   5.149   5.128
 1822TIP3   OH2 5471   3.139   3.621   2.272
 1822TIP3    H1 5472   3.143   3.604   2.178
 1822TIP3    H2 5473   3.099   3.708   2.279
 1823TIP3   OH2 5474   3.793   3.803   0.716
 1823TIP3    H1 5475   3.723   3.821   0.779
 1823TIP3    H2 5476   3.793   3.879   0.657
 1824TIP3   OH2 5477   4.819   0.482   2.724
 1824TIP3    H1 5478   4.740   0.512   2.769
 1824TIP3    H2 5479   4.795   0.478   2.632
 1825TIP3   OH2 5480   1.450   4.428   3.572
 1825TIP3    H1 5481   1.515   4.358   3.566
 1825TIP3    H2 5482   1.436   4.440   3.666
 1826TIP3   OH2 5483   2.832   1.634   1.604
 1826TIP3    H1 5484   2.752   1.687   1.603
 1826TIP3    H2 5485   2.809   1.555   1.554
 1827TIP3   OH2 5486   3.505   3.072   3.044
 1827TIP3    H1 5487   3.535   2.986   3.013
 1827TIP3    H2 5488   3.481   3.057   3.136
 1828TIP3   OH2 5489   5.079   3.906   3.373
 1828TIP3    H1 5490   5.072   3.815   3.404
 1828TIP3    H2 5491   5.137   3.901   3.297
 1829TIP3   OH2 5492   2.130   3.105   1.482
 1829TIP3    H1 5493   2.119   3.082   1.390
 1829TIP3    H2 5494   2.151   3.198   1.482
 1830TIP3   OH2 5495   3.253   3.631   3.735
 1830TIP3    H1 5496   3.284   3.540   3.742
 1830TIP3    H2 5497   3.252   3.649   3.641
 1831TIP3   OH2 5498   0.790   4.267   2.736
 1831TIP3    H1 5499   0.798   4.186   2.685
 1831TIP3    H2 5500   0.785   4.336   2.670
 1832TIP3   OH2 5501   0.972   5.699   3.521
 1832TIP3    H1 5502   1.018   5.628   3.476
 1832TIP3    H2 5503   0.995   5.778   3.473
 1833TIP3   OH2 5504   3.350   5.831   0.418
 1833TIP3    H1 5505   3.326   5.924   0.411
 1833TIP3    H2 5506   3.424   5.831   0.479
 1834TIP3   OH2 5507   3.195   5.033   1.682
 1834TIP3    H1 5508   3.191   5.044   1.587
 1834TIP3    H2 5509   3.150   4.950   1.699
 1835TIP3   OH2 5510   3.091   5.172   1.913
 1835TIP3    H1 5511   3.129   5.259   1.926
 1835TIP3    H2 5512   3.164   5.119   1.879
 1836TIP3   OH2 5513   3.020   3.900   0.387
 1836TIP3    H1 5514   2.959   3.864   0.451
 1836TIP3    H2 5515   3.063   3.972   0.433
 1837TIP3   OH2 5516   2.801   3.050   3.427
 1837TIP3    H1 5517   2.831   2.983   3.488
 1837TIP3    H2 5518   2.848   3.129   3.453
 1838TIP3   OH2 5519   0.110   0.853   3.913
 1838TIP3    H1 5520   0.070   0.825   3.995
 1838TIP3    H2 5521   0.038   0.854   3.850
 1839TIP3   OH2 5522   5.724   1.349   1.736
 1839TIP3    H1 5523   5.733   1.260   1.702
 1839TIP3    H2 5524   5.645   1.346   1.790
 1840TIP3   OH2 5525   0.174   5.314   0.916
 1840TIP3    H1 5526   0.223   5.235   0.940
 1840TIP3    H2 5527   0.099   5.314   0.976
 1841TIP3   OH2 5528   1.966   2.637   1.787
 1841TIP3    H1 5529   2.008   2.699   1.847
 1841TIP3    H2 5530   2.037   2.579   1.758
 1842TIP3   OH2 5531   3.386   4.682   4.836
 1842TIP3    H1 5532   3.294   4.689   4.861
 1842TIP3    H2 5533   3.427   4.632   4.907
 1843TIP3   OH2 5534   1.533   2.910   2.935
 1843TIP3    H1 5535   1.516   2.949   3.020
 1843TIP3    H2 5536   1.584   2.977   2.888
 1844TIP3   OH2 5537   1.889   3.180   0.276
 1844TIP3    H1 5538   1.916   3.242   0.344
 1844TIP3    H2 5539   1.793   3.179   0.282
 1845TIP3   OH2 5540   5.790   5.510   4.414
 1845TIP3    H1 5541   5.775   5.422   4.448
 1845TIP3    H2 5542   5.724   5.565   4.457
 1846TIP3   OH2 5543   3.798   1.732   3.279
 1846TIP3    H1 5544   3.753   1.788   3.342
 1846TIP3    H2 5545   3.890   1.761   3.284
 1847TIP3   OH2 5546   4.754   3.462   4.608
 1847TIP3    H1 5547   4.703   3.510   4.673
 1847TIP3    H2 5548   4.764   3.374   4.646
 1848TIP3   OH2 5549   2.254   3.341   1.770
 1848TIP3    H1 5550   2.288   3.428   1.790
 1848TIP3    H2 5551   2.254   3.337   1.674
 1849TIP3   OH2 5552   3.243   4.472   4.305
 1849TIP3    H1 5553   3.281   4.520   4.231
 1849TIP3    H2 5554   3.304   4.400   4.319
 1850TIP3   OH2 5555   4.585   1.714   0.994
 1850TIP3    H1 5556   4.513   1.697   1.053
 1850TIP3    H2 5557   4.602   1.808   1.002
 1851TIP3   OH2 5558   2.928   5.323   1.297
 1851TIP3    H1 5559   2.901   5.239   1.334
 1851TIP3    H2 5560   3.002   5.302   1.241
 1852TIP3   OH2 5561   3.888   2.157   4.765
 1852TIP3    H1 5562   3.928   2.094   4.825
 1852TIP3    H2 5563   3.949   2.232   4.766
 1853TIP3   OH2 5564   4.379   1.785   1.987
 1853TIP3    H1 5565   4.331   1.756   1.910
 1853TIP3    H2 5566   4.325   1.755   2.061
 1854TIP3   OH2 5567   4.525   3.923   3.612
 1854TIP3    H1 5568   4.613   3.931   3.573
 1854TIP3    H2 5569   4.540   3.925   3.706
 1855TIP3   OH2 5570   5.568   2.913   3.652
 1855TIP3    H1 5571   5.630   2.980   3.625
 1855TIP3    H2 5572   5.506   2.906   3.579
 1856TIP3   OH2 5573   5.127   2.111   4.832
 1856TIP3    H1 5574   5.209   2.154   4.807
 1856TIP3    H2 5575   5.080   2.177   4.884
 1857TIP3   OH2 5576   6.211   4.254   3.166
 1857TIP3    H1 5577   6.295   4.256   3.120
 1857TIP3    H2 5578   6.146   4.235   3.098
 1858TIP3   OH2 5579   3.342   5.175   2.462
 1858TIP3    H1 5580   3.346   5.209   2.551
 1858TIP3    H2 5581   3.331   5.080   2.473
 1859TIP3   OH2 5582   4.310   2.300   2.105
 1859TIP3    H1 5583   4.284   2.383   2.066
 1859TIP3    H2 5584   4.404   2.293   2.090
 1860TIP3   OH2 5585   1.702   1.293   4.757
 1860TIP3    H1 5586   1.759   1.368   4.777
 1860TIP3    H2 5587   1.695   1.245   4.839
 1861TIP3   OH2 5588   4.870   4.217   2.667
 1861TIP3    H1 5589   4.924   4.285   2.706
 1861TIP3    H2 5590   4.928   4.172   2.605
 1862TIP3   OH2 5591   5.821   5.056   2.498
 1862TIP3    H1 5592   5.830   4.962   2.511
 1862TIP3    H2 5593   5.783   5.089   2.579
 1863TIP3   OH2 5594   3.754   3.946   5.075
 1863TIP3    H1 5595   3.775   3.873   5.017
 1863TIP3    H2 5596   3.705   3.905   5.147
 1864TIP3   OH2 5597   5.319   0.212   2.871
 1864TIP3    H1 5598   5.284   0.218   2.781
 1864TIP3    H2 5599   5.401   0.262   2.868
 1865TIP3   OH2 5600   3.947   2.584   3.928
 1865TIP3    H1 5601   3.965   2.657   3.869
 1865TIP3    H2 5602   3.937   2.508   3.869
 1866TIP3   OH2 5603   5.171   1.129   5.092
 1866TIP3    H1 5604   5.145   1.056   5.148
 1866TIP3    H2 5605   5.266   1.118   5.080
 1867TIP3   OH2 5606   1.628   4.541   3.380
 1867TIP3    H1 5607   1.580   4.470   3.422
 1867TIP3    H2 5608   1.653   4.598   3.453
 1868TIP3   OH2 5609   2.466   3.207   2.696
 1868TIP3    H1 5610   2.491   3.142   2.631
 1868TIP3    H2 5611   2.390   3.169   2.741
 1869TIP3   OH2 5612   0.408   0.323   0.288
 1869TIP3    H1 5613   0.416   0.274   0.370
 1869TIP3    H2 5614   0.468   0.397   0.298
 1870TIP3   OH2 5615   1.032   0.600   1.613
 1870TIP3    H1 5616   1.115   0.555   1.629
 1870TIP3    H2 5617   1.022   0.599   1.518
 1871TIP3   OH2 5618   4.973   0.636   3.275
 1871TIP3    H1 5619   4.973   0.677   3.189
 1871TIP3    H2 5620   5.065   0.641   3.304
 1872TIP3   OH2 5621   2.064   5.911   0.112
 1872TIP3    H1 5622   1.973   5.938   0.124
 1872TIP3    H2 5623   2.106   5.987   0.072
 1873TIP3   OH2 5624   1.871   4.231   2.245
 1873TIP3    H1 5625   1.906   4.146   2.274
 1873TIP3    H2 5626   1.947   4.288   2.238
 1874TIP3   OH2 5627   0.895   1.079   4.944
 1874TIP3    H1 5628   0.884   1.170   4.914
 1874TIP3    H2 5629   0.987   1.073   4.968
 1875TIP3   OH2 5630   5.148   2.795   3.676
 1875TIP3    H1 5631   5.056   2.776   3.695
 1875TIP3    H2 5632   5.156   2.890   3.683
 1876TIP3   OH2 5633   3.231   1.220   1.829
 1876TIP3    H1 5634   3.202   1.302   1.868
 1876TIP3    H2 5635   3.161   1.158   1.849
 1877TIP3   OH2 5636   3.305   0.196   0.817
 1877TIP3    H1 5637   3.263   0.111   0.827
 1877TIP3    H2 5638   3.386   0.190   0.868
 1878TIP3   OH2 5639   0.138   0.983   5.224
 1878TIP3    H1 5640   0.159   0.890   5.222
 1878TIP3    H2 5641   0.121   1.002   5.316
 1879TIP3   OH2 5642   3.845   4.143   3.598
 1879TIP3    H1 5643   3.881   4.166   3.512
 1879TIP3    H2 5644   3.836   4.048   3.595
 1880TIP3   OH2 5645   2.032   0.572   3.558
 1880TIP3    H1 5646   1.965   0.627   3.599
 1880TIP3    H2 5647   1.994   0.484   3.560
 1881TIP3   OH2 5648   1.312   2.074   3.841
 1881TIP3    H1 5649   1.295   2.102   3.751
 1881TIP3    H2 5650   1.255   1.998   3.853
 1882TIP3   OH2 5651   0.155   3.065   2.058
 1882TIP3    H1 5652   0.165   2.997   1.991
 1882TIP3    H2 5653   0.148   3.016   2.140
 1883TIP3   OH2 5654   2.258   0.312   0.205
 1883TIP3    H1 5655   2.316   0.273   0.270
 1883TIP3    H2 5656   2.311   0.316   0.125
 1884TIP3   OH2 5657   5.360   3.689   5.146
 1884TIP3    H1 5658   5.362   3.780   5.175
 1884TIP3    H2 5659   5.341   3.693   5.053
 1885TIP3   OH2 5660   4.037   5.183   1.700
 1885TIP3    H1 5661   4.075   5.113   1.752
 1885TIP3    H2 5662   4.017   5.142   1.616
 1886TIP3   OH2 5663   3.364   5.648   2.710
 1886TIP3    H1 5664   3.451   5.669   2.676
 1886TIP3    H2 5665   3.317   5.732   2.709
 1887TIP3   OH2 5666   4.692   5.639   0.802
 1887TIP3    H1 5667   4.654   5.723   0.775
 1887TIP3    H2 5668   4.769   5.629   0.747
 1888TIP3   OH2 5669   3.827   5.250   2.708
 1888TIP3    H1 5670   3.808   5.158   2.728
 1888TIP3    H2 5671   3.857   5.250   2.618
 1889TIP3   OH2 5672   3.604   2.026   3.867
 1889TIP3    H1 5673   3.660   1.975   3.807
 1889TIP3    H2 5674   3.657   2.034   3.947
 1890TIP3   OH2 5675   4.022   0.600   5.210
 1890TIP3    H1 5676   4.049   0.616   5.119
 1890TIP3    H2 5677   4.104   0.607   5.260
 1891TIP3   OH2 5678   5.738   5.244   1.395
 1891TIP3    H1 5679   5.794   5.215   1.468
 1891TIP3    H2 5680   5.748   5.339   1.393
 1892TIP3   OH2 5681   4.647   2.956   0.508
 1892TIP3    H1 5682   4.659   3.050   0.521
 1892TIP3    H2 5683   4.720   2.930   0.452
 1893TIP3   OH2 5684   4.184   5.782   5.099
 1893TIP3    H1 5685   4.196   5.689   5.121
 1893TIP3    H2 5686   4.255   5.826   5.145
 1894TIP3   OH2 5687   3.389   0.673   4.395
 1894TIP3    H1 5688   3.311   0.705   4.440
 1894TIP3    H2 5689   3.449   0.749   4.393
 1895TIP3   OH2 5690   4.819   4.490   0.746
 1895TIP3    H1 5691   4.846   4.489   0.654
 1895TIP3    H2 5692   4.893   4.532   0.792
 1896TIP3   OH2 5693   4.425   2.049   4.099
 1896TIP3    H1 5694   4.391   2.026   4.013
 1896TIP3    H2 5695   4.383   2.133   4.120
 1897TIP3   OH2 5696   4.991   4.733   3.067
 1897TIP3    H1 5697   5.063   4.732   3.003
 1897TIP3    H2 5698   4.948   4.648   3.056
 1898TIP3   OH2 5699   1.273   4.124   1.820
 1898TIP3    H1 5700   1.359   4.162   1.839
 1898TIP3    H2 5701   1.279   4.096   1.729
 1899TIP3   OH2 5702   4.903   3.223   3.450
 1899TIP3    H1 5703   4.955   3.203   3.373
 1899TIP3    H2 5704   4.813   3.226   3.418
 1900TIP3   OH2 5705   1.354   3.871   1.174
 1900TIP3    H1 5706   1.446   3.847   1.171
 1900TIP3    H2 5707   1.350   3.950   1.228
 1901TIP3   OH2 5708  -0.021   3.966   5.225
 1901TIP3    H1 5709   0.030   3.995   5.150
 1901TIP3    H2 5710  -0.108   3.948   5.189
 1902TIP3   OH2 5711   4.208   4.842   0.467
 1902TIP3    H1 5712   4.126   4.825   0.422
 1902TIP3    H2 5713   4.275   4.837   0.399
 1903TIP3   OH2 5714   1.312   1.805   3.993
 1903TIP3    H1 5715   1.401   1.781   3.966
 1903TIP3    H2 5716   1.317   1.806   4.089
 1904TIP3   OH2 5717   2.888   0.506   0.736
 1904TIP3    H1 5718   2.916   0.418   0.710
 1904TIP3    H2 5719   2.899   0.559   0.658
 1905TIP3   OH2 5720   3.330   1.894   1.929
 1905TIP3    H1 5721   3.285   1.919   1.848
 1905TIP3    H2 5722   3.335   1.975   1.980
 1906TIP3   OH2 5723   3.065   0.805   4.181
 1906TIP3    H1 5724   3.053   0.715   4.211
 1906TIP3    H2 5725   3.153   0.828   4.210
 1907TIP3   OH2 5726   2.324   2.418   0.344
 1907TIP3    H1 5727   2.403   2.422   0.290
 1907TIP3    H2 5728   2.341   2.479   0.416
 1908TIP3   OH2 5729   4.671   4.642   0.517
 1908TIP3    H1 5730   4.749   4.667   0.468
 1908TIP3    H2 5731   4.634   4.725   0.547
 1909TIP3   OH2 5732   2.108   3.133   3.127
 1909TIP3    H1 5733   2.022   3.099   3.103
 1909TIP3    H2 5734   2.119   3.211   3.073
 1910TIP3   OH2 5735   0.063   0.832   4.935
 1910TIP3    H1 5736   0.140   0.818   4.881
 1910TIP3    H2 5737   0.038   0.744   4.964
 1911TIP3   OH2 5738   5.288   5.104  -0.028
 1911TIP3    H1 5739   5.329   5.190  -0.032
 1911TIP3    H2 5740   5.362   5.043  -0.023
 1912TIP3   OH2 5741   1.245   0.119   4.941
 1912TIP3    H1 5742   1.185   0.161   4.879
 1912TIP3    H2 5743   1.208   0.032   4.955
 1913TIP3   OH2 5744   5.187   0.582   0.199
 1913TIP3    H1 5745   5.148   0.571   0.286
 1913TIP3    H2 5746   5.172   0.673   0.176
 1914TIP3   OH2 5747   0.654   3.366   0.315
 1914TIP3    H1 5748   0.610   3.289   0.351
 1914TIP3    H2 5749   0.660   3.426   0.389
 1915TIP3   OH2 5750   2.486   0.054   0.748
 1915TIP3    H1 5751   2.451   0.001   0.676
 1915TIP3    H2 5752   2.451   0.012   0.827
 1916TIP3   OH2 5753   2.161   3.723   3.631
 1916TIP3    H1 5754   2.084   3.740   3.577
 1916TIP3    H2 5755   2.228   3.780   3.594
 1917TIP3   OH2 5756   1.368   1.798   4.680
 1917TIP3    H1 5757   1.433   1.782   4.749
 1917TIP3    H2 5758   1.337   1.887   4.697
 1918TIP3   OH2 5759   4.747   5.964   1.149
 1918TIP3    H1 5760   4.804   5.928   1.081
 1918TIP3    H2 5761   4.727   5.890   1.206
 1919TIP3   OH2 5762   2.025   0.036   1.328
 1919TIP3    H1 5763   2.100   0.010   1.381
 1919TIP3    H2 5764   1.961   0.069   1.391
 1920TIP3   OH2 5765   4.708   2.182   1.199
 1920TIP3    H1 5766   4.633   2.122   1.203
 1920TIP3    H2 5767   4.771   2.137   1.142
 1921TIP3   OH2 5768   0.015   5.624   3.347
 1921TIP3    H1 5769   0.054   5.680   3.414
 1921TIP3    H2 5770   0.066   5.641   3.268
 1922TIP3   OH2 5771   6.302   1.766   3.184
 1922TIP3    H1 5772   6.264   1.720   3.110
 1922TIP3    H2 5773   6.383   1.720   3.203
 1923TIP3   OH2 5774   3.892   1.591   4.898
 1923TIP3    H1 5775   3.876   1.665   4.839
 1923TIP3    H2 5776   3.814   1.536   4.889
 1924TIP3   OH2 5777   0.658   5.467   0.632
 1924TIP3    H1 5778   0.581   5.414   0.652
 1924TIP3    H2 5779   0.687   5.499   0.718
 1925TIP3   OH2 5780   3.323   4.682   4.111
 1925TIP3    H1 5781   3.230   4.696   4.094
 1925TIP3    H2 5782   3.349   4.756   4.166
 1926TIP3   OH2 5783   4.433   2.750   1.636
 1926TIP3    H1 5784   4.525   2.731   1.622
 1926TIP3    H2 5785   4.402   2.784   1.552
 1927TIP3   OH2 5786   5.131   5.624   0.357
 1927TIP3    H1 5787   5.171   5.587   0.279
 1927TIP3    H2 5788   5.195   5.687   0.389
 1928TIP3   OH2 5789   0.442   0.087   2.740
 1928TIP3    H1 5790   0.407   0.174   2.757
 1928TIP3    H2 5791   0.519   0.102   2.685
 1929TIP3   OH2 5792   5.708   2.340   0.848
 1929TIP3    H1 5793   5.623   2.301   0.869
 1929TIP3    H2 5794   5.754   2.273   0.798
 1930TIP3   OH2 5795   2.975   4.083   1.879
 1930TIP3    H1 5796   2.908   4.077   1.811
 1930TIP3    H2 5797   3.052   4.117   1.834
 1931TIP3   OH2 5798   2.593   0.474   1.817
 1931TIP3    H1 5799   2.659   0.462   1.750
 1931TIP3    H2 5800   2.619   0.415   1.888
 1932TIP3   OH2 5801   1.133   3.829   1.845
 1932TIP3    H1 5802   1.225   3.813   1.824
 1932TIP3    H2 5803   1.124   3.924   1.837
 1933TIP3   OH2 5804   5.344   4.367   1.874
 1933TIP3    H1 5805   5.394   4.399   1.949
 1933TIP3    H2 5806   5.409   4.352   1.805
 1934TIP3   OH2 5807   3.628   1.327   2.973
 1934TIP3    H1 5808   3.721   1.347   2.976
 1934TIP3    H2 5809   3.625   1.231   2.973
 1935TIP3   OH2 5810   3.302   0.395   5.031
 1935TIP3    H1 5811   3.383   0.410   5.078
 1935TIP3    H2 5812   3.303   0.460   4.960
 1936TIP3   OH2 5813   2.322   4.421   4.907
 1936TIP3    H1 5814   2.297   4.466   4.826
 1936TIP3    H2 5815   2.240   4.392   4.945
 1937TIP3   OH2 5816   6.143   0.470   4.376
 1937TIP3    H1 5817   6.175   0.387   4.411
 1937TIP3    H2 5818   6.134   0.455   4.282
 1938TIP3   OH2 5819   1.017   1.994   4.821
 1938TIP3    H1 5820   1.025   1.994   4.726
 1938TIP3    H2 5821   1.104   1.970   4.852
 1939TIP3   OH2 5822   2.487   4.247   0.622
 1939TIP3    H1 5823   2.512   4.240   0.530
 1939TIP3    H2 5824   2.403   4.292   0.621
 1940TIP3   OH2 5825   5.141   5.143   2.827
 1940TIP3    H1 5826   5.059   5.163   2.871
 1940TIP3    H2 5827   5.169   5.226   2.789
 1941TIP3   OH2 5828   3.432   3.319   5.080
 1941TIP3    H1 5829   3.482   3.263   5.021
 1941TIP3    H2 5830   3.498   3.361   5.136
 1942TIP3   OH2 5831   4.850   4.863   1.159
 1942TIP3    H1 5832   4.806   4.862   1.074
 1942TIP3    H2 5833   4.833   4.950   1.194
 1943TIP3   OH2 5834   5.490   5.106   1.371
 1943TIP3    H1 5835   5.515   5.062   1.291
 1943TIP3    H2 5836   5.562   5.166   1.390
 1944TIP3   OH2 5837   4.972   0.827   3.505
 1944TIP3    H1 5838   5.045   0.772   3.477
 1944TIP3    H2 5839   4.930   0.854   3.424
 1945TIP3   OH2 5840   2.502   5.949   2.934
 1945TIP3    H1 5841   2.549   5.963   3.016
 1945TIP3    H2 5842   2.413   5.978   2.952
 1946TIP3   OH2 5843   2.326   0.103   2.956
 1946TIP3    H1 5844   2.306   0.184   2.909
 1946TIP3    H2 5845   2.329   0.128   3.048
 1947TIP3   OH2 5846   4.091   5.401   3.974
 1947TIP3    H1 5847   3.999   5.386   3.998
 1947TIP3    H2 5848   4.135   5.418   4.057
 1948TIP3   OH2 5849   2.169   1.614   3.303
 1948TIP3    H1 5850   2.118   1.679   3.353
 1948TIP3    H2 5851   2.105   1.576   3.242
 1949TIP3   OH2 5852   6.160   1.412   4.100
 1949TIP3    H1 5853   6.174   1.502   4.129
 1949TIP3    H2 5854   6.177   1.415   4.005
 1950TIP3   OH2 5855   0.225   3.625   0.855
 1950TIP3    H1 5856   0.276   3.615   0.936
 1950TIP3    H2 5857   0.290   3.652   0.790
 1951TIP3   OH2 5858   2.768   2.667   5.041
 1951TIP3    H1 5859   2.773   2.732   5.111
 1951TIP3    H2 5860   2.806   2.711   4.965
 1952TIP3   OH2 5861   2.308   5.632   0.674
 1952TIP3    H1 5862   2.266   5.549   0.651
 1952TIP3    H2 5863   2.238   5.685   0.713
 1953TIP3   OH2 5864   1.311   0.483   0.562
 1953TIP3    H1 5865   1.367   0.560   0.573
 1953TIP3    H2 5866   1.342   0.443   0.481
 1954TIP3   OH2 5867   6.090   2.389   4.910
 1954TIP3    H1 5868   6.163   2.380   4.970
 1954TIP3    H2 5869   6.033   2.454   4.951
 1955TIP3   OH2 5870   2.834   1.497   3.126
 1955TIP3    H1 5871   2.767   1.538   3.072
 1955TIP3    H2 5872   2.804   1.407   3.137
 1956TIP3   OH2 5873   0.158   0.113   0.636
 1956TIP3    H1 5874   0.088   0.068   0.589
 1956TIP3    H2 5875   0.123   0.200   0.653
 1957TIP3   OH2 5876   2.395   3.545   0.258
 1957TIP3    H1 5877   2.442   3.608   0.311
 1957TIP3    H2 5878   2.434   3.460   0.280
 1958TIP3   OH2 5879   0.320   0.895   3.463
 1958TIP3    H1 5880   0.240   0.875   3.415
 1958TIP3    H2 5881   0.344   0.982   3.432
 1959TIP3   OH2 5882   0.859   1.681   3.988
 1959TIP3    H1 5883   0.822   1.638   3.911
 1959TIP3    H2 5884   0.953   1.668   3.980
 1960TIP3   OH2 5885   3.629   3.214   3.677
 1960TIP3    H1 5886   3.706   3.200   3.732
 1960TIP3    H2 5887   3.556   3.218   3.738
 1961TIP3   OH2 5888   0.291   2.797   1.092
 1961TIP3    H1 5889   0.215   2.753   1.130
 1961TIP3    H2 5890   0.304   2.755   1.008
 1962TIP3   OH2 5891   2.774   4.456   4.886
 1962TIP3    H1 5892   2.758   4.545   4.916
 1962TIP3    H2 5893   2.708   4.403   4.931
 1963TIP3   OH2 5894   5.365   5.722   2.866
 1963TIP3    H1 5895   5.273   5.726   2.841
 1963TIP3    H2 5896   5.382   5.804   2.911
 1964TIP3   OH2 5897   6.125   0.964   4.964
 1964TIP3    H1 5898   6.109   0.891   4.903
 1964TIP3    H2 5899   6.217   0.988   4.948
 1965TIP3   OH2 5900   1.842   2.560   4.635
 1965TIP3    H1 5901   1.816   2.570   4.726
 1965TIP3    H2 5902   1.938   2.561   4.637
 1966TIP3   OH2 5903   5.211   3.330   4.351
 1966TIP3    H1 5904   5.212   3.279   4.271
 1966TIP3    H2 5905   5.274   3.400   4.336
 1967TIP3   OH2 5906   5.551   0.104   1.683
 1967TIP3    H1 5907   5.584   0.049   1.753
 1967TIP3    H2 5908   5.589   0.067   1.603
 1968TIP3   OH2 5909   3.466   2.651   5.186
 1968TIP3    H1 5910   3.452   2.558   5.200
 1968TIP3    H2 5911   3.484   2.659   5.092
 1969TIP3   OH2 5912   2.312   3.937   3.531
 1969TIP3    H1 5913   2.250   4.004   3.501
 1969TIP3    H2 5914   2.366   3.917   3.454
 1970TIP3   OH2 5915   0.205   5.184   3.833
 1970TIP3    H1 5916   0.252   5.258   3.795
 1970TIP3    H2 5917   0.122   5.221   3.862
 1971TIP3   OH2 5918   3.878   2.446   2.847
 1971TIP3    H1 5919   3.894   2.524   2.901
 1971TIP3    H2 5920   3.922   2.464   2.765
 1972TIP3   OH2 5921   3.328   4.204   2.189
 1972TIP3    H1 5922   3.374   4.234   2.267
 1972TIP3    H2 5923   3.360   4.261   2.119
 1973TIP3   OH2 5924   3.052   5.428   1.690
 1973TIP3    H1 5925   2.984   5.490   1.664
 1973TIP3    H2 5926   3.072   5.451   1.781
 1974TIP3   OH2 5927   2.881   1.210   1.810
 1974TIP3    H1 5928   2.887   1.285   1.869
 1974TIP3    H2 5929   2.852   1.138   1.866
 1975TIP3   OH2 5930   4.840   1.803   0.154
 1975TIP3    H1 5931   4.919   1.770   0.112
 1975TIP3    H2 5932   4.810   1.731   0.209
 1976TIP3   OH2 5933   2.760   5.166   0.269
 1976TIP3    H1 5934   2.851   5.190   0.254
 1976TIP3    H2 5935   2.751   5.079   0.229
 1977TIP3   OH2 5936   3.232   3.743   0.279
 1977TIP3    H1 5937   3.193   3.677   0.220
 1977TIP3    H2 5938   3.157   3.793   0.311
 1978TIP3   OH2 5939   1.201   4.025   0.342
 1978TIP3    H1 5940   1.153   4.096   0.300
 1978TIP3    H2 5941   1.170   4.026   0.433
 1979TIP3   OH2 5942   1.622   3.878   3.387
 1979TIP3    H1 5943   1.570   3.830   3.322
 1979TIP3    H2 5944   1.604   3.833   3.470
 1980TIP3   OH2 5945   4.853   5.569   2.995
 1980TIP3    H1 5946   4.815   5.647   3.035
 1980TIP3    H2 5947   4.934   5.600   2.954
 1981TIP3   OH2 5948   5.544   0.283   3.931
 1981TIP3    H1 5949   5.636   0.256   3.933
 1981TIP3    H2 5950   5.503   0.227   3.865
 1982TIP3   OH2 5951   2.331   1.304   4.621
 1982TIP3    H1 5952   2.262   1.297   4.556
 1982TIP3    H2 5953   2.395   1.237   4.595
 1983TIP3   OH2 5954   0.733   3.993   4.530
 1983TIP3    H1 5955   0.660   4.033   4.484
 1983TIP3    H2 5956   0.733   3.902   4.499
 1984TIP3   OH2 5957   5.352   5.816   1.568
 1984TIP3    H1 5958   5.416   5.760   1.611
 1984TIP3    H2 5959   5.269   5.797   1.613
 1985TIP3   OH2 5960   2.844   2.211   1.750
 1985TIP3    H1 5961   2.818   2.249   1.666
 1985TIP3    H2 5962   2.881   2.126   1.727
 1986TIP3   OH2 5963   6.147   0.794   1.245
 1986TIP3    H1 5964   6.093   0.867   1.215
 1986TIP3    H2 5965   6.174   0.750   1.164
 1987TIP3   OH2 5966   0.257   0.625   3.843
 1987TIP3    H1 5967   0.208   0.701   3.873
 1987TIP3    H2 5968   0.235   0.556   3.905
 1988TIP3   OH2 5969   6.196   3.826   2.445
 1988TIP3    H1 5970   6.171   3.862   2.360
 1988TIP3    H2 5971   6.232   3.900   2.493
 1989TIP3   OH2 5972   2.379   3.439   4.090
 1989TIP3    H1 5973   2.404   3.443   3.998
 1989TIP3    H2 5974   2.447   3.386   4.131
 1990TIP3   OH2 5975   4.510   5.059   2.849
 1990TIP3    H1 5976   4.577   4.994   2.868
 1990TIP3    H2 5977   4.447   5.050   2.920
 1991TIP3   OH2 5978   2.949   1.093   4.953
 1991TIP3    H1 5979   2.878   1.137   4.999
 1991TIP3    H2 5980   2.909   1.060   4.873
 1992TIP3   OH2 5981   2.222   3.300   4.396
 1992TIP3    H1 5982   2.269   3.314   4.314
 1992TIP3    H2 5983   2.139   3.260   4.369
 1993TIP3   OH2 5984   5.368   0.777   0.950
 1993TIP3    H1 5985   5.322   0.831   1.014
 1993TIP3    H2 5986   5.338   0.688   0.967
 1994TIP3   OH2 5987   3.733   2.820   2.965
 1994TIP3    H1 5988   3.757   2.884   2.898
 1994TIP3    H2 5989   3.655   2.777   2.929
 1995TIP3   OH2 5990   2.974   4.992   5.081
 1995TIP3    H1 5991   3.050   4.938   5.062
 1995TIP3    H2 5992   2.906   4.930   5.107
 1996TIP3   OH2 5993   0.688   4.531   2.329
 1996TIP3    H1 5994   0.756   4.545   2.395
 1996TIP3    H2 5995   0.617   4.486   2.375
 1997TIP3   OH2 5996   1.070   5.734   4.272
 1997TIP3    H1 5997   1.166   5.731   4.267
 1997TIP3    H2 5998   1.042   5.644   4.252
 1998TIP3   OH2 5999   4.289   1.617   5.098
 1998TIP3    H1 6000   4.292   1.701   5.143
 1998TIP3    H2 6001   4.319   1.636   5.009
 1999TIP3   OH2 6002   2.460   0.778   0.263
 1999TIP3    H1 6003   2.404   0.716   0.310
 1999TIP3    H2 6004   2.547   0.766   0.302
 2000TIP3   OH2 6005   1.148   5.343   0.521
 2000TIP3    H1 6006   1.193   5.325   0.604
 2000TIP3    H2 6007   1.218   5.355   0.458
 2001TIP3   OH2 6008   4.975   5.115   3.046
 2001TIP3    H1 6009   5.017   5.067   3.118
 2001TIP3    H2 6010   4.960   5.203   3.082
 2002TIP3   OH2 6011   5.627   1.596   2.851
 2002TIP3    H1 6012   5.697   1.560   2.905
 2002TIP3    H2 6013   5.668   1.613   2.766
 2003TIP3   OH2 6014   4.156   5.536   1.923
 2003TIP3    H1 6015   4.134   5.527   1.830
 2003TIP3    H2 6016   4.111   5.462   1.965
 2004TIP3   OH2 6017   2.041   5.555   1.083
 2004TIP3    H1 6018   1.979   5.612   1.128
 2004TIP3    H2 6019   2.053   5.480   1.141
 2005TIP3   OH2 6020   2.037   3.655   1.615
 2005TIP3    H1 6021   2.127   3.687   1.617
 2005TIP3    H2 6022   1.983   3.734   1.616
 2006TIP3   OH2 6023   3.266   5.337   1.528
 2006TIP3    H1 6024   3.227   5.267   1.475
 2006TIP3    H2 6025   3.206   5.347   1.602
 2007TIP3   OH2 6026   4.047   3.209   0.148
 2007TIP3    H1 6027   3.976   3.271   0.131
 2007TIP3    H2 6028   4.018   3.127   0.108
 2008TIP3   OH2 6029   6.313   0.201   0.392
 2008TIP3    H1 6030   6.298   0.107   0.386
 2008TIP3    H2 6031   6.347   0.225   0.305
 2009TIP3   OH2 6032   2.526   0.334   2.964
 2009TIP3    H1 6033   2.588   0.378   2.906
 2009TIP3    H2 6034   2.440   0.363   2.933
 2010TIP3   OH2 6035   4.099   2.182   4.280
 2010TIP3    H1 6036   4.026   2.231   4.241
 2010TIP3    H2 6037   4.177   2.217   4.236
 2011TIP3   OH2 6038  -0.007   5.564   4.589
 2011TIP3    H1 6039  -0.103   5.561   4.598
 2011TIP3    H2 6040   0.026   5.540   4.675
 2012TIP3   OH2 6041   2.468   5.299   4.695
 2012TIP3    H1 6042   2.527   5.319   4.768
 2012TIP3    H2 6043   2.380   5.319   4.729
 2013TIP3   OH2 6044   3.894   3.756   1.991
 2013TIP3    H1 6045   3.892   3.712   1.906
 2013TIP3    H2 6046   3.807   3.740   2.029
 2014TIP3   OH2 6047   3.935   2.288   1.824
 2014TIP3    H1 6048   3.875   2.329   1.887
 2014TIP3    H2 6049   4.023   2.308   1.859
 2015TIP3   OH2 6050   3.389   4.341   1.940
 2015TIP3    H1 6051   3.428   4.377   1.860
 2015TIP3    H2 6052   3.316   4.400   1.960
 2016TIP3   OH2 6053   2.214   5.462   0.892
 2016TIP3    H1 6054   2.167   5.510   0.960
 2016TIP3    H2 6055   2.219   5.523   0.819
 2017TIP3   OH2 6056   6.306   4.841   3.029
 2017TIP3    H1 6057   6.319   4.926   2.987
 2017TIP3    H2 6058   6.344   4.852   3.116
 2018TIP3   OH2 6059   5.349   5.728   0.098
 2018TIP3    H1 6060   5.339   5.659   0.164
 2018TIP3    H2 6061   5.443   5.731   0.080
 2019TIP3   OH2 6062   0.897   1.283   0.455
 2019TIP3    H1 6063   0.810   1.323   0.450
 2019TIP3    H2 6064   0.879   1.192   0.479
 2020TIP3   OH2 6065   2.890   1.968   1.622
 2020TIP3    H1 6066   2.821   1.911   1.657
 2020TIP3    H2 6067   2.863   1.986   1.532
 2021TIP3   OH2 6068   1.275   5.437   4.872
 2021TIP3    H1 6069   1.340   5.374   4.840
 2021TIP3    H2 6070   1.316   5.477   4.949
 2022TIP3   OH2 6071   2.100   5.776   0.756
 2022TIP3    H1 6072   2.078   5.838   0.687
 2022TIP3    H2 6073   2.025   5.779   0.816
 2023TIP3   OH2 6074   2.264   3.392   4.916
 2023TIP3    H1 6075   2.173   3.364   4.922
 2023TIP3    H2 6076   2.287   3.420   5.004
 2024TIP3   OH2 6077   6.233   1.923   4.395
 2024TIP3    H1 6078   6.291   1.938   4.320
 2024TIP3    H2 6079   6.228   2.008   4.438
 2025TIP3   OH2 6080   1.988   4.785   0.290
 2025TIP3    H1 6081   1.944   4.824   0.365
 2025TIP3    H2 6082   2.028   4.858   0.244
 2026TIP3   OH2 6083   4.712   4.005   4.372
 2026TIP3    H1 6084   4.657   4.036   4.301
 2026TIP3    H2 6085   4.782   3.956   4.329
 2027TIP3   OH2 6086   1.239   5.662   0.605
 2027TIP3    H1 6087   1.190   5.640   0.684
 2027TIP3    H2 6088   1.326   5.626   0.620
 2028TIP3   OH2 6089   4.383   2.193   0.226
 2028TIP3    H1 6090   4.410   2.177   0.317
 2028TIP3    H2 6091   4.465   2.217   0.182
 2029TIP3   OH2 6092   3.187   4.216   4.963
 2029TIP3    H1 6093   3.093   4.199   4.961
 2029TIP3    H2 6094   3.202   4.259   5.048
 2030TIP3   OH2 6095   2.842   0.141   5.073
 2030TIP3    H1 6096   2.827   0.051   5.043
 2030TIP3    H2 6097   2.855   0.191   4.992
 2031TIP3   OH2 6098   0.111   4.155   4.633
 2031TIP3    H1 6099   0.122   4.096   4.558
 2031TIP3    H2 6100   0.021   4.187   4.625
 2032TIP3   OH2 6101   2.785   2.648   3.081
 2032TIP3    H1 6102   2.760   2.734   3.114
 2032TIP3    H2 6103   2.869   2.663   3.036
 2033TIP3   OH2 6104   4.737   3.872   4.641
 2033TIP3    H1 6105   4.684   3.831   4.710
 2033TIP3    H2 6106   4.676   3.881   4.567
 2034TIP3   OH2 6107   3.535   0.135   4.726
 2034TIP3    H1 6108   3.520   0.229   4.735
 2034TIP3    H2 6109   3.517   0.117   4.633
 2035TIP3   OH2 6110   4.919   0.347   1.773
 2035TIP3    H1 6111   4.953   0.418   1.828
 2035TIP3    H2 6112   4.826   0.342   1.795
 2036TIP3   OH2 6113   2.514   0.460   1.226
 2036TIP3    H1 6114   2.481   0.550   1.222
 2036TIP3    H2 6115   2.445   0.411   1.271
 2037TIP3   OH2 6116   5.742   4.123   1.969
 2037TIP3    H1 6117   5.831   4.155   1.955
 2037TIP3    H2 6118   5.706   4.179   2.037
 2038TIP3   OH2 6119   0.176   1.326   3.152
 2038TIP3    H1 6120   0.119   1.334   3.076
 2038TIP3    H2 6121   0.200   1.233   3.154
 2039TIP3   OH2 6122   0.654   0.002   2.278
 2039TIP3    H1 6123   0.660  -0.089   2.307
 2039TIP3    H2 6124   0.610   0.047   2.350
 2040TIP3   OH2 6125   6.132   1.586   3.065
 2040TIP3    H1 6126   6.065   1.624   3.122
 2040TIP3    H2 6127   6.096   1.596   2.976
 2041TIP3   OH2 6128   2.832   3.414   2.717
 2041TIP3    H1 6129   2.883   3.477   2.667
 2041TIP3    H2 6130   2.885   3.396   2.794
 2042TIP3   OH2 6131   5.683   3.865   1.572
 2042TIP3    H1 6132   5.677   3.946   1.623
 2042TIP3    H2 6133   5.767   3.871   1.527
 2043TIP3   OH2 6134   4.495   3.999   2.620
 2043TIP3    H1 6135   4.555   4.050   2.564
 2043TIP3    H2 6136   4.414   3.994   2.569
 2044TIP3   OH2 6137   4.388   1.147   2.317
 2044TIP3    H1 6138   4.353   1.197   2.390
 2044TIP3    H2 6139   4.419   1.213   2.255
 2045TIP3   OH2 6140   3.766   5.156   3.528
 2045TIP3    H1 6141   3.704   5.093   3.563
 2045TIP3    H2 6142   3.852   5.120   3.550
 2046TIP3   OH2 6143   2.022   1.927   0.050
 2046TIP3    H1 6144   1.962   1.946  -0.021
 2046TIP3    H2 6145   2.021   1.831   0.058
 2047TIP3   OH2 6146   0.417   5.720   3.391
 2047TIP3    H1 6147   0.462   5.794   3.350
 2047TIP3    H2 6148   0.369   5.678   3.320
 2048TIP3   OH2 6149   0.080   4.127   0.592
 2048TIP3    H1 6150   0.010   4.113   0.529
 2048TIP3    H2 6151   0.045   4.192   0.652
 2049TIP3   OH2 6152   0.446   5.055   2.980
 2049TIP3    H1 6153   0.447   5.049   2.885
 2049TIP3    H2 6154   0.521   5.002   3.008
 2050TIP3   OH2 6155   6.016   2.418   2.441
 2050TIP3    H1 6156   5.991   2.510   2.448
 2050TIP3    H2 6157   6.039   2.392   2.530
 2051TIP3   OH2 6158   4.326   4.801   3.029
 2051TIP3    H1 6159   4.394   4.775   3.091
 2051TIP3    H2 6160   4.321   4.896   3.036
 2052TIP3   OH2 6161   1.463   2.552   3.268
 2052TIP3    H1 6162   1.542   2.549   3.322
 2052TIP3    H2 6163   1.415   2.472   3.292
 2053TIP3   OH2 6164   1.690   4.292   2.026
 2053TIP3    H1 6165   1.725   4.378   2.048
 2053TIP3    H2 6166   1.735   4.231   2.085
 2054TIP3   OH2 6167   0.092   1.157   2.119
 2054TIP3    H1 6168   0.097   1.112   2.034
 2054TIP3    H2 6169   0.183   1.176   2.141
 2055TIP3   OH2 6170   2.310   1.358   0.792
 2055TIP3    H1 6171   2.323   1.397   0.705
 2055TIP3    H2 6172   2.316   1.264   0.778
 2056TIP3   OH2 6173   0.991   5.485   4.549
 2056TIP3    H1 6174   0.927   5.436   4.600
 2056TIP3    H2 6175   1.010   5.562   4.603
 2057TIP3   OH2 6176   3.552   0.461   5.107
 2057TIP3    H1 6177   3.521   0.541   5.150
 2057TIP3    H2 6178   3.647   0.466   5.114
 2058TIP3   OH2 6179   4.704   2.896   3.201
 2058TIP3    H1 6180   4.774   2.857   3.253
 2058TIP3    H2 6181   4.738   2.896   3.111
 2059TIP3   OH2 6182   1.604   2.019   1.693
 2059TIP3    H1 6183   1.616   1.968   1.772
 2059TIP3    H2 6184   1.520   1.989   1.657
 2060TIP3   OH2 6185   2.535   2.119   4.073
 2060TIP3    H1 6186   2.529   2.187   4.006
 2060TIP3    H2 6187   2.589   2.157   4.142
 2061TIP3   OH2 6188   1.978   2.812   4.536
 2061TIP3    H1 6189   1.925   2.732   4.534
 2061TIP3    H2 6190   2.065   2.783   4.565
 2062TIP3   OH2 6191   3.048   5.493   2.922
 2062TIP3    H1 6192   3.028   5.399   2.928
 2062TIP3    H2 6193   2.998   5.522   2.845
 2063TIP3   OH2 6194   1.946   2.078   3.543
 2063TIP3    H1 6195   1.967   2.046   3.631
 2063TIP3    H2 6196   2.030   2.107   3.508
 2064TIP3   OH2 6197   1.328   5.927   3.464
 2064TIP3    H1 6198   1.357   5.964   3.547
 2064TIP3    H2 6199   1.348   5.834   3.470
 2065TIP3   OH2 6200   1.807   1.593   0.850
 2065TIP3    H1 6201   1.798   1.598   0.946
 2065TIP3    H2 6202   1.881   1.534   0.836
 2066TIP3   OH2 6203   3.657   2.260   1.105
 2066TIP3    H1 6204   3.692   2.188   1.053
 2066TIP3    H2 6205   3.638   2.222   1.191
 2067TIP3   OH2 6206   4.506   2.047   1.984
 2067TIP3    H1 6207   4.589   2.050   2.031
 2067TIP3    H2 6208   4.477   1.956   1.994
 2068TIP3   OH2 6209   2.662   0.617   5.171
 2068TIP3    H1 6210   2.634   0.556   5.102
 2068TIP3    H2 6211   2.652   0.703   5.131
 2069TIP3   OH2 6212   4.234   0.636   3.125
 2069TIP3    H1 6213   4.175   0.635   3.050
 2069TIP3    H2 6214   4.250   0.729   3.142
 2070TIP3   OH2 6215   5.498   5.392   1.242
 2070TIP3    H1 6216   5.549   5.325   1.287
 2070TIP3    H2 6217   5.557   5.467   1.236
 2071TIP3   OH2 6218   0.092   3.792   3.730
 2071TIP3    H1 6219   0.032   3.728   3.693
 2071TIP3    H2 6220   0.047   3.826   3.807
 2072TIP3   OH2 6221   3.648   0.096   2.806
 2072TIP3    H1 6222   3.673   0.119   2.716
 2072TIP3    H2 6223   3.641   0.180   2.851
 2073TIP3   OH2 6224   3.064   3.581   0.808
 2073TIP3    H1 6225   3.102   3.494   0.808
 2073TIP3    H2 6226   3.002   3.581   0.881
 2074TIP3   OH2 6227   3.354   1.193   0.213
 2074TIP3    H1 6228   3.411   1.215   0.140
 2074TIP3    H2 6229   3.268   1.180   0.174
 2075TIP3   OH2 6230   2.919   2.234   4.504
 2075TIP3    H1 6231   3.013   2.229   4.524
 2075TIP3    H2 6232   2.881   2.277   4.581
 2076TIP3   OH2 6233   1.318   5.707   3.626
 2076TIP3    H1 6234   1.267   5.639   3.670
 2076TIP3    H2 6235   1.409   5.679   3.634
 2077TIP3   OH2 6236   1.521   2.310   1.752
 2077TIP3    H1 6237   1.512   2.215   1.753
 2077TIP3    H2 6238   1.588   2.328   1.685
 2078TIP3   OH2 6239   1.063   4.830   4.346
 2078TIP3    H1 6240   1.050   4.762   4.412
 2078TIP3    H2 6241   1.023   4.908   4.385
 2079TIP3   OH2 6242   2.988   0.266   0.688
 2079TIP3    H1 6243   2.942   0.183   0.699
 2079TIP3    H2 6244   3.074   0.252   0.726
 2080TIP3   OH2 6245   1.487   3.431   1.653
 2080TIP3    H1 6246   1.443   3.489   1.591
 2080TIP3    H2 6247   1.434   3.351   1.653
 2081TIP3   OH2 6248   2.387   2.504  -0.044
 2081TIP3    H1 6249   2.422   2.459   0.033
 2081TIP3    H2 6250   2.297   2.525  -0.022
 2082TIP3   OH2 6251   2.272   5.826   1.460
 2082TIP3    H1 6252   2.253   5.837   1.367
 2082TIP3    H2 6253   2.208   5.881   1.504
 2083TIP3   OH2 6254   1.246   5.036   3.452
 2083TIP3    H1 6255   1.289   4.952   3.472
 2083TIP3    H2 6256   1.163   5.032   3.500
 2084TIP3   OH2 6257   3.286   1.656   0.552
 2084TIP3    H1 6258   3.226   1.650   0.478
 2084TIP3    H2 6259   3.245   1.604   0.621
 2085TIP3   OH2 6260   4.915   1.641   2.578
 2085TIP3    H1 6261   4.959   1.702   2.637
 2085TIP3    H2 6262   4.922   1.556   2.622
 2086TIP3   OH2 6263   1.784   1.746   1.104
 2086TIP3    H1 6264   1.789   1.838   1.131
 2086TIP3    H2 6265   1.704   1.713   1.145
 2087TIP3   OH2 6266   2.044   4.728   2.427
 2087TIP3    H1 6267   2.013   4.797   2.368
 2087TIP3    H2 6268   1.967   4.702   2.477
 2088TIP3   OH2 6269   5.710   0.952   1.125
 2088TIP3    H1 6270   5.738   0.971   1.036
 2088TIP3    H2 6271   5.662   0.869   1.118
 2089TIP3   OH2 6272   0.631   4.983   2.277
 2089TIP3    H1 6273   0.617   4.927   2.201
 2089TIP3    H2 6274   0.686   5.054   2.246
 2090TIP3   OH2 6275   0.102   3.337   2.835
 2090TIP3    H1 6276   0.144   3.376   2.759
 2090TIP3    H2 6277   0.008   3.338   2.814
 2091TIP3   OH2 6278   2.879   3.309   3.538
 2091TIP3    H1 6279   2.822   3.368   3.489
 2091TIP3    H2 6280   2.875   3.340   3.628
 2092TIP3   OH2 6281   3.284   0.093   2.117
 2092TIP3    H1 6282   3.323   0.160   2.060
 2092TIP3    H2 6283   3.319   0.111   2.204
 2093TIP3   OH2 6284   0.837   5.286   2.950
 2093TIP3    H1 6285   0.793   5.348   3.007
 2093TIP3    H2 6286   0.797   5.298   2.864
 2094TIP3   OH2 6287   6.012   3.402   0.820
 2094TIP3    H1 6288   6.068   3.348   0.876
 2094TIP3    H2 6289   6.062   3.483   0.807
 2095TIP3   OH2 6290   0.539   3.429   0.048
 2095TIP3    H1 6291   0.562   3.344   0.012
 2095TIP3    H2 6292   0.513   3.411   0.138
 2096TIP3   OH2 6293   1.702   5.666   2.575
 2096TIP3    H1 6294   1.666   5.727   2.639
 2096TIP3    H2 6295   1.626   5.625   2.535
 2097TIP3   OH2 6296   2.473   0.339   3.377
 2097TIP3    H1 6297   2.536   0.348   3.448
 2097TIP3    H2 6298   2.442   0.428   3.361
 2098TIP3   OH2 6299   2.930   2.069   3.339
 2098TIP3    H1 6300   2.892   2.023   3.264
 2098TIP3    H2 6301   2.888   2.029   3.415
 2099TIP3   OH2 6302   5.913   0.422   0.578
 2099TIP3    H1 6303   5.974   0.490   0.603
 2099TIP3    H2 6304   5.867   0.399   0.659
 2100TIP3   OH2 6305   3.176   4.479   2.895
 2100TIP3    H1 6306   3.080   4.473   2.900
 2100TIP3    H2 6307   3.203   4.393   2.862
 2101TIP3   OH2 6308   5.580   4.810   4.769
 2101TIP3    H1 6309   5.560   4.860   4.849
 2101TIP3    H2 6310   5.578   4.719   4.797
 2102TIP3   OH2 6311   3.049   0.438   2.081
 2102TIP3    H1 6312   3.022   0.503   2.146
 2102TIP3    H2 6313   3.139   0.416   2.105
 2103TIP3   OH2 6314   4.746   4.764   4.898
 2103TIP3    H1 6315   4.701   4.679   4.901
 2103TIP3    H2 6316   4.831   4.747   4.939
 2104TIP3   OH2 6317   3.677   4.157   3.837
 2104TIP3    H1 6318   3.595   4.129   3.797
 2104TIP3    H2 6319   3.740   4.162   3.764
 2105TIP3   OH2 6320   4.075   1.888   0.788
 2105TIP3    H1 6321   4.131   1.925   0.857
 2105TIP3    H2 6322   4.106   1.929   0.708
 2106TIP3   OH2 6323   2.644   1.729   3.057
 2106TIP3    H1 6324   2.560   1.735   3.103
 2106TIP3    H2 6325   2.638   1.649   3.006
 2107TIP3   OH2 6326   3.689   3.126   1.390
 2107TIP3    H1 6327   3.597   3.115   1.414
 2107TIP3    H2 6328   3.703   3.221   1.389
 2108TIP3   OH2 6329   2.818   1.433   1.965
 2108TIP3    H1 6330   2.911   1.453   1.953
 2108TIP3    H2 6331   2.772   1.514   1.940
 2109TIP3   OH2 6332   2.579   1.489   4.626
 2109TIP3    H1 6333   2.484   1.477   4.626
 2109TIP3    H2 6334   2.612   1.412   4.674
 2110TIP3   OH2 6335   1.595   0.614   0.928
 2110TIP3    H1 6336   1.666   0.662   0.885
 2110TIP3    H2 6337   1.618   0.613   1.020
 2111TIP3   OH2 6338   3.684   3.232   4.959
 2111TIP3    H1 6339   3.698   3.326   4.960
 2111TIP3    H2 6340   3.684   3.208   4.867
 2112TIP3   OH2 6341   4.821   4.544   3.642
 2112TIP3    H1 6342   4.875   4.493   3.581
 2112TIP3    H2 6343   4.842   4.508   3.728
 2113TIP3   OH2 6344   2.387   1.920   2.410
 2113TIP3    H1 6345   2.319   1.887   2.352
 2113TIP3    H2 6346   2.409   2.006   2.375
 2114TIP3   OH2 6347   3.715   4.452   1.972
 2114TIP3    H1 6348   3.659   4.529   1.960
 2114TIP3    H2 6349   3.689   4.392   1.902
 2115TIP3   OH2 6350   1.459   4.096   0.305
 2115TIP3    H1 6351   1.541   4.049   0.288
 2115TIP3    H2 6352   1.398   4.028   0.335
 2116TIP3   OH2 6353   1.206   4.606   2.009
 2116TIP3    H1 6354   1.229   4.698   1.992
 2116TIP3    H2 6355   1.226   4.593   2.101
 2117TIP3   OH2 6356   1.639   4.233   2.480
 2117TIP3    H1 6357   1.675   4.210   2.565
 2117TIP3    H2 6358   1.715   4.259   2.428
 2118TIP3   OH2 6359   1.897   4.715   4.105
 2118TIP3    H1 6360   1.895   4.673   4.191
 2118TIP3    H2 6361   1.946   4.654   4.050
 2119TIP3   OH2 6362   5.111   0.166   2.648
 2119TIP3    H1 6363   5.072   0.199   2.730
 2119TIP3    H2 6364   5.036   0.147   2.592
 2120TIP3   OH2 6365   0.913   0.235   5.185
 2120TIP3    H1 6366   0.990   0.292   5.180
 2120TIP3    H2 6367   0.848   0.276   5.128
 2121TIP3   OH2 6368   2.333   4.841   0.556
 2121TIP3    H1 6369   2.287   4.848   0.640
 2121TIP3    H2 6370   2.426   4.838   0.579
 2122TIP3   OH2 6371   3.544   1.895   2.968
 2122TIP3    H1 6372   3.479   1.923   3.032
 2122TIP3    H2 6373   3.492   1.861   2.895
 2123TIP3   OH2 6374   5.097   4.888   2.735
 2123TIP3    H1 6375   5.012   4.928   2.752
 2123TIP3    H2 6376   5.159   4.962   2.739
 2124TIP3   OH2 6377   4.300   1.265   2.564
 2124TIP3    H1 6378   4.324   1.332   2.627
 2124TIP3    H2 6379   4.257   1.197   2.616
 2125TIP3   OH2 6380   3.024   0.364   0.435
 2125TIP3    H1 6381   2.978   0.298   0.383
 2125TIP3    H2 6382   3.036   0.322   0.521
 2126TIP3   OH2 6383   2.552   3.162   3.303
 2126TIP3    H1 6384   2.565   3.158   3.208
 2126TIP3    H2 6385   2.640   3.155   3.340
 2127TIP3   OH2 6386   2.037   1.293   1.609
 2127TIP3    H1 6387   1.984   1.272   1.686
 2127TIP3    H2 6388   2.071   1.208   1.581
 2128TIP3   OH2 6389   4.376   0.488   1.169
 2128TIP3    H1 6390   4.385   0.395   1.148
 2128TIP3    H2 6391   4.345   0.488   1.260
 2129TIP3   OH2 6392   2.739   5.558   2.678
 2129TIP3    H1 6393   2.827   5.594   2.682
 2129TIP3    H2 6394   2.692   5.599   2.751
 2130TIP3   OH2 6395   1.671   1.321   1.681
 2130TIP3    H1 6396   1.593   1.266   1.682
 2130TIP3    H2 6397   1.717   1.299   1.762
 2131TIP3   OH2 6398   2.005   4.555   0.117
 2131TIP3    H1 6399   1.937   4.601   0.167
 2131TIP3    H2 6400   2.065   4.624   0.090
 2132TIP3   OH2 6401   0.849   2.651   4.614
 2132TIP3    H1 6402   0.760   2.641   4.580
 2132TIP3    H2 6403   0.874   2.563   4.642
 2133TIP3   OH2 6404   3.645   5.881   1.475
 2133TIP3    H1 6405   3.623   5.889   1.382
 2133TIP3    H2 6406   3.595   5.806   1.505
 2134TIP3   OH2 6407   5.669   3.101   3.896
 2134TIP3    H1 6408   5.640   3.026   3.843
 2134TIP3    H2 6409   5.753   3.126   3.859
 2135TIP3   OH2 6410   2.465   0.055   3.714
 2135TIP3    H1 6411   2.465  -0.041   3.712
 2135TIP3    H2 6412   2.425   0.080   3.630
 2136TIP3   OH2 6413   3.787   5.279   1.784
 2136TIP3    H1 6414   3.870   5.234   1.768
 2136TIP3    H2 6415   3.743   5.279   1.700
 2137TIP3   OH2 6416   4.191   5.322   3.064
 2137TIP3    H1 6417   4.184   5.417   3.074
 2137TIP3    H2 6418   4.107   5.289   3.094
 2138TIP3   OH2 6419   0.263   3.017   4.912
 2138TIP3    H1 6420   0.322   3.051   4.845
 2138TIP3    H2 6421   0.281   2.923   4.915
 2139TIP3   OH2 6422   1.784   4.208   4.955
 2139TIP3    H1 6423   1.716   4.185   4.892
 2139TIP3    H2 6424   1.795   4.303   4.943
 2140TIP3   OH2 6425   4.841   3.026   2.654
 2140TIP3    H1 6426   4.887   2.966   2.594
 2140TIP3    H2 6427   4.905   3.095   2.672
 2141TIP3   OH2 6428   1.636   3.843   4.093
 2141TIP3    H1 6429   1.667   3.850   4.183
 2141TIP3    H2 6430   1.542   3.829   4.100
 2142TIP3   OH2 6431   4.026   5.000   5.013
 2142TIP3    H1 6432   4.009   4.958   4.929
 2142TIP3    H2 6433   4.120   5.022   5.010
 2143TIP3   OH2 6434   1.667   1.828   2.281
 2143TIP3    H1 6435   1.612   1.750   2.276
 2143TIP3    H2 6436   1.750   1.802   2.242
 2144TIP3   OH2 6437   3.389   4.078   3.350
 2144TIP3    H1 6438   3.314   4.042   3.396
 2144TIP3    H2 6439   3.442   4.002   3.325
 2145TIP3   OH2 6440   4.738   0.749   1.179
 2145TIP3    H1 6441   4.679   0.692   1.130
 2145TIP3    H2 6442   4.754   0.823   1.120
 2146TIP3   OH2 6443   0.415   5.765   3.676
 2146TIP3    H1 6444   0.480   5.702   3.709
 2146TIP3    H2 6445   0.389   5.730   3.591
 2147TIP3   OH2 6446   4.277   3.961   0.863
 2147TIP3    H1 6447   4.192   3.932   0.898
 2147TIP3    H2 6448   4.277   4.056   0.877
 2148TIP3   OH2 6449   6.044   4.015   4.325
 2148TIP3    H1 6450   5.965   3.991   4.374
 2148TIP3    H2 6451   6.016   4.020   4.234
 2149TIP3   OH2 6452   4.430   0.777   4.607
 2149TIP3    H1 6453   4.447   0.862   4.565
 2149TIP3    H2 6454   4.512   0.756   4.651
 2150TIP3   OH2 6455   1.329   0.731   3.995
 2150TIP3    H1 6456   1.243   0.759   4.025
 2150TIP3    H2 6457   1.365   0.679   4.067
 2151TIP3   OH2 6458   2.717   3.001   4.405
 2151TIP3    H1 6459   2.777   3.059   4.358
 2151TIP3    H2 6460   2.631   3.040   4.391
 2152TIP3   OH2 6461   1.818   5.698   2.887
 2152TIP3    H1 6462   1.750   5.730   2.829
 2152TIP3    H2 6463   1.854   5.621   2.843
 2153TIP3   OH2 6464   4.578   3.523   1.173
 2153TIP3    H1 6465   4.564   3.614   1.199
 2153TIP3    H2 6466   4.574   3.523   1.078
 2154TIP3   OH2 6467   3.421   4.529   3.147
 2154TIP3    H1 6468   3.485   4.544   3.216
 2154TIP3    H2 6469   3.433   4.438   3.122
 2155TIP3   OH2 6470   6.288   0.292   0.674
 2155TIP3    H1 6471   6.350   0.360   0.647
 2155TIP3    H2 6472   6.253   0.258   0.592
 2156TIP3   OH2 6473   3.767   3.090   1.876
 2156TIP3    H1 6474   3.701   3.126   1.817
 2156TIP3    H2 6475   3.818   3.030   1.822
 2157TIP3   OH2 6476   1.303   5.838   3.852
 2157TIP3    H1 6477   1.298   5.817   3.758
 2157TIP3    H2 6478   1.391   5.809   3.878
 2158TIP3   OH2 6479   4.783   3.436   0.183
 2158TIP3    H1 6480   4.789   3.512   0.126
 2158TIP3    H2 6481   4.700   3.394   0.161
 2159TIP3   OH2 6482   3.828   5.919   0.421
 2159TIP3    H1 6483   3.885   5.987   0.457
 2159TIP3    H2 6484   3.814   5.946   0.330
 2160TIP3   OH2 6485   1.377   3.686   0.297
 2160TIP3    H1 6486   1.399   3.606   0.346
 2160TIP3    H2 6487   1.461   3.724   0.274
 2161TIP3   OH2 6488   1.709   3.301   4.548
 2161TIP3    H1 6489   1.708   3.205   4.556
 2161TIP3    H2 6490   1.775   3.330   4.610
 2162TIP3   OH2 6491   4.571   1.122   1.281
 2162TIP3    H1 6492   4.568   1.182   1.206
 2162TIP3    H2 6493   4.484   1.129   1.320
 2163TIP3   OH2 6494   4.979   4.814   3.768
 2163TIP3    H1 6495   5.041   4.743   3.751
 2163TIP3    H2 6496   4.931   4.786   3.846
 2164TIP3   OH2 6497   0.164   3.059   2.942
 2164TIP3    H1 6498   0.216   3.132   2.974
 2164TIP3    H2 6499   0.073   3.086   2.954
 2165TIP3   OH2 6500   4.295   3.147   0.972
 2165TIP3    H1 6501   4.270   3.210   1.040
 2165TIP3    H2 6502   4.363   3.192   0.921
 2166TIP3   OH2 6503   3.678   5.064   1.927
 2166TIP3    H1 6504   3.735   5.131   1.889
 2166TIP3    H2 6505   3.606   5.113   1.965
 2167TIP3   OH2 6506   5.557   5.377   0.095
 2167TIP3    H1 6507   5.576   5.335   0.012
 2167TIP3    H2 6508   5.621   5.341   0.156
 2168TIP3   OH2 6509   0.228   4.732   0.177
 2168TIP3    H1 6510   0.227   4.697   0.266
 2168TIP3    H2 6511   0.192   4.662   0.124
 2169TIP3   OH2 6512   2.677   2.128   4.442
 2169TIP3    H1 6513   2.755   2.156   4.491
 2169TIP3    H2 6514   2.615   2.200   4.453
 2170TIP3   OH2 6515   1.024   3.245   2.412
 2170TIP3    H1 6516   0.985   3.332   2.415
 2170TIP3    H2 6517   0.953   3.185   2.435
 2171TIP3   OH2 6518   3.049   0.719   4.673
 2171TIP3    H1 6519   2.989   0.789   4.648
 2171TIP3    H2 6520   3.136   0.757   4.664
 2172TIP3   OH2 6521   4.472   5.638   0.068
 2172TIP3    H1 6522   4.531   5.575   0.027
 2172TIP3    H2 6523   4.487   5.720   0.021
 2173TIP3   OH2 6524   5.622   3.430   2.867
 2173TIP3    H1 6525   5.625   3.387   2.953
 2173TIP3    H2 6526   5.530   3.428   2.842
 2174TIP3   OH2 6527   2.528   1.108   4.580
 2174TIP3    H1 6528   2.557   1.037   4.523
 2174TIP3    H2 6529   2.608   1.142   4.618
 2175TIP3   OH2 6530   0.405   5.516   0.144
 2175TIP3    H1 6531   0.376   5.576   0.075
 2175TIP3    H2 6532   0.495   5.495   0.121
 2176TIP3   OH2 6533   2.028   4.766   1.843
 2176TIP3    H1 6534   2.088   4.734   1.776
 2176TIP3    H2 6535   2.000   4.853   1.812
 2177TIP3   OH2 6536   5.224   1.383   3.410
 2177TIP3    H1 6537   5.166   1.337   3.472
 2177TIP3    H2 6538   5.202   1.475   3.420
 2178TIP3   OH2 6539   1.677   0.645   3.129
 2178TIP3    H1 6540   1.603   0.596   3.164
 2178TIP3    H2 6541   1.654   0.662   3.037
 2179TIP3   OH2 6542   5.858   0.688   3.211
 2179TIP3    H1 6543   5.822   0.732   3.289
 2179TIP3    H2 6544   5.867   0.596   3.238
 2180TIP3   OH2 6545   2.539   3.618   5.080
 2180TIP3    H1 6546   2.573   3.708   5.077
 2180TIP3    H2 6547   2.446   3.628   5.061
 2181TIP3   OH2 6548   4.568   4.254   3.872
 2181TIP3    H1 6549   4.631   4.324   3.893
 2181TIP3    H2 6550   4.535   4.277   3.785
 2182TIP3   OH2 6551   4.674   1.494   4.462
 2182TIP3    H1 6552   4.748   1.474   4.520
 2182TIP3    H2 6553   4.698   1.576   4.420
 2183TIP3   OH2 6554   5.656   2.974   5.071
 2183TIP3    H1 6555   5.627   2.972   5.162
 2183TIP3    H2 6556   5.622   2.893   5.033
 2184TIP3   OH2 6557   3.600   4.966   2.177
 2184TIP3    H1 6558   3.584   5.060   2.173
 2184TIP3    H2 6559   3.671   4.956   2.240
 2185TIP3   OH2 6560   4.573   5.438   1.560
 2185TIP3    H1 6561   4.558   5.468   1.649
 2185TIP3    H2 6562   4.665   5.459   1.542
 2186TIP3   OH2 6563   0.230   0.834   2.645
 2186TIP3    H1 6564   0.306   0.776   2.639
 2186TIP3    H2 6565   0.156   0.775   2.654
 2187TIP3   OH2 6566   2.900   4.406   4.651
 2187TIP3    H1 6567   2.846   4.416   4.730
 2187TIP3    H2 6568   2.935   4.317   4.657
 2188TIP3   OH2 6569   5.676   3.302   4.405
 2188TIP3    H1 6570   5.759   3.302   4.453
 2188TIP3    H2 6571   5.610   3.286   4.473
 2189TIP3   OH2 6572   1.420   0.397   1.033
 2189TIP3    H1 6573   1.429   0.390   1.128
 2189TIP3    H2 6574   1.485   0.463   1.008
 2190TIP3   OH2 6575   4.849   3.386   3.693
 2190TIP3    H1 6576   4.868   3.332   3.616
 2190TIP3    H2 6577   4.787   3.334   3.743
 2191TIP3   OH2 6578   3.173   2.182   3.985
 2191TIP3    H1 6579   3.195   2.171   4.077
 2191TIP3    H2 6580   3.146   2.095   3.956
 2192TIP3   OH2 6581   3.205   1.274   2.358
 2192TIP3    H1 6582   3.232   1.294   2.448
 2192TIP3    H2 6583   3.123   1.322   2.346
 2193TIP3   OH2 6584   4.419   5.722   0.317
 2193TIP3    H1 6585   4.409   5.817   0.308
 2193TIP3    H2 6586   4.444   5.693   0.229
 2194TIP3   OH2 6587   0.106   4.541   4.022
 2194TIP3    H1 6588   0.183   4.485   4.007
 2194TIP3    H2 6589   0.082   4.523   4.113
 2195TIP3   OH2 6590   0.766   1.257   0.152
 2195TIP3    H1 6591   0.720   1.275   0.234
 2195TIP3    H2 6592   0.847   1.213   0.180
 2196TIP3   OH2 6593   4.878   0.649   1.384
 2196TIP3    H1 6594   4.801   0.681   1.336
 2196TIP3    H2 6595   4.908   0.726   1.433
 2197TIP3   OH2 6596   4.337   3.584   4.400
 2197TIP3    H1 6597   4.318   3.646   4.470
 2197TIP3    H2 6598   4.431   3.570   4.404
 2198TIP3   OH2 6599   0.317   0.874   1.237
 2198TIP3    H1 6600   0.225   0.847   1.231
 2198TIP3    H2 6601   0.356   0.811   1.298
 2199TIP3   OH2 6602   5.380   1.629   3.692
 2199TIP3    H1 6603   5.437   1.646   3.617
 2199TIP3    H2 6604   5.293   1.655   3.661
 2200TIP3   OH2 6605   4.848   4.207   3.785
 2200TIP3    H1 6606   4.929   4.163   3.758
 2200TIP3    H2 6607   4.791   4.201   3.709
 2201TIP3   OH2 6608   2.519   2.966   2.899
 2201TIP3    H1 6609   2.425   2.959   2.919
 2201TIP3    H2 6610   2.550   3.035   2.958
 2202TIP3   OH2 6611   4.832   2.687   5.006
 2202TIP3    H1 6612   4.906   2.736   5.042
 2202TIP3    H2 6613   4.856   2.595   5.020
 2203TIP3   OH2 6614   1.549   3.716   2.628
 2203TIP3    H1 6615   1.600   3.661   2.569
 2203TIP3    H2 6616   1.461   3.718   2.590
 2204TIP3   OH2 6617   4.631   1.318   0.344
 2204TIP3    H1 6618   4.634   1.315   0.440
 2204TIP3    H2 6619   4.558   1.260   0.321
 2205TIP3   OH2 6620   1.853   4.724   2.830
 2205TIP3    H1 6621   1.841   4.642   2.782
 2205TIP3    H2 6622   1.799   4.787   2.782
 2206TIP3   OH2 6623   5.742   0.951   0.126
 2206TIP3    H1 6624   5.745   1.009   0.050
 2206TIP3    H2 6625   5.797   0.995   0.191
 2207TIP3   OH2 6626   2.981   5.854   1.503
 2207TIP3    H1 6627   2.974   5.899   1.419
 2207TIP3    H2 6628   2.950   5.918   1.567
 2208TIP3   OH2 6629   5.883   4.815   4.546
 2208TIP3    H1 6630   5.918   4.879   4.608
 2208TIP3    H2 6631   5.946   4.743   4.547
 2209TIP3   OH2 6632   4.088   0.248   2.065
 2209TIP3    H1 6633   4.182   0.241   2.078
 2209TIP3    H2 6634   4.073   0.342   2.052
 2210TIP3   OH2 6635   2.152   3.621   1.241
 2210TIP3    H1 6636   2.096   3.658   1.310
 2210TIP3    H2 6637   2.129   3.528   1.239
 2211TIP3   OH2 6638   3.044   2.553   0.648
 2211TIP3    H1 6639   3.135   2.560   0.675
 2211TIP3    H2 6640   3.020   2.642   0.622
 2212TIP3   OH2 6641   2.753   5.762   4.060
 2212TIP3    H1 6642   2.791   5.678   4.084
 2212TIP3    H2 6643   2.664   5.759   4.094
 2213TIP3   OH2 6644   0.345   4.272   0.668
 2213TIP3    H1 6645   0.366   4.312   0.584
 2213TIP3    H2 6646   0.254   4.244   0.659
 2214TIP3   OH2 6647   2.360   1.961   3.047
 2214TIP3    H1 6648   2.369   1.879   3.097
 2214TIP3    H2 6649   2.267   1.966   3.027
 2215TIP3   OH2 6650   6.210   1.487   1.605
 2215TIP3    H1 6651   6.132   1.532   1.636
 2215TIP3    H2 6652   6.205   1.494   1.509
 2216TIP3   OH2 6653   3.671   4.050   1.665
 2216TIP3    H1 6654   3.583   4.044   1.702
 2216TIP3    H2 6655   3.719   3.978   1.705
 2217TIP3   OH2 6656   3.455   3.891   2.368
 2217TIP3    H1 6657   3.376   3.927   2.408
 2217TIP3    H2 6658   3.432   3.801   2.346
 2218TIP3   OH2 6659   6.283   5.670   3.734
 2218TIP3    H1 6660   6.309   5.647   3.645
 2218TIP3    H2 6661   6.360   5.649   3.788
 2219TIP3   OH2 6662   2.744   2.629   0.690
 2219TIP3    H1 6663   2.823   2.667   0.652
 2219TIP3    H2 6664   2.704   2.701   0.740
 2220TIP3   OH2 6665   5.943   5.438   0.863
 2220TIP3    H1 6666   5.899   5.523   0.874
 2220TIP3    H2 6667   5.985   5.444   0.778
 2221TIP3   OH2 6668   2.236   3.415   2.544
 2221TIP3    H1 6669   2.244   3.340   2.484
 2221TIP3    H2 6670   2.279   3.385   2.624
 2222TIP3   OH2 6671   1.975   2.276   1.909
 2222TIP3    H1 6672   2.025   2.258   1.988
 2222TIP3    H2 6673   1.904   2.211   1.910
 2223TIP3   OH2 6674   2.221   4.174   0.519
 2223TIP3    H1 6675   2.160   4.233   0.564
 2223TIP3    H2 6676   2.256   4.227   0.447
 2224TIP3   OH2 6677   4.480   4.406   3.271
 2224TIP3    H1 6678   4.417   4.465   3.312
 2224TIP3    H2 6679   4.426   4.339   3.229
 2225TIP3   OH2 6680   2.679   0.826   4.104
 2225TIP3    H1 6681   2.614   0.876   4.153
 2225TIP3    H2 6682   2.651   0.735   4.113
 2226TIP3   OH2 6683   3.265   1.412   2.593
 2226TIP3    H1 6684   3.295   1.500   2.612
 2226TIP3    H2 6685   3.317   1.356   2.650
 2227TIP3   OH2 6686   3.875   5.627   0.454
 2227TIP3    H1 6687   3.826   5.707   0.473
 2227TIP3    H2 6688   3.910   5.640   0.366
 2228TIP3   OH2 6689   1.198   3.540   0.856
 2228TIP3    H1 6690   1.200   3.533   0.761
 2228TIP3    H2 6691   1.290   3.548   0.881
 2229TIP3   OH2 6692   0.198   5.609   3.818
 2229TIP3    H1 6693   0.239   5.537   3.771
 2229TIP3    H2 6694   0.138   5.566   3.880
 2230TIP3   OH2 6695   3.082   3.300   4.023
 2230TIP3    H1 6696   3.130   3.383   4.022
 2230TIP3    H2 6697   3.012   3.312   3.960
 2231TIP3   OH2 6698   1.447   2.810   0.617
 2231TIP3    H1 6699   1.386   2.831   0.688
 2231TIP3    H2 6700   1.428   2.718   0.597
 2232TIP3   OH2 6701   2.870   3.528   0.320
 2232TIP3    H1 6702   2.819   3.495   0.394
 2232TIP3    H2 6703   2.842   3.619   0.311
 2233TIP3   OH2 6704   0.118   4.337   3.351
 2233TIP3    H1 6705   0.030   4.375   3.346
 2233TIP3    H2 6706   0.130   4.293   3.267
 2234TIP3   OH2 6707   0.592   3.531   3.123
 2234TIP3    H1 6708   0.647   3.496   3.192
 2234TIP3    H2 6709   0.569   3.456   3.069
 2235TIP3   OH2 6710   0.501   1.859   2.531
 2235TIP3    H1 6711   0.435   1.916   2.571
 2235TIP3    H2 6712   0.579   1.872   2.584
 2236TIP3   OH2 6713   6.230   0.852   3.782
 2236TIP3    H1 6714   6.147   0.808   3.801
 2236TIP3    H2 6715   6.219   0.940   3.818
 2237TIP3   OH2 6716   4.644   4.679   3.494
 2237TIP3    H1 6717   4.683   4.615   3.554
 2237TIP3    H2 6718   4.626   4.755   3.549
 2238TIP3   OH2 6719   0.223   3.227   0.735
 2238TIP3    H1 6720   0.300   3.262   0.782
 2238TIP3    H2 6721   0.250   3.140   0.707
 2239TIP3   OH2 6722   3.818   1.616   1.667
 2239TIP3    H1 6723   3.897   1.562   1.675
 2239TIP3    H2 6724   3.791   1.633   1.757
 2240TIP3   OH2 6725   3.510   1.296   0.757
 2240TIP3    H1 6726   3.520   1.259   0.845
 2240TIP3    H2 6727   3.505   1.391   0.772
 2241TIP3   OH2 6728   0.751   3.423   4.729
 2241TIP3    H1 6729   0.763   3.328   4.725
 2241TIP3    H2 6730   0.836   3.459   4.705
 2242TIP3   OH2 6731   5.236   3.873   1.187
 2242TIP3    H1 6732   5.258   3.843   1.099
 2242TIP3    H2 6733   5.140   3.869   1.190
 2243TIP3   OH2 6734   2.174   4.249   4.193
 2243TIP3    H1 6735   2.136   4.337   4.197
 2243TIP3    H2 6736   2.256   4.261   4.146
 2244TIP3   OH2 6737   0.247   3.526   3.392
 2244TIP3    H1 6738   0.220   3.451   3.338
 2244TIP3    H2 6739   0.321   3.565   3.344
 2245TIP3   OH2 6740   4.883   0.358   0.795
 2245TIP3    H1 6741   4.964   0.307   0.790
 2245TIP3    H2 6742   4.879   0.405   0.711
 2246TIP3   OH2 6743   4.353   5.210   3.310
 2246TIP3    H1 6744   4.382   5.267   3.239
 2246TIP3    H2 6745   4.400   5.128   3.297
 2247TIP3   OH2 6746   3.167   3.114   4.603
 2247TIP3    H1 6747   3.177   3.206   4.582
 2247TIP3    H2 6748   3.107   3.112   4.678
 2248TIP3   OH2 6749   4.245   4.013   2.433
 2248TIP3    H1 6750   4.189   3.956   2.380
 2248TIP3    H2 6751   4.223   3.990   2.523
 2249TIP3   OH2 6752   1.427   5.222   2.064
 2249TIP3    H1 6753   1.346   5.218   2.115
 2249TIP3    H2 6754   1.484   5.155   2.103
 2250TIP3   OH2 6755   0.309   3.105   0.212
 2250TIP3    H1 6756   0.315   3.191   0.252
 2250TIP3    H2 6757   0.399   3.079   0.195
 2251TIP3   OH2 6758   4.365   0.256   2.046
 2251TIP3    H1 6759   4.439   0.256   2.107
 2251TIP3    H2 6760   4.373   0.338   1.999
 2252TIP3   OH2 6761   4.610   3.701   0.373
 2252TIP3    H1 6762   4.566   3.775   0.416
 2252TIP3    H2 6763   4.548   3.671   0.307
 2253TIP3   OH2 6764   5.491   4.212   3.083
 2253TIP3    H1 6765   5.474   4.280   3.148
 2253TIP3    H2 6766   5.444   4.241   3.004
 2254TIP3   OH2 6767   3.806   0.100   0.828
 2254TIP3    H1 6768   3.794   0.023   0.772
 2254TIP3    H2 6769   3.807   0.065   0.917
 2255TIP3   OH2 6770   5.840   0.533   1.025
 2255TIP3    H1 6771   5.792   0.599   0.975
 2255TIP3    H2 6772   5.852   0.461   0.963
 2256TIP3   OH2 6773   4.412   3.858   2.149
 2256TIP3    H1 6774   4.491   3.897   2.185
 2256TIP3    H2 6775   4.415   3.881   2.056
 2257TIP3   OH2 6776   1.958   0.754   3.022
 2257TIP3    H1 6777   1.972   0.814   3.095
 2257TIP3    H2 6778   1.904   0.803   2.961
 2258TIP3   OH2 6779   4.700   4.710   1.389
 2258TIP3    H1 6780   4.606   4.728   1.391
 2258TIP3    H2 6781   4.735   4.773   1.326
 2259TIP3   OH2 6782   3.019   1.464   4.151
 2259TIP3    H1 6783   3.111   1.486   4.132
 2259TIP3    H2 6784   2.995   1.523   4.222
 2260TIP3   OH2 6785   6.040   1.976   1.955
 2260TIP3    H1 6786   6.044   1.887   1.991
 2260TIP3    H2 6787   6.110   1.978   1.889
 2261TIP3   OH2 6788   4.489   3.362   4.283
 2261TIP3    H1 6789   4.407   3.368   4.234
 2261TIP3    H2 6790   4.462   3.357   4.375
 2262TIP3   OH2 6791   0.301   1.400   4.899
 2262TIP3    H1 6792   0.330   1.312   4.876
 2262TIP3    H2 6793   0.250   1.429   4.822
 2263TIP3   OH2 6794   3.676   0.480   2.577
 2263TIP3    H1 6795   3.584   0.455   2.583
 2263TIP3    H2 6796   3.689   0.504   2.485
 2264TIP3   OH2 6797   0.313   1.266   4.501
 2264TIP3    H1 6798   0.230   1.255   4.454
 2264TIP3    H2 6799   0.366   1.322   4.444
 2265TIP3   OH2 6800   4.622   3.119   5.159
 2265TIP3    H1 6801   4.687   3.049   5.149
 2265TIP3    H2 6802   4.540   3.072   5.179
 2266TIP3   OH2 6803   2.976   1.845   0.560
 2266TIP3    H1 6804   3.007   1.836   0.650
 2266TIP3    H2 6805   2.993   1.937   0.539
 2267TIP3   OH2 6806   1.097   2.503   2.466
 2267TIP3    H1 6807   1.175   2.533   2.420
 2267TIP3    H2 6808   1.028   2.563   2.438
 2268TIP3   OH2 6809   2.229   5.368   4.905
 2268TIP3    H1 6810   2.149   5.343   4.858
 2268TIP3    H2 6811   2.205   5.360   4.998
 2269TIP3   OH2 6812   0.415   2.134   0.901
 2269TIP3    H1 6813   0.504   2.139   0.937
 2269TIP3    H2 6814   0.360   2.119   0.978
 2270TIP3   OH2 6815   3.563   1.212   2.134
 2270TIP3    H1 6816   3.631   1.267   2.096
 2270TIP3    H2 6817   3.482   1.262   2.121
 2271TIP3   OH2 6818   0.514   5.918   4.123
 2271TIP3    H1 6819   0.519   6.004   4.081
 2271TIP3    H2 6820   0.450   5.870   4.069
 2272TIP3   OH2 6821   1.480   4.732   0.932
 2272TIP3    H1 6822   1.568   4.695   0.944
 2272TIP3    H2 6823   1.456   4.706   0.843
 2273TIP3   OH2 6824   1.619   3.751   0.201
 2273TIP3    H1 6825   1.677   3.674   0.196
 2273TIP3    H2 6826   1.632   3.795   0.118
 2274TIP3   OH2 6827   5.688   0.132   4.513
 2274TIP3    H1 6828   5.668   0.040   4.531
 2274TIP3    H2 6829   5.693   0.137   4.417
 2275TIP3   OH2 6830   1.503   0.024   4.908
 2275TIP3    H1 6831   1.492   0.070   4.825
 2275TIP3    H2 6832   1.418   0.030   4.951
 2276TIP3   OH2 6833   2.704   4.929   2.779
 2276TIP3    H1 6834   2.674   4.993   2.715
 2276TIP3    H2 6835   2.641   4.857   2.773
 2277TIP3   OH2 6836   6.053   4.627   1.959
 2277TIP3    H1 6837   6.029   4.578   1.880
 2277TIP3    H2 6838   6.123   4.685   1.931
 2278TIP3   OH2 6839   5.146   4.213   3.391
 2278TIP3    H1 6840   5.144   4.217   3.296
 2278TIP3    H2 6841   5.194   4.133   3.411
 2279TIP3   OH2 6842   5.984   1.188   4.798
 2279TIP3    H1 6843   6.026   1.149   4.874
 2279TIP3    H2 6844   6.014   1.279   4.798
 2280TIP3   OH2 6845   1.049   2.258   5.128
 2280TIP3    H1 6846   1.018   2.169   5.110
 2280TIP3    H2 6847   1.098   2.250   5.210
 2281TIP3   OH2 6848   1.594   4.402   1.312
 2281TIP3    H1 6849   1.687   4.399   1.288
 2281TIP3    H2 6850   1.584   4.482   1.363
 2282TIP3   OH2 6851   1.942   4.028   2.426
 2282TIP3    H1 6852   2.029   4.021   2.386
 2282TIP3    H2 6853   1.934   3.949   2.480
 2283TIP3   OH2 6854   5.538   4.555   2.913
 2283TIP3    H1 6855   5.522   4.506   2.833
 2283TIP3    H2 6856   5.629   4.583   2.907
 2284TIP3   OH2 6857   0.270   1.631   3.948
 2284TIP3    H1 6858   0.360   1.599   3.954
 2284TIP3    H2 6859   0.274   1.706   3.889
 2285TIP3   OH2 6860   2.234   4.592   2.121
 2285TIP3    H1 6861   2.161   4.557   2.070
 2285TIP3    H2 6862   2.280   4.514   2.154
 2286TIP3   OH2 6863   5.756   5.086   0.876
 2286TIP3    H1 6864   5.744   5.118   0.787
 2286TIP3    H2 6865   5.755   5.165   0.930
 2287TIP3   OH2 6866   1.810   3.289   1.158
 2287TIP3    H1 6867   1.806   3.194   1.153
 2287TIP3    H2 6868   1.726   3.314   1.197
 2288TIP3   OH2 6869   2.238   1.767   2.165
 2288TIP3    H1 6870   2.188   1.798   2.089
 2288TIP3    H2 6871   2.178   1.708   2.211
 2289TIP3   OH2 6872   2.273   4.217   3.201
 2289TIP3    H1 6873   2.310   4.272   3.271
 2289TIP3    H2 6874   2.239   4.279   3.137
 2290TIP3   OH2 6875   5.444   0.298   4.929
 2290TIP3    H1 6876   5.399   0.262   5.005
 2290TIP3    H2 6877   5.511   0.232   4.907
 2291TIP3   OH2 6878   4.015   1.712   2.050
 2291TIP3    H1 6879   4.047   1.624   2.071
 2291TIP3    H2 6880   4.065   1.770   2.107
 2292TIP3   OH2 6881   6.218   1.494   1.328
 2292TIP3    H1 6882   6.222   1.419   1.269
 2292TIP3    H2 6883   6.300   1.541   1.312
 2293TIP3   OH2 6884   4.173   0.801   3.407
 2293TIP3    H1 6885   4.212   0.862   3.346
 2293TIP3    H2 6886   4.092   0.773   3.364
 2294TIP3   OH2 6887   2.202   3.686   4.531
 2294TIP3    H1 6888   2.222   3.687   4.437
 2294TIP3    H2 6889   2.172   3.774   4.550
 2295TIP3   OH2 6890   0.824   0.254   3.631
 2295TIP3    H1 6891   0.887   0.183   3.614
 2295TIP3    H2 6892   0.853   0.326   3.575
 2296TIP3   OH2 6893   2.687   4.871   0.632
 2296TIP3    H1 6894   2.686   4.782   0.595
 2296TIP3    H2 6895   2.777   4.883   0.662
 2297TIP3   OH2 6896   5.719   3.322   4.704
 2297TIP3    H1 6897   5.634   3.278   4.700
 2297TIP3    H2 6898   5.778   3.256   4.742
 2298TIP3   OH2 6899   3.191   3.387   4.567
 2298TIP3    H1 6900   3.128   3.408   4.498
 2298TIP3    H2 6901   3.272   3.431   4.540
 2299TIP3   OH2 6902   1.666   5.993   4.873
 2299TIP3    H1 6903   1.727   6.065   4.859
 2299TIP3    H2 6904   1.717   5.927   4.921
 2300TIP3   OH2 6905   5.204   2.391   1.910
 2300TIP3    H1 6906   5.159   2.307   1.923
 2300TIP3    H2 6907   5.150   2.454   1.958
 2301TIP3   OH2 6908   1.883   5.566   5.083
 2301TIP3    H1 6909   1.798   5.526   5.098
 2301TIP3    H2 6910   1.939   5.530   5.152
 2302TIP3   OH2 6911   5.674   2.676   0.592
 2302TIP3    H1 6912   5.620   2.597   0.599
 2302TIP3    H2 6913   5.757   2.652   0.633
 2303TIP3   OH2 6914   6.223   4.449   2.254
 2303TIP3    H1 6915   6.212   4.544   2.249
 2303TIP3    H2 6916   6.305   4.432   2.208
 2304TIP3   OH2 6917   2.298   2.183   4.428
 2304TIP3    H1 6918   2.326   2.230   4.507
 2304TIP3    H2 6919   2.288   2.092   4.456
 2305TIP3   OH2 6920   0.147   4.538   2.448
 2305TIP3    H1 6921   0.181   4.496   2.369
 2305TIP3    H2 6922   0.182   4.485   2.520
 2306TIP3   OH2 6923   5.066   2.852   4.866
 2306TIP3    H1 6924   5.071   2.859   4.961
 2306TIP3    H2 6925   5.031   2.765   4.849
 2307TIP3   OH2 6926   1.747   3.627   2.207
 2307TIP3    H1 6927   1.829   3.578   2.198
 2307TIP3    H2 6928   1.704   3.619   2.122
 2308TIP3   OH2 6929   2.444   5.302   0.823
 2308TIP3    H1 6930   2.505   5.368   0.791
 2308TIP3    H2 6931   2.373   5.353   0.862
 2309TIP3   OH2 6932   4.820  -0.031   0.469
 2309TIP3    H1 6933   4.798   0.015   0.388
 2309TIP3    H2 6934   4.750  -0.009   0.530
 2310TIP3   OH2 6935   1.408   1.926   2.015
 2310TIP3    H1 6936   1.388   1.895   2.104
 2310TIP3    H2 6937   1.322   1.936   1.974
 2311TIP3   OH2 6938   1.457   2.538   3.893
 2311TIP3    H1 6939   1.480   2.554   3.802
 2311TIP3    H2 6940   1.391   2.605   3.913
 2312TIP3   OH2 6941   3.413   5.195   3.133
 2312TIP3    H1 6942   3.462   5.249   3.195
 2312TIP3    H2 6943   3.333   5.172   3.180
 2313TIP3   OH2 6944   0.940   4.543   0.524
 2313TIP3    H1 6945   0.845   4.553   0.521
 2313TIP3    H2 6946   0.957   4.463   0.475
 2314TIP3   OH2 6947   1.859   2.002   1.591
 2314TIP3    H1 6948   1.769   1.996   1.625
 2314TIP3    H2 6949   1.863   1.935   1.522
 2315TIP3   OH2 6950   2.346   2.878   3.655
 2315TIP3    H1 6951   2.328   2.963   3.694
 2315TIP3    H2 6952   2.395   2.897   3.575
 2316TIP3   OH2 6953   5.370   3.565   2.810
 2316TIP3    H1 6954   5.327   3.605   2.735
 2316TIP3    H2 6955   5.406   3.639   2.859
 2317TIP3   OH2 6956   3.090   1.226   0.096
 2317TIP3    H1 6957   3.021   1.233   0.162
 2317TIP3    H2 6958   3.043   1.218   0.013
 2318TIP3   OH2 6959   2.166   3.164   1.119
 2318TIP3    H1 6960   2.247   3.154   1.069
 2318TIP3    H2 6961   2.105   3.102   1.079
 2319TIP3   OH2 6962   5.107   4.409   2.792
 2319TIP3    H1 6963   5.042   4.462   2.746
 2319TIP3    H2 6964   5.163   4.472   2.837
 2320TIP3   OH2 6965   0.405   1.177   4.799
 2320TIP3    H1 6966   0.471   1.218   4.743
 2320TIP3    H2 6967   0.335   1.152   4.740
 2321TIP3   OH2 6968   4.713   0.592   4.954
 2321TIP3    H1 6969   4.696   0.603   5.047
 2321TIP3    H2 6970   4.809   0.594   4.947
 2322TIP3   OH2 6971   6.006   2.040   4.737
 2322TIP3    H1 6972   5.943   2.106   4.764
 2322TIP3    H2 6973   6.077   2.089   4.695
 2323TIP3   OH2 6974   3.960   4.088   2.246
 2323TIP3    H1 6975   4.010   4.022   2.197
 2323TIP3    H2 6976   3.953   4.162   2.186
 2324TIP3   OH2 6977   0.061   2.638   1.192
 2324TIP3    H1 6978  -0.001   2.634   1.119
 2324TIP3    H2 6979   0.010   2.671   1.266
 2325TIP3   OH2 6980   3.382   1.652   2.347
 2325TIP3    H1 6981   3.288   1.640   2.333
 2325TIP3    H2 6982   3.395   1.747   2.345
 2326TIP3   OH2 6983   5.181   1.532   4.891
 2326TIP3    H1 6984   5.260   1.568   4.849
 2326TIP3    H2 6985   5.210   1.510   4.980
 2327TIP3   OH2 6986   0.839   1.632   3.441
 2327TIP3    H1 6987   0.863   1.695   3.373
 2327TIP3    H2 6988   0.892   1.657   3.516
 2328TIP3   OH2 6989   5.173   5.679   4.110
 2328TIP3    H1 6990   5.210   5.676   4.198
 2328TIP3    H2 6991   5.092   5.729   4.120
 2329TIP3   OH2 6992   0.209   4.101   2.810
 2329TIP3    H1 6993   0.148   4.032   2.785
 2329TIP3    H2 6994   0.207   4.162   2.736
 2330TIP3   OH2 6995   6.010   0.778   4.270
 2330TIP3    H1 6996   6.026   0.772   4.364
 2330TIP3    H2 6997   5.917   0.802   4.263
 2331TIP3   OH2 6998   3.130   2.734   3.705
 2331TIP3    H1 6999   3.084   2.744   3.788
 2331TIP3    H2 7000   3.126   2.641   3.686
 2332TIP3   OH2 7001   2.713   3.905   4.224
 2332TIP3    H1 7002   2.659   3.843   4.175
 2332TIP3    H2 7003   2.663   3.987   4.223
 2333TIP3   OH2 7004   4.981   0.528   4.628
 2333TIP3    H1 7005   4.899   0.492   4.594
 2333TIP3    H2 7006   5.048   0.464   4.604
 2334TIP3   OH2 7007   4.653   2.842   1.920
 2334TIP3    H1 7008   4.609   2.773   1.970
 2334TIP3    H2 7009   4.684   2.799   1.841
 2335TIP3   OH2 7010   2.393   3.704   1.132
 2335TIP3    H1 7011   2.380   3.677   1.041
 2335TIP3    H2 7012   2.306   3.700   1.171
 2336TIP3   OH2 7013   1.923   4.469   1.047
 2336TIP3    H1 7014   1.939   4.546   1.103
 2336TIP3    H2 7015   1.936   4.394   1.105
 2337TIP3   OH2 7016   3.818   5.652   0.131
 2337TIP3    H1 7017   3.723   5.643   0.116
 2337TIP3    H2 7018   3.856   5.573   0.092
 2338TIP3   OH2 7019   1.160   2.736   3.440
 2338TIP3    H1 7020   1.182   2.756   3.349
 2338TIP3    H2 7021   1.232   2.773   3.491
 2339TIP3   OH2 7022   5.337   5.155   4.018
 2339TIP3    H1 7023   5.289   5.232   4.048
 2339TIP3    H2 7024   5.287   5.123   3.943
 2340TIP3   OH2 7025   2.319   1.245   0.431
 2340TIP3    H1 7026   2.239   1.236   0.380
 2340TIP3    H2 7027   2.314   1.334   0.467
 2341TIP3   OH2 7028   4.191   1.304   4.618
 2341TIP3    H1 7029   4.187   1.374   4.683
 2341TIP3    H2 7030   4.266   1.327   4.563
 2342TIP3   OH2 7031   0.801   2.496   1.026
 2342TIP3    H1 7032   0.742   2.465   0.958
 2342TIP3    H2 7033   0.772   2.585   1.045
 2343TIP3   OH2 7034   2.750   3.022   1.920
 2343TIP3    H1 7035   2.753   2.983   2.007
 2343TIP3    H2 7036   2.840   3.052   1.904
 2344TIP3   OH2 7037   3.387   0.517   2.419
 2344TIP3    H1 7038   3.395   0.612   2.409
 2344TIP3    H2 7039   3.327   0.505   2.492
 2345TIP3   OH2 7040   3.828   4.568   1.316
 2345TIP3    H1 7041   3.896   4.634   1.328
 2345TIP3    H2 7042   3.746   4.614   1.334
 2346TIP3   OH2 7043   1.921   4.202   3.644
 2346TIP3    H1 7044   1.992   4.177   3.585
 2346TIP3    H2 7045   1.964   4.254   3.712
 2347TIP3   OH2 7046   6.124   4.189   2.684
 2347TIP3    H1 7047   6.156   4.099   2.677
 2347TIP3    H2 7048   6.143   4.213   2.775
 2348TIP3   OH2 7049   2.101   4.141   3.920
 2348TIP3    H1 7050   2.079   4.048   3.920
 2348TIP3    H2 7051   2.103   4.165   4.013
 2349TIP3   OH2 7052   4.331   5.047   2.626
 2349TIP3    H1 7053   4.399   5.054   2.693
 2349TIP3    H2 7054   4.379   5.045   2.543
 2350TIP3   OH2 7055   3.810   4.405   1.542
 2350TIP3    H1 7056   3.860   4.333   1.504
 2350TIP3    H2 7057   3.815   4.475   1.476
 2351TIP3   OH2 7058   3.430   5.532   2.427
 2351TIP3    H1 7059   3.440   5.623   2.455
 2351TIP3    H2 7060   3.496   5.484   2.476
 2352TIP3   OH2 7061   0.218   5.878   2.801
 2352TIP3    H1 7062   0.294   5.892   2.745
 2352TIP3    H2 7063   0.229   5.939   2.874
 2353TIP3   OH2 7064   1.519   4.433   4.405
 2353TIP3    H1 7065   1.567   4.497   4.458
 2353TIP3    H2 7066   1.546   4.348   4.441
 2354TIP3   OH2 7067   5.317   2.331   5.085
 2354TIP3    H1 7068   5.230   2.322   5.047
 2354TIP3    H2 7069   5.338   2.244   5.119
 2355TIP3   OH2 7070   1.905   2.661   0.149
 2355TIP3    H1 7071   1.854   2.611   0.085
 2355TIP3    H2 7072   1.857   2.743   0.160
 2356TIP3   OH2 7073   0.725   2.676   5.035
 2356TIP3    H1 7074   0.814   2.645   5.018
 2356TIP3    H2 7075   0.697   2.626   5.111
 2357TIP3   OH2 7076   1.671   3.575   5.036
 2357TIP3    H1 7077   1.694   3.631   5.110
 2357TIP3    H2 7078   1.640   3.636   4.969
 2358TIP3   OH2 7079   4.804   4.635   2.111
 2358TIP3    H1 7080   4.886   4.662   2.069
 2358TIP3    H2 7081   4.736   4.660   2.049
 2359TIP3   OH2 7082   0.315   2.568   2.368
 2359TIP3    H1 7083   0.336   2.475   2.363
 2359TIP3    H2 7084   0.319   2.588   2.461
 2360TIP3   OH2 7085   2.597   4.334   2.783
 2360TIP3    H1 7086   2.520   4.301   2.829
 2360TIP3    H2 7087   2.652   4.257   2.769
 2361TIP3   OH2 7088   1.516   3.107   0.738
 2361TIP3    H1 7089   1.611   3.096   0.747
 2361TIP3    H2 7090   1.481   3.019   0.750
 2362TIP3   OH2 7091   0.365   3.465   2.371
 2362TIP3    H1 7092   0.329   3.408   2.303
 2362TIP3    H2 7093   0.334   3.553   2.348
 2363TIP3   OH2 7094   1.745   3.015   1.144
 2363TIP3    H1 7095   1.654   3.038   1.128
 2363TIP3    H2 7096   1.741   2.935   1.196
 2364TIP3   OH2 7097   4.737   1.439   1.978
 2364TIP3    H1 7098   4.743   1.533   1.958
 2364TIP3    H2 7099   4.822   1.404   1.954
 2365TIP3   OH2 7100   5.871   3.289   3.323
 2365TIP3    H1 7101   5.908   3.348   3.389
 2365TIP3    H2 7102   5.946   3.240   3.290
 2366TIP3   OH2 7103   5.843   4.424   2.222
 2366TIP3    H1 7104   5.907   4.402   2.153
 2366TIP3    H2 7105   5.773   4.360   2.211
 2367TIP3   OH2 7106   6.211   3.313   4.475
 2367TIP3    H1 7107   6.206   3.355   4.560
 2367TIP3    H2 7108   6.147   3.359   4.421
 2368TIP3   OH2 7109   0.505   5.467   3.526
 2368TIP3    H1 7110   0.461   5.443   3.445
 2368TIP3    H2 7111   0.565   5.538   3.501
 2369TIP3   OH2 7112  -0.032   4.428   1.981
 2369TIP3    H1 7113  -0.019   4.394   1.893
 2369TIP3    H2 7114  -0.103   4.375   2.018
 2370TIP3   OH2 7115   1.728   3.057   2.784
 2370TIP3    H1 7116   1.715   3.151   2.775
 2370TIP3    H2 7117   1.732   3.024   2.694
 2371TIP3   OH2 7118   3.129   0.919   1.349
 2371TIP3    H1 7119   3.152   0.831   1.380
 2371TIP3    H2 7120   3.104   0.967   1.428
 2372TIP3   OH2 7121   0.591   0.673   1.731
 2372TIP3    H1 7122   0.626   0.584   1.734
 2372TIP3    H2 7123   0.663   0.728   1.763
 2373TIP3   OH2 7124   6.313   1.899   2.599
 2373TIP3    H1 7125   6.251   1.861   2.661
 2373TIP3    H2 7126   6.378   1.943   2.654
 2374TIP3   OH2 7127   0.711   4.388   2.063
 2374TIP3    H1 7128   0.643   4.399   2.129
 2374TIP3    H2 7129   0.712   4.471   2.015
 2375TIP3   OH2 7130   2.252   1.182   3.109
 2375TIP3    H1 7131   2.256   1.230   3.026
 2375TIP3    H2 7132   2.184   1.116   3.094
 2376TIP3   OH2 7133   1.105   5.695   4.699
 2376TIP3    H1 7134   1.185   5.656   4.733
 2376TIP3    H2 7135   1.107   5.785   4.731
 2377TIP3   OH2 7136   0.376   5.270   1.717
 2377TIP3    H1 7137   0.296   5.221   1.700
 2377TIP3    H2 7138   0.381   5.275   1.813
 2378TIP3   OH2 7139   3.328   5.895   2.127
 2378TIP3    H1 7140   3.422   5.882   2.139
 2378TIP3    H2 7141   3.312   5.878   2.034
 2379TIP3   OH2 7142   2.705   1.113   0.140
 2379TIP3    H1 7143   2.618   1.107   0.180
 2379TIP3    H2 7144   2.726   1.207   0.143
 2380TIP3   OH2 7145   2.406   3.826   2.594
 2380TIP3    H1 7146   2.381   3.745   2.549
 2380TIP3    H2 7147   2.456   3.875   2.529
 2381TIP3   OH2 7148   5.817   0.798   4.533
 2381TIP3    H1 7149   5.776   0.785   4.447
 2381TIP3    H2 7150   5.850   0.888   4.530
 2382TIP3   OH2 7151   5.420   4.310   1.082
 2382TIP3    H1 7152   5.373   4.298   1.164
 2382TIP3    H2 7153   5.504   4.266   1.095
 2383TIP3   OH2 7154   2.115   3.078   2.126
 2383TIP3    H1 7155   2.058   3.059   2.052
 2383TIP3    H2 7156   2.138   2.993   2.163
 2384TIP3   OH2 7157   2.761   2.608   4.478
 2384TIP3    H1 7158   2.855   2.618   4.491
 2384TIP3    H2 7159   2.746   2.639   4.388
 2385TIP3   OH2 7160   1.430   5.131   3.162
 2385TIP3    H1 7161   1.403   5.039   3.167
 2385TIP3    H2 7162   1.384   5.165   3.085
 2386TIP3   OH2 7163   3.407   2.820   0.754
 2386TIP3    H1 7164   3.480   2.815   0.815
 2386TIP3    H2 7165   3.335   2.777   0.799
 2387TIP3   OH2 7166   1.343   3.094   3.799
 2387TIP3    H1 7167   1.296   3.177   3.799
 2387TIP3    H2 7168   1.302   3.043   3.869
 2388TIP3   OH2 7169   3.067   1.178   4.645
 2388TIP3    H1 7170   3.138   1.127   4.606
 2388TIP3    H2 7171   2.990   1.122   4.636
 2389TIP3   OH2 7172   4.947   0.191   4.796
 2389TIP3    H1 7173   5.001   0.258   4.836
 2389TIP3    H2 7174   4.857   0.222   4.807
 2390TIP3   OH2 7175   4.704   4.995   3.462
 2390TIP3    H1 7176   4.718   4.928   3.395
 2390TIP3    H2 7177   4.674   5.071   3.413
 2391TIP3   OH2 7178   2.213   1.445   2.667
 2391TIP3    H1 7179   2.260   1.428   2.585
 2391TIP3    H2 7180   2.248   1.379   2.728
 2392TIP3   OH2 7181   5.461   5.293   2.412
 2392TIP3    H1 7182   5.402   5.366   2.429
 2392TIP3    H2 7183   5.450   5.235   2.487
 2393TIP3   OH2 7184   3.088   3.436   4.311
 2393TIP3    H1 7185   3.130   3.354   4.282
 2393TIP3    H2 7186   3.049   3.472   4.231
 2394TIP3   OH2 7187   2.690   5.451   0.823
 2394TIP3    H1 7188   2.639   5.494   0.892
 2394TIP3    H2 7189   2.755   5.399   0.870
 2395TIP3   OH2 7190   6.317   5.431   2.122
 2395TIP3    H1 7191   6.263   5.451   2.198
 2395TIP3    H2 7192   6.261   5.377   2.067
 2396TIP3   OH2 7193   1.118   2.986   2.514
 2396TIP3    H1 7194   1.087   3.074   2.489
 2396TIP3    H2 7195   1.052   2.954   2.575
 2397TIP3   OH2 7196   2.644   3.884   5.024
 2397TIP3    H1 7197   2.694   3.957   5.061
 2397TIP3    H2 7198   2.592   3.923   4.954
 2398TIP3   OH2 7199   6.018   4.170   0.259
 2398TIP3    H1 7200   6.036   4.210   0.174
 2398TIP3    H2 7201   5.944   4.220   0.294
 2399TIP3   OH2 7202   4.865   3.306   2.133
 2399TIP3    H1 7203   4.804   3.249   2.181
 2399TIP3    H2 7204   4.950   3.263   2.142
 2400TIP3   OH2 7205   3.553   5.925   1.215
 2400TIP3    H1 7206   3.552   6.013   1.178
 2400TIP3    H2 7207   3.552   5.867   1.139
 2401TIP3   OH2 7208   4.954   5.853   0.397
 2401TIP3    H1 7209   5.015   5.779   0.391
 2401TIP3    H2 7210   4.901   5.847   0.318
 2402TIP3   OH2 7211   0.661   1.425   1.018
 2402TIP3    H1 7212   0.611   1.474   1.083
 2402TIP3    H2 7213   0.695   1.349   1.065
 2403TIP3   OH2 7214   5.660   4.792   5.068
 2403TIP3    H1 7215   5.590   4.840   5.113
 2403TIP3    H2 7216   5.724   4.774   5.136
 2404TIP3   OH2 7217   0.839   0.776   0.944
 2404TIP3    H1 7218   0.783   0.770   0.866
 2404TIP3    H2 7219   0.885   0.692   0.947
 2405TIP3   OH2 7220   0.107   1.926   3.528
 2405TIP3    H1 7221   0.113   1.849   3.585
 2405TIP3    H2 7222   0.061   1.992   3.581
 2406TIP3   OH2 7223   2.618   4.164   4.165
 2406TIP3    H1 7224   2.539   4.185   4.115
 2406TIP3    H2 7225   2.641   4.244   4.211
 2407TIP3   OH2 7226   2.022   4.843   3.560
 2407TIP3    H1 7227   2.036   4.909   3.493
 2407TIP3    H2 7228   1.962   4.884   3.623
 2408TIP3   OH2 7229   2.990   5.980   1.755
 2408TIP3    H1 7230   3.067   5.925   1.769
 2408TIP3    H2 7231   2.959   6.000   1.844
 2409TIP3   OH2 7232   4.408   0.481   1.872
 2409TIP3    H1 7233   4.350   0.549   1.907
 2409TIP3    H2 7234   4.368   0.456   1.789
 2410TIP3   OH2 7235   3.531   1.029   2.335
 2410TIP3    H1 7236   3.535   1.089   2.409
 2410TIP3    H2 7237   3.531   1.086   2.258
 2411TIP3   OH2 7238   5.460   4.831   1.653
 2411TIP3    H1 7239   5.402   4.901   1.683
 2411TIP3    H2 7240   5.546   4.854   1.688
 2412TIP3   OH2 7241   1.264   2.167   1.343
 2412TIP3    H1 7242   1.230   2.255   1.357
 2412TIP3    H2 7243   1.333   2.178   1.277
 2413TIP3   OH2 7244   5.619   4.496   5.127
 2413TIP3    H1 7245   5.673   4.575   5.117
 2413TIP3    H2 7246   5.632   4.470   5.218
 2414TIP3   OH2 7247   3.032   0.784   0.199
 2414TIP3    H1 7248   2.964   0.807   0.136
 2414TIP3    H2 7249   3.058   0.868   0.238
 2415TIP3   OH2 7250   3.624   5.412   2.577
 2415TIP3    H1 7251   3.664   5.335   2.618
 2415TIP3    H2 7252   3.657   5.486   2.628
 2416TIP3   OH2 7253   3.791   1.115   4.215
 2416TIP3    H1 7254   3.737   1.107   4.294
 2416TIP3    H2 7255   3.860   1.177   4.239
 2417TIP3   OH2 7256   3.267   4.113   4.468
 2417TIP3    H1 7257   3.360   4.124   4.448
 2417TIP3    H2 7258   3.265   4.082   4.558
 2418TIP3   OH2 7259   0.730   3.836   3.949
 2418TIP3    H1 7260   0.702   3.831   3.858
 2418TIP3    H2 7261   0.670   3.898   3.990
 2419TIP3   OH2 7262   2.869   4.754   3.275
 2419TIP3    H1 7263   2.923   4.702   3.216
 2419TIP3    H2 7264   2.928   4.824   3.304
 2420TIP3   OH2 7265   3.803   1.224   2.737
 2420TIP3    H1 7266   3.797   1.186   2.825
 2420TIP3    H2 7267   3.797   1.319   2.751
 2421TIP3   OH2 7268   5.632   1.588   1.666
 2421TIP3    H1 7269   5.691   1.633   1.726
 2421TIP3    H2 7270   5.661   1.497   1.666
 2422TIP3   OH2 7271   4.697   3.320   0.953
 2422TIP3    H1 7272   4.626   3.325   0.889
 2422TIP3    H2 7273   4.707   3.410   0.985
 2423TIP3   OH2 7274   0.867   4.091   3.963
 2423TIP3    H1 7275   0.774   4.091   3.986
 2423TIP3    H2 7276   0.868   4.084   3.868
 2424TIP3   OH2 7277   4.737   3.934   2.719
 2424TIP3    H1 7278   4.799   4.000   2.688
 2424TIP3    H2 7279   4.651   3.975   2.709
 2425TIP3   OH2 7280   1.494   0.641   5.080
 2425TIP3    H1 7281   1.449   0.560   5.103
 2425TIP3    H2 7282   1.580   0.613   5.049
 2426TIP3   OH2 7283   5.609   5.741   3.257
 2426TIP3    H1 7284   5.540   5.690   3.214
 2426TIP3    H2 7285   5.678   5.748   3.191
 2427TIP3   OH2 7286   2.834   3.472   4.573
 2427TIP3    H1 7287   2.742   3.490   4.593
 2427TIP3    H2 7288   2.836   3.379   4.550
 2428TIP3   OH2 7289   6.266   5.907   2.875
 2428TIP3    H1 7290   6.326   5.976   2.846
 2428TIP3    H2 7291   6.210   5.950   2.941
 2429TIP3   OH2 7292   3.253   1.086   4.450
 2429TIP3    H1 7293   3.337   1.079   4.405
 2429TIP3    H2 7294   3.226   1.177   4.437
 2430TIP3   OH2 7295   4.782   2.080   2.080
 2430TIP3    H1 7296   4.830   2.117   2.154
 2430TIP3    H2 7297   4.762   1.991   2.107
 2431TIP3   OH2 7298   4.334   2.463   3.964
 2431TIP3    H1 7299   4.306   2.555   3.957
 2431TIP3    H2 7300   4.357   2.439   3.874
 2432TIP3   OH2 7301   3.233   3.069   2.960
 2432TIP3    H1 7302   3.245   3.128   2.886
 2432TIP3    H2 7303   3.315   3.073   3.008
 2433TIP3   OH2 7304   0.192   2.687   0.137
 2433TIP3    H1 7305   0.183   2.768   0.088
 2433TIP3    H2 7306   0.278   2.652   0.111
 2434TIP3   OH2 7307   2.994   2.639   2.896
 2434TIP3    H1 7308   3.082   2.678   2.894
 2434TIP3    H2 7309   2.949   2.678   2.821
 2435TIP3   OH2 7310   3.927   3.097   2.116
 2435TIP3    H1 7311   3.868   3.084   2.043
 2435TIP3    H2 7312   3.971   3.012   2.127
 2436TIP3   OH2 7313   2.565   4.402   5.075
 2436TIP3    H1 7314   2.488   4.409   5.018
 2436TIP3    H2 7315   2.532   4.419   5.163
 2437TIP3   OH2 7316   1.259   5.388   4.249
 2437TIP3    H1 7317   1.305   5.434   4.179
 2437TIP3    H2 7318   1.218   5.458   4.301
 2438TIP3   OH2 7319   3.359   1.674   3.258
 2438TIP3    H1 7320   3.386   1.624   3.181
 2438TIP3    H2 7321   3.389   1.621   3.332
 2439TIP3   OH2 7322   2.020   2.793   3.515
 2439TIP3    H1 7323   1.945   2.746   3.479
 2439TIP3    H2 7324   2.067   2.727   3.566
 2440TIP3   OH2 7325   4.119   0.555   1.741
 2440TIP3    H1 7326   4.142   0.536   1.650
 2440TIP3    H2 7327   4.158   0.641   1.758
 2441TIP3   OH2 7328   5.958   2.876   1.374
 2441TIP3    H1 7329   6.003   2.855   1.456
 2441TIP3    H2 7330   6.026   2.912   1.318
 2442TIP3   OH2 7331   2.032   1.027   3.207
 2442TIP3    H1 7332   1.962   0.981   3.253
 2442TIP3    H2 7333   2.079   1.075   3.275
 2443TIP3   OH2 7334   5.905   5.549   0.559
 2443TIP3    H1 7335   5.931   5.624   0.613
 2443TIP3    H2 7336   5.818   5.573   0.526
 2444TIP3   OH2 7337   4.994   2.893   2.430
 2444TIP3    H1 7338   5.064   2.830   2.444
 2444TIP3    H2 7339   4.974   2.886   2.336
 2445TIP3   OH2 7340   4.217   5.925   0.434
 2445TIP3    H1 7341   4.265   5.869   0.495
 2445TIP3    H2 7342   4.160   5.865   0.386
 2446TIP3   OH2 7343   1.672   2.194   3.579
 2446TIP3    H1 7344   1.715   2.277   3.602
 2446TIP3    H2 7345   1.741   2.129   3.584
 2447TIP3   OH2 7346   2.637   2.873   1.702
 2447TIP3    H1 7347   2.648   2.780   1.723
 2447TIP3    H2 7348   2.658   2.918   1.784
 2448TIP3   OH2 7349   2.137   3.953   1.878
 2448TIP3    H1 7350   2.064   3.949   1.940
 2448TIP3    H2 7351   2.098   3.939   1.792
 2449TIP3   OH2 7352   3.768   5.212   1.493
 2449TIP3    H1 7353   3.746   5.149   1.424
 2449TIP3    H2 7354   3.687   5.260   1.509
 2450TIP3   OH2 7355   2.943   0.730   1.583
 2450TIP3    H1 7356   2.980   0.811   1.547
 2450TIP3    H2 7357   2.860   0.719   1.537
 2451TIP3   OH2 7358   0.052   0.555   3.243
 2451TIP3    H1 7359  -0.003   0.601   3.180
 2451TIP3    H2 7360   0.010   0.470   3.255
 2452TIP3   OH2 7361   5.428   0.123   0.435
 2452TIP3    H1 7362   5.462   0.212   0.441
 2452TIP3    H2 7363   5.430   0.090   0.525
 2453TIP3   OH2 7364   6.209   1.607   0.885
 2453TIP3    H1 7365   6.212   1.619   0.790
 2453TIP3    H2 7366   6.289   1.558   0.905
 2454TIP3   OH2 7367   3.025   4.256   0.896
 2454TIP3    H1 7368   3.031   4.316   0.970
 2454TIP3    H2 7369   3.115   4.252   0.861
 2455TIP3   OH2 7370   5.948   2.693   1.020
 2455TIP3    H1 7371   5.915   2.780   0.998
 2455TIP3    H2 7372   5.873   2.648   1.061
 2456TIP3   OH2 7373   3.500   4.182   1.285
 2456TIP3    H1 7374   3.596   4.178   1.289
 2456TIP3    H2 7375   3.479   4.271   1.314
 2457TIP3   OH2 7376   0.603   1.968   0.767
 2457TIP3    H1 7377   0.590   2.014   0.684
 2457TIP3    H2 7378   0.514   1.953   0.799
 2458TIP3   OH2 7379   2.601   4.646   2.227
 2458TIP3    H1 7380   2.567   4.559   2.248
 2458TIP3    H2 7381   2.644   4.634   2.142
 2459TIP3   OH2 7382   6.045   4.490   0.314
 2459TIP3    H1 7383   5.995   4.569   0.296
 2459TIP3    H2 7384   5.980   4.428   0.349
 2460TIP3   OH2 7385   0.696   5.841   0.593
 2460TIP3    H1 7386   0.652   5.811   0.514
 2460TIP3    H2 7387   0.773   5.888   0.562
 2461TIP3   OH2 7388   0.806   5.290   4.944
 2461TIP3    H1 7389   0.861   5.238   4.884
 2461TIP3    H2 7390   0.860   5.365   4.967
 2462TIP3   OH2 7391   6.230   2.436   3.403
 2462TIP3    H1 7392   6.268   2.461   3.487
 2462TIP3    H2 7393   6.188   2.516   3.371
 2463TIP3   OH2 7394   6.224   3.281   2.423
 2463TIP3    H1 7395   6.265   3.368   2.420
 2463TIP3    H2 7396   6.140   3.296   2.466
 2464TIP3   OH2 7397   1.155   1.078   1.322
 2464TIP3    H1 7398   1.064   1.048   1.329
 2464TIP3    H2 7399   1.207   1.000   1.341
 2465TIP3   OH2 7400   5.721   3.975   0.180
 2465TIP3    H1 7401   5.761   4.009   0.100
 2465TIP3    H2 7402   5.675   3.896   0.152
 2466TIP3   OH2 7403   1.778   2.925   1.711
 2466TIP3    H1 7404   1.792   2.840   1.669
 2466TIP3    H2 7405   1.683   2.940   1.703
 2467TIP3   OH2 7406   1.877   3.029   3.013
 2467TIP3    H1 7407   1.814   3.038   2.942
 2467TIP3    H2 7408   1.845   2.956   3.065
 2468TIP3   OH2 7409   1.205   0.967   2.931
 2468TIP3    H1 7410   1.242   0.961   2.843
 2468TIP3    H2 7411   1.265   1.024   2.979
 2469TIP3   OH2 7412   4.826   0.312   1.476
 2469TIP3    H1 7413   4.905   0.365   1.463
 2469TIP3    H2 7414   4.797   0.334   1.565
 2470TIP3   OH2 7415   4.874   5.724   4.444
 2470TIP3    H1 7416   4.788   5.722   4.402
 2470TIP3    H2 7417   4.876   5.807   4.491
 2471TIP3   OH2 7418   1.859   1.050   4.152
 2471TIP3    H1 7419   1.809   1.004   4.219
 2471TIP3    H2 7420   1.832   1.010   4.069
 2472TIP3   OH2 7421   2.135   4.753   4.704
 2472TIP3    H1 7422   2.142   4.657   4.708
 2472TIP3    H2 7423   2.087   4.776   4.784
 2473TIP3   OH2 7424   1.691   3.341   2.975
 2473TIP3    H1 7425   1.682   3.358   2.881
 2473TIP3    H2 7426   1.609   3.298   2.999
 2474TIP3   OH2 7427   4.691   4.230   0.446
 2474TIP3    H1 7428   4.615   4.201   0.396
 2474TIP3    H2 7429   4.750   4.269   0.382
 2475TIP3   OH2 7430   5.853   0.902   3.974
 2475TIP3    H1 7431   5.867   0.934   4.063
 2475TIP3    H2 7432   5.770   0.940   3.947
 2476TIP3   OH2 7433   3.571   1.569   0.650
 2476TIP3    H1 7434   3.484   1.570   0.609
 2476TIP3    H2 7435   3.569   1.642   0.712
 2477TIP3   OH2 7436   5.670   0.434   2.242
 2477TIP3    H1 7437   5.585   0.469   2.268
 2477TIP3    H2 7438   5.662   0.339   2.253
 2478TIP3   OH2 7439   0.508   2.381   4.900
 2478TIP3    H1 7440   0.540   2.313   4.958
 2478TIP3    H2 7441   0.412   2.374   4.904
 2479TIP3   OH2 7442   5.257   1.679   4.534
 2479TIP3    H1 7443   5.336   1.721   4.500
 2479TIP3    H2 7444   5.281   1.649   4.621
 2480TIP3   OH2 7445   0.099   5.435   1.820
 2480TIP3    H1 7446   0.183   5.407   1.855
 2480TIP3    H2 7447   0.081   5.518   1.864
 2481TIP3   OH2 7448   4.358   2.199   2.876
 2481TIP3    H1 7449   4.338   2.113   2.841
 2481TIP3    H2 7450   4.279   2.226   2.923
 2482TIP3   OH2 7451   1.454   5.507   0.692
 2482TIP3    H1 7452   1.451   5.489   0.786
 2482TIP3    H2 7453   1.537   5.472   0.663
 2483TIP3   OH2 7454   4.794   4.117   2.041
 2483TIP3    H1 7455   4.774   4.210   2.052
 2483TIP3    H2 7456   4.850   4.114   1.963
 2484TIP3   OH2 7457  -0.017   1.165   2.620
 2484TIP3    H1 7458   0.026   1.105   2.681
 2484TIP3    H2 7459   0.054   1.202   2.568
 2485TIP3   OH2 7460   0.236   2.944   0.664
 2485TIP3    H1 7461   0.156   2.972   0.708
 2485TIP3    H2 7462   0.274   2.878   0.722
 2486TIP3   OH2 7463   4.238   3.603   3.514
 2486TIP3    H1 7464   4.187   3.522   3.513
 2486TIP3    H2 7465   4.177   3.670   3.545
 2487TIP3   OH2 7466   1.144   3.247   4.260
 2487TIP3    H1 7467   1.096   3.227   4.180
 2487TIP3    H2 7468   1.225   3.289   4.229
 2488TIP3   OH2 7469   3.724   4.490   2.950
 2488TIP3    H1 7470   3.648   4.504   2.894
 2488TIP3    H2 7471   3.785   4.440   2.896
 2489TIP3   OH2 7472   2.301   0.618   3.621
 2489TIP3    H1 7473   2.211   0.621   3.589
 2489TIP3    H2 7474   2.305   0.537   3.673
 2490TIP3   OH2 7475   0.137   0.790   0.260
 2490TIP3    H1 7476   0.145   0.879   0.292
 2490TIP3    H2 7477   0.207   0.781   0.195
 2491TIP3   OH2 7478   3.087   2.425   3.835
 2491TIP3    H1 7479   2.999   2.437   3.873
 2491TIP3    H2 7480   3.123   2.351   3.883
 2492TIP3   OH2 7481   1.438   5.405   4.012
 2492TIP3    H1 7482   1.409   5.318   4.042
 2492TIP3    H2 7483   1.471   5.390   3.924
 2493TIP3   OH2 7484   1.239   0.741  -0.013
 2493TIP3    H1 7485   1.173   0.807  -0.033
 2493TIP3    H2 7486   1.196   0.658  -0.033
 2494TIP3   OH2 7487   0.276   0.657   4.289
 2494TIP3    H1 7488   0.281   0.723   4.358
 2494TIP3    H2 7489   0.330   0.693   4.218
 2495TIP3   OH2 7490   1.243   3.770   0.038
 2495TIP3    H1 7491   1.236   3.865   0.024
 2495TIP3    H2 7492   1.291   3.762   0.120
 2496TIP3   OH2 7493   2.607   5.069   1.658
 2496TIP3    H1 7494   2.631   5.149   1.610
 2496TIP3    H2 7495   2.592   5.099   1.747
 2497TIP3   OH2 7496   2.130   5.626   4.453
 2497TIP3    H1 7497   2.068   5.650   4.384
 2497TIP3    H2 7498   2.180   5.706   4.470
 2498TIP3   OH2 7499   3.192   0.436   0.960
 2498TIP3    H1 7500   3.099   0.458   0.963
 2498TIP3    H2 7501   3.195   0.340   0.959
 2499TIP3   OH2 7502   4.435   1.971   0.819
 2499TIP3    H1 7503   4.460   2.022   0.895
 2499TIP3    H2 7504   4.366   1.913   0.850
 2500TIP3   OH2 7505   5.955   1.570   1.285
 2500TIP3    H1 7506   5.885   1.522   1.330
 2500TIP3    H2 7507   6.036   1.537   1.326
 2501TIP3   OH2 7508   1.773   1.925   2.846
 2501TIP3    H1 7509   1.864   1.896   2.853
 2501TIP3    H2 7510   1.762   1.950   2.754
 2502TIP3   OH2 7511   5.381   2.811   2.254
 2502TIP3    H1 7512   5.408   2.721   2.272
 2502TIP3    H2 7513   5.299   2.802   2.205
 2503TIP3   OH2 7514   4.932   5.040   2.208
 2503TIP3    H1 7515   4.984   4.998   2.139
 2503TIP3    H2 7516   4.988   5.111   2.240
 2504TIP3   OH2 7517   5.091   2.607   2.410
 2504TIP3    H1 7518   4.997   2.589   2.417
 2504TIP3    H2 7519   5.110   2.598   2.316
 2505TIP3   OH2 7520   3.966   0.312   2.922
 2505TIP3    H1 7521   3.960   0.218   2.934
 2505TIP3    H2 7522   3.899   0.332   2.857
 2506TIP3   OH2 7523   0.384   1.258   0.293
 2506TIP3    H1 7524   0.302   1.307   0.286
 2506TIP3    H2 7525   0.451   1.326   0.299
 2507TIP3   OH2 7526   1.100   3.248   2.997
 2507TIP3    H1 7527   1.044   3.218   3.069
 2507TIP3    H2 7528   1.129   3.334   3.025
 2508TIP3   OH2 7529   4.905   3.352   5.153
 2508TIP3    H1 7530   4.832   3.411   5.175
 2508TIP3    H2 7531   4.983   3.400   5.179
 2509TIP3   OH2 7532   1.702   1.579   5.095
 2509TIP3    H1 7533   1.755   1.531   5.159
 2509TIP3    H2 7534   1.754   1.577   5.014
 2510TIP3   OH2 7535   3.740   3.339   4.411
 2510TIP3    H1 7536   3.775   3.416   4.456
 2510TIP3    H2 7537   3.802   3.269   4.432
 2511TIP3   OH2 7538   5.329   0.967   4.814
 2511TIP3    H1 7539   5.341   0.987   4.907
 2511TIP3    H2 7540   5.401   1.012   4.771
 2512TIP3   OH2 7541   0.996   2.085   3.877
 2512TIP3    H1 7542   0.953   2.166   3.904
 2512TIP3    H2 7543   1.019   2.042   3.960
 2513TIP3   OH2 7544   1.098   5.145   0.977
 2513TIP3    H1 7545   1.114   5.061   1.021
 2513TIP3    H2 7546   1.028   5.126   0.914
 2514TIP3   OH2 7547   3.758   4.127   1.218
 2514TIP3    H1 7548   3.704   4.123   1.139
 2514TIP3    H2 7549   3.848   4.122   1.185
 2515TIP3   OH2 7550   4.040   1.937   1.880
 2515TIP3    H1 7551   4.013   1.861   1.933
 2515TIP3    H2 7552   3.959   1.973   1.845
 2516TIP3   OH2 7553   0.649   0.335   1.591
 2516TIP3    H1 7554   0.685   0.376   1.511
 2516TIP3    H2 7555   0.554   0.334   1.576
 2517TIP3   OH2 7556   4.492   4.088   1.205
 2517TIP3    H1 7557   4.476   4.060   1.295
 2517TIP3    H2 7558   4.420   4.051   1.155
 2518TIP3   OH2 7559   0.472   0.140   0.076
 2518TIP3    H1 7560   0.566   0.154   0.077
 2518TIP3    H2 7561   0.436   0.208   0.134
 2519TIP3   OH2 7562   2.689   1.490   1.217
 2519TIP3    H1 7563   2.736   1.573   1.217
 2519TIP3    H2 7564   2.684   1.465   1.125
 2520TIP3   OH2 7565   4.841   2.405   4.734
 2520TIP3    H1 7566   4.796   2.440   4.656
 2520TIP3    H2 7567   4.880   2.323   4.704
 2521TIP3   OH2 7568   5.435   2.658   0.250
 2521TIP3    H1 7569   5.498   2.586   0.261
 2521TIP3    H2 7570   5.385   2.634   0.171
 2522TIP3   OH2 7571   2.504   1.705   2.111
 2522TIP3    H1 7572   2.517   1.637   2.177
 2522TIP3    H2 7573   2.410   1.726   2.116
 2523TIP3   OH2 7574   3.571   5.517   3.580
 2523TIP3    H1 7575   3.497   5.457   3.576
 2523TIP3    H2 7576   3.627   5.482   3.650
 2524TIP3   OH2 7577   1.558   5.786   3.895
 2524TIP3    H1 7578   1.602   5.800   3.979
 2524TIP3    H2 7579   1.619   5.730   3.846
 2525TIP3   OH2 7580   5.407   5.080   2.559
 2525TIP3    H1 7581   5.439   5.027   2.485
 2525TIP3    H2 7582   5.420   5.024   2.636
 2526TIP3   OH2 7583   6.093   1.196   2.525
 2526TIP3    H1 7584   6.185   1.200   2.552
 2526TIP3    H2 7585   6.071   1.286   2.501
 2527TIP3   OH2 7586   6.349   4.349   2.853
 2527TIP3    H1 7587   6.375   4.336   2.944
 2527TIP3    H2 7588   6.288   4.423   2.855
 2528TIP3   OH2 7589   0.811   2.398   4.709
 2528TIP3    H1 7590   0.735   2.341   4.694
 2528TIP3    H2 7591   0.821   2.399   4.805
 2529TIP3   OH2 7592   3.461   0.757   0.117
 2529TIP3    H1 7593   3.531   0.724   0.060
 2529TIP3    H2 7594   3.381   0.717   0.083
 2530TIP3   OH2 7595   1.056   0.017   3.838
 2530TIP3    H1 7596   0.966   0.028   3.868
 2530TIP3    H2 7597   1.051   0.029   3.743
 2531TIP3   OH2 7598   1.828   5.838   4.524
 2531TIP3    H1 7599   1.755   5.807   4.471
 2531TIP3    H2 7600   1.848   5.766   4.584
 2532TIP3   OH2 7601   0.544   1.083   1.978
 2532TIP3    H1 7602   0.630   1.081   2.021
 2532TIP3    H2 7603   0.499   1.158   2.018
 2533TIP3   OH2 7604   2.554   1.090   2.370
 2533TIP3    H1 7605   2.598   1.101   2.455
 2533TIP3    H2 7606   2.582   1.167   2.319
 2534TIP3   OH2 7607   0.804   5.064   1.959
 2534TIP3    H1 7608   0.718   5.106   1.960
 2534TIP3    H2 7609   0.854   5.110   2.026
 2535TIP3   OH2 7610   0.091   2.648   0.378
 2535TIP3    H1 7611   0.100   2.675   0.287
 2535TIP3    H2 7612   0.111   2.727   0.428
 2536TIP3   OH2 7613   2.550   0.195   2.145
 2536TIP3    H1 7614   2.473   0.139   2.133
 2536TIP3    H2 7615   2.592   0.160   2.224
 2537TIP3   OH2 7616   4.172   5.277   2.673
 2537TIP3    H1 7617   4.210   5.199   2.714
 2537TIP3    H2 7618   4.120   5.243   2.600
 2538TIP3   OH2 7619   0.105   0.181   1.415
 2538TIP3    H1 7620   0.027   0.200   1.467
 2538TIP3    H2 7621   0.084   0.212   1.327
 2539TIP3   OH2 7622   2.484   1.007   3.001
 2539TIP3    H1 7623   2.556   1.000   3.065
 2539TIP3    H2 7624   2.405   0.996   3.054
 2540TIP3   OH2 7625   2.525   2.660   3.422
 2540TIP3    H1 7626   2.481   2.679   3.339
 2540TIP3    H2 7627   2.561   2.744   3.450
 2541TIP3   OH2 7628   0.438   0.885   2.182
 2541TIP3    H1 7629   0.400   0.908   2.267
 2541TIP3    H2 7630   0.499   0.956   2.163
 2542TIP3   OH2 7631   2.100   4.515   4.280
 2542TIP3    H1 7632   2.143   4.566   4.349
 2542TIP3    H2 7633   2.008   4.512   4.305
 2543TIP3   OH2 7634  -0.026   5.358   3.295
 2543TIP3    H1 7635   0.062   5.336   3.326
 2543TIP3    H2 7636  -0.042   5.446   3.329
 2544TIP3   OH2 7637   2.153   2.595   0.621
 2544TIP3    H1 7638   2.106   2.601   0.538
 2544TIP3    H2 7639   2.244   2.614   0.597
 2545TIP3   OH2 7640   3.191   0.632   2.647
 2545TIP3    H1 7641   3.131   0.567   2.682
 2545TIP3    H2 7642   3.147   0.715   2.660
 2546TIP3   OH2 7643   5.911   4.724   0.258
 2546TIP3    H1 7644   5.912   4.818   0.242
 2546TIP3    H2 7645   5.825   4.707   0.296
 2547TIP3   OH2 7646   4.308   2.970   2.172
 2547TIP3    H1 7647   4.315   2.889   2.121
 2547TIP3    H2 7648   4.224   3.007   2.145
 2548TIP3   OH2 7649   2.084   5.557   2.241
 2548TIP3    H1 7650   1.992   5.566   2.266
 2548TIP3    H2 7651   2.113   5.647   2.223
 2549TIP3   OH2 7652   3.782   3.491   4.971
 2549TIP3    H1 7653   3.821   3.573   4.939
 2549TIP3    H2 7654   3.854   3.444   5.012
 2550TIP3   OH2 7655   1.678   2.729   0.484
 2550TIP3    H1 7656   1.598   2.770   0.514
 2550TIP3    H2 7657   1.695   2.767   0.397
 2551TIP3   OH2 7658   0.264   4.762   2.564
 2551TIP3    H1 7659   0.192   4.714   2.522
 2551TIP3    H2 7660   0.341   4.742   2.511
 2552TIP3   OH2 7661   3.930   1.347   1.256
 2552TIP3    H1 7662   3.892   1.280   1.313
 2552TIP3    H2 7663   3.863   1.362   1.189
 2553TIP3   OH2 7664   0.042   5.745   1.201
 2553TIP3    H1 7665   0.035   5.840   1.194
 2553TIP3    H2 7666   0.015   5.713   1.115
 2554TIP3   OH2 7667   5.805   4.307   4.991
 2554TIP3    H1 7668   5.767   4.395   4.994
 2554TIP3    H2 7669   5.741   4.255   4.942
 2555TIP3   OH2 7670   3.448   1.003   0.372
 2555TIP3    H1 7671   3.423   1.030   0.461
 2555TIP3    H2 7672   3.410   1.069   0.315
 2556TIP3   OH2 7673   3.508   4.313   4.058
 2556TIP3    H1 7674   3.561   4.275   4.129
 2556TIP3    H2 7675   3.547   4.279   3.978
 2557TIP3   OH2 7676   4.996   3.909   0.448
 2557TIP3    H1 7677   4.952   3.840   0.399
 2557TIP3    H2 7678   4.945   3.988   0.431
 2558TIP3   OH2 7679   3.018   0.089   2.150
 2558TIP3    H1 7680   2.983   0.060   2.066
 2558TIP3    H2 7681   3.112   0.071   2.145
 2559TIP3   OH2 7682   6.222   1.112   3.828
 2559TIP3    H1 7683   6.210   1.206   3.813
 2559TIP3    H2 7684   6.299   1.089   3.776
 2560TIP3   OH2 7685   4.722   1.910   0.790
 2560TIP3    H1 7686   4.734   1.986   0.732
 2560TIP3    H2 7687   4.638   1.926   0.833
 2561TIP3   OH2 7688   0.018   3.083   5.052
 2561TIP3    H1 7689   0.047   3.078   4.961
 2561TIP3    H2 7690   0.093   3.120   5.099
 2562TIP3   OH2 7691   2.893   1.470   1.002
 2562TIP3    H1 7692   2.878   1.378   0.979
 2562TIP3    H2 7693   2.853   1.519   0.930
 2563TIP3   OH2 7694   4.385   0.389   3.079
 2563TIP3    H1 7695   4.331   0.458   3.118
 2563TIP3    H2 7696   4.337   0.363   3.000
 2564TIP3   OH2 7697   2.348   5.527   3.535
 2564TIP3    H1 7698   2.327   5.489   3.620
 2564TIP3    H2 7699   2.398   5.458   3.490
 2565TIP3   OH2 7700   1.952   2.392   2.896
 2565TIP3    H1 7701   1.949   2.310   2.847
 2565TIP3    H2 7702   1.974   2.458   2.830
 2566TIP3   OH2 7703   5.601   4.416   2.660
 2566TIP3    H1 7704   5.676   4.469   2.630
 2566TIP3    H2 7705   5.629   4.326   2.647
 2567TIP3   OH2 7706   3.010   3.606   3.547
 2567TIP3    H1 7707   3.074   3.557   3.496
 2567TIP3    H2 7708   3.019   3.696   3.516
 2568TIP3   OH2 7709   4.020   1.339   3.243
 2568TIP3    H1 7710   4.034   1.246   3.260
 2568TIP3    H2 7711   4.082   1.384   3.301
 2569TIP3   OH2 7712   4.953   5.323   0.559
 2569TIP3    H1 7713   4.975   5.243   0.607
 2569TIP3    H2 7714   4.950   5.296   0.467
 2570TIP3   OH2 7715   0.598   0.063   4.883
 2570TIP3    H1 7716   0.666   0.014   4.931
 2570TIP3    H2 7717   0.623   0.155   4.894
 2571TIP3   OH2 7718   6.345   0.483   1.674
 2571TIP3    H1 7719   6.315   0.482   1.765
 2571TIP3    H2 7720   6.265   0.490   1.623
 2572TIP3   OH2 7721   3.513   0.664   1.503
 2572TIP3    H1 7722   3.528   0.608   1.579
 2572TIP3    H2 7723   3.512   0.753   1.538
 2573TIP3   OH2 7724   1.039   4.135   4.433
 2573TIP3    H1 7725   0.981   4.105   4.504
 2573TIP3    H2 7726   0.979   4.161   4.363
 2574TIP3   OH2 7727   5.407   1.376   0.654
 2574TIP3    H1 7728   5.381   1.383   0.746
 2574TIP3    H2 7729   5.502   1.371   0.656
 2575TIP3   OH2 7730   3.655   5.417   1.958
 2575TIP3    H1 7731   3.682   5.509   1.962
 2575TIP3    H2 7732   3.718   5.376   1.899
 2576TIP3   OH2 7733   2.594   2.042   3.415
 2576TIP3    H1 7734   2.581   1.954   3.450
 2576TIP3    H2 7735   2.632   2.027   3.328
 2577TIP3   OH2 7736   0.857   3.473   4.397
 2577TIP3    H1 7737   0.820   3.395   4.438
 2577TIP3    H2 7738   0.850   3.457   4.303
 2578TIP3   OH2 7739   6.077   4.588   2.750
 2578TIP3    H1 7740   6.110   4.523   2.688
 2578TIP3    H2 7741   6.062   4.666   2.697
 2579TIP3   OH2 7742   4.614   3.110   3.503
 2579TIP3    H1 7743   4.641   3.155   3.583
 2579TIP3    H2 7744   4.670   3.033   3.499
 2580TIP3   OH2 7745   1.658   5.422   3.663
 2580TIP3    H1 7746   1.687   5.422   3.572
 2580TIP3    H2 7747   1.581   5.365   3.663
 2581TIP3   OH2 7748   1.813   0.956   1.411
 2581TIP3    H1 7749   1.779   0.881   1.361
 2581TIP3    H2 7750   1.770   0.950   1.496
 2582TIP3   OH2 7751   4.672   3.118   4.263
 2582TIP3    H1 7752   4.733   3.054   4.225
 2582TIP3    H2 7753   4.595   3.066   4.287
 2583TIP3   OH2 7754   3.628   5.046   0.428
 2583TIP3    H1 7755   3.684   5.047   0.351
 2583TIP3    H2 7756   3.686   5.068   0.501
 2584TIP3   OH2 7757   0.826   4.530   4.222
 2584TIP3    H1 7758   0.886   4.458   4.203
 2584TIP3    H2 7759   0.748   4.511   4.170
 2585TIP3   OH2 7760   3.891   5.785   1.379
 2585TIP3    H1 7761   3.942   5.860   1.409
 2585TIP3    H2 7762   3.800   5.809   1.397
 2586TIP3   OH2 7763   5.399   0.746   2.808
 2586TIP3    H1 7764   5.325   0.805   2.822
 2586TIP3    H2 7765   5.375   0.666   2.854
 2587TIP3   OH2 7766   1.235   3.460   4.660
 2587TIP3    H1 7767   1.256   3.450   4.753
 2587TIP3    H2 7768   1.301   3.408   4.614
 2588TIP3   OH2 7769   4.298   4.263   5.057
 2588TIP3    H1 7770   4.270   4.295   4.972
 2588TIP3    H2 7771   4.220   4.221   5.094
 2589TIP3   OH2 7772   3.895   2.305   4.152
 2589TIP3    H1 7773   3.860   2.390   4.180
 2589TIP3    H2 7774   3.823   2.244   4.166
 2590TIP3   OH2 7775   2.479   1.414   1.489
 2590TIP3    H1 7776   2.442   1.454   1.568
 2590TIP3    H2 7777   2.561   1.375   1.518
 2591TIP3   OH2 7778   2.720   2.907   3.187
 2591TIP3    H1 7779   2.764   2.984   3.150
 2591TIP3    H2 7780   2.704   2.930   3.279
 2592TIP3   OH2 7781   5.832   3.712   0.668
 2592TIP3    H1 7782   5.850   3.783   0.605
 2592TIP3    H2 7783   5.862   3.746   0.752
 2593TIP3   OH2 7784   5.954   3.543   3.152
 2593TIP3    H1 7785   5.878   3.548   3.209
 2593TIP3    H2 7786   6.027   3.525   3.211
 2594TIP3   OH2 7787   1.298   0.132   1.185
 2594TIP3    H1 7788   1.216   0.093   1.153
 2594TIP3    H2 7789   1.357   0.130   1.110
 2595TIP3   OH2 7790   5.710   5.600   2.881
 2595TIP3    H1 7791   5.706   5.522   2.937
 2595TIP3    H2 7792   5.662   5.574   2.802
 2596TIP3   OH2 7793   0.439   4.291   2.294
 2596TIP3    H1 7794   0.474   4.202   2.297
 2596TIP3    H2 7795   0.344   4.279   2.296
 2597TIP3   OH2 7796   4.500   4.832   1.658
 2597TIP3    H1 7797   4.593   4.824   1.639
 2597TIP3    H2 7798   4.458   4.771   1.597
 2598TIP3   OH2 7799   4.671   1.172   0.815
 2598TIP3    H1 7800   4.588   1.154   0.771
 2598TIP3    H2 7801   4.684   1.097   0.873
 2599TIP3   OH2 7802   3.798   3.773   3.611
 2599TIP3    H1 7803   3.712   3.813   3.596
 2599TIP3    H2 7804   3.806   3.707   3.542
 2600TIP3   OH2 7805   2.845   5.640   3.729
 2600TIP3    H1 7806   2.871   5.607   3.643
 2600TIP3    H2 7807   2.903   5.595   3.790
 2601TIP3   OH2 7808   6.186   1.248   1.175
 2601TIP3    H1 7809   6.096   1.251   1.206
 2601TIP3    H2 7810   6.220   1.166   1.210
 2602TIP3   OH2 7811   4.211   5.547   0.300
 2602TIP3    H1 7812   4.143   5.601   0.260
 2602TIP3    H2 7813   4.284   5.607   0.315
 2603TIP3   OH2 7814   1.599   1.094   0.723
 2603TIP3    H1 7815   1.620   1.060   0.810
 2603TIP3    H2 7816   1.555   1.177   0.740
 2604TIP3   OH2 7817   0.827   4.438   1.713
 2604TIP3    H1 7818   0.732   4.441   1.724
 2604TIP3    H2 7819   0.862   4.469   1.797
 2605TIP3   OH2 7820   5.496   3.961   3.181
 2605TIP3    H1 7821   5.405   3.934   3.184
 2605TIP3    H2 7822   5.493   4.051   3.146
 2606TIP3   OH2 7823   3.251   3.894   1.544
 2606TIP3    H1 7824   3.328   3.917   1.493
 2606TIP3    H2 7825   3.187   3.862   1.480
 2607TIP3   OH2 7826   2.441   2.354   4.945
 2607TIP3    H1 7827   2.505   2.297   4.903
 2607TIP3    H2 7828   2.437   2.431   4.889
 2608TIP3   OH2 7829   3.526   4.862   2.858
 2608TIP3    H1 7830   3.562   4.847   2.945
 2608TIP3    H2 7831   3.461   4.793   2.846
 2609TIP3   OH2 7832   0.959   1.994   3.609
 2609TIP3    H1 7833   1.040   1.963   3.568
 2609TIP3    H2 7834   0.981   2.006   3.701
 2610TIP3   OH2 7835   0.273   3.895   1.975
 2610TIP3    H1 7836   0.233   3.808   1.973
 2610TIP3    H2 7837   0.356   3.884   1.929
 2611TIP3   OH2 7838   3.874   4.904   4.159
 2611TIP3    H1 7839   3.833   4.896   4.073
 2611TIP3    H2 7840   3.875   4.815   4.193
 2612TIP3   OH2 7841   3.329   1.950   2.493
 2612TIP3    H1 7842   3.255   1.993   2.450
 2612TIP3    H2 7843   3.372   2.021   2.542
 2613TIP3   OH2 7844   0.344   2.990   4.422
 2613TIP3    H1 7845   0.321   3.057   4.487
 2613TIP3    H2 7846   0.389   2.922   4.472
 2614TIP3   OH2 7847   5.718   4.722   0.475
 2614TIP3    H1 7848   5.656   4.650   0.484
 2614TIP3    H2 7849   5.664   4.801   0.472
 2615TIP3   OH2 7850   4.313   1.577   2.478
 2615TIP3    H1 7851   4.397   1.577   2.525
 2615TIP3    H2 7852   4.266   1.501   2.514
 2616TIP3   OH2 7853   0.510   4.981   4.455
 2616TIP3    H1 7854   0.554   4.898   4.468
 2616TIP3    H2 7855   0.458   4.969   4.375
 2617TIP3   OH2 7856   1.779   3.765   2.778
 2617TIP3    H1 7857   1.848   3.774   2.712
 2617TIP3    H2 7858   1.701   3.743   2.728
 2618TIP3   OH2 7859   6.209   3.545   2.811
 2618TIP3    H1 7860   6.148   3.472   2.801
 2618TIP3    H2 7861   6.175   3.613   2.752
 2619TIP3   OH2 7862   3.535   2.441   0.375
 2619TIP3    H1 7863   3.507   2.359   0.415
 2619TIP3    H2 7864   3.534   2.504   0.447
 2620TIP3   OH2 7865   2.389   5.748   3.153
 2620TIP3    H1 7866   2.406   5.843   3.158
 2620TIP3    H2 7867   2.477   5.709   3.146
 2621TIP3   OH2 7868   4.004   0.756   2.073
 2621TIP3    H1 7869   4.098   0.772   2.061
 2621TIP3    H2 7870   3.984   0.793   2.159
 2622TIP3   OH2 7871   3.100   2.144   0.558
 2622TIP3    H1 7872   3.055   2.198   0.492
 2622TIP3    H2 7873   3.192   2.145   0.531
 2623TIP3   OH2 7874   0.498   2.484   3.570
 2623TIP3    H1 7875   0.524   2.406   3.521
 2623TIP3    H2 7876   0.463   2.544   3.504
 2624TIP3   OH2 7877   5.383   4.287   0.377
 2624TIP3    H1 7878   5.346   4.333   0.301
 2624TIP3    H2 7879   5.426   4.210   0.340
 2625TIP3   OH2 7880   4.255   3.459   2.005
 2625TIP3    H1 7881   4.241   3.375   2.048
 2625TIP3    H2 7882   4.179   3.512   2.031
 2626TIP3   OH2 7883   1.923   5.630   4.247
 2626TIP3    H1 7884   1.936   5.557   4.186
 2626TIP3    H2 7885   1.848   5.604   4.300
 2627TIP3   OH2 7886   5.497   4.380   3.821
 2627TIP3    H1 7887   5.428   4.415   3.764
 2627TIP3    H2 7888   5.505   4.445   3.891
 2628TIP3   OH2 7889   5.406   5.605   2.604
 2628TIP3    H1 7890   5.368   5.616   2.691
 2628TIP3    H2 7891   5.489   5.559   2.620
 2629TIP3   OH2 7892   4.193   2.648   1.156
 2629TIP3    H1 7893   4.186   2.736   1.120
 2629TIP3    H2 7894   4.212   2.661   1.249
 2630TIP3   OH2 7895   4.977   0.720   2.021
 2630TIP3    H1 7896   4.929   0.761   2.093
 2630TIP3    H2 7897   4.990   0.629   2.049
 2631TIP3   OH2 7898   1.403   2.272   0.730
 2631TIP3    H1 7899   1.445   2.187   0.715
 2631TIP3    H2 7900   1.451   2.333   0.673
 2632TIP3   OH2 7901   4.047   0.187   0.896
 2632TIP3    H1 7902   4.063   0.104   0.941
 2632TIP3    H2 7903   3.974   0.170   0.837
 2633TIP3   OH2 7904   1.582   5.056   4.235
 2633TIP3    H1 7905   1.636   5.000   4.178
 2633TIP3    H2 7906   1.523   4.995   4.279
 2634TIP3   OH2 7907   6.221   4.804   5.167
 2634TIP3    H1 7908   6.283   4.803   5.094
 2634TIP3    H2 7909   6.277   4.814   5.245
 2635TIP3   OH2 7910   2.827   3.671   2.323
 2635TIP3    H1 7911   2.879   3.681   2.243
 2635TIP3    H2 7912   2.793   3.582   2.318
 2636TIP3   OH2 7913   3.452   4.475   1.311
 2636TIP3    H1 7914   3.448   4.541   1.379
 2636TIP3    H2 7915   3.361   4.446   1.299
 2637TIP3   OH2 7916   4.792   5.151   1.199
 2637TIP3    H1 7917   4.757   5.178   1.284
 2637TIP3    H2 7918   4.725   5.180   1.136
 2638TIP3   OH2 7919   0.742   1.099   3.840
 2638TIP3    H1 7920   0.729   1.008   3.817
 2638TIP3    H2 7921   0.694   1.148   3.774
 2639TIP3   OH2 7922   0.809   0.702   4.681
 2639TIP3    H1 7923   0.889   0.738   4.642
 2639TIP3    H2 7924   0.841   0.634   4.740
 2640TIP3   OH2 7925   5.317   3.192   1.225
 2640TIP3    H1 7926   5.292   3.145   1.146
 2640TIP3    H2 7927   5.361   3.271   1.192
 2641TIP3   OH2 7928   4.215   5.373   1.429
 2641TIP3    H1 7929   4.281   5.371   1.359
 2641TIP3    H2 7930   4.184   5.464   1.429
 2642TIP3   OH2 7931   0.269   4.422   1.343
 2642TIP3    H1 7932   0.179   4.450   1.330
 2642TIP3    H2 7933   0.263   4.327   1.358
 2643TIP3   OH2 7934   0.469   1.596   2.661
 2643TIP3    H1 7935   0.450   1.678   2.616
 2643TIP3    H2 7936   0.560   1.606   2.689
 2644TIP3   OH2 7937   0.296   2.648   4.540
 2644TIP3    H1 7938   0.252   2.600   4.610
 2644TIP3    H2 7939   0.334   2.724   4.584
 2645TIP3   OH2 7940   4.269   4.615   2.785
 2645TIP3    H1 7941   4.316   4.663   2.853
 2645TIP3    H2 7942   4.291   4.523   2.800
 2646TIP3   OH2 7943   1.112   1.205   4.127
 2646TIP3    H1 7944   1.067   1.210   4.043
 2646TIP3    H2 7945   1.056   1.253   4.188
 2647TIP3   OH2 7946   4.630   3.077   1.606
 2647TIP3    H1 7947   4.651   2.983   1.608
 2647TIP3    H2 7948   4.713   3.121   1.621
 2648TIP3   OH2 7949   4.093   0.816   2.352
 2648TIP3    H1 7950   4.058   0.729   2.366
 2648TIP3    H2 7951   4.029   0.875   2.392
 2649TIP3   OH2 7952   1.972   3.491   2.139
 2649TIP3    H1 7953   1.980   3.470   2.046
 2649TIP3    H2 7954   1.995   3.410   2.184
 2650TIP3   OH2 7955   5.120   4.877   1.134
 2650TIP3    H1 7956   5.032   4.849   1.159
 2650TIP3    H2 7957   5.151   4.929   1.208
 2651TIP3   OH2 7958   0.314   4.770   4.062
 2651TIP3    H1 7959   0.273   4.772   3.976
 2651TIP3    H2 7960   0.267   4.703   4.110
 2652TIP3   OH2 7961   4.258   0.150   1.127
 2652TIP3    H1 7962   4.232   0.152   1.034
 2652TIP3    H2 7963   4.175   0.145   1.175
 2653TIP3   OH2 7964   1.442   3.162   0.458
 2653TIP3    H1 7965   1.445   3.132   0.549
 2653TIP3    H2 7966   1.363   3.122   0.423
 2654TIP3   OH2 7967   4.884   5.964   1.527
 2654TIP3    H1 7968   4.945   6.038   1.533
 2654TIP3    H2 7969   4.911   5.917   1.448
 2655TIP3   OH2 7970   1.753   6.007   1.521
 2655TIP3    H1 7971   1.689   5.940   1.500
 2655TIP3    H2 7972   1.727   6.083   1.467
 2656TIP3   OH2 7973   4.969   4.401   3.486
 2656TIP3    H1 7974   4.915   4.379   3.410
 2656TIP3    H2 7975   5.056   4.367   3.465
 2657TIP3   OH2 7976   0.735   4.905   1.304
 2657TIP3    H1 7977   0.794   4.878   1.375
 2657TIP3    H2 7978   0.649   4.873   1.332
 2658TIP3   OH2 7979   1.631   4.107   0.601
 2658TIP3    H1 7980   1.621   4.023   0.557
 2658TIP3    H2 7981   1.716   4.103   0.644
 2659TIP3   OH2 7982   2.243   3.693   0.094
 2659TIP3    H1 7983   2.158   3.714   0.131
 2659TIP3    H2 7984   2.284   3.635   0.158
 2660TIP3   OH2 7985   3.791   4.975   2.670
 2660TIP3    H1 7986   3.756   4.899   2.716
 2660TIP3    H2 7987   3.881   4.950   2.648
 2661TIP3   OH2 7988   1.326   1.042   4.985
 2661TIP3    H1 7989   1.269   1.010   4.914
 2661TIP3    H2 7990   1.266   1.069   5.054
 2662TIP3   OH2 7991   4.461   2.973   0.800
 2662TIP3    H1 7992   4.407   3.031   0.854
 2662TIP3    H2 7993   4.453   3.008   0.711
 2663TIP3   OH2 7994   0.045   5.154   1.906
 2663TIP3    H1 7995   0.080   5.174   1.993
 2663TIP3    H2 7996   0.031   5.239   1.865
 2664TIP3   OH2 7997   2.270   4.786   1.160
 2664TIP3    H1 7998   2.364   4.788   1.175
 2664TIP3    H2 7999   2.260   4.742   1.075
 2665TIP3   OH2 8000   2.682   0.749   1.912
 2665TIP3    H1 8001   2.681   0.738   2.007
 2665TIP3    H2 8002   2.685   0.660   1.878
 2666TIP3   OH2 8003   0.094   4.533   0.526
 2666TIP3    H1 8004   0.009   4.494   0.508
 2666TIP3    H2 8005   0.147   4.460   0.558
 2667TIP3   OH2 8006   0.483   2.971   1.234
 2667TIP3    H1 8007   0.410   2.939   1.180
 2667TIP3    H2 8008   0.507   2.896   1.288
 2668TIP3   OH2 8009   0.593   1.100  -0.024
 2668TIP3    H1 8010   0.668   1.092   0.035
 2668TIP3    H2 8011   0.536   1.164   0.017
 2669TIP3   OH2 8012   2.092   0.807   1.813
 2669TIP3    H1 8013   2.169   0.785   1.866
 2669TIP3    H2 8014   2.066   0.724   1.773
 2670TIP3   OH2 8015   1.946   1.539   2.642
 2670TIP3    H1 8016   1.937   1.531   2.737
 2670TIP3    H2 8017   2.038   1.521   2.625
 2671TIP3   OH2 8018   5.095   4.855   0.847
 2671TIP3    H1 8019   5.183   4.873   0.813
 2671TIP3    H2 8020   5.101   4.876   0.941
 2672TIP3   OH2 8021   0.607   3.350   3.748
 2672TIP3    H1 8022   0.517   3.343   3.781
 2672TIP3    H2 8023   0.607   3.431   3.697
 2673TIP3   OH2 8024   4.243   4.147   2.000
 2673TIP3    H1 8025   4.181   4.078   2.025
 2673TIP3    H2 8026   4.250   4.140   1.905
 2674TIP3   OH2 8027   2.597   3.347   4.293
 2674TIP3    H1 8028   2.610   3.413   4.361
 2674TIP3    H2 8029   2.578   3.266   4.340
 2675TIP3   OH2 8030   3.205   5.817   1.865
 2675TIP3    H1 8031   3.256   5.737   1.850
 2675TIP3    H2 8032   3.120   5.785   1.895
 2676TIP3   OH2 8033   4.129   4.188   3.756
 2676TIP3    H1 8034   4.071   4.247   3.708
 2676TIP3    H2 8035   4.164   4.130   3.688
 2677TIP3   OH2 8036   5.016   4.263   0.141
 2677TIP3    H1 8037   4.997   4.188   0.198
 2677TIP3    H2 8038   4.966   4.335   0.179
 2678TIP3   OH2 8039   3.292   5.231   0.201
 2678TIP3    H1 8040   3.354   5.303   0.217
 2678TIP3    H2 8041   3.346   5.152   0.210
 2679TIP3   OH2 8042   3.649   4.090   0.493
 2679TIP3    H1 8043   3.734   4.048   0.507
 2679TIP3    H2 8044   3.613   4.046   0.415
 2680TIP3   OH2 8045   4.851   4.904   2.436
 2680TIP3    H1 8046   4.798   4.971   2.480
 2680TIP3    H2 8047   4.874   4.942   2.352
 2681TIP3   OH2 8048   1.523   2.918   5.175
 2681TIP3    H1 8049   1.444   2.972   5.178
 2681TIP3    H2 8050   1.555   2.927   5.085
 2682TIP3   OH2 8051   5.465   0.316   2.002
 2682TIP3    H1 8052   5.558   0.295   2.013
 2682TIP3    H2 8053   5.423   0.232   1.988
 2683TIP3   OH2 8054   3.555   2.637   0.149
 2683TIP3    H1 8055   3.493   2.696   0.193
 2683TIP3    H2 8056   3.617   2.612   0.218
 2684TIP3   OH2 8057   1.963   1.776   3.841
 2684TIP3    H1 8058   2.050   1.745   3.817
 2684TIP3    H2 8059   1.977   1.828   3.920
 2685TIP3   OH2 8060  -0.028   4.133   0.951
 2685TIP3    H1 8061  -0.061   4.212   0.909
 2685TIP3    H2 8062   0.061   4.155   0.979
 2686TIP3   OH2 8063   5.885   2.297   1.077
 2686TIP3    H1 8064   5.877   2.345   1.159
 2686TIP3    H2 8065   5.810   2.326   1.025
 2687TIP3   OH2 8066   4.094   0.399   2.589
 2687TIP3    H1 8067   4.061   0.309   2.586
 2687TIP3    H2 8068   4.023   0.449   2.629
 2688TIP3   OH2 8069   1.886   5.635   3.329
 2688TIP3    H1 8070   1.974   5.660   3.301
 2688TIP3    H2 8071   1.866   5.694   3.402
 2689TIP3   OH2 8072   4.054   5.195   0.164
 2689TIP3    H1 8073   4.018   5.238   0.241
 2689TIP3    H2 8074   4.063   5.103   0.191
 2690TIP3   OH2 8075   4.831   2.826   1.193
 2690TIP3    H1 8076   4.876   2.822   1.277
 2690TIP3    H2 8077   4.890   2.782   1.132
 2691TIP3   OH2 8078   5.931   3.923   3.521
 2691TIP3    H1 8079   6.022   3.912   3.549
 2691TIP3    H2 8080   5.899   3.833   3.512
 2692TIP3   OH2 8081   5.744   5.248   4.897
 2692TIP3    H1 8082   5.708   5.335   4.913
 2692TIP3    H2 8083   5.731   5.201   4.979
 2693TIP3   OH2 8084   5.305   3.206   2.359
 2693TIP3    H1 8085   5.258   3.253   2.428
 2693TIP3    H2 8086   5.397   3.229   2.372
 2694TIP3   OH2 8087   2.811   4.271   0.146
 2694TIP3    H1 8088   2.846   4.315   0.068
 2694TIP3    H2 8089   2.824   4.334   0.217
 2695TIP3   OH2 8090   1.190   3.462   0.580
 2695TIP3    H1 8091   1.171   3.551   0.549
 2695TIP3    H2 8092   1.275   3.441   0.541
 2696TIP3   OH2 8093   4.537   0.484   0.861
 2696TIP3    H1 8094   4.630   0.503   0.871
 2696TIP3    H2 8095   4.493   0.560   0.900
 2697TIP3   OH2 8096   0.586   0.557   3.462
 2697TIP3    H1 8097   0.498   0.594   3.453
 2697TIP3    H2 8098   0.633   0.619   3.518
 2698TIP3   OH2 8099   1.618   2.467   0.911
 2698TIP3    H1 8100   1.680   2.414   0.962
 2698TIP3    H2 8101   1.567   2.515   0.977
 2699TIP3   OH2 8102   3.241   4.240   4.128
 2699TIP3    H1 8103   3.330   4.273   4.113
 2699TIP3    H2 8104   3.211   4.213   4.041
 2700TIP3   OH2 8105   0.423   4.962   1.716
 2700TIP3    H1 8106   0.433   5.037   1.657
 2700TIP3    H2 8107   0.506   4.915   1.709
 2701TIP3   OH2 8108   3.761   1.307   1.033
 2701TIP3    H1 8109   3.700   1.380   1.019
 2701TIP3    H2 8110   3.712   1.229   1.008
 2702TIP3   OH2 8111   4.091   3.185   3.836
 2702TIP3    H1 8112   4.047   3.158   3.755
 2702TIP3    H2 8113   4.089   3.281   3.834
 2703TIP3   OH2 8114   0.346   2.161   0.635
 2703TIP3    H1 8115   0.253   2.174   0.616
 2703TIP3    H2 8116   0.348   2.137   0.728
 2704TIP3   OH2 8117   3.343   3.902   0.937
 2704TIP3    H1 8118   3.380   3.835   0.995
 2704TIP3    H2 8119   3.379   3.882   0.851
 2705TIP3   OH2 8120   3.794   2.789   1.072
 2705TIP3    H1 8121   3.870   2.827   1.029
 2705TIP3    H2 8122   3.799   2.695   1.052
 2706TIP3   OH2 8123   5.886   5.598   3.831
 2706TIP3    H1 8124   5.806   5.646   3.854
 2706TIP3    H2 8125   5.882   5.519   3.884
 2707TIP3   OH2 8126   5.477   0.798   0.192
 2707TIP3    H1 8127   5.535   0.872   0.176
 2707TIP3    H2 8128   5.391   0.838   0.209
 2708TIP3   OH2 8129   0.073   0.294   4.985
 2708TIP3    H1 8130   0.142   0.230   5.002
 2708TIP3    H2 8131  -0.008   0.242   4.983
 2709TIP3   OH2 8132   4.618   2.418   2.432
 2709TIP3    H1 8133   4.670   2.490   2.468
 2709TIP3    H2 8134   4.682   2.359   2.393
 2710TIP3   OH2 8135   2.297   3.641   2.406
 2710TIP3    H1 8136   2.275   3.559   2.452
 2710TIP3    H2 8137   2.221   3.657   2.349
 2711TIP3   OH2 8138   1.654   5.130   3.311
 2711TIP3    H1 8139   1.567   5.129   3.271
 2711TIP3    H2 8140   1.648   5.197   3.380
 2712TIP3   OH2 8141   0.151   2.555   4.761
 2712TIP3    H1 8142   0.118   2.467   4.741
 2712TIP3    H2 8143   0.179   2.551   4.852
 2713TIP3   OH2 8144   0.622   5.648   3.057
 2713TIP3    H1 8145   0.554   5.661   2.991
 2713TIP3    H2 8146   0.613   5.557   3.083
 2714TIP3   OH2 8147   6.293   2.425   0.387
 2714TIP3    H1 8148   6.338   2.510   0.392
 2714TIP3    H2 8149   6.363   2.361   0.400
 2715TIP3   OH2 8150   1.165   5.554   3.393
 2715TIP3    H1 8151   1.183   5.521   3.305
 2715TIP3    H2 8152   1.248   5.591   3.423
 2716TIP3   OH2 8153   5.293   5.711   3.527
 2716TIP3    H1 8154   5.199   5.728   3.519
 2716TIP3    H2 8155   5.331   5.754   3.451
 2717TIP3   OH2 8156   1.154   4.167   2.220
 2717TIP3    H1 8157   1.157   4.238   2.157
 2717TIP3    H2 8158   1.136   4.089   2.168
 2718TIP3   OH2 8159   1.292   1.749   1.374
 2718TIP3    H1 8160   1.249   1.720   1.294
 2718TIP3    H2 8161   1.339   1.672   1.406
 2719TIP3   OH2 8162   1.861   4.067   1.003
 2719TIP3    H1 8163   1.951   4.066   0.970
 2719TIP3    H2 8164   1.866   4.115   1.085
 2720TIP3   OH2 8165   0.853   4.248   0.587
 2720TIP3    H1 8166   0.793   4.234   0.660
 2720TIP3    H2 8167   0.810   4.316   0.534
 2721TIP3   OH2 8168   1.792   0.797   0.850
 2721TIP3    H1 8169   1.879   0.803   0.810
 2721TIP3    H2 8170   1.753   0.883   0.834
 2722TIP3   OH2 8171   2.698   4.634   1.368
 2722TIP3    H1 8172   2.728   4.596   1.450
 2722TIP3    H2 8173   2.700   4.729   1.383
 2723TIP3   OH2 8174   2.855   1.079   2.788
 2723TIP3    H1 8175   2.897   1.147   2.841
 2723TIP3    H2 8176   2.827   1.014   2.852
 2724TIP3   OH2 8177   0.068   1.061   1.085
 2724TIP3    H1 8178   0.138   1.095   1.141
 2724TIP3    H2 8179   0.002   1.029   1.146
 2725TIP3   OH2 8180   4.579   3.024   2.156
 2725TIP3    H1 8181   4.487   3.013   2.180
 2725TIP3    H2 8182   4.613   3.087   2.219
 2726TIP3   OH2 8183   4.833   3.872   4.120
 2726TIP3    H1 8184   4.792   3.792   4.087
 2726TIP3    H2 8185   4.898   3.894   4.053
 2727TIP3   OH2 8186   1.532   2.451   0.569
 2727TIP3    H1 8187   1.483   2.484   0.494
 2727TIP3    H2 8188   1.621   2.438   0.535
 2728TIP3   OH2 8189   3.323   3.472   1.622
 2728TIP3    H1 8190   3.238   3.429   1.621
 2728TIP3    H2 8191   3.327   3.522   1.541
 2729TIP3   OH2 8192   2.977   2.363   3.031
 2729TIP3    H1 8193   3.000   2.339   3.121
 2729TIP3    H2 8194   3.010   2.452   3.021
 2730TIP3   OH2 8195   2.284   1.089   2.321
 2730TIP3    H1 8196   2.295   1.103   2.227
 2730TIP3    H2 8197   2.373   1.075   2.354
 2731TIP3   OH2 8198   5.590   5.055   2.350
 2731TIP3    H1 8199   5.554   5.144   2.347
 2731TIP3    H2 8200   5.668   5.063   2.404
 2732TIP3   OH2 8201   3.303   1.564   1.841
 2732TIP3    H1 8202   3.334   1.653   1.858
 2732TIP3    H2 8203   3.279   1.565   1.749
 2733TIP3   OH2 8204   3.905   0.593   4.058
 2733TIP3    H1 8205   3.816   0.583   4.021
 2733TIP3    H2 8206   3.909   0.684   4.086
 2734TIP3   OH2 8207   2.805   5.491   4.035
 2734TIP3    H1 8208   2.758   5.420   3.991
 2734TIP3    H2 8209   2.877   5.447   4.080
 2735TIP3   OH2 8210   5.209   2.348   3.617
 2735TIP3    H1 8211   5.178   2.328   3.705
 2735TIP3    H2 8212   5.183   2.273   3.564
 2736TIP3   OH2 8213   5.337   4.612   2.317
 2736TIP3    H1 8214   5.268   4.643   2.376
 2736TIP3    H2 8215   5.400   4.684   2.315
 2737TIP3   OH2 8216   5.191   0.998   4.258
 2737TIP3    H1 8217   5.189   1.056   4.182
 2737TIP3    H2 8218   5.225   1.052   4.329
 2738TIP3   OH2 8219   3.165   2.603   0.081
 2738TIP3    H1 8220   3.079   2.643   0.063
 2738TIP3    H2 8221   3.199   2.579  -0.005
 2739TIP3   OH2 8222   3.621   0.203   4.983
 2739TIP3    H1 8223   3.563   0.262   5.032
 2739TIP3    H2 8224   3.692   0.183   5.044
 2740TIP3   OH2 8225   2.323   2.003   4.829
 2740TIP3    H1 8226   2.250   1.965   4.877
 2740TIP3    H2 8227   2.400   1.980   4.882
 2741TIP3   OH2 8228   5.778   4.355   0.365
 2741TIP3    H1 8229   5.711   4.422   0.380
 2741TIP3    H2 8230   5.793   4.316   0.451
 2742TIP3   OH2 8231   2.489   2.944   4.689
 2742TIP3    H1 8232   2.494   2.851   4.665
 2742TIP3    H2 8233   2.403   2.972   4.658
 2743TIP3   OH2 8234   6.248   2.559   0.685
 2743TIP3    H1 8235   6.215   2.470   0.670
 2743TIP3    H2 8236   6.340   2.547   0.709
 2744TIP3   OH2 8237   2.345   2.543   3.922
 2744TIP3    H1 8238   2.380   2.563   3.835
 2744TIP3    H2 8239   2.402   2.473   3.955
 2745TIP3   OH2 8240   0.780   1.722   2.155
 2745TIP3    H1 8241   0.710   1.785   2.170
 2745TIP3    H2 8242   0.852   1.751   2.211
 2746TIP3   OH2 8243   3.703   2.136   5.075
 2746TIP3    H1 8244   3.628   2.195   5.067
 2746TIP3    H2 8245   3.777   2.186   5.041
 2747TIP3   OH2 8246   3.491   2.884   3.243
 2747TIP3    H1 8247   3.516   2.913   3.331
 2747TIP3    H2 8248   3.530   2.797   3.234
 2748TIP3   OH2 8249   5.747   3.051   4.312
 2748TIP3    H1 8250   5.720   3.143   4.312
 2748TIP3    H2 8251   5.843   3.054   4.321
 2749TIP3   OH2 8252   6.238   2.522   0.131
 2749TIP3    H1 8253   6.276   2.472   0.203
 2749TIP3    H2 8254   6.203   2.601   0.171
 2750TIP3   OH2 8255   2.468   4.193   1.361
 2750TIP3    H1 8256   2.408   4.222   1.292
 2750TIP3    H2 8257   2.431   4.110   1.391
 2751TIP3   OH2 8258   0.443   2.020   1.881
 2751TIP3    H1 8259   0.372   2.081   1.863
 2751TIP3    H2 8260   0.515   2.050   1.825
 2752TIP3   OH2 8261   4.646   3.590   3.240
 2752TIP3    H1 8262   4.649   3.499   3.271
 2752TIP3    H2 8263   4.555   3.616   3.254
 2753TIP3   OH2 8264   1.702   3.565   2.480
 2753TIP3    H1 8265   1.725   3.586   2.389
 2753TIP3    H2 8266   1.779   3.519   2.514
 2754TIP3   OH2 8267   6.092   5.181  -0.020
 2754TIP3    H1 8268   6.141   5.161   0.059
 2754TIP3    H2 8269   6.042   5.101  -0.038
 2755TIP3   OH2 8270   5.998   5.113   4.481
 2755TIP3    H1 8271   5.934   5.178   4.510
 2755TIP3    H2 8272   6.022   5.066   4.561
 2756TIP3   OH2 8273   0.943   4.575   0.800
 2756TIP3    H1 8274   1.000   4.499   0.809
 2756TIP3    H2 8275   0.917   4.575   0.708
 2757TIP3   OH2 8276   5.487   1.157   2.826
 2757TIP3    H1 8277   5.457   1.244   2.851
 2757TIP3    H2 8278   5.499   1.111   2.909
 2758TIP3   OH2 8279   4.510   2.124   4.608
 2758TIP3    H1 8280   4.587   2.083   4.568
 2758TIP3    H2 8281   4.444   2.054   4.608
 2759TIP3   OH2 8282   3.260   6.015   3.997
 2759TIP3    H1 8283   3.278   5.956   4.071
 2759TIP3    H2 8284   3.233   6.097   4.037
 2760TIP3   OH2 8285   0.006   2.483   3.646
 2760TIP3    H1 8286   0.061   2.548   3.603
 2760TIP3    H2 8287  -0.016   2.522   3.731
 2761TIP3   OH2 8288   4.036   0.161   4.872
 2761TIP3    H1 8289   4.009   0.251   4.890
 2761TIP3    H2 8290   4.128   0.156   4.900
 2762TIP3   OH2 8291   1.662   4.382   0.557
 2762TIP3    H1 8292   1.742   4.417   0.519
 2762TIP3    H2 8293   1.674   4.287   0.556
 2763TIP3   OH2 8294   5.017   4.790   4.772
 2763TIP3    H1 8295   5.072   4.713   4.780
 2763TIP3    H2 8296   4.958   4.771   4.700
 2764TIP3   OH2 8297   2.615   3.221   1.796
 2764TIP3    H1 8298   2.623   3.303   1.845
 2764TIP3    H2 8299   2.655   3.155   1.853
 2765TIP3   OH2 8300   4.300   2.288   4.148
 2765TIP3    H1 8301   4.313   2.362   4.089
 2765TIP3    H2 8302   4.351   2.310   4.226
 2766TIP3   OH2 8303   6.110   0.383   4.128
 2766TIP3    H1 8304   6.130   0.307   4.074
 2766TIP3    H2 8305   6.126   0.458   4.070
 2767TIP3   OH2 8306   4.721   1.530   0.848
 2767TIP3    H1 8307   4.677   1.597   0.900
 2767TIP3    H2 8308   4.740   1.572   0.764
 2768TIP3   OH2 8309   0.018   0.145   4.283
 2768TIP3    H1 8310   0.025   0.212   4.350
 2768TIP3    H2 8311  -0.042   0.080   4.319
 2769TIP3   OH2 8312   5.621   1.512   4.122
 2769TIP3    H1 8313   5.694   1.463   4.085
 2769TIP3    H2 8314   5.657   1.597   4.146
 2770TIP3   OH2 8315   2.727   0.423   1.561
 2770TIP3    H1 8316   2.706   0.512   1.531
 2770TIP3    H2 8317   2.820   0.412   1.537
 2771TIP3   OH2 8318   1.823   2.222   2.716
 2771TIP3    H1 8319   1.740   2.188   2.681
 2771TIP3    H2 8320   1.817   2.316   2.705
 2772TIP3   OH2 8321   4.648   0.800   5.157
 2772TIP3    H1 8322   4.740   0.826   5.148
 2772TIP3    H2 8323   4.603   0.845   5.086
 2773TIP3   OH2 8324   6.317   2.748   4.743
 2773TIP3    H1 8325   6.390   2.690   4.721
 2773TIP3    H2 8326   6.329   2.768   4.836
 2774TIP3   OH2 8327   1.275   1.785   0.662
 2774TIP3    H1 8328   1.286   1.839   0.584
 2774TIP3    H2 8329   1.199   1.822   0.707
 2775TIP3   OH2 8330   4.417   4.626   1.045
 2775TIP3    H1 8331   4.431   4.543   1.091
 2775TIP3    H2 8332   4.465   4.618   0.963
 2776TIP3   OH2 8333   2.088   5.018   1.751
 2776TIP3    H1 8334   2.180   4.990   1.754
 2776TIP3    H2 8335   2.079   5.062   1.667
 2777TIP3   OH2 8336   3.096   4.582   0.078
 2777TIP3    H1 8337   3.019   4.545   0.122
 2777TIP3    H2 8338   3.127   4.650   0.137
 2778TIP3   OH2 8339   2.206   1.976   0.326
 2778TIP3    H1 8340   2.207   2.046   0.391
 2778TIP3    H2 8341   2.137   2.002   0.265
 2779TIP3   OH2 8342   4.590   5.286   4.524
 2779TIP3    H1 8343   4.529   5.217   4.500
 2779TIP3    H2 8344   4.673   5.260   4.485
 2780TIP3   OH2 8345   0.553   4.622   4.156
 2780TIP3    H1 8346   0.555   4.642   4.250
 2780TIP3    H2 8347   0.488   4.683   4.121
 2781TIP3   OH2 8348   3.334   0.617   4.840
 2781TIP3    H1 8349   3.278   0.694   4.832
 2781TIP3    H2 8350   3.420   0.651   4.861
 2782TIP3   OH2 8351   0.648   5.631   4.069
 2782TIP3    H1 8352   0.611   5.719   4.079
 2782TIP3    H2 8353   0.607   5.596   3.990
 2783TIP3   OH2 8354   3.912   3.757   1.278
 2783TIP3    H1 8355   3.894   3.684   1.337
 2783TIP3    H2 8356   3.956   3.716   1.203
 2784TIP3   OH2 8357   3.812   3.922   4.422
 2784TIP3    H1 8358   3.754   3.881   4.486
 2784TIP3    H2 8359   3.898   3.885   4.439
 2785TIP3   OH2 8360   5.221   4.283   0.683
 2785TIP3    H1 8361   5.278   4.225   0.733
 2785TIP3    H2 8362   5.279   4.351   0.650
 2786TIP3   OH2 8363   0.632   0.489   0.335
 2786TIP3    H1 8364   0.683   0.424   0.382
 2786TIP3    H2 8365   0.665   0.573   0.366
 2787TIP3   OH2 8366   1.199   4.332   1.515
 2787TIP3    H1 8367   1.255   4.301   1.586
 2787TIP3    H2 8368   1.189   4.257   1.457
 2788TIP3   OH2 8369   1.825   5.246   3.793
 2788TIP3    H1 8370   1.789   5.231   3.880
 2788TIP3    H2 8371   1.775   5.320   3.758
 2789TIP3   OH2 8372   1.998   0.126   1.749
 2789TIP3    H1 8373   1.988   0.180   1.671
 2789TIP3    H2 8374   2.015   0.189   1.819
 2790TIP3   OH2 8375   5.007   5.426   5.153
 2790TIP3    H1 8376   5.006   5.458   5.243
 2790TIP3    H2 8377   4.998   5.506   5.100
 2791TIP3   OH2 8378   0.938   4.759   4.106
 2791TIP3    H1 8379   0.889   4.690   4.149
 2791TIP3    H2 8380   0.987   4.801   4.177
 2792TIP3   OH2 8381   4.394   1.043   2.759
 2792TIP3    H1 8382   4.351   0.994   2.688
 2792TIP3    H2 8383   4.323   1.065   2.819
 2793TIP3   OH2 8384   3.018   2.795   4.085
 2793TIP3    H1 8385   3.035   2.867   4.025
 2793TIP3    H2 8386   2.923   2.793   4.095
 2794TIP3   OH2 8387   5.493   2.465   1.189
 2794TIP3    H1 8388   5.405   2.494   1.214
 2794TIP3    H2 8389   5.479   2.391   1.131
 2795TIP3   OH2 8390   1.841   2.782   3.138
 2795TIP3    H1 8391   1.819   2.744   3.223
 2795TIP3    H2 8392   1.789   2.731   3.075
 2796TIP3   OH2 8393   2.072   1.911   1.973
 2796TIP3    H1 8394   2.038   1.822   1.973
 2796TIP3    H2 8395   1.996   1.966   1.993
 2797TIP3   OH2 8396   1.815   3.653   1.893
 2797TIP3    H1 8397   1.725   3.620   1.896
 2797TIP3    H2 8398   1.858   3.598   1.827
 2798TIP3   OH2 8399   5.990   1.780   2.409
 2798TIP3    H1 8400   5.916   1.736   2.367
 2798TIP3    H2 8401   5.951   1.825   2.485
 2799TIP3   OH2 8402   4.246   1.014   4.813
 2799TIP3    H1 8403   4.172   0.974   4.767
 2799TIP3    H2 8404   4.207   1.074   4.876
 2800TIP3   OH2 8405   0.336   5.569   3.165
 2800TIP3    H1 8406   0.291   5.546   3.083
 2800TIP3    H2 8407   0.299   5.509   3.230
 2801TIP3   OH2 8408   4.771   2.267   2.857
 2801TIP3    H1 8409   4.699   2.250   2.919
 2801TIP3    H2 8410   4.729   2.312   2.784
 2802TIP3   OH2 8411   4.353   2.733   0.180
 2802TIP3    H1 8412   4.313   2.807   0.135
 2802TIP3    H2 8413   4.405   2.773   0.250
 2803TIP3   OH2 8414   5.550   4.735   2.572
 2803TIP3    H1 8415   5.462   4.727   2.609
 2803TIP3    H2 8416   5.535   4.764   2.482
 2804TIP3   OH2 8417   0.344   1.637   1.739
 2804TIP3    H1 8418   0.389   1.661   1.658
 2804TIP3    H2 8419   0.252   1.626   1.714
 2805TIP3   OH2 8420   5.855   0.549   0.322
 2805TIP3    H1 8421   5.872   0.599   0.402
 2805TIP3    H2 8422   5.918   0.477   0.325
 2806TIP3   OH2 8423   4.445   2.875   3.263
 2806TIP3    H1 8424   4.538   2.891   3.277
 2806TIP3    H2 8425   4.431   2.892   3.170
 2807TIP3   OH2 8426   5.098   1.859   4.941
 2807TIP3    H1 8427   5.046   1.795   4.893
 2807TIP3    H2 8428   5.090   1.940   4.890
 2808TIP3   OH2 8429   5.155   0.745   5.162
 2808TIP3    H1 8430   5.161   0.805   5.236
 2808TIP3    H2 8431   5.061   0.728   5.152
 2809TIP3   OH2 8432   0.755   4.623   3.363
 2809TIP3    H1 8433   0.769   4.572   3.283
 2809TIP3    H2 8434   0.750   4.557   3.432
 2810TIP3   OH2 8435   0.914   5.724   0.168
 2810TIP3    H1 8436   0.970   5.676   0.229
 2810TIP3    H2 8437   0.966   5.800   0.142
 2811TIP3   OH2 8438   1.995   1.910   4.066
 2811TIP3    H1 8439   1.977   1.850   4.138
 2811TIP3    H2 8440   2.076   1.954   4.092
 2812TIP3   OH2 8441   3.486   4.578   0.386
 2812TIP3    H1 8442   3.499   4.662   0.431
 2812TIP3    H2 8443   3.567   4.563   0.339
 2813TIP3   OH2 8444   4.139   3.582   2.728
 2813TIP3    H1 8445   4.211   3.580   2.791
 2813TIP3    H2 8446   4.093   3.499   2.742
 2814TIP3   OH2 8447   6.023   3.566   2.224
 2814TIP3    H1 8448   6.042   3.561   2.317
 2814TIP3    H2 8449   6.064   3.648   2.195
 2815TIP3   OH2 8450   1.522   4.956   2.854
 2815TIP3    H1 8451   1.528   5.047   2.825
 2815TIP3    H2 8452   1.440   4.952   2.903
 2816TIP3   OH2 8453   3.409   0.135   1.314
 2816TIP3    H1 8454   3.468   0.131   1.239
 2816TIP3    H2 8455   3.367   0.049   1.317
 2817TIP3   OH2 8456   5.985   4.816   3.166
 2817TIP3    H1 8457   6.001   4.811   3.072
 2817TIP3    H2 8458   5.895   4.786   3.177
 2818TIP3   OH2 8459   5.447   1.981   4.636
 2818TIP3    H1 8460   5.451   1.909   4.573
 2818TIP3    H2 8461   5.479   1.944   4.718
 2819TIP3   OH2 8462   2.240   0.289   1.644
 2819TIP3    H1 8463   2.275   0.257   1.727
 2819TIP3    H2 8464   2.316   0.314   1.593
 2820TIP3   OH2 8465   0.576   1.228   1.376
 2820TIP3    H1 8466   0.495   1.186   1.405
 2820TIP3    H2 8467   0.623   1.249   1.456
 2821TIP3   OH2 8468   1.281   3.364   0.189
 2821TIP3    H1 8469   1.196   3.396   0.217
 2821TIP3    H2 8470   1.315   3.434   0.132
 2822TIP3   OH2 8471   5.595   1.556   3.194
 2822TIP3    H1 8472   5.651   1.491   3.152
 2822TIP3    H2 8473   5.592   1.629   3.132
 2823TIP3   OH2 8474   4.327   0.504   3.819
 2823TIP3    H1 8475   4.312   0.562   3.744
 2823TIP3    H2 8476   4.262   0.531   3.884
 2824TIP3   OH2 8477   2.775   0.076   0.786
 2824TIP3    H1 8478   2.796  -0.006   0.741
 2824TIP3    H2 8479   2.681   0.088   0.772
 2825TIP3   OH2 8480   3.331   1.938   0.554
 2825TIP3    H1 8481   3.279   1.933   0.475
 2825TIP3    H2 8482   3.306   1.861   0.605
 2826TIP3   OH2 8483   1.477   0.160   3.005
 2826TIP3    H1 8484   1.566   0.154   3.038
 2826TIP3    H2 8485   1.466   0.082   2.950
 2827TIP3   OH2 8486   5.365   5.329   3.347
 2827TIP3    H1 8487   5.366   5.417   3.309
 2827TIP3    H2 8488   5.420   5.277   3.289
 2828TIP3   OH2 8489   3.309   2.894   1.512
 2828TIP3    H1 8490   3.228   2.917   1.558
 2828TIP3    H2 8491   3.281   2.837   1.441
 2829TIP3   OH2 8492   6.327   1.300   1.829
 2829TIP3    H1 8493   6.312   1.355   1.752
 2829TIP3    H2 8494   6.421   1.310   1.848
 2830TIP3   OH2 8495   6.146   5.287   4.382
 2830TIP3    H1 8496   6.096   5.358   4.424
 2830TIP3    H2 8497   6.099   5.207   4.405
 2831TIP3   OH2 8498   4.267   1.965   2.719
 2831TIP3    H1 8499   4.198   1.936   2.659
 2831TIP3    H2 8500   4.348   1.934   2.679
 2832TIP3   OH2 8501   1.554   4.639   4.649
 2832TIP3    H1 8502   1.564   4.555   4.694
 2832TIP3    H2 8503   1.506   4.694   4.710
 2833TIP3   OH2 8504   0.995   1.732   1.581
 2833TIP3    H1 8505   1.055   1.789   1.629
 2833TIP3    H2 8506   1.031   1.644   1.592
 2834TIP3   OH2 8507   1.581   3.898   4.570
 2834TIP3    H1 8508   1.640   3.889   4.495
 2834TIP3    H2 8509   1.502   3.851   4.543
 2835TIP3   OH2 8510   2.559   3.692   1.576
 2835TIP3    H1 8511   2.563   3.709   1.670
 2835TIP3    H2 8512   2.495   3.755   1.543
 2836TIP3   OH2 8513   2.206   3.362   1.495
 2836TIP3    H1 8514   2.298   3.383   1.487
 2836TIP3    H2 8515   2.161   3.424   1.437
 2837TIP3   OH2 8516   5.958   1.459   0.713
 2837TIP3    H1 8517   5.997   1.546   0.716
 2837TIP3    H2 8518   5.982   1.419   0.797
 2838TIP3   OH2 8519   4.188   5.293   0.864
 2838TIP3    H1 8520   4.180   5.370   0.807
 2838TIP3    H2 8521   4.157   5.220   0.810
 2839TIP3   OH2 8522   5.851   5.679   0.872
 2839TIP3    H1 8523   5.925   5.727   0.835
 2839TIP3    H2 8524   5.809   5.740   0.932
 2840TIP3   OH2 8525   0.435   3.778   0.744
 2840TIP3    H1 8526   0.440   3.738   0.657
 2840TIP3    H2 8527   0.376   3.853   0.732
 2841TIP3   OH2 8528   3.629   3.974   3.064
 2841TIP3    H1 8529   3.612   3.932   3.149
 2841TIP3    H2 8530   3.659   3.902   3.008
 2842TIP3   OH2 8531   2.714   0.214   2.390
 2842TIP3    H1 8532   2.665   0.293   2.369
 2842TIP3    H2 8533   2.806   0.242   2.392
 2843TIP3   OH2 8534   2.030   2.504   5.082
 2843TIP3    H1 8535   2.091   2.575   5.064
 2843TIP3    H2 8536   1.953   2.523   5.028
 2844TIP3   OH2 8537   5.571   5.074   3.619
 2844TIP3    H1 8538   5.496   5.018   3.601
 2844TIP3    H2 8539   5.533   5.157   3.647
 2845TIP3   OH2 8540   1.520   2.345   4.655
 2845TIP3    H1 8541   1.442   2.390   4.685
 2845TIP3    H2 8542   1.519   2.356   4.560
 2846TIP3   OH2 8543   0.972   5.143   0.592
 2846TIP3    H1 8544   1.026   5.070   0.623
 2846TIP3    H2 8545   1.034   5.204   0.553
 2847TIP3   OH2 8546   5.335   3.567   3.827
 2847TIP3    H1 8547   5.392   3.491   3.838
 2847TIP3    H2 8548   5.265   3.535   3.770
 2848TIP3   OH2 8549   2.571   3.128   0.769
 2848TIP3    H1 8550   2.656   3.169   0.788
 2848TIP3    H2 8551   2.586   3.078   0.689
 2849TIP3   OH2 8552   3.690   4.405   4.603
 2849TIP3    H1 8553   3.626   4.413   4.673
 2849TIP3    H2 8554   3.711   4.495   4.578
 2850TIP3   OH2 8555   1.272   1.538   1.038
 2850TIP3    H1 8556   1.325   1.536   0.958
 2850TIP3    H2 8557   1.272   1.448   1.069
 2851TIP3   OH2 8558   1.666   1.905   2.549
 2851TIP3    H1 8559   1.658   1.887   2.455
 2851TIP3    H2 8560   1.760   1.911   2.564
 2852TIP3   OH2 8561   2.428   3.840   1.362
 2852TIP3    H1 8562   2.407   3.921   1.315
 2852TIP3    H2 8563   2.433   3.773   1.293
 2853TIP3   OH2 8564   0.075   4.186   3.053
 2853TIP3    H1 8565   0.157   4.171   3.006
 2853TIP3    H2 8566   0.036   4.099   3.062
 2854TIP3   OH2 8567   2.657   1.639   1.887
 2854TIP3    H1 8568   2.592   1.660   1.955
 2854TIP3    H2 8569   2.680   1.723   1.849
 2855TIP3   OH2 8570   1.940   1.987   0.596
 2855TIP3    H1 8571   1.856   1.943   0.580
 2855TIP3    H2 8572   2.005   1.918   0.588
 2856TIP3   OH2 8573   3.491   4.332   4.401
 2856TIP3    H1 8574   3.519   4.258   4.347
 2856TIP3    H2 8575   3.560   4.340   4.468
 2857TIP3   OH2 8576   4.553   2.285   1.906
 2857TIP3    H1 8577   4.515   2.202   1.934
 2857TIP3    H2 8578   4.640   2.261   1.873
 2858TIP3   OH2 8579   5.681   4.100   1.011
 2858TIP3    H1 8580   5.700   4.021   0.961
 2858TIP3    H2 8581   5.737   4.168   0.973
 2859TIP3   OH2 8582   3.532   1.684   1.655
 2859TIP3    H1 8583   3.616   1.652   1.624
 2859TIP3    H2 8584   3.469   1.616   1.631
 2860TIP3   OH2 8585   5.567   3.519   1.071
 2860TIP3    H1 8586   5.534   3.546   1.157
 2860TIP3    H2 8587   5.491   3.527   1.013
 2861TIP3   OH2 8588   6.157   3.688   4.518
 2861TIP3    H1 8589   6.108   3.654   4.592
 2861TIP3    H2 8590   6.096   3.682   4.444
 2862TIP3   OH2 8591   0.913   5.995   0.446
 2862TIP3    H1 8592   0.992   6.047   0.459
 2862TIP3    H2 8593   0.942   5.904   0.455
 2863TIP3   OH2 8594   0.548   2.116   4.224
 2863TIP3    H1 8595   0.624   2.077   4.267
 2863TIP3    H2 8596   0.529   2.195   4.274
 2864TIP3   OH2 8597   1.051   1.373   1.117
 2864TIP3    H1 8598   0.997   1.420   1.181
 2864TIP3    H2 8599   1.126   1.342   1.167
 2865TIP3   OH2 8600   1.013   0.913   3.679
 2865TIP3    H1 8601   1.045   0.919   3.589
 2865TIP3    H2 8602   1.018   0.820   3.700
 2866TIP3   OH2 8603   1.725   5.324   2.260
 2866TIP3    H1 8604   1.744   5.238   2.296
 2866TIP3    H2 8605   1.715   5.309   2.166
 2867TIP3   OH2 8606   6.106   1.849   3.721
 2867TIP3    H1 8607   6.181   1.806   3.761
 2867TIP3    H2 8608   6.053   1.776   3.687
 2868TIP3   OH2 8609   3.952   4.486   3.391
 2868TIP3    H1 8610   3.894   4.510   3.464
 2868TIP3    H2 8611   3.980   4.569   3.354
 2869TIP3   OH2 8612   1.523   5.193   2.463
 2869TIP3    H1 8613   1.560   5.136   2.396
 2869TIP3    H2 8614   1.428   5.181   2.455
 2870TIP3   OH2 8615   1.176   2.830   2.128
 2870TIP3    H1 8616   1.128   2.768   2.074
 2870TIP3    H2 8617   1.112   2.863   2.191
 2871TIP3   OH2 8618   3.821   5.947   3.845
 2871TIP3    H1 8619   3.756   5.913   3.784
 2871TIP3    H2 8620   3.893   5.977   3.790
 2872TIP3   OH2 8621   0.728   0.893   1.843
 2872TIP3    H1 8622   0.752   0.840   1.919
 2872TIP3    H2 8623   0.655   0.947   1.874
 2873TIP3   OH2 8624   5.952   2.014   1.339
 2873TIP3    H1 8625   6.042   1.988   1.318
 2873TIP3    H2 8626   5.921   1.946   1.398
 2874TIP3   OH2 8627   4.527   1.030   0.447
 2874TIP3    H1 8628   4.441   0.994   0.423
 2874TIP3    H2 8629   4.517   1.054   0.539
 2875TIP3   OH2 8630   5.312   0.961   0.757
 2875TIP3    H1 8631   5.342   0.893   0.817
 2875TIP3    H2 8632   5.269   0.913   0.686
 2876TIP3   OH2 8633   2.627   3.768   4.027
 2876TIP3    H1 8634   2.576   3.693   3.997
 2876TIP3    H2 8635   2.640   3.821   3.949
 2877TIP3   OH2 8636   2.621   4.320   0.854
 2877TIP3    H1 8637   2.604   4.300   0.762
 2877TIP3    H2 8638   2.698   4.376   0.853
 2878TIP3   OH2 8639   0.590   1.552   3.143
 2878TIP3    H1 8640   0.529   1.611   3.098
 2878TIP3    H2 8641   0.646   1.519   3.073
 2879TIP3   OH2 8642   6.308   0.983   2.402
 2879TIP3    H1 8643   6.218   1.013   2.415
 2879TIP3    H2 8644   6.355   1.015   2.479
 2880TIP3   OH2 8645   4.291  -0.005   1.903
 2880TIP3    H1 8646   4.306   0.086   1.929
 2880TIP3    H2 8647   4.201  -0.007   1.871
 2881TIP3   OH2 8648   1.149   5.938   4.768
 2881TIP3    H1 8649   1.136   6.018   4.820
 2881TIP3    H2 8650   1.141   5.967   4.677
 2882TIP3   OH2 8651   6.308   2.293   2.381
 2882TIP3    H1 8652   6.340   2.383   2.378
 2882TIP3    H2 8653   6.217   2.301   2.410
 2883TIP3   OH2 8654   1.708   4.670   0.026
 2883TIP3    H1 8655   1.694   4.653   0.119
 2883TIP3    H2 8656   1.721   4.765   0.022
 2884TIP3   OH2 8657   4.083   2.119  -0.022
 2884TIP3    H1 8658   3.990   2.100  -0.033
 2884TIP3    H2 8659   4.091   2.152   0.067
 2885TIP3   OH2 8660   6.257   3.316   4.830
 2885TIP3    H1 8661   6.184   3.263   4.863
 2885TIP3    H2 8662   6.298   3.351   4.909
 2886TIP3   OH2 8663   2.023   3.200   4.217
 2886TIP3    H1 8664   2.070   3.156   4.146
 2886TIP3    H2 8665   1.934   3.166   4.212
 2887TIP3   OH2 8666   5.036   3.059   4.690
 2887TIP3    H1 8667   5.022   2.987   4.752
 2887TIP3    H2 8668   5.059   3.134   4.745
 2888TIP3   OH2 8669   4.046   3.317   2.812
 2888TIP3    H1 8670   3.969   3.298   2.865
 2888TIP3    H2 8671   4.118   3.273   2.857
 2889TIP3   OH2 8672   6.272   5.141   0.170
 2889TIP3    H1 8673   6.276   5.192   0.251
 2889TIP3    H2 8674   6.312   5.057   0.194
 2890TIP3   OH2 8675   3.781   4.080   0.187
 2890TIP3    H1 8676   3.742   4.125   0.113
 2890TIP3    H2 8677   3.783   3.988   0.161
 2891TIP3   OH2 8678   2.343   4.956   5.020
 2891TIP3    H1 8679   2.353   4.873   4.974
 2891TIP3    H2 8680   2.333   5.021   4.950
 2892TIP3   OH2 8681   1.874   3.431   3.746
 2892TIP3    H1 8682   1.960   3.413   3.785
 2892TIP3    H2 8683   1.828   3.482   3.814
 2893TIP3   OH2 8684   0.744   3.716   4.512
 2893TIP3    H1 8685   0.825   3.667   4.529
 2893TIP3    H2 8686   0.734   3.712   4.416
 2894TIP3   OH2 8687   2.466   5.056   3.153
 2894TIP3    H1 8688   2.399   5.046   3.220
 2894TIP3    H2 8689   2.471   5.151   3.139
 2895TIP3   OH2 8690   4.265   5.517   2.530
 2895TIP3    H1 8691   4.243   5.609   2.510
 2895TIP3    H2 8692   4.186   5.469   2.507
 2896TIP3   OH2 8693   4.186   1.968   0.538
 2896TIP3    H1 8694   4.118   1.925   0.485
 2896TIP3    H2 8695   4.268   1.940   0.499
 2897TIP3   OH2 8696   0.888   3.677   3.638
 2897TIP3    H1 8697   0.800   3.640   3.633
 2897TIP3    H2 8698   0.918   3.654   3.726
 2898TIP3   OH2 8699   4.125   5.057   3.543
 2898TIP3    H1 8700   4.199   5.011   3.582
 2898TIP3    H2 8701   4.048   5.020   3.586
 2899TIP3   OH2 8702   5.849   0.311   4.671
 2899TIP3    H1 8703   5.937   0.285   4.642
 2899TIP3    H2 8704   5.790   0.274   4.605
 2900TIP3   OH2 8705   3.585   5.619   4.249
 2900TIP3    H1 8706   3.553   5.670   4.175
 2900TIP3    H2 8707   3.514   5.558   4.268
 2901TIP3   OH2 8708   1.755   0.490   4.396
 2901TIP3    H1 8709   1.802   0.411   4.423
 2901TIP3    H2 8710   1.791   0.559   4.451
 2902TIP3   OH2 8711   0.758   3.155   4.667
 2902TIP3    H1 8712   0.820   3.162   4.594
 2902TIP3    H2 8713   0.759   3.063   4.692
 2903TIP3   OH2 8714   3.323   0.602   1.920
 2903TIP3    H1 8715   3.322   0.562   2.007
 2903TIP3    H2 8716   3.368   0.538   1.864
 2904TIP3   OH2 8717   1.319   2.551   2.286
 2904TIP3    H1 8718   1.398   2.600   2.311
 2904TIP3    H2 8719   1.351   2.464   2.262
 2905TIP3   OH2 8720   1.203   1.908   3.540
 2905TIP3    H1 8721   1.257   1.985   3.554
 2905TIP3    H2 8722   1.257   1.849   3.488
 2906TIP3   OH2 8723   1.824   0.607   3.950
 2906TIP3    H1 8724   1.786   0.552   4.019
 2906TIP3    H2 8725   1.800   0.562   3.868
 2907TIP3   OH2 8726   2.496   5.726   4.095
 2907TIP3    H1 8727   2.447   5.755   4.173
 2907TIP3    H2 8728   2.466   5.636   4.081
 2908TIP3   OH2 8729   2.473   4.510   3.871
 2908TIP3    H1 8730   2.497   4.561   3.793
 2908TIP3    H2 8731   2.397   4.556   3.906
 2909TIP3   OH2 8732   1.054   5.346   2.314
 2909TIP3    H1 8733   1.011   5.428   2.340
 2909TIP3    H2 8734   1.024   5.282   2.378
 2910TIP3   OH2 8735   3.813   2.339   3.781
 2910TIP3    H1 8736   3.885   2.284   3.812
 2910TIP3    H2 8737   3.852   2.398   3.717
 2911TIP3   OH2 8738   4.257   4.797   1.183
 2911TIP3    H1 8739   4.222   4.863   1.123
 2911TIP3    H2 8740   4.306   4.736   1.127
 2912TIP3   OH2 8741   1.885   4.164   4.524
 2912TIP3    H1 8742   1.956   4.125   4.575
 2912TIP3    H2 8743   1.875   4.106   4.449
 2913TIP3   OH2 8744   0.294   1.307   3.630
 2913TIP3    H1 8745   0.361   1.376   3.627
 2913TIP3    H2 8746   0.299   1.265   3.545
 2914TIP3   OH2 8747   0.315   4.811   4.817
 2914TIP3    H1 8748   0.363   4.892   4.801
 2914TIP3    H2 8749   0.373   4.759   4.873
 2915TIP3   OH2 8750   1.733   3.532   4.378
 2915TIP3    H1 8751   1.702   3.486   4.456
 2915TIP3    H2 8752   1.706   3.476   4.305
 2916TIP3   OH2 8753   0.041   5.272   4.487
 2916TIP3    H1 8754  -0.042   5.283   4.440
 2916TIP3    H2 8755   0.075   5.360   4.496
 2917TIP3   OH2 8756   0.455   2.614   0.109
 2917TIP3    H1 8757   0.477   2.676   0.040
 2917TIP3    H2 8758   0.529   2.618   0.169
 2918TIP3   OH2 8759   5.789   4.693   2.004
 2918TIP3    H1 8760   5.884   4.684   1.991
 2918TIP3    H2 8761   5.778   4.701   2.098
 2919TIP3   OH2 8762   3.384   5.926   4.777
 2919TIP3    H1 8763   3.444   5.993   4.811
 2919TIP3    H2 8764   3.431   5.843   4.791
 2920TIP3   OH2 8765   0.933   3.678   2.006
 2920TIP3    H1 8766   1.016   3.718   1.980
 2920TIP3    H2 8767   0.868   3.722   1.951
 2921TIP3   OH2 8768   5.186   1.844   0.401
 2921TIP3    H1 8769   5.142   1.762   0.423
 2921TIP3    H2 8770   5.260   1.817   0.345
 2922TIP3   OH2 8771   6.201   1.208   2.872
 2922TIP3    H1 8772   6.213   1.186   2.780
 2922TIP3    H2 8773   6.263   1.278   2.888
 2923TIP3   OH2 8774   5.972   0.050   4.325
 2923TIP3    H1 8775   5.900  -0.003   4.291
 2923TIP3    H2 8776   6.036   0.052   4.254
 2924TIP3   OH2 8777   4.924   1.215   3.710
 2924TIP3    H1 8778   4.853   1.184   3.765
 2924TIP3    H2 8779   4.954   1.296   3.753
 2925TIP3   OH2 8780   6.023   1.491   2.447
 2925TIP3    H1 8781   6.024   1.459   2.357
 2925TIP3    H2 8782   6.050   1.582   2.441
 2926TIP3   OH2 8783   3.776   3.367   3.934
 2926TIP3    H1 8784   3.809   3.456   3.923
 2926TIP3    H2 8785   3.813   3.338   4.018
 2927TIP3   OH2 8786   1.419   4.603   3.218
 2927TIP3    H1 8787   1.398   4.514   3.247
 2927TIP3    H2 8788   1.514   4.608   3.228
 2928TIP3   OH2 8789   2.552   1.389   1.768
 2928TIP3    H1 8790   2.636   1.433   1.776
 2928TIP3    H2 8791   2.566   1.302   1.806
 2929TIP3   OH2 8792   5.123   5.849   2.404
 2929TIP3    H1 8793   5.215   5.850   2.428
 2929TIP3    H2 8794   5.122   5.836   2.309
 2930TIP3   OH2 8795   4.120   0.267   0.113
 2930TIP3    H1 8796   4.097   0.300   0.200
 2930TIP3    H2 8797   4.210   0.236   0.122
 2931TIP3   OH2 8798   1.884  -0.005   1.061
 2931TIP3    H1 8799   1.808   0.051   1.076
 2931TIP3    H2 8800   1.939   0.008   1.139
 2932TIP3   OH2 8801   6.066   4.060   1.045
 2932TIP3    H1 8802   6.038   4.146   1.075
 2932TIP3    H2 8803   6.161   4.067   1.037
 2933TIP3   OH2 8804   3.361   4.636   1.914
 2933TIP3    H1 8805   3.329   4.628   2.004
 2933TIP3    H2 8806   3.454   4.655   1.923
 2934TIP3   OH2 8807   5.843   5.908   3.539
 2934TIP3    H1 8808   5.819   5.818   3.562
 2934TIP3    H2 8809   5.939   5.906   3.535
 2935TIP3   OH2 8810   1.989   0.170   2.483
 2935TIP3    H1 8811   2.049   0.209   2.546
 2935TIP3    H2 8812   1.925   0.122   2.535
 2936TIP3   OH2 8813   3.996   0.091   4.595
 2936TIP3    H1 8814   3.980  -0.003   4.581
 2936TIP3    H2 8815   4.022   0.096   4.687
 2937TIP3   OH2 8816   1.612   5.833   2.771
 2937TIP3    H1 8817   1.587   5.925   2.764
 2937TIP3    H2 8818   1.530   5.787   2.790
 2938TIP3   OH2 8819   4.935   2.282   1.852
 2938TIP3    H1 8820   4.996   2.221   1.894
 2938TIP3    H2 8821   4.884   2.318   1.924
 2939TIP3   OH2 8822   2.369   4.917   2.942
 2939TIP3    H1 8823   2.408   4.949   2.861
 2939TIP3    H2 8824   2.401   4.976   3.010
 2940TIP3   OH2 8825   5.278   4.490   0.941
 2940TIP3    H1 8826   5.329   4.423   0.986
 2940TIP3    H2 8827   5.316   4.573   0.970
 2941TIP3   OH2 8828   1.633   5.734   0.433
 2941TIP3    H1 8829   1.721   5.714   0.402
 2941TIP3    H2 8830   1.582   5.655   0.413
 2942TIP3   OH2 8831   6.171   1.705   1.158
 2942TIP3    H1 8832   6.090   1.660   1.182
 2942TIP3    H2 8833   6.210   1.649   1.091
 2943TIP3   OH2 8834   6.330   5.871   4.588
 2943TIP3    H1 8835   6.338   5.776   4.599
 2943TIP3    H2 8836   6.245   5.893   4.628
 2944TIP3   OH2 8837   5.242   3.916   3.135
 2944TIP3    H1 8838   5.192   3.997   3.125
 2944TIP3    H2 8839   5.192   3.851   3.086
 2945TIP3   OH2 8840   2.795   4.018   3.402
 2945TIP3    H1 8841   2.869   4.058   3.447
 2945TIP3    H2 8842   2.775   4.078   3.330
 2946TIP3   OH2 8843   5.900   2.545   3.102
 2946TIP3    H1 8844   5.924   2.455   3.124
 2946TIP3    H2 8845   5.856   2.578   3.180
 2947TIP3   OH2 8846   0.201   1.057   3.190
 2947TIP3    H1 8847   0.266   1.044   3.120
 2947TIP3    H2 8848   0.173   0.968   3.213
 2948TIP3   OH2 8849   0.340   1.271   3.882
 2948TIP3    H1 8850   0.378   1.183   3.881
 2948TIP3    H2 8851   0.304   1.282   3.794
 2949TIP3   OH2 8852   2.007   5.654   0.051
 2949TIP3    H1 8853   2.056   5.729   0.085
 2949TIP3    H2 8854   2.072   5.602   0.004
 2950TIP3   OH2 8855   0.019   4.734   3.456
 2950TIP3    H1 8856  -0.050   4.778   3.407
 2950TIP3    H2 8857   0.078   4.700   3.388
 2951TIP3   OH2 8858   5.672   5.390   0.730
 2951TIP3    H1 8859   5.654   5.482   0.716
 2951TIP3    H2 8860   5.761   5.388   0.766
 2952TIP3   OH2 8861   2.260   4.711   3.667
 2952TIP3    H1 8862   2.173   4.739   3.638
 2952TIP3    H2 8863   2.283   4.773   3.737
 2953TIP3   OH2 8864   1.205   4.179   3.560
 2953TIP3    H1 8865   1.296   4.159   3.537
 2953TIP3    H2 8866   1.192   4.269   3.530
 2954TIP3   OH2 8867   5.067   1.997   2.204
 2954TIP3    H1 8868   5.127   2.056   2.251
 2954TIP3    H2 8869   5.013   1.958   2.274
 2955TIP3   OH2 8870   1.464   4.492   0.153
 2955TIP3    H1 8871   1.538   4.441   0.119
 2955TIP3    H2 8872   1.464   4.473   0.247
 2956TIP3   OH2 8873   5.280   4.822   3.979
 2956TIP3    H1 8874   5.258   4.897   3.923
 2956TIP3    H2 8875   5.288   4.860   4.067
 2957TIP3   OH2 8876   3.967   4.085   2.708
 2957TIP3    H1 8877   3.991   3.993   2.698
 2957TIP3    H2 8878   3.985   4.124   2.623
 2958TIP3   OH2 8879   0.139   1.630   2.792
 2958TIP3    H1 8880   0.229   1.596   2.792
 2958TIP3    H2 8881   0.144   1.712   2.840
 2959TIP3   OH2 8882   2.637   5.251   4.278
 2959TIP3    H1 8883   2.686   5.185   4.229
 2959TIP3    H2 8884   2.582   5.201   4.338
 2960TIP3   OH2 8885   6.177   4.157   1.988
 2960TIP3    H1 8886   6.249   4.104   1.955
 2960TIP3    H2 8887   6.117   4.095   2.028
 2961TIP3   OH2 8888   1.538   1.334   3.004
 2961TIP3    H1 8889   1.630   1.345   3.027
 2961TIP3    H2 8890   1.498   1.418   3.025
 2962TIP3   OH2 8891   5.882   5.713   1.718
 2962TIP3    H1 8892   5.955   5.775   1.719
 2962TIP3    H2 8893   5.879   5.679   1.629
 2963TIP3   OH2 8894   0.017   3.880   4.790
 2963TIP3    H1 8895   0.079   3.932   4.841
 2963TIP3    H2 8896  -0.001   3.804   4.845
 2964TIP3   OH2 8897   4.033   2.833   2.044
 2964TIP3    H1 8898   4.031   2.777   2.122
 2964TIP3    H2 8899   4.054   2.774   1.972
 2965TIP3   OH2 8900   4.536   5.429   4.198
 2965TIP3    H1 8901   4.483   5.445   4.276
 2965TIP3    H2 8902   4.487   5.473   4.128
 2966TIP3   OH2 8903   5.919   0.821   3.549
 2966TIP3    H1 8904   5.826   0.802   3.537
 2966TIP3    H2 8905   5.947   0.762   3.619
 2967TIP3   OH2 8906   5.478   5.002   4.974
 2967TIP3    H1 8907   5.388   5.011   5.006
 2967TIP3    H2 8908   5.517   5.089   4.984
 2968TIP3   OH2 8909   2.376   5.975   0.051
 2968TIP3    H1 8910   2.403   5.907   0.114
 2968TIP3    H2 8911   2.329   5.928  -0.017
 2969TIP3   OH2 8912   2.400   1.098   4.850
 2969TIP3    H1 8913   2.459   1.145   4.909
 2969TIP3    H2 8914   2.427   1.125   4.762
 2970TIP3   OH2 8915   2.878   4.852   0.849
 2970TIP3    H1 8916   2.946   4.867   0.916
 2970TIP3    H2 8917   2.796   4.865   0.895
 2971TIP3   OH2 8918   4.435   2.404   4.914
 2971TIP3    H1 8919   4.440   2.498   4.928
 2971TIP3    H2 8920   4.404   2.369   4.997
 2972TIP3   OH2 8921   0.680   4.932   3.009
 2972TIP3    H1 8922   0.769   4.955   2.985
 2972TIP3    H2 8923   0.666   4.845   2.971
 2973TIP3   OH2 8924   0.764   5.958   2.921
 2973TIP3    H1 8925   0.674   5.982   2.944
 2973TIP3    H2 8926   0.761   5.942   2.827
 2974TIP3   OH2 8927   6.075   0.219   4.508
 2974TIP3    H1 8928   6.151   0.168   4.537
 2974TIP3    H2 8929   6.027   0.160   4.451
 2975TIP3   OH2 8930   0.536   4.149   4.410
 2975TIP3    H1 8931   0.467   4.201   4.369
 2975TIP3    H2 8932   0.500   4.124   4.495
 2976TIP3   OH2 8933   3.620   1.577   3.506
 2976TIP3    H1 8934   3.636   1.664   3.469
 2976TIP3    H2 8935   3.668   1.517   3.450
 2977TIP3   OH2 8936   2.951   4.917   1.582
 2977TIP3    H1 8937   2.916   4.999   1.616
 2977TIP3    H2 8938   2.992   4.941   1.499
 2978TIP3   OH2 8939   5.399   5.631   2.080
 2978TIP3    H1 8940   5.488   5.606   2.103
 2978TIP3    H2 8941   5.404   5.725   2.059
 2979TIP3   OH2 8942   3.576   1.571   4.829
 2979TIP3    H1 8943   3.515   1.572   4.903
 2979TIP3    H2 8944   3.602   1.479   4.820
 2980TIP3   OH2 8945   5.122   3.504   1.611
 2980TIP3    H1 8946   5.185   3.449   1.565
 2980TIP3    H2 8947   5.171   3.543   1.683
 2981TIP3   OH2 8948   1.905   0.257   2.187
 2981TIP3    H1 8949   1.880   0.349   2.195
 2981TIP3    H2 8950   1.955   0.239   2.267
 2982TIP3   OH2 8951   2.390   0.910   3.403
 2982TIP3    H1 8952   2.429   0.966   3.469
 2982TIP3    H2 8953   2.448   0.834   3.397
 2983TIP3   OH2 8954   0.576   1.553   2.366
 2983TIP3    H1 8955   0.648   1.613   2.386
 2983TIP3    H2 8956   0.520   1.556   2.444
 2984TIP3   OH2 8957   0.727   0.975   4.738
 2984TIP3    H1 8958   0.791   1.017   4.797
 2984TIP3    H2 8959   0.675   1.047   4.704
 2985TIP3   OH2 8960   1.214   5.477   3.778
 2985TIP3    H1 8961   1.272   5.407   3.749
 2985TIP3    H2 8962   1.205   5.463   3.873
 2986TIP3   OH2 8963   1.752   4.746   4.505
 2986TIP3    H1 8964   1.673   4.783   4.465
 2986TIP3    H2 8965   1.721   4.709   4.588
 2987TIP3   OH2 8966   2.449   0.731   1.226
 2987TIP3    H1 8967   2.438   0.738   1.321
 2987TIP3    H2 8968   2.361   0.748   1.191
 2988TIP3   OH2 8969   3.883   5.773   2.977
 2988TIP3    H1 8970   3.789   5.783   2.966
 2988TIP3    H2 8971   3.915   5.861   2.998
 2989TIP3   OH2 8972   5.779   5.806   4.141
 2989TIP3    H1 8973   5.755   5.893   4.109
 2989TIP3    H2 8974   5.786   5.818   4.236
 2990TIP3   OH2 8975   4.396   1.299   3.512
 2990TIP3    H1 8976   4.431   1.234   3.573
 2990TIP3    H2 8977   4.466   1.312   3.447
 2991TIP3   OH2 8978   5.437   5.567   0.968
 2991TIP3    H1 8979   5.494   5.495   0.995
 2991TIP3    H2 8980   5.373   5.573   1.038
 2992TIP3   OH2 8981   3.351   5.658   4.408
 2992TIP3    H1 8982   3.315   5.606   4.480
 2992TIP3    H2 8983   3.433   5.693   4.443
 2993TIP3   OH2 8984   5.813   4.495   4.666
 2993TIP3    H1 8985   5.784   4.513   4.755
 2993TIP3    H2 8986   5.747   4.536   4.610
 2994TIP3   OH2 8987   0.823   5.364   1.669
 2994TIP3    H1 8988   0.797   5.442   1.619
 2994TIP3    H2 8989   0.752   5.352   1.732
 2995TIP3   OH2 8990   1.027   1.211   3.865
 2995TIP3    H1 8991   1.002   1.279   3.803
 2995TIP3    H2 8992   0.969   1.138   3.846
 2996TIP3   OH2 8993   2.300   3.530   3.285
 2996TIP3    H1 8994   2.228   3.582   3.248
 2996TIP3    H2 8995   2.257   3.461   3.334
 2997TIP3   OH2 8996   4.288   4.935   3.800
 2997TIP3    H1 8997   4.293   4.851   3.846
 2997TIP3    H2 8998   4.204   4.972   3.827
 2998TIP3   OH2 8999   1.753   1.433   1.174
 2998TIP3    H1 9000   1.828   1.489   1.195
 2998TIP3    H2 9001   1.779   1.347   1.207
 2999TIP3   OH2 9002   4.589   0.253   2.827
 2999TIP3    H1 9003   4.643   0.198   2.770
 2999TIP3    H2 9004   4.526   0.192   2.866
 3000TIP3   OH2 9005   0.113   5.249   0.005
 3000TIP3    H1 9006   0.027   5.225   0.039
 3000TIP3    H2 9007   0.171   5.248   0.081
 3001TIP3   OH2 9008   4.039   5.242   4.628
 3001TIP3    H1 9009   4.006   5.235   4.538
 3001TIP3    H2 9010   4.054   5.152   4.655
 3002TIP3   OH2 9011   4.337   0.598   4.400
 3002TIP3    H1 9012   4.351   0.673   4.458
 3002TIP3    H2 9013   4.280   0.632   4.331
 3003TIP3   OH2 9014   2.949   2.139   4.967
 3003TIP3    H1 9015   3.007   2.131   5.043
 3003TIP3    H2 9016   2.961   2.057   4.919
 3004TIP3   OH2 9017   2.943   0.135   4.340
 3004TIP3    H1 9018   2.907   0.052   4.308
 3004TIP3    H2 9019   2.889   0.202   4.298
 3005TIP3   OH2 9020   6.221   1.666   4.167
 3005TIP3    H1 9021   6.190   1.698   4.251
 3005TIP3    H2 9022   6.312   1.694   4.163
 3006TIP3   OH2 9023   5.065   0.544   1.194
 3006TIP3    H1 9024   5.131   0.611   1.214
 3006TIP3    H2 9025   5.001   0.552   1.265
 3007TIP3   OH2 9026   4.468   4.103   4.898
 3007TIP3    H1 9027   4.427   4.166   4.957
 3007TIP3    H2 9028   4.545   4.072   4.945
 3008TIP3   OH2 9029   1.567   3.598   3.115
 3008TIP3    H1 9030   1.505   3.553   3.172
 3008TIP3    H2 9031   1.522   3.606   3.031
 3009TIP3   OH2 9032   0.837   4.891   0.061
 3009TIP3    H1 9033   0.922   4.915   0.025
 3009TIP3    H2 9034   0.840   4.796   0.068
 3010TIP3   OH2 9035   6.056   5.828   3.832
 3010TIP3    H1 9036   5.980   5.769   3.826
 3010TIP3    H2 9037   6.131   5.771   3.816
 3011TIP3   OH2 9038   4.621   2.566   1.949
 3011TIP3    H1 9039   4.698   2.541   1.999
 3011TIP3    H2 9040   4.577   2.484   1.929
 3012TIP3   OH2 9041   4.231   5.932   4.864
 3012TIP3    H1 9042   4.207   5.890   4.947
 3012TIP3    H2 9043   4.311   5.981   4.885
 3013TIP3   OH2 9044   1.101   3.963   3.694
 3013TIP3    H1 9045   1.021   3.975   3.745
 3013TIP3    H2 9046   1.116   4.047   3.652
 3014TIP3   OH2 9047   2.799   2.236   2.059
 3014TIP3    H1 9048   2.775   2.205   1.972
 3014TIP3    H2 9049   2.799   2.332   2.051
 3015TIP3   OH2 9050   1.745   1.446   2.035
 3015TIP3    H1 9051   1.713   1.536   2.026
 3015TIP3    H2 9052   1.676   1.392   1.996
 3016TIP3   OH2 9053   6.029   1.726   3.971
 3016TIP3    H1 9054   6.015   1.820   3.983
 3016TIP3    H2 9055   6.097   1.704   4.034
 3017TIP3   OH2 9056   1.326   1.360   4.613
 3017TIP3    H1 9057   1.326   1.356   4.708
 3017TIP3    H2 9058   1.277   1.440   4.592
 3018TIP3   OH2 9059   5.850   5.888   4.669
 3018TIP3    H1 9060   5.818   5.977   4.683
 3018TIP3    H2 9061   5.831   5.842   4.751
 3019TIP3   OH2 9062   3.291   3.796   0.543
 3019TIP3    H1 9063   3.300   3.817   0.450
 3019TIP3    H2 9064   3.268   3.703   0.544
 3020TIP3   OH2 9065   2.837   3.317   0.749
 3020TIP3    H1 9066   2.834   3.357   0.836
 3020TIP3    H2 9067   2.824   3.390   0.688
 3021TIP3   OH2 9068   0.620   4.796   1.052
 3021TIP3    H1 9069   0.632   4.828   1.142
 3021TIP3    H2 9070   0.632   4.701   1.058
 3022TIP3   OH2 9071   1.736   5.643   1.881
 3022TIP3    H1 9072   1.772   5.585   1.814
 3022TIP3    H2 9073   1.641   5.626   1.879
 3023TIP3   OH2 9074   0.437   5.942   2.671
 3023TIP3    H1 9075   0.469   6.032   2.680
 3023TIP3    H2 9076   0.450   5.921   2.579
 3024TIP3   OH2 9077   4.766   4.003   1.243
 3024TIP3    H1 9078   4.692   4.061   1.224
 3024TIP3    H2 9079   4.830   4.023   1.175
 3025TIP3   OH2 9080   0.693   2.341   1.225
 3025TIP3    H1 9081   0.727   2.397   1.156
 3025TIP3    H2 9082   0.770   2.320   1.279
 3026TIP3   OH2 9083   1.049   2.849   2.768
 3026TIP3    H1 9084   1.112   2.803   2.712
 3026TIP3    H2 9085   1.071   2.820   2.856
 3027TIP3   OH2 9086   1.632   0.239   1.286
 3027TIP3    H1 9087   1.548   0.284   1.293
 3027TIP3    H2 9088   1.667   0.266   1.201
 3028TIP3   OH2 9089   5.838   0.453   4.364
 3028TIP3    H1 9090   5.929   0.430   4.381
 3028TIP3    H2 9091   5.803   0.378   4.316
 3029TIP3   OH2 9092   1.205   2.541   4.004
 3029TIP3    H1 9093   1.258   2.554   4.082
 3029TIP3    H2 9094   1.229   2.454   3.972
 3030TIP3   OH2 9095   4.429   0.576   4.948
 3030TIP3    H1 9096   4.416   0.516   4.875
 3030TIP3    H2 9097   4.502   0.631   4.921
 3031TIP3   OH2 9098   5.448   2.269   0.932
 3031TIP3    H1 9099   5.371   2.320   0.906
 3031TIP3    H2 9100   5.415   2.179   0.938
 3032TIP3   OH2 9101   0.835   3.938   0.139
 3032TIP3    H1 9102   0.852   4.013   0.196
 3032TIP3    H2 9103   0.755   3.899   0.174
 3033TIP3   OH2 9104   6.114   5.486   1.073
 3033TIP3    H1 9105   6.070   5.450   0.996
 3033TIP3    H2 9106   6.047   5.485   1.142
 3034TIP3   OH2 9107   5.407   1.909   4.117
 3034TIP3    H1 9108   5.408   1.823   4.076
 3034TIP3    H2 9109   5.319   1.943   4.099
 3035TIP3   OH2 9110   3.562   3.162   0.996
 3035TIP3    H1 9111   3.553   3.254   0.973
 3035TIP3    H2 9112   3.637   3.160   1.056
 3036TIP3   OH2 9113   1.847   4.810   1.492
 3036TIP3    H1 9114   1.849   4.904   1.475
 3036TIP3    H2 9115   1.930   4.777   1.459
 3037TIP3   OH2 9116   2.189   5.054   2.271
 3037TIP3    H1 9117   2.162   5.145   2.258
 3037TIP3    H2 9118   2.149   5.007   2.198
 3038TIP3   OH2 9119   3.368   2.527   3.663
 3038TIP3    H1 9120   3.311   2.520   3.586
 3038TIP3    H2 9121   3.401   2.616   3.661
 3039TIP3   OH2 9122   4.403   0.247   0.882
 3039TIP3    H1 9123   4.443   0.171   0.924
 3039TIP3    H2 9124   4.453   0.321   0.914
 3040TIP3   OH2 9125   2.419   3.793   1.988
 3040TIP3    H1 9126   2.426   3.756   2.076
 3040TIP3    H2 9127   2.357   3.865   1.997
 3041TIP3   OH2 9128   3.576   5.505   0.716
 3041TIP3    H1 9129   3.600   5.595   0.693
 3041TIP3    H2 9130   3.504   5.515   0.778
 3042TIP3   OH2 9131   4.680   2.344   1.417
 3042TIP3    H1 9132   4.760   2.329   1.468
 3042TIP3    H2 9133   4.684   2.278   1.348
 3043TIP3   OH2 9134   5.580   5.048   4.091
 3043TIP3    H1 9135   5.560   4.969   4.141
 3043TIP3    H2 9136   5.498   5.099   4.091
 3044TIP3   OH2 9137   3.617   3.659   1.711
 3044TIP3    H1 9138   3.667   3.597   1.659
 3044TIP3    H2 9139   3.682   3.696   1.772
 3045TIP3   OH2 9140   3.423   3.129   1.454
 3045TIP3    H1 9141   3.394   3.038   1.465
 3045TIP3    H2 9142   3.354   3.169   1.400
 3046TIP3   OH2 9143   1.699   5.441   1.376
 3046TIP3    H1 9144   1.630   5.411   1.436
 3046TIP3    H2 9145   1.777   5.445   1.431
 3047TIP3   OH2 9146   2.217   0.833   3.918
 3047TIP3    H1 9147   2.311   0.840   3.902
 3047TIP3    H2 9148   2.194   0.914   3.963
 3048TIP3   OH2 9149   5.535   4.929   0.518
 3048TIP3    H1 9150   5.479   4.866   0.563
 3048TIP3    H2 9151   5.483   4.956   0.442
 3049TIP3   OH2 9152   0.106   1.683   0.312
 3049TIP3    H1 9153   0.082   1.761   0.262
 3049TIP3    H2 9154   0.023   1.642   0.334
 3050TIP3   OH2 9155  -0.051   3.582   2.408
 3050TIP3    H1 9156  -0.066   3.676   2.409
 3050TIP3    H2 9157  -0.022   3.560   2.496
 3051TIP3   OH2 9158   3.689   4.800   2.480
 3051TIP3    H1 9159   3.690   4.753   2.564
 3051TIP3    H2 9160   3.704   4.891   2.503
 3052TIP3   OH2 9161   0.756   2.052   3.258
 3052TIP3    H1 9162   0.713   2.088   3.180
 3052TIP3    H2 9163   0.842   2.023   3.227
 3053TIP3   OH2 9164   4.206   5.950   1.262
 3053TIP3    H1 9165   4.165   5.911   1.185
 3053TIP3    H2 9166   4.284   5.897   1.277
 3054TIP3   OH2 9167   4.256   1.658   2.882
 3054TIP3    H1 9168   4.243   1.695   2.795
 3054TIP3    H2 9169   4.333   1.703   2.917
 3055TIP3   OH2 9170   0.811   2.523   0.473
 3055TIP3    H1 9171   0.759   2.517   0.392
 3055TIP3    H2 9172   0.760   2.581   0.530
 3056TIP3   OH2 9173   1.532   4.184   1.815
 3056TIP3    H1 9174   1.572   4.260   1.857
 3056TIP3    H2 9175   1.606   4.131   1.785
 3057TIP3   OH2 9176   1.105   2.960   4.720
 3057TIP3    H1 9177   1.021   2.972   4.765
 3057TIP3    H2 9178   1.123   2.866   4.726
 3058TIP3   OH2 9179   5.721   1.703   0.778
 3058TIP3    H1 9180   5.806   1.697   0.821
 3058TIP3    H2 9181   5.666   1.753   0.839
 3059TIP3   OH2 9182   2.222   4.969   4.115
 3059TIP3    H1 9183   2.143   4.954   4.063
 3059TIP3    H2 9184   2.194   4.962   4.206
 3060TIP3   OH2 9185   2.086   2.808   1.262
 3060TIP3    H1 9186   2.112   2.747   1.331
 3060TIP3    H2 9187   2.161   2.811   1.203
 3061TIP3   OH2 9188   1.421   0.088   0.690
 3061TIP3    H1 9189   1.484   0.065   0.622
 3061TIP3    H2 9190   1.337   0.094   0.644
 3062TIP3   OH2 9191   4.727   5.030   5.162
 3062TIP3    H1 9192   4.795   5.095   5.145
 3062TIP3    H2 9193   4.768   4.946   5.141
 3063TIP3   OH2 9194   0.646   1.265   2.522
 3063TIP3    H1 9195   0.635   1.283   2.615
 3063TIP3    H2 9196   0.654   1.352   2.482
 3064TIP3   OH2 9197   0.573   4.025   2.302
 3064TIP3    H1 9198   0.669   4.022   2.306
 3064TIP3    H2 9199   0.550   3.962   2.234
 3065TIP3   OH2 9200   6.179   2.449   2.689
 3065TIP3    H1 9201   6.167   2.435   2.783
 3065TIP3    H2 9202   6.156   2.541   2.675
 3066TIP3   OH2 9203   0.843   4.739   2.190
 3066TIP3    H1 9204   0.763   4.743   2.139
 3066TIP3    H2 9205   0.819   4.691   2.269
 3067TIP3   OH2 9206   4.120   2.119   2.409
 3067TIP3    H1 9207   4.064   2.101   2.334
 3067TIP3    H2 9208   4.114   2.041   2.463
 3068TIP3   OH2 9209   2.955   1.790   5.121
 3068TIP3    H1 9210   3.031   1.797   5.063
 3068TIP3    H2 9211   2.896   1.729   5.077
 3069TIP3   OH2 9212   5.642   5.625   1.202
 3069TIP3    H1 9213   5.681   5.612   1.289
 3069TIP3    H2 9214   5.689   5.701   1.166
 3070TIP3   OH2 9215   4.021   4.444   0.057
 3070TIP3    H1 9216   3.973   4.377   0.106
 3070TIP3    H2 9217   4.065   4.396  -0.013
 3071TIP3   OH2 9218   4.899   2.058   0.962
 3071TIP3    H1 9219   4.865   1.983   0.914
 3071TIP3    H2 9220   4.877   2.134   0.909
 3072TIP3   OH2 9221   5.744   2.120   2.268
 3072TIP3    H1 9222   5.834   2.126   2.237
 3072TIP3    H2 9223   5.705   2.204   2.245
 3073TIP3   OH2 9224   4.920   2.911   3.821
 3073TIP3    H1 9225   4.970   2.964   3.883
 3073TIP3    H2 9226   4.873   2.848   3.876
 3074TIP3   OH2 9227   6.178   4.886   3.325
 3074TIP3    H1 9228   6.189   4.981   3.321
 3074TIP3    H2 9229   6.127   4.864   3.248
 3075TIP3   OH2 9230   2.995   3.608   4.126
 3075TIP3    H1 9231   3.082   3.604   4.085
 3075TIP3    H2 9232   2.970   3.700   4.118
 3076TIP3   OH2 9233   3.375   3.269   0.641
 3076TIP3    H1 9234   3.402   3.322   0.566
 3076TIP3    H2 9235   3.306   3.321   0.684
 3077TIP3   OH2 9236   5.885   3.953   4.860
 3077TIP3    H1 9237   5.815   3.944   4.924
 3077TIP3    H2 9238   5.849   3.919   4.778
 3078TIP3   OH2 9239   4.134   3.653   5.063
 3078TIP3    H1 9240   4.093   3.684   5.144
 3078TIP3    H2 9241   4.168   3.732   5.022
 3079TIP3   OH2 9242   3.531   4.791   0.539
 3079TIP3    H1 9243   3.549   4.865   0.482
 3079TIP3    H2 9244   3.574   4.813   0.622
 3080TIP3   OH2 9245   4.381   1.337   0.520
 3080TIP3    H1 9246   4.316   1.386   0.569
 3080TIP3    H2 9247   4.465   1.364   0.557
 3081TIP3   OH2 9248   0.919   5.062   4.796
 3081TIP3    H1 9249   0.984   5.067   4.725
 3081TIP3    H2 9250   0.836   5.053   4.750
 3082TIP3   OH2 9251   2.440   2.789   5.054
 3082TIP3    H1 9252   2.516   2.842   5.029
 3082TIP3    H2 9253   2.365   2.849   5.044
 3083TIP3   OH2 9254   0.150   3.052   1.194
 3083TIP3    H1 9255   0.132   3.137   1.153
 3083TIP3    H2 9256   0.138   2.988   1.124
 3084TIP3   OH2 9257   4.106   5.795   0.761
 3084TIP3    H1 9258   4.141   5.752   0.683
 3084TIP3    H2 9259   4.176   5.786   0.826
 3085TIP3   OH2 9260   1.567   5.947   1.955
 3085TIP3    H1 9261   1.480   5.912   1.974
 3085TIP3    H2 9262   1.616   5.936   2.036
 3086TIP3   OH2 9263   5.144   1.962   4.069
 3086TIP3    H1 9264   5.089   1.903   4.120
 3086TIP3    H2 9265   5.117   2.050   4.096
 3087TIP3   OH2 9266   5.699   1.752   5.063
 3087TIP3    H1 9267   5.696   1.747   5.158
 3087TIP3    H2 9268   5.783   1.794   5.043
 3088TIP3   OH2 9269   2.117   1.384   4.835
 3088TIP3    H1 9270   2.161   1.438   4.901
 3088TIP3    H2 9271   2.178   1.382   4.762
 3089TIP3   OH2 9272   6.235   2.691   1.796
 3089TIP3    H1 9273   6.166   2.626   1.810
 3089TIP3    H2 9274   6.309   2.659   1.848
 3090TIP3   OH2 9275   2.650   2.917   4.923
 3090TIP3    H1 9276   2.738   2.913   4.884
 3090TIP3    H2 9277   2.591   2.928   4.848
 3091TIP3   OH2 9278   4.493   1.944   3.218
 3091TIP3    H1 9279   4.462   2.032   3.239
 3091TIP3    H2 9280   4.414   1.890   3.218
 3092TIP3   OH2 9281   0.422   2.489   1.311
 3092TIP3    H1 9282   0.421   2.552   1.239
 3092TIP3    H2 9283   0.387   2.538   1.386
 3093TIP3   OH2 9284  -0.021   1.301   0.801
 3093TIP3    H1 9285   0.041   1.229   0.787
 3093TIP3    H2 9286  -0.096   1.279   0.746
 3094TIP3   OH2 9287   6.148   5.143   3.311
 3094TIP3    H1 9288   6.089   5.169   3.381
 3094TIP3    H2 9289   6.225   5.199   3.321
 3095TIP3   OH2 9290   4.046   0.969   3.885
 3095TIP3    H1 9291   4.131   1.009   3.905
 3095TIP3    H2 9292   4.012   0.941   3.970
 3096TIP3   OH2 9293   1.744   1.833   3.110
 3096TIP3    H1 9294   1.742   1.830   3.014
 3096TIP3    H2 9295   1.781   1.919   3.131
 3097TIP3   OH2 9296   0.242   2.045   3.841
 3097TIP3    H1 9297   0.199   2.087   3.766
 3097TIP3    H2 9298   0.172   2.002   3.889
 3098TIP3   OH2 9299   4.267   3.260   2.378
 3098TIP3    H1 9300   4.288   3.342   2.422
 3098TIP3    H2 9301   4.257   3.196   2.449
 3099TIP3   OH2 9302   0.800  -0.019   4.443
 3099TIP3    H1 9303   0.723   0.029   4.411
 3099TIP3    H2 9304   0.817   0.018   4.530
 3100TIP3   OH2 9305   5.956   1.071   0.263
 3100TIP3    H1 9306   5.980   1.045   0.174
 3100TIP3    H2 9307   5.941   1.165   0.257
 3101TIP3   OH2 9308   2.790   1.199   3.166
 3101TIP3    H1 9309   2.798   1.109   3.199
 3101TIP3    H2 9310   2.773   1.251   3.245
 3102TIP3   OH2 9311   1.638   0.649   1.218
 3102TIP3    H1 9312   1.592   0.732   1.235
 3102TIP3    H2 9313   1.609   0.591   1.288
 3103TIP3   OH2 9314   4.631   1.088   4.819
 3103TIP3    H1 9315   4.574   1.027   4.867
 3103TIP3    H2 9316   4.712   1.038   4.806
 3104TIP3   OH2 9317   1.608   1.382   0.363
 3104TIP3    H1 9318   1.590   1.331   0.442
 3104TIP3    H2 9319   1.579   1.470   0.384
 3105TIP3   OH2 9320   1.372   3.797   4.185
 3105TIP3    H1 9321   1.325   3.824   4.264
 3105TIP3    H2 9322   1.319   3.832   4.113
 3106TIP3   OH2 9323   0.201   4.415   2.693
 3106TIP3    H1 9324   0.223   4.497   2.738
 3106TIP3    H2 9325   0.126   4.380   2.742
 3107TIP3   OH2 9326   5.399   5.279   3.636
 3107TIP3    H1 9327   5.364   5.356   3.682
 3107TIP3    H2 9328   5.391   5.301   3.543
 3108TIP3   OH2 9329   5.259   1.188   4.082
 3108TIP3    H1 9330   5.188   1.194   4.018
 3108TIP3    H2 9331   5.335   1.223   4.037
 3109TIP3   OH2 9332   0.029   2.562   2.362
 3109TIP3    H1 9333  -0.001   2.621   2.293
 3109TIP3    H2 9334   0.124   2.571   2.362
 3110TIP3   OH2 9335   6.132   5.206   2.050
 3110TIP3    H1 9336   6.182   5.149   2.108
 3110TIP3    H2 9337   6.047   5.215   2.093
 3111TIP3   OH2 9338   4.954   1.023   2.940
 3111TIP3    H1 9339   4.970   0.998   2.849
 3111TIP3    H2 9340   5.026   1.081   2.963
 3112TIP3   OH2 9341   4.085   3.462   3.823
 3112TIP3    H1 9342   4.011   3.516   3.852
 3112TIP3    H2 9343   4.072   3.453   3.728
 3113TIP3   OH2 9344   4.321   4.676   3.946
 3113TIP3    H1 9345   4.282   4.602   3.994
 3113TIP3    H2 9346   4.404   4.692   3.991
 3114TIP3   OH2 9347   1.232   2.534   1.295
 3114TIP3    H1 9348   1.324   2.530   1.268
 3114TIP3    H2 9349   1.235   2.567   1.385
 3115TIP3   OH2 9350   3.019   2.333   3.309
 3115TIP3    H1 9351   3.082   2.331   3.381
 3115TIP3    H2 9352   2.990   2.242   3.300
 3116TIP3   OH2 9353   2.608   0.835   0.658
 3116TIP3    H1 9354   2.574   0.919   0.629
 3116TIP3    H2 9355   2.611   0.782   0.579
 3117TIP3   OH2 9356   0.204   4.146   1.344
 3117TIP3    H1 9357   0.125   4.095   1.325
 3117TIP3    H2 9358   0.241   4.105   1.422
 3118TIP3   OH2 9359   5.045   3.346   1.062
 3118TIP3    H1 9360   5.096   3.336   0.981
 3118TIP3    H2 9361   4.989   3.268   1.064
 3119TIP3   OH2 9362   6.060   3.668   1.091
 3119TIP3    H1 9363   6.017   3.753   1.098
 3119TIP3    H2 9364   5.989   3.607   1.073
 3120TIP3   OH2 9365   0.993   3.922   4.925
 3120TIP3    H1 9366   1.082   3.917   4.959
 3120TIP3    H2 9367   0.959   3.833   4.935
 3121TIP3   OH2 9368   3.023   2.886   3.192
 3121TIP3    H1 9369   2.956   2.833   3.234
 3121TIP3    H2 9370   2.975   2.936   3.126
 3122TIP3   OH2 9371   4.827   1.506   1.120
 3122TIP3    H1 9372   4.902   1.564   1.135
 3122TIP3    H2 9373   4.825   1.495   1.025
 3123TIP3   OH2 9374   3.987   3.108   0.824
 3123TIP3    H1 9375   3.899   3.111   0.787
 3123TIP3    H2 9376   4.025   3.027   0.790
 3124TIP3   OH2 9377   1.861   3.128   5.122
 3124TIP3    H1 9378   1.881   3.220   5.108
 3124TIP3    H2 9379   1.824   3.098   5.039
 3125TIP3   OH2 9380   4.991   1.449   3.822
 3125TIP3    H1 9381   5.004   1.519   3.885
 3125TIP3    H2 9382   4.952   1.492   3.746
 3126TIP3   OH2 9383   0.708   5.631   3.472
 3126TIP3    H1 9384   0.801   5.652   3.475
 3126TIP3    H2 9385   0.664   5.715   3.461
 3127TIP3   OH2 9386   2.538   2.942   3.494
 3127TIP3    H1 9387   2.593   2.972   3.565
 3127TIP3    H2 9388   2.547   3.008   3.426
 3128TIP3   OH2 9389   1.051   5.938   3.384
 3128TIP3    H1 9390   1.128   5.899   3.343
 3128TIP3    H2 9391   1.021   6.003   3.321
 3129TIP3   OH2 9392   3.516   0.180   1.025
 3129TIP3    H1 9393   3.571   0.102   1.024
 3129TIP3    H2 9394   3.574   0.251   0.997
 3130TIP3   OH2 9395   6.203   4.156   3.403
 3130TIP3    H1 9396   6.185   4.179   3.312
 3130TIP3    H2 9397   6.294   4.126   3.403
 3131TIP3   OH2 9398   2.681   3.713   4.655
 3131TIP3    H1 9399   2.627   3.783   4.691
 3131TIP3    H2 9400   2.709   3.746   4.569
 3132TIP3   OH2 9401   3.840   3.703   3.320
 3132TIP3    H1 9402   3.780   3.709   3.246
 3132TIP3    H2 9403   3.890   3.784   3.317
 3133TIP3   OH2 9404   0.973   1.463   4.250
 3133TIP3    H1 9405   0.923   1.457   4.168
 3133TIP3    H2 9406   1.005   1.553   4.253
 3134TIP3   OH2 9407   5.340   4.662   5.173
 3134TIP3    H1 9408   5.409   4.646   5.108
 3134TIP3    H2 9409   5.337   4.582   5.225
 3135TIP3   OH2 9410   5.163   5.364   2.652
 3135TIP3    H1 9411   5.170   5.455   2.684
 3135TIP3    H2 9412   5.069   5.347   2.650
 3136TIP3   OH2 9413   4.958   3.557   2.706
 3136TIP3    H1 9414   4.999   3.473   2.723
 3136TIP3    H2 9415   4.890   3.564   2.772
 3137TIP3   OH2 9416   2.815   4.690   4.297
 3137TIP3    H1 9417   2.795   4.636   4.221
 3137TIP3    H2 9418   2.894   4.651   4.334
 3138TIP3   OH2 9419   4.604   2.470   3.550
 3138TIP3    H1 9420   4.597   2.561   3.579
 3138TIP3    H2 9421   4.557   2.468   3.466
 3139TIP3   OH2 9422   3.988   2.181   0.492
 3139TIP3    H1 9423   3.931   2.129   0.548
 3139TIP3    H2 9424   4.076   2.149   0.511
 3140TIP3   OH2 9425   3.048   1.629   0.331
 3140TIP3    H1 9426   2.997   1.595   0.404
 3140TIP3    H2 9427   3.024   1.721   0.326
 3141TIP3   OH2 9428   0.012   2.962   1.418
 3141TIP3    H1 9429   0.081   3.006   1.368
 3141TIP3    H2 9430   0.057   2.928   1.495
 3142TIP3   OH2 9431   3.463   4.580   3.716
 3142TIP3    H1 9432   3.436   4.644   3.649
 3142TIP3    H2 9433   3.406   4.505   3.702
 3143TIP3   OH2 9434   1.124   0.964   4.814
 3143TIP3    H1 9435   1.054   0.900   4.827
 3143TIP3    H2 9436   1.086   1.030   4.755
 3144TIP3   OH2 9437   4.670   4.366   5.076
 3144TIP3    H1 9438   4.600   4.368   5.141
 3144TIP3    H2 9439   4.732   4.433   5.106
 3145TIP3   OH2 9440   4.136   5.099   2.329
 3145TIP3    H1 9441   4.149   5.004   2.331
 3145TIP3    H2 9442   4.221   5.134   2.300
 3146TIP3   OH2 9443   2.265   3.064   1.711
 3146TIP3    H1 9444   2.288   3.153   1.737
 3146TIP3    H2 9445   2.200   3.075   1.642
 3147TIP3   OH2 9446   4.897   0.779   2.552
 3147TIP3    H1 9447   4.944   0.855   2.586
 3147TIP3    H2 9448   4.841   0.751   2.625
 3148TIP3   OH2 9449   5.997   1.320   0.201
 3148TIP3    H1 9450   5.933   1.353   0.265
 3148TIP3    H2 9451   5.967   1.356   0.118
 3149TIP3   OH2 9452   2.481   4.573   4.686
 3149TIP3    H1 9453   2.509   4.507   4.624
 3149TIP3    H2 9454   2.544   4.644   4.677
 3150TIP3   OH2 9455   5.525   2.775   4.925
 3150TIP3    H1 9456   5.493   2.754   4.837
 3150TIP3    H2 9457   5.449   2.760   4.982
 3151TIP3   OH2 9458   1.036   3.607   3.909
 3151TIP3    H1 9459   1.067   3.553   3.982
 3151TIP3    H2 9460   1.020   3.693   3.949
 3152TIP3   OH2 9461   4.463   4.190   4.613
 3152TIP3    H1 9462   4.457   4.155   4.701
 3152TIP3    H2 9463   4.405   4.134   4.561
 3153TIP3   OH2 9464   5.297   3.259   4.090
 3153TIP3    H1 9465   5.359   3.190   4.115
 3153TIP3    H2 9466   5.330   3.292   4.006
 3154TIP3   OH2 9467   2.084   2.193   0.482
 3154TIP3    H1 9468   2.029   2.134   0.533
 3154TIP3    H2 9469   2.052   2.280   0.503
 3155TIP3   OH2 9470   4.628   1.840   0.368
 3155TIP3    H1 9471   4.610   1.768   0.308
 3155TIP3    H2 9472   4.553   1.842   0.427
 3156TIP3   OH2 9473   1.156   0.725   2.441
 3156TIP3    H1 9474   1.208   0.645   2.431
 3156TIP3    H2 9475   1.220   0.795   2.448
 3157TIP3   OH2 9476   1.613   2.183   3.284
 3157TIP3    H1 9477   1.598   2.126   3.208
 3157TIP3    H2 9478   1.650   2.263   3.247
 3158TIP3   OH2 9479   5.755   5.967   2.823
 3158TIP3    H1 9480   5.799   5.893   2.781
 3158TIP3    H2 9481   5.745   6.033   2.754
 3159TIP3   OH2 9482   5.516   2.592   4.273
 3159TIP3    H1 9483   5.582   2.651   4.308
 3159TIP3    H2 9484   5.441   2.602   4.332
 3160TIP3   OH2 9485   5.807   4.373   0.089
 3160TIP3    H1 9486   5.803   4.364   0.184
 3160TIP3    H2 9487   5.890   4.416   0.072
 3161TIP3   OH2 9488   5.288   2.927   2.504
 3161TIP3    H1 9489   5.345   2.877   2.445
 3161TIP3    H2 9490   5.246   2.991   2.447
 3162TIP3   OH2 9491   5.689   2.600   1.061
 3162TIP3    H1 9492   5.629   2.551   1.117
 3162TIP3    H2 9493   5.634   2.636   0.992
 3163TIP3   OH2 9494   2.430   5.371   2.109
 3163TIP3    H1 9495   2.414   5.340   2.020
 3163TIP3    H2 9496   2.518   5.340   2.130
 3164TIP3   OH2 9497   2.811   3.261   0.195
 3164TIP3    H1 9498   2.851   3.315   0.263
 3164TIP3    H2 9499   2.880   3.247   0.130
 3165TIP3   OH2 9500   2.513   1.384   1.001
 3165TIP3    H1 9501   2.477   1.334   1.074
 3165TIP3    H2 9502   2.463   1.354   0.925
 3166TIP3   OH2 9503   5.224   1.039   2.814
 3166TIP3    H1 9504   5.317   1.057   2.803
 3166TIP3    H2 9505   5.198   1.089   2.891
 3167TIP3   OH2 9506   4.010   4.107   1.122
 3167TIP3    H1 9507   4.007   4.071   1.034
 3167TIP3    H2 9508   4.082   4.060   1.164
 3168TIP3   OH2 9509   2.103   1.281   4.458
 3168TIP3    H1 9510   2.156   1.311   4.384
 3168TIP3    H2 9511   2.018   1.259   4.420
 3169TIP3   OH2 9512   5.480   2.085   0.241
 3169TIP3    H1 9513   5.505   2.112   0.153
 3169TIP3    H2 9514   5.403   2.138   0.262
 3170TIP3   OH2 9515   2.341   5.704   3.798
 3170TIP3    H1 9516   2.432   5.731   3.785
 3170TIP3    H2 9517   2.346   5.613   3.826
 3171TIP3   OH2 9518   4.286   1.909   3.553
 3171TIP3    H1 9519   4.304   2.002   3.562
 3171TIP3    H2 9520   4.267   1.896   3.460
 3172TIP3   OH2 9521   2.425   5.580   4.939
 3172TIP3    H1 9522   2.491   5.626   4.886
 3172TIP3    H2 9523   2.366   5.541   4.875
 3173TIP3   OH2 9524   3.171   4.071   0.527
 3173TIP3    H1 9525   3.244   4.011   0.543
 3173TIP3    H2 9526   3.162   4.119   0.609
 3174TIP3   OH2 9527   6.245   1.264   2.242
 3174TIP3    H1 9528   6.292   1.319   2.305
 3174TIP3    H2 9529   6.314   1.216   2.196
 3175TIP3   OH2 9530   3.046   5.895   0.034
 3175TIP3    H1 9531   2.991   5.841   0.090
 3175TIP3    H2 9532   3.039   5.983   0.071
 3176TIP3   OH2 9533   1.407   1.476   2.315
 3176TIP3    H1 9534   1.485   1.486   2.370
 3176TIP3    H2 9535   1.439   1.486   2.226
 3177TIP3   OH2 9536   3.023   5.121   0.204
 3177TIP3    H1 9537   3.108   5.164   0.208
 3177TIP3    H2 9538   3.042   5.033   0.171
 3178TIP3   OH2 9539   6.041   0.481   3.568
 3178TIP3    H1 9540   5.971   0.448   3.625
 3178TIP3    H2 9541   6.081   0.552   3.619
 3179TIP3   OH2 9542   0.207   2.167   0.089
 3179TIP3    H1 9543   0.197   2.080   0.050
 3179TIP3    H2 9544   0.252   2.218   0.021
 3180TIP3   OH2 9545   1.334   2.481   2.946
 3180TIP3    H1 9546   1.363   2.556   2.895
 3180TIP3    H2 9547   1.355   2.505   3.037
 3181TIP3   OH2 9548   0.792   3.970   2.696
 3181TIP3    H1 9549   0.884   3.954   2.674
 3181TIP3    H2 9550   0.787   3.956   2.790
 3182TIP3   OH2 9551   0.234   4.505   4.802
 3182TIP3    H1 9552   0.150   4.534   4.839
 3182TIP3    H2 9553   0.295   4.507   4.876
 3183TIP3   OH2 9554   3.647   0.527   3.916
 3183TIP3    H1 9555   3.555   0.513   3.893
 3183TIP3    H2 9556   3.650   0.616   3.952
 3184TIP3   OH2 9557   4.652   0.316   1.817
 3184TIP3    H1 9558   4.594   0.364   1.876
 3184TIP3    H2 9559   4.621   0.226   1.820
 3185TIP3   OH2 9560   4.798   3.119   1.909
 3185TIP3    H1 9561   4.859   3.109   1.836
 3185TIP3    H2 9562   4.770   3.210   1.905
 3186TIP3   OH2 9563   6.384   3.334   1.450
 3186TIP3    H1 9564   6.289   3.343   1.459
 3186TIP3    H2 9565   6.416   3.336   1.541
 3187TIP3   OH2 9566   1.537   0.484   1.793
 3187TIP3    H1 9567   1.572   0.569   1.764
 3187TIP3    H2 9568   1.606   0.448   1.849
 3188TIP3   OH2 9569   0.390   1.138   1.609
 3188TIP3    H1 9570   0.359   1.051   1.633
 3188TIP3    H2 9571   0.485   1.133   1.617
 3189TIP3   OH2 9572   2.254   1.218   4.027
 3189TIP3    H1 9573   2.176   1.266   3.998
 3189TIP3    H2 9574   2.218   1.145   4.079
 3190TIP3   OH2 9575   5.352   2.082   2.749
 3190TIP3    H1 9576   5.343   2.155   2.810
 3190TIP3    H2 9577   5.411   2.115   2.681
 3191TIP3   OH2 9578   6.089   5.121   0.832
 3191TIP3    H1 9579   6.030   5.157   0.765
 3191TIP3    H2 9580   6.175   5.123   0.792
 3192TIP3   OH2 9581   5.971   0.401   3.003
 3192TIP3    H1 9582   5.935   0.382   3.090
 3192TIP3    H2 9583   5.932   0.485   2.979
 3193TIP3   OH2 9584   5.869   4.212   4.690
 3193TIP3    H1 9585   5.853   4.291   4.742
 3193TIP3    H2 9586   5.895   4.147   4.755
 3194TIP3   OH2 9587   3.620   1.149   4.423
 3194TIP3    H1 9588   3.568   1.140   4.503
 3194TIP3    H2 9589   3.619   1.243   4.405
 3195TIP3   OH2 9590   0.709   3.164   3.910
 3195TIP3    H1 9591   0.667   3.243   3.874
 3195TIP3    H2 9592   0.640   3.123   3.962
 3196TIP3   OH2 9593   0.111   4.126   4.355
 3196TIP3    H1 9594   0.074   4.211   4.334
 3196TIP3    H2 9595   0.117   4.081   4.270
 3197TIP3   OH2 9596   2.114   2.302   3.456
 3197TIP3    H1 9597   2.097   2.363   3.384
 3197TIP3    H2 9598   2.206   2.276   3.444
 3198TIP3   OH2 9599   3.966   3.499   4.162
 3198TIP3    H1 9600   4.013   3.456   4.233
 3198TIP3    H2 9601   4.019   3.575   4.140
 3199TIP3   OH2 9602   5.705   2.304   1.329
 3199TIP3    H1 9603   5.647   2.356   1.274
 3199TIP3    H2 9604   5.661   2.300   1.414
 3200TIP3   OH2 9605   2.999   1.867   0.837
 3200TIP3    H1 9606   3.053   1.856   0.916
 3200TIP3    H2 9607   2.941   1.940   0.859
 3201TIP3   OH2 9608   1.172   4.739   4.656
 3201TIP3    H1 9609   1.152   4.722   4.748
 3201TIP3    H2 9610   1.176   4.652   4.616
 3202TIP3   OH2 9611   3.813   0.435   1.209
 3202TIP3    H1 9612   3.734   0.447   1.262
 3202TIP3    H2 9613   3.780   0.424   1.119
 3203TIP3   OH2 9614   6.126   0.064   3.247
 3203TIP3    H1 9615   6.170  -0.004   3.298
 3203TIP3    H2 9616   6.101   0.130   3.312
 3204TIP3   OH2 9617   3.930   5.570   1.138
 3204TIP3    H1 9618   3.839   5.588   1.160
 3204TIP3    H2 9619   3.949   5.486   1.182
 3205TIP3   OH2 9620   4.185   0.232   0.645
 3205TIP3    H1 9621   4.160   0.224   0.737
 3205TIP3    H2 9622   4.242   0.309   0.642
 3206TIP3   OH2 9623   1.276   3.677   3.068
 3206TIP3    H1 9624   1.312   3.611   3.010
 3206TIP3    H2 9625   1.181   3.673   3.054
 3207TIP3   OH2 9626   3.161   4.291   2.469
 3207TIP3    H1 9627   3.155   4.205   2.510
 3207TIP3    H2 9628   3.227   4.338   2.520
 3208TIP3   OH2 9629   5.940   3.908   0.430
 3208TIP3    H1 9630   5.872   3.954   0.382
 3208TIP3    H2 9631   5.994   3.866   0.362
 3209TIP3   OH2 9632   1.034   2.862   1.222
 3209TIP3    H1 9633   1.034   2.775   1.261
 3209TIP3    H2 9634   0.964   2.909   1.268
 3210TIP3   OH2 9635   5.999   1.240   3.053
 3210TIP3    H1 9636   5.935   1.171   3.038
 3210TIP3    H2 9637   6.075   1.215   3.001
 3211TIP3   OH2 9638   0.341   4.966   4.245
 3211TIP3    H1 9639   0.313   4.902   4.180
 3211TIP3    H2 9640   0.328   5.051   4.203
 3212TIP3   OH2 9641   5.034   1.656   1.982
 3212TIP3    H1 9642   5.082   1.662   2.065
 3212TIP3    H2 9643   5.013   1.563   1.973
 3213TIP3   OH2 9644   5.313   2.783   0.495
 3213TIP3    H1 9645   5.374   2.851   0.524
 3213TIP3    H2 9646   5.346   2.757   0.409
 3214TIP3   OH2 9647   0.490   1.621   4.884
 3214TIP3    H1 9648   0.491   1.669   4.801
 3214TIP3    H2 9649   0.439   1.543   4.865
 3215TIP3   OH2 9650   1.403   5.838   4.949
 3215TIP3    H1 9651   1.383   5.807   5.037
 3215TIP3    H2 9652   1.443   5.762   4.905
 3216TIP3   OH2 9653   2.352   5.694   0.166
 3216TIP3    H1 9654   2.298   5.698   0.245
 3216TIP3    H2 9655   2.357   5.600   0.145
 3217TIP3   OH2 9656   1.928   3.730   3.480
 3217TIP3    H1 9657   1.907   3.660   3.418
 3217TIP3    H2 9658   1.849   3.740   3.533
 3218TIP3   OH2 9659   5.116   2.490   4.121
 3218TIP3    H1 9660   5.061   2.467   4.197
 3218TIP3    H2 9661   5.178   2.418   4.114
 3219TIP3   OH2 9662   1.348   1.744   3.385
 3219TIP3    H1 9663   1.390   1.707   3.463
 3219TIP3    H2 9664   1.419   1.787   3.337
 3220TIP3   OH2 9665   2.271   3.849   4.784
 3220TIP3    H1 9666   2.182   3.821   4.804
 3220TIP3    H2 9667   2.322   3.768   4.782
 3221TIP3   OH2 9668   4.896   5.844   0.060
 3221TIP3    H1 9669   4.907   5.937   0.044
 3221TIP3    H2 9670   4.819   5.838   0.117
 3222TIP3   OH2 9671   5.810   4.781   2.551
 3222TIP3    H1 9672   5.855   4.697   2.552
 3222TIP3    H2 9673   5.724   4.763   2.587
 3223TIP3   OH2 9674   1.679   0.314   4.702
 3223TIP3    H1 9675   1.740   0.286   4.633
 3223TIP3    H2 9676   1.604   0.349   4.654
 3224TIP3   OH2 9677   3.021   1.670   1.409
 3224TIP3    H1 9678   2.988   1.588   1.372
 3224TIP3    H2 9679   2.976   1.678   1.493
 3225TIP3   OH2 9680   6.004   4.002   2.158
 3225TIP3    H1 9681   5.921   3.964   2.186
 3225TIP3    H2 9682   6.025   4.066   2.226
 3226TIP3   OH2 9683   0.474   0.542   2.898
 3226TIP3    H1 9684   0.567   0.537   2.920
 3226TIP3    H2 9685   0.439   0.608   2.958
 3227TIP3   OH2 9686   2.337   5.869   4.275
 3227TIP3    H1 9687   2.257   5.887   4.224
 3227TIP3    H2 9688   2.318   5.904   4.362
 3228TIP3   OH2 9689   3.395   0.167   4.465
 3228TIP3    H1 9690   3.450   0.245   4.461
 3228TIP3    H2 9691   3.344   0.170   4.383
 3229TIP3   OH2 9692   5.761   3.178   1.664
 3229TIP3    H1 9693   5.801   3.188   1.751
 3229TIP3    H2 9694   5.746   3.084   1.656
 3230TIP3   OH2 9695   5.090   4.200   0.440
 3230TIP3    H1 9696   5.096   4.177   0.533
 3230TIP3    H2 9697   5.171   4.247   0.422
 3231TIP3   OH2 9698   0.818   1.787   1.813
 3231TIP3    H1 9699   0.825   1.743   1.728
 3231TIP3    H2 9700   0.744   1.745   1.856
 3232TIP3   OH2 9701   5.557   0.747   3.763
 3232TIP3    H1 9702   5.624   0.813   3.744
 3232TIP3    H2 9703   5.478   0.797   3.781
 3233TIP3   OH2 9704   5.354   5.357   2.145
 3233TIP3    H1 9705   5.312   5.290   2.091
 3233TIP3    H2 9706   5.418   5.308   2.197
 3234TIP3   OH2 9707   3.970   1.516   2.613
 3234TIP3    H1 9708   3.959   1.583   2.546
 3234TIP3    H2 9709   3.887   1.516   2.661
 3235TIP3   OH2 9710   3.199   2.302   4.667
 3235TIP3    H1 9711   3.171   2.393   4.679
 3235TIP3    H2 9712   3.271   2.307   4.604
 3236TIP3   OH2 9713   6.295   2.962   3.540
 3236TIP3    H1 9714   6.276   2.993   3.629
 3236TIP3    H2 9715   6.211   2.931   3.506
 3237TIP3   OH2 9716   4.295   0.589   2.782
 3237TIP3    H1 9717   4.240   0.516   2.754
 3237TIP3    H2 9718   4.236   0.645   2.832
 3238TIP3   OH2 9719   5.421   3.002   1.708
 3238TIP3    H1 9720   5.491   3.049   1.754
 3238TIP3    H2 9721   5.428   3.032   1.617
 3239TIP3   OH2 9722   3.434   5.003   0.233
 3239TIP3    H1 9723   3.508   5.010   0.293
 3239TIP3    H2 9724   3.464   4.944   0.164
 3240TIP3   OH2 9725   4.859   0.044   1.616
 3240TIP3    H1 9726   4.844   0.121   1.561
 3240TIP3    H2 9727   4.945   0.058   1.654
 3241TIP3   OH2 9728   1.134   2.768   5.081
 3241TIP3    H1 9729   1.142   2.676   5.109
 3241TIP3    H2 9730   1.070   2.806   5.142
 3242TIP3   OH2 9731   5.869   2.587   1.972
 3242TIP3    H1 9732   5.915   2.592   1.888
 3242TIP3    H2 9733   5.939   2.589   2.037
 3243TIP3   OH2 9734   1.764   5.390   4.858
 3243TIP3    H1 9735   1.798   5.468   4.902
 3243TIP3    H2 9736   1.842   5.346   4.823
 3244TIP3   OH2 9737   5.973   3.803   3.009
 3244TIP3    H1 9738   5.968   3.709   3.029
 3244TIP3    H2 9739   5.966   3.846   3.094
 3245TIP3   OH2 9740   3.739   3.493   2.776
 3245TIP3    H1 9741   3.789   3.424   2.734
 3245TIP3    H2 9742   3.652   3.457   2.788
 3246TIP3   OH2 9743   0.775   0.749   0.413
 3246TIP3    H1 9744   0.839   0.694   0.368
 3246TIP3    H2 9745   0.820   0.833   0.424
 3247TIP3   OH2 9746   5.813   1.801   0.441
 3247TIP3    H1 9747   5.726   1.788   0.479
 3247TIP3    H2 9748   5.829   1.721   0.391
 3248TIP3   OH2 9749   2.608   4.768   5.119
 3248TIP3    H1 9750   2.595   4.747   5.211
 3248TIP3    H2 9751   2.520   4.762   5.081
 3249TIP3   OH2 9752   3.847   5.518   3.732
 3249TIP3    H1 9753   3.915   5.480   3.789
 3249TIP3    H2 9754   3.861   5.475   3.647
 3250TIP3   OH2 9755   1.520   4.990   1.027
 3250TIP3    H1 9756   1.484   4.905   1.003
 3250TIP3    H2 9757   1.579   5.012   0.955
 3251TIP3   OH2 9758   0.689   2.592   1.802
 3251TIP3    H1 9759   0.672   2.592   1.896
 3251TIP3    H2 9760   0.652   2.510   1.771
 3252TIP3   OH2 9761   0.519   3.210   0.749
 3252TIP3    H1 9762   0.585   3.182   0.812
 3252TIP3    H2 9763   0.542   3.163   0.669
 3253TIP3   OH2 9764   2.723   2.591   0.394
 3253TIP3    H1 9765   2.747   2.555   0.479
 3253TIP3    H2 9766   2.779   2.545   0.332
 3254TIP3   OH2 9767   2.117   0.887   3.601
 3254TIP3    H1 9768   2.181   0.844   3.658
 3254TIP3    H2 9769   2.079   0.956   3.656
 3255TIP3   OH2 9770   0.468   2.722   3.419
 3255TIP3    H1 9771   0.401   2.784   3.449
 3255TIP3    H2 9772   0.443   2.702   3.328
 3256TIP3   OH2 9773   2.738   1.116   1.526
 3256TIP3    H1 9774   2.669   1.090   1.465
 3256TIP3    H2 9775   2.705   1.090   1.612
 3257TIP3   OH2 9776   3.518   0.758   3.676
 3257TIP3    H1 9777   3.515   0.797   3.764
 3257TIP3    H2 9778   3.504   0.832   3.617
 3258TIP3   OH2 9779   2.879   3.224   2.331
 3258TIP3    H1 9780   2.822   3.301   2.335
 3258TIP3    H2 9781   2.953   3.253   2.277
 3259TIP3   OH2 9782   1.786   0.936   4.507
 3259TIP3    H1 9783   1.822   0.912   4.592
 3259TIP3    H2 9784   1.692   0.938   4.520
 3260TIP3   OH2 9785   2.723   5.864   4.640
 3260TIP3    H1 9786   2.683   5.810   4.571
 3260TIP3    H2 9787   2.791   5.809   4.677
 3261TIP3   OH2 9788   0.965   1.272   4.748
 3261TIP3    H1 9789   0.921   1.357   4.742
 3261TIP3    H2 9790   1.017   1.266   4.668
 3262TIP3   OH2 9791   2.288   2.744   2.120
 3262TIP3    H1 9792   2.257   2.696   2.197
 3262TIP3    H2 9793   2.341   2.815   2.156
 3263TIP3   OH2 9794   5.847   5.506   2.497
 3263TIP3    H1 9795   5.861   5.600   2.508
 3263TIP3    H2 9796   5.929   5.467   2.526
 3264TIP3   OH2 9797   3.663   3.741   2.939
 3264TIP3    H1 9798   3.613   3.739   2.858
 3264TIP3    H2 9799   3.648   3.655   2.979
 3265TIP3   OH2 9800   4.506   4.513   2.465
 3265TIP3    H1 9801   4.418   4.477   2.470
 3265TIP3    H2 9802   4.545   4.470   2.389
 3266TIP3   OH2 9803   0.965   2.883   2.286
 3266TIP3    H1 9804   1.024   2.907   2.357
 3266TIP3    H2 9805   0.908   2.816   2.323
 3267TIP3   OH2 9806   4.747   0.275   0.015
 3267TIP3    H1 9807   4.773   0.207  -0.047
 3267TIP3    H2 9808   4.829   0.316   0.043
 3268TIP3   OH2 9809   0.715   5.525   1.446
 3268TIP3    H1 9810   0.747   5.445   1.405
 3268TIP3    H2 9811   0.627   5.503   1.476
 3269TIP3   OH2 9812   4.040   0.538   2.357
 3269TIP3    H1 9813   4.063   0.477   2.427
 3269TIP3    H2 9814   4.104   0.522   2.289
 3270TIP3   OH2 9815   5.461   3.509   0.386
 3270TIP3    H1 9816   5.424   3.507   0.475
 3270TIP3    H2 9817   5.398   3.461   0.333
 3271TIP3   OH2 9818   4.214   4.430   1.382
 3271TIP3    H1 9819   4.181   4.340   1.388
 3271TIP3    H2 9820   4.201   4.455   1.290
 3272TIP3   OH2 9821   1.783   3.350   4.172
 3272TIP3    H1 9822   1.764   3.261   4.202
 3272TIP3    H2 9823   1.875   3.348   4.146
 3273TIP3   OH2 9824   3.276   4.998   0.478
 3273TIP3    H1 9825   3.320   5.073   0.519
 3273TIP3    H2 9826   3.303   5.000   0.387
 3274TIP3   OH2 9827   4.310   0.376   1.404
 3274TIP3    H1 9828   4.337   0.304   1.461
 3274TIP3    H2 9829   4.215   0.379   1.412
 3275TIP3   OH2 9830   0.925   0.669   2.999
 3275TIP3    H1 9831   0.978   0.709   2.930
 3275TIP3    H2 9832   0.873   0.602   2.954
 3276TIP3   OH2 9833   1.792   0.133   4.874
 3276TIP3    H1 9834   1.755   0.213   4.836
 3276TIP3    H2 9835   1.747   0.123   4.958
 3277TIP3   OH2 9836   2.397   1.423   0.155
 3277TIP3    H1 9837   2.434   1.336   0.169
 3277TIP3    H2 9838   2.433   1.476   0.226
 3278TIP3   OH2 9839   3.696   1.921   0.425
 3278TIP3    H1 9840   3.735   1.984   0.485
 3278TIP3    H2 9841   3.727   1.836   0.456
 3279TIP3   OH2 9842   0.462   1.054   3.686
 3279TIP3    H1 9843   0.410   0.988   3.642
 3279TIP3    H2 9844   0.520   1.090   3.618
 3280TIP3   OH2 9845   6.159   3.026   1.268
 3280TIP3    H1 9846   6.227   2.994   1.326
 3280TIP3    H2 9847   6.129   3.108   1.309
 3281TIP3   OH2 9848   4.074   1.929   3.965
 3281TIP3    H1 9849   4.166   1.929   3.942
 3281TIP3    H2 9850   4.032   1.983   3.898
 3282TIP3   OH2 9851   1.319   4.211   2.452
 3282TIP3    H1 9852   1.336   4.118   2.466
 3282TIP3    H2 9853   1.293   4.217   2.359
 3283TIP3   OH2 9854   1.973   5.317   2.521
 3283TIP3    H1 9855   2.023   5.239   2.544
 3283TIP3    H2 9856   1.905   5.285   2.462
 3284TIP3   OH2 9857   1.576   0.891   4.988
 3284TIP3    H1 9858   1.505   0.946   4.956
 3284TIP3    H2 9859   1.532   0.814   5.024
 3285TIP3   OH2 9860   3.543   5.153   4.245
 3285TIP3    H1 9861   3.556   5.134   4.338
 3285TIP3    H2 9862   3.628   5.182   4.214
 3286TIP3   OH2 9863   0.545   4.436   0.095
 3286TIP3    H1 9864   0.517   4.374   0.163
 3286TIP3    H2 9865   0.488   4.416   0.020
 3287TIP3   OH2 9866   4.992   4.414   1.763
 3287TIP3    H1 9867   5.036   4.329   1.770
 3287TIP3    H2 9868   5.036   4.459   1.691
 3288TIP3   OH2 9869   6.186   2.346   0.857
 3288TIP3    H1 9870   6.175   2.425   0.911
 3288TIP3    H2 9871   6.122   2.284   0.891
 3289TIP3   OH2 9872   0.884   5.713   1.538
 3289TIP3    H1 9873   0.889   5.797   1.493
 3289TIP3    H2 9874   0.822   5.661   1.487
 3290TIP3   OH2 9875   1.150   1.974   0.020
 3290TIP3    H1 9876   1.148   1.883  -0.009
 3290TIP3    H2 9877   1.110   1.973   0.107
 3291TIP3   OH2 9878   2.751   4.667   0.082
 3291TIP3    H1 9879   2.710   4.644   0.166
 3291TIP3    H2 9880   2.704   4.615   0.017
 3292TIP3   OH2 9881   3.955   1.269   0.486
 3292TIP3    H1 9882   3.912   1.339   0.535
 3292TIP3    H2 9883   3.965   1.198   0.550
 3293TIP3   OH2 9884   3.588   5.014   3.672
 3293TIP3    H1 9885   3.617   4.938   3.724
 3293TIP3    H2 9886   3.493   5.014   3.681
 3294TIP3   OH2 9887   5.056   2.619   2.145
 3294TIP3    H1 9888   5.142   2.624   2.103
 3294TIP3    H2 9889   5.030   2.711   2.156
 3295TIP3   OH2 9890   3.252   2.787   2.902
 3295TIP3    H1 9891   3.221   2.874   2.928
 3295TIP3    H2 9892   3.250   2.736   2.983
 3296TIP3   OH2 9893   4.657   5.310   2.811
 3296TIP3    H1 9894   4.616   5.224   2.806
 3296TIP3    H2 9895   4.583   5.371   2.816
 3297TIP3   OH2 9896   2.841   4.925   4.686
 3297TIP3    H1 9897   2.827   4.850   4.628
 3297TIP3    H2 9898   2.817   5.001   4.635
 3298TIP3   OH2 9899   5.957   5.599   4.197
 3298TIP3    H1 9900   5.910   5.561   4.271
 3298TIP3    H2 9901   5.916   5.684   4.183
 3299TIP3   OH2 9902   3.217   1.293   4.853
 3299TIP3    H1 9903   3.193   1.370   4.904
 3299TIP3    H2 9904   3.135   1.263   4.814
 3300TIP3   OH2 9905   5.173   3.719   2.704
 3300TIP3    H1 9906   5.185   3.769   2.623
 3300TIP3    H2 9907   5.095   3.666   2.689
 3301TIP3   OH2 9908   5.549   4.147   3.648
 3301TIP3    H1 9909   5.562   4.219   3.709
 3301TIP3    H2 9910   5.637   4.116   3.628
 3302TIP3   OH2 9911   0.063   4.936   0.264
 3302TIP3    H1 9912   0.102   4.858   0.223
 3302TIP3    H2 9913   0.090   4.931   0.356
 3303TIP3   OH2 9914   1.766   3.092   4.183
 3303TIP3    H1 9915   1.712   3.093   4.104
 3303TIP3    H2 9916   1.732   3.019   4.235
 3304TIP3   OH2 9917   4.153   2.294   4.984
 3304TIP3    H1 9918   4.075   2.274   5.036
 3304TIP3    H2 9919   4.224   2.297   5.048
 3305TIP3   OH2 9920   3.087   5.211   2.652
 3305TIP3    H1 9921   3.160   5.270   2.669
 3305TIP3    H2 9922   3.125   5.124   2.656
 3306TIP3   OH2 9923   3.585   2.248   1.380
 3306TIP3    H1 9924   3.588   2.155   1.399
 3306TIP3    H2 9925   3.574   2.290   1.465
 3307TIP3   OH2 9926   4.199   3.878   2.662
 3307TIP3    H1 9927   4.211   3.818   2.736
 3307TIP3    H2 9928   4.151   3.828   2.597
 3308TIP3   OH2 9929   5.257   5.537   0.746
 3308TIP3    H1 9930   5.340   5.581   0.762
 3308TIP3    H2 9931   5.215   5.533   0.832
 3309TIP3   OH2 9932   0.901   3.116   2.147
 3309TIP3    H1 9933   0.839   3.073   2.088
 3309TIP3    H2 9934   0.946   3.043   2.191
 3310TIP3   OH2 9935   3.579   2.680   0.936
 3310TIP3    H1 9936   3.581   2.702   1.029
 3310TIP3    H2 9937   3.562   2.586   0.934
 3311TIP3   OH2 9938   0.302   3.282   3.015
 3311TIP3    H1 9939   0.232   3.318   2.960
 3311TIP3    H2 9940   0.277   3.304   3.104
 3312TIP3   OH2 9941   0.886   2.050   0.573
 3312TIP3    H1 9942   0.904   2.137   0.538
 3312TIP3    H2 9943   0.815   2.016   0.519
 3313TIP3   OH2 9944   1.933   0.462   4.734
 3313TIP3    H1 9945   1.870   0.390   4.737
 3313TIP3    H2 9946   2.005   0.430   4.680
 3314TIP3   OH2 9947   2.382   5.988   0.940
 3314TIP3    H1 9948   2.344   5.937   0.869
 3314TIP3    H2 9949   2.475   5.963   0.940
 3315TIP3   OH2 9950   5.306   0.263   1.398
 3315TIP3    H1 9951   5.241   0.213   1.349
 3315TIP3    H2 9952   5.263   0.283   1.481
 3316TIP3   OH2 9953   4.498   1.847   2.637
 3316TIP3    H1 9954   4.573   1.903   2.617
 3316TIP3    H2 9955   4.524   1.760   2.608
 3317TIP3   OH2 9956   2.575   0.655   3.215
 3317TIP3    H1 9957   2.540   0.567   3.200
 3317TIP3    H2 9958   2.526   0.688   3.290
 3318TIP3   OH2 9959   0.331   1.521   0.392
 3318TIP3    H1 9960   0.250   1.571   0.380
 3318TIP3    H2 9961   0.382   1.572   0.455
 3319TIP3   OH2 9962   0.078   3.231   1.003
 3319TIP3    H1 9963   0.157   3.279   0.976
 3319TIP3    H2 9964   0.061   3.171   0.930
 3320TIP3   OH2 9965   1.925   2.857   4.930
 3320TIP3    H1 9966   1.856   2.792   4.917
 3320TIP3    H2 9967   2.003   2.805   4.952
 3321TIP3   OH2 9968   0.139   3.300   3.259
 3321TIP3    H1 9969   0.145   3.227   3.320
 3321TIP3    H2 9970   0.049   3.296   3.226
 3322TIP3   OH2 9971   1.341   4.344   3.234
 3322TIP3    H1 9972   1.286   4.278   3.191
 3322TIP3    H2 9973   1.328   4.328   3.328
 3323TIP3   OH2 9974   2.668   0.336   0.440
 3323TIP3    H1 9975   2.745   0.280   0.436
 3323TIP3    H2 9976   2.601   0.288   0.391
 3324TIP3   OH2 9977   5.767   3.205   2.640
 3324TIP3    H1 9978   5.814   3.124   2.620
 3324TIP3    H2 9979   5.811   3.271   2.586
 3325TIP3   OH2 9980   1.780   5.539   0.130
 3325TIP3    H1 9981   1.869   5.571   0.115
 3325TIP3    H2 9982   1.729   5.576   0.058
 3326TIP3   OH2 9983   6.118   2.234   0.281
 3326TIP3    H1 9984   6.172   2.292   0.336
 3326TIP3    H2 9985   6.043   2.213   0.336
 3327TIP3   OH2 9986   3.376   3.068   3.813
 3327TIP3    H1 9987   3.285   3.040   3.826
 3327TIP3    H2 9988   3.427   3.012   3.872
 3328TIP3   OH2 9989   4.385   0.763   1.461
 3328TIP3    H1 9990   4.468   0.721   1.481
 3328TIP3    H2 9991   4.347   0.784   1.547
 3329TIP3   OH2 9992   3.654   2.511   4.266
 3329TIP3    H1 9993   3.618   2.423   4.281
 3329TIP3    H2 9994   3.632   2.560   4.346
 3330TIP3   OH2 9995   4.488   2.095   5.013
 3330TIP3    H1 9996   4.454   2.177   5.047
 3330TIP3    H2 9997   4.560   2.120   4.955
 3331TIP3   OH2 9998   3.030   3.413   2.925
 3331TIP3    H1 9999   2.997   3.499   2.951
 3331TIP3    H210000   3.038   3.365   3.007
 3332TIP3   OH210001   2.119   1.043   4.646
 3332TIP3    H110002   2.141   1.122   4.597
 3332TIP3    H210003   2.086   1.076   4.730
 3333TIP3   OH210004   0.054   1.996   1.027
 3333TIP3    H110005   0.139   1.980   1.068
 3333TIP3    H210006   0.061   2.084   0.990
 3334TIP3   OH210007   3.581   0.272   0.195
 3334TIP3    H110008   3.603   0.188   0.235
 3334TIP3    H210009   3.589   0.256   0.101
 3335TIP3   OH210010   4.259   2.680   3.366
 3335TIP3    H110011   4.316   2.752   3.339
 3335TIP3    H210012   4.207   2.716   3.438
 3336TIP3   OH210013   5.905   4.741   1.286
 3336TIP3    H110014   5.861   4.658   1.306
 3336TIP3    H210015   5.849   4.808   1.325
 3337TIP3   OH210016   3.999   3.724   0.963
 3337TIP3    H110017   3.955   3.808   0.948
 3337TIP3    H210018   3.929   3.665   0.989
 3338TIP3   OH210019   1.571   2.577   1.332
 3338TIP3    H110020   1.549   2.625   1.412
 3338TIP3    H210021   1.617   2.641   1.278
 3339TIP3   OH210022   5.939   3.231   1.145
 3339TIP3    H110023   5.927   3.323   1.123
 3339TIP3    H210024   6.030   3.212   1.121
 3340TIP3   OH210025   4.590   2.702   5.130
 3340TIP3    H110026   4.526   2.734   5.066
 3340TIP3    H210027   4.665   2.674   5.078
 3341TIP3   OH210028   5.444   0.882   3.453
 3341TIP3    H110029   5.381   0.953   3.440
 3341TIP3    H210030   5.440   0.832   3.372
 3342TIP3   OH210031   6.181   5.943   3.126
 3342TIP3    H110032   6.149   5.860   3.091
 3342TIP3    H210033   6.134   5.954   3.208
 3343TIP3   OH210034   3.602   5.744   2.547
 3343TIP3    H110035   3.609   5.823   2.493
 3343TIP3    H210036   3.692   5.722   2.569
 3344TIP3   OH210037   1.862   1.545   4.876
 3344TIP3    H110038   1.930   1.477   4.884
 3344TIP3    H210039   1.911   1.623   4.850
 3345TIP3   OH210040   5.651   3.905   2.729
 3345TIP3    H110041   5.701   3.928   2.807
 3345TIP3    H210042   5.565   3.878   2.762
 3346TIP3   OH210043   4.665   1.459   1.340
 3346TIP3    H110044   4.725   1.457   1.266
 3346TIP3    H210045   4.589   1.410   1.309
 3347TIP3   OH210046   3.698   0.184   1.350
 3347TIP3    H110047   3.646   0.265   1.350
 3347TIP3    H210048   3.698   0.155   1.259
 3348TIP3   OH210049   2.195   4.813   2.766
 3348TIP3    H110050   2.241   4.855   2.839
 3348TIP3    H210051   2.115   4.778   2.804
 3349TIP3   OH210052   2.196   2.857   0.262
 3349TIP3    H110053   2.113   2.834   0.304
 3349TIP3    H210054   2.176   2.936   0.212
 3350TIP3   OH210055   1.751   2.515   1.659
 3350TIP3    H110056   1.822   2.555   1.709
 3350TIP3    H210057   1.790   2.492   1.575
 3351TIP3   OH210058   3.569   2.012   0.201
 3351TIP3    H110059   3.627   1.971   0.264
 3351TIP3    H210060   3.518   1.940   0.164
 3352TIP3   OH210061   2.904   3.818   4.887
 3352TIP3    H110062   2.907   3.904   4.845
 3352TIP3    H210063   2.821   3.819   4.935
 3353TIP3   OH210064   4.487   3.439   1.844
 3353TIP3    H110065   4.477   3.345   1.864
 3353TIP3    H210066   4.419   3.481   1.897
 3354TIP3   OH210067   1.554   5.481   2.439
 3354TIP3    H110068   1.462   5.494   2.413
 3354TIP3    H210069   1.568   5.387   2.431
 3355TIP3   OH210070   5.964   4.687   3.410
 3355TIP3    H110071   5.984   4.606   3.363
 3355TIP3    H210072   6.026   4.751   3.374
 3356TIP3   OH210073   1.559   0.927   1.207
 3356TIP3    H110074   1.545   1.007   1.258
 3356TIP3    H210075   1.497   0.933   1.135
 3357TIP3   OH210076   3.852   4.871   4.778
 3357TIP3    H110077   3.792   4.945   4.782
 3357TIP3    H210078   3.796   4.794   4.786
 3358TIP3   OH210079   5.267   0.506   0.978
 3358TIP3    H110080   5.207   0.538   1.046
 3358TIP3    H210081   5.338   0.465   1.027
 3359TIP3   OH210082   3.774   2.847   3.530
 3359TIP3    H110083   3.774   2.755   3.506
 3359TIP3    H210084   3.844   2.886   3.478
 3360TIP3   OH210085   4.830   0.695   0.173
 3360TIP3    H110086   4.826   0.656   0.260
 3360TIP3    H210087   4.884   0.635   0.122
 3361TIP3   OH210088   4.931   0.480   3.663
 3361TIP3    H110089   4.893   0.562   3.630
 3361TIP3    H210090   4.920   0.486   3.758
 3362TIP3   OH210091   1.564   5.756   0.039
 3362TIP3    H110092   1.529   5.668   0.027
 3362TIP3    H210093   1.552   5.799  -0.045
 3363TIP3   OH210094   1.774   1.060   1.006
 3363TIP3    H110095   1.724   1.031   1.082
 3363TIP3    H210096   1.740   1.147   0.986
 3364TIP3   OH210097   1.305   5.703   2.180
 3364TIP3    H110098   1.306   5.777   2.119
 3364TIP3    H210099   1.386   5.656   2.163
 3365TIP3   OH210100   6.182   4.617   0.522
 3365TIP3    H110101   6.113   4.587   0.582
 3365TIP3    H210102   6.158   4.578   0.438
 3366TIP3   OH210103   2.699   0.406   2.076
 3366TIP3    H110104   2.698   0.437   2.166
 3366TIP3    H210105   2.655   0.321   2.079
 3367TIP3   OH210106   4.534   2.991   1.288
 3367TIP3    H110107   4.465   2.938   1.328
 3367TIP3    H210108   4.513   3.081   1.313
 3368TIP3   OH210109   1.749   2.704   1.160
 3368TIP3    H110110   1.812   2.669   1.096
 3368TIP3    H210111   1.796   2.703   1.243
 3369TIP3   OH210112   0.404   2.332   4.343
 3369TIP3    H110113   0.365   2.302   4.425
 3369TIP3    H210114   0.348   2.406   4.316
 3370TIP3   OH210115   0.857   0.810   1.605
 3370TIP3    H110116   0.827   0.862   1.680
 3370TIP3    H210117   0.925   0.753   1.641
 3371TIP3   OH210118   1.729   3.669   1.347
 3371TIP3    H110119   1.778   3.593   1.378
 3371TIP3    H210120   1.668   3.689   1.418
 3372TIP3   OH210121   5.693   4.560   1.341
 3372TIP3    H110122   5.682   4.546   1.435
 3372TIP3    H210123   5.699   4.472   1.304
 3373TIP3   OH210124   2.712   5.902   3.450
 3373TIP3    H110125   2.634   5.850   3.472
 3373TIP3    H210126   2.735   5.945   3.533
 3374TIP3   OH210127   5.369   1.642   3.977
 3374TIP3    H110128   5.442   1.583   3.993
 3374TIP3    H210129   5.362   1.646   3.882
 3375TIP3   OH210130   4.102   2.084   2.112
 3375TIP3    H110131   4.155   2.164   2.112
 3375TIP3    H210132   4.112   2.049   2.024
 3376TIP3   OH210133   4.923   4.074   1.811
 3376TIP3    H110134   5.009   4.102   1.779
 3376TIP3    H210135   4.874   4.051   1.733
 3377TIP3   OH210136   5.526   3.913   2.037
 3377TIP3    H110137   5.580   3.836   2.022
 3377TIP3    H210138   5.579   3.986   2.005
 3378TIP3   OH210139   3.890   0.405   4.855
 3378TIP3    H110140   3.869   0.412   4.948
 3378TIP3    H210141   3.806   0.389   4.813
 3379TIP3   OH210142   4.306   1.701   4.809
 3379TIP3    H110143   4.228   1.709   4.754
 3379TIP3    H210144   4.344   1.617   4.784
 3380TIP3   OH210145   4.112   4.590   4.122
 3380TIP3    H110146   4.044   4.543   4.075
 3380TIP3    H210147   4.065   4.647   4.183
 3381TIP3   OH210148   5.088   3.732   4.301
 3381TIP3    H110149   5.107   3.664   4.236
 3381TIP3    H210150   4.992   3.734   4.306
 3382TIP3   OH210151   0.779   1.104   0.754
 3382TIP3    H110152   0.815   1.182   0.797
 3382TIP3    H210153   0.836   1.033   0.782
 3383TIP3   OH210154   6.336   2.781   3.129
 3383TIP3    H110155   6.253   2.793   3.085
 3383TIP3    H210156   6.315   2.782   3.222
 3384TIP3   OH210157   0.542   5.637   0.428
 3384TIP3    H110158   0.556   5.626   0.334
 3384TIP3    H210159   0.594   5.568   0.469
 3385TIP3   OH210160   4.713   2.352   0.402
 3385TIP3    H110161   4.727   2.267   0.360
 3385TIP3    H210162   4.693   2.330   0.493
 3386TIP3   OH210163   2.888   1.211   4.367
 3386TIP3    H110164   2.899   1.153   4.292
 3386TIP3    H210165   2.799   1.245   4.359
 3387TIP3   OH210166   3.449   0.777   2.937
 3387TIP3    H110167   3.458   0.843   2.868
 3387TIP3    H210168   3.355   0.763   2.944
 3388TIP3   OH210169   2.699   4.409   2.087
 3388TIP3    H110170   2.664   4.342   2.027
 3388TIP3    H210171   2.746   4.359   2.153
 3389TIP3   OH210172   2.294   3.847   4.082
 3389TIP3    H110173   2.302   3.927   4.134
 3389TIP3    H210174   2.326   3.871   3.995
 3390TIP3   OH210175   0.296   5.835   3.955
 3390TIP3    H110176   0.302   5.784   3.874
 3390TIP3    H210177   0.214   5.883   3.947
 3391TIP3   OH210178   1.978   1.572   1.207
 3391TIP3    H110179   1.942   1.651   1.167
 3391TIP3    H210180   2.041   1.603   1.272
 3392TIP3   OH210181   4.352   2.499   0.641
 3392TIP3    H110182   4.341   2.450   0.723
 3392TIP3    H210183   4.428   2.555   0.658
 3393TIP3   OH210184   1.871   1.123   2.996
 3393TIP3    H110185   1.839   1.046   2.949
 3393TIP3    H210186   1.960   1.100   3.022
 3394TIP3   OH210187   2.033   4.803   4.943
 3394TIP3    H110188   1.941   4.776   4.942
 3394TIP3    H210189   2.035   4.879   5.002
 3395TIP3   OH210190   1.921   1.231   5.058
 3395TIP3    H110191   1.903   1.137   5.060
 3395TIP3    H210192   2.011   1.238   5.026
 3396TIP3   OH210193   3.349   1.794   3.715
 3396TIP3    H110194   3.299   1.784   3.796
 3396TIP3    H210195   3.435   1.826   3.745
 3397TIP3   OH210196   3.406   4.955   4.946
 3397TIP3    H110197   3.315   4.983   4.951
 3397TIP3    H210198   3.402   4.865   4.913
 3398TIP3   OH210199   3.379   2.262   2.366
 3398TIP3    H110200   3.299   2.232   2.409
 3398TIP3    H210201   3.354   2.343   2.321
 3399TIP3   OH210202   1.321   0.983   2.701
 3399TIP3    H110203   1.381   1.056   2.715
 3399TIP3    H210204   1.310   0.979   2.606
 3400TIP3   OH210205   1.246   5.201   2.955
 3400TIP3    H110206   1.264   5.160   2.871
 3400TIP3    H210207   1.194   5.278   2.933
 3401TIP3   OH210208   0.580   4.160   0.227
 3401TIP3    H110209   0.588   4.073   0.266
 3401TIP3    H210210   0.669   4.195   0.227
 3402TIP3   OH210211   1.673   0.366   4.166
 3402TIP3    H110212   1.579   0.387   4.162
 3402TIP3    H210213   1.704   0.408   4.246
 3403TIP3   OH210214   5.191   3.858   0.148
 3403TIP3    H110215   5.114   3.835   0.201
 3403TIP3    H210216   5.158   3.863   0.058
 3404TIP3   OH210217   1.972   2.468   2.262
 3404TIP3    H110218   1.879   2.446   2.256
 3404TIP3    H210219   2.015   2.406   2.204
 3405TIP3   OH210220   1.975   4.927   4.561
 3405TIP3    H110221   1.888   4.893   4.538
 3405TIP3    H210222   2.015   4.856   4.611
 3406TIP3   OH210223   2.366   3.867   3.792
 3406TIP3    H110224   2.332   3.901   3.709
 3406TIP3    H210225   2.332   3.778   3.797
 3407TIP3   OH210226   2.627   3.852   3.554
 3407TIP3    H110227   2.590   3.787   3.495
 3407TIP3    H210228   2.694   3.896   3.502
 3408TIP3   OH210229   4.069   0.499   0.960
 3408TIP3    H110230   4.160   0.495   0.988
 3408TIP3    H210231   4.049   0.410   0.932
 3409TIP3   OH210232   4.519   4.317   4.312
 3409TIP3    H110233   4.481   4.404   4.299
 3409TIP3    H210234   4.572   4.326   4.391
 3410TIP3   OH210235   6.296   3.905   1.604
 3410TIP3    H110236   6.251   3.840   1.658
 3410TIP3    H210237   6.356   3.855   1.550
 3411TIP3   OH210238   2.673   4.567   0.343
 3411TIP3    H110239   2.606   4.632   0.321
 3411TIP3    H210240   2.646   4.533   0.428
 3412TIP3   OH210241   1.292   3.039   3.113
 3412TIP3    H110242   1.284   2.946   3.095
 3412TIP3    H210243   1.204   3.067   3.137
 3413TIP3   OH210244   5.029   0.059   5.178
 3413TIP3    H110245   5.124   0.068   5.169
 3413TIP3    H210246   5.004   0.131   5.236
 3414TIP3   OH210247   1.432   1.853   1.110
 3414TIP3    H110248   1.341   1.834   1.129
 3414TIP3    H210249   1.480   1.780   1.150
 3415TIP3   OH210250   1.511   3.096   2.407
 3415TIP3    H110251   1.476   3.042   2.336
 3415TIP3    H210252   1.460   3.177   2.402
 3416TIP3   OH210253   5.725   2.356   2.051
 3416TIP3    H110254   5.777   2.299   1.994
 3416TIP3    H210255   5.774   2.438   2.055
 3417TIP3   OH210256   3.795   0.103   1.774
 3417TIP3    H110257   3.809   0.050   1.695
 3417TIP3    H210258   3.765   0.040   1.839
 3418TIP3   OH210259   2.646   3.914   3.820
 3418TIP3    H110260   2.554   3.932   3.840
 3418TIP3    H210261   2.647   3.900   3.725
 3419TIP3   OH210262   0.657   5.937   3.476
 3419TIP3    H110263   0.750   5.961   3.472
 3419TIP3    H210264   0.634   5.915   3.386
 3420TIP3   OH210265   3.327   4.506   0.981
 3420TIP3    H110266   3.344   4.535   0.892
 3420TIP3    H210267   3.337   4.411   0.978
 3421TIP3   OH210268   2.561   5.765   4.437
 3421TIP3    H110269   2.519   5.820   4.371
 3421TIP3    H210270   2.589   5.687   4.388
 3422TIP3   OH210271   3.443   3.231   2.009
 3422TIP3    H110272   3.425   3.313   1.964
 3422TIP3    H210273   3.427   3.164   1.943
 3423TIP3   OH210274   3.301   5.883   4.269
 3423TIP3    H110275   3.365   5.933   4.320
 3423TIP3    H210276   3.266   5.819   4.332
 3424TIP3   OH210277   3.959   0.489   1.978
 3424TIP3    H110278   4.000   0.471   1.894
 3424TIP3    H210279   3.965   0.584   1.989
 3425TIP3   OH210280   1.364   2.734   3.652
 3425TIP3    H110281   1.427   2.670   3.620
 3425TIP3    H210282   1.416   2.814   3.666
 3426TIP3   OH210283   0.277   0.491   4.647
 3426TIP3    H110284   0.261   0.414   4.592
 3426TIP3    H210285   0.191   0.518   4.676
 3427TIP3   OH210286   3.596   3.234   0.093
 3427TIP3    H110287   3.518   3.181   0.110
 3427TIP3    H210288   3.647   3.228   0.174
 3428TIP3   OH210289   1.709   4.690   0.325
 3428TIP3    H110290   1.753   4.761   0.372
 3428TIP3    H210291   1.741   4.611   0.367
 3429TIP3   OH210292   5.557   5.860   4.670
 3429TIP3    H110293   5.603   5.940   4.644
 3429TIP3    H210294   5.579   5.797   4.601
 3430TIP3   OH210295   2.539   0.222   4.301
 3430TIP3    H110296   2.492   0.282   4.360
 3430TIP3    H210297   2.470   0.168   4.262
 3431TIP3   OH210298   0.097   0.688   1.343
 3431TIP3    H110299   0.014   0.649   1.370
 3431TIP3    H210300   0.142   0.618   1.295
 3432TIP3   OH210301   1.487   3.816   2.233
 3432TIP3    H110302   1.492   3.721   2.240
 3432TIP3    H210303   1.573   3.846   2.264
 3433TIP3   OH210304   6.066   4.490   1.720
 3433TIP3    H110305   6.046   4.569   1.669
 3433TIP3    H210306   6.147   4.457   1.682
 3434TIP3   OH210307   3.890   2.900   4.951
 3434TIP3    H110308   3.882   2.937   5.039
 3434TIP3    H210309   3.864   2.971   4.892
 3435TIP3   OH210310   3.098   4.606   3.535
 3435TIP3    H110311   3.105   4.700   3.523
 3435TIP3    H210312   3.116   4.569   3.449
 3436TIP3   OH210313   6.154   1.684   0.337
 3436TIP3    H110314   6.075   1.725   0.301
 3436TIP3    H210315   6.154   1.709   0.429
 3437TIP3   OH210316   4.937   5.351   0.272
 3437TIP3    H110317   4.911   5.316   0.187
 3437TIP3    H210318   4.907   5.442   0.270
 3438TIP3   OH210319   2.029   3.304   4.844
 3438TIP3    H110320   2.023   3.218   4.802
 3438TIP3    H210321   2.034   3.366   4.771
 3439TIP3   OH210322   6.040   3.053   3.276
 3439TIP3    H110323   6.058   2.987   3.209
 3439TIP3    H210324   5.967   3.017   3.326
 3440TIP3   OH210325   5.897   3.588   1.434
 3440TIP3    H110326   5.850   3.543   1.504
 3440TIP3    H210327   5.829   3.615   1.372
 3441TIP3   OH210328   6.258   4.796   1.227
 3441TIP3    H110329   6.198   4.864   1.195
 3441TIP3    H210330   6.272   4.818   1.319
 3442TIP3   OH210331   4.480   3.270   0.405
 3442TIP3    H110332   4.491   3.198   0.343
 3442TIP3    H210333   4.392   3.304   0.388
 3443TIP3   OH210334   5.987   3.360   2.949
 3443TIP3    H110335   5.900   3.320   2.950
 3443TIP3    H210336   5.977   3.442   2.996
 3444TIP3   OH210337   2.310   3.140   3.728
 3444TIP3    H110338   2.303   3.139   3.823
 3444TIP3    H210339   2.229   3.182   3.698
 3445TIP3   OH210340   3.199   2.088   3.137
 3445TIP3    H110341   3.128   2.052   3.190
 3445TIP3    H210342   3.274   2.031   3.155
 3446TIP3   OH210343   4.108   2.276   2.984
 3446TIP3    H110344   4.028   2.330   2.979
 3446TIP3    H210345   4.130   2.275   3.078
 3447TIP3   OH210346   5.405   2.067   1.864
 3447TIP3    H110347   5.352   2.004   1.912
 3447TIP3    H210348   5.495   2.044   1.886
 3448TIP3   OH210349   0.801   2.532   3.356
 3448TIP3    H110350   0.765   2.472   3.289
 3448TIP3    H210351   0.726   2.551   3.412
 3449TIP3   OH210352   2.223   4.545   4.023
 3449TIP3    H110353   2.174   4.530   4.103
 3449TIP3    H210354   2.289   4.611   4.047
 3450TIP3   OH210355   5.676   2.307   3.976
 3450TIP3    H110356   5.665   2.395   3.939
 3450TIP3    H210357   5.598   2.260   3.950
 3451TIP3   OH210358   0.208  -0.029   5.182
 3451TIP3    H110359   0.132   0.019   5.215
 3451TIP3    H210360   0.271   0.039   5.158
 3452TIP3   OH210361   4.235   4.530   2.341
 3452TIP3    H110362   4.219   4.542   2.248
 3452TIP3    H210363   4.176   4.459   2.367
 3453TIP3   OH210364   0.660   1.408   0.386
 3453TIP3    H110365   0.668   1.499   0.359
 3453TIP3    H210366   0.588   1.408   0.449
 3454TIP3   OH210367   4.780   1.131   2.012
 3454TIP3    H110368   4.711   1.172   2.065
 3454TIP3    H210369   4.771   1.172   1.926
 3455TIP3   OH210370   3.372   1.973   4.558
 3455TIP3    H110371   3.283   2.003   4.576
 3455TIP3    H210372   3.390   1.909   4.627
 3456TIP3   OH210373   1.550   4.607   4.147
 3456TIP3    H110374   1.504   4.606   4.231
 3456TIP3    H210375   1.487   4.642   4.085
 3457TIP3   OH210376   2.890   4.727   2.823
 3457TIP3    H110377   2.833   4.662   2.781
 3457TIP3    H210378   2.858   4.811   2.790
 3458TIP3   OH210379   3.345   1.993   1.053
 3458TIP3    H110380   3.377   2.035   0.973
 3458TIP3    H210381   3.326   2.066   1.112
 3459TIP3   OH210382   3.353   0.405   2.774
 3459TIP3    H110383   3.279   0.361   2.816
 3459TIP3    H210384   3.322   0.494   2.758
 3460TIP3   OH210385   6.225   2.144   4.545
 3460TIP3    H110386   6.279   2.203   4.598
 3460TIP3    H210387   6.196   2.198   4.471
 3461TIP3   OH210388   0.993   0.043   3.572
 3461TIP3    H110389   1.045   0.105   3.520
 3461TIP3    H210390   0.998  -0.039   3.524
 3462TIP3   OH210391   0.582   3.495   4.533
 3462TIP3    H110392   0.615   3.585   4.537
 3462TIP3    H210393   0.628   3.449   4.604
 3463TIP3   OH210394   4.590   3.755   1.317
 3463TIP3    H110395   4.669   3.778   1.268
 3463TIP3    H210396   4.539   3.836   1.320
 3464TIP3   OH210397   0.349   1.171   3.388
 3464TIP3    H110398   0.285   1.148   3.321
 3464TIP3    H210399   0.428   1.196   3.339
 3465TIP3   OH210400   2.024   3.910   4.493
 3465TIP3    H110401   2.073   3.963   4.429
 3465TIP3    H210402   1.955   3.868   4.441
 3466TIP3   OH210403   0.633   1.974   0.134
 3466TIP3    H110404   0.597   2.044   0.188
 3466TIP3    H210405   0.620   2.003   0.044
 3467TIP3   OH210406   1.690   4.874   4.996
 3467TIP3    H110407   1.744   4.943   4.958
 3467TIP3    H210408   1.652   4.913   5.074
 3468TIP3   OH210409   2.233   5.124   1.959
 3468TIP3    H110410   2.193   5.185   2.021
 3468TIP3    H210411   2.160   5.094   1.904
 3469TIP3   OH210412   3.843   5.188   0.861
 3469TIP3    H110413   3.869   5.153   0.946
 3469TIP3    H210414   3.904   5.261   0.845
 3470TIP3   OH210415   1.762   3.124   3.566
 3470TIP3    H110416   1.721   3.169   3.639
 3470TIP3    H210417   1.702   3.053   3.543
 3471TIP3   OH210418   1.126   3.498   3.288
 3471TIP3    H110419   1.042   3.544   3.286
 3471TIP3    H210420   1.104   3.408   3.310
 3472TIP3   OH210421   0.375   4.452   0.885
 3472TIP3    H110422   0.308   4.410   0.939
 3472TIP3    H210423   0.365   4.412   0.799
 3473TIP3   OH210424   4.405   0.140   4.628
 3473TIP3    H110425   4.497   0.124   4.609
 3473TIP3    H210426   4.374   0.193   4.555
 3474TIP3   OH210427   2.956   5.249   5.000
 3474TIP3    H110428   2.926   5.164   5.032
 3474TIP3    H210429   3.043   5.233   4.964
 3475TIP3   OH210430   4.269   0.801   3.847
 3475TIP3    H110431   4.280   0.853   3.767
 3475TIP3    H210432   4.180   0.822   3.877
 3476TIP3   OH210433   5.580   0.565   3.992
 3476TIP3    H110434   5.541   0.493   3.941
 3476TIP3    H210435   5.596   0.634   3.928
 3477TIP3   OH210436   3.515   3.892   4.402
 3477TIP3    H110437   3.594   3.841   4.423
 3477TIP3    H210438   3.446   3.852   4.455
 3478TIP3   OH210439   0.790   2.727   1.583
 3478TIP3    H110440   0.753   2.670   1.651
 3478TIP3    H210441   0.863   2.771   1.626
 3479TIP3   OH210442   3.260   2.498   0.864
 3479TIP3    H110443   3.350   2.467   0.851
 3479TIP3    H210444   3.205   2.424   0.840
 3480TIP3   OH210445   6.085   1.425   2.088
 3480TIP3    H110446   6.142   1.363   2.133
 3480TIP3    H210447   6.018   1.370   2.047
 3481TIP3   OH210448   1.342   2.172   0.076
 3481TIP3    H110449   1.281   2.102   0.052
 3481TIP3    H210450   1.386   2.195  -0.006
 3482TIP3   OH210451   2.364   5.402   1.823
 3482TIP3    H110452   2.336   5.425   1.734
 3482TIP3    H210453   2.456   5.375   1.813
 3483TIP3   OH210454   4.501   2.927   3.805
 3483TIP3    H110455   4.539   2.865   3.866
 3483TIP3    H210456   4.551   3.008   3.819
 3484TIP3   OH210457   6.212   3.810   0.593
 3484TIP3    H110458   6.174   3.871   0.530
 3484TIP3    H210459   6.303   3.800   0.566
 3485TIP3   OH210460   2.731   4.947   0.072
 3485TIP3    H110461   2.820   4.934   0.104
 3485TIP3    H210462   2.708   4.865   0.030
 3486TIP3   OH210463   3.994   1.436   0.088
 3486TIP3    H110464   4.076   1.441   0.038
 3486TIP3    H210465   4.018   1.465   0.176
 3487TIP3   OH210466   0.286   1.986   3.339
 3487TIP3    H110467   0.226   1.985   3.413
 3487TIP3    H210468   0.365   2.029   3.372
 3488TIP3   OH210469   2.724   5.537   4.321
 3488TIP3    H110470   2.771   5.466   4.278
 3488TIP3    H210471   2.639   5.500   4.344
 3489TIP3   OH210472   2.269   4.023   2.718
 3489TIP3    H110473   2.306   3.944   2.679
 3489TIP3    H210474   2.214   3.991   2.790
 3490TIP3   OH210475   1.798   3.664   3.952
 3490TIP3    H110476   1.759   3.726   4.014
 3490TIP3    H210477   1.889   3.655   3.981
 3491TIP3   OH210478   1.260   1.128   0.889
 3491TIP3    H110479   1.191   1.169   0.941
 3491TIP3    H210480   1.341   1.166   0.924
 3492TIP3   OH210481   3.279   0.762   3.920
 3492TIP3    H110482   3.189   0.744   3.950
 3492TIP3    H210483   3.330   0.690   3.956
 3493TIP3   OH210484   2.966   3.007   1.223
 3493TIP3    H110485   2.946   2.927   1.273
 3493TIP3    H210486   2.896   3.011   1.158
 3494TIP3   OH210487   4.759   1.992   3.117
 3494TIP3    H110488   4.742   2.083   3.141
 3494TIP3    H210489   4.688   1.943   3.159
 3495TIP3   OH210490   4.836   3.998   1.563
 3495TIP3    H110491   4.770   4.058   1.597
 3495TIP3    H210492   4.794   3.955   1.488
 3496TIP3   OH210493   1.741   1.057   0.296
 3496TIP3    H110494   1.746   0.961   0.294
 3496TIP3    H210495   1.801   1.086   0.227
 3497TIP3   OH210496   4.302   4.689   0.712
 3497TIP3    H110497   4.274   4.597   0.715
 3497TIP3    H210498   4.249   4.728   0.642
 3498TIP3   OH210499   3.645   5.907   3.408
 3498TIP3    H110500   3.668   5.856   3.486
 3498TIP3    H210501   3.596   5.846   3.353
 3499TIP3   OH210502   0.220   1.380   1.519
 3499TIP3    H110503   0.269   1.305   1.554
 3499TIP3    H210504   0.194   1.430   1.597
 3500TIP3   OH210505   2.002   3.127   3.408
 3500TIP3    H110506   1.973   3.169   3.327
 3500TIP3    H210507   1.924   3.127   3.464
 3501TIP3   OH210508   4.067   4.624   3.670
 3501TIP3    H110509   4.017   4.543   3.680
 3501TIP3    H210510   4.156   4.596   3.653
 3502TIP3   OH210511   4.196   2.543   4.311
 3502TIP3    H110512   4.159   2.629   4.330
 3502TIP3    H210513   4.143   2.509   4.239
 3503TIP3   OH210514   2.562   4.459   4.233
 3503TIP3    H110515   2.522   4.537   4.193
 3503TIP3    H210516   2.656   4.473   4.223
 3504TIP3   OH210517   3.836   4.944   4.450
 3504TIP3    H110518   3.919   4.958   4.495
 3504TIP3    H210519   3.857   4.952   4.357
 3505TIP3   OH210520   2.289   4.631   0.947
 3505TIP3    H110521   2.381   4.606   0.955
 3505TIP3    H210522   2.256   4.582   0.872
 3506TIP3   OH210523   3.190   2.638   5.020
 3506TIP3    H110524   3.193   2.704   4.950
 3506TIP3    H210525   3.226   2.682   5.096
 3507TIP3   OH210526   2.563   3.230   3.041
 3507TIP3    H110527   2.524   3.317   3.047
 3507TIP3    H210528   2.613   3.231   2.959
 3508TIP3   OH210529   5.054   3.248   0.119
 3508TIP3    H110530   4.984   3.313   0.129
 3508TIP3    H210531   5.030   3.198   0.041
 3509TIP3   OH210532   3.515   0.052   3.066
 3509TIP3    H110533   3.570   0.080   2.993
 3509TIP3    H210534   3.535  -0.041   3.077
 3510TIP3   OH210535   3.717   3.437   3.075
 3510TIP3    H110536   3.777   3.366   3.053
 3510TIP3    H210537   3.644   3.427   3.013
 3511TIP3   OH210538   1.067   0.645   4.348
 3511TIP3    H110539   1.054   0.684   4.434
 3511TIP3    H210540   1.027   0.707   4.287
 3512TIP3   OH210541   5.566   1.880   2.310
 3512TIP3    H110542   5.626   1.954   2.298
 3512TIP3    H210543   5.592   1.843   2.395
 3513TIP3   OH210544   2.578   5.315   3.089
 3513TIP3    H110545   2.662   5.287   3.054
 3513TIP3    H210546   2.542   5.374   3.024
 3514TIP3   OH210547   1.061   2.640   0.396
 3514TIP3    H110548   0.975   2.638   0.438
 3514TIP3    H210549   1.044   2.673   0.308
 3515TIP3   OH210550   0.936   2.284   0.435
 3515TIP3    H110551   0.887   2.357   0.473
 3515TIP3    H210552   0.957   2.312   0.346
 3516TIP3   OH210553   4.822   2.260   2.310
 3516TIP3    H110554   4.751   2.204   2.342
 3516TIP3    H210555   4.901   2.209   2.325
 3517TIP3   OH210556   4.805   2.444   2.105
 3517TIP3    H110557   4.886   2.493   2.119
 3517TIP3    H210558   4.798   2.387   2.182
 3518TIP3   OH210559   5.510   1.287   3.992
 3518TIP3    H110560   5.519   1.318   3.902
 3518TIP3    H210561   5.532   1.362   4.046
 3519TIP3   OH210562   4.375   0.978   4.394
 3519TIP3    H110563   4.366   1.033   4.472
 3519TIP3    H210564   4.467   0.987   4.369
 3520TIP3   OH210565   4.097   3.148   3.567
 3520TIP3    H110566   4.054   3.085   3.509
 3520TIP3    H210567   4.191   3.133   3.554
 3521TIP3   OH210568   4.155   2.768   5.152
 3521TIP3    H110569   4.088   2.811   5.098
 3521TIP3    H210570   4.107   2.736   5.228
 3522TIP3   OH210571   2.293   0.360   3.749
 3522TIP3    H110572   2.220   0.311   3.788
 3522TIP3    H210573   2.358   0.294   3.729
 3523TIP3   OH210574   0.070   3.397   3.597
 3523TIP3    H110575   0.145   3.397   3.538
 3523TIP3    H210576   0.093   3.336   3.666
 3524TIP3   OH210577   3.525   3.565   4.084
 3524TIP3    H110578   3.554   3.628   4.018
 3524TIP3    H210579   3.586   3.576   4.157
 3525TIP3   OH210580   5.802   5.239   3.506
 3525TIP3    H110581   5.758   5.287   3.576
 3525TIP3    H210582   5.751   5.158   3.497
 3526TIP3   OH210583   3.434   0.492   1.122
 3526TIP3    H110584   3.349   0.535   1.118
 3526TIP3    H210585   3.418   0.403   1.090
 3527TIP3   OH210586   5.816   2.574   1.637
 3527TIP3    H110587   5.728   2.570   1.676
 3527TIP3    H210588   5.808   2.639   1.567
 3528TIP3   OH210589   2.822   0.106   0.065
 3528TIP3    H110590   2.791   0.192   0.040
 3528TIP3    H210591   2.855   0.117   0.154
 3529TIP3   OH210592   2.855   2.312   4.759
 3529TIP3    H110593   2.882   2.251   4.828
 3529TIP3    H210594   2.878   2.398   4.793
 3530TIP3   OH210595   3.562   1.143   0.987
 3530TIP3    H110596   3.492   1.174   1.044
 3530TIP3    H210597   3.553   1.048   0.986
 3531TIP3   OH210598   2.234   1.719   3.776
 3531TIP3    H110599   2.291   1.704   3.852
 3531TIP3    H210600   2.231   1.635   3.731
 3532TIP3   OH210601   2.777   3.536   0.593
 3532TIP3    H110602   2.803   3.627   0.603
 3532TIP3    H210603   2.698   3.539   0.540
 3533TIP3   OH210604   4.320   1.432   3.938
 3533TIP3    H110605   4.242   1.415   3.886
 3533TIP3    H210606   4.296   1.505   3.995
 3534TIP3   OH210607   3.912   1.454   5.144
 3534TIP3    H110608   3.994   1.424   5.183
 3534TIP3    H210609   3.937   1.493   5.061
 3535TIP3   OH210610   0.205   1.223   2.444
 3535TIP3    H110611   0.271   1.272   2.494
 3535TIP3    H210612   0.158   1.290   2.395
 3536TIP3   OH210613   0.909   0.074   1.105
 3536TIP3    H110614   0.981   0.067   1.042
 3536TIP3    H210615   0.873  -0.014   1.110
 3537TIP3   OH210616   4.319   4.579   4.751
 3537TIP3    H110617   4.293   4.490   4.772
 3537TIP3    H210618   4.405   4.590   4.793
 3538TIP3   OH210619   2.391   5.782   1.748
 3538TIP3    H110620   2.427   5.705   1.704
 3538TIP3    H210621   2.324   5.815   1.687
 3539TIP3   OH210622   5.712   5.596   2.139
 3539TIP3    H110623   5.782   5.573   2.201
 3539TIP3    H210624   5.745   5.567   2.054
 3540TIP3   OH210625   0.814   2.892   0.231
 3540TIP3    H110626   0.744   2.953   0.207
 3540TIP3    H210627   0.866   2.939   0.296
 3541TIP3   OH210628   0.857   0.135   1.624
 3541TIP3    H110629   0.775   0.167   1.661
 3541TIP3    H210630   0.924   0.160   1.687
 3542TIP3   OH210631   2.444   1.127   3.573
 3542TIP3    H110632   2.373   1.189   3.562
 3542TIP3    H210633   2.487   1.154   3.654
 3543TIP3   OH210634   2.745   1.228   5.094
 3543TIP3    H110635   2.800   1.210   5.170
 3543TIP3    H210636   2.656   1.234   5.130
 3544TIP3   OH210637   6.234   2.597   0.974
 3544TIP3    H110638   6.262   2.626   0.887
 3544TIP3    H210639   6.164   2.658   0.998
 3545TIP3   OH210640   3.855   3.164   2.991
 3545TIP3    H110641   3.799   3.125   2.925
 3545TIP3    H210642   3.930   3.105   2.998
 3546TIP3   OH210643   0.378   0.332   4.924
 3546TIP3    H110644   0.468   0.353   4.949
 3546TIP3    H210645   0.358   0.393   4.854
 3547TIP3   OH210646   4.398   1.766   1.691
 3547TIP3    H110647   4.416   1.758   1.598
 3547TIP3    H210648   4.474   1.811   1.727
 3548TIP3   OH210649   3.360   3.740   4.632
 3548TIP3    H110650   3.334   3.675   4.567
 3548TIP3    H210651   3.404   3.690   4.701
 3549TIP3   OH210652   4.166   3.235   2.108
 3549TIP3    H110653   4.075   3.205   2.112
 3549TIP3    H210654   4.193   3.241   2.199
 3550TIP3   OH210655   3.338   3.682   1.148
 3550TIP3    H110656   3.283   3.678   1.226
 3550TIP3    H210657   3.427   3.690   1.181
 3551TIP3   OH210658   5.022   1.719   0.642
 3551TIP3    H110659   5.053   1.670   0.566
 3551TIP3    H210660   5.049   1.666   0.717
 3552TIP3   OH210661   5.680   1.338   4.385
 3552TIP3    H110662   5.594   1.359   4.420
 3552TIP3    H210663   5.690   1.393   4.308
 3553TIP3   OH210664   1.344   3.770   3.353
 3553TIP3    H110665   1.375   3.720   3.277
 3553TIP3    H210666   1.258   3.734   3.372
 3554TIP3   OH210667   2.377   2.201   2.395
 3554TIP3    H110668   2.427   2.247   2.463
 3554TIP3    H210669   2.291   2.244   2.395
 3555TIP3   OH210670   2.671   1.947   1.420
 3555TIP3    H110671   2.659   1.857   1.450
 3555TIP3    H210672   2.615   1.955   1.343
 3556TIP3   OH210673   1.038   5.966   2.528
 3556TIP3    H110674   0.947   5.990   2.512
 3556TIP3    H210675   1.064   5.918   2.449
 3557TIP3   OH210676   1.619   1.334   4.014
 3557TIP3    H110677   1.675   1.399   4.056
 3557TIP3    H210678   1.562   1.303   4.084
 3558TIP3   OH210679   1.585   1.045   3.316
 3558TIP3    H110680   1.654   0.984   3.290
 3558TIP3    H210681   1.580   1.036   3.411
 3559TIP3   OH210682   3.027   2.397   1.414
 3559TIP3    H110683   2.947   2.414   1.464
 3559TIP3    H210684   3.097   2.399   1.479
 3560TIP3   OH210685   5.521   2.678   2.567
 3560TIP3    H110686   5.548   2.623   2.494
 3560TIP3    H210687   5.433   2.648   2.589
 3561TIP3   OH210688   0.596   2.501   2.825
 3561TIP3    H110689   0.612   2.423   2.773
 3561TIP3    H210690   0.679   2.517   2.870
 3562TIP3   OH210691   6.399   3.873   2.826
 3562TIP3    H110692   6.331   3.889   2.760
 3562TIP3    H210693   6.352   3.875   2.909
 3563TIP3   OH210694   4.242   1.432   0.031
 3563TIP3    H110695   4.288   1.354   0.061
 3563TIP3    H210696   4.281   1.504   0.082
 3564TIP3   OH210697   4.878   4.192   4.069
 3564TIP3    H110698   4.865   4.209   3.976
 3564TIP3    H210699   4.928   4.110   4.072
 3565TIP3   OH210700   5.144   1.667   3.205
 3565TIP3    H110701   5.075   1.731   3.188
 3565TIP3    H210702   5.224   1.720   3.216
 3566TIP3   OH210703   5.638   1.927   1.943
 3566TIP3    H110704   5.714   1.893   1.895
 3566TIP3    H210705   5.595   1.848   1.977
 3567TIP3   OH210706   5.643   0.519   1.457
 3567TIP3    H110707   5.641   0.463   1.535
 3567TIP3    H210708   5.725   0.495   1.413
 3568TIP3   OH210709   4.128   4.074   0.187
 3568TIP3    H110710   4.205   4.127   0.208
 3568TIP3    H210711   4.054   4.133   0.198
 3569TIP3   OH210712   0.396   0.412   1.546
 3569TIP3    H110713   0.344   0.473   1.598
 3569TIP3    H210714   0.347   0.403   1.464
 3570TIP3   OH210715   3.567   3.234   1.700
 3570TIP3    H110716   3.505   3.170   1.666
 3570TIP3    H210717   3.512   3.302   1.739
 3571TIP3   OH210718   0.552   2.195   2.358
 3571TIP3    H110719   0.577   2.113   2.317
 3571TIP3    H210720   0.609   2.261   2.318
 3572TIP3   OH210721   2.324   0.586   0.606
 3572TIP3    H110722   2.412   0.566   0.638
 3572TIP3    H210723   2.272   0.596   0.686
 3573TIP3   OH210724   6.267   5.170   4.737
 3573TIP3    H110725   6.221   5.094   4.703
 3573TIP3    H210726   6.211   5.203   4.807
 3574TIP3   OH210727   4.793   5.614   4.135
 3574TIP3    H110728   4.735   5.649   4.202
 3574TIP3    H210729   4.771   5.521   4.130
 3575TIP3   OH210730   1.763   5.660   3.771
 3575TIP3    H110731   1.739   5.568   3.761
 3575TIP3    H210732   1.857   5.659   3.789
 3576TIP3   OH210733   1.176   1.328   0.009
 3576TIP3    H110734   1.251   1.362   0.058
 3576TIP3    H210735   1.129   1.274   0.073
 3577TIP3   OH210736   5.308   3.983   0.778
 3577TIP3    H110737   5.291   3.938   0.695
 3577TIP3    H210738   5.351   3.917   0.832
 3578TIP3   OH210739   2.605   6.007   2.353
 3578TIP3    H110740   2.625   6.036   2.264
 3578TIP3    H210741   2.566   5.920   2.341
 3579TIP3   OH210742   3.067   4.865   1.045
 3579TIP3    H110743   3.110   4.826   1.122
 3579TIP3    H210744   3.093   4.957   1.047
 3580TIP3   OH210745   5.532   3.128   2.758
 3580TIP3    H110746   5.602   3.193   2.756
 3580TIP3    H210747   5.458   3.172   2.715
 3581TIP3   OH210748   2.781   1.731   3.983
 3581TIP3    H110749   2.867   1.734   3.941
 3581TIP3    H210750   2.720   1.710   3.912
 3582TIP3   OH210751   3.821   0.827   3.477
 3582TIP3    H110752   3.850   0.791   3.561
 3582TIP3    H210753   3.867   0.775   3.411
 3583TIP3   OH210754   0.245   1.174   1.307
 3583TIP3    H110755   0.298   1.096   1.320
 3583TIP3    H210756   0.218   1.200   1.395
 3584TIP3   OH210757   5.511   2.315   4.244
 3584TIP3    H110758   5.502   2.408   4.223
 3584TIP3    H210759   5.586   2.286   4.192
 3585TIP3   OH210760   3.094   3.875   2.478
 3585TIP3    H110761   3.063   3.954   2.521
 3585TIP3    H210762   3.117   3.903   2.389
 3586TIP3   OH210763   5.801   3.874   3.940
 3586TIP3    H110764   5.751   3.955   3.945
 3586TIP3    H210765   5.797   3.838   4.028
 3587TIP3   OH210766   0.683   1.532   0.086
 3587TIP3    H110767   0.602   1.501   0.045
 3587TIP3    H210768   0.738   1.454   0.091
 3588TIP3   OH210769   1.798   1.525   4.077
 3588TIP3    H110770   1.732   1.554   4.139
 3588TIP3    H210771   1.881   1.555   4.113
 3589TIP3   OH210772   4.483   5.958   3.468
 3589TIP3    H110773   4.415   5.891   3.473
 3589TIP3    H210774   4.564   5.908   3.458
 3590TIP3   OH210775   5.171   1.564   0.434
 3590TIP3    H110776   5.266   1.563   0.424
 3590TIP3    H210777   5.150   1.482   0.478
 3591TIP3   OH210778   1.590   3.217   3.751
 3591TIP3    H110779   1.510   3.165   3.747
 3591TIP3    H210780   1.560   3.305   3.775
 3592TIP3   OH210781   1.882   2.553   4.207
 3592TIP3    H110782   1.792   2.585   4.198
 3592TIP3    H210783   1.915   2.549   4.117
 3593TIP3   OH210784   1.399   5.672   2.826
 3593TIP3    H110785   1.426   5.586   2.857
 3593TIP3    H210786   1.377   5.659   2.734
 3594TIP3   OH210787   3.975   4.224   3.353
 3594TIP3    H110788   3.984   4.319   3.353
 3594TIP3    H210789   3.904   4.207   3.291
 3595TIP3   OH210790   5.316   0.795   1.950
 3595TIP3    H110791   5.276   0.768   2.032
 3595TIP3    H210792   5.249   0.846   1.906
 3596TIP3   OH210793   4.119   4.854   0.155
 3596TIP3    H110794   4.184   4.921   0.132
 3596TIP3    H210795   4.156   4.772   0.121
 3597TIP3   OH210796   0.861   3.739   2.290
 3597TIP3    H110797   0.906   3.729   2.205
 3597TIP3    H210798   0.851   3.833   2.301
 3598TIP3   OH210799   1.291   3.493   4.920
 3598TIP3    H110800   1.313   3.574   4.966
 3598TIP3    H210801   1.366   3.436   4.936
 3599TIP3   OH210802   1.243   2.536   0.191
 3599TIP3    H110803   1.177   2.470   0.168
 3599TIP3    H210804   1.201   2.620   0.172
 3600TIP3   OH210805   0.914   4.788   1.500
 3600TIP3    H110806   0.936   4.717   1.440
 3600TIP3    H210807   0.968   4.771   1.577
 3601TIP3   OH210808   5.575   0.192   2.344
 3601TIP3    H110809   5.595   0.171   2.435
 3601TIP3    H210810   5.483   0.169   2.334
 3602TIP3   OH210811   0.993   3.677   3.011
 3602TIP3    H110812   0.946   3.683   3.094
 3602TIP3    H210813   0.949   3.607   2.963
 3603TIP3   OH210814   4.142   4.384   3.129
 3603TIP3    H110815   4.226   4.338   3.138
 3603TIP3    H210816   4.090   4.328   3.071
 3604TIP3   OH210817   5.995   0.468   2.469
 3604TIP3    H110818   6.065   0.474   2.404
 3604TIP3    H210819   6.011   0.385   2.514
 3605TIP3   OH210820   0.901   2.112   0.150
 3605TIP3    H110821   0.907   2.071   0.064
 3605TIP3    H210822   0.886   2.040   0.211
 3606TIP3   OH210823   2.114   2.786   3.828
 3606TIP3    H110824   2.063   2.865   3.807
 3606TIP3    H210825   2.203   2.807   3.801
 3607TIP3   OH210826   6.094   4.360   0.945
 3607TIP3    H110827   6.062   4.440   0.985
 3607TIP3    H210828   6.019   4.325   0.897
 3608TIP3   OH210829   2.357   5.105   2.717
 3608TIP3    H110830   2.400   5.166   2.657
 3608TIP3    H210831   2.271   5.090   2.678
 3609TIP3   OH210832   6.134   4.830   2.633
 3609TIP3    H110833   6.197   4.888   2.676
 3609TIP3    H210834   6.186   4.786   2.565
 3610TIP3   OH210835   3.434   5.600   1.810
 3610TIP3    H110836   3.394   5.569   1.729
 3610TIP3    H210837   3.452   5.521   1.861
 3611TIP3   OH210838   4.365   0.351   2.516
 3611TIP3    H110839   4.394   0.272   2.561
 3611TIP3    H210840   4.282   0.373   2.558
 3612TIP3   OH210841   0.247   5.655   4.179
 3612TIP3    H110842   0.279   5.691   4.097
 3612TIP3    H210843   0.196   5.725   4.219
 3613TIP3   OH210844   3.786   2.490   1.188
 3613TIP3    H110845   3.711   2.434   1.167
 3613TIP3    H210846   3.842   2.484   1.111
 3614TIP3   OH210847   2.545   4.574   0.913
 3614TIP3    H110848   2.531   4.480   0.913
 3614TIP3    H210849   2.618   4.588   0.974
 3615TIP3   OH210850   3.989   3.519   2.094
 3615TIP3    H110851   3.977   3.523   2.189
 3615TIP3    H210852   3.948   3.599   2.061
 3616TIP3   OH210853   2.909   5.196   1.612
 3616TIP3    H110854   2.841   5.243   1.564
 3616TIP3    H210855   2.963   5.265   1.650
 3617TIP3   OH210856   6.078   0.203   3.466
 3617TIP3    H110857   6.122   0.276   3.509
 3617TIP3    H210858   5.991   0.200   3.507
 3618TIP3   OH210859   2.526   1.250   2.891
 3618TIP3    H110860   2.441   1.286   2.867
 3618TIP3    H210861   2.506   1.173   2.943
 3619TIP3   OH210862   3.386   2.027   4.849
 3619TIP3    H110863   3.371   2.090   4.920
 3619TIP3    H210864   3.462   1.976   4.878
 3620TIP3   OH210865   6.033   4.716   4.136
 3620TIP3    H110866   6.104   4.734   4.074
 3620TIP3    H210867   6.071   4.653   4.197
 3621TIP3   OH210868   1.633   2.631   4.444
 3621TIP3    H110869   1.592   2.548   4.420
 3621TIP3    H210870   1.697   2.608   4.511
 3622TIP3   OH210871   0.161   4.307   3.617
 3622TIP3    H110872   0.192   4.216   3.620
 3622TIP3    H210873   0.130   4.319   3.527
 3623TIP3   OH210874   4.973   1.210   0.031
 3623TIP3    H110875   5.006   1.143  -0.030
 3623TIP3    H210876   4.947   1.161   0.109
 3624TIP3   OH210877   1.765   4.023   5.179
 3624TIP3    H110878   1.855   3.990   5.188
 3624TIP3    H210879   1.773   4.097   5.118
 3625TIP3   OH210880   3.364   3.430   3.466
 3625TIP3    H110881   3.446   3.381   3.470
 3625TIP3    H210882   3.323   3.415   3.551
 3626TIP3   OH210883   0.331   1.955   4.215
 3626TIP3    H110884   0.368   1.867   4.227
 3626TIP3    H210885   0.406   2.013   4.222
 3627TIP3   OH210886   0.709   1.469   1.519
 3627TIP3    H110887   0.667   1.492   1.603
 3627TIP3    H210888   0.734   1.554   1.482
 3628TIP3   OH210889   2.977   0.296   2.369
 3628TIP3    H110890   2.997   0.273   2.278
 3628TIP3    H210891   3.058   0.278   2.417
 3629TIP3   OH210892   2.474   4.788   2.661
 3629TIP3    H110893   2.382   4.765   2.659
 3629TIP3    H210894   2.495   4.815   2.572
 3630TIP3   OH210895   0.306   5.141   4.543
 3630TIP3    H110896   0.367   5.067   4.542
 3630TIP3    H210897   0.344   5.204   4.483
 3631TIP3   OH210898   0.597   1.116   0.555
 3631TIP3    H110899   0.554   1.201   0.548
 3631TIP3    H210900   0.644   1.120   0.639
 3632TIP3   OH210901   4.012   5.709   2.417
 3632TIP3    H110902   4.061   5.777   2.370
 3632TIP3    H210903   4.018   5.633   2.360
 3633TIP3   OH210904   3.597   4.905   5.139
 3633TIP3    H110905   3.609   4.810   5.136
 3633TIP3    H210906   3.526   4.922   5.078
 3634TIP3   OH210907   5.225   0.515   2.832
 3634TIP3    H110908   5.159   0.523   2.763
 3634TIP3    H210909   5.183   0.460   2.898
 3635TIP3   OH210910   4.743   0.907   4.383
 3635TIP3    H110911   4.803   0.868   4.446
 3635TIP3    H210912   4.768   1.000   4.380
 3636TIP3   OH210913   6.361   4.480   1.268
 3636TIP3    H110914   6.272   4.446   1.258
 3636TIP3    H210915   6.360   4.563   1.222
 3637TIP3   OH210916   3.251   4.204   0.274
 3637TIP3    H110917   3.332   4.153   0.282
 3637TIP3    H210918   3.217   4.209   0.363
 3638TIP3   OH210919   2.964   1.727   3.042
 3638TIP3    H110920   3.013   1.745   3.121
 3638TIP3    H210921   2.914   1.648   3.062
 3639TIP3   OH210922   1.325   4.173   0.686
 3639TIP3    H110923   1.238   4.138   0.666
 3639TIP3    H210924   1.385   4.122   0.631
 3640TIP3   OH210925   5.771   0.280   3.505
 3640TIP3    H110926   5.715   0.207   3.529
 3640TIP3    H210927   5.717   0.334   3.447
 3641TIP3   OH210928   4.765   3.204   0.450
 3641TIP3    H110929   4.730   3.259   0.381
 3641TIP3    H210930   4.846   3.167   0.413
 3642TIP3   OH210931   0.933   1.930   1.399
 3642TIP3    H110932   0.976   1.844   1.406
 3642TIP3    H210933   0.991   1.989   1.446
 3643TIP3   OH210934   2.936   5.914   2.283
 3643TIP3    H110935   2.875   5.843   2.302
 3643TIP3    H210936   2.917   5.981   2.349
 3644TIP3   OH210937   0.576   3.933   1.268
 3644TIP3    H110938   0.603   4.013   1.313
 3644TIP3    H210939   0.656   3.900   1.227
 3645TIP3   OH210940   4.992   4.265   5.077
 3645TIP3    H110941   4.934   4.238   5.148
 3645TIP3    H210942   4.987   4.361   5.077
 3646TIP3   OH210943   4.454   2.213   3.295
 3646TIP3    H110944   4.374   2.200   3.347
 3646TIP3    H210945   4.460   2.308   3.283
 3647TIP3   OH210946   2.074   4.383   2.376
 3647TIP3    H110947   2.067   4.431   2.459
 3647TIP3    H210948   2.163   4.400   2.346
 3648TIP3   OH210949   0.491   4.672   4.987
 3648TIP3    H110950   0.515   4.593   5.035
 3648TIP3    H210951   0.433   4.720   5.046
 3649TIP3   OH210952   4.848   0.743   2.289
 3649TIP3    H110953   4.870   0.767   2.379
 3649TIP3    H210954   4.753   0.734   2.289
 3650TIP3   OH210955   3.207   0.966   0.047
 3650TIP3    H110956   3.173   1.054   0.034
 3650TIP3    H210957   3.215   0.956   0.141
 3651TIP3   OH210958   5.173   4.771   0.180
 3651TIP3    H110959   5.169   4.861   0.210
 3651TIP3    H210960   5.139   4.774   0.090
 3652TIP3   OH210961   0.248   2.641   2.093
 3652TIP3    H110962   0.286   2.579   2.031
 3652TIP3    H210963   0.312   2.645   2.165
 3653TIP3   OH210964   1.545   5.632   4.764
 3653TIP3    H110965   1.523   5.560   4.823
 3653TIP3    H210966   1.630   5.609   4.728
 3654TIP3   OH210967   1.345   4.840   3.038
 3654TIP3    H110968   1.268   4.868   3.087
 3654TIP3    H210969   1.392   4.781   3.098
 3655TIP3   OH210970   0.061   4.292   1.706
 3655TIP3    H110971   0.100   4.207   1.726
 3655TIP3    H210972  -0.017   4.270   1.654
 3656TIP3   OH210973   5.547   5.648   1.654
 3656TIP3    H110974   5.567   5.580   1.718
 3656TIP3    H210975   5.621   5.648   1.594
 3657TIP3   OH210976   4.699   4.339   0.938
 3657TIP3    H110977   4.737   4.386   0.864
 3657TIP3    H210978   4.766   4.342   1.006
 3658TIP3   OH210979   6.264   5.044   2.231
 3658TIP3    H110980   6.344   5.076   2.190
 3658TIP3    H210981   6.248   5.103   2.304
 3659TIP3   OH210982   5.177   0.185   0.338
 3659TIP3    H110983   5.271   0.170   0.340
 3659TIP3    H210984   5.142   0.119   0.399
 3660TIP3   OH210985   5.129   5.696   2.153
 3660TIP3    H110986   5.041   5.684   2.187
 3660TIP3    H210987   5.117   5.737   2.067
 3661TIP3   OH210988   5.165   5.535   1.031
 3661TIP3    H110989   5.093   5.471   1.033
 3661TIP3    H210990   5.192   5.544   1.122
 3662TIP3   OH210991   2.014   5.654   1.654
 3662TIP3    H110992   1.991   5.743   1.684
 3662TIP3    H210993   2.054   5.613   1.731
 3663TIP3   OH210994   3.277   5.352   5.094
 3663TIP3    H110995   3.222   5.414   5.142
 3663TIP3    H210996   3.341   5.323   5.159
 3664TIP3   OH210997   6.255   3.218   3.167
 3664TIP3    H110998   6.174   3.186   3.206
 3664TIP3    H210999   6.266   3.166   3.088
 3665TIP3   OH211000   1.875   5.743   2.109
 3665TIP3    H111001   1.804   5.721   2.050
 3665TIP3    H211002   1.840   5.727   2.196
 3666TIP3   OH211003   6.070   5.980   4.540
 3666TIP3    H111004   6.071   5.936   4.455
 3666TIP3    H211005   6.014   5.924   4.595
 3667TIP3   OH211006   4.466   1.828   2.971
 3667TIP3    H111007   4.462   1.889   2.897
 3667TIP3    H211008   4.489   1.884   3.046
 3668TIP3   OH211009   4.015   1.635   0.825
 3668TIP3    H111010   4.081   1.634   0.895
 3668TIP3    H211011   4.009   1.727   0.799
 3669TIP3   OH211012   3.180   4.932   4.003
 3669TIP3    H111013   3.231   5.004   3.966
 3669TIP3    H211014   3.222   4.914   4.087
 3670TIP3   OH211015   6.111   0.224   3.905
 3670TIP3    H111016   6.107   0.142   3.857
 3670TIP3    H211017   6.157   0.285   3.846
 3671TIP3   OH211018   0.034   2.013   3.195
 3671TIP3    H111019  -0.026   1.938   3.194
 3671TIP3    H211020   0.103   1.988   3.257
 3672TIP3   OH211021   1.431   2.889   4.183
 3672TIP3    H111022   1.419   2.915   4.274
 3672TIP3    H211023   1.424   2.794   4.183
 3673TIP3   OH211024   3.267   1.158   1.549
 3673TIP3    H111025   3.183   1.113   1.559
 3673TIP3    H211026   3.270   1.220   1.622
 3674TIP3   OH211027   4.629   0.419   4.098
 3674TIP3    H111028   4.622   0.505   4.140
 3674TIP3    H211029   4.634   0.439   4.004
 3675TIP3   OH211030   2.276   1.263   1.353
 3675TIP3    H111031   2.325   1.247   1.272
 3675TIP3    H211032   2.328   1.327   1.401
 3676TIP3   OH211033   6.156   3.538   1.373
 3676TIP3    H111034   6.155   3.573   1.284
 3676TIP3    H211035   6.064   3.541   1.401
 3677TIP3   OH211036   2.061   3.372   1.227
 3677TIP3    H111037   2.117   3.296   1.213
 3677TIP3    H211038   1.978   3.348   1.184
 3678TIP3   OH211039   0.076   4.685   1.031
 3678TIP3    H111040   0.026   4.753   1.076
 3678TIP3    H211041   0.013   4.644   0.972
 3679TIP3   OH211042   6.179   3.342   1.050
 3679TIP3    H111043   6.199   3.433   1.073
 3679TIP3    H211044   6.264   3.301   1.033
 3680TIP3   OH211045   1.694   5.461   1.103
 3680TIP3    H111046   1.707   5.445   1.196
 3680TIP3    H211047   1.609   5.505   1.098
 3681TIP3   OH211048   3.003   5.709   2.025
 3681TIP3    H111049   2.995   5.651   2.101
 3681TIP3    H211050   2.998   5.797   2.062
 3682TIP3   OH211051   1.893   4.411   1.360
 3682TIP3    H111052   1.921   4.323   1.337
 3682TIP3    H211053   1.958   4.442   1.422
 3683TIP3   OH211054   1.698   3.587   1.612
 3683TIP3    H111055   1.636   3.524   1.649
 3683TIP3    H211056   1.766   3.534   1.572
 3684TIP3   OH211057   1.727   0.400   2.705
 3684TIP3    H111058   1.681   0.480   2.728
 3684TIP3    H211059   1.811   0.407   2.752
 3685TIP3   OH211060   4.456   3.918   3.073
 3685TIP3    H111061   4.413   3.924   3.159
 3685TIP3    H211062   4.547   3.898   3.094
 3686TIP3   OH211063   3.999   4.452   2.781
 3686TIP3    H111064   4.000   4.531   2.835
 3686TIP3    H211065   4.083   4.454   2.735
 3687TIP3   OH211066   4.992   1.916   1.619
 3687TIP3    H111067   4.978   1.926   1.713
 3687TIP3    H211068   5.077   1.958   1.604
 3688TIP3   OH211069   3.715   1.257   1.656
 3688TIP3    H111070   3.692   1.319   1.725
 3688TIP3    H211071   3.742   1.178   1.703
 3689TIP3   OH211072   3.674   4.083   4.797
 3689TIP3    H111073   3.767   4.098   4.784
 3689TIP3    H211074   3.663   4.073   4.891
 3690TIP3   OH211075   2.425   2.570   1.324
 3690TIP3    H111076   2.475   2.488   1.328
 3690TIP3    H211077   2.333   2.542   1.325
 3691TIP3   OH211078   4.795   4.095   4.785
 3691TIP3    H111079   4.772   4.028   4.720
 3691TIP3    H211080   4.762   4.060   4.868
 3692TIP3   OH211081   5.413   3.145   0.959
 3692TIP3    H111082   5.399   3.100   0.876
 3692TIP3    H211083   5.419   3.238   0.936
 3693TIP3   OH211084   2.736   5.531   0.568
 3693TIP3    H111085   2.721   5.485   0.650
 3693TIP3    H211086   2.778   5.614   0.594
 3694TIP3   OH211087   1.211   4.732   5.010
 3694TIP3    H111088   1.181   4.688   5.090
 3694TIP3    H211089   1.130   4.753   4.963
 3695TIP3   OH211090   3.130   5.248   0.516
 3695TIP3    H111091   3.190   5.196   0.462
 3695TIP3    H211092   3.061   5.186   0.540
 3696TIP3   OH211093   3.894   1.918   2.753
 3696TIP3    H111094   3.926   2.007   2.767
 3696TIP3    H211095   3.871   1.887   2.840
 3697TIP3   OH211096   1.472   1.899   0.832
 3697TIP3    H111097   1.456   1.895   0.926
 3697TIP3    H211098   1.392   1.864   0.793
 3698TIP3   OH211099   3.668   3.921   2.591
 3698TIP3    H111100   3.580   3.900   2.561
 3698TIP3    H211101   3.659   4.006   2.635
 3699TIP3   OH211102   3.985   2.519   2.585
 3699TIP3    H111103   3.916   2.503   2.521
 3699TIP3    H211104   4.058   2.464   2.555
 3700TIP3   OH211105   2.832   0.187   4.633
 3700TIP3    H111106   2.771   0.261   4.628
 3700TIP3    H211107   2.778   0.113   4.661
 3701TIP3   OH211108   0.757   5.097   1.119
 3701TIP3    H111109   0.787   5.030   1.181
 3701TIP3    H211110   0.792   5.069   1.035
 3702TIP3   OH211111   1.985   3.448   3.480
 3702TIP3    H111112   1.934   3.459   3.560
 3702TIP3    H211113   1.933   3.388   3.427
 3703TIP3   OH211114   3.081   0.215   2.790
 3703TIP3    H111115   2.994   0.214   2.830
 3703TIP3    H211116   3.139   0.179   2.857
 3704TIP3   OH211117   1.508   2.724   0.997
 3704TIP3    H111118   1.490   2.816   1.017
 3704TIP3    H211119   1.595   2.708   1.035
 3705TIP3   OH211120   1.683   2.508   2.692
 3705TIP3    H111121   1.606   2.513   2.749
 3705TIP3    H211122   1.647   2.493   2.605
 3706TIP3   OH211123   1.450   3.500   0.034
 3706TIP3    H111124   1.394   3.567  -0.006
 3706TIP3    H211125   1.501   3.465  -0.038
 3707TIP3   OH211126   2.725   0.445   2.748
 3707TIP3    H111127   2.769   0.469   2.829
 3707TIP3    H211128   2.779   0.486   2.679
 3708TIP3   OH211129   6.043   4.390   4.206
 3708TIP3    H111130   6.028   4.386   4.300
 3708TIP3    H211131   5.991   4.318   4.171
 3709TIP3   OH211132   1.971   3.848   1.370
 3709TIP3    H111133   1.982   3.937   1.338
 3709TIP3    H211134   1.891   3.817   1.327
 3710TIP3   OH211135   3.872   0.422   0.584
 3710TIP3    H111136   3.816   0.492   0.619
 3710TIP3    H211137   3.958   0.438   0.624
 3711TIP3   OH211138   2.288   0.715   2.410
 3711TIP3    H111139   2.272   0.620   2.406
 3711TIP3    H211140   2.240   0.744   2.487
 3712TIP3   OH211141   2.455   5.458   4.219
 3712TIP3    H111142   2.401   5.420   4.288
 3712TIP3    H211143   2.536   5.406   4.220
 3713TIP3   OH211144   3.097   3.775   3.332
 3713TIP3    H111145   3.034   3.819   3.276
 3713TIP3    H211146   3.112   3.690   3.289
 3714TIP3   OH211147   2.221   0.467   1.024
 3714TIP3    H111148   2.261   0.401   0.968
 3714TIP3    H211149   2.217   0.546   0.970
 3715TIP3   OH211150   3.044   1.965   1.087
 3715TIP3    H111151   3.104   2.040   1.081
 3715TIP3    H211152   3.069   1.921   1.168
 3716TIP3   OH211153   3.111   0.240   1.830
 3716TIP3    H111154   3.062   0.297   1.889
 3716TIP3    H211155   3.181   0.204   1.884
 3717TIP3   OH211156   6.358   3.007   0.848
 3717TIP3    H111157   6.303   2.987   0.924
 3717TIP3    H211158   6.297   3.011   0.775
 3718TIP3   OH211159   2.124   5.521   1.861
 3718TIP3    H111160   2.213   5.488   1.873
 3718TIP3    H211161   2.123   5.604   1.909
 3719TIP3   OH211162   0.490   0.253   3.305
 3719TIP3    H111163   0.555   0.264   3.235
 3719TIP3    H211164   0.423   0.319   3.285
 3720TIP3   OH211165   4.619   4.513   4.853
 3720TIP3    H111166   4.619   4.446   4.921
 3720TIP3    H211167   4.689   4.487   4.793
 3721TIP3   OH211168   6.268   5.815   0.576
 3721TIP3    H111169   6.342   5.783   0.628
 3721TIP3    H211170   6.277   5.770   0.492
 3722TIP3   OH211171   1.997   3.445   1.790
 3722TIP3    H111172   2.074   3.388   1.793
 3722TIP3    H211173   2.026   3.523   1.742
 3723TIP3   OH211174   0.677   4.847   4.867
 3723TIP3    H111175   0.711   4.819   4.781
 3723TIP3    H211176   0.646   4.766   4.907
 3724TIP3   OH211177   1.605   5.871   2.241
 3724TIP3    H111178   1.694   5.898   2.261
 3724TIP3    H211179   1.614   5.781   2.208
 3725TIP3   OH211180   3.522   4.573   1.581
 3725TIP3    H111181   3.599   4.604   1.629
 3725TIP3    H211182   3.520   4.479   1.596
 3726TIP3   OH211183   3.768   5.838   1.939
 3726TIP3    H111184   3.771   5.766   1.876
 3726TIP3    H211185   3.860   5.862   1.952
 3727TIP3   OH211186   3.630   0.890   2.551
 3727TIP3    H111187   3.558   0.909   2.492
 3727TIP3    H211188   3.591   0.896   2.639
 3728TIP3   OH211189   0.357   4.063   1.079
 3728TIP3    H111190   0.285   4.001   1.070
 3728TIP3    H211191   0.402   4.036   1.159
 3729TIP3   OH211192   5.367   4.786   4.607
 3729TIP3    H111193   5.451   4.795   4.651
 3729TIP3    H211194   5.312   4.856   4.645
 3730TIP3   OH211195   0.493   4.821   1.336
 3730TIP3    H111196   0.430   4.881   1.376
 3730TIP3    H211197   0.440   4.767   1.277
 3731TIP3   OH211198   1.275   2.249   4.284
 3731TIP3    H111199   1.198   2.302   4.307
 3731TIP3    H211200   1.275   2.247   4.189
 3732TIP3   OH211201   1.217   4.158   2.840
 3732TIP3    H111202   1.251   4.078   2.802
 3732TIP3    H211203   1.201   4.215   2.765
 3733TIP3   OH211204   4.689   1.109   1.566
 3733TIP3    H111205   4.645   1.096   1.482
 3733TIP3    H211206   4.761   1.169   1.546
 3734TIP3   OH211207   5.864   0.263   0.131
 3734TIP3    H111208   5.888   0.171   0.129
 3734TIP3    H211209   5.920   0.301   0.198
 3735TIP3   OH211210   6.090   2.823   1.610
 3735TIP3    H111211   6.132   2.759   1.667
 3735TIP3    H211212   6.083   2.902   1.663
 3736TIP3   OH211213   4.716   3.166   2.364
 3736TIP3    H111214   4.652   3.235   2.377
 3736TIP3    H211215   4.779   3.177   2.436
 3737TIP3   OH211216   1.539   4.701   2.107
 3737TIP3    H111217   1.512   4.712   2.016
 3737TIP3    H211218   1.548   4.790   2.141
 3738TIP3   OH211219   0.565   4.167   3.708
 3738TIP3    H111220   0.525   4.245   3.670
 3738TIP3    H211221   0.517   4.152   3.789
 3739TIP3   OH211222   1.370   3.068   4.700
 3739TIP3    H111223   1.347   3.090   4.610
 3739TIP3    H211224   1.286   3.050   4.743
 3740TIP3   OH211225   0.484   4.696   3.333
 3740TIP3    H111226   0.574   4.704   3.303
 3740TIP3    H211227   0.480   4.749   3.413
 3741TIP3   OH211228   5.082   5.056   4.872
 3741TIP3    H111229   5.045   4.979   4.828
 3741TIP3    H211230   5.010   5.118   4.877
 3742TIP3   OH211231   4.353   3.716   2.864
 3742TIP3    H111232   4.411   3.777   2.910
 3742TIP3    H211233   4.383   3.718   2.774
 3743TIP3   OH211234   5.700   1.431   1.318
 3743TIP3    H111235   5.657   1.389   1.243
 3743TIP3    H211236   5.666   1.521   1.318
 3744TIP3   OH211237   4.071   2.959   3.019
 3744TIP3    H111238   4.026   2.910   3.088
 3744TIP3    H211239   4.087   2.895   2.950
 3745TIP3   OH211240   0.404   4.398   3.340
 3745TIP3    H111241   0.438   4.477   3.298
 3745TIP3    H211242   0.309   4.411   3.343
 3746TIP3   OH211243   2.459   5.008   2.295
 3746TIP3    H111244   2.472   5.081   2.357
 3746TIP3    H211245   2.373   5.026   2.256
 3747TIP3   OH211246   0.542   4.406   2.528
 3747TIP3    H111247   0.497   4.377   2.608
 3747TIP3    H211248   0.509   4.348   2.460
 3748TIP3   OH211249   2.845   1.486   3.697
 3748TIP3    H111250   2.860   1.559   3.637
 3748TIP3    H211251   2.918   1.489   3.758
 3749TIP3   OH211252   2.071   1.090   0.977
 3749TIP3    H111253   2.082   1.167   1.033
 3749TIP3    H211254   1.980   1.065   0.988
 3750TIP3   OH211255   1.672   4.789   3.042
 3750TIP3    H111256   1.669   4.706   2.995
 3750TIP3    H211257   1.624   4.850   2.987
 3751TIP3   OH211258   1.800   4.278   3.079
 3751TIP3    H111259   1.871   4.245   3.135
 3751TIP3    H211260   1.721   4.234   3.112
 3752TIP3   OH211261   4.857   1.985   2.387
 3752TIP3    H111262   4.915   1.956   2.457
 3752TIP3    H211263   4.774   2.004   2.431
 3753TIP3   OH211264   0.552   2.298   2.624
 3753TIP3    H111265   0.602   2.241   2.682
 3753TIP3    H211266   0.537   2.244   2.546
 3754TIP3   OH211267   3.051   1.182   0.813
 3754TIP3    H111268   3.048   1.113   0.747
 3754TIP3    H211269   2.961   1.188   0.845
 3755TIP3   OH211270   1.570   2.689   2.270
 3755TIP3    H111271   1.614   2.748   2.330
 3755TIP3    H211272   1.609   2.707   2.185
 3756TIP3   OH211273   3.030   1.854   0.073
 3756TIP3    H111274   3.081   1.927   0.108
 3756TIP3    H211275   3.095   1.798   0.031
 3757TIP3   OH211276   6.060   4.601   3.661
 3757TIP3    H111277   6.051   4.577   3.753
 3757TIP3    H211278   6.130   4.544   3.629
 3758TIP3   OH211279   0.498   2.735   2.809
 3758TIP3    H111280   0.547   2.654   2.824
 3758TIP3    H211281   0.472   2.763   2.897
 3759TIP3   OH211282   5.035   4.660   2.412
 3759TIP3    H111283   4.965   4.725   2.412
 3759TIP3    H211284   4.990   4.575   2.413
 3760TIP3   OH211285   2.627   3.089   0.466
 3760TIP3    H111286   2.532   3.082   0.462
 3760TIP3    H211287   2.660   3.009   0.425
 3761TIP3   OH211288   5.127   0.603   2.324
 3761TIP3    H111289   5.131   0.698   2.332
 3761TIP3    H211290   5.211   0.573   2.357
 3762TIP3   OH211291   2.804   0.866   2.941
 3762TIP3    H111292   2.757   0.917   3.008
 3762TIP3    H211293   2.810   0.778   2.979
 3763TIP3   OH211294   0.745   4.802   4.603
 3763TIP3    H111295   0.801   4.736   4.563
 3763TIP3    H211296   0.772   4.885   4.563
 3764TIP3   OH211297   2.607   1.780   2.533
 3764TIP3    H111298   2.561   1.848   2.483
 3764TIP3    H211299   2.545   1.756   2.602
 3765TIP3   OH211300   1.789   2.015   4.379
 3765TIP3    H111301   1.781   1.936   4.433
 3765TIP3    H211302   1.737   1.997   4.301
 3766TIP3   OH211303   1.331   5.336   0.303
 3766TIP3    H111304   1.368   5.251   0.283
 3766TIP3    H211305   1.279   5.359   0.226
 3767TIP3   OH211306   4.190   1.486   0.314
 3767TIP3    H111307   4.231   1.426   0.377
 3767TIP3    H211308   4.121   1.529   0.365
 3768TIP3   OH211309   0.056   2.258   3.982
 3768TIP3    H111310   0.037   2.235   3.892
 3768TIP3    H211311   0.046   2.176   4.031
 3769TIP3   OH211312   2.045   1.229   0.626
 3769TIP3    H111313   2.054   1.294   0.557
 3769TIP3    H211314   1.977   1.169   0.594
 3770TIP3   OH211315   6.311   3.262   2.064
 3770TIP3    H111316   6.350   3.346   2.090
 3770TIP3    H211317   6.387   3.204   2.053
 3771TIP3   OH211318   6.020   4.089   1.315
 3771TIP3    H111319   5.992   4.034   1.388
 3771TIP3    H211320   6.114   4.102   1.329
 3772TIP3   OH211321   0.502   5.236   1.240
 3772TIP3    H111322   0.526   5.328   1.252
 3772TIP3    H211323   0.585   5.190   1.233
 3773TIP3   OH211324   4.863   2.226   1.575
 3773TIP3    H111325   4.857   2.182   1.659
 3773TIP3    H211326   4.958   2.237   1.560
 3774TIP3   OH211327   3.570   5.738   4.005
 3774TIP3    H111328   3.657   5.746   3.966
 3774TIP3    H211329   3.522   5.814   3.972
 3775TIP3   OH211330   3.724   0.471   0.338
 3775TIP3    H111331   3.811   0.434   0.355
 3775TIP3    H211332   3.669   0.395   0.322
 3776TIP3   OH211333   4.395   5.318   3.584
 3776TIP3    H111334   4.361   5.294   3.498
 3776TIP3    H211335   4.325   5.371   3.623
 3777TIP3   OH211336   5.641   4.450   1.618
 3777TIP3    H111337   5.666   4.446   1.711
 3777TIP3    H211338   5.549   4.474   1.620
 3778TIP3   OH211339   5.294   4.507   4.528
 3778TIP3    H111340   5.351   4.478   4.456
 3778TIP3    H211341   5.324   4.596   4.548
 3779TIP3   OH211342   1.637   1.495   4.278
 3779TIP3    H111343   1.619   1.560   4.345
 3779TIP3    H211344   1.575   1.424   4.295
 3780TIP3   OH211345   0.427   2.383   3.017
 3780TIP3    H111346   0.493   2.417   2.958
 3780TIP3    H211347   0.360   2.345   2.960
 3781TIP3   OH211348   5.312   3.939   3.829
 3781TIP3    H111349   5.329   4.014   3.771
 3781TIP3    H211350   5.325   3.863   3.773
 3782TIP3   OH211351   5.908   2.502   1.259
 3782TIP3    H111352   5.957   2.554   1.194
 3782TIP3    H211353   5.873   2.568   1.319
 3783TIP3   OH211354   1.188   1.265   1.530
 3783TIP3    H111355   1.216   1.196   1.470
 3783TIP3    H211356   1.101   1.290   1.499
 3784TIP3   OH211357   3.650   1.465   3.745
 3784TIP3    H111358   3.654   1.383   3.696
 3784TIP3    H211359   3.636   1.532   3.678
 3785TIP3   OH211360   5.975   1.733   0.866
 3785TIP3    H111361   6.036   1.681   0.918
 3785TIP3    H211362   5.964   1.814   0.916
 3786TIP3   OH211363   4.584   1.627   2.495
 3786TIP3    H111364   4.607   1.550   2.443
 3786TIP3    H211365   4.563   1.694   2.430
 3787TIP3   OH211366   4.456   5.544   3.233
 3787TIP3    H111367   4.528   5.601   3.204
 3787TIP3    H211368   4.379   5.601   3.232
 3788TIP3   OH211369   4.087   4.595   4.459
 3788TIP3    H111370   4.164   4.583   4.403
 3788TIP3    H211371   4.083   4.514   4.511
 3789TIP3   OH211372   2.898   2.819   4.848
 3789TIP3    H111373   2.986   2.842   4.879
 3789TIP3    H211374   2.900   2.839   4.755
 3790TIP3   OH211375   1.929   4.551   3.062
 3790TIP3    H111376   1.898   4.609   2.993
 3790TIP3    H211377   1.854   4.493   3.079
 3791TIP3   OH211378   2.245   0.629   0.335
 3791TIP3    H111379   2.235   0.613   0.429
 3791TIP3    H211380   2.209   0.550   0.294
 3792TIP3   OH211381   3.516   3.802   3.886
 3792TIP3    H111382   3.535   3.823   3.794
 3792TIP3    H211383   3.440   3.856   3.907
 3793TIP3   OH211384   4.616   0.772   0.592
 3793TIP3    H111385   4.524   0.745   0.595
 3793TIP3    H211386   4.623   0.823   0.511
 3794TIP3   OH211387   2.017   5.301   4.727
 3794TIP3    H111388   2.014   5.391   4.695
 3794TIP3    H211389   1.952   5.255   4.674
 3795TIP3   OH211390   1.278   3.537   4.082
 3795TIP3    H111391   1.310   3.624   4.105
 3795TIP3    H211392   1.327   3.478   4.138
 3796TIP3   OH211393   1.221   1.884   1.688
 3796TIP3    H111394   1.268   1.912   1.609
 3796TIP3    H211395   1.236   1.954   1.751
 3797TIP3   OH211396   1.077   5.415   2.950
 3797TIP3    H111397   1.072   5.501   2.907
 3797TIP3    H211398   0.987   5.397   2.977
 3798TIP3   OH211399   2.604   1.505   3.806
 3798TIP3    H111400   2.594   1.421   3.852
 3798TIP3    H211401   2.697   1.509   3.784
 3799TIP3   OH211402   6.025   5.245   4.947
 3799TIP3    H111403   5.976   5.326   4.937
 3799TIP3    H211404   6.039   5.236   5.041
 3800TIP3   OH211405   0.367   3.720   2.727
 3800TIP3    H111406   0.422   3.782   2.678
 3800TIP3    H211407   0.395   3.731   2.818
 3801TIP3   OH211408   5.747   1.763   1.217
 3801TIP3    H111409   5.817   1.711   1.255
 3801TIP3    H211410   5.673   1.751   1.277
 3802TIP3   OH211411   3.948   2.268   0.918
 3802TIP3    H111412   4.018   2.262   0.983
 3802TIP3    H211413   3.912   2.180   0.914
 3803TIP3   OH211414   3.366  -0.029   2.708
 3803TIP3    H111415   3.340   0.025   2.783
 3803TIP3    H211416   3.294  -0.022   2.646
 3804TIP3   OH211417   1.697   0.128   5.145
 3804TIP3    H111418   1.656   0.049   5.179
 3804TIP3    H211419   1.627   0.194   5.147
 3805TIP3   OH211420   3.083   4.554   1.299
 3805TIP3    H111421   3.112   4.462   1.302
 3805TIP3    H211422   3.109   4.589   1.384
 3806TIP3   OH211423   3.092   5.107   4.797
 3806TIP3    H111424   3.032   5.033   4.782
 3806TIP3    H211425   3.117   5.136   4.709
 3807TIP3   OH211426   2.703   4.939   2.139
 3807TIP3    H111427   2.734   4.924   2.050
 3807TIP3    H211428   2.774   4.988   2.181
 3808TIP3   OH211429   6.231   5.017   4.106
 3808TIP3    H111430   6.260   4.926   4.099
 3808TIP3    H211431   6.147   5.013   4.150
 3809TIP3   OH211432   3.322   3.707   3.468
 3809TIP3    H111433   3.258   3.750   3.411
 3809TIP3    H211434   3.329   3.618   3.433
 3810TIP3   OH211435   5.515   3.076   4.152
 3810TIP3    H111436   5.587   3.075   4.215
 3810TIP3    H211437   5.557   3.072   4.066
 3811TIP3   OH211438   2.487   3.335   1.540
 3811TIP3    H111439   2.558   3.377   1.587
 3811TIP3    H211440   2.513   3.243   1.533
 3812TIP3   OH211441   0.464   5.585   2.538
 3812TIP3    H111442   0.371   5.605   2.550
 3812TIP3    H211443   0.479   5.592   2.444
 3813TIP3   OH211444   5.303   2.635   2.069
 3813TIP3    H111445   5.343   2.550   2.048
 3813TIP3    H211446   5.348   2.697   2.012
 3814TIP3   OH211447   5.612   0.612   4.574
 3814TIP3    H111448   5.707   0.622   4.564
 3814TIP3    H211449   5.577   0.700   4.562
 3815TIP3   OH211450   4.880   2.951   4.174
 3815TIP3    H111451   4.933   2.877   4.143
 3815TIP3    H211452   4.904   2.960   4.266
 3816TIP3   OH211453   4.431   1.432   0.876
 3816TIP3    H111454   4.369   1.361   0.893
 3816TIP3    H211455   4.507   1.411   0.931
 3817TIP3   OH211456   0.974   1.056   2.319
 3817TIP3    H111457   1.069   1.068   2.309
 3817TIP3    H211458   0.964   0.963   2.339
 3818TIP3   OH211459   5.637   2.319   2.865
 3818TIP3    H111460   5.723   2.293   2.898
 3818TIP3    H211461   5.579   2.306   2.940
 3819TIP3   OH211462   1.787   0.888   3.928
 3819TIP3    H111463   1.692   0.892   3.933
 3819TIP3    H211464   1.808   0.794   3.933
 3820TIP3   OH211465   3.283   1.614   1.227
 3820TIP3    H111466   3.354   1.631   1.289
 3820TIP3    H211467   3.203   1.638   1.275
 3821TIP3   OH211468   1.403   5.073   0.503
 3821TIP3    H111469   1.365   5.139   0.562
 3821TIP3    H211470   1.328   5.022   0.474
 3822TIP3   OH211471   5.982   3.979   0.043
 3822TIP3    H111472   6.002   3.922   0.117
 3822TIP3    H211473   6.066   4.023   0.024
 3823TIP3   OH211474   3.295   5.372   2.696
 3823TIP3    H111475   3.367   5.340   2.750
 3823TIP3    H211476   3.298   5.467   2.706
 3824TIP3   OH211477   0.927   4.670   1.052
 3824TIP3    H111478   0.975   4.740   1.008
 3824TIP3    H211479   0.899   4.612   0.981
 3825TIP3   OH211480   2.813   2.871   3.644
 3825TIP3    H111481   2.813   2.810   3.717
 3825TIP3    H211482   2.881   2.935   3.666
 3826TIP3   OH211483   3.725   3.408   1.941
 3826TIP3    H111484   3.742   3.358   2.021
 3826TIP3    H211485   3.643   3.455   1.959
 3827TIP3   OH211486   1.467   4.855   4.402
 3827TIP3    H111487   1.412   4.882   4.475
 3827TIP3    H211488   1.418   4.784   4.361
 3828TIP3   OH211489   2.958   0.943   0.669
 3828TIP3    H111490   2.909   0.874   0.714
 3828TIP3    H211491   3.041   0.902   0.644
 3829TIP3   OH211492   3.807   2.397   2.416
 3829TIP3    H111493   3.769   2.480   2.386
 3829TIP3    H211494   3.752   2.329   2.376
 3830TIP3   OH211495   2.583   2.201   4.787
 3830TIP3    H111496   2.669   2.240   4.773
 3830TIP3    H211497   2.602   2.109   4.808
 3831TIP3   OH211498   5.013   2.063   2.635
 3831TIP3    H111499   5.066   2.132   2.674
 3831TIP3    H211500   4.969   2.021   2.709
 3832TIP3   OH211501  -0.021   5.536   2.473
 3832TIP3    H111502   0.021   5.584   2.545
 3832TIP3    H211503   0.017   5.574   2.394
 3833TIP3   OH211504   1.373   1.629   1.786
 3833TIP3    H111505   1.337   1.541   1.782
 3833TIP3    H211506   1.309   1.683   1.739
 3834TIP3   OH211507   1.312   5.651   0.974
 3834TIP3    H111508   1.248   5.720   0.957
 3834TIP3    H211509   1.268   5.571   0.945
 3835TIP3   OH211510   2.751   0.197   3.811
 3835TIP3    H111511   2.749   0.101   3.808
 3835TIP3    H211512   2.690   0.220   3.881
 3836TIP3   OH211513   6.129   1.753   2.727
 3836TIP3    H111514   6.061   1.770   2.792
 3836TIP3    H211515   6.148   1.659   2.735
 3837TIP3   OH211516   5.874   0.665   2.146
 3837TIP3    H111517   5.945   0.709   2.099
 3837TIP3    H211518   5.872   0.707   2.232
 3838TIP3   OH211519   0.116   4.702   1.894
 3838TIP3    H111520   0.107   4.676   1.802
 3838TIP3    H211521   0.037   4.753   1.912
 3839TIP3   OH211522   5.431   0.364   0.793
 3839TIP3    H111523   5.476   0.416   0.726
 3839TIP3    H211524   5.358   0.419   0.821
 3840TIP3   OH211525   4.124   1.461   4.918
 3840TIP3    H111526   4.037   1.488   4.889
 3840TIP3    H211527   4.157   1.535   4.969
 3841TIP3   OH211528   0.141   5.214   0.590
 3841TIP3    H111529   0.233   5.198   0.611
 3841TIP3    H211530   0.130   5.308   0.601
 3842TIP3   OH211531   4.057   4.971   4.591
 3842TIP3    H111532   4.009   4.948   4.670
 3842TIP3    H211533   4.144   4.934   4.604
 3843TIP3   OH211534   3.508   5.976   3.853
 3843TIP3    H111535   3.432   6.008   3.900
 3843TIP3    H211536   3.472   5.924   3.781
 3844TIP3   OH211537   1.963   1.255   2.120
 3844TIP3    H111538   1.876   1.284   2.094
 3844TIP3    H211539   1.975   1.171   2.075
 3845TIP3   OH211540   0.551   0.836   1.075
 3845TIP3    H111541   0.501   0.842   1.156
 3845TIP3    H211542   0.547   0.924   1.037
 3846TIP3   OH211543   3.096   5.323   3.478
 3846TIP3    H111544   3.020   5.379   3.492
 3846TIP3    H211545   3.061   5.234   3.480
 3847TIP3   OH211546   2.748   4.709   3.712
 3847TIP3    H111547   2.726   4.764   3.788
 3847TIP3    H211548   2.667   4.665   3.690
 3848TIP3   OH211549   5.298   3.221   3.229
 3848TIP3    H111550   5.307   3.304   3.181
 3848TIP3    H211551   5.281   3.247   3.319
 3849TIP3   OH211552   1.917   2.603   0.988
 3849TIP3    H111553   1.894   2.639   0.902
 3849TIP3    H211554   2.011   2.590   0.984
 3850TIP3   OH211555   2.360   1.732   1.659
 3850TIP3    H111556   2.297   1.802   1.646
 3850TIP3    H211557   2.348   1.705   1.750
 3851TIP3   OH211558   4.670   0.014   4.782
 3851TIP3    H111559   4.753  -0.028   4.760
 3851TIP3    H211560   4.653   0.074   4.710
 3852TIP3   OH211561   0.380   2.716   0.362
 3852TIP3    H111562   0.355   2.638   0.411
 3852TIP3    H211563   0.367   2.692   0.270
 3853TIP3   OH211564   0.248   1.806   0.683
 3853TIP3    H111565   0.323   1.783   0.628
 3853TIP3    H211566   0.203   1.723   0.698
 3854TIP3   OH211567   1.075   2.429   4.363
 3854TIP3    H111568   1.011   2.380   4.414
 3854TIP3    H211569   1.024   2.471   4.294
 3855TIP3   OH211570   1.066   5.247   4.014
 3855TIP3    H111571   1.020   5.184   4.070
 3855TIP3    H211572   1.091   5.318   4.073
 3856TIP3   OH211573   4.547   2.238   2.667
 3856TIP3    H111574   4.516   2.329   2.662
 3856TIP3    H211575   4.497   2.200   2.740
 3857TIP3   OH211576   2.531   0.707   3.473
 3857TIP3    H111577   2.478   0.669   3.544
 3857TIP3    H211578   2.620   0.677   3.491
 3858TIP3   OH211579   0.582   3.908   0.340
 3858TIP3    H111580   0.510   3.894   0.401
 3858TIP3    H211581   0.589   3.825   0.291
 3859TIP3   OH211582   4.845   0.988   0.955
 3859TIP3    H111583   4.930   1.001   0.915
 3859TIP3    H211584   4.805   0.916   0.905
 3860TIP3   OH211585   2.253   0.886   0.523
 3860TIP3    H111586   2.274   0.799   0.558
 3860TIP3    H211587   2.279   0.946   0.593
 3861TIP3   OH211588   2.917   5.126   3.424
 3861TIP3    H111589   2.938   5.118   3.331
 3861TIP3    H211590   2.840   5.183   3.426
 3862TIP3   OH211591   1.001   1.821   2.300
 3862TIP3    H111592   1.081   1.822   2.352
 3862TIP3    H211593   1.004   1.903   2.250
 3863TIP3   OH211594   3.177   0.445   3.144
 3863TIP3    H111595   3.257   0.488   3.175
 3863TIP3    H211596   3.183   0.355   3.178
 3864TIP3   OH211597   1.519   2.514   3.583
 3864TIP3    H111598   1.608   2.540   3.562
 3864TIP3    H211599   1.508   2.430   3.539
 3865TIP3   OH211600   4.000   4.067   4.218
 3865TIP3    H111601   3.939   4.001   4.251
 3865TIP3    H211602   3.944   4.135   4.180
 3866TIP3   OH211603   3.093   1.964   2.709
 3866TIP3    H111604   3.125   1.998   2.625
 3866TIP3    H211605   3.034   2.032   2.741
 3867TIP3   OH211606   1.648   5.167   1.237
 3867TIP3    H111607   1.657   5.262   1.237
 3867TIP3    H211608   1.597   5.148   1.158
 3868TIP3   OH211609   2.105   2.118   2.840
 3868TIP3    H111610   2.151   2.065   2.775
 3868TIP3    H211611   2.022   2.073   2.852
 3869TIP3   OH211612   4.181   2.850   1.741
 3869TIP3    H111613   4.263   2.820   1.701
 3869TIP3    H211614   4.209   2.906   1.814
 3870TIP3   OH211615   3.896   5.885   0.912
 3870TIP3    H111616   3.977   5.854   0.871
 3870TIP3    H211617   3.924   5.923   0.995
 3871TIP3   OH211618   0.136   1.046   0.819
 3871TIP3    H111619   0.115   1.053   0.912
 3871TIP3    H211620   0.227   1.019   0.816
 3872TIP3   OH211621   1.986   2.254   1.507
 3872TIP3    H111622   1.927   2.260   1.432
 3872TIP3    H211623   1.938   2.201   1.571
 3873TIP3   OH211624   5.899   0.980   3.112
 3873TIP3    H111625   5.905   0.890   3.145
 3873TIP3    H211626   5.883   1.033   3.190
 3874TIP3   OH211627   0.979   0.273   3.035
 3874TIP3    H111628   0.921   0.252   2.961
 3874TIP3    H211629   1.068   0.264   2.999
 3875TIP3   OH211630   2.072   5.347   0.217
 3875TIP3    H111631   2.147   5.396   0.250
 3875TIP3    H211632   2.031   5.311   0.296
 3876TIP3   OH211633   0.028   3.876   3.403
 3876TIP3    H111634   0.101   3.907   3.349
 3876TIP3    H211635   0.016   3.785   3.376
 3877TIP3   OH211636   5.372   5.570   3.223
 3877TIP3    H111637   5.335   5.656   3.204
 3877TIP3    H211638   5.395   5.534   3.137
 3878TIP3   OH211639   4.688   1.706   1.865
 3878TIP3    H111640   4.657   1.749   1.945
 3878TIP3    H211641   4.689   1.775   1.799
 3879TIP3   OH211642   4.353   3.560   3.860
 3879TIP3    H111643   4.354   3.655   3.872
 3879TIP3    H211644   4.261   3.539   3.840
 3880TIP3   OH211645   2.962   2.402   2.657
 3880TIP3    H111646   3.020   2.476   2.643
 3880TIP3    H211647   2.874   2.439   2.653
 3881TIP3   OH211648   0.704   4.276   4.832
 3881TIP3    H111649   0.635   4.255   4.895
 3881TIP3    H211650   0.752   4.194   4.820
 3882TIP3   OH211651   3.973   3.081   0.437
 3882TIP3    H111652   4.065   3.068   0.412
 3882TIP3    H211653   3.925   3.015   0.388
 3883TIP3   OH211654   2.488   1.102   0.874
 3883TIP3    H111655   2.448   1.095   0.788
 3883TIP3    H211656   2.565   1.045   0.870
 3884TIP3   OH211657   5.538   4.798   2.307
 3884TIP3    H111658   5.625   4.772   2.278
 3884TIP3    H211659   5.543   4.893   2.318
 3885TIP3   OH211660   3.778   3.207   4.165
 3885TIP3    H111661   3.725   3.268   4.216
 3885TIP3    H211662   3.779   3.127   4.217
 3886TIP3   OH211663   1.465   3.188   2.976
 3886TIP3    H111664   1.435   3.173   2.886
 3886TIP3    H211665   1.399   3.145   3.031
 3887TIP3   OH211666   6.241   4.363   0.116
 3887TIP3    H111667   6.326   4.405   0.100
 3887TIP3    H211668   6.231   4.364   0.211
 3888TIP3   OH211669   1.994   1.327   2.380
 3888TIP3    H111670   1.976   1.282   2.297
 3888TIP3    H211671   2.011   1.257   2.443
 3889TIP3   OH211672   0.535   5.260   5.058
 3889TIP3    H111673   0.622   5.298   5.047
 3889TIP3    H211674   0.528   5.195   4.988
 3890TIP3   OH211675   2.597   5.273   4.924
 3890TIP3    H111676   2.630   5.187   4.951
 3890TIP3    H211677   2.548   5.305   5.000
 3891TIP3   OH211678   2.915   1.442   2.271
 3891TIP3    H111679   2.843   1.433   2.333
 3891TIP3    H211680   2.882   1.403   2.190
 3892TIP3   OH211681   4.015   2.486   2.136
 3892TIP3    H111682   4.050   2.534   2.062
 3892TIP3    H211683   4.021   2.547   2.210
 3893TIP3   OH211684   4.294   2.586   2.933
 3893TIP3    H111685   4.210   2.594   2.979
 3893TIP3    H211686   4.358   2.570   3.002
 3894TIP3   OH211687   2.705   4.698   3.996
 3894TIP3    H111688   2.781   4.747   3.966
 3894TIP3    H211689   2.717   4.610   3.961
 3895TIP3   OH211690   5.702   3.408   1.510
 3895TIP3    H111691   5.674   3.389   1.421
 3895TIP3    H211692   5.707   3.322   1.552
 3896TIP3   OH211693   3.017   4.884   2.372
 3896TIP3    H111694   3.041   4.883   2.280
 3896TIP3    H211695   2.971   4.801   2.386
 3897TIP3   OH211696   3.724   5.344   4.404
 3897TIP3    H111697   3.707   5.436   4.384
 3897TIP3    H211698   3.664   5.323   4.476
 3898TIP3   OH211699   6.295   5.210   3.939
 3898TIP3    H111700   6.269   5.294   3.977
 3898TIP3    H211701   6.266   5.145   4.003
 3899TIP3   OH211702   6.085   3.557   0.521
 3899TIP3    H111703   6.001   3.540   0.562
 3899TIP3    H211704   6.112   3.642   0.556
 3900TIP3   OH211705   0.747   1.745   0.851
 3900TIP3    H111706   0.704   1.829   0.835
 3900TIP3    H211707   0.711   1.715   0.934
 3901TIP3   OH211708   1.176   0.693   4.948
 3901TIP3    H111709   1.256   0.688   5.000
 3901TIP3    H211710   1.114   0.741   5.004
 3902TIP3   OH211711   5.777   5.639   3.528
 3902TIP3    H111712   5.723   5.669   3.455
 3902TIP3    H211713   5.715   5.597   3.587
 3903TIP3   OH211714   5.257   1.050   3.346
 3903TIP3    H111715   5.193   1.046   3.417
 3903TIP3    H211716   5.298   1.136   3.354
 3904TIP3   OH211717   2.997   3.654   4.673
 3904TIP3    H111718   2.944   3.701   4.737
 3904TIP3    H211719   2.937   3.589   4.635
 3905TIP3   OH211720   2.710   3.129   1.566
 3905TIP3    H111721   2.687   3.185   1.640
 3905TIP3    H211722   2.700   3.040   1.599
 3906TIP3   OH211723   3.364   1.403   2.182
 3906TIP3    H111724   3.312   1.346   2.239
 3906TIP3    H211725   3.371   1.486   2.230
 3907TIP3   OH211726   6.098   2.253   1.652
 3907TIP3    H111727   6.110   2.159   1.657
 3907TIP3    H211728   6.048   2.267   1.572
 3908TIP3   OH211729   0.601   5.028   4.173
 3908TIP3    H111730   0.524   4.977   4.194
 3908TIP3    H211731   0.598   5.037   4.078
 3909TIP3   OH211732   1.124   0.725   0.758
 3909TIP3    H111733   1.060   0.674   0.807
 3909TIP3    H211734   1.201   0.669   0.752
 3910TIP3   OH211735   5.742   1.748   4.170
 3910TIP3    H111736   5.819   1.789   4.209
 3910TIP3    H211737   5.722   1.803   4.094
 3911TIP3   OH211738   2.279   0.530   3.314
 3911TIP3    H111739   2.244   0.616   3.338
 3911TIP3    H211740   2.203   0.483   3.280
 3912TIP3   OH211741   5.842   3.595   0.132
 3912TIP3    H111742   5.796   3.644   0.063
 3912TIP3    H211743   5.922   3.645   0.146
 3913TIP3   OH211744   1.248   4.668   1.102
 3913TIP3    H111745   1.340   4.651   1.084
 3913TIP3    H211746   1.229   4.616   1.181
 3914TIP3   OH211747   2.801   4.222   2.305
 3914TIP3    H111748   2.877   4.225   2.247
 3914TIP3    H211749   2.755   4.141   2.281
 3915TIP3   OH211750   0.331   4.453   1.842
 3915TIP3    H111751   0.290   4.523   1.893
 3915TIP3    H211752   0.273   4.378   1.854
 3916TIP3   OH211753   3.997   3.465   0.455
 3916TIP3    H111754   4.016   3.545   0.406
 3916TIP3    H211755   3.985   3.495   0.545
 3917TIP3   OH211756   1.170   3.318   1.174
 3917TIP3    H111757   1.248   3.311   1.118
 3917TIP3    H211758   1.142   3.409   1.163
 3918TIP3   OH211759   4.524   3.030   4.541
 3918TIP3    H111760   4.619   3.039   4.550
 3918TIP3    H211761   4.496   3.111   4.498
 3919TIP3   OH211762   2.078   1.919   3.115
 3919TIP3    H111763   2.096   1.912   3.208
 3919TIP3    H211764   2.008   1.983   3.108
 3920TIP3   OH211765   2.361   5.305   4.024
 3920TIP3    H111766   2.351   5.343   4.112
 3920TIP3    H211767   2.279   5.258   4.009
 3921TIP3   OH211768   3.001   2.342   1.145
 3921TIP3    H111769   3.096   2.334   1.130
 3921TIP3    H211770   2.994   2.357   1.240
 3922TIP3   OH211771   1.852   5.717   1.210
 3922TIP3    H111772   1.782   5.676   1.159
 3922TIP3    H211773   1.808   5.784   1.262
 3923TIP3   OH211774   2.496   1.072   0.586
 3923TIP3    H111775   2.417   1.113   0.551
 3923TIP3    H211776   2.562   1.086   0.519
 3924TIP3   OH211777   5.377   5.832   2.469
 3924TIP3    H111778   5.455   5.874   2.434
 3924TIP3    H211779   5.411   5.758   2.520
 3925TIP3   OH211780   2.081   0.579   2.637
 3925TIP3    H111781   2.112   0.667   2.656
 3925TIP3    H211782   2.026   0.555   2.711
 3926TIP3   OH211783   6.196   3.563   0.276
 3926TIP3    H111784   6.150   3.568   0.360
 3926TIP3    H211785   6.270   3.505   0.293
 3927TIP3   OH211786   0.072   2.852   1.663
 3927TIP3    H111787  -0.001   2.792   1.681
 3927TIP3    H211788   0.120   2.856   1.746
 3928TIP3   OH211789   1.375   5.548   5.104
 3928TIP3    H111790   1.462   5.532   5.142
 3928TIP3    H211791   1.343   5.626   5.150
 3929TIP3   OH211792   6.235   1.269   0.336
 3929TIP3    H111793   6.316   1.272   0.285
 3929TIP3    H211794   6.167   1.293   0.274
 3930TIP3   OH211795   0.695   1.448   4.443
 3930TIP3    H111796   0.675   1.440   4.350
 3930TIP3    H211797   0.788   1.468   4.447
 3931TIP3   OH211798   2.808   1.119   0.496
 3931TIP3    H111799   2.870   1.074   0.553
 3931TIP3    H211800   2.802   1.063   0.419
 3932TIP3   OH211801   4.670   5.744   3.132
 3932TIP3    H111802   4.665   5.790   3.048
 3932TIP3    H211803   4.699   5.811   3.194
 3933TIP3   OH211804   1.299   4.699   0.392
 3933TIP3    H111805   1.346   4.670   0.471
 3933TIP3    H211806   1.215   4.731   0.425
 3934TIP3   OH211807   0.593   3.292   1.135
 3934TIP3    H111808   0.673   3.279   1.186
 3934TIP3    H211809   0.549   3.207   1.137
 3935TIP3   OH211810   1.574   4.100   0.897
 3935TIP3    H111811   1.607   4.010   0.903
 3935TIP3    H211812   1.542   4.107   0.807
 3936TIP3   OH211813   6.159   0.370   1.276
 3936TIP3    H111814   6.249   0.346   1.255
 3936TIP3    H211815   6.168   0.441   1.340
 3937TIP3   OH211816   3.568   0.789   4.662
 3937TIP3    H111817   3.648   0.742   4.641
 3937TIP3    H211818   3.555   0.774   4.755
 3938TIP3   OH211819   0.241   0.207   2.444
 3938TIP3    H111820   0.211   0.286   2.398
 3938TIP3    H211821   0.160   0.167   2.476
 3939TIP3   OH211822   5.664   1.000   4.920
 3939TIP3    H111823   5.683   0.912   4.887
 3939TIP3    H211824   5.730   1.056   4.879
 3940TIP3   OH211825   4.382   1.506   4.542
 3940TIP3    H111826   4.335   1.555   4.475
 3940TIP3    H211827   4.465   1.482   4.500
 3941TIP3   OH211828   5.902   1.829   1.531
 3941TIP3    H111829   5.813   1.851   1.558
 3941TIP3    H211830   5.931   1.764   1.595
 3942TIP3   OH211831   3.767   3.619   1.002
 3942TIP3    H111832   3.718   3.658   0.929
 3942TIP3    H211833   3.749   3.525   0.994
 3943TIP3   OH211834   4.851   1.331   1.501
 3943TIP3    H111835   4.791   1.351   1.429
 3943TIP3    H211836   4.906   1.409   1.509
 3944TIP3   OH211837   0.367   5.400   3.759
 3944TIP3    H111838   0.432   5.416   3.827
 3944TIP3    H211839   0.417   5.402   3.677
 3945TIP3   OH211840   3.393   2.384   0.134
 3945TIP3    H111841   3.472   2.388   0.187
 3945TIP3    H211842   3.373   2.476   0.114
 3946TIP3   OH211843   3.004   5.905   4.077
 3946TIP3    H111844   2.920   5.860   4.063
 3946TIP3    H211845   3.064   5.835   4.102
 3947TIP3   OH211846   2.610   1.615   4.877
 3947TIP3    H111847   2.548   1.687   4.859
 3947TIP3    H211848   2.613   1.565   4.796
 3948TIP3   OH211849   6.021   1.712   2.063
 3948TIP3    H111850   5.966   1.680   2.135
 3948TIP3    H211851   6.068   1.635   2.032
 3949TIP3   OH211852   3.798   1.034   1.784
 3949TIP3    H111853   3.746   1.017   1.863
 3949TIP3    H211854   3.857   0.958   1.778
 3950TIP3   OH211855   5.237   3.313   1.915
 3950TIP3    H111856   5.320   3.277   1.884
 3950TIP3    H211857   5.236   3.403   1.881
 3951TIP3   OH211858   1.289   4.966   4.598
 3951TIP3    H111859   1.233   4.889   4.606
 3951TIP3    H211860   1.251   5.016   4.526
 3952TIP3   OH211861   0.087   3.450   5.059
 3952TIP3    H111862   0.140   3.527   5.039
 3952TIP3    H211863   0.150   3.379   5.069
 3953TIP3   OH211864   2.884   2.932   4.616
 3953TIP3    H111865   2.826   2.931   4.540
 3953TIP3    H211866   2.891   3.025   4.640
 3954TIP3   OH211867   5.927   0.871   5.149
 3954TIP3    H111868   5.870   0.835   5.081
 3954TIP3    H211869   6.002   0.905   5.100
 3955TIP3   OH211870   1.091   4.278   2.621
 3955TIP3    H111871   1.018   4.269   2.560
 3955TIP3    H211872   1.166   4.244   2.572
 3956TIP3   OH211873   3.738   3.043   1.143
 3956TIP3    H111874   3.770   2.957   1.170
 3956TIP3    H211875   3.703   3.082   1.224
 3957TIP3   OH211876   2.021   5.117   3.424
 3957TIP3    H111877   1.953   5.184   3.428
 3957TIP3    H211878   2.027   5.094   3.331
 3958TIP3   OH211879   1.639   1.286   0.975
 3958TIP3    H111880   1.661   1.323   0.889
 3958TIP3    H211881   1.682   1.343   1.038
 3959TIP3   OH211882   3.804   1.801   2.998
 3959TIP3    H111883   3.795   1.774   3.089
 3959TIP3    H211884   3.718   1.835   2.974
 3960TIP3   OH211885   1.089   0.689   0.453
 3960TIP3    H111886   1.084   0.720   0.543
 3960TIP3    H211887   1.147   0.613   0.457
 3961TIP3   OH211888   3.060   4.507   1.022
 3961TIP3    H111889   3.148   4.532   0.992
 3961TIP3    H211890   3.068   4.503   1.118
 3962TIP3   OH211891   0.280   5.796   4.558
 3962TIP3    H111892   0.231   5.817   4.479
 3962TIP3    H211893   0.306   5.705   4.547
 3963TIP3   OH211894   0.100   1.604   4.463
 3963TIP3    H111895   0.005   1.606   4.447
 3963TIP3    H211896   0.138   1.574   4.381
 3964TIP3   OH211897   5.328   4.557   0.674
 3964TIP3    H111898   5.371   4.638   0.701
 3964TIP3    H211899   5.297   4.518   0.756
 3965TIP3   OH211900   5.564   2.674   1.665
 3965TIP3    H111901   5.508   2.675   1.743
 3965TIP3    H211902   5.503   2.664   1.592
 3966TIP3   OH211903   0.432   1.838   3.866
 3966TIP3    H111904   0.381   1.918   3.853
 3966TIP3    H211905   0.500   1.863   3.929
 3967TIP3   OH211906   3.539   2.611   3.200
 3967TIP3    H111907   3.543   2.516   3.213
 3967TIP3    H211908   3.459   2.625   3.149
 3968TIP3   OH211909   4.986   2.546   0.063
 3968TIP3    H111910   4.999   2.507   0.149
 3968TIP3    H211911   5.075   2.564   0.031
 3969TIP3   OH211912   0.232   5.509   2.893
 3969TIP3    H111913   0.259   5.422   2.861
 3969TIP3    H211914   0.155   5.491   2.947
 3970TIP3   OH211915   2.085   2.542   3.957
 3970TIP3    H111916   2.177   2.517   3.946
 3970TIP3    H211917   2.075   2.622   3.907
 3971TIP3   OH211918   2.464   4.227   1.690
 3971TIP3    H111919   2.392   4.167   1.671
 3971TIP3    H211920   2.531   4.206   1.624
 3972TIP3   OH211921   0.153   3.220   0.013
 3972TIP3    H111922   0.189   3.174  -0.062
 3972TIP3    H211923   0.194   3.178   0.089
 3973TIP3   OH211924   4.603   1.213   2.539
 3973TIP3    H111925   4.615   1.276   2.469
 3973TIP3    H211926   4.511   1.222   2.565
 3974TIP3   OH211927   3.701   0.167   4.449
 3974TIP3    H111928   3.764   0.123   4.506
 3974TIP3    H211929   3.691   0.254   4.487
 3975TIP3   OH211930   1.353   1.527   0.766
 3975TIP3    H111931   1.267   1.491   0.742
 3975TIP3    H211932   1.342   1.622   0.759
 3976TIP3   OH211933   0.725   1.692   1.305
 3976TIP3    H111934   0.725   1.763   1.241
 3976TIP3    H211935   0.658   1.631   1.273
 3977TIP3   OH211936   0.621   3.125   0.476
 3977TIP3    H111937   0.708   3.099   0.505
 3977TIP3    H211938   0.569   3.045   0.482
 3978TIP3   OH211939   4.957   2.173   4.257
 3978TIP3    H111940   4.904   2.209   4.186
 3978TIP3    H211941   4.894   2.126   4.312
 3979TIP3   OH211942   4.672   1.911   1.698
 3979TIP3    H111943   4.623   1.993   1.708
 3979TIP3    H211944   4.751   1.936   1.650
 3980TIP3   OH211945   3.508   3.387   3.895
 3980TIP3    H111946   3.494   3.461   3.954
 3980TIP3    H211947   3.602   3.387   3.879
 3981TIP3   OH211948   5.119   0.833   1.139
 3981TIP3    H111949   5.049   0.896   1.123
 3981TIP3    H211950   5.146   0.850   1.229
 3982TIP3   OH211951   4.123   4.138   1.428
 3982TIP3    H111952   4.147   4.046   1.417
 3982TIP3    H211953   4.027   4.137   1.431
 3983TIP3   OH211954   3.287   4.368   3.629
 3983TIP3    H111955   3.213   4.427   3.621
 3983TIP3    H211956   3.256   4.284   3.594
 3984TIP3   OH211957   4.413   0.418   0.607
 3984TIP3    H111958   4.476   0.381   0.546
 3984TIP3    H211959   4.450   0.400   0.693
 3985TIP3   OH211960   4.251   4.268   3.449
 3985TIP3    H111961   4.175   4.296   3.399
 3985TIP3    H211962   4.223   4.186   3.491
 3986TIP3   OH211963   1.676   5.867   4.127
 3986TIP3    H111964   1.688   5.814   4.206
 3986TIP3    H211965   1.646   5.952   4.160
 3987TIP3   OH211966   0.187   1.852   0.070
 3987TIP3    H111967   0.208   1.873  -0.021
 3987TIP3    H211968   0.091   1.856   0.074
 3988TIP3   OH211969   2.221   4.692   1.666
 3988TIP3    H111970   2.288   4.624   1.666
 3988TIP3    H211971   2.263   4.767   1.707
 3989TIP3   OH211972   3.824   0.985   2.195
 3989TIP3    H111973   3.770   0.933   2.135
 3989TIP3    H211974   3.789   1.074   2.186
 3990TIP3   OH211975   5.401   3.558   1.411
 3990TIP3    H111976   5.417   3.468   1.440
 3990TIP3    H211977   5.334   3.549   1.344
 3991TIP3   OH211978   4.853   1.790   1.409
 3991TIP3    H111979   4.764   1.825   1.409
 3991TIP3    H211980   4.892   1.823   1.491
 3992TIP3   OH211981   2.764   0.504   3.972
 3992TIP3    H111982   2.682   0.540   3.939
 3992TIP3    H211983   2.832   0.543   3.917
 3993TIP3   OH211984   0.792   5.375   3.417
 3993TIP3    H111985   0.858   5.360   3.484
 3993TIP3    H211986   0.751   5.459   3.441
 3994TIP3   OH211987   0.508   5.905   2.402
 3994TIP3    H111988   0.539   5.887   2.313
 3994TIP3    H211989   0.526   5.999   2.415
 3995TIP3   OH211990   0.519   0.875   4.567
 3995TIP3    H111991   0.568   0.869   4.485
 3995TIP3    H211992   0.437   0.919   4.542
 3996TIP3   OH211993   4.437   5.802   1.384
 3996TIP3    H111994   4.521   5.770   1.349
 3996TIP3    H211995   4.460   5.880   1.434
 3997TIP3   OH211996   0.629   3.764   3.376
 3997TIP3    H111997   0.598   3.816   3.302
 3997TIP3    H211998   0.633   3.825   3.449
 3998TIP3   OH211999   2.053   5.285   3.129
 3998TIP3    H112000   2.099   5.367   3.149
 3998TIP3    H212001   2.101   5.249   3.054
 3999TIP3   OH212002   1.492   5.683   3.388
 3999TIP3    H112003   1.481   5.740   3.312
 3999TIP3    H212004   1.576   5.708   3.425
 4000TIP3   OH212005   5.111   4.479   1.329
 4000TIP3    H112006   5.026   4.502   1.291
 4000TIP3    H212007   5.147   4.413   1.271
 4001TIP3   OH212008   4.621   0.843   0.048
 4001TIP3    H112009   4.700   0.796   0.075
 4001TIP3    H212010   4.569   0.778   0.001
 4002TIP3   OH212011   3.858   0.609   2.743
 4002TIP3    H112012   3.791   0.585   2.807
 4002TIP3    H212013   3.814   0.606   2.659
 4003TIP3   OH212014   2.925   0.892   5.137
 4003TIP3    H112015   2.946   0.970   5.084
 4003TIP3    H212016   2.840   0.864   5.105
 4004TIP3   OH212017   3.876   1.842   4.668
 4004TIP3    H112018   3.925   1.912   4.624
 4004TIP3    H212019   3.820   1.887   4.731
 4005TIP3   OH212020   3.819   5.101   0.603
 4005TIP3    H112021   3.915   5.097   0.610
 4005TIP3    H212022   3.790   5.116   0.693
 4006TIP3   OH212023   3.253   2.538   3.377
 4006TIP3    H112024   3.264   2.567   3.287
 4006TIP3    H212025   3.167   2.572   3.403
 4007TIP3   OH212026   0.150   4.147   0.033
 4007TIP3    H112027   0.078   4.119   0.089
 4007TIP3    H212028   0.117   4.224  -0.013
 4008TIP3   OH212029   1.565   1.114   2.760
 4008TIP3    H112030   1.660   1.127   2.749
 4008TIP3    H212031   1.541   1.171   2.833
 4009TIP3   OH212032   6.313   5.180   3.665
 4009TIP3    H112033   6.223   5.176   3.632
 4009TIP3    H212034   6.304   5.167   3.760
 4010TIP3   OH212035   1.763   1.543   2.900
 4010TIP3    H112036   1.673   1.570   2.919
 4010TIP3    H212037   1.793   1.503   2.982
 4011TIP3   OH212038   6.257   4.492   3.488
 4011TIP3    H112039   6.189   4.497   3.421
 4011TIP3    H212040   6.298   4.578   3.488
 4012TIP3   OH212041   0.078   0.680   2.411
 4012TIP3    H112042   0.050   0.771   2.399
 4012TIP3    H212043   0.092   0.671   2.505
 4013TIP3   OH212044   5.258   1.631   1.339
 4013TIP3    H112045   5.295   1.590   1.418
 4013TIP3    H212046   5.315   1.601   1.268
 4014TIP3   OH212047   4.532   5.607   2.053
 4014TIP3    H112048   4.441   5.634   2.062
 4014TIP3    H212049   4.548   5.551   2.129
 4015TIP3   OH212050   0.146   5.634   2.674
 4015TIP3    H112051   0.170   5.719   2.711
 4015TIP3    H212052   0.156   5.572   2.747
 4016TIP3   OH212053   2.788   3.763   1.064
 4016TIP3    H112054   2.879   3.773   1.092
 4016TIP3    H212055   2.759   3.852   1.046
 4017TIP3   OH212056   6.092   3.505   4.748
 4017TIP3    H112057   6.077   3.544   4.835
 4017TIP3    H212058   6.165   3.446   4.761
 4018TIP3   OH212059   1.425   4.373   0.417
 4018TIP3    H112060   1.424   4.277   0.407
 4018TIP3    H212061   1.496   4.390   0.478
 4019TIP3   OH212062   4.681   2.939   0.986
 4019TIP3    H112063   4.641   2.982   0.911
 4019TIP3    H212064   4.775   2.948   0.972
 4020TIP3   OH212065   2.530   2.093   0.218
 4020TIP3    H112066   2.501   2.010   0.254
 4020TIP3    H212067   2.545   2.075   0.125
 4021TIP3   OH212068   4.395   1.394   1.281
 4021TIP3    H112069   4.332   1.374   1.350
 4021TIP3    H212070   4.341   1.416   1.205
 4022TIP3   OH212071   0.671   4.695   2.914
 4022TIP3    H112072   0.647   4.678   2.822
 4022TIP3    H212073   0.756   4.653   2.925
 4023TIP3   OH212074   2.994   1.286   0.367
 4023TIP3    H112075   3.074   1.318   0.409
 4023TIP3    H212076   2.925   1.302   0.431
 4024TIP3   OH212077   3.966   5.879   4.078
 4024TIP3    H112078   4.004   5.805   4.031
 4024TIP3    H212079   3.918   5.927   4.010
 4025TIP3   OH212080   5.633   4.665   1.075
 4025TIP3    H112081   5.717   4.690   1.036
 4025TIP3    H212082   5.652   4.650   1.167
 4026TIP3   OH212083   5.686   4.898   2.947
 4026TIP3    H112084   5.668   4.825   3.007
 4026TIP3    H212085   5.766   4.872   2.901
 4027TIP3   OH212086   6.359   3.038   2.524
 4027TIP3    H112087   6.332   3.128   2.509
 4027TIP3    H212088   6.295   3.003   2.586
 4028TIP3   OH212089   2.663   2.382   0.895
 4028TIP3    H112090   2.616   2.306   0.931
 4028TIP3    H212091   2.595   2.443   0.870
 4029TIP3   OH212092   0.393   1.287   2.109
 4029TIP3    H112093   0.399   1.382   2.115
 4029TIP3    H212094   0.426   1.255   2.193
 4030TIP3   OH212095   4.479   4.503   0.391
 4030TIP3    H112096   4.397   4.489   0.438
 4030TIP3    H212097   4.535   4.551   0.453
 4031TIP3   OH212098   0.303   0.160   3.125
 4031TIP3    H112099   0.351   0.078   3.127
 4031TIP3    H212100   0.218   0.138   3.086
 4032TIP3   OH212101   4.858   0.163   3.634
 4032TIP3    H112102   4.904   0.217   3.698
 4032TIP3    H212103   4.888   0.074   3.654
 4033TIP3   OH212104   5.948   3.780   1.882
 4033TIP3    H112105   5.924   3.863   1.841
 4033TIP3    H212106   6.043   3.775   1.873
 4034TIP3   OH212107   4.349   2.605   2.024
 4034TIP3    H112108   4.386   2.588   2.111
 4034TIP3    H212109   4.425   2.627   1.970
 4035TIP3   OH212110   5.181   0.192   0.006
 4035TIP3    H112111   5.103   0.242   0.029
 4035TIP3    H212112   5.254   0.247   0.036
 4036TIP3   OH212113   4.109   4.304   1.764
 4036TIP3    H112114   4.171   4.241   1.727
 4036TIP3    H212115   4.031   4.295   1.709
 4037TIP3   OH212116   5.400   3.058   0.010
 4037TIP3    H112117   5.351   3.139  -0.004
 4037TIP3    H212118   5.491   3.085   0.017
 4038TIP3   OH212119   5.345   1.341  -0.015
 4038TIP3    H112120   5.297   1.407   0.035
 4038TIP3    H212121   5.284   1.312  -0.082
 4039TIP3   OH212122   4.783   2.991   0.067
 4039TIP3    H112123   4.819   2.918   0.017
 4039TIP3    H212124   4.803   3.069   0.015
 4040TIP3   OH212125   4.986   5.433   3.715
 4040TIP3    H112126   4.995   5.350   3.669
 4040TIP3    H212127   5.075   5.464   3.728
 4041TIP3   OH212128   5.212   0.711   3.475
 4041TIP3    H112129   5.275   0.707   3.548
 4041TIP3    H212130   5.189   0.620   3.458
 4042TIP3   OH212131   0.477   1.763   0.509
 4042TIP3    H112132   0.480   1.749   0.415
 4042TIP3    H212133   0.568   1.755   0.538
 4043TIP3   OH212134   2.008   1.782   4.751
 4043TIP3    H112135   2.074   1.786   4.682
 4043TIP3    H212136   2.050   1.820   4.828
 4044TIP3   OH212137   3.645   3.853   4.649
 4044TIP3    H112138   3.552   3.838   4.661
 4044TIP3    H212139   3.658   3.945   4.674
 4045TIP3   OH212140   6.051   5.459   0.220
 4045TIP3    H112141   6.061   5.391   0.153
 4045TIP3    H212142   5.970   5.434   0.266
 4046TIP3   OH212143   6.107   3.088   0.266
 4046TIP3    H112144   6.016   3.078   0.291
 4046TIP3    H212145   6.116   3.180   0.243
 4047TIP3   OH212146   2.029   0.550   0.779
 4047TIP3    H112147   1.984   0.544   0.864
 4047TIP3    H212148   1.979   0.491   0.722
 4048TIP3   OH212149   0.512   4.550   4.733
 4048TIP3    H112150   0.540   4.546   4.825
 4048TIP3    H212151   0.420   4.576   4.738
 4049TIP3   OH212152   3.452   5.218   1.158
 4049TIP3    H112153   3.412   5.289   1.208
 4049TIP3    H212154   3.377   5.171   1.121
 4050TIP3   OH212155   1.645   0.312   1.979
 4050TIP3    H112156   1.733   0.301   2.016
 4050TIP3    H212157   1.587   0.309   2.055
 4051TIP3   OH212158   1.980   3.736   0.952
 4051TIP3    H112159   2.027   3.701   1.028
 4051TIP3    H212160   2.014   3.825   0.942
 4052TIP3   OH212161   0.620   3.105   5.016
 4052TIP3    H112162   0.577   3.111   4.930
 4052TIP3    H212163   0.709   3.076   4.996
 4053TIP3   OH212164   0.203   2.454   1.707
 4053TIP3    H112165   0.175   2.432   1.618
 4053TIP3    H212166   0.123   2.479   1.752
 4054TIP3   OH212167   2.259   5.488   1.597
 4054TIP3    H112168   2.182   5.542   1.580
 4054TIP3    H212169   2.304   5.484   1.513
 4055TIP3   OH212170   5.121   0.513   1.901
 4055TIP3    H112171   5.197   0.546   1.949
 4055TIP3    H212172   5.116   0.568   1.823
 4056TIP3   OH212173   3.876   2.401   4.528
 4056TIP3    H112174   3.944   2.415   4.463
 4056TIP3    H212175   3.813   2.472   4.512
 4057TIP3   OH212176   0.387   3.855   4.423
 4057TIP3    H112177   0.382   3.950   4.424
 4057TIP3    H212178   0.311   3.826   4.475
 4058TIP3   OH212179   4.693   0.336   4.788
 4058TIP3    H112180   4.684   0.415   4.841
 4058TIP3    H212181   4.698   0.368   4.698
 4059TIP3   OH212182   5.948   4.867   2.845
 4059TIP3    H112183   5.998   4.851   2.765
 4059TIP3    H212184   5.936   4.961   2.848
 4060TIP3   OH212185   0.133   2.261   3.033
 4060TIP3    H112186   0.143   2.352   3.005
 4060TIP3    H212187   0.117   2.267   3.127
 4061TIP3   OH212188   5.750   1.646   0.072
 4061TIP3    H112189   5.654   1.648   0.075
 4061TIP3    H212190   5.771   1.566   0.024
 4062TIP3   OH212191   3.720   1.806   2.331
 4062TIP3    H112192   3.655   1.847   2.273
 4062TIP3    H212193   3.729   1.868   2.404
 4063TIP3   OH212194   0.059   0.352   4.482
 4063TIP3    H112195   0.038   0.285   4.547
 4063TIP3    H212196   0.022   0.433   4.519
 4064TIP3   OH212197   4.755   0.801   2.803
 4064TIP3    H112198   4.704   0.778   2.880
 4064TIP3    H212199   4.738   0.894   2.790
 4065TIP3   OH212200   4.562   4.590   2.975
 4065TIP3    H112201   4.549   4.591   3.070
 4065TIP3    H212202   4.513   4.512   2.946
 4066TIP3   OH212203   6.021   4.232   5.115
 4066TIP3    H112204   5.941   4.268   5.077
 4066TIP3    H212205   6.033   4.283   5.195
 4067TIP3   OH212206   2.730   4.330   3.384
 4067TIP3    H112207   2.784   4.384   3.442
 4067TIP3    H212208   2.664   4.292   3.442
 4068TIP3   OH212209   4.688   5.698   1.310
 4068TIP3    H112210   4.718   5.665   1.225
 4068TIP3    H212211   4.764   5.692   1.367
 4069TIP3   OH212212   3.009   1.656   1.817
 4069TIP3    H112213   2.961   1.653   1.734
 4069TIP3    H212214   3.080   1.593   1.806
 4070TIP3   OH212215   4.058   3.340   4.872
 4070TIP3    H112216   4.117   3.377   4.938
 4070TIP3    H212217   4.112   3.279   4.822
 4071TIP3   OH212218   5.398   4.311   4.206
 4071TIP3    H112219   5.361   4.389   4.165
 4071TIP3    H212220   5.347   4.238   4.169
 4072TIP3   OH212221   2.259   4.006   1.191
 4072TIP3    H112222   2.167   4.016   1.216
 4072TIP3    H212223   2.256   3.967   1.103
 4073TIP3   OH212224   6.262   1.007   0.530
 4073TIP3    H112225   6.269   1.096   0.564
 4073TIP3    H212226   6.326   1.004   0.459
 4074TIP3   OH212227   0.123   2.942   0.368
 4074TIP3    H112228   0.185   2.968   0.300
 4074TIP3    H212229   0.164   2.968   0.450
 4075TIP3   OH212230   3.014   0.075   1.064
 4075TIP3    H112231   3.063   0.128   1.126
 4075TIP3    H212232   2.941   0.131   1.037
 4076TIP3   OH212233   6.088   1.907   3.365
 4076TIP3    H112234   6.147   1.943   3.432
 4076TIP3    H212235   6.138   1.836   3.325
 4077TIP3   OH212236   0.843   4.799   3.556
 4077TIP3    H112237   0.813   4.741   3.486
 4077TIP3    H212238   0.813   4.756   3.637
 4078TIP3   OH212239   5.698   1.212   0.503
 4078TIP3    H112240   5.681   1.253   0.588
 4078TIP3    H212241   5.642   1.136   0.501
 4079TIP3   OH212242   4.561   0.935   4.197
 4079TIP3    H112243   4.623   0.916   4.267
 4079TIP3    H212244   4.556   0.854   4.146
 4080TIP3   OH212245   1.891  -0.027   2.084
 4080TIP3    H112246   1.819  -0.066   2.033
 4080TIP3    H212247   1.849   0.043   2.134
 4081TIP3   OH212248   1.021   4.879   2.412
 4081TIP3    H112249   1.089   4.862   2.477
 4081TIP3    H212250   1.068   4.898   2.331
 4082TIP3   OH212251   4.816   3.955   3.419
 4082TIP3    H112252   4.908   3.935   3.399
 4082TIP3    H212253   4.812   4.051   3.421
 4083TIP3   OH212254   0.862   4.845   2.743
 4083TIP3    H112255   0.905   4.904   2.804
 4083TIP3    H212256   0.794   4.898   2.702
 4084TIP3   OH212257   5.451   3.790   0.271
 4084TIP3    H112258   5.433   3.731   0.345
 4084TIP3    H212259   5.383   3.770   0.207
 4085TIP3   OH212260   0.337   4.444   0.457
 4085TIP3    H112261   0.372   4.527   0.426
 4085TIP3    H212262   0.341   4.387   0.380
 4086TIP3   OH212263   2.155   3.364   3.835
 4086TIP3    H112264   2.172   3.310   3.912
 4086TIP3    H212265   2.206   3.443   3.849
 4087TIP3   OH212266   4.412   2.397   4.378
 4087TIP3    H112267   4.414   2.375   4.471
 4087TIP3    H212268   4.322   2.425   4.362
 4088TIP3   OH212269   3.724   3.618   4.247
 4088TIP3    H112270   3.730   3.633   4.342
 4088TIP3    H212271   3.800   3.565   4.226
 4089TIP3   OH212272   5.558   0.654   2.066
 4089TIP3    H112273   5.472   0.637   2.028
 4089TIP3    H212274   5.545   0.732   2.121
 4090TIP3   OH212275   2.970   0.789   2.037
 4090TIP3    H112276   2.909   0.716   2.029
 4090TIP3    H212277   3.040   0.755   2.093
 4091TIP3   OH212278   6.245   5.262   0.408
 4091TIP3    H112279   6.215   5.233   0.494
 4091TIP3    H212280   6.326   5.310   0.426
 4092TIP3   OH212281   0.802   3.478   1.337
 4092TIP3    H112282   0.853   3.420   1.280
 4092TIP3    H212283   0.825   3.452   1.426
 4093TIP3   OH212284   2.919   5.075   0.544
 4093TIP3    H112285   2.840   5.086   0.596
 4093TIP3    H212286   2.899   5.118   0.461
 4094TIP3   OH212287   2.648   0.021   1.180
 4094TIP3    H112288   2.555   0.027   1.161
 4094TIP3    H212289   2.689   0.084   1.121
 4095TIP3   OH212290   4.936   0.895   4.137
 4095TIP3    H112291   4.892   0.832   4.194
 4095TIP3    H212292   5.012   0.924   4.187
 4096TIP3   OH212293   5.717   3.787   0.987
 4096TIP3    H112294   5.786   3.815   0.927
 4096TIP3    H212295   5.759   3.788   1.073
 4097TIP3   OH212296   6.005   2.277   1.411
 4097TIP3    H112297   5.952   2.342   1.363
 4097TIP3    H212298   5.986   2.194   1.367
 4098TIP3   OH212299   4.452   5.094   4.361
 4098TIP3    H112300   4.361   5.081   4.334
 4098TIP3    H212301   4.500   5.104   4.279
 4099TIP3   OH212302   1.524   0.642   4.480
 4099TIP3    H112303   1.614   0.629   4.511
 4099TIP3    H212304   1.501   0.730   4.510
 4100TIP3   OH212305   4.360   4.175   3.158
 4100TIP3    H112306   4.406   4.118   3.096
 4100TIP3    H212307   4.334   4.116   3.229
 4101TIP3   OH212308   5.568   3.259   2.412
 4101TIP3    H112309   5.647   3.272   2.360
 4101TIP3    H212310   5.595   3.197   2.481
 4102TIP3   OH212311   4.231   1.123   0.409
 4102TIP3    H112312   4.148   1.170   0.404
 4102TIP3    H212313   4.293   1.189   0.441
 4103TIP3   OH212314   2.835   4.976   4.390
 4103TIP3    H112315   2.840   4.887   4.355
 4103TIP3    H212316   2.744   4.985   4.419
 4104TIP3   OH212317   3.522   3.510   2.165
 4104TIP3    H112318   3.434   3.487   2.197
 4104TIP3    H212319   3.576   3.435   2.190
 4105TIP3   OH212320   2.550   4.017   0.158
 4105TIP3    H112321   2.609   3.942   0.153
 4105TIP3    H212322   2.543   4.048   0.067
 4106TIP3   OH212323   1.503   4.736   1.834
 4106TIP3    H112324   1.426   4.690   1.802
 4106TIP3    H212325   1.547   4.767   1.755
 4107TIP3   OH212326   5.001   2.870   5.122
 4107TIP3    H112327   4.946   2.944   5.150
 4107TIP3    H212328   5.037   2.834   5.203
 4108TIP3   OH212329   6.123   0.414   1.886
 4108TIP3    H112330   6.079   0.499   1.888
 4108TIP3    H212331   6.156   0.401   1.975
 4109TIP3   OH212332   2.368   2.097   2.019
 4109TIP3    H112333   2.462   2.079   2.024
 4109TIP3    H212334   2.328   2.013   1.998
 4110TIP3   OH212335   0.136   3.623   1.633
 4110TIP3    H112336   0.207   3.593   1.576
 4110TIP3    H212337   0.079   3.673   1.575
 4111TIP3   OH212338   2.734   2.791   2.387
 4111TIP3    H112339   2.790   2.828   2.455
 4111TIP3    H212340   2.761   2.699   2.381
 4112TIP3   OH212341   0.671   5.450   4.266
 4112TIP3    H112342   0.613   5.474   4.338
 4112TIP3    H212343   0.653   5.516   4.198
 4113TIP3   OH212344   2.600   1.364   4.112
 4113TIP3    H112345   2.631   1.341   4.200
 4113TIP3    H212346   2.680   1.373   4.060
 4114TIP3   OH212347   5.607   0.569   3.084
 4114TIP3    H112348   5.533   0.622   3.114
 4114TIP3    H212349   5.683   0.625   3.098
 4115TIP3   OH212350   4.905   0.896   1.532
 4115TIP3    H112351   4.837   0.963   1.539
 4115TIP3    H212352   4.912   0.860   1.620
 4116TIP3   OH212353   1.874   5.484   2.712
 4116TIP3    H112354   1.834   5.545   2.650
 4116TIP3    H212355   1.921   5.421   2.658
 4117TIP3   OH212356   1.180   5.937   1.576
 4117TIP3    H112357   1.224   5.857   1.604
 4117TIP3    H212358   1.178   5.931   1.480
 4118TIP3   OH212359   0.375   4.061   3.029
 4118TIP3    H112360   0.333   3.979   3.056
 4118TIP3    H212361   0.349   4.071   2.937
 4119TIP3   OH212362   0.224   3.986   2.428
 4119TIP3    H112363   0.295   4.034   2.384
 4119TIP3    H212364   0.243   3.997   2.521
 4120TIP3   OH212365   1.602   3.915   2.955
 4120TIP3    H112366   1.673   3.912   2.891
 4120TIP3    H212367   1.622   3.844   3.017
 4121TIP3   OH212368   2.703   3.188   2.796
 4121TIP3    H112369   2.613   3.202   2.768
 4121TIP3    H212370   2.750   3.266   2.767
 4122TIP3   OH212371   3.170   3.517   3.257
 4122TIP3    H112372   3.247   3.472   3.291
 4122TIP3    H212373   3.109   3.447   3.232
 4123TIP3   OH212374   0.075   1.081   4.787
 4123TIP3    H112375   0.018   1.026   4.734
 4123TIP3    H212376   0.119   1.019   4.847
 4124TIP3   OH212377   5.866   3.814   2.559
 4124TIP3    H112378   5.882   3.890   2.503
 4124TIP3    H212379   5.792   3.840   2.615
 4125TIP3   OH212380   3.140   0.788   0.540
 4125TIP3    H112381   3.174   0.778   0.451
 4125TIP3    H212382   3.184   0.719   0.590
 4126TIP3   OH212383   4.789  -0.011   1.313
 4126TIP3    H112384   4.697   0.014   1.312
 4126TIP3    H212385   4.798  -0.065   1.392
 4127TIP3   OH212386   0.293   5.590   0.576
 4127TIP3    H112387   0.386   5.607   0.561
 4127TIP3    H212388   0.263   5.548   0.496
 4128TIP3   OH212389   3.328   3.685   3.113
 4128TIP3    H112390   3.259   3.635   3.157
 4128TIP3    H212391   3.410   3.644   3.143
 4129TIP3   OH212392   3.425   5.214   0.557
 4129TIP3    H112393   3.497   5.171   0.510
 4129TIP3    H212394   3.460   5.300   0.580
 4130TIP3   OH212395   4.573   3.388   2.421
 4130TIP3    H112396   4.625   3.463   2.390
 4130TIP3    H212397   4.485   3.405   2.388
 4131TIP3   OH212398   3.020   0.566   1.776
 4131TIP3    H112399   2.985   0.637   1.722
 4131TIP3    H212400   3.105   0.599   1.807
 4132TIP3   OH212401   4.123   3.071   1.456
 4132TIP3    H112402   4.139   3.136   1.387
 4132TIP3    H212403   4.185   3.093   1.525
 4133TIP3   OH212404   4.478   4.337   1.991
 4133TIP3    H112405   4.409   4.302   2.047
 4133TIP3    H212406   4.434   4.402   1.936
 4134TIP3   OH212407   2.886   4.374   2.869
 4134TIP3    H112408   2.881   4.278   2.864
 4134TIP3    H212409   2.795   4.403   2.864
 4135TIP3   OH212410   6.336   0.174   4.689
 4135TIP3    H112411   6.288   0.236   4.744
 4135TIP3    H212412   6.334   0.092   4.737
 4136TIP3   OH212413   6.284   1.424   3.516
 4136TIP3    H112414   6.216   1.392   3.457
 4136TIP3    H212415   6.366   1.389   3.479
 4137TIP3   OH212416   3.084   0.405   4.185
 4137TIP3    H112417   3.009   0.437   4.236
 4137TIP3    H212418   3.045   0.366   4.107
 4138TIP3   OH212419   3.355   3.015   1.093
 4138TIP3    H112420   3.414   2.941   1.082
 4138TIP3    H212421   3.410   3.092   1.077
 4139TIP3   OH212422   4.858   1.398   3.469
 4139TIP3    H112423   4.913   1.345   3.527
 4139TIP3    H212424   4.857   1.485   3.509
 4140TIP3   OH212425   4.084   0.603   0.620
 4140TIP3    H112426   4.169   0.639   0.595
 4140TIP3    H212427   4.054   0.658   0.693
 4141TIP3   OH212428   2.923   5.227   2.895
 4141TIP3    H112429   2.979   5.219   2.818
 4141TIP3    H212430   2.834   5.219   2.861
 4142TIP3   OH212431   5.081   3.258   3.893
 4142TIP3    H112432   4.994   3.223   3.913
 4142TIP3    H212433   5.129   3.252   3.976
 4143TIP3   OH212434   5.433   2.691   3.761
 4143TIP3    H112435   5.503   2.749   3.731
 4143TIP3    H212436   5.360   2.749   3.779
 4144TIP3   OH212437   2.551   3.351   0.538
 4144TIP3    H112438   2.515   3.328   0.452
 4144TIP3    H212439   2.612   3.281   0.558
 4145TIP3   OH212440   0.985   4.736   4.889
 4145TIP3    H112441   0.921   4.806   4.875
 4145TIP3    H212442   0.932   4.660   4.914
 4146TIP3   OH212443   3.764   4.821   3.416
 4146TIP3    H112444   3.818   4.767   3.358
 4146TIP3    H212445   3.766   4.908   3.376
 4147TIP3   OH212446   1.290   3.837   4.819
 4147TIP3    H112447   1.336   3.773   4.765
 4147TIP3    H212448   1.320   3.818   4.908
 4148TIP3   OH212449   3.266   5.408   4.038
 4148TIP3    H112450   3.312   5.437   3.959
 4148TIP3    H212451   3.333   5.405   4.106
 4149TIP3   OH212452   5.449   1.473   4.365
 4149TIP3    H112453   5.381   1.442   4.305
 4149TIP3    H212454   5.463   1.565   4.340
 4150TIP3   OH212455   4.918   0.172   2.454
 4150TIP3    H112456   4.855   0.129   2.395
 4150TIP3    H212457   4.962   0.236   2.398
 4151TIP3   OH212458   3.236   0.646   0.313
 4151TIP3    H112459   3.163   0.662   0.253
 4151TIP3    H212460   3.266   0.558   0.293
 4152TIP3   OH212461   3.530   2.994   3.487
 4152TIP3    H112462   3.490   3.072   3.525
 4152TIP3    H212463   3.622   2.999   3.513
 4153TIP3   OH212464   0.934   4.590   1.314
 4153TIP3    H112465   1.028   4.576   1.320
 4153TIP3    H212466   0.922   4.634   1.230
 4154TIP3   OH212467   2.317   1.125   2.608
 4154TIP3    H112468   2.232   1.162   2.635
 4154TIP3    H212469   2.330   1.159   2.519
 4155TIP3   OH212470   3.006   0.063   3.596
 4155TIP3    H112471   2.993   0.023   3.682
 4155TIP3    H212472   3.091   0.028   3.566
 4156TIP3   OH212473   0.311   2.614   2.628
 4156TIP3    H112474   0.236   2.574   2.673
 4156TIP3    H212475   0.348   2.675   2.692
 4157TIP3   OH212476   1.689   1.600   2.551
 4157TIP3    H112477   1.753   1.622   2.618
 4157TIP3    H212478   1.742   1.573   2.475
 4158TIP3   OH212479   3.855   2.004   0.644
 4158TIP3    H112480   3.766   2.010   0.678
 4158TIP3    H212481   3.909   1.982   0.720
 4159TIP3   OH212482   2.398   4.863   1.761
 4159TIP3    H112483   2.468   4.828   1.705
 4159TIP3    H212484   2.429   4.950   1.786
 4160TIP3   OH212485   1.268   2.461   1.777
 4160TIP3    H112486   1.254   2.384   1.833
 4160TIP3    H212487   1.360   2.456   1.752
 4161TIP3   OH212488   2.011   3.935   3.312
 4161TIP3    H112489   1.929   3.982   3.299
 4161TIP3    H212490   1.994   3.876   3.385
 4162TIP3   OH212491   3.010   4.767   4.825
 4162TIP3    H112492   2.953   4.751   4.900
 4162TIP3    H212493   2.959   4.825   4.769
 4163TIP3   OH212494   0.927   2.990   0.460
 4163TIP3    H112495   1.022   2.981   0.467
 4163TIP3    H212496   0.898   3.013   0.549
 4164TIP3   OH212497   2.197   3.365   0.174
 4164TIP3    H112498   2.235   3.414   0.246
 4164TIP3    H212499   2.271   3.328   0.127
 4165TIP3   OH212500   4.298   5.047   0.000
 4165TIP3    H112501   4.333   5.069   0.086
 4165TIP3    H212502   4.301   5.129  -0.049
 4166TIP3   OH212503   4.798   2.345   4.087
 4166TIP3    H112504   4.759   2.408   4.147
 4166TIP3    H212505   4.744   2.350   4.008
 4167TIP3   OH212506   1.781   2.305   4.547
 4167TIP3    H112507   1.821   2.384   4.584
 4167TIP3    H212508   1.703   2.291   4.602
 4168TIP3   OH212509   2.521   3.794   3.159
 4168TIP3    H112510   2.426   3.809   3.162
 4168TIP3    H212511   2.560   3.881   3.162
 4169TIP3   OH212512   5.974   3.139   4.075
 4169TIP3    H112513   5.965   3.049   4.045
 4169TIP3    H212514   6.023   3.132   4.157
 4170TIP3   OH212515   2.156   5.425   0.543
 4170TIP3    H112516   2.075   5.473   0.557
 4170TIP3    H212517   2.130   5.332   0.544
 4171TIP3   OH212518   1.324   2.275   4.031
 4171TIP3    H112519   1.315   2.203   3.968
 4171TIP3    H212520   1.391   2.332   3.993
 4172TIP3   OH212521   5.829   1.583   3.806
 4172TIP3    H112522   5.784   1.653   3.760
 4172TIP3    H212523   5.880   1.626   3.874
 4173TIP3   OH212524   3.521   2.713   1.576
 4173TIP3    H112525   3.594   2.716   1.513
 4173TIP3    H212526   3.458   2.777   1.542
 4174TIP3   OH212527   3.687   2.626   2.315
 4174TIP3    H112528   3.697   2.657   2.225
 4174TIP3    H212529   3.601   2.658   2.342
 4175TIP3   OH212530   1.766   1.797   4.562
 4175TIP3    H112531   1.831   1.733   4.531
 4175TIP3    H212532   1.791   1.815   4.652
 4176TIP3   OH212533   2.306   4.246  -0.023
 4176TIP3    H112534   2.349   4.248   0.062
 4176TIP3    H212535   2.279   4.155  -0.034
 4177TIP3   OH212536   4.957   2.699   0.704
 4177TIP3    H112537   4.904   2.649   0.642
 4177TIP3    H212538   4.992   2.772   0.653
 4178TIP3   OH212539   0.463   0.656   0.773
 4178TIP3    H112540   0.552   0.661   0.739
 4178TIP3    H212541   0.407   0.682   0.700
 4179TIP3   OH212542   5.046   0.048   1.236
 4179TIP3    H112543   4.954   0.029   1.250
 4179TIP3    H212544   5.047   0.133   1.192
 4180TIP3   OH212545   0.229   5.968   5.065
 4180TIP3    H112546   0.311   5.970   5.016
 4180TIP3    H212547   0.171   5.914   5.012
 4181TIP3   OH212548   2.835   4.807   1.188
 4181TIP3    H112549   2.900   4.806   1.118
 4181TIP3    H212550   2.825   4.715   1.212
 4182TIP3   OH212551   0.624   4.056   4.081
 4182TIP3    H112552   0.633   4.034   4.174
 4182TIP3    H212553   0.556   4.124   4.080
 4183TIP3   OH212554   4.014   2.725   2.296
 4183TIP3    H112555   3.929   2.726   2.340
 4183TIP3    H212556   4.073   2.767   2.359
 4184TIP3   OH212557   2.705   3.998   0.980
 4184TIP3    H112558   2.756   4.054   0.922
 4184TIP3    H212559   2.614   4.019   0.959
 4185TIP3   OH212560   0.611   4.124   0.982
 4185TIP3    H112561   0.517   4.110   0.994
 4185TIP3    H212562   0.644   4.040   0.951
 4186TIP3   OH212563   1.446   3.450   0.454
 4186TIP3    H112564   1.466   3.361   0.425
 4186TIP3    H212565   1.531   3.486   0.483
 4187TIP3   OH212566   1.390   3.131   2.724
 4187TIP3    H112567   1.314   3.189   2.717
 4187TIP3    H212568   1.356   3.044   2.703
 4188TIP3   OH212569   3.717   0.367   0.947
 4188TIP3    H112570   3.700   0.427   0.875
 4188TIP3    H212571   3.782   0.306   0.912
 4189TIP3   OH212572   3.556   1.539   4.150
 4189TIP3    H112573   3.569   1.482   4.226
 4189TIP3    H212574   3.570   1.481   4.075
 4190TIP3   OH212575   1.316   1.272   1.197
 4190TIP3    H112576   1.404   1.263   1.233
 4190TIP3    H212577   1.274   1.187   1.214
 4191TIP3   OH212578   3.099   5.968   3.792
 4191TIP3    H112579   3.117   5.971   3.886
 4191TIP3    H212580   3.175   6.009   3.751
 4192TIP3   OH212581   1.314   0.978   0.122
 4192TIP3    H112582   1.392   1.030   0.140
 4192TIP3    H212583   1.346   0.888   0.115
 4193TIP3   OH212584   5.388   3.337   1.574
 4193TIP3    H112585   5.480   3.357   1.593
 4193TIP3    H212586   5.388   3.243   1.555
 4194TIP3   OH212587   6.279   4.152   1.329
 4194TIP3    H112588   6.270   4.217   1.259
 4194TIP3    H212589   6.300   4.204   1.407
 4195TIP3   OH212590   3.611   3.535   4.765
 4195TIP3    H112591   3.683   3.510   4.823
 4195TIP3    H212592   3.543   3.568   4.824
 4196TIP3   OH212593   3.977   1.962   4.937
 4196TIP3    H112594   3.945   1.965   5.027
 4196TIP3    H212595   4.055   1.908   4.941
 4197TIP3   OH212596   5.957   2.847   4.120
 4197TIP3    H112597   6.016   2.836   4.194
 4197TIP3    H212598   5.957   2.762   4.077
 4198TIP3   OH212599   2.478   5.769   3.517
 4198TIP3    H112600   2.522   5.762   3.602
 4198TIP3    H212601   2.437   5.683   3.505
 4199TIP3   OH212602   3.623   5.247   5.039
 4199TIP3    H112603   3.704   5.215   5.077
 4199TIP3    H212604   3.651   5.306   4.969
 4200TIP3   OH212605   1.890   4.518   4.896
 4200TIP3    H112606   1.972   4.471   4.883
 4200TIP3    H212607   1.858   4.536   4.808
 4201TIP3   OH212608   3.017   5.459   3.817
 4201TIP3    H112609   3.021   5.444   3.911
 4201TIP3    H212610   2.986   5.377   3.780
 4202TIP3   OH212611   4.309   0.269   3.673
 4202TIP3    H112612   4.402   0.245   3.673
 4202TIP3    H212613   4.302   0.336   3.741
 4203TIP3   OH212614   5.264   3.283   4.828
 4203TIP3    H112615   5.252   3.369   4.788
 4203TIP3    H212616   5.186   3.270   4.882
 4204TIP3   OH212617   4.027   1.193   1.851
 4204TIP3    H112618   3.967   1.121   1.837
 4204TIP3    H212619   4.070   1.173   1.934
 4205TIP3   OH212620   3.635   1.998   4.377
 4205TIP3    H112621   3.729   1.985   4.365
 4205TIP3    H212622   3.595   1.915   4.350
 4206TIP3   OH212623   0.537   2.968   0.210
 4206TIP3    H112624   0.526   2.927   0.296
 4206TIP3    H212625   0.527   2.896   0.148
 4207TIP3   OH212626   5.557   0.598   0.404
 4207TIP3    H112627   5.503   0.657   0.352
 4207TIP3    H212628   5.647   0.615   0.374
 4208TIP3   OH212629   4.203   0.598   0.263
 4208TIP3    H112630   4.142   0.662   0.227
 4208TIP3    H212631   4.149   0.521   0.281
 4209TIP3   OH212632   0.723   5.422   2.203
 4209TIP3    H112633   0.760   5.446   2.288
 4209TIP3    H212634   0.705   5.505   2.160
 4210TIP3   OH212635   3.661   5.064   4.792
 4210TIP3    H112636   3.602   5.080   4.866
 4210TIP3    H212637   3.632   5.126   4.725
 4211TIP3   OH212638   0.996   5.325   3.238
 4211TIP3    H112639   1.032   5.236   3.243
 4211TIP3    H212640   0.929   5.327   3.306
 4212TIP3   OH212641   3.235   0.855   3.631
 4212TIP3    H112642   3.195   0.940   3.646
 4212TIP3    H212643   3.263   0.825   3.717
 4213TIP3   OH212644   0.609   0.380   4.459
 4213TIP3    H112645   0.592   0.294   4.419
 4213TIP3    H212646   0.669   0.423   4.397
 4214TIP3   OH212647   2.243   5.826   4.595
 4214TIP3    H112648   2.230   5.919   4.613
 4214TIP3    H212649   2.229   5.784   4.680
 4215TIP3   OH212650   1.198   3.706   3.675
 4215TIP3    H112651   1.126   3.659   3.718
 4215TIP3    H212652   1.168   3.797   3.673
 4216TIP3   OH212653   4.625   4.199   1.634
 4216TIP3    H112654   4.630   4.294   1.622
 4216TIP3    H212655   4.617   4.187   1.728
 4217TIP3   OH212656   5.104   1.112   0.894
 4217TIP3    H112657   5.133   1.102   0.984
 4217TIP3    H212658   5.169   1.064   0.842
 4218TIP3   OH212659   1.039   1.469   1.631
 4218TIP3    H112660   1.004   1.424   1.708
 4218TIP3    H212661   1.097   1.405   1.590
 4219TIP3   OH212662   2.477   3.267   4.752
 4219TIP3    H112663   2.409   3.317   4.798
 4219TIP3    H212664   2.523   3.221   4.822
 4220TIP3   OH212665   0.357   0.700   3.127
 4220TIP3    H112666   0.364   0.644   3.205
 4220TIP3    H212667   0.264   0.699   3.105
 4221TIP3   OH212668   3.255   2.770   1.876
 4221TIP3    H112669   3.182   2.770   1.815
 4221TIP3    H212670   3.314   2.703   1.843
 4222TIP3   OH212671   0.458   1.303   2.925
 4222TIP3    H112672   0.552   1.287   2.926
 4222TIP3    H212673   0.424   1.250   2.997
 4223TIP3   OH212674   1.709   2.395   1.939
 4223TIP3    H112675   1.783   2.381   1.880
 4223TIP3    H212676   1.633   2.371   1.888
 4224TIP3   OH212677   5.615   5.652   0.650
 4224TIP3    H112678   5.590   5.696   0.731
 4224TIP3    H212679   5.696   5.696   0.623
 4225TIP3   OH212680   1.250   4.339   2.045
 4225TIP3    H112681   1.226   4.270   1.983
 4225TIP3    H212682   1.260   4.418   1.991
 4226TIP3   OH212683   6.122   2.914   1.965
 4226TIP3    H112684   6.161   2.974   2.028
 4226TIP3    H212685   6.197   2.867   1.927
 4227TIP3   OH212686   3.363   1.803   3.994
 4227TIP3    H112687   3.446   1.776   3.955
 4227TIP3    H212688   3.386   1.877   4.051
 4228TIP3   OH212689   1.043   5.255   1.891
 4228TIP3    H112690   1.082   5.196   1.827
 4228TIP3    H212691   0.971   5.298   1.844
 4229TIP3   OH212692   1.138   1.117   4.573
 4229TIP3    H112693   1.202   1.187   4.561
 4229TIP3    H212694   1.075   1.128   4.502
 4230TIP3   OH212695   1.747   1.507   2.313
 4230TIP3    H112696   1.752   1.507   2.217
 4230TIP3    H212697   1.817   1.448   2.341
 4231TIP3   OH212698   6.187   5.411   4.114
 4231TIP3    H112699   6.116   5.475   4.115
 4231TIP3    H212700   6.167   5.351   4.186
 4232TIP3   OH212701   4.953   4.908   4.307
 4232TIP3    H112702   4.884   4.898   4.372
 4232TIP3    H212703   4.907   4.935   4.227
 4233TIP3   OH212704   5.674   3.408   0.241
 4233TIP3    H112705   5.612   3.443   0.305
 4233TIP3    H212706   5.718   3.485   0.206
 4234TIP3   OH212707   6.194   1.985   1.193
 4234TIP3    H112708   6.173   1.892   1.190
 4234TIP3    H212709   6.279   1.992   1.150
 4235TIP3   OH212710   0.486   1.978   4.569
 4235TIP3    H112711   0.513   1.973   4.477
 4235TIP3    H212712   0.529   1.903   4.611
 4236TIP3   OH212713   2.247   1.954   4.594
 4236TIP3    H112714   2.265   1.995   4.679
 4236TIP3    H212715   2.327   1.906   4.573
 4237TIP3   OH212716   4.439   1.394   3.029
 4237TIP3    H112717   4.474   1.341   3.101
 4237TIP3    H212718   4.516   1.415   2.976
 4238TIP3   OH212719   2.922   2.897   2.575
 4238TIP3    H112720   2.958   2.985   2.567
 4238TIP3    H212721   2.997   2.842   2.594
 4239TIP3   OH212722   4.361   1.542   3.262
 4239TIP3    H112723   4.453   1.552   3.286
 4239TIP3    H212724   4.363   1.502   3.175
 4240TIP3   OH212725   0.130   5.005   2.492
 4240TIP3    H112726   0.178   4.932   2.530
 4240TIP3    H212727   0.069   4.965   2.430
 4241TIP3   OH212728   1.146   1.698   2.068
 4241TIP3    H112729   1.174   1.759   2.137
 4241TIP3    H212730   1.062   1.733   2.039
 4242TIP3   OH212731   2.163   4.490   4.673
 4242TIP3    H112732   2.205   4.412   4.636
 4242TIP3    H212733   2.070   4.479   4.653
 4243TIP3   OH212734   0.196   0.658   1.614
 4243TIP3    H112735   0.157   0.682   1.531
 4243TIP3    H212736   0.144   0.583   1.645
 4244TIP3   OH212737   5.794   5.936   2.477
 4244TIP3    H112738   5.837   5.914   2.394
 4244TIP3    H212739   5.706   5.962   2.452
 4245TIP3   OH212740   3.421   0.969   2.739
 4245TIP3    H112741   3.413   1.051   2.787
 4245TIP3    H212742   3.343   0.966   2.684
 4246TIP3   OH212743   6.283   0.918   0.096
 4246TIP3    H112744   6.290   0.823   0.087
 4246TIP3    H212745   6.228   0.931   0.173
 4247TIP3   OH212746   3.405   0.575   3.208
 4247TIP3    H112747   3.483   0.543   3.252
 4247TIP3    H212748   3.372   0.645   3.265
 4248TIP3   OH212749   0.940   0.515   0.882
 4248TIP3    H112750   0.925   0.456   0.808
 4248TIP3    H212751   0.965   0.457   0.954
 4249TIP3   OH212752   5.024   5.969   2.916
 4249TIP3    H112753   4.963   5.909   2.873
 4249TIP3    H212754   5.110   5.929   2.904
 4250TIP3   OH212755   0.334   4.269   0.219
 4250TIP3    H112756   0.416   4.223   0.237
 4250TIP3    H212757   0.285   4.209   0.163
 4251TIP3   OH212758   0.669   4.534   1.312
 4251TIP3    H112759   0.754   4.577   1.318
 4251TIP3    H212760   0.639   4.552   1.222
 4252TIP3   OH212761   2.025   3.329   2.941
 4252TIP3    H112762   1.936   3.295   2.930
 4252TIP3    H212763   2.014   3.424   2.941
 4253TIP3   OH212764   1.807   2.250   2.371
 4253TIP3    H112765   1.749   2.303   2.316
 4253TIP3    H212766   1.761   2.244   2.455
 4254TIP3   OH212767   0.650   5.591   3.757
 4254TIP3    H112768   0.743   5.612   3.761
 4254TIP3    H212769   0.647   5.501   3.723
 4255TIP3   OH212770   1.416   2.844   0.244
 4255TIP3    H112771   1.497   2.893   0.255
 4255TIP3    H212772   1.444   2.758   0.213
 4256TIP3   OH212773   1.549   4.173   4.556
 4256TIP3    H112774   1.470   4.144   4.510
 4256TIP3    H212775   1.617   4.111   4.529
 4257TIP3   OH212776   3.236   1.434   3.833
 4257TIP3    H112777   3.272   1.435   3.922
 4257TIP3    H212778   3.312   1.437   3.776
 4258TIP3   OH212779   3.983   4.246   2.482
 4258TIP3    H112780   4.008   4.190   2.408
 4258TIP3    H212781   3.906   4.293   2.452
 4259TIP3   OH212782   4.478   1.822   2.305
 4259TIP3    H112783   4.461   1.915   2.322
 4259TIP3    H212784   4.396   1.790   2.267
 4260TIP3   OH212785   1.055   3.254   3.363
 4260TIP3    H112786   0.986   3.222   3.421
 4260TIP3    H212787   1.079   3.178   3.310
 4261TIP3   OH212788   5.540   3.795   4.305
 4261TIP3    H112789   5.497   3.853   4.242
 4261TIP3    H212790   5.493   3.809   4.388
 4262TIP3   OH212791   1.013   0.617   1.333
 4262TIP3    H112792   0.954   0.685   1.300
 4262TIP3    H212793   0.955   0.543   1.350
 4263TIP3   OH212794   4.762   3.735   2.538
 4263TIP3    H112795   4.829   3.676   2.574
 4263TIP3    H212796   4.758   3.807   2.601
 4264TIP3   OH212797   6.264   5.302   1.629
 4264TIP3    H112798   6.311   5.385   1.641
 4264TIP3    H212799   6.257   5.293   1.534
 4265TIP3   OH212800   0.498   4.328   2.780
 4265TIP3    H112801   0.589   4.300   2.786
 4265TIP3    H212802   0.495   4.410   2.829
 4266TIP3   OH212803   0.943   3.485   2.401
 4266TIP3    H112804   0.896   3.560   2.364
 4266TIP3    H212805   0.970   3.513   2.488
 4267TIP3   OH212806   5.673   4.145   2.588
 4267TIP3    H112807   5.633   4.125   2.503
 4267TIP3    H212808   5.651   4.070   2.643
 4268TIP3   OH212809   5.636   4.945   4.451
 4268TIP3    H112810   5.714   4.915   4.498
 4268TIP3    H212811   5.622   5.034   4.483
 4269TIP3   OH212812   1.983   3.052   3.949
 4269TIP3    H112813   1.994   3.065   3.855
 4269TIP3    H212814   1.909   2.992   3.957
 4270TIP3   OH212815   4.882   0.820   0.699
 4270TIP3    H112816   4.915   0.773   0.775
 4270TIP3    H212817   4.791   0.791   0.691
 4271TIP3   OH212818   2.146   2.446   2.687
 4271TIP3    H112819   2.130   2.406   2.602
 4271TIP3    H212820   2.199   2.381   2.734
 4272TIP3   OH212821   4.141   5.126   0.606
 4272TIP3    H112822   4.153   5.195   0.541
 4272TIP3    H212823   4.167   5.045   0.561
 4273TIP3   OH212824   0.646   3.826   4.265
 4273TIP3    H112825   0.559   3.842   4.300
 4273TIP3    H212826   0.637   3.747   4.212
 4274TIP3   OH212827   1.718   3.852   0.906
 4274TIP3    H112828   1.750   3.839   0.816
 4274TIP3    H212829   1.774   3.921   0.941
 4275TIP3   OH212830   2.187   0.862   2.617
 4275TIP3    H112831   2.102   0.881   2.657
 4275TIP3    H212832   2.232   0.946   2.616
 4276TIP3   OH212833   2.962   5.226   4.372
 4276TIP3    H112834   2.912   5.145   4.374
 4276TIP3    H212835   2.917   5.284   4.433
 4277TIP3   OH212836   4.585   2.739   4.503
 4277TIP3    H112837   4.501   2.730   4.547
 4277TIP3    H212838   4.601   2.833   4.499
 4278TIP3   OH212839   1.757   4.874   3.321
 4278TIP3    H112840   1.696   4.948   3.310
 4278TIP3    H212841   1.782   4.851   3.232
 4279TIP3   OH212842   5.865   2.282   4.795
 4279TIP3    H112843   5.841   2.339   4.723
 4279TIP3    H212844   5.944   2.321   4.833
 4280TIP3   OH212845   5.207   1.027   2.235
 4280TIP3    H112846   5.197   1.075   2.316
 4280TIP3    H212847   5.118   1.013   2.204
 4281TIP3   OH212848   1.589   0.620   2.776
 4281TIP3    H112849   1.505   0.638   2.734
 4281TIP3    H212850   1.589   0.676   2.854
 4282TIP3   OH212851   2.449   2.489   2.743
 4282TIP3    H112852   2.425   2.412   2.795
 4282TIP3    H212853   2.453   2.457   2.653
 4283TIP3   OH212854   4.372   2.937   5.187
 4283TIP3    H112855   4.299   2.876   5.183
 4283TIP3    H212856   4.379   2.973   5.099
 4284TIP3   OH212857   5.546   5.170   3.007
 4284TIP3    H112858   5.459   5.147   3.040
 4284TIP3    H212859   5.593   5.087   3.001
 4285TIP3   OH212860   2.398   2.956   2.251
 4285TIP3    H112861   2.466   2.996   2.196
 4285TIP3    H212862   2.421   2.983   2.340
 4286TIP3   OH212863   4.673   0.363   1.251
 4286TIP3    H112864   4.710   0.413   1.178
 4286TIP3    H212865   4.748   0.340   1.306
 4287TIP3   OH212866   5.315   0.541   2.108
 4287TIP3    H112867   5.356   0.469   2.060
 4287TIP3    H212868   5.366   0.549   2.188
 4288TIP3   OH212869   1.207   0.067   0.257
 4288TIP3    H112870   1.171   0.141   0.306
 4288TIP3    H212871   1.145   0.052   0.186
 4289TIP3   OH212872   3.737   0.363   1.660
 4289TIP3    H112873   3.715   0.334   1.571
 4289TIP3    H212874   3.748   0.281   1.709
 4290TIP3   OH212875   3.880   3.562   1.788
 4290TIP3    H112876   3.855   3.504   1.716
 4290TIP3    H212877   3.835   3.525   1.865
 4291TIP3   OH212878   2.021   1.824   2.875
 4291TIP3    H112879   2.062   1.738   2.868
 4291TIP3    H212880   2.048   1.855   2.962
 4292TIP3   OH212881   6.116   2.083   2.859
 4292TIP3    H112882   6.076   2.055   2.777
 4292TIP3    H212883   6.210   2.085   2.840
 4293TIP3   OH212884   6.138   3.084   2.208
 4293TIP3    H112885   6.063   3.143   2.217
 4293TIP3    H212886   6.214   3.141   2.221
 4294TIP3   OH212887   1.815   3.288   3.233
 4294TIP3    H112888   1.785   3.275   3.142
 4294TIP3    H212889   1.794   3.379   3.252
 4295TIP3   OH212890   6.299   0.606   2.057
 4295TIP3    H112891   6.372   0.665   2.074
 4295TIP3    H212892   6.228   0.663   2.028
 4296TIP3   OH212893   2.670   5.292   2.754
 4296TIP3    H112894   2.598   5.321   2.809
 4296TIP3    H212895   2.687   5.366   2.695
 4297TIP3   OH212896   2.196   0.130   4.600
 4297TIP3    H112897   2.183   0.036   4.588
 4297TIP3    H212898   2.147   0.152   4.679
 4298TIP3   OH212899   3.552   0.835   3.196
 4298TIP3    H112900   3.490   0.799   3.132
 4298TIP3    H212901   3.566   0.925   3.168
 4299TIP3   OH212902   0.548   5.614   4.637
 4299TIP3    H112903   0.469   5.608   4.690
 4299TIP3    H212904   0.518   5.601   4.547
 4300TIP3   OH212905   4.291   4.106   1.675
 4300TIP3    H112906   4.284   4.126   1.581
 4300TIP3    H212907   4.363   4.044   1.681
 4301TIP3   OH212908   3.491   3.040   2.241
 4301TIP3    H112909   3.450   2.955   2.225
 4301TIP3    H212910   3.496   3.080   2.155
 4302TIP3   OH212911   4.318   5.467   0.613
 4302TIP3    H112912   4.368   5.405   0.560
 4302TIP3    H212913   4.229   5.462   0.578
 4303TIP3   OH212914   2.798   5.735   0.949
 4303TIP3    H112915   2.798   5.739   0.853
 4303TIP3    H212916   2.826   5.646   0.970
 4304TIP3   OH212917   5.931   0.435   3.313
 4304TIP3    H112918   5.866   0.378   3.355
 4304TIP3    H212919   5.993   0.456   3.383
 4305TIP3   OH212920   1.782   0.895   4.797
 4305TIP3    H112921   1.820   0.894   4.885
 4305TIP3    H212922   1.729   0.975   4.796
 4306TIP3   OH212923   0.631   4.523   0.970
 4306TIP3    H112924   0.550   4.472   0.957
 4306TIP3    H212925   0.688   4.493   0.899
 4307TIP3   OH212926   4.713   5.817   2.031
 4307TIP3    H112927   4.643   5.752   2.030
 4307TIP3    H212928   4.668   5.901   2.040
 4308TIP3   OH212929   4.582   5.366   3.780
 4308TIP3    H112930   4.605   5.275   3.798
 4308TIP3    H212931   4.504   5.361   3.725
 4309TIP3   OH212932   2.487   5.478   0.038
 4309TIP3    H112933   2.484   5.385   0.064
 4309TIP3    H212934   2.568   5.487  -0.011
 4310TIP3   OH212935   1.862   1.769   1.400
 4310TIP3    H112936   1.817   1.698   1.446
 4310TIP3    H212937   1.955   1.749   1.411
 4311TIP3   OH212938   3.662   1.631   4.564
 4311TIP3    H112939   3.636   1.643   4.655
 4311TIP3    H212940   3.745   1.679   4.557
 4312TIP3   OH212941   3.383   2.681   4.640
 4312TIP3    H112942   3.328   2.604   4.656
 4312TIP3    H212943   3.320   2.752   4.624
 4313TIP3   OH212944   3.979   3.279   1.870
 4313TIP3    H112945   3.996   3.336   1.945
 4313TIP3    H212946   3.889   3.248   1.883
 4314TIP3   OH212947   1.961   2.816   0.443
 4314TIP3    H112948   1.982   2.877   0.513
 4314TIP3    H212949   1.903   2.752   0.484
 4315TIP3   OH212950   4.240   3.941   1.211
 4315TIP3    H112951   4.248   3.859   1.162
 4315TIP3    H212952   4.244   3.914   1.303
 4316TIP3   OH212953   3.243   0.112   2.996
 4316TIP3    H112954   3.333   0.107   3.029
 4316TIP3    H212955   3.204   0.029   3.023
 4317TIP3   OH212956   1.896   5.874   1.798
 4317TIP3    H112957   1.822   5.820   1.826
 4317TIP3    H212958   1.873   5.962   1.828
 4318TIP3   OH212959   4.123   4.944   0.988
 4318TIP3    H112960   4.075   4.894   0.922
 4318TIP3    H212961   4.058   5.006   1.022
 4319TIP3   OH212962   1.311   3.919   3.939
 4319TIP3    H112963   1.226   3.901   3.899
 4319TIP3    H212964   1.325   4.013   3.923
 4320TIP3   OH212965   2.631   1.807   4.255
 4320TIP3    H112966   2.629   1.903   4.254
 4320TIP3    H212967   2.718   1.784   4.225
 4321TIP3   OH212968   2.513   1.548   0.387
 4321TIP3    H112969   2.591   1.598   0.361
 4321TIP3    H212970   2.548   1.473   0.435
 4322TIP3   OH212971   0.307   5.113   1.033
 4322TIP3    H112972   0.352   5.148   1.110
 4322TIP3    H212973   0.377   5.101   0.968
 4323TIP3   OH212974   2.528   3.925   0.540
 4323TIP3    H112975   2.541   3.979   0.618
 4323TIP3    H212976   2.434   3.931   0.522
 4324TIP3   OH212977   5.892   1.056   4.500
 4324TIP3    H112978   5.983   1.085   4.510
 4324TIP3    H212979   5.872   1.070   4.408
 4325TIP3   OH212980   0.917   0.185   1.880
 4325TIP3    H112981   0.989   0.139   1.925
 4325TIP3    H212982   0.941   0.277   1.885
 4326TIP3   OH212983   1.830   0.154   1.465
 4326TIP3    H112984   1.754   0.184   1.415
 4326TIP3    H212985   1.802   0.154   1.556
 4327TIP3   OH212986   6.028   4.682   5.042
 4327TIP3    H112987   6.071   4.680   4.956
 4327TIP3    H212988   6.098   4.704   5.103
 4328TIP3   OH212989   3.769   5.953   2.371
 4328TIP3    H112990   3.768   5.999   2.455
 4328TIP3    H212991   3.815   6.012   2.311
 4329TIP3   OH212992   2.512   5.104   1.907
 4329TIP3    H112993   2.417   5.113   1.917
 4329TIP3    H212994   2.544   5.096   1.996
 4330TIP3   OH212995   3.271   0.690   1.373
 4330TIP3    H112996   3.358   0.681   1.412
 4330TIP3    H212997   3.288   0.699   1.279
 4331TIP3   OH212998   1.184   0.898   1.095
 4331TIP3    H112999   1.237   0.889   1.015
 4331TIP3    H213000   1.240   0.862   1.164
 4332TIP3   OH213001   5.644   0.363   1.723
 4332TIP3    H113002   5.728   0.330   1.692
 4332TIP3    H213003   5.587   0.285   1.726
 4333TIP3   OH213004   0.507   4.651   0.355
 4333TIP3    H113005   0.590   4.699   0.363
 4333TIP3    H213006   0.457   4.701   0.290
 4334TIP3   OH213007   2.070   3.713   2.269
 4334TIP3    H113008   2.028   3.654   2.207
 4334TIP3    H213009   2.115   3.778   2.215
 4335TIP3   OH213010   0.536   4.075   1.538
 4335TIP3    H113011   0.605   4.103   1.598
 4335TIP3    H213012   0.535   4.142   1.469
 4336TIP3   OH213013   6.275   2.706   1.414
 4336TIP3    H113014   6.181   2.721   1.415
 4336TIP3    H213015   6.313   2.786   1.451
 4337TIP3   OH213016   6.287   3.505   3.074
 4337TIP3    H113017   6.227   3.431   3.077
 4337TIP3    H213018   6.271   3.545   2.988
 4338TIP3   OH213019   1.141   0.223   2.672
 4338TIP3    H113020   1.102   0.140   2.698
 4338TIP3    H213021   1.071   0.270   2.626
 4339TIP3   OH213022   1.546   5.073   4.644
 4339TIP3    H113023   1.500   5.073   4.728
 4339TIP3    H213024   1.477   5.063   4.579
 4340TIP3   OH213025   0.951   0.205   1.341
 4340TIP3    H113026   0.936   0.178   1.432
 4340TIP3    H213027   0.967   0.123   1.294
 4341TIP3   OH213028   6.087   5.813   2.693
 4341TIP3    H113029   6.057   5.901   2.670
 4341TIP3    H213030   6.157   5.827   2.757
 4342TIP3   OH213031   1.875   3.423   1.470
 4342TIP3    H113032   1.934   3.371   1.414
 4342TIP3    H213033   1.934   3.474   1.526
 4343TIP3   OH213034   0.710   5.400   4.672
 4343TIP3    H113035   0.744   5.383   4.760
 4343TIP3    H213036   0.645   5.469   4.685
 4344TIP3   OH213037   1.322   1.063   0.444
 4344TIP3    H113038   1.263   1.134   0.471
 4344TIP3    H213039   1.380   1.104   0.379
 4345TIP3   OH213040   0.813   2.303   3.944
 4345TIP3    H113041   0.728   2.346   3.934
 4345TIP3    H213042   0.807   2.256   4.027
 4346TIP3   OH213043   3.596   0.725   0.979
 4346TIP3    H113044   3.544   0.726   0.899
 4346TIP3    H213045   3.583   0.637   1.015
 4347TIP3   OH213046   5.521   3.097   1.408
 4347TIP3    H113047   5.534   3.166   1.343
 4347TIP3    H213048   5.540   3.016   1.361
 4348TIP3   OH213049   0.192   0.201   3.367
 4348TIP3    H113050   0.243   0.204   3.286
 4348TIP3    H213051   0.206   0.112   3.401
 4349TIP3   OH213052   5.055   1.234   4.863
 4349TIP3    H113053   5.063   1.210   4.955
 4349TIP3    H213054   5.099   1.319   4.857
 4350TIP3   OH213055   5.341   2.351   2.468
 4350TIP3    H113056   5.386   2.412   2.410
 4350TIP3    H213057   5.411   2.298   2.506
 4351TIP3   OH213058   5.332   0.258   5.169
 4351TIP3    H113059   5.353   0.191   5.234
 4351TIP3    H213060   5.377   0.337   5.200
 4352TIP3   OH213061   1.133   3.215   2.716
 4352TIP3    H113062   1.068   3.150   2.687
 4352TIP3    H213063   1.122   3.219   2.811
 4353TIP3   OH213064   4.684   3.154   3.785
 4353TIP3    H113065   4.629   3.188   3.856
 4353TIP3    H213066   4.770   3.142   3.826
 4354TIP3   OH213067   0.163   2.006   0.483
 4354TIP3    H113068   0.211   1.942   0.536
 4354TIP3    H213069   0.081   1.961   0.461
 4355TIP3   OH213070   5.052   2.665   4.520
 4355TIP3    H113071   5.023   2.755   4.508
 4355TIP3    H213072   5.023   2.619   4.441
 4356TIP3   OH213073   4.179   2.911   1.054
 4356TIP3    H113074   4.231   2.982   1.014
 4356TIP3    H213075   4.123   2.956   1.117
 4357TIP3   OH213076   1.627   4.119   1.333
 4357TIP3    H113077   1.612   4.206   1.297
 4357TIP3    H213078   1.659   4.068   1.258
 4358TIP3   OH213079   5.617   5.453   2.668
 4358TIP3    H113080   5.647   5.372   2.709
 4358TIP3    H213081   5.686   5.477   2.607
 4359TIP3   OH213082   1.252   2.683   4.820
 4359TIP3    H113083   1.213   2.731   4.894
 4359TIP3    H213084   1.343   2.712   4.818
 4360TIP3   OH213085   1.183   4.417   4.277
 4360TIP3    H113086   1.240   4.387   4.206
 4360TIP3    H213087   1.105   4.362   4.270
 4361TIP3   OH213088   1.489   4.441   1.662
 4361TIP3    H113089   1.577   4.472   1.642
 4361TIP3    H213090   1.501   4.356   1.703
 4362TIP3   OH213091   0.262   2.441   3.894
 4362TIP3    H113092   0.339   2.384   3.887
 4362TIP3    H213093   0.191   2.382   3.919
 4363TIP3   OH213094   5.615   4.144   4.848
 4363TIP3    H113095   5.598   4.056   4.880
 4363TIP3    H213096   5.582   4.145   4.758
 4364TIP3   OH213097   1.308   4.625   2.260
 4364TIP3    H113098   1.347   4.699   2.307
 4364TIP3    H213099   1.382   4.584   2.214
 4365TIP3   OH213100   2.630   5.685   0.217
 4365TIP3    H113101   2.538   5.698   0.240
 4365TIP3    H213102   2.629   5.610   0.157
 4366TIP3   OH213103   2.125   0.736   0.951
 4366TIP3    H113104   2.067   0.696   1.017
 4366TIP3    H213105   2.103   0.691   0.870
 4367TIP3   OH213106   4.043   4.999   3.903
 4367TIP3    H113107   3.983   4.935   3.865
 4367TIP3    H213108   4.008   5.015   3.991
 4368TIP3   OH213109   5.475   1.791   0.292
 4368TIP3    H113110   5.472   1.886   0.282
 4368TIP3    H213111   5.493   1.778   0.385
 4369TIP3   OH213112   4.834   3.828   4.971
 4369TIP3    H113113   4.784   3.748   4.958
 4369TIP3    H213114   4.911   3.818   4.915
 4370TIP3   OH213115   3.483   5.673   1.531
 4370TIP3    H113116   3.446   5.636   1.451
 4370TIP3    H213117   3.407   5.705   1.580
 4371TIP3   OH213118   1.425   4.780   4.850
 4371TIP3    H113119   1.357   4.784   4.917
 4371TIP3    H213120   1.497   4.833   4.886
 4372TIP3   OH213121   5.466   3.572   4.801
 4372TIP3    H113122   5.479   3.550   4.708
 4372TIP3    H213123   5.375   3.602   4.806
 4373TIP3   OH213124   0.064   5.512   4.023
 4373TIP3    H113125   0.117   5.545   4.095
 4373TIP3    H213126  -0.014   5.475   4.065
 4374TIP3   OH213127   4.785   2.711   3.908
 4374TIP3    H113128   4.704   2.697   3.958
 4374TIP3    H213129   4.757   2.707   3.817
 4375TIP3   OH213130   0.081   5.842   4.290
 4375TIP3    H113131   0.098   5.932   4.263
 4375TIP3    H213132  -0.009   5.844   4.323
 4376TIP3   OH213133   4.286   3.426   5.021
 4376TIP3    H113134   4.359   3.431   5.082
 4376TIP3    H213135   4.234   3.504   5.039
 4377TIP3   OH213136   1.633   2.152   1.204
 4377TIP3    H113137   1.703   2.105   1.158
 4377TIP3    H213138   1.576   2.083   1.238
 4378TIP3   OH213139   1.640   3.616   0.598
 4378TIP3    H113140   1.732   3.620   0.622
 4378TIP3    H213141   1.601   3.556   0.662
 4379TIP3   OH213142   4.571   5.305   1.095
 4379TIP3    H113143   4.526   5.380   1.135
 4379TIP3    H213144   4.578   5.328   1.002
 4380TIP3   OH213145   1.642   3.285   4.949
 4380TIP3    H113146   1.676   3.364   4.992
 4380TIP3    H213147   1.572   3.255   5.007
 4381TIP3   OH213148   1.979   3.756   0.253
 4381TIP3    H113149   1.992   3.696   0.326
 4381TIP3    H213150   1.996   3.843   0.289
 4382TIP3   OH213151   5.559   4.579   3.360
 4382TIP3    H113152   5.488   4.534   3.405
 4382TIP3    H213153   5.633   4.573   3.420
 4383TIP3   OH213154   4.638   5.601   0.420
 4383TIP3    H113155   4.688   5.626   0.498
 4383TIP3    H213156   4.563   5.660   0.419
 4384TIP3   OH213157   0.090   4.814   0.503
 4384TIP3    H113158   0.063   4.722   0.501
 4384TIP3    H213159   0.124   4.827   0.592
 4385TIP3   OH213160   4.684   5.440   4.971
 4385TIP3    H113161   4.613   5.454   5.033
 4385TIP3    H213162   4.750   5.505   4.995
 4386TIP3   OH213163   4.471   5.134   1.292
 4386TIP3    H113164   4.507   5.188   1.222
 4386TIP3    H213165   4.376   5.148   1.287
 4387TIP3   OH213166   4.104  -0.005   3.213
 4387TIP3    H113167   4.170   0.032   3.271
 4387TIP3    H213168   4.021   0.029   3.245
 4388TIP3   OH213169   5.385   3.551   2.415
 4388TIP3    H113170   5.421   3.466   2.443
 4388TIP3    H213171   5.290   3.540   2.423
 4389TIP3   OH213172   2.829   0.140   0.357
 4389TIP3    H113173   2.756   0.079   0.368
 4389TIP3    H213174   2.905   0.093   0.393
 4390TIP3   OH213175   1.856   1.162   1.812
 4390TIP3    H113176   1.800   1.106   1.759
 4390TIP3    H213177   1.801   1.186   1.887
 4391TIP3   OH213178   2.430   1.839   0.306
 4391TIP3    H113179   2.440   1.772   0.373
 4391TIP3    H213180   2.361   1.896   0.339
 4392TIP3   OH213181   2.710   0.814   2.630
 4392TIP3    H113182   2.733   0.843   2.718
 4392TIP3    H213183   2.632   0.865   2.608
 4393TIP3   OH213184   3.912   5.202   2.464
 4393TIP3    H113185   3.990   5.161   2.427
 4393TIP3    H213186   3.892   5.274   2.404
 4394TIP3   OH213187   4.164   3.137   5.060
 4394TIP3    H113188   4.069   3.141   5.052
 4394TIP3    H213189   4.196   3.204   4.999
 4395TIP3   OH213190   0.552   2.869   5.167
 4395TIP3    H113191   0.615   2.808   5.129
 4395TIP3    H213192   0.564   2.950   5.116
 4396TIP3   OH213193   1.128   3.479   2.022
 4396TIP3    H113194   1.050   3.432   1.993
 4396TIP3    H213195   1.095   3.561   2.060
 4397TIP3   OH213196   5.004   1.009   2.661
 4397TIP3    H113197   5.094   1.001   2.690
 4397TIP3    H213198   5.006   1.082   2.598
 4398TIP3   OH213199   2.819   1.866   2.840
 4398TIP3    H113200   2.729   1.839   2.857
 4398TIP3    H213201   2.864   1.852   2.924
 4399TIP3   OH213202   1.141   2.209   0.739
 4399TIP3    H113203   1.136   2.260   0.658
 4399TIP3    H213204   1.231   2.220   0.769
 4400TIP3   OH213205   0.886   5.094   4.146
 4400TIP3    H113206   0.824   5.021   4.142
 4400TIP3    H213207   0.834   5.168   4.178
 4401TIP3   OH213208   4.787   3.118   4.572
 4401TIP3    H113209   4.816   3.146   4.486
 4401TIP3    H213210   4.862   3.073   4.610
 4402TIP3   OH213211   4.042   3.760   4.415
 4402TIP3    H113212   4.078   3.748   4.327
 4402TIP3    H213213   4.085   3.693   4.468
 4403TIP3   OH213214   2.955   3.507   1.292
 4403TIP3    H113215   3.048   3.482   1.296
 4403TIP3    H213216   2.908   3.426   1.312
 4404TIP3   OH213217   5.358   3.512   3.219
 4404TIP3    H113218   5.316   3.579   3.273
 4404TIP3    H213219   5.295   3.493   3.150
 4405TIP3   OH213220   1.783   3.588   3.287
 4405TIP3    H113221   1.721   3.614   3.219
 4405TIP3    H213222   1.729   3.554   3.358
 4406TIP3   OH213223   6.262   1.331   5.184
 4406TIP3    H113224   6.352   1.313   5.158
 4406TIP3    H213225   6.266   1.418   5.224
 4407TIP3   OH213226   5.057   0.379   3.009
 4407TIP3    H113227   5.015   0.317   2.949
 4407TIP3    H213228   4.998   0.383   3.084
 4408TIP3   OH213229   6.191   0.594   1.431
 4408TIP3    H113230   6.197   0.665   1.495
 4408TIP3    H213231   6.177   0.638   1.347
 4409TIP3   OH213232   5.143   5.188   0.317
 4409TIP3    H113233   5.086   5.263   0.304
 4409TIP3    H213234   5.216   5.222   0.369
 4410TIP3   OH213235   2.512   4.636   3.628
 4410TIP3    H113236   2.420   4.659   3.642
 4410TIP3    H213237   2.524   4.645   3.533
 4411TIP3   OH213238   0.719   1.668   0.587
 4411TIP3    H113239   0.805   1.629   0.574
 4411TIP3    H213240   0.715   1.687   0.681
 4412TIP3   OH213241   3.873   3.260   2.590
 4412TIP3    H113242   3.953   3.277   2.640
 4412TIP3    H213243   3.857   3.166   2.602
 4413TIP3   OH213244   0.120   2.875   4.207
 4413TIP3    H113245   0.194   2.842   4.156
 4413TIP3    H213246   0.146   2.861   4.298
 4414TIP3   OH213247   5.986   1.382   0.976
 4414TIP3    H113248   5.950   1.401   1.063
 4414TIP3    H213249   6.071   1.341   0.994
 4415TIP3   OH213250   1.328   5.075   4.859
 4415TIP3    H113251   1.303   5.001   4.804
 4415TIP3    H213252   1.254   5.135   4.855
 4416TIP3   OH213253   4.532   5.285   0.254
 4416TIP3    H113254   4.592   5.254   0.186
 4416TIP3    H213255   4.450   5.303   0.208
 4417TIP3   OH213256   4.685   1.813   4.011
 4417TIP3    H113257   4.674   1.906   3.991
 4417TIP3    H213258   4.766   1.788   3.965
 4418TIP3   OH213259   0.660   1.921   3.998
 4418TIP3    H113260   0.738   1.867   4.006
 4418TIP3    H213261   0.663   1.980   4.073
 4419TIP3   OH213262   4.898   4.240   1.134
 4419TIP3    H113263   4.982   4.214   1.095
 4419TIP3    H213264   4.913   4.330   1.164
 4420TIP3   OH213265   2.450   1.223   3.843
 4420TIP3    H113266   2.483   1.135   3.862
 4420TIP3    H213267   2.391   1.243   3.915
 4421TIP3   OH213268   4.566   3.782   5.088
 4421TIP3    H113269   4.639   3.831   5.050
 4421TIP3    H213270   4.531   3.840   5.156
 4422TIP3   OH213271   0.038   0.472   0.458
 4422TIP3    H113272   0.006   0.527   0.387
 4422TIP3    H213273   0.000   0.386   0.440
 4423TIP3   OH213274   5.981   3.714   4.288
 4423TIP3    H113275   6.034   3.747   4.215
 4423TIP3    H213276   5.902   3.768   4.287
 4424TIP3   OH213277   0.559   1.202   3.188
 4424TIP3    H113278   0.636   1.240   3.230
 4424TIP3    H213279   0.575   1.108   3.188
 4425TIP3   OH213280   3.166   4.699   2.647
 4425TIP3    H113281   3.224   4.626   2.626
 4425TIP3    H213282   3.114   4.667   2.721
 4426TIP3   OH213283   6.346   4.518   4.934
 4426TIP3    H113284   6.273   4.484   4.882
 4426TIP3    H213285   6.338   4.473   5.018
 4427TIP3   OH213286   0.838   4.693   2.503
 4427TIP3    H113287   0.910   4.674   2.564
 4427TIP3    H213288   0.872   4.766   2.450
 4428TIP3   OH213289   5.483   4.575   4.872
 4428TIP3    H113290   5.401   4.531   4.847
 4428TIP3    H213291   5.527   4.512   4.929
 4429TIP3   OH213292   1.857   0.832   1.151
 4429TIP3    H113293   1.846   0.878   1.068
 4429TIP3    H213294   1.797   0.758   1.146
 4430TIP3   OH213295   5.155   1.678   1.749
 4430TIP3    H113296   5.092   1.648   1.685
 4430TIP3    H213297   5.109   1.673   1.833
 4431TIP3   OH213298   5.606   3.382   4.132
 4431TIP3    H113299   5.606   3.335   4.215
 4431TIP3    H213300   5.544   3.453   4.145
 4432TIP3   OH213301   2.573   0.967   5.150
 4432TIP3    H113302   2.488   0.927   5.166
 4432TIP3    H213303   2.606   0.923   5.072
 4433TIP3   OH213304   5.861   2.025   0.040
 4433TIP3    H113305   5.810   2.059   0.114
 4433TIP3    H213306   5.833   2.078  -0.035
 4434TIP3   OH213307   0.044   2.279   4.732
 4434TIP3    H113308   0.104   2.255   4.802
 4434TIP3    H213309  -0.043   2.268   4.770
 4435TIP3   OH213310   3.234   0.538   0.675
 4435TIP3    H113311   3.244   0.491   0.758
 4435TIP3    H213312   3.302   0.501   0.618
 4436TIP3   OH213313   0.100   2.459   2.713
 4436TIP3    H113314   0.083   2.376   2.669
 4436TIP3    H213315   0.020   2.477   2.763
 4437TIP3   OH213316   1.461   3.415   3.867
 4437TIP3    H113317   1.407   3.391   3.942
 4437TIP3    H213318   1.456   3.511   3.864
 4438TIP3   OH213319   1.723   3.119   1.477
 4438TIP3    H113320   1.781   3.043   1.468
 4438TIP3    H213321   1.740   3.151   1.566
 4439TIP3   OH213322   5.172   4.572   0.449
 4439TIP3    H113323   5.219   4.630   0.389
 4439TIP3    H213324   5.220   4.581   0.532
 4440TIP3   OH213325   2.055   1.852   0.906
 4440TIP3    H113326   1.967   1.815   0.913
 4440TIP3    H213327   2.079   1.838   0.815
 4441TIP3   OH213328   4.145   3.729   4.128
 4441TIP3    H113329   4.121   3.805   4.074
 4441TIP3    H213330   4.240   3.737   4.138
 4442TIP3   OH213331   3.353   1.551   3.601
 4442TIP3    H113332   3.435   1.572   3.556
 4442TIP3    H213333   3.327   1.634   3.642
 4443TIP3   OH213334   3.052   3.919   0.925
 4443TIP3    H113335   3.145   3.938   0.910
 4443TIP3    H213336   3.052   3.848   0.989
 4444TIP3   OH213337   4.111   2.756   3.608
 4444TIP3    H113338   4.180   2.821   3.614
 4444TIP3    H213339   4.048   2.781   3.675
 4445TIP3   OH213340   5.120   3.454   2.476
 4445TIP3    H113341   5.100   3.450   2.569
 4445TIP3    H213342   5.049   3.406   2.434
 4446TIP3   OH213343   1.318   2.202   4.957
 4446TIP3    H113344   1.283   2.277   4.910
 4446TIP3    H213345   1.332   2.234   5.046
 4447TIP3   OH213346   0.309   4.695   1.544
 4447TIP3    H113347   0.312   4.784   1.578
 4447TIP3    H213348   0.400   4.674   1.524
 4448TIP3   OH213349   3.794   0.640   3.702
 4448TIP3    H113350   3.792   0.555   3.746
 4448TIP3    H213351   3.706   0.676   3.714
 4449TIP3   OH213352   2.833   1.748   3.503
 4449TIP3    H113353   2.846   1.834   3.544
 4449TIP3    H213354   2.921   1.720   3.479
 4450TIP3   OH213355   2.697   0.933   4.436
 4450TIP3    H113356   2.765   0.971   4.381
 4450TIP3    H213357   2.738   0.920   4.521
 4451TIP3   OH213358   4.606   1.786   0.020
 4451TIP3    H113359   4.537   1.815   0.080
 4451TIP3    H213360   4.685   1.829   0.051
 4452TIP3   OH213361   2.117   1.587   2.374
 4452TIP3    H113362   2.054   1.517   2.395
 4452TIP3    H213363   2.200   1.555   2.408
 4453TIP3   OH213364   2.060   4.292   4.879
 4453TIP3    H113365   2.002   4.276   4.953
 4453TIP3    H213366   2.052   4.213   4.825
 4454TIP3   OH213367   5.451   1.989   3.729
 4454TIP3    H113368   5.491   2.012   3.645
 4454TIP3    H213369   5.451   2.071   3.779
 4455TIP3   OH213370   6.079   5.142   2.795
 4455TIP3    H113371   6.091   5.120   2.888
 4455TIP3    H213372   6.156   5.105   2.752
 4456TIP3   OH213373   2.704   4.016   2.117
 4456TIP3    H113374   2.773   3.951   2.110
 4456TIP3    H213375   2.727   4.082   2.052
 4457TIP3   OH213376   5.813   4.981   4.812
 4457TIP3    H113377   5.784   5.058   4.862
 4457TIP3    H213378   5.734   4.927   4.804
 4458TIP3   OH213379   1.071   5.506   1.574
 4458TIP3    H113380   1.018   5.583   1.554
 4458TIP3    H213381   1.008   5.440   1.603
 4459TIP3   OH213382   3.861   0.099   3.310
 4459TIP3    H113383   3.776   0.142   3.306
 4459TIP3    H213384   3.869   0.070   3.401
 4460TIP3   OH213385   3.982   4.586   4.744
 4460TIP3    H113386   4.075   4.605   4.732
 4460TIP3    H213387   3.938   4.646   4.684
 4461TIP3   OH213388   4.480   3.925   0.527
 4461TIP3    H113389   4.548   3.978   0.569
 4461TIP3    H213390   4.469   3.850   0.585
 4462TIP3   OH213391   3.169   4.515   3.291
 4462TIP3    H113392   3.177   4.434   3.241
 4462TIP3    H213393   3.243   4.568   3.260
 4463TIP3   OH213394   1.033   0.869   3.402
 4463TIP3    H113395   0.964   0.936   3.412
 4463TIP3    H213396   1.015   0.830   3.316
 4464TIP3   OH213397   1.047   4.537   2.333
 4464TIP3    H113398   1.135   4.565   2.307
 4464TIP3    H213399   1.004   4.618   2.360
 4465TIP3   OH213400   0.296   4.554   2.130
 4465TIP3    H113401   0.265   4.643   2.150
 4465TIP3    H213402   0.362   4.566   2.062
 4466TIP3   OH213403   3.097   2.146   2.091
 4466TIP3    H113404   3.064   2.102   2.170
 4466TIP3    H213405   3.025   2.141   2.029
 4467TIP3   OH213406   0.315   3.748   4.982
 4467TIP3    H113407   0.397   3.699   4.995
 4467TIP3    H213408   0.298   3.743   4.888
 4468TIP3   OH213409   3.340   4.227   1.035
 4468TIP3    H113410   3.355   4.136   1.008
 4468TIP3    H213411   3.341   4.223   1.130
 4469TIP3   OH213412   3.202   5.667   1.588
 4469TIP3    H113413   3.119   5.708   1.563
 4469TIP3    H213414   3.179   5.576   1.607
 4470TIP3   OH213415   0.278   1.370   1.850
 4470TIP3    H113416   0.337   1.349   1.923
 4470TIP3    H213417   0.287   1.465   1.839
 4471TIP3   OH213418   1.331   4.114   4.795
 4471TIP3    H113419   1.260   4.150   4.742
 4471TIP3    H213420   1.303   4.025   4.815
 4472TIP3   OH213421   2.000   4.940   3.986
 4472TIP3    H113422   1.939   4.949   3.912
 4472TIP3    H213423   1.959   4.876   4.043
 4473TIP3   OH213424   2.671   5.106   2.550
 4473TIP3    H113425   2.589   5.145   2.519
 4473TIP3    H213426   2.701   5.166   2.618
 4474TIP3   OH213427   0.503   5.953   4.633
 4474TIP3    H113428   0.445   5.878   4.631
 4474TIP3    H213429   0.538   5.960   4.544
 4475TIP3   OH213430   0.971   3.069   1.721
 4475TIP3    H113431   1.049   3.073   1.777
 4475TIP3    H213432   0.968   2.978   1.691
 4476TIP3   OH213433   0.487   0.781   4.121
 4476TIP3    H113434   0.433   0.824   4.055
 4476TIP3    H213435   0.542   0.721   4.071
 4477TIP3   OH213436   0.336   0.304   2.874
 4477TIP3    H113437   0.326   0.260   2.959
 4477TIP3    H213438   0.385   0.384   2.893
 4478TIP3   OH213439   2.401   1.758   3.229
 4478TIP3    H113440   2.446   1.759   3.314
 4478TIP3    H213441   2.316   1.718   3.248
 4479TIP3   OH213442   1.166   5.456   0.851
 4479TIP3    H113443   1.072   5.454   0.869
 4479TIP3    H213444   1.191   5.364   0.843
 4480TIP3   OH213445   3.358   0.904   0.810
 4480TIP3    H113446   3.279   0.850   0.814
 4480TIP3    H213447   3.346   0.971   0.878
 4481TIP3   OH213448   0.853   4.421   3.560
 4481TIP3    H113449   0.947   4.407   3.551
 4481TIP3    H213450   0.840   4.448   3.651
 4482TIP3   OH213451   3.391   0.921   4.148
 4482TIP3    H113452   3.459   0.905   4.213
 4482TIP3    H213453   3.400   0.849   4.086
 4483TIP3   OH213454   0.893   0.866   4.202
 4483TIP3    H113455   0.866   0.957   4.212
 4483TIP3    H213456   0.950   0.865   4.126
 4484TIP3   OH213457   6.018   4.988   3.920
 4484TIP3    H113458   5.962   5.045   3.973
 4484TIP3    H213459   6.101   4.985   3.967
 4485TIP3   OH213460   2.313   1.529   1.870
 4485TIP3    H113461   2.384   1.468   1.845
 4485TIP3    H213462   2.273   1.489   1.947
 4486TIP3   OH213463   4.662   1.352   0.620
 4486TIP3    H113464   4.676   1.302   0.700
 4486TIP3    H213465   4.750   1.384   0.596
 4487TIP3   OH213466   0.834   1.697   0.264
 4487TIP3    H113467   0.785   1.673   0.184
 4487TIP3    H213468   0.904   1.632   0.269
 4488TIP3   OH213469   4.152   3.162   4.361
 4488TIP3    H113470   4.108   3.155   4.276
 4488TIP3    H213471   4.128   3.249   4.393
 4489TIP3   OH213472   3.171   3.889   1.998
 4489TIP3    H113473   3.115   3.938   1.937
 4489TIP3    H213474   3.245   3.861   1.945
 4490TIP3   OH213475   2.866   5.911   3.668
 4490TIP3    H113476   2.938   5.932   3.727
 4490TIP3    H213477   2.846   5.819   3.684
 4491TIP3   OH213478   5.017   2.925   4.416
 4491TIP3    H113479   5.093   2.967   4.376
 4491TIP3    H213480   5.005   2.971   4.499
 4492TIP3   OH213481   5.587   3.695   0.034
 4492TIP3    H113482   5.561   3.711   0.125
 4492TIP3    H213483   5.521   3.740  -0.018
 4493TIP3   OH213484   2.758   5.702   2.322
 4493TIP3    H113485   2.671   5.712   2.361
 4493TIP3    H213486   2.771   5.607   2.316
 4494TIP3   OH213487   3.691   3.122   0.323
 4494TIP3    H113488   3.731   3.036   0.309
 4494TIP3    H213489   3.623   3.106   0.389
 4495TIP3   OH213490   4.440   5.912   4.309
 4495TIP3    H113491   4.447   5.946   4.398
 4495TIP3    H213492   4.429   5.990   4.254
 4496TIP3   OH213493   2.008   5.502   3.634
 4496TIP3    H113494   2.088   5.452   3.652
 4496TIP3    H213495   2.033   5.593   3.650
 4497TIP3   OH213496   2.163   4.166   3.482
 4497TIP3    H113497   2.142   4.157   3.389
 4497TIP3    H213498   2.144   4.257   3.503
 4498TIP3   OH213499   0.481   4.477   1.492
 4498TIP3    H113500   0.564   4.480   1.445
 4498TIP3    H213501   0.414   4.475   1.423
 4499TIP3   OH213502   2.831   3.850   4.454
 4499TIP3    H113503   2.896   3.780   4.447
 4499TIP3    H213504   2.804   3.867   4.364
 4500TIP3   OH213505   6.066   5.347   1.819
 4500TIP3    H113506   6.105   5.306   1.897
 4500TIP3    H213507   6.124   5.322   1.747
 4501TIP3   OH213508   5.765   4.546   3.543
 4501TIP3    H113509   5.825   4.588   3.482
 4501TIP3    H213510   5.810   4.547   3.627
 4502TIP3   OH213511   3.764   4.625   1.698
 4502TIP3    H113512   3.831   4.663   1.754
 4502TIP3    H213513   3.799   4.540   1.673
 4503TIP3   OH213514   5.137   4.066   4.945
 4503TIP3    H113515   5.164   4.099   4.860
 4503TIP3    H213516   5.073   4.130   4.977
 4504TIP3   OH213517   0.464   5.777   5.082
 4504TIP3    H113518   0.368   5.773   5.084
 4504TIP3    H213519   0.492   5.688   5.103
 4505TIP3   OH213520   2.196   2.125   0.012
 4505TIP3    H113521   2.138   2.052   0.032
 4505TIP3    H213522   2.264   2.121   0.079
 4506TIP3   OH213523   1.057   5.780   3.973
 4506TIP3    H113524   1.059   5.784   4.069
 4506TIP3    H213525   1.145   5.809   3.946
 4507TIP3   OH213526   3.988   1.421   4.090
 4507TIP3    H113527   3.987   1.363   4.014
 4507TIP3    H213528   3.976   1.363   4.165
 4508TIP3   OH213529   5.654   3.395   3.174
 4508TIP3    H113530   5.725   3.357   3.225
 4508TIP3    H213531   5.585   3.414   3.238
 4509TIP3   OH213532   5.526   4.487   0.518
 4509TIP3    H113533   5.493   4.407   0.477
 4509TIP3    H213534   5.455   4.515   0.576
 4510TIP3   OH213535   3.095   2.974   0.104
 4510TIP3    H113536   3.099   3.067   0.080
 4510TIP3    H213537   3.178   2.938   0.072
 4511TIP3   OH213538   2.773   0.560   2.987
 4511TIP3    H113539   2.684   0.545   3.020
 4511TIP3    H213540   2.822   0.588   3.064
 4512TIP3   OH213541   4.692   0.753   4.729
 4512TIP3    H113542   4.717   0.688   4.795
 4512TIP3    H213543   4.774   0.777   4.686
 4513TIP3   OH213544   3.498   5.392   0.267
 4513TIP3    H113545   3.544   5.383   0.350
 4513TIP3    H213546   3.501   5.486   0.248
 4514TIP3   OH213547   4.559   1.364   4.251
 4514TIP3    H113548   4.523   1.449   4.224
 4514TIP3    H213549   4.618   1.386   4.324
 4515TIP3   OH213550   4.305   0.142   4.225
 4515TIP3    H113551   4.254   0.078   4.274
 4515TIP3    H213552   4.335   0.205   4.291
 4516TIP3   OH213553   3.337   2.100   0.768
 4516TIP3    H113554   3.264   2.161   0.782
 4516TIP3    H213555   3.317   2.057   0.685
 4517TIP3   OH213556   1.858   1.409   0.447
 4517TIP3    H113557   1.850   1.488   0.501
 4517TIP3    H213558   1.773   1.401   0.404
 4518TIP3   OH213559   2.030   2.278   3.987
 4518TIP3    H113560   2.067   2.363   3.964
 4518TIP3    H213561   1.937   2.287   3.969
 4519TIP3   OH213562   0.189   1.111   1.849
 4519TIP3    H113563   0.266   1.056   1.838
 4519TIP3    H213564   0.221   1.200   1.838
 4520TIP3   OH213565   0.575   1.888   4.900
 4520TIP3    H113566   0.556   1.794   4.910
 4520TIP3    H213567   0.670   1.892   4.889
 4521TIP3   OH213568   2.566   3.381   3.493
 4521TIP3    H113569   2.581   3.315   3.561
 4521TIP3    H213570   2.595   3.338   3.413
 4522TIP3   OH213571   5.208   3.581   4.848
 4522TIP3    H113572   5.153   3.580   4.769
 4522TIP3    H213573   5.164   3.641   4.907
 4523TIP3   OH213574   4.535   2.718   4.033
 4523TIP3    H113575   4.547   2.650   4.099
 4523TIP3    H213576   4.443   2.710   4.008
 4524TIP3   OH213577   1.017   2.386   1.426
 4524TIP3    H113578   0.972   2.470   1.438
 4524TIP3    H213579   1.035   2.382   1.333
 4525TIP3   OH213580   0.926   2.050   1.780
 4525TIP3    H113581   0.924   1.955   1.767
 4525TIP3    H213582   0.984   2.083   1.712
 4526TIP3   OH213583   5.030   0.675   0.430
 4526TIP3    H113584   5.032   0.582   0.450
 4526TIP3    H213585   4.960   0.710   0.485
 4527TIP3   OH213586   3.216   2.860   4.504
 4527TIP3    H113587   3.204   2.884   4.412
 4527TIP3    H213588   3.177   2.932   4.553
 4528TIP3   OH213589   4.219   3.970   4.669
 4528TIP3    H113590   4.178   3.888   4.644
 4528TIP3    H213591   4.250   4.008   4.587
 4529TIP3   OH213592   0.780   0.757   1.261
 4529TIP3    H113593   0.746   0.808   1.187
 4529TIP3    H213594   0.823   0.822   1.317
 4530TIP3   OH213595   5.950   4.151   4.059
 4530TIP3    H113596   6.002   4.110   3.990
 4530TIP3    H213597   5.859   4.134   4.035
 4531TIP3   OH213598   4.560   0.519   2.901
 4531TIP3    H113599   4.568   0.424   2.900
 4531TIP3    H213600   4.471   0.537   2.873
 4532TIP3   OH213601   2.489   3.164   4.457
 4532TIP3    H113602   2.510   3.172   4.550
 4532TIP3    H213603   2.396   3.184   4.452
 4533TIP3   OH213604   3.840   0.410   5.108
 4533TIP3    H113605   3.890   0.481   5.148
 4533TIP3    H213606   3.850   0.337   5.169
 4534TIP3   OH213607   0.261   0.585   0.561
 4534TIP3    H113608   0.319   0.639   0.507
 4534TIP3    H213609   0.185   0.568   0.506
 4535TIP3   OH213610   1.492   1.705   4.429
 4535TIP3    H113611   1.572   1.712   4.482
 4535TIP3    H213612   1.421   1.723   4.490
 4536TIP3   OH213613   5.270   5.217   1.796
 4536TIP3    H113614   5.256   5.175   1.880
 4536TIP3    H213615   5.358   5.187   1.769
 4537TIP3   OH213616   5.029   3.618   0.108
 4537TIP3    H113617   5.120   3.606   0.080
 4537TIP3    H213618   4.977   3.593   0.032
 4538TIP3   OH213619   5.755   1.162   4.695
 4538TIP3    H113620   5.842   1.171   4.735
 4538TIP3    H213621   5.773   1.148   4.602
 4539TIP3   OH213622   2.840   1.360   3.976
 4539TIP3    H113623   2.891   1.294   3.930
 4539TIP3    H213624   2.896   1.387   4.049
 4540TIP3   OH213625   3.588   5.699   4.878
 4540TIP3    H113626   3.606   5.751   4.955
 4540TIP3    H213627   3.607   5.609   4.904
 4541TIP3   OH213628   3.473   4.028   0.278
 4541TIP3    H113629   3.458   3.937   0.253
 4541TIP3    H213630   3.509   4.069   0.199
 4542TIP3   OH213631   6.115   1.437   4.770
 4542TIP3    H113632   6.205   1.436   4.738
 4542TIP3    H213633   6.088   1.529   4.764
 4543TIP3   OH213634   3.326   1.692   4.742
 4543TIP3    H113635   3.315   1.625   4.675
 4543TIP3    H213636   3.416   1.680   4.774
 4544TIP3   OH213637   6.258   1.021   4.112
 4544TIP3    H113638   6.263   1.059   4.025
 4544TIP3    H213639   6.197   1.078   4.160
 4545TIP3   OH213640   6.144   2.880   2.406
 4545TIP3    H113641   6.222   2.877   2.461
 4545TIP3    H213642   6.163   2.948   2.341
 4546TIP3   OH213643   4.545   0.095   5.014
 4546TIP3    H113644   4.581   0.074   4.928
 4546TIP3    H213645   4.620   0.090   5.074
 4547TIP3   OH213646   2.916   0.575   3.714
 4547TIP3    H113647   2.988   0.513   3.703
 4547TIP3    H213648   2.861   0.562   3.638
 4548TIP3   OH213649   2.644   2.910   3.877
 4548TIP3    H113650   2.639   2.816   3.894
 4548TIP3    H213651   2.689   2.916   3.793
 4549TIP3   OH213652   3.941   4.732   2.873
 4549TIP3    H113653   4.005   4.704   2.939
 4549TIP3    H213654   3.970   4.819   2.847
 4550TIP3   OH213655   2.124   1.906   1.701
 4550TIP3    H113656   2.108   1.899   1.795
 4550TIP3    H213657   2.040   1.935   1.665
 4551TIP3   OH213658   2.195   4.493   0.731
 4551TIP3    H113659   2.155   4.520   0.649
 4551TIP3    H213660   2.124   4.452   0.780
 4552TIP3   OH213661   4.832   3.639   4.395
 4552TIP3    H113662   4.783   3.603   4.321
 4552TIP3    H213663   4.803   3.588   4.470
 4553TIP3   OH213664   6.068   5.408   1.411
 4553TIP3    H113665   5.979   5.438   1.429
 4553TIP3    H213666   6.121   5.487   1.416
 4554TIP3   OH213667   5.815   4.272   0.877
 4554TIP3    H113668   5.784   4.341   0.819
 4554TIP3    H213669   5.839   4.200   0.818
 4555TIP3   OH213670   4.863   4.427   2.443
 4555TIP3    H113671   4.927   4.369   2.402
 4555TIP3    H213672   4.779   4.398   2.409
 4556TIP3   OH213673   4.930   1.844   4.194
 4556TIP3    H113674   4.952   1.855   4.287
 4556TIP3    H213675   4.865   1.913   4.177
 4557TIP3   OH213676   5.292   5.067   4.635
 4557TIP3    H113677   5.254   5.087   4.720
 4557TIP3    H213678   5.240   5.118   4.573
 4558TIP3   OH213679   1.161   5.065   0.353
 4558TIP3    H113680   1.068   5.053   0.371
 4558TIP3    H213681   1.165   5.077   0.258
 4559TIP3   OH213682   4.224   3.094   1.900
 4559TIP3    H113683   4.214   3.148   1.979
 4559TIP3    H213684   4.142   3.105   1.852
 4560TIP3   OH213685   5.265   2.233   4.171
 4560TIP3    H113686   5.218   2.235   4.254
 4560TIP3    H213687   5.357   2.225   4.196
 4561TIP3   OH213688   0.546   2.772   1.400
 4561TIP3    H113689   0.492   2.730   1.467
 4561TIP3    H213690   0.617   2.711   1.384
 4562TIP3   OH213691   1.035   5.864   5.030
 4562TIP3    H113692   1.057   5.948   5.070
 4562TIP3    H213693   1.046   5.878   4.936
 4563TIP3   OH213694   1.062   2.155   1.551
 4563TIP3    H113695   1.031   2.241   1.525
 4563TIP3    H213696   1.120   2.127   1.480
 4564TIP3   OH213697   4.636   2.787   4.836
 4564TIP3    H113698   4.701   2.749   4.895
 4564TIP3    H213699   4.604   2.713   4.785
 4565TIP3   OH213700   0.274   5.916   0.501
 4565TIP3    H113701   0.259   5.827   0.535
 4565TIP3    H213702   0.234   5.916   0.414
 4566TIP3   OH213703   0.451   5.179   2.266
 4566TIP3    H113704   0.509   5.112   2.303
 4566TIP3    H213705   0.473   5.180   2.173
 4567TIP3   OH213706   6.152   5.188   1.245
 4567TIP3    H113707   6.071   5.231   1.273
 4567TIP3    H213708   6.183   5.140   1.322
 4568TIP3   OH213709   2.344   4.925   3.861
 4568TIP3    H113710   2.403   4.999   3.845
 4568TIP3    H213711   2.306   4.943   3.947
 4569TIP3   OH213712   3.680   4.372   0.787
 4569TIP3    H113713   3.685   4.465   0.811
 4569TIP3    H213714   3.636   4.371   0.702
 4570TIP3   OH213715   1.742   4.738   3.554
 4570TIP3    H113716   1.717   4.797   3.483
 4570TIP3    H213717   1.831   4.710   3.532
 4571TIP3   OH213718   3.809   1.882   4.048
 4571TIP3    H113719   3.802   1.791   4.080
 4571TIP3    H213720   3.898   1.888   4.014
 4572TIP3   OH213721   3.990   4.768   3.284
 4572TIP3    H113722   3.977   4.863   3.283
 4572TIP3    H213723   4.028   4.748   3.198
 4573TIP3   OH213724   2.845   1.705   1.162
 4573TIP3    H113725   2.874   1.646   1.093
 4573TIP3    H213726   2.821   1.786   1.117
 4574TIP3   OH213727   2.716   1.949   0.746
 4574TIP3    H113728   2.650   1.912   0.686
 4574TIP3    H213729   2.754   2.022   0.698
 4575TIP3   OH213730   1.005   2.731   0.111
 4575TIP3    H113731   0.948   2.800   0.146
 4575TIP3    H213732   1.007   2.748   0.017
 4576TIP3   OH213733   5.960   3.434   1.671
 4576TIP3    H113734   5.941   3.380   1.593
 4576TIP3    H213735   6.043   3.399   1.704
 4577TIP3   OH213736   0.897   4.088   4.722
 4577TIP3    H113737   0.937   4.020   4.776
 4577TIP3    H213738   0.838   4.041   4.663
 4578TIP3   OH213739   1.331   4.170   0.075
 4578TIP3    H113740   1.370   4.152   0.161
 4578TIP3    H213741   1.404   4.204   0.023
 4579TIP3   OH213742   4.370   2.475   0.990
 4579TIP3    H113743   4.346   2.564   0.963
 4579TIP3    H213744   4.306   2.452   1.056
 4580TIP3   OH213745   3.790   2.633   3.344
 4580TIP3    H113746   3.699   2.633   3.313
 4580TIP3    H213747   3.806   2.542   3.370
 4581TIP3   OH213748   5.299   3.358   0.184
 4581TIP3    H113749   5.303   3.441   0.137
 4581TIP3    H213750   5.207   3.332   0.179
 4582TIP3   OH213751   2.797   3.414   3.266
 4582TIP3    H113752   2.797   3.509   3.280
 4582TIP3    H213753   2.721   3.398   3.211
 4583TIP3   OH213754   1.073   4.223   0.155
 4583TIP3    H113755   1.154   4.190   0.117
 4583TIP3    H213756   1.102   4.281   0.226
 4584TIP3   OH213757   5.414   4.573   1.652
 4584TIP3    H113758   5.319   4.585   1.649
 4584TIP3    H213759   5.450   4.660   1.633
 4585TIP3   OH213760   1.574   3.014   4.886
 4585TIP3    H113761   1.503   3.034   4.826
 4585TIP3    H213762   1.621   3.096   4.897
 4586TIP3   OH213763   3.868   4.426   3.734
 4586TIP3    H113764   3.818   4.476   3.669
 4586TIP3    H213765   3.868   4.336   3.700
 4587TIP3   OH213766   5.802   4.775   2.279
 4587TIP3    H113767   5.825   4.794   2.369
 4587TIP3    H213768   5.884   4.746   2.238
 4588TIP3   OH213769   2.515   3.672   2.206
 4588TIP3    H113770   2.441   3.668   2.266
 4588TIP3    H213771   2.584   3.715   2.256
 4589TIP3   OH213772   1.705   4.891   2.641
 4589TIP3    H113773   1.748   4.975   2.654
 4589TIP3    H213774   1.628   4.894   2.698
 4590TIP3   OH213775   4.007   4.145   3.010
 4590TIP3    H113776   3.984   4.152   2.917
 4590TIP3    H213777   4.034   4.054   3.022
 4591TIP3   OH213778   5.555   0.348   0.506
 4591TIP3    H113779   5.648   0.334   0.488
 4591TIP3    H213780   5.535   0.431   0.463
 4592TIP3   OH213781   1.930   5.200   0.441
 4592TIP3    H113782   1.835   5.208   0.432
 4592TIP3    H213783   1.943   5.143   0.516
 4593TIP3   OH213784   1.751   0.762   0.284
 4593TIP3    H113785   1.795   0.769   0.199
 4593TIP3    H213786   1.791   0.686   0.326
 4594TIP3   OH213787   4.295   5.687   4.153
 4594TIP3    H113788   4.337   5.744   4.218
 4594TIP3    H213789   4.368   5.651   4.103
 4595TIP3   OH213790   4.804   0.163   5.077
 4595TIP3    H113791   4.880   0.106   5.080
 4595TIP3    H213792   4.819   0.220   5.001
 4596TIP3   OH213793   5.173   2.665   1.656
 4596TIP3    H113794   5.220   2.597   1.705
 4596TIP3    H213795   5.233   2.687   1.584
 4597TIP3   OH213796   1.826   4.444   0.357
 4597TIP3    H113797   1.786   4.434   0.271
 4597TIP3    H213798   1.899   4.382   0.357
 4598TIP3   OH213799   1.565   3.943   1.544
 4598TIP3    H113800   1.562   3.851   1.519
 4598TIP3    H213801   1.612   3.985   1.472
 4599TIP3   OH213802   3.214   1.342   3.476
 4599TIP3    H113803   3.166   1.396   3.413
 4599TIP3    H213804   3.257   1.405   3.534
 4600TIP3   OH213805   4.663   1.921   3.436
 4600TIP3    H113806   4.584   1.921   3.382
 4600TIP3    H213807   4.717   1.851   3.400
 4601TIP3   OH213808   1.357   3.948   2.438
 4601TIP3    H113809   1.430   3.941   2.376
 4601TIP3    H213810   1.333   3.857   2.458
 4602TIP3   OH213811   5.567   1.194   3.316
 4602TIP3    H113812   5.547   1.186   3.409
 4602TIP3    H213813   5.662   1.186   3.311
 4603TIP3   OH213814   1.562   5.629   1.513
 4603TIP3    H113815   1.608   5.590   1.438
 4603TIP3    H213816   1.527   5.712   1.479
 4604TIP3   OH213817   3.341   0.863   1.883
 4604TIP3    H113818   3.350   0.899   1.971
 4604TIP3    H213819   3.345   0.768   1.895
 4605TIP3   OH213820   3.609   1.103   3.191
 4605TIP3    H113821   3.535   1.153   3.225
 4605TIP3    H213822   3.675   1.108   3.260
 4606TIP3   OH213823   1.236   2.963   4.014
 4606TIP3    H113824   1.150   2.965   4.055
 4606TIP3    H213825   1.296   2.941   4.085
 4607TIP3   OH213826   2.305   3.247   3.361
 4607TIP3    H113827   2.399   3.231   3.358
 4607TIP3    H213828   2.292   3.301   3.438
 4608TIP3   OH213829   1.400   2.099   4.726
 4608TIP3    H113830   1.385   2.108   4.820
 4608TIP3    H213831   1.466   2.165   4.706
 4609TIP3   OH213832   2.475   4.076   4.515
 4609TIP3    H113833   2.568   4.086   4.496
 4609TIP3    H213834   2.466   4.104   4.606
 4610TIP3   OH213835   3.763   1.805   0.053
 4610TIP3    H113836   3.761   1.737   0.120
 4610TIP3    H213837   3.832   1.777  -0.008
 4611TIP3   OH213838   6.322   5.542   5.057
 4611TIP3    H113839   6.260   5.578   5.120
 4611TIP3    H213840   6.405   5.537   5.106
 4612TIP3   OH213841   4.190   5.880   2.261
 4612TIP3    H113842   4.218   5.900   2.350
 4612TIP3    H213843   4.219   5.954   2.208
 4613TIP3   OH213844   3.015   0.488   0.010
 4613TIP3    H113845   3.065   0.409   0.029
 4613TIP3    H213846   3.080   0.559   0.014
 4614TIP3   OH213847   5.038   5.787   1.057
 4614TIP3    H113848   4.971   5.817   0.995
 4614TIP3    H213849   5.058   5.698   1.028
 4615TIP3   OH213850   2.097   3.909   2.910
 4615TIP3    H113851   2.068   3.863   2.988
 4615TIP3    H213852   2.029   3.974   2.894
 4616TIP3   OH213853   6.441   2.449   1.469
 4616TIP3    H113854   6.388   2.519   1.431
 4616TIP3    H213855   6.389   2.370   1.456
 4617TIP3   OH213856   5.048   4.942   1.973
 4617TIP3    H113857   5.115   4.904   1.917
 4617TIP3    H213858   4.969   4.892   1.954
 4618TIP3   OH213859   0.688   2.888   4.417
 4618TIP3    H113860   0.667   2.794   4.419
 4618TIP3    H213861   0.705   2.911   4.508
 4619TIP3   OH213862   2.689   3.279   3.928
 4619TIP3    H113863   2.684   3.196   3.975
 4619TIP3    H213864   2.737   3.337   3.988
 4620TIP3   OH213865   2.686   5.339   1.533
 4620TIP3    H113866   2.688   5.422   1.486
 4620TIP3    H213867   2.673   5.365   1.625
 4621TIP3   OH213868   3.820   2.635   4.823
 4621TIP3    H113869   3.732   2.665   4.848
 4621TIP3    H213870   3.878   2.703   4.857
 4622TIP3   OH213871   5.750   3.620   3.439
 4622TIP3    H113872   5.794   3.655   3.517
 4622TIP3    H213873   5.742   3.526   3.458
 4623TIP3   OH213874   4.426   3.294   0.778
 4623TIP3    H113875   4.487   3.322   0.709
 4623TIP3    H213876   4.349   3.263   0.731
 4624TIP3   OH213877   5.334   5.943   1.341
 4624TIP3    H113878   5.333   5.885   1.417
 4624TIP3    H213879   5.304   5.888   1.268
 4625TIP3   OH213880   0.863   5.764   2.086
 4625TIP3    H113881   0.877   5.770   1.992
 4625TIP3    H213882   0.778   5.722   2.096
 4626TIP3   OH213883   6.022   0.880   1.720
 4626TIP3    H113884   6.027   0.971   1.689
 4626TIP3    H213885   5.957   0.839   1.663
 4627TIP3   OH213886   0.425   0.068   4.113
 4627TIP3    H113887   0.454   0.030   4.030
 4627TIP3    H213888   0.459   0.158   4.112
 4628TIP3   OH213889   0.166   4.855   0.772
 4628TIP3    H113890   0.141   4.880   0.861
 4628TIP3    H213891   0.260   4.838   0.777
 4629TIP3   OH213892   0.844   5.091   0.853
 4629TIP3    H113893   0.855   5.138   0.770
 4629TIP3    H213894   0.822   5.002   0.827
 4630TIP3   OH213895   3.971   5.328   1.280
 4630TIP3    H113896   4.059   5.323   1.318
 4630TIP3    H213897   3.918   5.368   1.348
 4631TIP3   OH213898   1.831   5.431   0.848
 4631TIP3    H113899   1.899   5.363   0.851
 4631TIP3    H213900   1.803   5.441   0.939
 4632TIP3   OH213901   1.058   0.399   4.485
 4632TIP3    H113902   1.057   0.480   4.435
 4632TIP3    H213903   0.966   0.379   4.502
 4633TIP3   OH213904   0.750   5.275   0.465
 4633TIP3    H113905   0.832   5.235   0.496
 4633TIP3    H213906   0.728   5.338   0.533
 4634TIP3   OH213907   5.967   0.819   4.783
 4634TIP3    H113908   5.982   0.725   4.773
 4634TIP3    H213909   5.890   0.837   4.729
 4635TIP3   OH213910   3.557   2.521   4.535
 4635TIP3    H113911   3.498   2.450   4.507
 4635TIP3    H213912   3.501   2.597   4.545
 4636TIP3   OH213913   6.162   3.708   1.721
 4636TIP3    H113914   6.204   3.637   1.770
 4636TIP3    H213915   6.101   3.663   1.662
 4637TIP3   OH213916   6.012   0.981   2.864
 4637TIP3    H113917   6.079   1.049   2.857
 4637TIP3    H213918   5.999   0.969   2.958
 4638TIP3   OH213919   3.290   1.536   4.098
 4638TIP3    H113920   3.373   1.510   4.136
 4638TIP3    H213921   3.290   1.632   4.103
 4639TIP3   OH213922   3.006   3.808   1.404
 4639TIP3    H113923   2.920   3.845   1.424
 4639TIP3    H213924   2.986   3.720   1.370
 4640TIP3   OH213925   3.737   3.641   2.486
 4640TIP3    H113926   3.644   3.622   2.472
 4640TIP3    H213927   3.738   3.710   2.552
 4641TIP3   OH213928   1.491   5.438   3.232
 4641TIP3    H113929   1.515   5.476   3.147
 4641TIP3    H213930   1.502   5.509   3.295
 4642TIP3   OH213931   5.860   5.331   3.248
 4642TIP3    H113932   5.817   5.301   3.328
 4642TIP3    H213933   5.928   5.391   3.278
 4643TIP3   OH213934   0.320   2.035   3.083
 4643TIP3    H113935   0.269   2.110   3.054
 4643TIP3    H213936   0.305   2.030   3.177
 4644TIP3   OH213937   2.406   4.688   4.956
 4644TIP3    H113938   2.459   4.658   4.882
 4644TIP3    H213939   2.356   4.611   4.984
 4645TIP3   OH213940   5.029   5.221   2.391
 4645TIP3    H113941   5.082   5.152   2.432
 4645TIP3    H213942   4.949   5.223   2.443
 4646TIP3   OH213943   3.005   4.223   4.296
 4646TIP3    H113944   3.055   4.171   4.360
 4646TIP3    H213945   3.072   4.257   4.236
 4647TIP3   OH213946   6.320   5.882   0.898
 4647TIP3    H113947   6.337   5.788   0.910
 4647TIP3    H213948   6.246   5.900   0.957
 4648TIP3   OH213949   6.136   0.860   0.345
 4648TIP3    H113950   6.053   0.908   0.335
 4648TIP3    H213951   6.182   0.907   0.415
 4649TIP3   OH213952   1.167   1.289   0.470
 4649TIP3    H113953   1.148   1.303   0.563
 4649TIP3    H213954   1.081   1.285   0.429
 4650TIP3   OH213955   6.016   1.965   2.611
 4650TIP3    H113956   6.081   1.997   2.548
 4650TIP3    H213957   6.058   1.889   2.651
 4651TIP3   OH213958   4.184   0.693   4.714
 4651TIP3    H113959   4.197   0.599   4.704
 4651TIP3    H213960   4.270   0.731   4.694
 4652TIP3   OH213961   6.288   0.428   2.971
 4652TIP3    H113962   6.351   0.410   3.041
 4652TIP3    H213963   6.202   0.412   3.011
 4653TIP3   OH213964   1.892   0.687   5.116
 4653TIP3    H113965   1.838   0.645   5.050
 4653TIP3    H213966   1.968   0.629   5.125
 4654TIP3   OH213967   5.470   4.251   0.814
 4654TIP3    H113968   5.479   4.163   0.849
 4654TIP3    H213969   5.468   4.308   0.891
 4655TIP3   OH213970   5.202   5.783   3.142
 4655TIP3    H113971   5.183   5.745   3.056
 4655TIP3    H213972   5.227   5.873   3.124
 4656TIP3   OH213973   1.168   5.442   0.107
 4656TIP3    H113974   1.098   5.483   0.158
 4656TIP3    H213975   1.131   5.431   0.020
 4657TIP3   OH213976   3.153   3.337   0.858
 4657TIP3    H113977   3.129   3.245   0.868
 4657TIP3    H213978   3.214   3.354   0.930
 4658TIP3   OH213979   4.470   1.633   4.090
 4658TIP3    H113980   4.532   1.696   4.054
 4658TIP3    H213981   4.471   1.559   4.029
 4659TIP3   OH213982   3.124   3.069   0.972
 4659TIP3    H113983   3.070   3.036   1.043
 4659TIP3    H213984   3.209   3.025   0.983
 4660TIP3   OH213985   4.493   0.133   1.286
 4660TIP3    H113986   4.559   0.193   1.253
 4660TIP3    H213987   4.419   0.144   1.227
 4661TIP3   OH213988   1.911   3.384   0.460
 4661TIP3    H113989   1.934   3.369   0.552
 4661TIP3    H213990   1.969   3.455   0.432
 4662TIP3   OH213991   2.120   2.172   1.145
 4662TIP3    H113992   2.158   2.100   1.195
 4662TIP3    H213993   2.069   2.221   1.209
 4663TIP3   OH213994   5.929   2.543   5.052
 4663TIP3    H113995   5.893   2.625   5.019
 4663TIP3    H213996   5.852   2.487   5.067
 4664TIP3   OH213997   1.975   3.484   0.053
 4664TIP3    H113998   2.038   3.443   0.113
 4664TIP3    H213999   1.898   3.501   0.108
 4665TIP3   OH214000   6.047   1.111   1.600
 4665TIP3    H114001   5.986   1.185   1.604
 4665TIP3    H214002   6.032   1.072   1.514
 4666TIP3   OH214003   1.513   0.355   5.042
 4666TIP3    H114004   1.448   0.355   4.972
 4666TIP3    H214005   1.463   0.333   5.121
 4667TIP3   OH214006   5.087   5.757   1.672
 4667TIP3    H114007   5.045   5.726   1.752
 4667TIP3    H214008   5.041   5.839   1.651
 4668TIP3   OH214009   2.196   1.598   4.151
 4668TIP3    H114010   2.198   1.504   4.136
 4668TIP3    H214011   2.266   1.633   4.096
 4669TIP3   OH214012   3.148   1.506   5.010
 4669TIP3    H114013   3.057   1.518   5.038
 4669TIP3    H214014   3.192   1.587   5.035
 4670TIP3   OH214015   0.448   5.571   4.390
 4670TIP3    H114016   0.401   5.622   4.324
 4670TIP3    H214017   0.408   5.484   4.387
 4671TIP3   OH214018   4.301   1.677   4.319
 4671TIP3    H114019   4.363   1.675   4.246
 4671TIP3    H214020   4.218   1.703   4.280
 4672TIP3   OH214021   5.843   3.479   1.041
 4672TIP3    H114022   5.750   3.501   1.045
 4672TIP3    H214023   5.852   3.430   0.959
 4673TIP3   OH214024   2.288   1.612   4.535
 4673TIP3    H114025   2.327   1.599   4.448
 4673TIP3    H214026   2.206   1.564   4.531
 4674TIP3   OH214027   2.951   0.608   3.188
 4674TIP3    H114028   3.038   0.577   3.162
 4674TIP3    H214029   2.955   0.616   3.283
 4675TIP3   OH214030   3.199   2.522   2.350
 4675TIP3    H114031   3.219   2.488   2.438
 4675TIP3    H214032   3.174   2.613   2.364
 4676TIP3   OH214033   3.972   3.457   3.272
 4676TIP3    H114034   3.952   3.550   3.260
 4676TIP3    H214035   4.066   3.450   3.252
 4677TIP3   OH214036   2.317   1.341   4.281
 4677TIP3    H114037   2.342   1.308   4.195
 4677TIP3    H214038   2.367   1.421   4.291
 4678TIP3   OH214039   1.687   4.889   4.046
 4678TIP3    H114040   1.640   4.850   3.972
 4678TIP3    H214041   1.738   4.817   4.083
 4679TIP3   OH214042   2.571   4.378   4.531
 4679TIP3    H114043   2.521   4.397   4.452
 4679TIP3    H214044   2.653   4.340   4.500
 4680TIP3   OH214045   2.440   0.194   0.368
 4680TIP3    H114046   2.419   0.108   0.333
 4680TIP3    H214047   2.406   0.192   0.458
 4681TIP3   OH214048   5.495   5.554   4.769
 4681TIP3    H114049   5.408   5.530   4.800
 4681TIP3    H214050   5.552   5.541   4.845
 4682TIP3   OH214051   1.196   3.996   0.914
 4682TIP3    H114052   1.278   3.945   0.912
 4682TIP3    H214053   1.128   3.933   0.890
 4683TIP3   OH214054   4.548   5.133   4.878
 4683TIP3    H114055   4.569   5.134   4.971
 4683TIP3    H214056   4.534   5.224   4.855
 4684TIP3   OH214057   2.126   5.083   2.558
 4684TIP3    H114058   2.150   5.026   2.485
 4684TIP3    H214059   2.070   5.029   2.614
 4685TIP3   OH214060   4.487   3.982   1.445
 4685TIP3    H114061   4.498   4.061   1.498
 4685TIP3    H214062   4.479   3.911   1.509
 4686TIP3   OH214063   0.559   2.755   2.508
 4686TIP3    H114064   0.491   2.723   2.567
 4686TIP3    H214065   0.632   2.779   2.565
 4687TIP3   OH214066   0.894   4.600   4.473
 4687TIP3    H114067   0.904   4.517   4.518
 4687TIP3    H214068   0.844   4.579   4.394
 4688TIP3   OH214069   1.061   4.076   0.614
 4688TIP3    H114070   1.044   4.005   0.676
 4688TIP3    H214071   0.974   4.105   0.586
 4689TIP3   OH214072   1.552   0.565   2.351
 4689TIP3    H114073   1.551   0.639   2.413
 4689TIP3    H214074   1.541   0.606   2.265
 4690TIP3   OH214075   1.742   3.888   2.272
 4690TIP3    H114076   1.771   3.798   2.260
 4690TIP3    H214077   1.809   3.927   2.328
 4691TIP3   OH214078   0.075   1.734   5.199
 4691TIP3    H114079   0.120   1.649   5.194
 4691TIP3    H214080   0.066   1.762   5.108
 4692TIP3   OH214081   1.036   1.890   0.257
 4692TIP3    H114082   1.091   1.902   0.335
 4692TIP3    H214083   0.960   1.840   0.289
 4693TIP3   OH214084   2.597   0.558   3.772
 4693TIP3    H114085   2.613   0.501   3.697
 4693TIP3    H214086   2.521   0.610   3.747
 4694TIP3   OH214087   3.959   3.003   3.390
 4694TIP3    H114088   3.977   2.958   3.308
 4694TIP3    H214089   3.895   3.070   3.366
 4695TIP3   OH214090   5.493   2.872   1.247
 4695TIP3    H114091   5.398   2.871   1.241
 4695TIP3    H214092   5.523   2.877   1.156
 4696TIP3   OH214093   1.515   5.879   1.388
 4696TIP3    H114094   1.470   5.964   1.384
 4696TIP3    H214095   1.554   5.869   1.302
 4697TIP3   OH214096   2.333   3.634   1.788
 4697TIP3    H114097   2.333   3.701   1.719
 4697TIP3    H214098   2.363   3.680   1.866
 4698TIP3   OH214099   0.092   2.205   3.638
 4698TIP3    H114100   0.135   2.223   3.554
 4698TIP3    H214101   0.032   2.279   3.649
 4699TIP3   OH214102   0.651   4.403   4.553
 4699TIP3    H114103   0.594   4.456   4.609
 4699TIP3    H214104   0.716   4.367   4.614
 4700TIP3   OH214105   5.496   4.241   5.116
 4700TIP3    H114106   5.548   4.190   5.054
 4700TIP3    H214107   5.534   4.329   5.114
 4701TIP3   OH214108   4.602   0.665   1.711
 4701TIP3    H114109   4.573   0.606   1.780
 4701TIP3    H214110   4.586   0.616   1.630
 4702TIP3   OH214111   1.497   2.035   0.561
 4702TIP3    H114112   1.509   2.041   0.466
 4702TIP3    H214113   1.530   1.948   0.583
 4703TIP3   OH214114   5.882   0.508   1.325
 4703TIP3    H114115   5.951   0.445   1.348
 4703TIP3    H214116   5.874   0.501   1.230
 4704TIP3   OH214117   5.562   1.112   3.591
 4704TIP3    H114118   5.556   1.146   3.680
 4704TIP3    H214119   5.524   1.024   3.597
 4705TIP3   OH214120   3.414   4.847   3.243
 4705TIP3    H114121   3.330   4.883   3.212
 4705TIP3    H214122   3.474   4.921   3.242
 4706TIP3   OH214123   0.040   3.362   1.725
 4706TIP3    H114124   0.066   3.450   1.696
 4706TIP3    H214125   0.101   3.341   1.795
 4707TIP3   OH214126   5.078   5.523   0.054
 4707TIP3    H114127   5.100   5.595  -0.006
 4707TIP3    H214128   5.022   5.564   0.120
 4708TIP3   OH214129   4.665   2.538   1.619
 4708TIP3    H114130   4.742   2.512   1.669
 4708TIP3    H214131   4.662   2.477   1.546
 4709TIP3   OH214132   1.440   0.172   2.648
 4709TIP3    H114133   1.357   0.220   2.647
 4709TIP3    H214134   1.473   0.179   2.559
 4710TIP3   OH214135   4.423   1.399   4.802
 4710TIP3    H114136   4.517   1.381   4.805
 4710TIP3    H214137   4.408   1.428   4.712
 4711TIP3   OH214138   5.506   0.090   0.737
 4711TIP3    H114139   5.481   0.182   0.749
 4711TIP3    H214140   5.598   0.095   0.708
 4712TIP3   OH214141   5.957   0.554   4.757
 4712TIP3    H114142   5.993   0.511   4.835
 4712TIP3    H214143   5.899   0.488   4.719
 4713TIP3   OH214144   2.088   4.739   1.361
 4713TIP3    H114145   2.130   4.759   1.445
 4713TIP3    H214146   2.160   4.740   1.298
 4714TIP3   OH214147   6.270   0.407   3.764
 4714TIP3    H114148   6.326   0.431   3.838
 4714TIP3    H214149   6.328   0.412   3.688
 4715TIP3   OH214150   1.854   0.157   4.106
 4715TIP3    H114151   1.835   0.149   4.013
 4715TIP3    H214152   1.805   0.235   4.134
 4716TIP3   OH214153   5.020   4.636   1.952
 4716TIP3    H114154   5.013   4.548   1.914
 4716TIP3    H214155   5.085   4.680   1.898
 4717TIP3   OH214156   4.194   5.292   0.402
 4717TIP3    H114157   4.226   5.375   0.367
 4717TIP3    H214158   4.101   5.291   0.379
 4718TIP3   OH214159   4.893   5.670   3.894
 4718TIP3    H114160   4.889   5.588   3.844
 4718TIP3    H214161   4.866   5.646   3.983
 4719TIP3   OH214162   0.884   5.976   3.874
 4719TIP3    H114163   0.792   5.950   3.882
 4719TIP3    H214164   0.933   5.907   3.919
 4720TIP3   OH214165   2.094   0.968   0.305
 4720TIP3    H114166   2.147   0.959   0.384
 4720TIP3    H214167   2.047   1.051   0.317
 4721TIP3   OH214168   6.009   5.269   2.540
 4721TIP3    H114169   5.939   5.209   2.513
 4721TIP3    H214170   6.036   5.235   2.626
 4722TIP3   OH214171   5.442   1.010   5.094
 4722TIP3    H114172   5.481   1.081   5.145
 4722TIP3    H214173   5.511   0.984   5.033
 4723TIP3   OH214174   0.808   4.304   0.218
 4723TIP3    H114175   0.903   4.292   0.227
 4723TIP3    H214176   0.799   4.366   0.146
 4724TIP3   OH214177   1.264   0.508   4.732
 4724TIP3    H114178   1.267   0.560   4.813
 4724TIP3    H214179   1.198   0.441   4.750
 4725TIP3   OH214180   0.235   2.246   1.340
 4725TIP3    H114181   0.258   2.339   1.345
 4725TIP3    H214182   0.142   2.243   1.360
 4726TIP3   OH214183   1.344   1.053   4.176
 4726TIP3    H114184   1.310   1.002   4.250
 4726TIP3    H214185   1.266   1.090   4.135
 4727TIP3   OH214186   5.919   2.107   4.216
 4727TIP3    H114187   5.832   2.084   4.251
 4727TIP3    H214188   5.951   2.027   4.176
 4728TIP3   OH214189   4.058   0.459   3.270
 4728TIP3    H114190   4.098   0.398   3.332
 4728TIP3    H214191   4.132   0.494   3.220
 4729TIP3   OH214192   2.335   0.096   4.190
 4729TIP3    H114193   2.297   0.024   4.139
 4729TIP3    H214194   2.273   0.168   4.180
 4730TIP3   OH214195   3.551   0.920   3.463
 4730TIP3    H114196   3.646   0.915   3.459
 4730TIP3    H214197   3.521   0.879   3.381
 4731TIP3   OH214198   3.436   2.704   2.376
 4731TIP3    H114199   3.416   2.746   2.293
 4731TIP3    H214200   3.364   2.643   2.390
 4732TIP3   OH214201   1.601   5.599   2.142
 4732TIP3    H114202   1.609   5.539   2.215
 4732TIP3    H214203   1.631   5.549   2.066
 4733TIP3   OH214204   3.953   2.191   2.770
 4733TIP3    H114205   4.046   2.209   2.781
 4733TIP3    H214206   3.910   2.261   2.820
 4734TIP3   OH214207   2.512   4.757   0.266
 4734TIP3    H114208   2.505   4.848   0.296
 4734TIP3    H214209   2.423   4.723   0.271
 4735TIP3   OH214210   1.789   0.093   3.847
 4735TIP3    H114211   1.796  -0.002   3.855
 4735TIP3    H214212   1.753   0.108   3.760
 4736TIP3   OH214213   4.036   5.847   1.972
 4736TIP3    H114214   4.105   5.898   2.013
 4736TIP3    H214215   4.079   5.807   1.895
 4737TIP3   OH214216   1.233   2.617   4.529
 4737TIP3    H114217   1.212   2.525   4.510
 4737TIP3    H214218   1.223   2.625   4.624
 4738TIP3   OH214219   6.188   3.243   1.805
 4738TIP3    H114220   6.195   3.226   1.899
 4738TIP3    H214221   6.270   3.287   1.783
 4739TIP3   OH214222   4.024   2.437   1.319
 4739TIP3    H114223   4.008   2.363   1.377
 4739TIP3    H214224   3.942   2.447   1.270
 4740TIP3   OH214225   2.638   3.751   1.816
 4740TIP3    H114226   2.700   3.821   1.795
 4740TIP3    H214227   2.583   3.788   1.885
 4741TIP3   OH214228   6.067   5.663   2.452
 4741TIP3    H114229   6.049   5.716   2.529
 4741TIP3    H214230   6.155   5.629   2.467
 4742TIP3   OH214231   5.836   2.893   0.166
 4742TIP3    H114232   5.876   2.811   0.194
 4742TIP3    H214233   5.817   2.939   0.247
 4743TIP3   OH214234   5.670   2.002   4.047
 4743TIP3    H114235   5.651   2.090   4.014
 4743TIP3    H214236   5.584   1.963   4.060
 4744TIP3   OH214237   0.993   1.628   0.561
 4744TIP3    H114238   1.000   1.697   0.627
 4744TIP3    H214239   1.076   1.632   0.514
 4745TIP3   OH214240   0.914   1.435   3.148
 4745TIP3    H114241   0.881   1.504   3.205
 4745TIP3    H214242   0.856   1.437   3.072
 4746TIP3   OH214243   5.434   1.411   2.866
 4746TIP3    H114244   5.480   1.494   2.850
 4746TIP3    H214245   5.444   1.396   2.960
 4747TIP3   OH214246   0.528   2.767   2.223
 4747TIP3    H114247   0.528   2.741   2.315
 4747TIP3    H214248   0.495   2.857   2.223
 4748TIP3   OH214249   6.082   4.468   1.298
 4748TIP3    H114250   6.060   4.552   1.258
 4748TIP3    H214251   6.000   4.419   1.299
 4749TIP3   OH214252   2.645   0.691   1.490
 4749TIP3    H114253   2.666   0.760   1.427
 4749TIP3    H214254   2.550   0.696   1.501
 4750TIP3   OH214255   3.087   1.603   2.830
 4750TIP3    H114256   3.027   1.651   2.887
 4750TIP3    H214257   3.064   1.632   2.742
 4751TIP3   OH214258   2.592   1.566   2.374
 4751TIP3    H114259   2.657   1.502   2.403
 4751TIP3    H214260   2.597   1.637   2.439
 4752TIP3   OH214261   1.845   2.009   1.070
 4752TIP3    H114262   1.821   2.048   0.986
 4752TIP3    H214263   1.938   1.988   1.061
 4753TIP3   OH214264   3.625   0.156   2.210
 4753TIP3    H114265   3.652   0.065   2.223
 4753TIP3    H214266   3.669   0.183   2.130
 4754TIP3   OH214267   1.112   4.746   0.581
 4754TIP3    H114268   1.095   4.762   0.673
 4754TIP3    H214269   1.049   4.678   0.556
 4755TIP3   OH214270   0.422   2.953   3.977
 4755TIP3    H114271   0.500   2.898   3.974
 4755TIP3    H214272   0.352   2.898   3.941
 4756TIP3   OH214273   4.328   3.177   1.604
 4756TIP3    H114274   4.319   3.270   1.583
 4756TIP3    H214275   4.419   3.156   1.581
 4757TIP3   OH214276   4.972   1.281   0.721
 4757TIP3    H114277   5.030   1.213   0.756
 4757TIP3    H214278   4.900   1.286   0.783
 4758TIP3   OH214279   0.015   3.883   0.259
 4758TIP3    H114280   0.038   3.814   0.321
 4758TIP3    H214281   0.002   3.837   0.176
 4759TIP3   OH214282   4.596   3.417   0.592
 4759TIP3    H114283   4.686   3.395   0.618
 4759TIP3    H214284   4.570   3.346   0.534
 4760TIP3   OH214285   0.114   2.088   4.284
 4760TIP3    H114286   0.119   2.150   4.357
 4760TIP3    H214287   0.201   2.050   4.278
 4761TIP3   OH214288   3.953   0.751   3.261
 4761TIP3    H114289   3.986   0.814   3.198
 4761TIP3    H214290   3.928   0.675   3.209
 4762TIP3   OH214291   2.355  -0.016   1.249
 4762TIP3    H114292   2.421  -0.083   1.270
 4762TIP3    H214293   2.328   0.018   1.334
 4763TIP3   OH214294   5.626   4.803   0.183
 4763TIP3    H114295   5.589   4.886   0.153
 4763TIP3    H214296   5.554   4.740   0.174
 4764TIP3   OH214297   2.452   4.800   2.060
 4764TIP3    H114298   2.396   4.722   2.064
 4764TIP3    H214299   2.448   4.828   1.968
 4765TIP3   OH214300   3.328   3.963   3.949
 4765TIP3    H114301   3.235   3.970   3.925
 4765TIP3    H214302   3.329   3.973   4.044
 4766TIP3   OH214303   0.870   0.275   3.989
 4766TIP3    H114304   0.798   0.321   3.946
 4766TIP3    H214305   0.848   0.183   3.980
 4767TIP3   OH214306   3.673   5.069   1.272
 4767TIP3    H114307   3.629   4.984   1.266
 4767TIP3    H214308   3.615   5.130   1.226
 4768TIP3   OH214309   0.727   1.912   0.419
 4768TIP3    H114310   0.745   1.830   0.464
 4768TIP3    H214311   0.708   1.887   0.328
 4769TIP3   OH214312   4.103   1.685   4.606
 4769TIP3    H114313   4.029   1.735   4.640
 4769TIP3    H214314   4.088   1.682   4.511
 4770TIP3   OH214315   4.126   3.902   3.041
 4770TIP3    H114316   4.080   3.825   3.006
 4770TIP3    H214317   4.211   3.868   3.070
 4771TIP3   OH214318   1.470   2.668   2.805
 4771TIP3    H114319   1.436   2.732   2.742
 4771TIP3    H214320   1.496   2.720   2.880
 4772TIP3   OH214321   0.983   5.824   1.063
 4772TIP3    H114322   0.973   5.918   1.074
 4772TIP3    H214323   0.902   5.795   1.022
 4773TIP3   OH214324   1.149   1.150   3.516
 4773TIP3    H114325   1.146   1.080   3.582
 4773TIP3    H214326   1.144   1.103   3.433
 4774TIP3   OH214327   0.778   0.717   3.577
 4774TIP3    H114328   0.862   0.680   3.602
 4774TIP3    H214329   0.799   0.800   3.535
 4775TIP3   OH214330   2.209   3.019   4.665
 4775TIP3    H114331   2.191   3.012   4.571
 4775TIP3    H214332   2.123   3.038   4.704
 4776TIP3   OH214333   1.142   3.284   3.837
 4776TIP3    H114334   1.093   3.333   3.903
 4776TIP3    H214335   1.078   3.221   3.803
 4777TIP3   OH214336   0.788   0.242   2.335
 4777TIP3    H114337   0.721   0.310   2.346
 4777TIP3    H214338   0.738   0.164   2.308
 4778TIP3   OH214339   0.042   3.264   4.279
 4778TIP3    H114340  -0.020   3.282   4.350
 4778TIP3    H214341   0.052   3.169   4.280
 4779TIP3   OH214342   5.416   0.978   1.221
 4779TIP3    H114343   5.371   0.897   1.197
 4779TIP3    H214344   5.477   0.951   1.290
 4780TIP3   OH214345   3.029   3.102   1.847
 4780TIP3    H114346   3.123   3.085   1.838
 4780TIP3    H214347   3.021   3.198   1.843
 4781TIP3   OH214348   5.677   5.374   3.725
 4781TIP3    H114349   5.694   5.369   3.819
 4781TIP3    H214350   5.599   5.429   3.718
 4782TIP3   OH214351   2.061   0.995   1.543
 4782TIP3    H114352   2.057   0.946   1.625
 4782TIP3    H214353   1.983   0.968   1.495
 4783TIP3   OH214354   6.043   0.252   2.651
 4783TIP3    H114355   5.958   0.265   2.692
 4783TIP3    H214356   6.060   0.158   2.660
 4784TIP3   OH214357   6.384   5.922   1.960
 4784TIP3    H114358   6.387   5.940   1.866
 4784TIP3    H214359   6.293   5.941   1.984
 4785TIP3   OH214360   4.327   5.709   3.513
 4785TIP3    H114361   4.275   5.637   3.475
 4785TIP3    H214362   4.401   5.665   3.554
 4786TIP3   OH214363   5.075   2.888   2.126
 4786TIP3    H114364   5.016   2.867   2.053
 4786TIP3    H214365   5.063   2.982   2.139
 4787TIP3   OH214366   3.712   0.648   0.072
 4787TIP3    H114367   3.727   0.579   0.007
 4787TIP3    H214368   3.711   0.602   0.156
 4788TIP3   OH214369   5.668   1.534   1.040
 4788TIP3    H114370   5.722   1.516   0.963
 4788TIP3    H214371   5.713   1.606   1.084
 4789TIP3   OH214372   2.832   0.679   1.269
 4789TIP3    H114373   2.774   0.603   1.262
 4789TIP3    H214374   2.912   0.652   1.226
 4790TIP3   OH214375   4.728   0.196   4.252
 4790TIP3    H114376   4.713   0.273   4.196
 4790TIP3    H214377   4.806   0.154   4.214
 4791TIP3   OH214378   1.040   4.185   1.254
 4791TIP3    H114379   0.994   4.203   1.171
 4791TIP3    H214380   0.989   4.232   1.320
 4792TIP3   OH214381   4.665   2.708   2.239
 4792TIP3    H114382   4.673   2.656   2.159
 4792TIP3    H214383   4.735   2.675   2.296
 4793TIP3   OH214384   5.342   2.240   4.697
 4793TIP3    H114385   5.423   2.246   4.748
 4793TIP3    H214386   5.343   2.151   4.661
 4794TIP3   OH214387   5.933   2.008   1.038
 4794TIP3    H114388   5.973   1.978   1.120
 4794TIP3    H214389   5.896   2.094   1.061
 4795TIP3   OH214390   4.476   3.875   1.716
 4795TIP3    H114391   4.541   3.806   1.720
 4795TIP3    H214392   4.495   3.930   1.793
 4796TIP3   OH214393   1.898   3.589   2.986
 4796TIP3    H114394   1.888   3.655   2.917
 4796TIP3    H214395   1.809   3.569   3.014
 4797TIP3   OH214396   1.473   0.417   3.689
 4797TIP3    H114397   1.394   0.441   3.737
 4797TIP3    H214398   1.443   0.351   3.626
 4798TIP3   OH214399   3.309   5.285   4.829
 4798TIP3    H114400   3.246   5.214   4.815
 4798TIP3    H214401   3.306   5.301   4.923
 4799TIP3   OH214402   3.892   3.130   4.484
 4799TIP3    H114403   3.856   3.065   4.422
 4799TIP3    H214404   3.986   3.127   4.468
 4800TIP3   OH214405   1.800   5.159   3.073
 4800TIP3    H114406   1.732   5.167   3.140
 4800TIP3    H214407   1.869   5.220   3.101
 4801TIP3   OH214408   5.414   5.917   2.073
 4801TIP3    H114409   5.350   5.941   2.141
 4801TIP3    H214410   5.470   5.994   2.064
 4802TIP3   OH214411   1.242   3.458   2.672
 4802TIP3    H114412   1.217   3.367   2.656
 4802TIP3    H214413   1.159   3.506   2.670
 4803TIP3   OH214414   2.042   0.212   4.840
 4803TIP3    H114415   2.037   0.269   4.916
 4803TIP3    H214416   1.962   0.159   4.844
 4804TIP3   OH214417   2.072   6.015   3.685
 4804TIP3    H114418   2.098   6.108   3.686
 4804TIP3    H214419   2.115   5.979   3.608
 4805TIP3   OH214420   2.891   2.539   0.996
 4805TIP3    H114421   2.815   2.509   0.947
 4805TIP3    H214422   2.919   2.463   1.047
 4806TIP3   OH214423  -0.027   4.376   3.832
 4806TIP3    H114424   0.021   4.358   3.752
 4806TIP3    H214425   0.031   4.431   3.884
 4807TIP3   OH214426   3.769   4.853   3.925
 4807TIP3    H114427   3.775   4.835   3.831
 4807TIP3    H214428   3.688   4.810   3.951
 4808TIP3   OH214429   1.185   4.413   0.295
 4808TIP3    H114430   1.255   4.442   0.354
 4808TIP3    H214431   1.186   4.478   0.225
 4809TIP3   OH214432   3.788   1.014   4.747
 4809TIP3    H114433   3.707   0.964   4.754
 4809TIP3    H214434   3.788   1.072   4.823
 4810TIP3   OH214435   4.819   5.376   2.504
 4810TIP3    H114436   4.878   5.438   2.463
 4810TIP3    H214437   4.779   5.425   2.577
 4811TIP3   OH214438   3.867   3.836   1.709
 4811TIP3    H114439   3.956   3.861   1.733
 4811TIP3    H214440   3.871   3.741   1.695
 4812TIP3   OH214441   3.235   0.776   1.098
 4812TIP3    H114442   3.169   0.776   1.028
 4812TIP3    H214443   3.201   0.837   1.163
 4813TIP3   OH214444   3.544   3.533   0.678
 4813TIP3    H114445   3.557   3.541   0.583
 4813TIP3    H214446   3.619   3.482   0.708
 4814TIP3   OH214447   4.844   2.333   2.593
 4814TIP3    H114448   4.880   2.259   2.642
 4814TIP3    H214449   4.829   2.299   2.505
 4815TIP3   OH214450   2.935   1.470   0.660
 4815TIP3    H114451   2.896   1.557   0.673
 4815TIP3    H214452   3.014   1.471   0.715
 4816TIP3   OH214453   3.171   2.937   4.926
 4816TIP3    H114454   3.133   3.019   4.957
 4816TIP3    H214455   3.264   2.943   4.951
 4817TIP3   OH214456   2.060   4.498   2.627
 4817TIP3    H114457   2.098   4.585   2.639
 4817TIP3    H214458   2.126   4.438   2.663
 4818TIP3   OH214459   0.742   0.555   1.436
 4818TIP3    H114460   0.720   0.619   1.369
 4818TIP3    H214461   0.788   0.606   1.503
 4819TIP3   OH214462   4.194   2.002   1.011
 4819TIP3    H114463   4.207   1.974   1.101
 4819TIP3    H214464   4.176   2.096   1.017
 4820TIP3   OH214465   2.307   4.777   2.407
 4820TIP3    H114466   2.217   4.742   2.414
 4820TIP3    H214467   2.296   4.866   2.375
 4821TIP3   OH214468   0.944   1.318   5.151
 4821TIP3    H114469   0.897   1.358   5.079
 4821TIP3    H214470   0.982   1.391   5.199
 4822TIP3   OH214471   4.309   2.878   1.423
 4822TIP3    H114472   4.247   2.944   1.452
 4822TIP3    H214473   4.257   2.798   1.416
 4823TIP3   OH214474   0.652   0.396   1.213
 4823TIP3    H114475   0.636   0.464   1.147
 4823TIP3    H214476   0.681   0.444   1.290
 4824TIP3   OH214477   1.524   0.161   0.195
 4824TIP3    H114478   1.581   0.234   0.218
 4824TIP3    H214479   1.448   0.171   0.253
 4825TIP3   OH214480   1.278   5.682  -0.012
 4825TIP3    H114481   1.306   5.611   0.045
 4825TIP3    H214482   1.270   5.641  -0.099
 4826TIP3   OH214483   0.275   0.062   0.957
 4826TIP3    H114484   0.289   0.156   0.948
 4826TIP3    H214485   0.343   0.033   1.019
 4827TIP3   OH214486   0.338   5.197   2.521
 4827TIP3    H114487   0.258   5.146   2.534
 4827TIP3    H214488   0.338   5.219   2.428
 4828TIP3   OH214489   0.635   0.583   1.013
 4828TIP3    H114490   0.703   0.574   0.947
 4828TIP3    H214491   0.633   0.677   1.033
 4829TIP3   OH214492   6.011   2.381   0.595
 4829TIP3    H114493   6.057   2.417   0.519
 4829TIP3    H214494   5.983   2.458   0.645
 4830TIP3   OH214495   4.464   3.135   2.828
 4830TIP3    H114496   4.506   3.061   2.784
 4830TIP3    H214497   4.507   3.212   2.791
 4831TIP3   OH214498   3.266   4.351   4.684
 4831TIP3    H114499   3.254   4.308   4.599
 4831TIP3    H214500   3.184   4.337   4.730
 4832TIP3   OH214501   4.861   3.435   0.686
 4832TIP3    H114502   4.951   3.421   0.714
 4832TIP3    H214503   4.868   3.489   0.607
 4833TIP3   OH214504   0.450   2.354   3.307
 4833TIP3    H114505   0.508   2.336   3.234
 4833TIP3    H214506   0.379   2.407   3.270
 4834TIP3   OH214507   2.210   1.132   3.386
 4834TIP3    H114508   2.271   1.062   3.408
 4834TIP3    H214509   2.244   1.170   3.305
 4835TIP3   OH214510   3.545   1.964   1.610
 4835TIP3    H114511   3.521   1.967   1.517
 4835TIP3    H214512   3.517   1.877   1.638
 4836TIP3   OH214513   3.418   0.767   2.333
 4836TIP3    H114514   3.357   0.812   2.391
 4836TIP3    H214515   3.477   0.836   2.303
 4837TIP3   OH214516   4.790   2.631   0.477
 4837TIP3    H114517   4.758   2.548   0.442
 4837TIP3    H214518   4.779   2.694   0.405
 4838TIP3   OH214519   0.115   5.942   0.277
 4838TIP3    H114520   0.129   5.935   0.183
 4838TIP3    H214521   0.037   5.998   0.286
 4839TIP3   OH214522   0.127   4.481   0.250
 4839TIP3    H114523   0.105   4.460   0.340
 4839TIP3    H214524   0.186   4.412   0.222
 4840TIP3   OH214525   4.678   3.233   4.790
 4840TIP3    H114526   4.697   3.204   4.700
 4840TIP3    H214527   4.724   3.170   4.845
 4841TIP3   OH214528   0.589   5.971   4.374
 4841TIP3    H114529   0.567   5.949   4.283
 4841TIP3    H214530   0.568   6.064   4.383
 4842TIP3   OH214531   2.859   0.715   0.948
 4842TIP3    H114532   2.814   0.634   0.924
 4842TIP3    H214533   2.789   0.772   0.982
 4843TIP3   OH214534   4.905   5.416   0.858
 4843TIP3    H114535   4.914   5.335   0.808
 4843TIP3    H214536   4.937   5.484   0.799
 4844TIP3   OH214537   2.936   5.238   0.900
 4844TIP3    H114538   2.986   5.225   0.981
 4844TIP3    H214539   2.906   5.150   0.876
 4845TIP3   OH214540   3.477   0.888   1.169
 4845TIP3    H114541   3.396   0.845   1.140
 4845TIP3    H214542   3.543   0.859   1.106
 4846TIP3   OH214543   0.732   0.310   3.166
 4846TIP3    H114544   0.826   0.299   3.150
 4846TIP3    H214545   0.725   0.393   3.213
 4847TIP3   OH214546   4.517   5.397   0.789
 4847TIP3    H114547   4.496   5.386   0.696
 4847TIP3    H214548   4.577   5.471   0.792
 4848TIP3   OH214549   3.687   4.749   3.656
 4848TIP3    H114550   3.674   4.655   3.648
 4848TIP3    H214551   3.687   4.782   3.567
 4849TIP3   OH214552   0.670   5.411   2.664
 4849TIP3    H114553   0.601   5.458   2.617
 4849TIP3    H214554   0.743   5.473   2.667
 4850TIP3   OH214555   3.852   0.890   2.805
 4850TIP3    H114556   3.853   0.944   2.726
 4850TIP3    H214557   3.858   0.800   2.772
 4851TIP3   OH214558   1.905   3.679   0.699
 4851TIP3    H114559   1.970   3.642   0.639
 4851TIP3    H214560   1.947   3.674   0.785
 4852TIP3   OH214561   3.140   2.421   2.061
 4852TIP3    H114562   3.129   2.327   2.077
 4852TIP3    H214563   3.133   2.461   2.148
 4853TIP3   OH214564   2.950   2.608   3.352
 4853TIP3    H114565   2.994   2.524   3.341
 4853TIP3    H214566   2.858   2.584   3.365
 4854TIP3   OH214567   3.336   5.346   2.246
 4854TIP3    H114568   3.326   5.277   2.312
 4854TIP3    H214569   3.354   5.425   2.297
 4855TIP3   OH214570   2.645   4.588   0.619
 4855TIP3    H114571   2.732   4.567   0.655
 4855TIP3    H214572   2.584   4.548   0.680
 4856TIP3   OH214573   3.447   5.489   3.868
 4856TIP3    H114574   3.501   5.411   3.851
 4856TIP3    H214575   3.505   5.548   3.916
 4857TIP3   OH214576   6.303   1.634   1.908
 4857TIP3    H114577   6.379   1.692   1.918
 4857TIP3    H214578   6.311   1.571   1.979
 4858TIP3   OH214579   3.868   3.641   3.858
 4858TIP3    H114580   3.884   3.709   3.923
 4858TIP3    H214581   3.842   3.689   3.779
 4859TIP3   OH214582   2.368   5.832   5.105
 4859TIP3    H114583   2.356   5.919   5.068
 4859TIP3    H214584   2.370   5.773   5.029
 4860TIP3   OH214585   6.116   4.511   3.258
 4860TIP3    H114586   6.124   4.421   3.226
 4860TIP3    H214587   6.127   4.565   3.179
 4861TIP3   OH214588   4.079   5.600   2.992
 4861TIP3    H114589   4.008   5.664   2.991
 4861TIP3    H214590   4.046   5.527   2.939
 4862TIP3   OH214591   2.372   2.082   0.651
 4862TIP3    H114592   2.369   2.163   0.601
 4862TIP3    H214593   2.320   2.100   0.729
 4863TIP3   OH214594   3.007   5.671   2.705
 4863TIP3    H114595   3.040   5.754   2.740
 4863TIP3    H214596   3.065   5.651   2.632
 4864TIP3   OH214597   5.862   2.507   0.019
 4864TIP3    H114598   5.859   2.568   0.092
 4864TIP3    H214599   5.898   2.426   0.057
 4865TIP3   OH214600   6.289   1.897   0.138
 4865TIP3    H114601   6.292   1.943   0.222
 4865TIP3    H214602   6.214   1.837   0.146
 4866TIP3   OH214603   5.689   3.597   2.653
 4866TIP3    H114604   5.653   3.533   2.714
 4866TIP3    H214605   5.748   3.651   2.705
 4867TIP3   OH214606   5.408   1.586   4.769
 4867TIP3    H114607   5.462   1.643   4.824
 4867TIP3    H214608   5.465   1.514   4.745
 4868TIP3   OH214609   2.878   5.577   1.265
 4868TIP3    H114610   2.888   5.483   1.280
 4868TIP3    H214611   2.964   5.614   1.284
 4869TIP3   OH214612   3.525   5.273   4.655
 4869TIP3    H114613   3.446   5.267   4.708
 4869TIP3    H214614   3.503   5.228   4.573
 4870TIP3   OH214615   4.072   1.171   4.939
 4870TIP3    H114616   4.098   1.262   4.926
 4870TIP3    H214617   3.976   1.173   4.934
 4871TIP3   OH214618   0.019   4.814   1.486
 4871TIP3    H114619   0.026   4.741   1.547
 4871TIP3    H214620   0.097   4.807   1.431
 4872TIP3   OH214621   0.999   2.217   2.449
 4872TIP3    H114622   0.927   2.204   2.510
 4872TIP3    H214623   0.998   2.310   2.429
 4873TIP3   OH214624   2.397   4.267   4.021
 4873TIP3    H114625   2.414   4.360   4.037
 4873TIP3    H214626   2.375   4.262   3.928
 4874TIP3   OH214627   3.058   0.638   2.261
 4874TIP3    H114628   3.126   0.590   2.309
 4874TIP3    H214629   3.014   0.690   2.329
 4875TIP3   OH214630   4.970   5.949   2.608
 4875TIP3    H114631   4.881   5.924   2.583
 4875TIP3    H214632   5.026   5.896   2.551
 4876TIP3   OH214633   1.568   1.935   3.473
 4876TIP3    H114634   1.607   1.918   3.559
 4876TIP3    H214635   1.603   1.867   3.416
 4877TIP3   OH214636   1.771   3.109   2.513
 4877TIP3    H114637   1.794   3.196   2.545
 4877TIP3    H214638   1.676   3.113   2.498
 4878TIP3   OH214639   0.565   3.739   2.938
 4878TIP3    H114640   0.596   3.799   3.006
 4878TIP3    H214641   0.561   3.654   2.981
 4879TIP3   OH214642   4.850   1.069   0.241
 4879TIP3    H114643   4.847   0.978   0.211
 4879TIP3    H214644   4.835   1.065   0.335
 4880TIP3   OH214645   0.290   4.107   2.132
 4880TIP3    H114646   0.328   4.168   2.067
 4880TIP3    H214647   0.291   4.022   2.088
 4881TIP3   OH214648   0.731   5.082   2.647
 4881TIP3    H114649   0.650   5.046   2.684
 4881TIP3    H214650   0.719   5.176   2.650
 4882TIP3   OH214651   2.538   3.488   3.142
 4882TIP3    H114652   2.449   3.492   3.175
 4882TIP3    H214653   2.555   3.576   3.108
 4883TIP3   OH214654   5.605   1.876   0.957
 4883TIP3    H114655   5.514   1.903   0.951
 4883TIP3    H214656   5.619   1.854   1.049
 4884TIP3   OH214657   4.359   2.403   1.592
 4884TIP3    H114658   4.282   2.456   1.572
 4884TIP3    H214659   4.430   2.468   1.601
 4885TIP3   OH214660   0.100   0.838   3.325
 4885TIP3    H114661   0.021   0.881   3.358
 4885TIP3    H214662   0.076   0.746   3.319
 4886TIP3   OH214663   0.326   2.285   2.777
 4886TIP3    H114664   0.414   2.311   2.748
 4886TIP3    H214665   0.269   2.352   2.741
 4887TIP3   OH214666   3.208   1.396   0.756
 4887TIP3    H114667   3.270   1.410   0.827
 4887TIP3    H214668   3.142   1.338   0.793
 4888TIP3   OH214669   3.172   2.650   2.637
 4888TIP3    H114670   3.211   2.737   2.640
 4888TIP3    H214671   3.247   2.590   2.631
 4889TIP3   OH214672   2.051   2.881   4.188
 4889TIP3    H114673   2.067   2.971   4.163
 4889TIP3    H214674   1.984   2.850   4.127
 4890TIP3   OH214675   0.762   3.084   2.400
 4890TIP3    H114676   0.793   3.029   2.328
 4890TIP3    H214677   0.667   3.087   2.389
 4891TIP3   OH214678   2.879   5.845   0.253
 4891TIP3    H114679   2.877   5.862   0.347
 4891TIP3    H214680   2.807   5.783   0.238
 4892TIP3   OH214681   1.394   4.684   0.655
 4892TIP3    H114682   1.313   4.700   0.702
 4892TIP3    H214683   1.418   4.594   0.677
 4893TIP3   OH214684   5.047   5.238   1.595
 4893TIP3    H114685   5.099   5.238   1.675
 4893TIP3    H214686   5.102   5.281   1.530
 4894TIP3   OH214687   3.578   1.424   4.402
 4894TIP3    H114688   3.635   1.474   4.460
 4894TIP3    H214689   3.489   1.448   4.428
 4895TIP3   OH214690   4.925   4.823   5.112
 4895TIP3    H114691   4.971   4.809   5.194
 4895TIP3    H214692   4.994   4.824   5.045
 4896TIP3   OH214693   0.880   4.015   2.305
 4896TIP3    H114694   0.956   3.976   2.349
 4896TIP3    H214695   0.880   4.106   2.336
 4897TIP3   OH214696   4.789   2.417   5.030
 4897TIP3    H114697   4.767   2.381   4.944
 4897TIP3    H214698   4.766   2.348   5.092
 4898TIP3   OH214699   3.485   2.751   1.190
 4898TIP3    H114700   3.577   2.764   1.215
 4898TIP3    H214701   3.449   2.694   1.258
 4899TIP3   OH214702   3.499   2.416   3.431
 4899TIP3    H114703   3.503   2.442   3.523
 4899TIP3    H214704   3.405   2.407   3.413
 4900TIP3   OH214705   1.802   5.355   1.738
 4900TIP3    H114706   1.816   5.330   1.647
 4900TIP3    H214707   1.889   5.351   1.777
 4901TIP3   OH214708   3.334   1.491   4.517
 4901TIP3    H114709   3.305   1.560   4.457
 4901TIP3    H214710   3.285   1.414   4.490
 4902TIP3   OH214711   4.678   4.413   0.235
 4902TIP3    H114712   4.615   4.451   0.296
 4902TIP3    H214713   4.758   4.464   0.247
 4903TIP3   OH214714   2.132   0.980   4.140
 4903TIP3    H114715   2.043   1.014   4.142
 4903TIP3    H214716   2.132   0.907   4.202
 4904TIP3   OH214717   6.207   3.428   3.451
 4904TIP3    H114718   6.234   3.492   3.385
 4904TIP3    H214719   6.289   3.395   3.487
 4905TIP3   OH214720   5.814   3.040   4.824
 4905TIP3    H114721   5.900   3.081   4.836
 4905TIP3    H214722   5.772   3.047   4.910
 4906TIP3   OH214723   1.962   1.311   3.930
 4906TIP3    H114724   1.900   1.333   3.999
 4906TIP3    H214725   1.936   1.365   3.855
 4907TIP3   OH214726   3.759   1.621   1.972
 4907TIP3    H114727   3.693   1.687   1.991
 4907TIP3    H214728   3.840   1.656   2.010
 4908TIP3   OH214729   3.779   2.975   4.313
 4908TIP3    H114730   3.802   2.910   4.247
 4908TIP3    H214731   3.688   2.956   4.335
 4909TIP3   OH214732   0.412   5.691   1.640
 4909TIP3    H114733   0.498   5.731   1.630
 4909TIP3    H214734   0.413   5.616   1.581
 4910TIP3   OH214735   5.287   2.569   4.405
 4910TIP3    H114736   5.281   2.476   4.425
 4910TIP3    H214737   5.200   2.604   4.426
 4911TIP3   OH214738   3.563   4.211   0.047
 4911TIP3    H114739   3.591   4.191  -0.042
 4911TIP3    H214740   3.510   4.290   0.038
 4912TIP3   OH214741   0.533   4.706   4.445
 4912TIP3    H114742   0.447   4.671   4.466
 4912TIP3    H214743   0.594   4.659   4.501
 4913TIP3   OH214744   4.638   0.093   4.494
 4913TIP3    H114745   4.716   0.038   4.496
 4913TIP3    H214746   4.648   0.147   4.416
 4914TIP3   OH214747   1.317   5.318   1.814
 4914TIP3    H114748   1.371   5.301   1.891
 4914TIP3    H214749   1.227   5.309   1.845
 4915TIP3   OH214750   1.268   2.991   0.055
 4915TIP3    H114751   1.308   2.931   0.118
 4915TIP3    H214752   1.184   3.015   0.096
 4916TIP3   OH214753   2.586   5.813   1.527
 4916TIP3    H114754   2.492   5.826   1.515
 4916TIP3    H214755   2.613   5.886   1.583
 4917TIP3   OH214756   3.668   1.879   3.474
 4917TIP3    H114757   3.613   1.955   3.454
 4917TIP3    H214758   3.692   1.891   3.566
 4918TIP3   OH214759   1.349   4.943   1.709
 4918TIP3    H114760   1.328   4.887   1.634
 4918TIP3    H214761   1.443   4.961   1.700
 4919TIP3   OH214762   5.338   2.343   0.161
 4919TIP3    H114763   5.261   2.286   0.158
 4919TIP3    H214764   5.345   2.369   0.254
 4920TIP3   OH214765   4.624   3.366   3.383
 4920TIP3    H114766   4.560   3.407   3.442
 4920TIP3    H214767   4.599   3.274   3.381
 4921TIP3   OH214768   0.504   2.147   1.283
 4921TIP3    H114769   0.575   2.209   1.267
 4921TIP3    H214770   0.427   2.202   1.298
 4922TIP3   OH214771   3.929   4.398   1.106
 4922TIP3    H114772   3.960   4.312   1.134
 4922TIP3    H214773   3.878   4.430   1.181
 4923TIP3   OH214774   2.990   5.436   4.675
 4923TIP3    H114775   2.922   5.386   4.630
 4923TIP3    H214776   2.969   5.426   4.768
 4924TIP3   OH214777   3.522   2.429   1.598
 4924TIP3    H114778   3.489   2.374   1.668
 4924TIP3    H214779   3.477   2.513   1.609
 4925TIP3   OH214780   4.324   2.736   0.894
 4925TIP3    H114781   4.254   2.785   0.936
 4925TIP3    H214782   4.352   2.791   0.821
 4926TIP3   OH214783   1.672   5.386   1.993
 4926TIP3    H114784   1.698   5.386   1.901
 4926TIP3    H214785   1.595   5.330   1.997
 4927TIP3   OH214786   0.888   3.632   0.453
 4927TIP3    H114787   0.972   3.668   0.423
 4927TIP3    H214788   0.906   3.539   0.468
 4928TIP3   OH214789   0.030   5.472   0.517
 4928TIP3    H114790   0.104   5.468   0.456
 4928TIP3    H214791  -0.026   5.541   0.482
 4929TIP3   OH214792   4.367   1.754   1.161
 4929TIP3    H114793   4.292   1.708   1.123
 4929TIP3    H214794   4.341   1.770   1.252
 4930TIP3   OH214795   1.481   1.182   0.240
 4930TIP3    H114796   1.499   1.269   0.275
 4930TIP3    H214797   1.567   1.141   0.230
 4931TIP3   OH214798   6.285   2.229   1.294
 4931TIP3    H114799   6.261   2.137   1.288
 4931TIP3    H214800   6.201   2.276   1.295
 4932TIP3   OH214801   2.802   4.087   2.821
 4932TIP3    H114802   2.872   4.024   2.837
 4932TIP3    H214803   2.726   4.033   2.800
 4933TIP3   OH214804   6.345   4.857   3.707
 4933TIP3    H114805   6.282   4.929   3.697
 4933TIP3    H214806   6.355   4.821   3.618
 4934TIP3   OH214807   0.144   2.131   2.189
 4934TIP3    H114808   0.059   2.173   2.196
 4934TIP3    H214809   0.139   2.056   2.249
 4935TIP3   OH214810   1.309   5.247   1.085
 4935TIP3    H114811   1.387   5.262   1.032
 4935TIP3    H214812   1.245   5.211   1.024
 4936TIP3   OH214813   3.896   5.423   3.480
 4936TIP3    H114814   3.974   5.371   3.461
 4936TIP3    H214815   3.857   5.440   3.394
 4937TIP3   OH214816   0.976   4.322   2.911
 4937TIP3    H114817   0.903   4.306   2.851
 4937TIP3    H214818   1.037   4.251   2.893
 4938TIP3   OH214819   0.876   2.160   0.834
 4938TIP3    H114820   0.849   2.100   0.765
 4938TIP3    H214821   0.969   2.174   0.818
 4939TIP3   OH214822   5.610   4.171   0.543
 4939TIP3    H114823   5.561   4.131   0.472
 4939TIP3    H214824   5.546   4.180   0.614
 4940TIP3   OH214825   4.063   4.704   1.327
 4940TIP3    H114826   4.070   4.632   1.264
 4940TIP3    H214827   4.133   4.764   1.303
 4941TIP3   OH214828   5.724   2.505   2.689
 4941TIP3    H114829   5.698   2.456   2.768
 4941TIP3    H214830   5.642   2.538   2.653
 4942TIP3   OH214831   5.174   2.962   4.000
 4942TIP3    H114832   5.164   2.868   4.010
 4942TIP3    H214833   5.193   2.994   4.088
 4943TIP3   OH214834   5.353   3.917   1.640
 4943TIP3    H114835   5.274   3.876   1.677
 4943TIP3    H214836   5.424   3.888   1.697
 4944TIP3   OH214837   1.295   4.151   1.284
 4944TIP3    H114838   1.200   4.156   1.277
 4944TIP3    H214839   1.327   4.187   1.201
 4945TIP3   OH214840   1.945   5.392   4.120
 4945TIP3    H114841   2.013   5.348   4.070
 4945TIP3    H214842   1.864   5.370   4.074
 4946TIP3   OH214843   1.694   0.288   3.292
 4946TIP3    H114844   1.701   0.193   3.291
 4946TIP3    H214845   1.600   0.305   3.290
 4947TIP3   OH214846   2.295   1.559   4.977
 4947TIP3    H114847   2.357   1.551   5.049
 4947TIP3    H214848   2.342   1.607   4.909
 4948TIP3   OH214849   3.560   4.975   4.497
 4948TIP3    H114850   3.655   4.970   4.484
 4948TIP3    H214851   3.534   4.886   4.518
 4949TIP3   OH214852   5.567   5.190   2.012
 4949TIP3    H114853   5.614   5.168   1.931
 4949TIP3    H214854   5.536   5.107   2.046
 4950TIP3   OH214855   2.244   0.351   2.915
 4950TIP3    H114856   2.187   0.300   2.971
 4950TIP3    H214857   2.215   0.441   2.926
 4951TIP3   OH214858   0.827   2.314   4.408
 4951TIP3    H114859   0.775   2.374   4.355
 4951TIP3    H214860   0.769   2.287   4.478
 4952TIP3   OH214861   3.956   1.875   1.325
 4952TIP3    H114862   3.940   1.783   1.304
 4952TIP3    H214863   3.910   1.890   1.407
 4953TIP3   OH214864   2.887   1.017   4.138
 4953TIP3    H114865   2.940   0.938   4.150
 4953TIP3    H214866   2.799   0.985   4.122
 4954TIP3   OH214867   4.440   4.869   2.085
 4954TIP3    H114868   4.497   4.945   2.073
 4954TIP3    H214869   4.488   4.796   2.046
 4955TIP3   OH214870   4.283   0.881   0.288
 4955TIP3    H114871   4.260   0.906   0.198
 4955TIP3    H214872   4.263   0.959   0.340
 4956TIP3   OH214873   2.732   2.548   2.696
 4956TIP3    H114874   2.687   2.489   2.756
 4956TIP3    H214875   2.709   2.636   2.726
 4957TIP3   OH214876   5.495   1.813   4.410
 4957TIP3    H114877   5.573   1.760   4.393
 4957TIP3    H214878   5.486   1.867   4.331
 4958TIP3   OH214879   3.291   5.557   4.670
 4958TIP3    H114880   3.219   5.494   4.673
 4958TIP3    H214881   3.348   5.531   4.743
 4959TIP3   OH214882   4.444   4.771   2.509
 4959TIP3    H114883   4.460   4.678   2.493
 4959TIP3    H214884   4.445   4.779   2.605
 4960TIP3   OH214885   2.870   4.649   2.382
 4960TIP3    H114886   2.904   4.616   2.299
 4960TIP3    H214887   2.912   4.595   2.449
 4961TIP3   OH214888   0.407   3.036   2.787
 4961TIP3    H114889   0.348   3.018   2.860
 4961TIP3    H214890   0.436   2.950   2.758
 4962TIP3   OH214891   1.319   5.643   4.110
 4962TIP3    H114892   1.385   5.606   4.052
 4962TIP3    H214893   1.308   5.733   4.080
 4963TIP3   OH214894   2.262   3.964   3.262
 4963TIP3    H114895   2.256   4.056   3.236
 4963TIP3    H214896   2.171   3.939   3.282
 4964TIP3   OH214897   0.203   4.281   1.043
 4964TIP3    H114898   0.194   4.325   1.128
 4964TIP3    H214899   0.276   4.220   1.055
 4965TIP3   OH214900   0.798   0.453   1.809
 4965TIP3    H114901   0.865   0.486   1.750
 4965TIP3    H214902   0.733   0.412   1.752
 4966TIP3   OH214903   3.628   5.702   3.153
 4966TIP3    H114904   3.608   5.645   3.079
 4966TIP3    H214905   3.550   5.698   3.208
 4967TIP3   OH214906   5.778   1.232   2.295
 4967TIP3    H114907   5.726   1.277   2.363
 4967TIP3    H214908   5.791   1.144   2.330
 4968TIP3   OH214909   4.976   3.705   0.937
 4968TIP3    H114910   4.973   3.721   1.032
 4968TIP3    H214911   4.991   3.791   0.899
 4969TIP3   OH214912   2.588   2.689   1.136
 4969TIP3    H114913   2.677   2.655   1.136
 4969TIP3    H214914   2.549   2.654   1.217
 4970TIP3   OH214915   2.629   4.417   2.423
 4970TIP3    H114916   2.681   4.469   2.485
 4970TIP3    H214917   2.684   4.342   2.401
 4971TIP3   OH214918   3.765   1.734   1.032
 4971TIP3    H114919   3.753   1.680   1.110
 4971TIP3    H214920   3.852   1.712   0.999
 4972TIP3   OH214921   0.095   4.571   1.645
 4972TIP3    H114922   0.111   4.479   1.669
 4972TIP3    H214923   0.175   4.598   1.601
 4973TIP3   OH214924   2.023   0.873   4.372
 4973TIP3    H114925   1.938   0.909   4.398
 4973TIP3    H214926   2.082   0.897   4.444
 4974TIP3   OH214927   5.413   3.172   0.339
 4974TIP3    H114928   5.484   3.156   0.276
 4974TIP3    H214929   5.366   3.247   0.304
 4975TIP3   OH214930   2.255   3.943   2.163
 4975TIP3    H114931   2.244   3.993   2.243
 4975TIP3    H214932   2.240   4.006   2.093
 4976TIP3   OH214933   5.256   2.626   2.643
 4976TIP3    H114934   5.207   2.700   2.678
 4976TIP3    H214935   5.203   2.596   2.569
 4977TIP3   OH214936   6.275   2.662   4.469
 4977TIP3    H114937   6.276   2.742   4.522
 4977TIP3    H214938   6.231   2.598   4.524
 4978TIP3   OH214939   4.153   1.353   1.115
 4978TIP3    H114940   4.181   1.261   1.115
 4978TIP3    H214941   4.077   1.355   1.172
 4979TIP3   OH214942   5.006   5.596   2.492
 4979TIP3    H114943   5.022   5.604   2.586
 4979TIP3    H214944   5.047   5.674   2.454
 4980TIP3   OH214945   5.239   3.489   4.570
 4980TIP3    H114946   5.208   3.430   4.502
 4980TIP3    H214947   5.329   3.510   4.546
 4981TIP3   OH214948   3.208   1.330   4.356
 4981TIP3    H114949   3.119   1.300   4.336
 4981TIP3    H214950   3.259   1.307   4.279
 4982TIP3   OH214951   4.925   0.828   4.584
 4982TIP3    H114952   4.989   0.899   4.579
 4982TIP3    H214953   4.976   0.748   4.566
 4983TIP3   OH214954   2.125   2.308   3.118
 4983TIP3    H114955   2.077   2.328   3.037
 4983TIP3    H214956   2.107   2.382   3.175
 4984TIP3   OH214957   0.987   2.431   3.774
 4984TIP3    H114958   0.926   2.369   3.813
 4984TIP3    H214959   1.010   2.490   3.845
 4985TIP3   OH214960   1.740   1.855   0.377
 4985TIP3    H114961   1.830   1.856   0.344
 4985TIP3    H214962   1.699   1.933   0.339
 4986TIP3   OH214963   4.891   3.156   1.613
 4986TIP3    H114964   4.907   3.148   1.519
 4986TIP3    H214965   4.976   3.137   1.653
 4987TIP3   OH214966   2.797   1.682   0.800
 4987TIP3    H114967   2.717   1.734   0.795
 4987TIP3    H214968   2.868   1.747   0.796
 4988TIP3   OH214969   3.404   2.098   4.118
 4988TIP3    H114970   3.396   2.169   4.182
 4988TIP3    H214971   3.475   2.125   4.060
 4989TIP3   OH214972   3.184   5.660   3.412
 4989TIP3    H114973   3.188   5.603   3.489
 4989TIP3    H214974   3.160   5.601   3.341
 4990TIP3   OH214975   2.515   5.730   0.796
 4990TIP3    H114976   2.451   5.692   0.735
 4990TIP3    H214977   2.514   5.672   0.871
 4991TIP3   OH214978   4.110   2.629   3.116
 4991TIP3    H114979   4.052   2.703   3.130
 4991TIP3    H214980   4.105   2.577   3.196
 4992TIP3   OH214981   3.676   5.660   4.590
 4992TIP3    H114982   3.769   5.657   4.611
 4992TIP3    H214983   3.632   5.635   4.671
 4993TIP3   OH214984   5.345   0.402   0.040
 4993TIP3    H114985   5.437   0.425   0.056
 4993TIP3    H214986   5.296   0.470   0.086
 4994TIP3   OH214987   0.742   2.539   4.243
 4994TIP3    H114988   0.832   2.551   4.212
 4994TIP3    H214989   0.690   2.600   4.191
 4995TIP3   OH214990   2.220   4.890   0.823
 4995TIP3    H114991   2.251   4.805   0.855
 4995TIP3    H214992   2.290   4.951   0.846
 4996TIP3   OH214993   1.372   5.163   4.092
 4996TIP3    H114994   1.458   5.125   4.109
 4996TIP3    H214995   1.314   5.088   4.081
 4997TIP3   OH214996   5.171   1.138   1.174
 4997TIP3    H114997   5.262   1.135   1.204
 4997TIP3    H214998   5.120   1.151   1.254
 4998TIP3   OH214999   3.012   0.036   1.656
 4998TIP3    H115000   3.045   0.096   1.722
 4998TIP3    H215001   3.091  -0.001   1.616
 4999TIP3   OH215002   4.449   1.087   3.673
 4999TIP3    H115003   4.385   1.028   3.713
 4999TIP3    H215004   4.499   1.030   3.614
 5000TIP3   OH215005   1.814   0.242   4.479
 5000TIP3    H115006   1.880   0.253   4.410
 5000TIP3    H215007   1.819   0.149   4.502
 5001TIP3   OH215008   0.424   1.550   4.450
 5001TIP3    H115009   0.383   1.567   4.535
 5001TIP3    H215010   0.512   1.520   4.471
 5002TIP3   OH215011   1.628   1.446   4.563
 5002TIP3    H115012   1.533   1.438   4.563
 5002TIP3    H215013   1.658   1.377   4.623
 5003TIP3   OH215014   4.584   1.605   3.680
 5003TIP3    H115015   4.509   1.662   3.700
 5003TIP3    H215016   4.608   1.567   3.765
 5004TIP3   OH215017   0.833   2.676   3.632
 5004TIP3    H115018   0.897   2.743   3.611
 5004TIP3    H215019   0.829   2.676   3.728
 5005TIP3   OH215020   0.840   4.268   1.067
 5005TIP3    H115021   0.764   4.217   1.039
 5005TIP3    H215022   0.841   4.344   1.009
 5006TIP3   OH215023   0.722   3.654   0.214
 5006TIP3    H115024   0.691   3.564   0.225
 5006TIP3    H215025   0.774   3.671   0.292
 5007TIP3   OH215026   0.207   2.841   1.910
 5007TIP3    H115027   0.202   2.761   1.963
 5007TIP3    H215028   0.296   2.842   1.876
 5008TIP3   OH215029   2.559   2.491   5.141
 5008TIP3    H115030   2.627   2.552   5.111
 5008TIP3    H215031   2.532   2.445   5.061
 5009TIP3   OH215032   4.318   4.498   1.807
 5009TIP3    H115033   4.255   4.429   1.789
 5009TIP3    H215034   4.318   4.552   1.728
 5010TIP3   OH215035   2.383   1.569   1.239
 5010TIP3    H115036   2.477   1.552   1.233
 5010TIP3    H215037   2.346   1.521   1.165
 5011TIP3   OH215038   5.940   5.070   5.133
 5011TIP3    H115039   5.894   4.990   5.155
 5011TIP3    H215040   5.963   5.060   5.041
 5012TIP3   OH215041   2.728   4.708   4.563
 5012TIP3    H115042   2.724   4.695   4.468
 5012TIP3    H215043   2.795   4.646   4.592
 5013TIP3   OH215044   4.094   5.499   4.218
 5013TIP3    H115045   4.161   5.563   4.195
 5013TIP3    H215046   4.018   5.552   4.242
 5014TIP3   OH215047   3.413   4.100   3.736
 5014TIP3    H115048   3.335   4.126   3.688
 5014TIP3    H215049   3.379   4.055   3.814
 5015TIP3   OH215050   4.597   0.644   4.344
 5015TIP3    H115051   4.616   0.643   4.438
 5015TIP3    H215052   4.502   0.647   4.339
 5016TIP3   OH215053   5.146   0.289   2.035
 5016TIP3    H115054   5.149   0.218   1.972
 5016TIP3    H215055   5.144   0.369   1.982
 5017TIP3   OH215056   4.431   1.852   0.550
 5017TIP3    H115057   4.443   1.896   0.634
 5017TIP3    H215058   4.429   1.759   0.571
 5018TIP3   OH215059   1.077   2.821   3.768
 5018TIP3    H115060   1.134   2.875   3.823
 5018TIP3    H215061   1.137   2.769   3.714
 5019TIP3   OH215062   2.700   5.157   0.709
 5019TIP3    H115063   2.682   5.075   0.755
 5019TIP3    H215064   2.681   5.225   0.774
 5020TIP3   OH215065   3.689   4.137   2.744
 5020TIP3    H115066   3.694   4.226   2.709
 5020TIP3    H215067   3.779   4.105   2.742
 5021TIP3   OH215068   2.031   3.274   2.288
 5021TIP3    H115069   2.076   3.233   2.362
 5021TIP3    H215070   2.054   3.219   2.213
 5022TIP3   OH215071   2.800   4.012   4.709
 5022TIP3    H115072   2.779   3.950   4.639
 5022TIP3    H215073   2.718   4.024   4.756
 5023TIP3   OH215074   3.564   4.649   2.288
 5023TIP3    H115075   3.537   4.726   2.237
 5023TIP3    H215076   3.613   4.685   2.362
 5024TIP3   OH215077   0.632   3.144   1.953
 5024TIP3    H115078   0.668   3.055   1.962
 5024TIP3    H215079   0.701   3.193   1.909
 5025TIP3   OH215080   4.770   4.795   1.620
 5025TIP3    H115081   4.785   4.748   1.538
 5025TIP3    H215082   4.820   4.876   1.611
 5026TIP3   OH215083   1.718   1.863   0.739
 5026TIP3    H115084   1.633   1.880   0.781
 5026TIP3    H215085   1.762   1.802   0.798
 5027TIP3   OH215086   4.542   3.338   0.081
 5027TIP3    H115087   4.516   3.269   0.141
 5027TIP3    H215088   4.529   3.300  -0.006
 5028TIP3   OH215089   2.886   3.833   3.163
 5028TIP3    H115090   2.851   3.922   3.155
 5028TIP3    H215091   2.830   3.792   3.229
 5029TIP3   OH215092   5.544   2.224   2.592
 5029TIP3    H115093   5.624   2.274   2.606
 5029TIP3    H215094   5.572   2.148   2.540
 5030TIP3   OH215095   5.914   2.129   0.761
 5030TIP3    H115096   5.961   2.109   0.842
 5030TIP3    H215097   5.957   2.208   0.728
 5031TIP3   OH215098   3.409   4.770   3.522
 5031TIP3    H115099   3.348   4.843   3.537
 5031TIP3    H215100   3.427   4.775   3.428
 5032TIP3   OH215101   4.453   5.440   2.345
 5032TIP3    H115102   4.493   5.526   2.360
 5032TIP3    H215103   4.371   5.442   2.395
 5033TIP3   OH215104   5.597   2.946   2.562
 5033TIP3    H115105   5.569   3.027   2.606
 5033TIP3    H215106   5.567   2.876   2.620
 5034TIP3   OH215107   0.298   0.112   3.712
 5034TIP3    H115108   0.219   0.072   3.677
 5034TIP3    H215109   0.339   0.154   3.637
 5035TIP3   OH215110   3.466   3.593   2.470
 5035TIP3    H115111   3.463   3.499   2.453
 5035TIP3    H215112   3.397   3.608   2.535
 5036TIP3   OH215113   3.443   3.778   4.908
 5036TIP3    H115114   3.442   3.874   4.917
 5036TIP3    H215115   3.353   3.752   4.927
 5037TIP3   OH215116   0.076   3.041   4.532
 5037TIP3    H115117  -0.013   3.039   4.498
 5037TIP3    H215118   0.088   2.956   4.573
 5038TIP3   OH215119   4.054   0.746   0.844
 5038TIP3    H115120   3.973   0.797   0.857
 5038TIP3    H215121   4.037   0.663   0.888
 5039TIP3   OH215122   3.239   2.720   3.172
 5039TIP3    H115123   3.290   2.774   3.232
 5039TIP3    H215124   3.155   2.766   3.164
 5040TIP3   OH215125   6.119   1.603   4.480
 5040TIP3    H115126   6.055   1.532   4.476
 5040TIP3    H215127   6.116   1.633   4.570
 5041TIP3   OH215128   2.893   2.704   0.061
 5041TIP3    H115129   2.917   2.796   0.076
 5041TIP3    H215130   2.798   2.707   0.047
 5042TIP3   OH215131   1.259   2.972   0.775
 5042TIP3    H115132   1.211   2.949   0.855
 5042TIP3    H215133   1.222   3.056   0.747
 5043TIP3   OH215134   5.770   3.869   3.218
 5043TIP3    H115135   5.754   3.780   3.188
 5043TIP3    H215136   5.686   3.914   3.205
 5044TIP3   OH215137   1.083   1.708   1.158
 5044TIP3    H115138   1.135   1.668   1.088
 5044TIP3    H215139   1.040   1.635   1.201
 5045TIP3   OH215140   2.118   0.280   2.697
 5045TIP3    H115141   2.190   0.324   2.742
 5045TIP3    H215142   2.039   0.318   2.736
 5046TIP3   OH215143   4.677   4.709   3.797
 5046TIP3    H115144   4.729   4.660   3.734
 5046TIP3    H215145   4.633   4.776   3.745
 5047TIP3   OH215146   4.203   5.465   3.727
 5047TIP3    H115147   4.188   5.556   3.752
 5047TIP3    H215148   4.178   5.414   3.804
 5048TIP3   OH215149   4.223   3.926  -0.008
 5048TIP3    H115150   4.147   3.875  -0.038
 5048TIP3    H215151   4.191   3.973   0.069
 5049TIP3   OH215152   0.587   4.676   0.619
 5049TIP3    H115153   0.521   4.663   0.688
 5049TIP3    H215154   0.536   4.683   0.539
 5050TIP3   OH215155   2.176   2.641   2.364
 5050TIP3    H115156   2.147   2.679   2.447
 5050TIP3    H215157   2.103   2.585   2.337
 5051TIP3   OH215158   4.606   5.036   1.779
 5051TIP3    H115159   4.602   5.087   1.698
 5051TIP3    H215160   4.560   4.954   1.757
 5052TIP3   OH215161   1.744   2.713   0.791
 5052TIP3    H115162   1.674   2.662   0.831
 5052TIP3    H215163   1.707   2.746   0.709
 5053TIP3   OH215164   3.189   0.466   4.639
 5053TIP3    H115165   3.112   0.521   4.652
 5053TIP3    H215166   3.255   0.503   4.698
 5054TIP3   OH215167   5.961   2.697   2.463
 5054TIP3    H115168   6.030   2.762   2.450
 5054TIP3    H215169   5.884   2.734   2.421
 5055TIP3   OH215170   2.606   1.524   2.907
 5055TIP3    H115171   2.561   1.553   2.828
 5055TIP3    H215172   2.589   1.430   2.911
 5056TIP3   OH215173   0.512   5.523   1.223
 5056TIP3    H115174   0.490   5.594   1.163
 5056TIP3    H215175   0.463   5.544   1.303
 5057TIP3   OH215176   2.508   1.355   4.954
 5057TIP3    H115177   2.546   1.442   4.962
 5057TIP3    H215178   2.455   1.345   5.034
 5058TIP3   OH215179   3.848   4.853   2.052
 5058TIP3    H115180   3.897   4.844   1.971
 5058TIP3    H215181   3.792   4.930   2.039
 5059TIP3   OH215182   5.079   2.198   2.952
 5059TIP3    H115183   4.991   2.231   2.936
 5059TIP3    H215184   5.136   2.258   2.905
 5060TIP3   OH215185   4.220   3.323   0.333
 5060TIP3    H115186   4.155   3.356   0.395
 5060TIP3    H215187   4.168   3.285   0.262
 5061TIP3   OH215188   5.721   2.912   1.675
 5061TIP3    H115189   5.678   2.830   1.651
 5061TIP3    H215190   5.785   2.887   1.742
 5062TIP3   OH215191   1.124   3.252   0.811
 5062TIP3    H115192   1.031   3.230   0.815
 5062TIP3    H215193   1.130   3.342   0.842
 5063TIP3   OH215194   4.262   2.737   3.977
 5063TIP3    H115195   4.237   2.781   3.896
 5063TIP3    H215196   4.203   2.774   4.043
 5064TIP3   OH215197   0.294   2.863   3.218
 5064TIP3    H115198   0.297   2.951   3.254
 5064TIP3    H215199   0.232   2.869   3.145
 5065TIP3   OH215200   4.702   3.613   3.680
 5065TIP3    H115201   4.622   3.576   3.643
 5065TIP3    H215202   4.759   3.537   3.696
 5066TIP3   OH215203   1.697   5.287   4.055
 5066TIP3    H115204   1.610   5.326   4.054
 5066TIP3    H215205   1.683   5.195   4.078
 5067TIP3   OH215206   5.846   1.067   4.229
 5067TIP3    H115207   5.928   1.110   4.204
 5067TIP3    H215208   5.780   1.135   4.221
 5068TIP3   OH215209   0.245   0.785   2.029
 5068TIP3    H115210   0.312   0.832   2.079
 5068TIP3    H215211   0.162   0.813   2.067
 5069TIP3   OH215212   5.480   1.963   3.163
 5069TIP3    H115213   5.483   1.912   3.082
 5069TIP3    H215214   5.422   2.036   3.143
 5070TIP3   OH215215   2.895   3.104   4.212
 5070TIP3    H115216   2.939   3.182   4.180
 5070TIP3    H215217   2.824   3.088   4.150
 5071TIP3   OH215218   3.250   3.305   2.780
 5071TIP3    H115219   3.170   3.338   2.821
 5071TIP3    H215220   3.261   3.359   2.702
 5072TIP3   OH215221   3.099   2.667   1.648
 5072TIP3    H115222   3.017   2.700   1.612
 5072TIP3    H215223   3.073   2.602   1.712
 5073TIP3   OH215224   5.575   1.834   4.816
 5073TIP3    H115225   5.626   1.796   4.888
 5073TIP3    H215226   5.638   1.841   4.744
 5074TIP3   OH215227   3.420   3.310   4.169
 5074TIP3    H115228   3.453   3.285   4.083
 5074TIP3    H215229   3.450   3.400   4.182
 5075TIP3   OH215230   5.331   1.483   5.110
 5075TIP3    H115231   5.308   1.393   5.131
 5075TIP3    H215232   5.413   1.499   5.157
 5076TIP3   OH215233   2.573   1.762   3.454
 5076TIP3    H115234   2.542   1.681   3.494
 5076TIP3    H215235   2.665   1.743   3.431
 5077TIP3   OH215236   0.915   4.600   2.911
 5077TIP3    H115237   0.944   4.665   2.847
 5077TIP3    H215238   0.938   4.516   2.873
 5078TIP3   OH215239   0.471   1.802   2.977
 5078TIP3    H115240   0.407   1.732   2.962
 5078TIP3    H215241   0.420   1.870   3.020
 5079TIP3   OH215242   4.641   2.609   2.743
 5079TIP3    H115243   4.550   2.579   2.749
 5079TIP3    H215244   4.662   2.638   2.832
 5080TIP3   OH215245   4.273   5.845   2.539
 5080TIP3    H115246   4.366   5.837   2.560
 5080TIP3    H215247   4.230   5.848   2.625
 5081TIP3   OH215248   2.576   2.341   1.379
 5081TIP3    H115249   2.612   2.364   1.465
 5081TIP3    H215250   2.570   2.246   1.380
 5082TIP3   OH215251   0.217   5.964   0.955
 5082TIP3    H115252   0.220   6.015   1.036
 5082TIP3    H215253   0.124   5.944   0.942
 5083TIP3   OH215254   4.283   1.103   3.994
 5083TIP3    H115255   4.372   1.131   3.975
 5083TIP3    H215256   4.239   1.183   4.024
 5084TIP3   OH215257   4.673   1.124   3.821
 5084TIP3    H115258   4.634   1.141   3.907
 5084TIP3    H215259   4.607   1.151   3.759
 5085TIP3   OH215260   6.304   5.631   0.975
 5085TIP3    H115261   6.221   5.604   1.014
 5085TIP3    H215262   6.334   5.554   0.927
 5086TIP3   OH215263   2.026   4.503   1.969
 5086TIP3    H115264   2.049   4.592   1.941
 5086TIP3    H215265   1.933   4.508   1.991
 5087TIP3   OH215266   5.765   2.145   3.270
 5087TIP3    H115267   5.740   2.208   3.338
 5087TIP3    H215268   5.761   2.060   3.314
 5088TIP3   OH215269   6.261   2.021   0.375
 5088TIP3    H115270   6.211   2.092   0.336
 5088TIP3    H215271   6.212   1.998   0.454
 5089TIP3   OH215272   0.691   5.052   3.424
 5089TIP3    H115273   0.757   5.020   3.486
 5089TIP3    H215274   0.706   5.146   3.419
 5090TIP3   OH215275   2.966   3.361   1.885
 5090TIP3    H115276   2.875   3.388   1.901
 5090TIP3    H215277   3.002   3.429   1.830
 5091TIP3   OH215278   5.057   0.961   3.873
 5091TIP3    H115279   5.041   0.968   3.967
 5091TIP3    H215280   4.981   0.915   3.839
 5092TIP3   OH215281   2.937   2.970   0.360
 5092TIP3    H115282   2.996   2.975   0.285
 5092TIP3    H215283   2.857   2.930   0.325
 5093TIP3   OH215284   5.581   0.468   3.352
 5093TIP3    H115285   5.597   0.501   3.264
 5093TIP3    H215286   5.516   0.399   3.340
 5094TIP3   OH215287   5.278   4.198   1.273
 5094TIP3    H115288   5.317   4.110   1.268
 5094TIP3    H215289   5.206   4.189   1.335
 5095TIP3   OH215290   1.640   2.550   4.088
 5095TIP3    H115291   1.706   2.533   4.020
 5095TIP3    H215292   1.558   2.560   4.041
 5096TIP3   OH215293   3.141   5.581   2.475
 5096TIP3    H115294   3.171   5.666   2.444
 5096TIP3    H215295   3.220   5.526   2.476
 5097TIP3   OH215296   4.471   5.952   4.596
 5097TIP3    H115297   4.441   5.868   4.630
 5097TIP3    H215298   4.421   6.017   4.644
 5098TIP3   OH215299   6.273   0.883   0.781
 5098TIP3    H115300   6.350   0.924   0.820
 5098TIP3    H215301   6.268   0.920   0.693
 5099TIP3   OH215302   5.215   4.793   1.804
 5099TIP3    H115303   5.309   4.800   1.819
 5099TIP3    H215304   5.207   4.748   1.720
 5100TIP3   OH215305   5.856   4.309   1.353
 5100TIP3    H115306   5.773   4.267   1.332
 5100TIP3    H215307   5.916   4.236   1.372
 5101TIP3   OH215308   5.251   4.732   2.577
 5101TIP3    H115309   5.182   4.716   2.513
 5101TIP3    H215310   5.205   4.744   2.660
 5102TIP3   OH215311   2.170   2.458   1.414
 5102TIP3    H115312   2.191   2.536   1.466
 5102TIP3    H215313   2.136   2.395   1.478
 5103TIP3   OH215314   4.806   5.173   4.371
 5103TIP3    H115315   4.762   5.153   4.288
 5103TIP3    H215316   4.869   5.242   4.349
 5104TIP3   OH215317   3.697   4.621   4.845
 5104TIP3    H115318   3.626   4.557   4.838
 5104TIP3    H215319   3.776   4.571   4.826
 5105TIP3   OH215320   4.686   1.713   4.292
 5105TIP3    H115321   4.628   1.784   4.318
 5105TIP3    H215322   4.715   1.736   4.203
 5106TIP3   OH215323   3.985   0.680   1.185
 5106TIP3    H115324   3.933   0.603   1.208
 5106TIP3    H215325   4.063   0.645   1.143
 5107TIP3   OH215326   2.430   2.614   0.529
 5107TIP3    H115327   2.506   2.558   0.515
 5107TIP3    H215328   2.464   2.689   0.578
 5108TIP3   OH215329   4.637   5.896   2.917
 5108TIP3    H115330   4.641   5.959   2.845
 5108TIP3    H215331   4.553   5.851   2.905
 5109TIP3   OH215332   1.323   3.803   0.598
 5109TIP3    H115333   1.358   3.786   0.685
 5109TIP3    H215334   1.393   3.778   0.538
 5110TIP3   OH215335   6.121   4.205   2.306
 5110TIP3    H115336   6.140   4.283   2.253
 5110TIP3    H215337   6.202   4.155   2.305
 5111TIP3   OH215338   2.396   5.410   1.367
 5111TIP3    H115339   2.400   5.489   1.313
 5111TIP3    H215340   2.482   5.406   1.409
 5112TIP3   OH215341   2.236   5.217   2.939
 5112TIP3    H115342   2.198   5.276   2.875
 5112TIP3    H215343   2.288   5.155   2.886
 5113TIP3   OH215344   5.139   3.175   2.126
 5113TIP3    H115345   5.186   3.185   2.209
 5113TIP3    H215346   5.186   3.230   2.064
 5114TIP3   OH215347   2.722   3.795   0.134
 5114TIP3    H115348   2.799   3.849   0.112
 5114TIP3    H215349   2.731   3.719   0.077
 5115TIP3   OH215350   4.298   4.294   0.237
 5115TIP3    H115351   4.305   4.371   0.294
 5115TIP3    H215352   4.296   4.330   0.148
 5116TIP3   OH215353   2.391   0.596   4.720
 5116TIP3    H115354   2.375   0.668   4.781
 5116TIP3    H215355   2.419   0.638   4.639
 5117TIP3   OH215356   5.260   5.103   2.059
 5117TIP3    H115357   5.314   5.035   2.099
 5117TIP3    H215358   5.177   5.060   2.041
 5118TIP3   OH215359   1.534   0.621   0.663
 5118TIP3    H115360   1.529   0.711   0.630
 5118TIP3    H215361   1.563   0.631   0.754
 5119TIP3   OH215362   5.485   3.042   3.151
 5119TIP3    H115363   5.427   3.105   3.193
 5119TIP3    H215364   5.514   2.985   3.222
 5120TIP3   OH215365   0.769   2.920   1.954
 5120TIP3    H115366   0.816   2.915   1.871
 5120TIP3    H215367   0.799   2.844   2.003
 5121TIP3   OH215368   4.228   3.196   2.955
 5121TIP3    H115369   4.302   3.156   2.910
 5121TIP3    H215370   4.173   3.121   2.980
 5122TIP3   OH215371   4.369   1.211   0.112
 5122TIP3    H115372   4.307   1.141   0.094
 5122TIP3    H215373   4.453   1.177   0.083
 5123TIP3   OH215374   2.895   4.443   3.598
 5123TIP3    H115375   2.975   4.496   3.605
 5123TIP3    H215376   2.833   4.485   3.657
 5124TIP3   OH215377   3.768   2.715   2.057
 5124TIP3    H115378   3.852   2.760   2.059
 5124TIP3    H215379   3.750   2.701   1.964
 5125TIP3   OH215380   2.287   0.309   1.256
 5125TIP3    H115381   2.237   0.361   1.193
 5125TIP3    H215382   2.236   0.314   1.337
 5126TIP3   OH215383   2.250   4.294   1.186
 5126TIP3    H115384   2.179   4.241   1.221
 5126TIP3    H215385   2.218   4.325   1.102
 5127TIP3   OH215386   4.447   1.113   4.632
 5127TIP3    H115387   4.367   1.106   4.684
 5127TIP3    H215388   4.517   1.095   4.694
 5128TIP3   OH215389   5.938   5.523   4.941
 5128TIP3    H115390   5.846   5.512   4.965
 5128TIP3    H215391   5.959   5.612   4.967
 5129TIP3   OH215392   4.827   4.363   4.732
 5129TIP3    H115393   4.799   4.339   4.644
 5129TIP3    H215394   4.825   4.281   4.781
 5130TIP3   OH215395   4.766   3.556   2.936
 5130TIP3    H115396   4.767   3.569   3.031
 5130TIP3    H215397   4.677   3.578   2.910
 5131TIP3   OH215398   2.875   2.348   0.654
 5131TIP3    H115399   2.945   2.412   0.641
 5131TIP3    H215400   2.805   2.398   0.697
 5132TIP3   OH215401   2.662   0.215   3.175
 5132TIP3    H115402   2.597   0.206   3.106
 5132TIP3    H215403   2.620   0.268   3.242
 5133TIP3   OH215404   2.020   1.658   1.918
 5133TIP3    H115405   2.025   1.658   1.823
 5133TIP3    H215406   2.062   1.577   1.945
 5134TIP3   OH215407   3.122   3.888   5.220
 5134TIP3    H115408   3.029   3.905   5.233
 5134TIP3    H215409   3.166   3.958   5.268
 5135TIP3   OH215410   5.408   0.249   3.332
 5135TIP3    H115411   5.317   0.241   3.361
 5135TIP3    H215412   5.409   0.214   3.243
 5136TIP3   OH215413   1.141   1.972   0.512
 5136TIP3    H115414   1.165   2.056   0.472
 5136TIP3    H215415   1.061   1.990   0.561
 5137TIP3   OH215416   0.249   4.571   3.644
 5137TIP3    H115417   0.161   4.607   3.635
 5137TIP3    H215418   0.237   4.476   3.639
 5138TIP3   OH215419   0.125   2.245   0.348
 5138TIP3    H115420   0.136   2.204   0.262
 5138TIP3    H215421   0.099   2.173   0.405
 5139TIP3   OH215422   3.102   0.503   2.878
 5139TIP3    H115423   3.147   0.450   2.944
 5139TIP3    H215424   3.045   0.442   2.832
 5140TIP3   OH215425   3.862   1.887   1.581
 5140TIP3    H115426   3.825   1.946   1.646
 5140TIP3    H215427   3.818   1.804   1.597
 5141TIP3   OH215428   3.339   1.524   1.553
 5141TIP3    H115429   3.255   1.492   1.519
 5141TIP3    H215430   3.405   1.476   1.503
 5142TIP3   OH215431   3.433   3.473   1.864
 5142TIP3    H115432   3.384   3.490   1.783
 5142TIP3    H215433   3.501   3.540   1.866
 5143TIP3   OH215434   0.534   2.132   3.417
 5143TIP3    H115435   0.497   2.202   3.363
 5143TIP3    H215436   0.616   2.109   3.373
 5144TIP3   OH215437   4.528   0.151   0.512
 5144TIP3    H115438   4.591   0.178   0.580
 5144TIP3    H215439   4.491   0.069   0.544
 5145TIP3   OH215440   3.269   3.960   3.037
 5145TIP3    H115441   3.339   3.991   2.979
 5145TIP3    H215442   3.306   3.884   3.081
 5146TIP3   OH215443   5.463   1.019   3.069
 5146TIP3    H115444   5.466   1.018   3.164
 5146TIP3    H215445   5.377   0.982   3.047
 5147TIP3   OH215446   1.080   5.013   1.346
 5147TIP3    H115447   1.142   5.084   1.363
 5147TIP3    H215448   1.068   4.971   1.432
 5148TIP3   OH215449   1.129   4.416   3.446
 5148TIP3    H115450   1.130   4.512   3.453
 5148TIP3    H215451   1.079   4.399   3.366
 5149TIP3   OH215452   6.071   1.747   4.742
 5149TIP3    H115453   6.087   1.840   4.729
 5149TIP3    H215454   6.104   1.729   4.830
 5150TIP3   OH215455   0.178   3.451   1.257
 5150TIP3    H115456   0.095   3.485   1.224
 5150TIP3    H215457   0.156   3.403   1.336
 5151TIP3   OH215458   5.149   5.007   2.490
 5151TIP3    H115459   5.136   4.942   2.560
 5151TIP3    H215460   5.217   5.065   2.523
 5152TIP3   OH215461   5.272   3.017   4.266
 5152TIP3    H115462   5.354   3.051   4.230
 5152TIP3    H215463   5.299   2.970   4.345
 5153TIP3   OH215464   2.852   2.032   4.085
 5153TIP3    H115465   2.920   2.014   4.019
 5153TIP3    H215466   2.774   1.989   4.051
 5154TIP3   OH215467   0.466   1.172   2.329
 5154TIP3    H115468   0.534   1.199   2.391
 5154TIP3    H215469   0.400   1.129   2.384
 5155TIP3   OH215470   3.508   4.342   2.362
 5155TIP3    H115471   3.578   4.277   2.349
 5155TIP3    H215472   3.541   4.422   2.321
 5156TIP3   OH215473   1.019   0.972   0.769
 5156TIP3    H115474   1.043   0.881   0.755
 5156TIP3    H215475   1.083   1.005   0.832
 5157TIP3   OH215476   4.665   1.080   2.765
 5157TIP3    H115477   4.682   1.108   2.675
 5157TIP3    H215478   4.570   1.088   2.775
 5158TIP3   OH215479   3.607   0.560   2.141
 5158TIP3    H115480   3.681   0.546   2.199
 5158TIP3    H215481   3.535   0.586   2.200
 5159TIP3   OH215482   1.316   0.084   2.357
 5159TIP3    H115483   1.304   0.051   2.268
 5159TIP3    H215484   1.292   0.177   2.352
 5160TIP3   OH215485   4.638   4.851   2.931
 5160TIP3    H115486   4.616   4.887   3.017
 5160TIP3    H215487   4.615   4.758   2.937
 5161TIP3   OH215488   5.894   0.990   1.958
 5161TIP3    H115489   5.941   0.937   1.893
 5161TIP3    H215490   5.956   0.998   2.031
 5162TIP3   OH215491   3.871   0.936   2.462
 5162TIP3    H115492   3.785   0.926   2.504
 5162TIP3    H215493   3.851   0.953   2.370
 5163TIP3   OH215494   0.388   4.156   2.586
 5163TIP3    H115495   0.400   4.197   2.671
 5163TIP3    H215496   0.456   4.088   2.582
 5164TIP3   OH215497   2.622   3.585   1.246
 5164TIP3    H115498   2.561   3.633   1.190
 5164TIP3    H215499   2.708   3.605   1.209
 5165TIP3   OH215500   1.435   5.273   3.437
 5165TIP3    H115501   1.455   5.308   3.351
 5165TIP3    H215502   1.387   5.192   3.420
 5166TIP3   OH215503   3.838   1.383   2.340
 5166TIP3    H115504   3.810   1.316   2.278
 5166TIP3    H215505   3.757   1.430   2.363
 5167TIP3   OH215506   2.885   5.659   1.667
 5167TIP3    H115507   2.867   5.740   1.619
 5167TIP3    H215508   2.810   5.650   1.726
 5168TIP3   OH215509   2.517   4.182   3.544
 5168TIP3    H115510   2.477   4.231   3.616
 5168TIP3    H215511   2.497   4.091   3.563
 5169TIP3   OH215512   3.641   5.533   1.258
 5169TIP3    H115513   3.686   5.472   1.200
 5169TIP3    H215514   3.549   5.508   1.254
 5170TIP3   OH215515   0.245   0.070   4.896
 5170TIP3    H115516   0.267   0.035   4.983
 5170TIP3    H215517   0.323   0.120   4.871
 5171TIP3   OH215518   5.379   0.230   4.325
 5171TIP3    H115519   5.343   0.242   4.237
 5171TIP3    H215520   5.467   0.267   4.321
 5172TIP3   OH215521   3.046   0.865   2.700
 5172TIP3    H115522   2.957   0.900   2.695
 5172TIP3    H215523   3.088   0.916   2.769
 5173TIP3   OH215524   5.748   5.875   1.073
 5173TIP3    H115525   5.780   5.951   1.025
 5173TIP3    H215526   5.761   5.898   1.165
 5174TIP3   OH215527   0.571   3.560   1.176
 5174TIP3    H115528   0.640   3.580   1.239
 5174TIP3    H215529   0.587   3.470   1.150
 5175TIP3   OH215530   4.911   1.411   2.751
 5175TIP3    H115531   4.958   1.434   2.831
 5175TIP3    H215532   4.830   1.371   2.781
 5176TIP3   OH215533   2.499   5.204   0.194
 5176TIP3    H115534   2.456   5.165   0.271
 5176TIP3    H215535   2.582   5.238   0.228
 5177TIP3   OH215536   4.949   2.666   0.994
 5177TIP3    H115537   4.977   2.666   0.903
 5177TIP3    H215538   4.899   2.585   1.004
 5178TIP3   OH215539   0.461   3.140   1.707
 5178TIP3    H115540   0.514   3.191   1.769
 5178TIP3    H215541   0.441   3.201   1.637
 5179TIP3   OH215542   2.667   5.233   1.127
 5179TIP3    H115543   2.634   5.316   1.094
 5179TIP3    H215544   2.758   5.251   1.152
 5180TIP3   OH215545   5.398   0.088   3.123
 5180TIP3    H115546   5.391   0.110   3.031
 5180TIP3    H215547   5.414  -0.007   3.124
 5181TIP3   OH215548   4.753   1.673   0.617
 5181TIP3    H115549   4.765   1.754   0.667
 5181TIP3    H215550   4.814   1.681   0.544
 5182TIP3   OH215551   2.255   3.882   0.590
 5182TIP3    H115552   2.244   3.964   0.542
 5182TIP3    H215553   2.219   3.900   0.677
 5183TIP3   OH215554   1.974   5.015   0.709
 5183TIP3    H115555   2.005   4.927   0.731
 5183TIP3    H215556   2.020   5.073   0.770
 5184TIP3   OH215557   2.196   2.679   4.637
 5184TIP3    H115558   2.170   2.590   4.616
 5184TIP3    H215559   2.290   2.682   4.618
 5185TIP3   OH215560   1.060   3.932   1.191
 5185TIP3    H115561   1.039   4.021   1.218
 5185TIP3    H215562   1.132   3.942   1.129
 5186TIP3   OH215563   3.147   2.116   0.140
 5186TIP3    H115564   3.203   2.184   0.179
 5186TIP3    H215565   3.149   2.136   0.046
 5187TIP3   OH215566   4.202   2.946   0.418
 5187TIP3    H115567   4.266   2.880   0.442
 5187TIP3    H215568   4.232   2.979   0.333
 5188TIP3   OH215569   2.110   0.619   4.060
 5188TIP3    H115570   2.027   0.665   4.044
 5188TIP3    H215571   2.172   0.662   4.001
 5189TIP3   OH215572   5.753   5.143   2.769
 5189TIP3    H115573   5.706   5.074   2.816
 5189TIP3    H215574   5.768   5.211   2.834
 5190TIP3   OH215575   2.637   1.960   2.051
 5190TIP3    H115576   2.642   1.870   2.084
 5190TIP3    H215577   2.665   2.014   2.124
 5191TIP3   OH215578   2.949   0.292   4.875
 5191TIP3    H115579   2.935   0.382   4.903
 5191TIP3    H215580   2.909   0.288   4.788
 5192TIP3   OH215581   2.601   1.917   3.752
 5192TIP3    H115582   2.554   1.857   3.693
 5192TIP3    H215583   2.532   1.956   3.806
 5193TIP3   OH215584   0.289   0.797   4.753
 5193TIP3    H115585   0.374   0.794   4.797
 5193TIP3    H215586   0.311   0.796   4.660
 5194TIP3   OH215587   5.509   0.376   4.541
 5194TIP3    H115588   5.559   0.456   4.555
 5194TIP3    H215589   5.576   0.307   4.538
 5195TIP3   OH215590   3.093   1.932   3.938
 5195TIP3    H115591   3.136   1.901   4.017
 5195TIP3    H215592   3.086   1.854   3.882
 5196TIP3   OH215593   4.405   2.386   3.713
 5196TIP3    H115594   4.451   2.433   3.643
 5196TIP3    H215595   4.345   2.327   3.667
 5197TIP3   OH215596   4.948   5.767   1.915
 5197TIP3    H115597   4.872   5.795   1.965
 5197TIP3    H215598   4.948   5.672   1.923
 5198TIP3   OH215599   0.590   5.142   0.278
 5198TIP3    H115600   0.502   5.112   0.300
 5198TIP3    H215601   0.612   5.205   0.347
 5199TIP3   OH215602   3.044   5.497   3.207
 5199TIP3    H115603   3.112   5.433   3.228
 5199TIP3    H215604   3.039   5.497   3.112
 5200TIP3   OH215605   5.184   2.114   0.280
 5200TIP3    H115606   5.117   2.083   0.220
 5200TIP3    H215607   5.186   2.049   0.350
 5201TIP3   OH215608   2.922   4.394   2.580
 5201TIP3    H115609   2.938   4.407   2.674
 5201TIP3    H215610   3.004   4.360   2.546
 5202TIP3   OH215611   1.253   0.817   1.359
 5202TIP3    H115612   1.174   0.763   1.363
 5202TIP3    H215613   1.313   0.779   1.423
 5203TIP3   OH215614   2.610   5.740   3.775
 5203TIP3    H115615   2.610   5.756   3.869
 5203TIP3    H215616   2.702   5.730   3.752
 5204TIP3   OH215617   0.500   0.344   4.146
 5204TIP3    H115618   0.429   0.367   4.207
 5204TIP3    H215619   0.580   0.366   4.194
 5205TIP3   OH215620   3.967   1.602   1.379
 5205TIP3    H115621   3.911   1.589   1.456
 5205TIP3    H215622   3.993   1.514   1.353
 5206TIP3   OH215623   1.701   5.789   3.527
 5206TIP3    H115624   1.724   5.882   3.530
 5206TIP3    H215625   1.704   5.761   3.619
 5207TIP3   OH215626   0.420   5.825   1.366
 5207TIP3    H115627   0.476   5.901   1.351
 5207TIP3    H215628   0.408   5.821   1.461
 5208TIP3   OH215629   0.946   1.531   1.308
 5208TIP3    H115630   0.966   1.540   1.401
 5208TIP3    H215631   0.885   1.602   1.290
 5209TIP3   OH215632   4.725   0.125   0.715
 5209TIP3    H115633   4.738   0.044   0.764
 5209TIP3    H215634   4.767   0.193   0.768
 5210TIP3   OH215635   4.561   0.737   2.259
 5210TIP3    H115636   4.535   0.655   2.218
 5210TIP3    H215637   4.519   0.805   2.205
 5211TIP3   OH215638   5.298   5.872   4.610
 5211TIP3    H115639   5.390   5.868   4.637
 5211TIP3    H215640   5.276   5.965   4.616
 5212TIP3   OH215641   3.299   2.511   4.045
 5212TIP3    H115642   3.382   2.470   4.020
 5212TIP3    H215643   3.253   2.524   3.962
 5213TIP3   OH215644   5.410   3.763   0.939
 5213TIP3    H115645   5.380   3.673   0.942
 5213TIP3    H215646   5.506   3.757   0.937
 5214TIP3   OH215647   6.230   2.962   4.184
 5214TIP3    H115648   6.320   2.930   4.179
 5214TIP3    H215649   6.201   2.966   4.093
 5215TIP3   OH215650   4.037   3.892   3.921
 5215TIP3    H115651   3.948   3.912   3.950
 5215TIP3    H215652   4.087   3.971   3.941
 5216TIP3   OH215653   5.429   4.494   2.089
 5216TIP3    H115654   5.430   4.568   2.028
 5216TIP3    H215655   5.384   4.527   2.166
 5217TIP3   OH215656   6.139   3.641   0.810
 5217TIP3    H115657   6.157   3.658   0.903
 5217TIP3    H215658   6.211   3.683   0.764
 5218TIP3   OH215659   2.557   4.268   1.108
 5218TIP3    H115660   2.465   4.240   1.107
 5218TIP3    H215661   2.576   4.290   1.017
 5219TIP3   OH215662   1.578   5.222   2.759
 5219TIP3    H115663   1.672   5.239   2.753
 5219TIP3    H215664   1.547   5.223   2.669
 5220TIP3   OH215665   2.904   0.160   1.365
 5220TIP3    H115666   2.944   0.095   1.307
 5220TIP3    H215667   2.974   0.223   1.383
 5221TIP3   OH215668   5.635   0.189   1.058
 5221TIP3    H115669   5.662   0.264   1.005
 5221TIP3    H215670   5.619   0.120   0.994
 5222TIP3   OH215671   4.857   3.913   2.964
 5222TIP3    H115672   4.819   3.882   3.046
 5222TIP3    H215673   4.782   3.924   2.905
 5223TIP3   OH215674   4.001   1.839   3.470
 5223TIP3    H115675   4.076   1.814   3.415
 5223TIP3    H215676   4.011   1.786   3.549
 5224TIP3   OH215677   5.771   4.601   4.921
 5224TIP3    H115678   5.725   4.676   4.957
 5224TIP3    H215679   5.863   4.629   4.917
 5225TIP3   OH215680   5.643   2.089   1.185
 5225TIP3    H115681   5.688   2.159   1.232
 5225TIP3    H215682   5.713   2.045   1.136
 5226TIP3   OH215683   2.671   2.146   2.274
 5226TIP3    H115684   2.591   2.181   2.314
 5226TIP3    H215685   2.693   2.209   2.205
 5227TIP3   OH215686   0.182   1.378   4.104
 5227TIP3    H115687   0.237   1.349   4.032
 5227TIP3    H215688   0.160   1.469   4.083
 5228TIP3   OH215689   2.348   3.587   4.742
 5228TIP3    H115690   2.300   3.514   4.781
 5228TIP3    H215691   2.303   3.604   4.660
 5229TIP3   OH215692   1.301   5.492   2.355
 5229TIP3    H115693   1.226   5.435   2.344
 5229TIP3    H215694   1.292   5.558   2.287
 5230TIP3   OH215695   4.637   0.449   2.516
 5230TIP3    H115696   4.562   0.391   2.529
 5230TIP3    H215697   4.599   0.535   2.501
 5231TIP3   OH215698   5.963   4.565   0.709
 5231TIP3    H115699   5.873   4.576   0.740
 5231TIP3    H215700   6.014   4.629   0.759
 5232TIP3   OH215701   3.513   2.136   3.391
 5232TIP3    H115702   3.525   2.171   3.479
 5232TIP3    H215703   3.522   2.212   3.333
 5233TIP3   OH215704   4.409   5.820   1.804
 5233TIP3    H115705   4.313   5.818   1.802
 5233TIP3    H215706   4.431   5.883   1.873
 5234TIP3   OH215707   5.142   3.969   4.158
 5234TIP3    H115708   5.118   3.920   4.080
 5234TIP3    H215709   5.137   3.905   4.229
 5235TIP3   OH215710   2.679   3.277   1.055
 5235TIP3    H115711   2.588   3.291   1.031
 5235TIP3    H215712   2.680   3.286   1.151
 5236TIP3   OH215713   2.951   2.171   2.821
 5236TIP3    H115714   2.963   2.208   2.909
 5236TIP3    H215715   2.959   2.246   2.763
 5237TIP3   OH215716   5.548   5.652   0.393
 5237TIP3    H115717   5.558   5.652   0.488
 5237TIP3    H215718   5.475   5.710   0.376
 5238TIP3   OH215719   0.913   0.506   4.851
 5238TIP3    H115720   0.982   0.519   4.916
 5238TIP3    H215721   0.850   0.448   4.894
 5239TIP3   OH215722   1.681   5.643   3.137
 5239TIP3    H115723   1.749   5.653   3.203
 5239TIP3    H215724   1.728   5.649   3.054
 5240TIP3   OH215725   4.075   1.075   1.516
 5240TIP3    H115726   4.009   1.135   1.482
 5240TIP3    H215727   4.032   0.989   1.515
 5241TIP3   OH215728   5.737   1.247   0.904
 5241TIP3    H115729   5.694   1.250   0.818
 5241TIP3    H215730   5.813   1.304   0.893
 5242TIP3   OH215731   3.664   0.087   4.193
 5242TIP3    H115732   3.660   0.158   4.129
 5242TIP3    H215733   3.685   0.131   4.276
 5243TIP3   OH215734   4.637   0.829   0.876
 5243TIP3    H115735   4.590   0.855   0.796
 5243TIP3    H215736   4.568   0.798   0.935
 5244TIP3   OH215737   1.260   2.394   4.749
 5244TIP3    H115738   1.216   2.467   4.792
 5244TIP3    H215739   1.189   2.339   4.716
 5245TIP3   OH215740   2.685   4.039   3.088
 5245TIP3    H115741   2.640   4.123   3.083
 5245TIP3    H215742   2.731   4.030   3.005
 5246TIP3   OH215743   1.691   3.455   3.537
 5246TIP3    H115744   1.752   3.452   3.610
 5246TIP3    H215745   1.609   3.421   3.573
 5247TIP3   OH215746   2.917   0.350   1.008
 5247TIP3    H115747   2.861   0.354   0.930
 5247TIP3    H215748   2.855   0.353   1.081
 5248TIP3   OH215749   1.730   0.805   4.250
 5248TIP3    H115750   1.822   0.779   4.261
 5248TIP3    H215751   1.699   0.824   4.338
 5249TIP3   OH215752   2.606   5.442   3.684
 5249TIP3    H115753   2.624   5.536   3.691
 5249TIP3    H215754   2.621   5.408   3.772
 5250TIP3   OH215755   2.374   4.214   2.107
 5250TIP3    H115756   2.284   4.218   2.072
 5250TIP3    H215757   2.372   4.269   2.185
 5251TIP3   OH215758   1.521   0.162   4.362
 5251TIP3    H115759   1.584   0.232   4.375
 5251TIP3    H215760   1.447   0.204   4.318
 5252TIP3   OH215761   5.291   3.682   3.447
 5252TIP3    H115762   5.378   3.722   3.457
 5252TIP3    H215763   5.281   3.628   3.525
 5253TIP3   OH215764   0.435   0.307   3.576
 5253TIP3    H115765   0.467   0.274   3.492
 5253TIP3    H215766   0.492   0.381   3.596
 5254TIP3   OH215767   3.109   3.198   5.020
 5254TIP3    H115768   3.050   3.273   5.022
 5254TIP3    H215769   3.197   3.236   5.022
 5255TIP3   OH215770   3.192   3.581   1.991
 5255TIP3    H115771   3.186   3.662   1.940
 5255TIP3    H215772   3.261   3.530   1.949
 5256TIP3   OH215773   1.164   2.563   2.071
 5256TIP3    H115774   1.202   2.495   2.015
 5256TIP3    H215775   1.216   2.559   2.151
 5257TIP3   OH215776   3.346   4.582   0.711
 5257TIP3    H115777   3.399   4.633   0.650
 5257TIP3    H215778   3.286   4.645   0.750
 5258TIP3   OH215779   1.927   4.925   3.011
 5258TIP3    H115780   1.868   4.850   3.005
 5258TIP3    H215781   1.869   5.001   3.016
 5259TIP3   OH215782   2.825   5.250   1.943
 5259TIP3    H115783   2.769   5.197   1.885
 5259TIP3    H215784   2.913   5.215   1.928
 5260TIP3   OH215785   1.255   4.857   2.566
 5260TIP3    H115786   1.230   4.819   2.650
 5260TIP3    H215787   1.343   4.823   2.550
 5261TIP3   OH215788   4.656   4.772   2.305
 5261TIP3    H115789   4.701   4.719   2.238
 5261TIP3    H215790   4.725   4.801   2.364
 5262TIP3   OH215791   0.509   2.530   0.598
 5262TIP3    H115792   0.481   2.481   0.675
 5262TIP3    H215793   0.466   2.486   0.525
 5263TIP3   OH215794   3.155   1.934   3.525
 5263TIP3    H115795   3.082   1.966   3.578
 5263TIP3    H215796   3.227   1.925   3.586
 5264TIP3   OH215797   6.231   0.488   2.339
 5264TIP3    H115798   6.230   0.519   2.248
 5264TIP3    H215799   6.291   0.546   2.384
 5265TIP3   OH215800  -0.004   1.303   4.644
 5265TIP3    H115801   0.059   1.283   4.575
 5265TIP3    H215802   0.020   1.244   4.716
 5266TIP3   OH215803   6.189   3.038   0.633
 5266TIP3    H115804   6.184   2.989   0.551
 5266TIP3    H215805   6.193   3.130   0.607
 5267TIP3   OH215806   3.911   1.429   4.514
 5267TIP3    H115807   3.974   1.500   4.499
 5267TIP3    H215808   3.951   1.353   4.473
 5268TIP3   OH215809   1.997   2.953   1.055
 5268TIP3    H115810   1.907   2.971   1.080
 5268TIP3    H215811   2.035   2.909   1.131
 5269TIP3   OH215812   3.339   4.421   0.089
 5269TIP3    H115813   3.320   4.367   0.165
 5269TIP3    H215814   3.275   4.492   0.092
 5270TIP3   OH215815   5.132   5.501   1.496
 5270TIP3    H115816   5.115   5.571   1.558
 5270TIP3    H215817   5.218   5.467   1.519
 5271TIP3   OH215818   2.046   0.266   1.967
 5271TIP3    H115819   1.989   0.243   2.040
 5271TIP3    H215820   2.126   0.298   2.008
 5272TIP3   OH215821   3.001   0.256   3.906
 5272TIP3    H115822   3.029   0.166   3.887
 5272TIP3    H215823   2.909   0.259   3.876
 5273TIP3   OH215824   6.131   3.777   4.043
 5273TIP3    H115825   6.052   3.815   4.006
 5273TIP3    H215826   6.194   3.850   4.045
 5274TIP3   OH215827   0.661   0.868   4.332
 5274TIP3    H115828   0.605   0.855   4.255
 5274TIP3    H215829   0.750   0.853   4.300
 5275TIP3   OH215830   4.869   1.630   3.629
 5275TIP3    H115831   4.774   1.630   3.633
 5275TIP3    H215832   4.894   1.722   3.637
 5276TIP3   OH215833   0.066   3.470   2.176
 5276TIP3    H115834   0.149   3.517   2.174
 5276TIP3    H215835   0.007   3.530   2.222
 5277TIP3   OH215836   5.934   1.779   2.956
 5277TIP3    H115837   5.850   1.774   3.000
 5277TIP3    H215838   5.976   1.858   2.992
 5278TIP3   OH215839   1.307   5.115   2.696
 5278TIP3    H115840   1.281   5.172   2.624
 5278TIP3    H215841   1.311   5.028   2.657
 5279TIP3   OH215842   0.369   1.509   0.114
 5279TIP3    H115843   0.286   1.528   0.071
 5279TIP3    H215844   0.358   1.543   0.203
 5280TIP3   OH215845   3.902   2.773   4.186
 5280TIP3    H115846   3.921   2.708   4.253
 5280TIP3    H215847   3.898   2.723   4.104
 5281TIP3   OH215848   2.035   0.466   0.153
 5281TIP3    H115849   2.117   0.417   0.144
 5281TIP3    H215850   1.987   0.419   0.221
 5282TIP3   OH215851   3.263   5.843   0.784
 5282TIP3    H115852   3.340   5.899   0.789
 5282TIP3    H215853   3.189   5.904   0.781
 5283TIP3   OH215854   0.596   0.413   2.407
 5283TIP3    H115855   0.656   0.472   2.453
 5283TIP3    H215856   0.562   0.466   2.335
 5284TIP3   OH215857   2.287   0.915   0.107
 5284TIP3    H115858   2.233   0.941   0.181
 5284TIP3    H215859   2.366   0.879   0.146
 5285TIP3   OH215860   3.955   0.060   2.255
 5285TIP3    H115861   3.978   0.108   2.175
 5285TIP3    H215862   4.030   0.072   2.313
 5286TIP3   OH215863   2.706   0.158   2.714
 5286TIP3    H115864   2.777   0.160   2.778
 5286TIP3    H215865   2.678   0.250   2.706
 5287TIP3   OH215866   3.125   1.748   2.065
 5287TIP3    H115867   3.063   1.742   1.992
 5287TIP3    H215868   3.199   1.797   2.029
 5288TIP3   OH215869   1.470   1.101   4.747
 5288TIP3    H115870   1.529   1.176   4.745
 5288TIP3    H215871   1.421   1.111   4.828
 5289TIP3   OH215872   5.937   1.965   3.962
 5289TIP3    H115873   5.843   1.978   3.972
 5289TIP3    H215874   5.949   1.945   3.869
 5290TIP3   OH215875   5.854   2.910   3.458
 5290TIP3    H115876   5.793   2.976   3.490
 5290TIP3    H215877   5.910   2.890   3.533
 5291TIP3   OH215878   4.080   1.454   2.087
 5291TIP3    H115879   4.128   1.395   2.028
 5291TIP3    H215880   4.114   1.433   2.174
 5292TIP3   OH215881   6.379   1.854   1.460
 5292TIP3    H115882   6.391   1.775   1.408
 5292TIP3    H215883   6.461   1.903   1.448
 5293TIP3   OH215884   5.893   4.521   2.462
 5293TIP3    H115885   5.855   4.494   2.379
 5293TIP3    H215886   5.973   4.469   2.470
 5294TIP3   OH215887   4.576   4.472   1.426
 5294TIP3    H115888   4.552   4.444   1.338
 5294TIP3    H215889   4.649   4.532   1.413
 5295TIP3   OH215890   0.154   2.579   0.780
 5295TIP3    H115891   0.223   2.516   0.800
 5295TIP3    H215892   0.195   2.665   0.793
 5296TIP3   OH215893   4.293   3.269   3.235
 5296TIP3    H115894   4.307   3.201   3.300
 5296TIP3    H215895   4.293   3.223   3.151
 5297TIP3   OH215896   0.732   5.818   1.338
 5297TIP3    H115897   0.745   5.737   1.289
 5297TIP3    H215898   0.685   5.875   1.277
 5298TIP3   OH215899   4.016   0.366   1.358
 5298TIP3    H115900   4.027   0.434   1.425
 5298TIP3    H215901   3.937   0.393   1.311
 5299TIP3   OH215902   0.680   0.587   3.214
 5299TIP3    H115903   0.650   0.674   3.187
 5299TIP3    H215904   0.666   0.585   3.309
 5300TIP3   OH215905   0.129   1.311   0.211
 5300TIP3    H115906   0.113   1.238   0.151
 5300TIP3    H215907   0.120   1.389   0.157
 5301TIP3   OH215908   4.035   4.997   2.954
 5301TIP3    H115909   4.007   5.061   2.889
 5301TIP3    H215910   3.971   5.006   3.025
 5302TIP3   OH215911   2.064   1.646   5.152
 5302TIP3    H115912   2.003   1.583   5.190
 5302TIP3    H215913   2.139   1.593   5.124
 5303TIP3   OH215914   3.363   0.192   2.355
 5303TIP3    H115915   3.453   0.170   2.379
 5303TIP3    H215916   3.336   0.256   2.420
 5304TIP3   OH215917   5.058   5.733   3.409
 5304TIP3    H115918   5.003   5.656   3.395
 5304TIP3    H215919   5.086   5.759   3.321
 5305TIP3   OH215920   3.985   3.553   1.483
 5305TIP3    H115921   3.904   3.502   1.481
 5305TIP3    H215922   4.039   3.511   1.550
 5306TIP3   OH215923   1.329   3.430   1.405
 5306TIP3    H115924   1.263   3.429   1.474
 5306TIP3    H215925   1.279   3.437   1.324
 5307TIP3   OH215926   4.405   0.288   3.983
 5307TIP3    H115927   4.479   0.321   4.033
 5307TIP3    H215928   4.362   0.367   3.949
 5308TIP3   OH215929   1.794   2.400   3.894
 5308TIP3    H115930   1.817   2.420   3.803
 5308TIP3    H215931   1.718   2.341   3.886
 5309TIP3   OH215932   5.167   4.864   0.493
 5309TIP3    H115933   5.082   4.828   0.519
 5309TIP3    H215934   5.202   4.904   0.573
 5310TIP3   OH215935   4.810   0.183   2.164
 5310TIP3    H115936   4.782   0.207   2.076
 5310TIP3    H215937   4.857   0.260   2.196
 5311TIP3   OH215938   1.464   3.357   4.204
 5311TIP3    H115939   1.558   3.376   4.201
 5311TIP3    H215940   1.442   3.355   4.297
 5312TIP3   OH215941   3.865   4.553   2.460
 5312TIP3    H115942   3.915   4.615   2.512
 5312TIP3    H215943   3.874   4.583   2.370
 5313TIP3   OH215944   1.040   5.965   4.388
 5313TIP3    H115945   1.035   5.877   4.351
 5313TIP3    H215946   1.082   6.018   4.320
 5314TIP3   OH215947   3.649   4.640   0.812
 5314TIP3    H115948   3.589   4.715   0.812
 5314TIP3    H215949   3.723   4.668   0.866
 5315TIP3   OH215950   4.302   1.921   0.169
 5315TIP3    H115951   4.237   1.940   0.236
 5315TIP3    H215952   4.319   2.006   0.128
 5316TIP3   OH215953   3.769   3.870   4.062
 5316TIP3    H115954   3.752   3.814   4.137
 5316TIP3    H215955   3.684   3.881   4.019
 5317TIP3   OH215956   0.228   0.414   4.016
 5317TIP3    H115957   0.177   0.334   4.033
 5317TIP3    H215958   0.259   0.442   4.102
 5318TIP3   OH215959   2.465   5.635   2.044
 5318TIP3    H115960   2.406   5.629   1.969
 5318TIP3    H215961   2.455   5.551   2.089
 5319TIP3   OH215962   5.963   2.627   2.761
 5319TIP3    H115963   5.935   2.612   2.671
 5319TIP3    H215964   5.887   2.601   2.814
 5320TIP3   OH215965   1.423   2.333   0.267
 5320TIP3    H115966   1.378   2.417   0.268
 5320TIP3    H215967   1.390   2.288   0.189
 5321TIP3   OH215968   1.918   2.176   0.849
 5321TIP3    H115969   1.874   2.140   0.772
 5321TIP3    H215970   2.011   2.175   0.826
 5322TIP3   OH215971   4.040   3.408   3.557
 5322TIP3    H115972   3.992   3.433   3.478
 5322TIP3    H215973   4.057   3.315   3.546
 5323TIP3   OH215974   3.221   2.241   3.485
 5323TIP3    H115975   3.268   2.171   3.440
 5323TIP3    H215976   3.230   2.220   3.578
 5324TIP3   OH215977   4.939   0.988   2.187
 5324TIP3    H115978   4.910   0.907   2.229
 5324TIP3    H215979   4.878   1.001   2.115
 5325TIP3   OH215980   1.528   2.303   2.861
 5325TIP3    H115981   1.455   2.340   2.911
 5325TIP3    H215982   1.487   2.261   2.785
 5326TIP3   OH215983   1.645   3.871   1.178
 5326TIP3    H115984   1.679   3.876   1.089
 5326TIP3    H215985   1.687   3.793   1.216
 5327TIP3   OH215986   6.239   4.579   4.253
 5327TIP3    H115987   6.190   4.507   4.214
 5327TIP3    H215988   6.311   4.537   4.300
 5328TIP3   OH215989   1.857   2.712   2.611
 5328TIP3    H115990   1.947   2.701   2.643
 5328TIP3    H215991   1.810   2.635   2.643
 5329TIP3   OH215992   1.816   5.527   4.497
 5329TIP3    H115993   1.886   5.550   4.557
 5329TIP3    H215994   1.797   5.435   4.517
 5330TIP3   OH215995   1.222   4.884   1.941
 5330TIP3    H115996   1.274   4.936   1.879
 5330TIP3    H215997   1.132   4.893   1.910
 5331TIP3   OH215998   3.987   5.264   4.354
 5331TIP3    H115999   4.026   5.335   4.302
 5331TIP3    H216000   3.896   5.290   4.365
 5332TIP3   OH216001   0.727   1.484   2.017
 5332TIP3    H116002   0.753   1.572   2.045
 5332TIP3    H216003   0.720   1.434   2.099
 5333TIP3   OH216004   5.707   0.721   4.845
 5333TIP3    H116005   5.764   0.658   4.801
 5333TIP3    H216006   5.629   0.670   4.868
 5334TIP3   OH216007   3.006   3.301   3.169
 5334TIP3    H116008   3.044   3.233   3.225
 5334TIP3    H216009   2.942   3.345   3.226
 5335TIP3   OH216010   2.325   4.496   1.427
 5335TIP3    H116011   2.381   4.552   1.372
 5335TIP3    H216012   2.303   4.422   1.372
 5336TIP3   OH216013   4.867   5.017   2.829
 5336TIP3    H116014   4.794   4.979   2.877
 5336TIP3    H216015   4.908   5.077   2.892
 5337TIP3   OH216016   5.132   3.576   0.727
 5337TIP3    H116017   5.105   3.605   0.639
 5337TIP3    H216018   5.071   3.620   0.786
 5338TIP3   OH216019   5.381   5.400   1.579
 5338TIP3    H116020   5.402   5.308   1.597
 5338TIP3    H216021   5.465   5.445   1.582
 5339TIP3   OH216022   1.468   1.412   3.783
 5339TIP3    H116023   1.394   1.352   3.795
 5339TIP3    H216024   1.534   1.382   3.846
 5340TIP3   OH216025   2.785   1.001   1.964
 5340TIP3    H116026   2.851   0.944   2.004
 5340TIP3    H216027   2.733   0.943   1.909
 5341TIP3   OH216028   3.603   3.318   3.439
 5341TIP3    H116029   3.628   3.247   3.380
 5341TIP3    H216030   3.640   3.291   3.524
 5342TIP3   OH216031   5.791   0.073   0.695
 5342TIP3    H116032   5.887   0.069   0.695
 5342TIP3    H216033   5.764  -0.014   0.722
 5343TIP3   OH216034   1.645   1.276   5.028
 5343TIP3    H116035   1.739   1.262   5.037
 5343TIP3    H216036   1.634   1.371   5.027
 5344TIP3   OH216037   4.586   1.431   3.905
 5344TIP3    H116038   4.608   1.349   3.950
 5344TIP3    H216039   4.491   1.428   3.895
 5345TIP3   OH216040   1.867   2.857   1.417
 5345TIP3    H116041   1.858   2.765   1.442
 5345TIP3    H216042   1.957   2.865   1.385
 5346TIP3   OH216043   2.925   1.387   2.730
 5346TIP3    H116044   2.933   1.334   2.809
 5346TIP3    H216045   2.992   1.455   2.741
 5347TIP3   OH216046   2.540   0.711   4.528
 5347TIP3    H116047   2.586   0.779   4.578
 5347TIP3    H216048   2.537   0.745   4.438
 5348TIP3   OH216049   3.930   2.065   3.337
 5348TIP3    H116050   3.994   2.132   3.361
 5348TIP3    H216051   3.927   2.007   3.412
 5349TIP3   OH216052   1.403   5.054   0.124
 5349TIP3    H116053   1.448   4.977   0.156
 5349TIP3    H216054   1.436   5.066   0.035
 5350TIP3   OH216055   0.271   2.185   1.743
 5350TIP3    H116056   0.178   2.164   1.753
 5350TIP3    H216057   0.273   2.281   1.734
 5351TIP3   OH216058   2.243   5.463   2.764
 5351TIP3    H116059   2.258   5.554   2.792
 5351TIP3    H216060   2.268   5.463   2.672
 5352TIP3   OH216061   1.149   5.083   0.069
 5352TIP3    H116062   1.126   5.012   0.008
 5352TIP3    H216063   1.244   5.076   0.078
 5353TIP3   OH216064   5.428   2.855   4.474
 5353TIP3    H116065   5.429   2.792   4.545
 5353TIP3    H216066   5.496   2.824   4.414
 5354TIP3   OH216067   0.913   5.612   3.794
 5354TIP3    H116068   0.948   5.654   3.716
 5354TIP3    H216069   0.953   5.659   3.867
 5355TIP3   OH216070   5.631   2.958   0.985
 5355TIP3    H116071   5.567   3.030   0.975
 5355TIP3    H216072   5.614   2.902   0.909
 5356TIP3   OH216073   2.378   0.643   1.797
 5356TIP3    H116074   2.433   0.571   1.767
 5356TIP3    H216075   2.301   0.640   1.741
 5357TIP3   OH216076   4.136   0.474   4.013
 5357TIP3    H116077   4.054   0.516   3.988
 5357TIP3    H216078   4.158   0.512   4.098
 5358TIP3   OH216079   1.191   0.333   0.921
 5358TIP3    H116080   1.276   0.353   0.962
 5358TIP3    H216081   1.127   0.351   0.990
 5359TIP3   OH216082   6.198   2.109   3.788
 5359TIP3    H116083   6.203   2.102   3.884
 5359TIP3    H216084   6.151   2.031   3.760
 5360TIP3   OH216085   5.212   2.399   0.425
 5360TIP3    H116086   5.246   2.458   0.492
 5360TIP3    H216087   5.201   2.315   0.470
 5361TIP3   OH216088   2.428   2.594   2.439
 5361TIP3    H116089   2.444   2.655   2.511
 5361TIP3    H216090   2.337   2.610   2.413
 5362TIP3   OH216091   3.222   0.981   4.900
 5362TIP3    H116092   3.136   1.023   4.912
 5362TIP3    H216093   3.228   0.965   4.806
 5363TIP3   OH216094   2.866   4.441   4.159
 5363TIP3    H116095   2.857   4.396   4.075
 5363TIP3    H216096   2.922   4.385   4.211
 5364TIP3   OH216097   1.383   3.192   1.665
 5364TIP3    H116098   1.367   3.118   1.607
 5364TIP3    H216099   1.304   3.198   1.719
 5365TIP3   OH216100   4.422   1.088   0.714
 5365TIP3    H116101   4.365   1.163   0.733
 5365TIP3    H216102   4.371   1.011   0.740
 5366TIP3   OH216103   0.424   3.661   0.226
 5366TIP3    H116104   0.509   3.673   0.185
 5366TIP3    H216105   0.361   3.695   0.162
 5367TIP3   OH216106   3.661   2.362   2.661
 5367TIP3    H116107   3.697   2.371   2.749
 5367TIP3    H216108   3.739   2.359   2.604
 5368TIP3   OH216109   4.543   4.112   4.158
 5368TIP3    H116110   4.515   4.128   4.068
 5368TIP3    H216111   4.540   4.198   4.200
 5369TIP3   OH216112   0.303   2.678   4.035
 5369TIP3    H116113   0.398   2.686   4.047
 5369TIP3    H216114   0.292   2.598   3.983
 5370TIP3   OH216115   0.310   4.653   1.193
 5370TIP3    H116116   0.311   4.572   1.245
 5370TIP3    H216117   0.236   4.642   1.133
 5371TIP3   OH216118   3.494   3.949   1.424
 5371TIP3    H116119   3.466   4.024   1.371
 5371TIP3    H216120   3.585   3.968   1.446
 5372TIP3   OH216121   1.825   4.878   0.505
 5372TIP3    H116122   1.739   4.886   0.546
 5372TIP3    H216123   1.880   4.941   0.552
 5373TIP3   OH216124   3.367   2.118   2.065
 5373TIP3    H116125   3.275   2.126   2.090
 5373TIP3    H216126   3.405   2.203   2.085
 5374TIP3   OH216127   6.233   4.769   3.971
 5374TIP3    H116128   6.311   4.716   3.985
 5374TIP3    H216129   6.233   4.787   3.877
 5375TIP3   OH216130   4.444   0.976   4.989
 5375TIP3    H116131   4.425   1.029   5.067
 5375TIP3    H216132   4.386   1.010   4.922
 5376TIP3   OH216133   0.276   5.185   0.220
 5376TIP3    H116134   0.320   5.129   0.156
 5376TIP3    H216135   0.282   5.138   0.302
 5377TIP3   OH216136   4.005   2.004   3.694
 5377TIP3    H116137   4.020   2.096   3.672
 5377TIP3    H216138   4.085   1.960   3.668
 5378TIP3   OH216139   3.460   3.065   4.363
 5378TIP3    H116140   3.493   3.140   4.315
 5378TIP3    H216141   3.365   3.069   4.351
 5379TIP3   OH216142   1.175   0.346   2.298
 5379TIP3    H116143   1.234   0.410   2.337
 5379TIP3    H216144   1.104   0.337   2.361
 5380TIP3   OH216145   1.205   3.081   1.879
 5380TIP3    H116146   1.245   3.164   1.905
 5380TIP3    H216147   1.275   3.017   1.887
 5381TIP3   OH216148   4.385   3.642   3.288
 5381TIP3    H116149   4.321   3.603   3.229
 5381TIP3    H216150   4.348   3.630   3.376
 5382TIP3   OH216151   1.495   2.389   4.346
 5382TIP3    H116152   1.415   2.338   4.332
 5382TIP3    H216153   1.559   2.352   4.286
 5383TIP3   OH216154   3.573   0.701   0.379
 5383TIP3    H116155   3.621   0.619   0.369
 5383TIP3    H216156   3.546   0.702   0.471
 5384TIP3   OH216157   4.331   3.067   3.423
 5384TIP3    H116158   4.397   3.101   3.483
 5384TIP3    H216159   4.379   3.004   3.369
 5385TIP3   OH216160   2.953   5.114   3.153
 5385TIP3    H116161   2.867   5.071   3.146
 5385TIP3    H216162   2.965   5.158   3.069
 5386TIP3   OH216163   3.930   4.877   0.354
 5386TIP3    H116164   3.979   4.865   0.273
 5386TIP3    H216165   3.872   4.951   0.336
 5387TIP3   OH216166   2.428   1.665   3.962
 5387TIP3    H116167   2.480   1.599   3.918
 5387TIP3    H216168   2.493   1.726   3.999
 5388TIP3   OH216169   0.413   5.294   4.350
 5388TIP3    H116170   0.505   5.290   4.326
 5388TIP3    H216171   0.367   5.263   4.272
 5389TIP3   OH216172   5.684   3.670   4.976
 5389TIP3    H116173   5.732   3.589   4.993
 5389TIP3    H216174   5.623   3.648   4.905
 5390TIP3   OH216175   3.753   5.064   0.179
 5390TIP3    H116176   3.688   5.110   0.125
 5390TIP3    H216177   3.837   5.086   0.139
 5391TIP3   OH216178   4.857   5.216   1.866
 5391TIP3    H116179   4.864   5.205   1.771
 5391TIP3    H216180   4.787   5.156   1.891
 5392TIP3   OH216181   3.153   3.016   4.263
 5392TIP3    H116182   3.150   2.967   4.181
 5392TIP3    H216183   3.062   3.043   4.278
 5393TIP3   OH216184   1.227   2.304   2.023
 5393TIP3    H116185   1.293   2.301   2.092
 5393TIP3    H216186   1.148   2.267   2.063
 5394TIP3   OH216187   2.579   2.441   4.066
 5394TIP3    H116188   2.588   2.392   3.984
 5394TIP3    H216189   2.658   2.421   4.115
 5395TIP3   OH216190   0.270   3.382   1.987
 5395TIP3    H116191   0.354   3.361   1.946
 5395TIP3    H216192   0.254   3.310   2.048
 5396TIP3   OH216193   1.191   5.879   1.295
 5396TIP3    H116194   1.155   5.872   1.207
 5396TIP3    H216195   1.194   5.788   1.327
 5397TIP3   OH216196   1.943   2.988   1.912
 5397TIP3    H116197   2.027   2.956   1.878
 5397TIP3    H216198   1.879   2.965   1.844
 5398TIP3   OH216199   5.922   0.660   2.944
 5398TIP3    H116200   5.880   0.699   3.021
 5398TIP3    H216201   5.856   0.664   2.876
 5399TIP3   OH216202   1.924   0.705   1.549
 5399TIP3    H116203   1.867   0.635   1.582
 5399TIP3    H216204   1.869   0.783   1.550
 5400TIP3   OH216205   4.246   3.667   2.275
 5400TIP3    H116206   4.294   3.740   2.236
 5400TIP3    H216207   4.221   3.612   2.201
 5401TIP3   OH216208   0.428   5.047   3.510
 5401TIP3    H116209   0.515   5.042   3.471
 5401TIP3    H216210   0.407   4.957   3.535
 5402TIP3   OH216211   0.670   2.148   1.001
 5402TIP3    H116212   0.736   2.129   0.934
 5402TIP3    H216213   0.718   2.197   1.068
 5403TIP3   OH216214   5.446   4.606   4.030
 5403TIP3    H116215   5.465   4.652   4.112
 5403TIP3    H216216   5.381   4.662   3.987
 5404TIP3   OH216217   4.549   5.858   0.754
 5404TIP3    H116218   4.604   5.903   0.690
 5404TIP3    H216219   4.507   5.929   0.803
 5405TIP3   OH216220   1.023   3.546   1.742
 5405TIP3    H116221   1.047   3.636   1.723
 5405TIP3    H216222   1.034   3.536   1.836
 5406TIP3   OH216223   5.176   1.106   1.635
 5406TIP3    H116224   5.118   1.042   1.677
 5406TIP3    H216225   5.137   1.121   1.549
 5407TIP3   OH216226   5.530   4.085   2.352
 5407TIP3    H116227   5.441   4.115   2.368
 5407TIP3    H216228   5.523   3.989   2.354
 5408TIP3   OH216229   2.014   2.990   2.783
 5408TIP3    H116230   1.947   2.962   2.720
 5408TIP3    H216231   1.969   2.990   2.867
 5409TIP3   OH216232   4.309   1.242   4.326
 5409TIP3    H116233   4.376   1.304   4.297
 5409TIP3    H216234   4.354   1.158   4.331
 5410TIP3   OH216235   3.930   5.965   2.651
 5410TIP3    H116236   3.941   5.922   2.566
 5410TIP3    H216237   3.837   5.955   2.671
 5411TIP3   OH216238   4.071   5.800   0.232
 5411TIP3    H116239   4.121   5.821   0.153
 5411TIP3    H216240   3.981   5.821   0.209
 5412TIP3   OH216241   4.277   1.013   3.201
 5412TIP3    H116242   4.292   0.969   3.117
 5412TIP3    H216243   4.345   1.080   3.206
 5413TIP3   OH216244   3.874   3.436   2.371
 5413TIP3    H116245   3.825   3.508   2.412
 5413TIP3    H216246   3.874   3.367   2.438
 5414TIP3   OH216247   1.662   3.214   1.746
 5414TIP3    H116248   1.632   3.304   1.755
 5414TIP3    H216249   1.590   3.169   1.701
 5415TIP3   OH216250   2.576   0.469   0.680
 5415TIP3    H116251   2.584   0.433   0.592
 5415TIP3    H216252   2.665   0.493   0.705
 5416TIP3   OH216253   5.681   2.065   4.409
 5416TIP3    H116254   5.604   2.104   4.452
 5416TIP3    H216255   5.709   1.996   4.469
 5417TIP3   OH216256   5.805   4.833   0.809
 5417TIP3    H116257   5.861   4.831   0.731
 5417TIP3    H216258   5.808   4.924   0.838
 5418TIP3   OH216259   3.553   4.186   5.082
 5418TIP3    H116260   3.486   4.166   5.017
 5418TIP3    H216261   3.518   4.151   5.164
 5419TIP3   OH216262   5.141   4.942   3.202
 5419TIP3    H116263   5.101   4.866   3.159
 5419TIP3    H216264   5.134   4.923   3.295
 5420TIP3   OH216265   5.286   4.380   0.141
 5420TIP3    H116266   5.331   4.328   0.075
 5420TIP3    H216267   5.200   4.338   0.150
 5421TIP3   OH216268   2.838   5.710   4.922
 5421TIP3    H116269   2.887   5.739   4.844
 5421TIP3    H216270   2.834   5.615   4.914
 5422TIP3   OH216271   2.627   5.325   3.926
 5422TIP3    H116272   2.535   5.330   3.950
 5422TIP3    H216273   2.660   5.249   3.974
 5423TIP3   OH216274   3.432   4.510   5.051
 5423TIP3    H116275   3.483   4.571   5.104
 5423TIP3    H216276   3.373   4.468   5.114
 5424TIP3   OH216277   1.415   0.307   3.277
 5424TIP3    H116278   1.396   0.398   3.296
 5424TIP3    H216279   1.391   0.296   3.185
 5425TIP3   OH216280   1.188   5.591   1.329
 5425TIP3    H116281   1.187   5.523   1.261
 5425TIP3    H216282   1.167   5.544   1.410
 5426TIP3   OH216283   5.993   5.537   3.393
 5426TIP3    H116284   6.038   5.546   3.477
 5426TIP3    H216285   5.902   5.559   3.412
 5427TIP3   OH216286   0.639   3.309   4.324
 5427TIP3    H116287   0.620   3.379   4.386
 5427TIP3    H216288   0.556   3.265   4.310
 5428TIP3   OH216289   2.541   3.413   2.131
 5428TIP3    H116290   2.535   3.509   2.132
 5428TIP3    H216291   2.456   3.383   2.101
 5429TIP3   OH216292   1.614   2.889   3.517
 5429TIP3    H116293   1.662   2.813   3.483
 5429TIP3    H216294   1.564   2.921   3.442
 5430TIP3   OH216295   1.182   4.158   3.105
 5430TIP3    H116296   1.176   4.173   3.011
 5430TIP3    H216297   1.226   4.074   3.114
 5431TIP3   OH216298   1.385   2.516   5.068
 5431TIP3    H116299   1.430   2.555   4.993
 5431TIP3    H216300   1.292   2.523   5.047
 5432TIP3   OH216301   5.426   2.212   3.914
 5432TIP3    H116302   5.401   2.300   3.887
 5432TIP3    H216303   5.384   2.201   4.000
 5433TIP3   OH216304   6.230   4.684   0.221
 5433TIP3    H116305   6.173   4.623   0.174
 5433TIP3    H216306   6.311   4.636   0.235
 5434TIP3   OH216307   2.931   5.690   4.673
 5434TIP3    H116308   2.981   5.612   4.693
 5434TIP3    H216309   2.933   5.696   4.577
 5435TIP3   OH216310   0.394   5.186   0.653
 5435TIP3    H116311   0.405   5.257   0.716
 5435TIP3    H216312   0.461   5.121   0.676
 5436TIP3   OH216313   0.757   1.137   4.252
 5436TIP3    H116314   0.677   1.089   4.274
 5436TIP3    H216315   0.728   1.204   4.191
 5437TIP3   OH216316   0.564   4.537   1.736
 5437TIP3    H116317   0.536   4.508   1.650
 5437TIP3    H216318   0.494   4.507   1.795
 5438TIP3   OH216319   0.249   3.224   5.113
 5438TIP3    H116320   0.281   3.152   5.059
 5438TIP3    H216321   0.323   3.246   5.170
 5439TIP3   OH216322   5.219   1.871   2.015
 5439TIP3    H116323   5.162   1.845   1.943
 5439TIP3    H216324   5.159   1.896   2.086
 5440TIP3   OH216325   4.232   5.197   1.140
 5440TIP3    H116326   4.150   5.154   1.164
 5440TIP3    H216327   4.210   5.249   1.062
 5441TIP3   OH216328   1.231   3.709   2.170
 5441TIP3    H116329   1.254   3.623   2.134
 5441TIP3    H216330   1.315   3.755   2.176
 5442TIP3   OH216331   4.440   2.563  -0.043
 5442TIP3    H116332   4.416   2.619   0.030
 5442TIP3    H216333   4.535   2.558  -0.040
 5443TIP3   OH216334   1.476   4.796   0.187
 5443TIP3    H116335   1.560   4.786   0.231
 5443TIP3    H216336   1.412   4.763   0.249
 5444TIP3   OH216337   0.765   1.129   2.128
 5444TIP3    H116338   0.795   1.093   2.212
 5444TIP3    H216339   0.842   1.173   2.092
 5445TIP3   OH216340   3.231   2.901   3.505
 5445TIP3    H116341   3.322   2.884   3.531
 5445TIP3    H216342   3.179   2.851   3.568
 5446TIP3   OH216343   5.494   3.150   4.612
 5446TIP3    H116344   5.486   3.084   4.543
 5446TIP3    H216345   5.410   3.147   4.657
 5447TIP3   OH216346   2.108   3.451   4.597
 5447TIP3    H116347   2.147   3.537   4.586
 5447TIP3    H216348   2.158   3.394   4.539
 5448TIP3   OH216349   2.399   2.960   0.453
 5448TIP3    H116350   2.379   2.930   0.542
 5448TIP3    H216351   2.353   2.898   0.396
 5449TIP3   OH216352   0.285   5.358   3.340
 5449TIP3    H116353   0.336   5.298   3.285
 5449TIP3    H216354   0.269   5.308   3.420
 5450TIP3   OH216355   3.861   2.414   0.536
 5450TIP3    H116356   3.910   2.332   0.526
 5450TIP3    H216357   3.835   2.438   0.447
 5451TIP3   OH216358   5.908   5.892   1.954
 5451TIP3    H116359   5.816   5.881   1.931
 5451TIP3    H216360   5.956   5.869   1.874
 5452TIP3   OH216361   2.149   1.504   0.073
 5452TIP3    H116362   2.235   1.481   0.109
 5452TIP3    H216363   2.142   1.452  -0.007
 5453TIP3   OH216364   4.708   4.183   3.536
 5453TIP3    H116365   4.710   4.234   3.456
 5453TIP3    H216366   4.623   4.203   3.575
 5454TIP3   OH216367   2.207   4.069   2.423
 5454TIP3    H116368   2.260   4.147   2.406
 5454TIP3    H216369   2.189   4.073   2.517
 5455TIP3   OH216370   5.212   2.315   4.456
 5455TIP3    H116371   5.122   2.310   4.488
 5455TIP3    H216372   5.265   2.284   4.530
 5456TIP3   OH216373   5.124   1.634   3.493
 5456TIP3    H116374   5.106   1.654   3.401
 5456TIP3    H216375   5.094   1.712   3.540
 5457TIP3   OH216376   2.353   2.732   3.194
 5457TIP3    H116377   2.381   2.774   3.113
 5457TIP3    H216378   2.398   2.647   3.194
 5458TIP3   OH216379   5.623   1.419   4.789
 5458TIP3    H116380   5.626   1.410   4.884
 5458TIP3    H216381   5.674   1.346   4.755
 5459TIP3   OH216382   5.263   5.535   1.271
 5459TIP3    H116383   5.346   5.489   1.285
 5459TIP3    H216384   5.211   5.516   1.349
 5460TIP3   OH216385   0.143   3.669   1.927
 5460TIP3    H116386   0.184   3.650   1.843
 5460TIP3    H216387   0.168   3.596   1.983
 5461TIP3   OH216388   6.164   0.658   1.014
 5461TIP3    H116389   6.154   0.564   1.030
 5461TIP3    H216390   6.237   0.664   0.952
 5462TIP3   OH216391   4.115   4.554   0.342
 5462TIP3    H116392   4.065   4.550   0.260
 5462TIP3    H216393   4.049   4.573   0.409
 5463TIP3   OH216394   6.156   1.278   0.600
 5463TIP3    H116395   6.177   1.286   0.507
 5463TIP3    H216396   6.082   1.337   0.613
 5464TIP3   OH216397   3.274   4.637   1.528
 5464TIP3    H116398   3.234   4.600   1.606
 5464TIP3    H216399   3.368   4.618   1.538
 5465TIP3   OH216400   6.145   4.325   4.883
 5465TIP3    H116401   6.164   4.241   4.840
 5465TIP3    H216402   6.085   4.303   4.954
 5466TIP3   OH216403   1.799   2.086   5.070
 5466TIP3    H116404   1.895   2.084   5.069
 5466TIP3    H216405   1.776   2.156   5.010
 5467TIP3   OH216406   0.214   4.691   4.554
 5467TIP3    H116407   0.246   4.711   4.642
 5467TIP3    H216408   0.122   4.720   4.555
 5468TIP3   OH216409   2.165   5.796   2.083
 5468TIP3    H116410   2.175   5.855   2.009
 5468TIP3    H216411   2.071   5.779   2.088
 5469TIP3   OH216412   3.930   5.843   4.530
 5469TIP3    H116413   3.978   5.886   4.459
 5469TIP3    H216414   3.997   5.800   4.582
 5470TIP3   OH216415   0.492   4.208   1.947
 5470TIP3    H116416   0.545   4.225   1.870
 5470TIP3    H216417   0.549   4.230   2.021
 5471TIP3   OH216418   6.032   3.603   2.500
 5471TIP3    H116419   6.096   3.673   2.490
 5471TIP3    H216420   5.947   3.648   2.496
 5472TIP3   OH216421   5.717   3.691   2.050
 5472TIP3    H116422   5.644   3.636   2.079
 5472TIP3    H216423   5.739   3.744   2.126
 5473TIP3   OH216424   3.863   5.521   1.466
 5473TIP3    H116425   3.776   5.484   1.449
 5473TIP3    H216426   3.857   5.612   1.437
 5474TIP3   OH216427   4.851   3.174   4.017
 5474TIP3    H116428   4.863   3.096   4.071
 5474TIP3    H216429   4.792   3.230   4.068
 5475TIP3   OH216430   4.452   5.536   3.955
 5475TIP3    H116431   4.453   5.625   3.920
 5475TIP3    H216432   4.528   5.494   3.917
 5476TIP3   OH216433   6.152   1.368   3.272
 5476TIP3    H116434   6.081   1.321   3.228
 5476TIP3    H216435   6.167   1.446   3.218
 5477TIP3   OH216436   0.122   0.771   3.016
 5477TIP3    H116437   0.081   0.831   3.077
 5477TIP3    H216438   0.056   0.755   2.949
 5478TIP3   OH216439   0.081   1.768   4.933
 5478TIP3    H116440   0.084   1.862   4.914
 5478TIP3    H216441   0.099   1.727   4.848
 5479TIP3   OH216442   3.292   1.045   3.313
 5479TIP3    H116443   3.288   1.128   3.361
 5479TIP3    H216444   3.201   1.030   3.286
 5480TIP3   OH216445   2.502   4.968   4.221
 5480TIP3    H116446   2.462   4.919   4.293
 5480TIP3    H216447   2.432   5.024   4.188
 5481TIP3   OH216448   2.357   0.161   1.855
 5481TIP3    H116449   2.447   0.135   1.837
 5481TIP3    H216450   2.342   0.135   1.946
 5482TIP3   OH216451   2.646   1.323   3.362
 5482TIP3    H116452   2.594   1.368   3.429
 5482TIP3    H216453   2.674   1.242   3.403
 5483TIP3   OH216454   2.805   1.044   3.798
 5483TIP3    H116455   2.738   1.070   3.860
 5483TIP3    H216456   2.803   1.112   3.730
 5484TIP3   OH216457   3.517   4.356   0.566
 5484TIP3    H116458   3.530   4.294   0.494
 5484TIP3    H216459   3.488   4.437   0.524
 5485TIP3   OH216460   1.118   3.897   2.336
 5485TIP3    H116461   1.202   3.943   2.338
 5485TIP3    H216462   1.138   3.814   2.293
 5486TIP3   OH216463   4.487   2.946   3.002
 5486TIP3    H116464   4.580   2.961   3.020
 5486TIP3    H216465   4.464   3.014   2.939
 5487TIP3   OH216466   0.734   2.369   2.235
 5487TIP3    H116467   0.698   2.435   2.175
 5487TIP3    H216468   0.763   2.419   2.312
 5488TIP3   OH216469   5.412   4.620   0.086
 5488TIP3    H116470   5.361   4.543   0.110
 5488TIP3    H216471   5.353   4.694   0.102
 5489TIP3   OH216472   2.878   2.170   0.958
 5489TIP3    H116473   2.928   2.200   1.035
 5489TIP3    H216474   2.806   2.232   0.951
 5490TIP3   OH216475   3.792   1.351   2.031
 5490TIP3    H116476   3.884   1.331   2.045
 5490TIP3    H216477   3.792   1.440   1.996
 5491TIP3   OH216478   1.592   2.167   2.581
 5491TIP3    H116479   1.610   2.074   2.565
 5491TIP3    H216480   1.498   2.172   2.594
 5492TIP3   OH216481   5.450   5.837   4.952
 5492TIP3    H116482   5.475   5.870   4.866
 5492TIP3    H216483   5.372   5.783   4.935
 5493TIP3   OH216484   4.794   4.855   1.912
 5493TIP3    H116485   4.751   4.925   1.962
 5493TIP3    H216486   4.771   4.874   1.821
 5494TIP3   OH216487   4.884   5.610   4.986
 5494TIP3    H116488   4.873   5.620   4.891
 5494TIP3    H216489   4.839   5.687   5.023
 5495TIP3   OH216490   5.193   0.554   3.963
 5495TIP3    H116491   5.171   0.647   3.962
 5495TIP3    H216492   5.175   0.525   3.873
 5496TIP3   OH216493   5.034   1.141   1.403
 5496TIP3    H116494   4.978   1.086   1.348
 5496TIP3    H216495   4.973   1.199   1.449
 5497TIP3   OH216496   1.565   2.229   3.837
 5497TIP3    H116497   1.508   2.189   3.771
 5497TIP3    H216498   1.626   2.159   3.862
 5498TIP3   OH216499   6.227   1.423   3.786
 5498TIP3    H116500   6.279   1.405   3.708
 5498TIP3    H216501   6.137   1.433   3.754
 5499TIP3   OH216502   3.269   0.868   4.621
 5499TIP3    H116503   3.364   0.859   4.605
 5499TIP3    H216504   3.240   0.930   4.554
 5500TIP3   OH216505   0.522   0.391   2.067
 5500TIP3    H116506   0.458   0.459   2.043
 5500TIP3    H216507   0.607   0.435   2.062
 5501TIP3   OH216508   3.769   4.206   3.152
 5501TIP3    H116509   3.723   4.131   3.115
 5501TIP3    H216510   3.849   4.214   3.101
 5502TIP3   OH216511   3.055   4.452   2.238
 5502TIP3    H116512   3.007   4.386   2.187
 5502TIP3    H216513   3.078   4.407   2.319
 5503TIP3   OH216514   5.765   4.256   3.151
 5503TIP3    H116515   5.744   4.262   3.244
 5503TIP3    H216516   5.696   4.201   3.114
 5504TIP3   OH216517   4.971   2.178   4.605
 5504TIP3    H116518   5.029   2.128   4.662
 5504TIP3    H216519   4.926   2.111   4.552
 5505TIP3   OH216520   1.292   2.779   3.196
 5505TIP3    H116521   1.360   2.827   3.243
 5505TIP3    H216522   1.318   2.687   3.204
 5506TIP3   OH216523   5.052   2.289   5.005
 5506TIP3    H116524   5.026   2.377   4.981
 5506TIP3    H216525   4.997   2.267   5.080
 5507TIP3   OH216526   3.126   3.266   1.613
 5507TIP3    H116527   3.077   3.198   1.567
 5507TIP3    H216528   3.206   3.222   1.642
 5508TIP3   OH216529   6.236   3.301   0.544
 5508TIP3    H116530   6.155   3.352   0.546
 5508TIP3    H216531   6.294   3.346   0.605
 5509TIP3   OH216532   3.785   2.453   0.260
 5509TIP3    H116533   3.778   2.423   0.169
 5509TIP3    H216534   3.702   2.427   0.300
 5510TIP3   OH216535   1.969   3.918   1.635
 5510TIP3    H116536   1.931   4.004   1.650
 5510TIP3    H216537   1.981   3.913   1.540
 5511TIP3   OH216538   1.089   0.365   0.678
 5511TIP3    H116539   1.111   0.345   0.769
 5511TIP3    H216540   1.163   0.417   0.646
 5512TIP3   OH216541   1.365   4.245   5.093
 5512TIP3    H116542   1.403   4.213   5.011
 5512TIP3    H216543   1.271   4.226   5.085
 5513TIP3   OH216544   2.138   2.220   2.125
 5513TIP3    H116545   2.084   2.169   2.185
 5513TIP3    H216546   2.223   2.176   2.125
 5514TIP3   OH216547   4.258   3.557   0.756
 5514TIP3    H116548   4.311   3.488   0.796
 5514TIP3    H216549   4.323   3.620   0.723
 5515TIP3   OH216550   0.735   0.937   2.671
 5515TIP3    H116551   0.815   0.980   2.641
 5515TIP3    H216552   0.726   0.860   2.614
 5516TIP3   OH216553   0.276   0.464   1.250
 5516TIP3    H116554   0.291   0.494   1.160
 5516TIP3    H216555   0.304   0.372   1.249
 5517TIP3   OH216556   4.478   0.699   1.061
 5517TIP3    H116557   4.435   0.620   1.095
 5517TIP3    H216558   4.438   0.771   1.110
 5518TIP3   OH216559   2.699   0.809   4.966
 5518TIP3    H116560   2.741   0.842   4.887
 5518TIP3    H216561   2.650   0.732   4.937
 5519TIP3   OH216562   4.524   1.798   4.615
 5519TIP3    H116563   4.516   1.706   4.589
 5519TIP3    H216564   4.436   1.822   4.646
 5520TIP3   OH216565   0.027   0.779   4.154
 5520TIP3    H116566   0.016   0.866   4.194
 5520TIP3    H216567   0.114   0.751   4.183
 5521TIP3   OH216568   2.393   1.361   2.132
 5521TIP3    H116569   2.371   1.269   2.117
 5521TIP3    H216570   2.482   1.369   2.097
 5522TIP3   OH216571   1.901   4.237   2.605
 5522TIP3    H116572   1.960   4.311   2.596
 5522TIP3    H216573   1.924   4.179   2.533
 5523TIP3   OH216574   0.677   5.389   3.166
 5523TIP3    H116575   0.732   5.381   3.244
 5523TIP3    H216576   0.596   5.343   3.189
 5524TIP3   OH216577   2.316   2.865   1.126
 5524TIP3    H116578   2.383   2.799   1.109
 5524TIP3    H216579   2.362   2.934   1.174
 5525TIP3   OH216580   1.082   0.010   3.083
 5525TIP3    H116581   1.008   0.069   3.098
 5525TIP3    H216582   1.147   0.065   3.039
 5526TIP3   OH216583   4.301   3.019   0.095
 5526TIP3    H116584   4.355   3.012   0.016
 5526TIP3    H216585   4.219   3.059   0.064
 5527TIP3   OH216586   0.756   5.712   4.768
 5527TIP3    H116587   0.714   5.741   4.849
 5527TIP3    H216588   0.685   5.675   4.716
 5528TIP3   OH216589   0.832   1.746   4.883
 5528TIP3    H116590   0.897   1.816   4.869
 5528TIP3    H216591   0.883   1.672   4.915
 5529TIP3   OH216592   5.659   0.704   0.881
 5529TIP3    H116593   5.578   0.739   0.918
 5529TIP3    H216594   5.630   0.649   0.808
 5530TIP3   OH216595   1.855   5.238   2.832
 5530TIP3    H116596   1.875   5.331   2.827
 5530TIP3    H216597   1.833   5.222   2.924
 5531TIP3   OH216598   0.459   5.719   1.014
 5531TIP3    H116599   0.393   5.780   1.046
 5531TIP3    H216600   0.415   5.669   0.945
 5532TIP3   OH216601   2.008   5.950   4.328
 5532TIP3    H116602   1.966   5.899   4.259
 5532TIP3    H216603   1.991   5.902   4.409
 5533TIP3   OH216604   1.991   5.110   0.054
 5533TIP3    H116605   1.989   5.196   0.095
 5533TIP3    H216606   2.063   5.064   0.098
 5534TIP3   OH216607   3.637   3.699   2.027
 5534TIP3    H116608   3.578   3.637   2.069
 5534TIP3    H216609   3.599   3.785   2.043
 5535TIP3   OH216610   4.323   0.657   0.506
 5535TIP3    H116611   4.368   0.576   0.531
 5535TIP3    H216612   4.285   0.637   0.420
 5536TIP3   OH216613   3.975   3.450   1.161
 5536TIP3    H116614   4.016   3.443   1.075
 5536TIP3    H216615   4.048   3.463   1.222
 5537TIP3   OH216616   3.853   5.990   0.138
 5537TIP3    H116617   3.917   6.012   0.070
 5537TIP3    H216618   3.788   5.936   0.094
 5538TIP3   OH216619   5.222   1.432   2.703
 5538TIP3    H116620   5.144   1.459   2.752
 5538TIP3    H216621   5.290   1.422   2.770
 5539TIP3   OH216622   1.177   0.158   4.572
 5539TIP3    H116623   1.131   0.239   4.547
 5539TIP3    H216624   1.184   0.109   4.491
 5540TIP3   OH216625   5.662   4.611   4.454
 5540TIP3    H116626   5.669   4.622   4.359
 5540TIP3    H216627   5.671   4.700   4.489
 5541TIP3   OH216628   0.537   0.147   2.473
 5541TIP3    H116629   0.586   0.229   2.477
 5541TIP3    H216630   0.446   0.172   2.488
 5542TIP3   OH216631   5.147   2.229   0.912
 5542TIP3    H116632   5.165   2.206   1.003
 5542TIP3    H216633   5.075   2.172   0.886
 5543TIP3   OH216634   5.677   3.721   1.339
 5543TIP3    H116635   5.652   3.741   1.429
 5543TIP3    H216636   5.596   3.731   1.289
 5544TIP3   OH216637   3.165   0.227   1.240
 5544TIP3    H116638   3.249   0.204   1.280
 5544TIP3    H216639   3.165   0.322   1.238
 5545TIP3   OH216640   0.461   5.518   5.174
 5545TIP3    H116641   0.523   5.534   5.245
 5545TIP3    H216642   0.489   5.435   5.135
 5546TIP3   OH216643   5.623   1.409   5.059
 5546TIP3    H116644   5.601   1.438   5.147
 5546TIP3    H216645   5.715   1.433   5.048
 5547TIP3   OH216646   6.105   2.477   4.645
 5547TIP3    H116647   6.017   2.495   4.611
 5547TIP3    H216648   6.093   2.466   4.739
 5548TIP3   OH216649   0.353   3.350   0.949
 5548TIP3    H116650   0.421   3.293   0.914
 5548TIP3    H216651   0.371   3.354   1.043
 5549TIP3   OH216652   0.786   0.334   4.671
 5549TIP3    H116653   0.715   0.313   4.612
 5549TIP3    H216654   0.751   0.402   4.729
 5550TIP3   OH216655   1.600   2.102   2.142
 5550TIP3    H116656   1.527   2.071   2.088
 5550TIP3    H216657   1.637   2.023   2.180
 5551TIP3   OH216658   1.582   3.029   3.996
 5551TIP3    H116659   1.543   3.084   3.928
 5551TIP3    H216660   1.508   2.990   4.042
 5552TIP3   OH216661   4.948   1.646   4.804
 5552TIP3    H116662   5.039   1.625   4.824
 5552TIP3    H216663   4.902   1.639   4.887
 5553TIP3   OH216664   5.513   4.664   1.903
 5553TIP3    H116665   5.605   4.641   1.916
 5553TIP3    H216666   5.477   4.592   1.851
 5554TIP3   OH216667   5.241   5.524   3.725
 5554TIP3    H116668   5.301   5.572   3.782
 5554TIP3    H216669   5.237   5.576   3.644
 5555TIP3   OH216670   3.156   4.753   0.798
 5555TIP3    H116671   3.074   4.794   0.770
 5555TIP3    H216672   3.146   4.742   0.892
 5556TIP3   OH216673   5.867   3.394   4.086
 5556TIP3    H116674   5.773   3.392   4.103
 5556TIP3    H216675   5.889   3.304   4.061
 5557TIP3   OH216676   3.115   1.647   2.307
 5557TIP3    H116677   3.044   1.583   2.298
 5557TIP3    H216678   3.118   1.692   2.223
 5558TIP3   OH216679   5.106   4.490   2.166
 5558TIP3    H116680   5.140   4.559   2.223
 5558TIP3    H216681   5.070   4.537   2.091
 5559TIP3   OH216682   3.979   3.655   0.234
 5559TIP3    H116683   3.992   3.587   0.168
 5559TIP3    H216684   3.918   3.717   0.194
 5560TIP3   OH216685   5.092   1.517   0.812
 5560TIP3    H116686   5.089   1.437   0.759
 5560TIP3    H216687   5.157   1.497   0.880
 5561TIP3   OH216688   0.530   5.924   0.357
 5561TIP3    H116689   0.475   5.889   0.287
 5561TIP3    H216690   0.475   5.920   0.435
 5562TIP3   OH216691   1.386   1.856   0.225
 5562TIP3    H116692   1.378   1.878   0.132
 5562TIP3    H216693   1.430   1.931   0.264
 5563TIP3   OH216694   5.990   6.011   0.310
 5563TIP3    H116695   5.923   6.023   0.242
 5563TIP3    H216696   6.073   6.026   0.265
 5564TIP3   OH216697   2.489   3.405   0.851
 5564TIP3    H116698   2.502   3.497   0.830
 5564TIP3    H216699   2.475   3.363   0.766
 5565TIP3   OH216700   5.981   0.117   2.141
 5565TIP3    H116701   6.030   0.161   2.211
 5565TIP3    H216702   6.014   0.156   2.060
 5566TIP3   OH216703   6.344   0.555   5.001
 5566TIP3    H116704   6.352   0.460   5.000
 5566TIP3    H216705   6.329   0.577   5.093
 5567TIP3   OH216706   3.319   0.150   3.966
 5567TIP3    H116707   3.404   0.110   3.983
 5567TIP3    H216708   3.258   0.076   3.962
 5568TIP3   OH216709   4.883   5.469   3.442
 5568TIP3    H116710   4.904   5.435   3.529
 5568TIP3    H216711   4.787   5.470   3.439
 5569TIP3   OH216712   5.932   2.666   0.284
 5569TIP3    H116713   5.988   2.661   0.361
 5569TIP3    H216714   5.847   2.631   0.314
 5570TIP3   OH216715   4.479   3.675   2.613
 5570TIP3    H116716   4.413   3.634   2.557
 5570TIP3    H216717   4.555   3.687   2.556
 5571TIP3   OH216718   1.718   1.887   3.723
 5571TIP3    H116719   1.805   1.853   3.744
 5571TIP3    H216720   1.660   1.843   3.784
 5572TIP3   OH216721   1.480   3.012   1.091
 5572TIP3    H116722   1.442   3.090   1.050
 5572TIP3    H216723   1.429   3.001   1.171
 5573TIP3   OH216724   5.508   2.444   0.606
 5573TIP3    H116725   5.545   2.461   0.693
 5573TIP3    H216726   5.414   2.452   0.618
 5574TIP3   OH216727   2.699   3.427   2.374
 5574TIP3    H116728   2.629   3.422   2.308
 5574TIP3    H216729   2.653   3.429   2.458
 5575TIP3   OH216730   1.301   1.331   4.906
 5575TIP3    H116731   1.224   1.284   4.938
 5575TIP3    H216732   1.313   1.403   4.968
 5576TIP3   OH216733   1.028   2.749   4.391
 5576TIP3    H116734   1.084   2.706   4.456
 5576TIP3    H216735   0.944   2.758   4.435
 5577TIP3   OH216736   6.113   0.703   4.530
 5577TIP3    H116737   6.124   0.631   4.467
 5577TIP3    H216738   6.057   0.667   4.598
 5578TIP3   OH216739   3.050   4.826   0.454
 5578TIP3    H116740   3.141   4.857   0.464
 5578TIP3    H216741   2.997   4.903   0.472
 5579TIP3   OH216742   5.814   2.427   4.581
 5579TIP3    H116743   5.824   2.378   4.499
 5579TIP3    H216744   5.719   2.433   4.593
 5580TIP3   OH216745   0.722   3.606   2.738
 5580TIP3    H116746   0.685   3.636   2.655
 5580TIP3    H216747   0.694   3.671   2.802
 5581TIP3   OH216748   0.376   1.746   3.247
 5581TIP3    H116749   0.355   1.835   3.273
 5581TIP3    H216750   0.453   1.723   3.298
 5582TIP3   OH216751   2.341   1.018   1.527
 5582TIP3    H116752   2.255   0.984   1.547
 5582TIP3    H216753   2.325   1.100   1.480
 5583TIP3   OH216754   0.489   4.967   3.861
 5583TIP3    H116755   0.408   4.948   3.907
 5583TIP3    H216756   0.476   4.931   3.773
 5584TIP3   OH216757   2.596   1.050   1.289
 5584TIP3    H116758   2.603   0.997   1.210
 5584TIP3    H216759   2.503   1.072   1.295
 5585TIP3   OH216760   2.199   2.910   3.343
 5585TIP3    H116761   2.126   2.862   3.382
 5585TIP3    H216762   2.253   2.843   3.302
 5586TIP3   OH216763   2.740   4.186   4.446
 5586TIP3    H116764   2.819   4.236   4.463
 5586TIP3    H216765   2.771   4.102   4.412
 5587TIP3   OH216766   5.340   2.797   1.852
 5587TIP3    H116767   5.263   2.769   1.801
 5587TIP3    H216768   5.385   2.858   1.794
 5588TIP3   OH216769   6.379   1.421   2.924
 5588TIP3    H116770   6.422   1.485   2.867
 5588TIP3    H216771   6.314   1.472   2.973
 5589TIP3   OH216772   3.158   3.871   3.755
 5589TIP3    H116773   3.076   3.835   3.790
 5589TIP3    H216774   3.213   3.794   3.740
 5590TIP3   OH216775   2.577   0.574   4.902
 5590TIP3    H116776   2.505   0.573   4.839
 5590TIP3    H216777   2.639   0.509   4.868
 5591TIP3   OH216778   5.655   4.115   3.996
 5591TIP3    H116779   5.622   4.052   4.059
 5591TIP3    H216780   5.578   4.144   3.947
 5592TIP3   OH216781   2.140   5.218   3.687
 5592TIP3    H116782   2.154   5.166   3.608
 5592TIP3    H216783   2.046   5.214   3.702
 5593TIP3   OH216784   5.470   0.920   4.060
 5593TIP3    H116785   5.397   0.873   4.019
 5593TIP3    H216786   5.429   0.980   4.122
 5594TIP3   OH216787   1.714   4.615   5.075
 5594TIP3    H116788   1.787   4.596   5.016
 5594TIP3    H216789   1.688   4.704   5.054
 5595TIP3   OH216790   5.973   5.575   2.808
 5595TIP3    H116791   5.992   5.655   2.758
 5595TIP3    H216792   5.880   5.582   2.830
 5596TIP3   OH216793   5.716   1.847   3.263
 5596TIP3    H116794   5.624   1.871   3.257
 5596TIP3    H216795   5.741   1.869   3.353
 5597TIP3   OH216796   3.199   2.722   1.350
 5597TIP3    H116797   3.191   2.645   1.406
 5597TIP3    H216798   3.160   2.697   1.267
 5598TIP3   OH216799   3.187   4.093   3.576
 5598TIP3    H116800   3.145   4.018   3.618
 5598TIP3    H216801   3.122   4.125   3.513
 5599TIP3   OH216802   3.873   4.516   4.009
 5599TIP3    H116803   3.797   4.532   4.065
 5599TIP3    H216804   3.840   4.529   3.920
 5600TIP3   OH216805   1.275   2.207   0.458
 5600TIP3    H116806   1.307   2.259   0.384
 5600TIP3    H216807   1.346   2.210   0.522
 5601TIP3   OH216808   4.847   2.406   1.004
 5601TIP3    H116809   4.861   2.317   1.037
 5601TIP3    H216810   4.762   2.403   0.961
 5602TIP3   OH216811   4.078   3.433   4.462
 5602TIP3    H116812   4.048   3.476   4.542
 5602TIP3    H216813   4.165   3.470   4.446
 5603TIP3   OH216814   3.220   5.537   3.649
 5603TIP3    H116815   3.291   5.481   3.680
 5603TIP3    H216816   3.149   5.524   3.713
 5604TIP3   OH216817   4.569   0.246   3.278
 5604TIP3    H116818   4.549   0.301   3.202
 5604TIP3    H216819   4.618   0.303   3.337
 5605TIP3   OH216820   3.107   4.771   1.808
 5605TIP3    H116821   3.067   4.726   1.882
 5605TIP3    H216822   3.201   4.761   1.822
 5606TIP3   OH216823   5.829   0.200   4.026
 5606TIP3    H116824   5.837   0.115   3.981
 5606TIP3    H216825   5.901   0.252   3.991
 5607TIP3   OH216826   5.196   3.071   3.738
 5607TIP3    H116827   5.188   3.166   3.744
 5607TIP3    H216828   5.172   3.039   3.826
 5608TIP3   OH216829   5.073   2.372   3.265
 5608TIP3    H116830   5.126   2.296   3.288
 5608TIP3    H216831   5.101   2.441   3.325
 5609TIP3   OH216832   4.620   1.154   0.046
 5609TIP3    H116833   4.641   1.071   0.004
 5609TIP3    H216834   4.685   1.162   0.116
 5610TIP3   OH216835   5.868   0.164   2.867
 5610TIP3    H116836   5.881   0.252   2.903
 5610TIP3    H216837   5.854   0.108   2.943
 5611TIP3   OH216838   5.464   5.989   4.329
 5611TIP3    H116839   5.547   5.940   4.332
 5611TIP3    H216840   5.454   6.014   4.238
 5612TIP3   OH216841   1.444   4.695   1.348
 5612TIP3    H116842   1.401   4.778   1.328
 5612TIP3    H216843   1.372   4.637   1.376
 5613TIP3   OH216844   5.637   3.145   0.138
 5613TIP3    H116845   5.660   3.231   0.173
 5613TIP3    H216846   5.702   3.086   0.177
 5614TIP3   OH216847   2.299   4.186   3.743
 5614TIP3    H116848   2.247   4.148   3.673
 5614TIP3    H216849   2.235   4.211   3.810
 5615TIP3   OH216850   1.594   4.048   4.814
 5615TIP3    H116851   1.586   4.003   4.730
 5615TIP3    H216852   1.512   4.097   4.823
 5616TIP3   OH216853   5.488   4.048   0.307
 5616TIP3    H116854   5.452   3.962   0.287
 5616TIP3    H216855   5.578   4.045   0.276
 5617TIP3   OH216856   5.034   1.562   1.500
 5617TIP3    H116857   5.119   1.575   1.460
 5617TIP3    H216858   4.978   1.628   1.460
 5618TIP3   OH216859   4.962   0.705   0.933
 5618TIP3    H116860   5.010   0.755   1.000
 5618TIP3    H216861   4.891   0.662   0.982
 5619TIP3   OH216862   5.830   3.003   0.418
 5619TIP3    H116863   5.751   2.952   0.437
 5619TIP3    H216864   5.878   3.004   0.501
 5620TIP3   OH216865   0.370   0.086   1.478
 5620TIP3    H116866   0.274   0.090   1.476
 5620TIP3    H216867   0.397   0.137   1.402
 5621TIP3   OH216868   4.797   2.713   2.956
 5621TIP3    H116869   4.891   2.733   2.952
 5621TIP3    H216870   4.754   2.797   2.941
 5622TIP3   OH216871   0.274   1.801   4.691
 5622TIP3    H116872   0.314   1.870   4.744
 5622TIP3    H216873   0.187   1.835   4.669
 5623TIP3   OH216874   2.642   0.838   3.738
 5623TIP3    H116875   2.712   0.901   3.721
 5623TIP3    H216876   2.687   0.760   3.771
 5624TIP3   OH216877   1.310   4.653   4.335
 5624TIP3    H116878   1.285   4.563   4.318
 5624TIP3    H216879   1.233   4.693   4.375
 5625TIP3   OH216880   4.550   1.967   1.154
 5625TIP3    H116881   4.487   1.896   1.139
 5625TIP3    H216882   4.599   1.939   1.232
 5626TIP3   OH216883   5.694   2.082   5.051
 5626TIP3    H116884   5.746   2.028   4.991
 5626TIP3    H216885   5.610   2.093   5.007
 5627TIP3   OH216886   1.215   0.219   1.453
 5627TIP3    H116887   1.280   0.172   1.400
 5627TIP3    H216888   1.131   0.193   1.416
 5628TIP3   OH216889   1.210   2.661   1.578
 5628TIP3    H116890   1.196   2.591   1.643
 5628TIP3    H216891   1.300   2.690   1.593
 5629TIP3   OH216892   3.938   2.624   0.683
 5629TIP3    H116893   3.911   2.545   0.635
 5629TIP3    H216894   3.925   2.601   0.775
 5630TIP3   OH216895   4.943   2.491   1.269
 5630TIP3    H116896   4.868   2.479   1.211
 5630TIP3    H216897   4.991   2.408   1.263
 5631TIP3   OH216898   3.510   1.050   3.885
 5631TIP3    H116899   3.482   1.106   3.812
 5631TIP3    H216900   3.458   1.081   3.960
 5632TIP3   OH216901   4.823   2.143   3.577
 5632TIP3    H116902   4.915   2.159   3.558
 5632TIP3    H216903   4.804   2.060   3.534
 5633TIP3   OH216904   0.022   0.285   1.153
 5633TIP3    H116905   0.010   0.232   1.075
 5633TIP3    H216906   0.113   0.314   1.150
 5634TIP3   OH216907   3.003   0.351   1.565
 5634TIP3    H116908   3.015   0.430   1.618
 5634TIP3    H216909   2.983   0.283   1.628
 5635TIP3   OH216910   4.324   5.261   1.728
 5635TIP3    H116911   4.395   5.312   1.689
 5635TIP3    H216912   4.249   5.277   1.670
 5636TIP3   OH216913   0.693   3.893   0.865
 5636TIP3    H116914   0.605   3.859   0.874
 5636TIP3    H216915   0.739   3.828   0.812
 5637TIP3   OH216916   4.184   3.975   5.114
 5637TIP3    H116917   4.235   3.942   5.188
 5637TIP3    H216918   4.229   3.941   5.037
 5638TIP3   OH216919   0.273   5.557   0.859
 5638TIP3    H116920   0.256   5.550   0.765
 5638TIP3    H216921   0.216   5.491   0.898
 5639TIP3   OH216922   5.249   5.529   2.383
 5639TIP3    H116923   5.175   5.503   2.438
 5639TIP3    H216924   5.310   5.571   2.443
 5640TIP3   OH216925   5.105   3.952   2.015
 5640TIP3    H116926   5.132   4.025   2.071
 5640TIP3    H216927   5.063   3.995   1.940
 5641TIP3   OH216928   6.074   3.798   0.215
 5641TIP3    H116929   6.079   3.703   0.214
 5641TIP3    H216930   6.165   3.826   0.205
 5642TIP3   OH216931   4.929   3.309   4.424
 5642TIP3    H116932   5.016   3.304   4.385
 5642TIP3    H216933   4.913   3.402   4.436
 5643TIP3   OH216934   3.345   0.412   2.128
 5643TIP3    H116935   3.366   0.393   2.219
 5643TIP3    H216936   3.401   0.353   2.077
 5644TIP3   OH216937   0.234   4.885   3.825
 5644TIP3    H116938   0.243   4.980   3.835
 5644TIP3    H216939   0.146   4.873   3.789
 5645TIP3   OH216940   0.741   2.429   2.503
 5645TIP3    H116941   0.648   2.415   2.521
 5645TIP3    H216942   0.786   2.400   2.582
 5646TIP3   OH216943   2.606   5.931   1.942
 5646TIP3    H116944   2.537   5.872   1.973
 5646TIP3    H216945   2.592   5.937   1.848
 5647TIP3   OH216946   6.115   0.056   0.631
 5647TIP3    H116947   6.172  -0.008   0.674
 5647TIP3    H216948   6.138   0.140   0.672
 5648TIP3   OH216949   6.355   2.138   1.801
 5648TIP3    H116950   6.303   2.177   1.872
 5648TIP3    H216951   6.290   2.093   1.747
 5649TIP3   OH216952   6.068   4.720   1.541
 5649TIP3    H116953   6.136   4.699   1.478
 5649TIP3    H216954   5.995   4.751   1.489
 5650TIP3   OH216955   1.490   0.655   4.213
 5650TIP3    H116956   1.565   0.713   4.208
 5650TIP3    H216957   1.488   0.627   4.305
 5651TIP3   OH216958   3.844   4.235   5.089
 5651TIP3    H116959   3.860   4.274   5.003
 5651TIP3    H216960   3.766   4.181   5.077
 5652TIP3   OH216961   4.970   4.238   0.774
 5652TIP3    H116962   4.909   4.267   0.706
 5652TIP3    H216963   5.051   4.286   0.756
 5653TIP3   OH216964   0.201   4.626   3.290
 5653TIP3    H116965   0.199   4.555   3.225
 5653TIP3    H216966   0.294   4.643   3.304
 5654TIP3   OH216967   1.873   2.581   1.399
 5654TIP3    H116968   1.812   2.525   1.352
 5654TIP3    H216969   1.958   2.538   1.391
 5655TIP3   OH216970   1.834   4.978   3.719
 5655TIP3    H116971   1.836   5.073   3.731
 5655TIP3    H216972   1.765   4.964   3.654
 5656TIP3   OH216973   0.985   3.211   4.516
 5656TIP3    H116974   1.061   3.159   4.544
 5656TIP3    H216975   1.011   3.249   4.433
 5657TIP3   OH216976   1.518   5.491   0.389
 5657TIP3    H116977   1.454   5.442   0.338
 5657TIP3    H216978   1.489   5.480   0.480
 5658TIP3   OH216979   2.269   4.802   3.373
 5658TIP3    H116980   2.250   4.770   3.461
 5658TIP3    H216981   2.191   4.780   3.322
 5659TIP3   OH216982   5.607   5.977   0.065
 5659TIP3    H116983   5.684   6.009   0.111
 5659TIP3    H216984   5.534   5.994   0.124
 5660TIP3   OH216985   0.000   2.466   1.906
 5660TIP3    H116986   0.041   2.382   1.927
 5660TIP3    H216987  -0.090   2.457   1.939
 5661TIP3   OH216988   1.368   1.355   1.730
 5661TIP3    H116989   1.302   1.318   1.672
 5661TIP3    H216990   1.415   1.279   1.765
 5662TIP3   OH216991   2.357   4.458   2.358
 5662TIP3    H116992   2.333   4.549   2.374
 5662TIP3    H216993   2.448   4.452   2.388
 5663TIP3   OH216994   0.975   5.486   4.844
 5663TIP3    H116995   1.055   5.524   4.879
 5663TIP3    H216996   0.933   5.558   4.797
 5664TIP3   OH216997   2.717   4.188   1.526
 5664TIP3    H116998   2.802   4.155   1.496
 5664TIP3    H216999   2.693   4.255   1.463
 5665TIP3   OH217000   6.361   3.262   3.968
 5665TIP3    H117001   6.359   3.248   4.063
 5665TIP3    H217002   6.335   3.353   3.957
 5666TIP3   OH217003   3.790   1.837   3.722
 5666TIP3    H117004   3.864   1.891   3.694
 5666TIP3    H217005   3.831   1.762   3.766
 5667TIP3   OH217006   3.659   5.624   2.254
 5667TIP3    H117007   3.639   5.712   2.223
 5667TIP3    H217008   3.582   5.599   2.307
 5668TIP3   OH217009   1.039   3.775   0.882
 5668TIP3    H117010   0.953   3.748   0.849
 5668TIP3    H217011   1.093   3.696   0.873
 5669TIP3   OH217012   3.802   3.194   3.271
 5669TIP3    H117013   3.810   3.177   3.177
 5669TIP3    H217014   3.850   3.275   3.286
 5670TIP3   OH217015   5.441   0.582   2.347
 5670TIP3    H117016   5.433   0.671   2.382
 5670TIP3    H217017   5.437   0.525   2.424
 5671TIP3   OH217018   4.034   4.859   1.584
 5671TIP3    H117019   4.023   4.823   1.496
 5671TIP3    H217020   4.113   4.914   1.578
 5672TIP3   OH217021   0.360   0.563   1.889
 5672TIP3    H117022   0.315   0.644   1.912
 5672TIP3    H217023   0.436   0.592   1.838
 5673TIP3   OH217024   2.803   0.574   3.436
 5673TIP3    H117025   2.819   0.479   3.438
 5673TIP3    H217026   2.760   0.589   3.352
 5674TIP3   OH217027   1.814   3.440   0.927
 5674TIP3    H117028   1.822   3.384   1.004
 5674TIP3    H217029   1.846   3.526   0.956
 5675TIP3   OH217030   5.632   2.496   0.346
 5675TIP3    H117031   5.595   2.471   0.431
 5675TIP3    H217032   5.715   2.449   0.341
 5676TIP3   OH217033   3.407   1.296   1.194
 5676TIP3    H117034   3.326   1.246   1.197
 5676TIP3    H217035   3.422   1.324   1.285
 5677TIP3   OH217036   3.937   5.118   1.109
 5677TIP3    H117037   3.881   5.049   1.145
 5677TIP3    H217038   3.934   5.188   1.174
 5678TIP3   OH217039   4.178   0.951   4.178
 5678TIP3    H117040   4.235   0.952   4.255
 5678TIP3    H217041   4.230   0.995   4.110
 5679TIP3   OH217042   5.363   3.335   2.665
 5679TIP3    H117043   5.272   3.307   2.676
 5679TIP3    H217044   5.365   3.424   2.700
 5680TIP3   OH217045   5.166   2.167   1.202
 5680TIP3    H117046   5.164   2.210   1.287
 5680TIP3    H217047   5.170   2.074   1.222
 5681TIP3   OH217048   2.765   5.089   3.753
 5681TIP3    H117049   2.768   5.104   3.659
 5681TIP3    H217050   2.671   5.092   3.775
 5682TIP3   OH217051   2.255   3.834   1.582
 5682TIP3    H117052   2.224   3.923   1.601
 5682TIP3    H217053   2.294   3.841   1.496
 5683TIP3   OH217054   0.992   3.386   4.977
 5683TIP3    H117055   1.077   3.369   4.938
 5683TIP3    H217056   1.011   3.402   5.070
 5684TIP3   OH217057   6.326   2.401   5.058
 5684TIP3    H117058   6.392   2.471   5.059
 5684TIP3    H217059   6.369   2.326   5.099
 5685TIP3   OH217060   5.978   2.895   3.703
 5685TIP3    H117061   5.949   2.836   3.773
 5685TIP3    H217062   5.961   2.983   3.737
 5686TIP3   OH217063   0.313  -0.008   2.282
 5686TIP3    H117064   0.384   0.027   2.228
 5686TIP3    H217065   0.301   0.057   2.351
 5687TIP3   OH217066   2.387   5.835   2.229
 5687TIP3    H117067   2.298   5.852   2.198
 5687TIP3    H217068   2.424   5.774   2.165
 5688TIP3   OH217069   4.235   3.682   4.685
 5688TIP3    H117070   4.227   3.603   4.737
 5688TIP3    H217071   4.247   3.752   4.749
 5689TIP3   OH217072   0.757   5.848   5.068
 5689TIP3    H117073   0.852   5.851   5.054
 5689TIP3    H217074   0.746   5.797   5.148
 5690TIP3   OH217075   2.010   0.852   0.693
 5690TIP3    H117076   2.093   0.864   0.647
 5690TIP3    H217077   1.969   0.939   0.692
 5691TIP3   OH217078   1.215   4.943   4.124
 5691TIP3    H117079   1.198   4.884   4.197
 5691TIP3    H217080   1.269   4.892   4.063
 5692TIP3   OH217081   4.366   4.585   4.287
 5692TIP3    H117082   4.373   4.680   4.287
 5692TIP3    H217083   4.291   4.567   4.230
 5693TIP3   OH217084   3.427   1.254   4.661
 5693TIP3    H117085   3.351   1.230   4.714
 5693TIP3    H217086   3.414   1.346   4.639
 5694TIP3   OH217087   2.130   0.652   2.129
 5694TIP3    H117088   2.143   0.718   2.197
 5694TIP3    H217089   2.218   0.634   2.096
 5695TIP3   OH217090   5.775   0.944   0.840
 5695TIP3    H117091   5.870   0.942   0.847
 5695TIP3    H217092   5.752   0.856   0.810
 5696TIP3   OH217093   3.457   1.149   3.594
 5696TIP3    H117094   3.478   1.064   3.554
 5696TIP3    H217095   3.378   1.178   3.547
 5697TIP3   OH217096   2.238   5.892   3.482
 5697TIP3    H117097   2.327   5.856   3.483
 5697TIP3    H217098   2.183   5.819   3.455
 5698TIP3   OH217099   4.755   3.000   2.917
 5698TIP3    H117100   4.775   3.001   2.824
 5698TIP3    H217101   4.801   3.076   2.953
 5699TIP3   OH217102   1.788   0.392   3.573
 5699TIP3    H117103   1.712   0.435   3.611
 5699TIP3    H217104   1.759   0.365   3.486
 5700TIP3   OH217105   3.077   4.884   3.445
 5700TIP3    H117106   3.133   4.911   3.372
 5700TIP3    H217107   3.021   4.960   3.462
 5701TIP3   OH217108   1.041   2.344   0.170
 5701TIP3    H117109   0.998   2.260   0.157
 5701TIP3    H217110   0.972   2.409   0.153
 5702TIP3   OH217111   0.630   4.626   3.713
 5702TIP3    H117112   0.641   4.577   3.795
 5702TIP3    H217113   0.630   4.559   3.645
 5703TIP3   OH217114   2.804   1.527   5.075
 5703TIP3    H117115   2.790   1.433   5.083
 5703TIP3    H217116   2.753   1.553   4.999
 5704TIP3   OH217117   0.978   3.720   1.385
 5704TIP3    H117118   0.919   3.650   1.356
 5704TIP3    H217119   1.006   3.763   1.304
 5705TIP3   OH217120   0.501   3.120   4.745
 5705TIP3    H117121   0.576   3.156   4.697
 5705TIP3    H217122   0.426   3.169   4.711
 5706TIP3   OH217123   5.962   3.879   1.477
 5706TIP3    H117124   5.969   3.794   1.433
 5706TIP3    H217125   5.998   3.863   1.565
 5707TIP3   OH217126   4.614   2.130   2.431
 5707TIP3    H117127   4.522   2.131   2.403
 5707TIP3    H217128   4.613   2.172   2.517
 5708TIP3   OH217129   3.127   2.059   4.733
 5708TIP3    H117130   3.155   2.150   4.717
 5708TIP3    H217131   3.186   2.028   4.802
 5709TIP3   OH217132   2.561   5.065   4.555
 5709TIP3    H117133   2.528   5.143   4.599
 5709TIP3    H217134   2.525   4.992   4.606
 5710TIP3   OH217135   1.321   5.913   4.157
 5710TIP3    H117136   1.321   5.913   4.253
 5710TIP3    H217137   1.400   5.961   4.133
 5711TIP3   OH217138   3.678   1.319   4.011
 5711TIP3    H117139   3.733   1.250   4.049
 5711TIP3    H217140   3.672   1.297   3.919
 5712TIP3   OH217141   1.945   3.309   2.590
 5712TIP3    H117142   2.039   3.293   2.598
 5712TIP3    H217143   1.936   3.404   2.594
 5713TIP3   OH217144   2.428   0.888   4.159
 5713TIP3    H117145   2.334   0.883   4.141
 5713TIP3    H217146   2.452   0.801   4.190
 5714TIP3   OH217147   2.898   3.792   0.661
 5714TIP3    H117148   2.864   3.880   0.674
 5714TIP3    H217149   2.969   3.783   0.724
 5715TIP3   OH217150   0.767   1.475   3.761
 5715TIP3    H117151   0.823   1.457   3.685
 5715TIP3    H217152   0.722   1.556   3.739
 5716TIP3   OH217153   2.797   2.290   4.191
 5716TIP3    H117154   2.841   2.208   4.170
 5716TIP3    H217155   2.825   2.311   4.280
 5717TIP3   OH217156   2.276   4.642   0.332
 5717TIP3    H117157   2.265   4.700   0.408
 5717TIP3    H217158   2.189   4.639   0.292
 5718TIP3   OH217159   1.736   1.620   0.581
 5718TIP3    H117160   1.739   1.715   0.572
 5718TIP3    H217161   1.755   1.604   0.673
 5719TIP3   OH217162   4.212   1.794   2.216
 5719TIP3    H117163   4.199   1.745   2.297
 5719TIP3    H217164   4.160   1.874   2.228
 5720TIP3   OH217165   0.882   0.068   0.448
 5720TIP3    H117166   0.833   0.130   0.502
 5720TIP3    H217167   0.816   0.009   0.412
 5721TIP3   OH217168   1.309   3.917   2.769
 5721TIP3    H117169   1.349   3.853   2.711
 5721TIP3    H217170   1.285   3.868   2.847
 5722TIP3   OH217171   5.397   2.667   4.694
 5722TIP3    H117172   5.420   2.587   4.647
 5722TIP3    H217173   5.302   2.673   4.687
 5723TIP3   OH217174   2.694   5.022   5.026
 5723TIP3    H117175   2.646   4.953   5.071
 5723TIP3    H217176   2.716   4.985   4.941
 5724TIP3   OH217177   0.081   5.750   3.076
 5724TIP3    H117178   0.140   5.731   3.003
 5724TIP3    H217179  -0.007   5.744   3.039
 5725TIP3   OH217180   4.482   3.390   1.588
 5725TIP3    H117181   4.559   3.410   1.534
 5725TIP3    H217182   4.513   3.399   1.678
 5726TIP3   OH217183   0.348   2.762   4.992
 5726TIP3    H117184   0.389   2.782   5.076
 5726TIP3    H217185   0.419   2.726   4.938
 5727TIP3   OH217186   2.743   1.961   3.160
 5727TIP3    H117187   2.706   2.016   3.091
 5727TIP3    H217188   2.743   1.873   3.122
 5728TIP3   OH217189   3.099   3.222   2.160
 5728TIP3    H117190   3.093   3.259   2.072
 5728TIP3    H217191   3.185   3.248   2.192
 5729TIP3   OH217192   5.128   3.097   1.762
 5729TIP3    H117193   5.142   3.166   1.828
 5729TIP3    H217194   5.214   3.055   1.754
 5730TIP3   OH217195   2.964   4.182   1.297
 5730TIP3    H117196   2.890   4.240   1.277
 5730TIP3    H217197   2.935   4.095   1.269
 5731TIP3   OH217198   0.385   3.663   0.510
 5731TIP3    H117199   0.446   3.594   0.534
 5731TIP3    H217200   0.396   3.674   0.415
 5732TIP3   OH217201   4.062   0.253   4.366
 5732TIP3    H117202   4.041   0.199   4.290
 5732TIP3    H217203   4.032   0.202   4.441
 5733TIP3   OH217204   5.687   2.795   4.381
 5733TIP3    H117205   5.722   2.800   4.470
 5733TIP3    H217206   5.725   2.869   4.335
 5734TIP3   OH217207   3.492   2.314   5.010
 5734TIP3    H117208   3.400   2.340   5.003
 5734TIP3    H217209   3.533   2.346   4.930
 5735TIP3   OH217210   5.311   0.914   3.774
 5735TIP3    H117211   5.306   0.982   3.707
 5735TIP3    H217212   5.225   0.915   3.815
 5736TIP3   OH217213   5.987   4.336   0.565
 5736TIP3    H117214   5.983   4.413   0.621
 5736TIP3    H217215   5.943   4.268   0.615
 5737TIP3   OH217216   1.206   4.225   3.881
 5737TIP3    H117217   1.175   4.210   3.792
 5737TIP3    H217218   1.177   4.314   3.903
 5738TIP3   OH217219   3.970   3.526   4.693
 5738TIP3    H117220   3.954   3.614   4.726
 5738TIP3    H217221   3.987   3.473   4.771
 5739TIP3   OH217222   5.050   4.070   3.658
 5739TIP3    H117223   5.006   3.986   3.669
 5739TIP3    H217224   5.053   4.084   3.563
 5740TIP3   OH217225   2.074   0.232   3.089
 5740TIP3    H117226   2.048   0.249   3.180
 5740TIP3    H217227   2.072   0.137   3.081
 5741TIP3   OH217228   4.245   3.364   4.117
 5741TIP3    H117229   4.166   3.309   4.115
 5741TIP3    H217230   4.226   3.436   4.058
 5742TIP3   OH217231   2.139   0.103   2.255
 5742TIP3    H117232   2.087   0.130   2.331
 5742TIP3    H217233   2.167   0.185   2.214
 5743TIP3   OH217234   3.812   4.225   4.072
 5743TIP3    H117235   3.845   4.303   4.026
 5743TIP3    H217236   3.752   4.185   4.010
 5744TIP3   OH217237   6.059   5.730   0.131
 5744TIP3    H117238   5.973   5.772   0.128
 5744TIP3    H217239   6.042   5.641   0.163
 5745TIP3   OH217240   2.236  -0.007   1.531
 5745TIP3    H117241   2.248  -0.079   1.593
 5745TIP3    H217242   2.260   0.071   1.582
 5746TIP3   OH217243   5.507   4.336   4.458
 5746TIP3    H117244   5.568   4.410   4.461
 5746TIP3    H217245   5.488   4.325   4.365
 5747TIP3   OH217246   6.072   0.181   1.101
 5747TIP3    H117247   6.084   0.239   1.176
 5747TIP3    H217248   6.132   0.108   1.117
 5748TIP3   OH217249   0.465   3.664   1.634
 5748TIP3    H117250   0.435   3.595   1.575
 5748TIP3    H217251   0.533   3.710   1.585
 5749TIP3   OH217252   0.588   2.156   3.066
 5749TIP3    H117253   0.494   2.137   3.061
 5749TIP3    H217254   0.616   2.166   2.975
 5750TIP3   OH217255   4.889   3.837   3.654
 5750TIP3    H117256   4.860   3.867   3.568
 5750TIP3    H217257   4.860   3.745   3.659
 5751TIP3   OH217258   0.551   0.608   5.084
 5751TIP3    H117259   0.458   0.582   5.088
 5751TIP3    H217260   0.597   0.527   5.064
 5752TIP3   OH217261   1.338   4.204   4.167
 5752TIP3    H117262   1.326   4.214   4.072
 5752TIP3    H217263   1.423   4.160   4.175
 5753TIP3   OH217264   0.404   0.934   0.791
 5753TIP3    H117265   0.423   0.846   0.824
 5753TIP3    H217266   0.468   0.990   0.835
 5754TIP3   OH217267   5.659   0.179   3.166
 5754TIP3    H117268   5.575   0.133   3.173
 5754TIP3    H217269   5.719   0.112   3.133
 5755TIP3   OH217270   5.087   2.886   0.565
 5755TIP3    H117271   5.167   2.838   0.546
 5755TIP3    H217272   5.075   2.943   0.488
 5756TIP3   OH217273   1.047   3.013   3.253
 5756TIP3    H117274   1.086   2.928   3.275
 5756TIP3    H217275   0.953   3.000   3.266
 5757TIP3   OH217276   0.161   0.423   3.674
 5757TIP3    H117277   0.191   0.489   3.737
 5757TIP3    H217278   0.239   0.371   3.655
 5758TIP3   OH217279   2.715   5.051   3.025
 5758TIP3    H117280   2.626   5.063   3.060
 5758TIP3    H217281   2.702   5.004   2.942
 5759TIP3   OH217282   2.222   4.107   1.529
 5759TIP3    H117283   2.175   4.143   1.603
 5759TIP3    H217284   2.173   4.137   1.452
 5760TIP3   OH217285   4.172   2.868   2.441
 5760TIP3    H117286   4.236   2.878   2.370
 5760TIP3    H217287   4.211   2.914   2.515
 5761TIP3   OH217288   0.206   4.634   2.825
 5761TIP3    H117289   0.213   4.706   2.763
 5761TIP3    H217290   0.231   4.672   2.910
 5762TIP3   OH217291   1.318   4.655   1.629
 5762TIP3    H117292   1.227   4.634   1.651
 5762TIP3    H217293   1.364   4.572   1.640
 5763TIP3   OH217294   6.269   4.347   0.374
 5763TIP3    H117295   6.190   4.381   0.415
 5763TIP3    H217296   6.262   4.252   0.382
 5764TIP3   OH217297   3.188   5.321   0.783
 5764TIP3    H117298   3.127   5.271   0.838
 5764TIP3    H217299   3.175   5.286   0.695
 5765TIP3   OH217300   3.349   0.425   0.215
 5765TIP3    H117301   3.292   0.352   0.191
 5765TIP3    H217302   3.434   0.402   0.178
 5766TIP3   OH217303   4.907   4.281   4.328
 5766TIP3    H117304   4.829   4.263   4.381
 5766TIP3    H217305   4.889   4.240   4.244
 5767TIP3   OH217306   4.648   3.625   2.322
 5767TIP3    H117307   4.674   3.686   2.392
 5767TIP3    H217308   4.620   3.682   2.250
 5768TIP3   OH217309   1.588   4.805   1.596
 5768TIP3    H117310   1.536   4.750   1.538
 5768TIP3    H217311   1.674   4.809   1.555
 5769TIP3   OH217312   4.500   0.714   3.997
 5769TIP3    H117313   4.428   0.761   3.955
 5769TIP3    H217314   4.489   0.623   3.968
 5770TIP3   OH217315   6.309   2.705   2.605
 5770TIP3    H117316   6.397   2.730   2.633
 5770TIP3    H217317   6.323   2.629   2.547
 5771TIP3   OH217318   3.462   5.692   3.378
 5771TIP3    H117319   3.506   5.636   3.442
 5771TIP3    H217320   3.369   5.686   3.402
 5772TIP3   OH217321   4.531   4.891   4.519
 5772TIP3    H117322   4.599   4.912   4.582
 5772TIP3    H217323   4.505   4.976   4.482
 5773TIP3   OH217324   3.983   2.704  -0.014
 5773TIP3    H117325   4.003   2.685   0.077
 5773TIP3    H217326   4.004   2.797  -0.025
 5774TIP3   OH217327   2.461   2.752   0.239
 5774TIP3    H117328   2.374   2.793   0.245
 5774TIP3    H217329   2.475   2.714   0.326
 5775TIP3   OH217330   4.888   3.275   3.001
 5775TIP3    H117331   4.909   3.268   2.908
 5775TIP3    H217332   4.861   3.366   3.013
 5776TIP3   OH217333   2.129   4.445   3.491
 5776TIP3    H117334   2.218   4.455   3.457
 5776TIP3    H217335   2.082   4.521   3.458
 5777TIP3   OH217336   2.590   4.807   1.568
 5777TIP3    H117337   2.603   4.901   1.584
 5777TIP3    H217338   2.666   4.765   1.607
 5778TIP3   OH217339   3.052   4.706   3.061
 5778TIP3    H117340   3.076   4.614   3.051
 5778TIP3    H217341   2.998   4.726   2.985
 5779TIP3   OH217342   6.151   0.233   2.324
 5779TIP3    H117343   6.180   0.324   2.316
 5779TIP3    H217344   6.203   0.197   2.395
 5780TIP3   OH217345   2.345   0.097   3.433
 5780TIP3    H117346   2.383   0.184   3.423
 5780TIP3    H217347   2.319   0.072   3.344
 5781TIP3   OH217348   0.938   0.626   0.236
 5781TIP3    H117349   0.990   0.649   0.159
 5781TIP3    H217350   0.995   0.648   0.311
 5782TIP3   OH217351   0.697   1.958   3.576
 5782TIP3    H117352   0.792   1.968   3.570
 5782TIP3    H217353   0.664   2.048   3.577
 5783TIP3   OH217354   3.782   0.244   2.026
 5783TIP3    H117355   3.819   0.223   1.940
 5783TIP3    H217356   3.839   0.313   2.060
 5784TIP3   OH217357   3.995   3.786   2.489
 5784TIP3    H117358   3.914   3.835   2.471
 5784TIP3    H217359   3.965   3.696   2.504
 5785TIP3   OH217360   6.113   5.852   3.554
 5785TIP3    H117361   6.167   5.776   3.534
 5785TIP3    H217362   6.097   5.846   3.648
 5786TIP3   OH217363   5.947   0.928   1.424
 5786TIP3    H117364   5.902   0.860   1.474
 5786TIP3    H217365   6.024   0.884   1.388
 5787TIP3   OH217366   1.392   2.978   3.348
 5787TIP3    H117367   1.379   3.033   3.271
 5787TIP3    H217368   1.324   3.005   3.409
 5788TIP3   OH217369   1.424   3.819   0.880
 5788TIP3    H117370   1.515   3.831   0.907
 5788TIP3    H217371   1.405   3.729   0.902
 5789TIP3   OH217372   5.400   0.162   3.741
 5789TIP3    H117373   5.374   0.251   3.721
 5789TIP3    H217374   5.482   0.148   3.693
 5790TIP3   OH217375   5.320   1.898   5.109
 5790TIP3    H117376   5.388   1.844   5.069
 5790TIP3    H217377   5.243   1.884   5.054
 5791TIP3   OH217378   2.465   5.017   3.482
 5791TIP3    H117379   2.545   4.973   3.455
 5791TIP3    H217380   2.395   4.959   3.451
 5792TIP3   OH217381   4.177   1.444   3.455
 5792TIP3    H117382   4.236   1.379   3.494
 5792TIP3    H217383   4.235   1.499   3.402
 5793TIP3   OH217384   4.176   4.574   2.092
 5793TIP3    H117385   4.185   4.499   2.033
 5793TIP3    H217386   4.191   4.650   2.036
 5794TIP3   OH217387   5.842   5.525   1.908
 5794TIP3    H117388   5.872   5.598   1.854
 5794TIP3    H217389   5.902   5.453   1.887
 5795TIP3   OH217390   2.913   2.429   0.235
 5795TIP3    H117391   2.994   2.461   0.274
 5795TIP3    H217392   2.904   2.340   0.267
 5796TIP3   OH217393   4.385   5.208   2.220
 5796TIP3    H117394   4.383   5.300   2.246
 5796TIP3    H217395   4.430   5.209   2.136
 5797TIP3   OH217396   3.771   1.081   2.974
 5797TIP3    H117397   3.718   1.050   3.047
 5797TIP3    H217398   3.786   1.004   2.920
 5798TIP3   OH217399   5.804   4.575   2.858
 5798TIP3    H117400   5.837   4.487   2.837
 5798TIP3    H217401   5.861   4.634   2.808
 5799TIP3   OH217402   5.148   4.148   4.405
 5799TIP3    H117403   5.173   4.074   4.350
 5799TIP3    H217404   5.064   4.176   4.370
 5800TIP3   OH217405   1.106   5.676   2.817
 5800TIP3    H117406   1.186   5.701   2.771
 5800TIP3    H217407   1.123   5.701   2.908
 5801TIP3   OH217408   3.922   2.805   3.167
 5801TIP3    H117409   3.857   2.812   3.096
 5801TIP3    H217410   3.881   2.747   3.231
 5802TIP3   OH217411   3.889   1.624   3.828
 5802TIP3    H117412   3.968   1.617   3.774
 5802TIP3    H217413   3.837   1.547   3.803
 5803TIP3   OH217414   3.170   1.808   4.944
 5803TIP3    H117415   3.114   1.757   4.885
 5803TIP3    H217416   3.258   1.797   4.909
 5804TIP3   OH217417   2.509   3.969   4.813
 5804TIP3    H117418   2.493   4.063   4.809
 5804TIP3    H217419   2.422   3.930   4.801
 5805TIP3   OH217420  -0.054   5.039   2.701
 5805TIP3    H117421   0.019   5.077   2.749
 5805TIP3    H217422  -0.035   5.056   2.609
 5806TIP3   OH217423   3.858   4.157   1.482
 5806TIP3    H117424   3.803   4.110   1.546
 5806TIP3    H217425   3.812   4.146   1.399
 5807TIP3   OH217426   4.239   5.459   4.628
 5807TIP3    H117427   4.174   5.389   4.626
 5807TIP3    H217428   4.310   5.425   4.682
 5808TIP3   OH217429   4.425   0.656   2.501
 5808TIP3    H117430   4.422   0.634   2.594
 5808TIP3    H217431   4.415   0.751   2.499
 5809TIP3   OH217432   3.664   4.632   5.129
 5809TIP3    H117433   3.689   4.655   5.040
 5809TIP3    H217434   3.741   4.588   5.165
 5810TIP3   OH217435   4.568   5.347   0.503
 5810TIP3    H117436   4.551   5.314   0.415
 5810TIP3    H217437   4.592   5.439   0.491
 5811TIP3   OH217438   1.907   1.711   2.156
 5811TIP3    H117439   1.942   1.673   2.076
 5811TIP3    H217440   1.963   1.678   2.226
 5812TIP3   OH217441   4.103   2.219   0.234
 5812TIP3    H117442   4.079   2.241   0.324
 5812TIP3    H217443   4.197   2.233   0.230
 5813TIP3   OH217444   2.783   2.130   0.531
 5813TIP3    H117445   2.827   2.207   0.566
 5813TIP3    H217446   2.801   2.132   0.438
 5814TIP3   OH217447   0.474   0.115   2.069
 5814TIP3    H117448   0.485   0.209   2.081
 5814TIP3    H217449   0.557   0.085   2.033
 5815TIP3   OH217450   1.539   4.177   2.875
 5815TIP3    H117451   1.552   4.179   2.970
 5815TIP3    H217452   1.529   4.084   2.854
 5816TIP3   OH217453   3.844   5.561   0.878
 5816TIP3    H117454   3.785   5.486   0.891
 5816TIP3    H217455   3.853   5.600   0.965
 5817TIP3   OH217456   4.170   5.046   4.322
 5817TIP3    H117457   4.118   5.120   4.354
 5817TIP3    H217458   4.157   4.978   4.388
 5818TIP3   OH217459   6.343   0.612   0.797
 5818TIP3    H117460   6.332   0.580   0.707
 5818TIP3    H217461   6.356   0.706   0.787
 5819TIP3   OH217462   1.732   5.895   0.626
 5819TIP3    H117463   1.724   5.835   0.700
 5819TIP3    H217464   1.669   5.862   0.562
 5820TIP3   OH217465   3.786   0.447   3.423
 5820TIP3    H117466   3.760   0.456   3.331
 5820TIP3    H217467   3.881   0.459   3.423
 5821TIP3   OH217468   0.175   4.330   2.240
 5821TIP3    H117469   0.204   4.394   2.175
 5821TIP3    H217470   0.174   4.247   2.193
 5822TIP3   OH217471   2.184   5.128   1.522
 5822TIP3    H117472   2.226   5.116   1.437
 5822TIP3    H217473   2.228   5.205   1.559
 5823TIP3   OH217474   5.033   2.361   3.878
 5823TIP3    H117475   4.965   2.390   3.817
 5823TIP3    H217476   4.995   2.376   3.964
 5824TIP3   OH217477   4.583   1.906   1.427
 5824TIP3    H117478   4.564   1.813   1.434
 5824TIP3    H217479   4.581   1.938   1.517
 5825TIP3   OH217480   5.011   0.356   2.259
 5825TIP3    H117481   5.049   0.318   2.180
 5825TIP3    H217482   5.039   0.448   2.257
 5826TIP3   OH217483   2.890   5.689   3.057
 5826TIP3    H117484   2.934   5.716   3.137
 5826TIP3    H217485   2.961   5.677   2.994
 5827TIP3   OH217486   4.556   2.160   1.644
 5827TIP3    H117487   4.592   2.232   1.593
 5827TIP3    H217488   4.484   2.199   1.694
 5828TIP3   OH217489   5.779   0.680   0.074
 5828TIP3    H117490   5.771   0.769   0.110
 5828TIP3    H217491   5.814   0.628   0.146
 5829TIP3   OH217492   2.981   4.842   0.153
 5829TIP3    H117493   3.024   4.807   0.231
 5829TIP3    H217494   2.930   4.768   0.119
 5830TIP3   OH217495   0.762   5.225   4.385
 5830TIP3    H117496   0.699   5.157   4.361
 5830TIP3    H217497   0.719   5.308   4.361
 5831TIP3   OH217498   2.512   0.618   4.211
 5831TIP3    H117499   2.497   0.582   4.124
 5831TIP3    H217500   2.482   0.549   4.271
 5832TIP3   OH217501   4.136   1.133   2.095
 5832TIP3    H117502   4.106   1.162   2.181
 5832TIP3    H217503   4.205   1.069   2.113
 5833TIP3   OH217504   0.283   0.572   5.101
 5833TIP3    H117505   0.236   0.610   5.175
 5833TIP3    H217506   0.215   0.538   5.043
 5834TIP3   OH217507   3.453   3.483   0.086
 5834TIP3    H117508   3.504   3.405   0.107
 5834TIP3    H217509   3.362   3.452   0.083
 5835TIP3   OH217510   3.032   6.032   4.861
 5835TIP3    H117511   2.981   5.959   4.828
 5835TIP3    H217512   2.973   6.107   4.858
 5836TIP3   OH217513   0.811   4.757   5.200
 5836TIP3    H117514   0.850   4.821   5.142
 5836TIP3    H217515   0.879   4.690   5.211
 5837TIP3   OH217516   1.683   1.592   1.769
 5837TIP3    H117517   1.737   1.554   1.699
 5837TIP3    H217518   1.593   1.575   1.742
 5838TIP3   OH217519   0.001   3.630   3.302
 5838TIP3    H117520  -0.026   3.585   3.222
 5838TIP3    H217521   0.092   3.604   3.315
 5839TIP3   OH217522   2.194   2.857   0.852
 5839TIP3    H117523   2.216   2.783   0.909
 5839TIP3    H217524   2.155   2.922   0.910
 5840TIP3   OH217525   3.347   3.299   2.276
 5840TIP3    H117526   3.407   3.276   2.205
 5840TIP3    H217527   3.383   3.256   2.353
 5841TIP3   OH217528   2.423   2.819   0.707
 5841TIP3    H117529   2.483   2.867   0.763
 5841TIP3    H217530   2.344   2.809   0.760
 5842TIP3   OH217531   5.254   4.869   4.371
 5842TIP3    H117532   5.295   4.851   4.456
 5842TIP3    H217533   5.160   4.869   4.390
 5843TIP3   OH217534   4.506   3.777   4.485
 5843TIP3    H117535   4.539   3.736   4.405
 5843TIP3    H217536   4.439   3.838   4.455
 5844TIP3   OH217537   0.169   3.184   3.744
 5844TIP3    H117538   0.115   3.186   3.823
 5844TIP3    H217539   0.253   3.222   3.772
 5845TIP3   OH217540   6.300   4.740   2.437
 5845TIP3    H117541   6.280   4.744   2.343
 5845TIP3    H217542   6.358   4.664   2.446
 5846TIP3   OH217543   3.511   0.882   1.671
 5846TIP3    H117544   3.545   0.970   1.690
 5846TIP3    H217545   3.452   0.863   1.744
 5847TIP3   OH217546   4.985   5.804   1.326
 5847TIP3    H117547   4.984   5.754   1.245
 5847TIP3    H217548   5.078   5.819   1.344
 5848TIP3   OH217549   5.168   5.749   5.047
 5848TIP3    H117550   5.132   5.754   4.959
 5848TIP3    H217551   5.096   5.716   5.101
 5849TIP3   OH217552   5.120   0.196   3.471
 5849TIP3    H117553   5.074   0.192   3.554
 5849TIP3    H217554   5.068   0.143   3.411
 5850TIP3   OH217555   1.899   3.410   5.082
 5850TIP3    H117556   1.841   3.475   5.043
 5850TIP3    H217557   1.933   3.359   5.008
 5851TIP3   OH217558   0.560   2.683   4.820
 5851TIP3    H117559   0.541   2.594   4.849
 5851TIP3    H217560   0.646   2.703   4.858
 5852TIP3   OH217561   1.594   0.292   2.448
 5852TIP3    H117562   1.642   0.304   2.530
 5852TIP3    H217563   1.582   0.381   2.414
 5853TIP3   OH217564   6.109   5.683   3.142
 5853TIP3    H117565   6.106   5.609   3.081
 5853TIP3    H217566   6.129   5.644   3.227
 5854TIP3   OH217567   4.640   1.569   2.771
 5854TIP3    H117568   4.682   1.569   2.685
 5854TIP3    H217569   4.691   1.506   2.822
 5855TIP3   OH217570   3.012   3.085   3.649
 5855TIP3    H117571   2.974   3.173   3.643
 5855TIP3    H217572   3.068   3.078   3.571
 5856TIP3   OH217573   2.959   2.814   0.593
 5856TIP3    H117574   2.980   2.892   0.645
 5856TIP3    H217575   2.938   2.848   0.506
 5857TIP3   OH217576   5.889   3.176   1.901
 5857TIP3    H117577   5.975   3.156   1.865
 5857TIP3    H217578   5.873   3.106   1.964
 5858TIP3   OH217579   0.663   1.968   1.464
 5858TIP3    H117580   0.625   2.019   1.392
 5858TIP3    H217581   0.752   1.948   1.435
 5859TIP3   OH217582   1.930   0.312   0.628
 5859TIP3    H117583   1.940   0.303   0.533
 5859TIP3    H217584   1.974   0.236   0.664
 5860TIP3   OH217585   2.351   2.822   4.416
 5860TIP3    H117586   2.335   2.728   4.404
 5860TIP3    H217587   2.270   2.864   4.387
 5861TIP3   OH217588   4.304   0.208   4.879
 5861TIP3    H117589   4.390   0.205   4.919
 5861TIP3    H217590   4.314   0.161   4.796
 5862TIP3   OH217591   5.783   1.401   0.333
 5862TIP3    H117592   5.775   1.331   0.398
 5862TIP3    H217593   5.710   1.386   0.273
 5863TIP3   OH217594   5.168   2.267   1.490
 5863TIP3    H117595   5.219   2.343   1.517
 5863TIP3    H217596   5.204   2.195   1.542
 5864TIP3   OH217597   2.106   3.102   0.125
 5864TIP3    H117598   2.139   3.191   0.130
 5864TIP3    H217599   2.015   3.107   0.155
 5865TIP3   OH217600   5.014   4.611   0.908
 5865TIP3    H117601   5.020   4.706   0.906
 5865TIP3    H217602   5.105   4.581   0.921
 5866TIP3   OH217603   4.535   2.087   3.723
 5866TIP3    H117604   4.525   2.178   3.751
 5866TIP3    H217605   4.585   2.093   3.641
 5867TIP3   OH217606   4.064   5.459   2.333
 5867TIP3    H117607   4.013   5.404   2.273
 5867TIP3    H217608   4.151   5.464   2.292
 5868TIP3   OH217609   4.306   5.022   1.556
 5868TIP3    H117610   4.318   5.092   1.620
 5868TIP3    H217611   4.383   4.966   1.566
 5869TIP3   OH217612   3.384   2.466   2.570
 5869TIP3    H117613   3.436   2.466   2.651
 5869TIP3    H217614   3.421   2.395   2.518
 5870TIP3   OH217615   2.198   1.510   3.566
 5870TIP3    H117616   2.170   1.546   3.482
 5870TIP3    H217617   2.177   1.417   3.560
 5871TIP3   OH217618   1.602   1.759   3.960
 5871TIP3    H117619   1.678   1.701   3.960
 5871TIP3    H217620   1.616   1.817   4.035
 5872TIP3   OH217621   4.851   4.999   0.488
 5872TIP3    H117622   4.839   4.923   0.546
 5872TIP3    H217623   4.841   5.075   0.546
 5873TIP3   OH217624   3.392   4.080   4.875
 5873TIP3    H117625   3.411   4.149   4.812
 5873TIP3    H217626   3.308   4.105   4.914
 5874TIP3   OH217627   4.985   2.855   3.284
 5874TIP3    H117628   4.999   2.943   3.248
 5874TIP3    H217629   5.069   2.811   3.272
 5875TIP3   OH217630   2.023   5.981   1.458
 5875TIP3    H117631   2.014   6.026   1.374
 5875TIP3    H217632   1.933   5.965   1.486
 5876TIP3   OH217633   2.996   6.018   0.575
 5876TIP3    H117634   3.026   5.935   0.612
 5876TIP3    H217635   2.901   6.008   0.566
 5877TIP3   OH217636   5.012   4.056   2.501
 5877TIP3    H117637   5.097   4.011   2.491
 5877TIP3    H217638   4.994   4.093   2.415
 5878TIP3   OH217639   0.767   2.398   0.754
 5878TIP3    H117640   0.720   2.372   0.674
 5878TIP3    H217641   0.820   2.322   0.776
 5879TIP3   OH217642   6.102   4.972   1.063
 5879TIP3    H117643   6.055   5.011   1.136
 5879TIP3    H217644   6.095   5.036   0.992
 5880TIP3   OH217645   4.710   4.467   3.941
 5880TIP3    H117646   4.744   4.469   4.031
 5880TIP3    H217647   4.687   4.558   3.922
 5881TIP3   OH217648   4.475   4.876   1.359
 5881TIP3    H117649   4.406   4.846   1.300
 5881TIP3    H217650   4.475   4.971   1.349
 5882TIP3   OH217651   4.924   3.869   5.237
 5882TIP3    H117652   4.925   3.859   5.142
 5882TIP3    H217653   4.908   3.963   5.251
 5883TIP3   OH217654   2.077   2.099   3.774
 5883TIP3    H117655   2.093   2.156   3.850
 5883TIP3    H217656   2.094   2.010   3.807
 5884TIP3   OH217657   5.803   4.790  -0.021
 5884TIP3    H117658   5.886   4.749   0.004
 5884TIP3    H217659   5.749   4.785   0.057
 5885TIP3   OH217660   5.785   5.761   0.187
 5885TIP3    H117661   5.749   5.795   0.105
 5885TIP3    H217662   5.710   5.724   0.233
 5886TIP3   OH217663   4.546   4.700   1.897
 5886TIP3    H117664   4.526   4.747   1.816
 5886TIP3    H217665   4.498   4.617   1.889
 5887TIP3   OH217666   0.057   3.809   4.090
 5887TIP3    H117667  -0.007   3.861   4.139
 5887TIP3    H217668   0.071   3.731   4.144
 5888TIP3   OH217669   3.736   0.315   4.038
 5888TIP3    H117670   3.723   0.233   3.990
 5888TIP3    H217671   3.690   0.381   3.986
 5889TIP3   OH217672   2.701   4.605   3.108
 5889TIP3    H117673   2.745   4.671   3.162
 5889TIP3    H217674   2.730   4.624   3.019
 5890TIP3   OH217675   0.291   0.527   3.385
 5890TIP3    H117676   0.199   0.553   3.379
 5890TIP3    H217677   0.291   0.456   3.449
 5891TIP3   OH217678   3.650   5.518   2.924
 5891TIP3    H117679   3.717   5.497   2.859
 5891TIP3    H217680   3.589   5.445   2.920
 5892TIP3   OH217681   0.131   3.736   2.601
 5892TIP3    H117682   0.081   3.781   2.668
 5892TIP3    H217683   0.216   3.719   2.642
 5893TIP3   OH217684   1.023   0.817   5.156
 5893TIP3    H117685   0.934   0.813   5.190
 5893TIP3    H217686   1.057   0.902   5.185
 5894TIP3   OH217687   5.204   2.823   1.091
 5894TIP3    H117688   5.127   2.767   1.088
 5894TIP3    H217689   5.216   2.854   1.002
 5895TIP3   OH217690   5.527   0.351   2.964
 5895TIP3    H117691   5.585   0.298   3.018
 5895TIP3    H217692   5.560   0.440   2.973
 5896TIP3   OH217693   2.017   5.566   4.675
 5896TIP3    H117694   2.030   5.628   4.747
 5896TIP3    H217695   2.069   5.602   4.603
 5897TIP3   OH217696   1.988   0.066   0.149
 5897TIP3    H117697   1.902   0.073   0.106
 5897TIP3    H217698   2.049   0.103   0.086
 5898TIP3   OH217699   1.239   0.380   5.036
 5898TIP3    H117700   1.225   0.287   5.015
 5898TIP3    H217701   1.156   0.422   5.017
 5899TIP3   OH217702   5.721   3.568   1.779
 5899TIP3    H117703   5.649   3.606   1.728
 5899TIP3    H217704   5.757   3.499   1.723
 5900TIP3   OH217705   4.997   3.162   1.351
 5900TIP3    H117706   4.934   3.132   1.286
 5900TIP3    H217707   4.989   3.258   1.350
 5901TIP3   OH217708   1.463   0.783   0.279
 5901TIP3    H117709   1.409   0.851   0.321
 5901TIP3    H217710   1.552   0.805   0.305
 5902TIP3   OH217711   5.959   1.820   4.363
 5902TIP3    H117712   5.929   1.746   4.415
 5902TIP3    H217713   6.047   1.839   4.397
 5903TIP3   OH217714   1.336   1.830   4.266
 5903TIP3    H117715   1.315   1.894   4.334
 5903TIP3    H217716   1.370   1.755   4.314
 5904TIP3   OH217717   0.972   1.549   0.014
 5904TIP3    H117718   0.983   1.465  -0.030
 5904TIP3    H217719   0.985   1.529   0.107
 5905TIP3   OH217720   5.288   0.495   3.141
 5905TIP3    H117721   5.354   0.434   3.108
 5905TIP3    H217722   5.208   0.472   3.093
 5906TIP3   OH217723   4.510   5.401   4.761
 5906TIP3    H117724   4.576   5.413   4.829
 5906TIP3    H217725   4.551   5.342   4.697
 5907TIP3   OH217726   2.299   4.666   3.089
 5907TIP3    H117727   2.369   4.728   3.068
 5907TIP3    H217728   2.233   4.719   3.134
 5908TIP3   OH217729   3.911   0.869   4.146
 5908TIP3    H117730   3.855   0.944   4.166
 5908TIP3    H217731   3.994   0.889   4.190
 5909TIP3   OH217732   4.804   5.568   0.185
 5909TIP3    H117733   4.739   5.601   0.246
 5909TIP3    H217734   4.754   5.544   0.107
 5910TIP3   OH217735   2.865   4.708   5.045
 5910TIP3    H117736   2.781   4.739   5.080
 5910TIP3    H217737   2.907   4.666   5.120
 5911TIP3   OH217738   4.835   1.659   5.061
 5911TIP3    H117739   4.741   1.678   5.065
 5911TIP3    H217740   4.857   1.631   5.150
 5912TIP3   OH217741   5.789   1.676   1.885
 5912TIP3    H117742   5.856   1.688   1.952
 5912TIP3    H217743   5.714   1.640   1.933
 5913TIP3   OH217744   0.290   0.391   4.326
 5913TIP3    H117745   0.211   0.366   4.374
 5913TIP3    H217746   0.294   0.486   4.334
 5914TIP3   OH217747   3.014   3.061   0.704
 5914TIP3    H117748   3.078   3.071   0.775
 5914TIP3    H217749   2.977   3.149   0.694
 5915TIP3   OH217750   3.534   4.838   0.062
 5915TIP3    H117751   3.615   4.878   0.030
 5915TIP3    H217752   3.551   4.744   0.061
 5916TIP3   OH217753   4.499   0.478   0.141
 5916TIP3    H117754   4.403   0.470   0.139
 5916TIP3    H217755   4.515   0.563   0.183
 5917TIP3   OH217756   1.511   4.026   3.664
 5917TIP3    H117757   1.443   3.958   3.664
 5917TIP3    H217758   1.557   4.013   3.747
 5918TIP3   OH217759   2.919   1.518   4.421
 5918TIP3    H117760   2.936   1.430   4.389
 5918TIP3    H217761   2.924   1.510   4.516
 5919TIP3   OH217762   5.422   1.520   1.923
 5919TIP3    H117763   5.462   1.604   1.947
 5919TIP3    H217764   5.340   1.517   1.972
 5920TIP3   OH217765   3.966   0.780   0.427
 5920TIP3    H117766   4.021   0.786   0.349
 5920TIP3    H217767   3.994   0.699   0.470
 5921TIP3   OH217768   2.360   3.091   0.915
 5921TIP3    H117769   2.446   3.122   0.887
 5921TIP3    H217770   2.372   2.998   0.930
 5922TIP3   OH217771   5.424   1.513   1.165
 5922TIP3    H117772   5.498   1.533   1.107
 5922TIP3    H217773   5.439   1.423   1.194
 5923TIP3   OH217774   1.725   5.007   0.028
 5923TIP3    H117775   1.812   5.047   0.032
 5923TIP3    H217776   1.668   5.068   0.075
 5924TIP3   OH217777   1.577   1.399   0.679
 5924TIP3    H117778   1.496   1.440   0.709
 5924TIP3    H217779   1.635   1.473   0.659
 5925TIP3   OH217780   0.792   3.828   1.832
 5925TIP3    H117781   0.845   3.905   1.811
 5925TIP3    H217782   0.763   3.795   1.747
 5926TIP3   OH217783   0.357   3.382   3.814
 5926TIP3    H117784   0.324   3.455   3.762
 5926TIP3    H217785   0.343   3.408   3.905
 5927TIP3   OH217786   0.302   1.981   1.156
 5927TIP3    H117787   0.377   1.996   1.213
 5927TIP3    H217788   0.340   1.948   1.075
 5928TIP3   OH217789   4.924   0.989   4.842
 5928TIP3    H117790   4.955   0.941   4.765
 5928TIP3    H217791   4.960   1.077   4.831
 5929TIP3   OH217792   6.331   4.033   2.543
 5929TIP3    H117793   6.326   4.128   2.544
 5929TIP3    H217794   6.408   4.014   2.489
 5930TIP3   OH217795   5.406   3.992   1.385
 5930TIP3    H117796   5.356   3.936   1.326
 5930TIP3    H217797   5.377   3.966   1.472
 5931TIP3   OH217798   4.860   3.652   1.211
 5931TIP3    H117799   4.810   3.594   1.153
 5931TIP3    H217800   4.908   3.592   1.268
 5932TIP3   OH217801   5.477   3.374   4.998
 5932TIP3    H117802   5.471   3.459   4.955
 5932TIP3    H217803   5.431   3.314   4.938
 5933TIP3   OH217804   4.103   1.321   2.322
 5933TIP3    H117805   4.160   1.340   2.397
 5933TIP3    H217806   4.016   1.346   2.352
 5934TIP3   OH217807   3.734   1.559   0.189
 5934TIP3    H117808   3.794   1.487   0.171
 5934TIP3    H217809   3.665   1.519   0.242
 5935TIP3   OH217810   0.844   2.149   4.168
 5935TIP3    H117811   0.851   2.182   4.258
 5935TIP3    H217812   0.915   2.085   4.161
 5936TIP3   OH217813   1.303   2.035   4.456
 5936TIP3    H117814   1.286   2.122   4.420
 5936TIP3    H217815   1.327   2.052   4.548
 5937TIP3   OH217816   2.570   5.372   0.429
 5937TIP3    H117817   2.639   5.319   0.389
 5937TIP3    H217818   2.617   5.443   0.473
 5938TIP3   OH217819   3.896   0.136  -0.041
 5938TIP3    H117820   3.953   0.201   0.001
 5938TIP3    H217821   3.867   0.080   0.031
 5939TIP3   OH217822   4.717   3.583   0.945
 5939TIP3    H117823   4.788   3.546   0.893
 5939TIP3    H217824   4.726   3.678   0.933
 5940TIP3   OH217825   0.245   4.387   4.547
 5940TIP3    H117826   0.249   4.437   4.629
 5940TIP3    H217827   0.228   4.297   4.575
 5941TIP3   OH217828   5.887   3.464   2.007
 5941TIP3    H117829   5.904   3.381   1.963
 5941TIP3    H217830   5.947   3.465   2.081
 5942TIP3   OH217831   2.890   2.506   4.048
 5942TIP3    H117832   2.949   2.550   4.110
 5942TIP3    H217833   2.856   2.431   4.097
 5943TIP3   OH217834   5.880   4.006   1.738
 5943TIP3    H117835   5.934   4.052   1.674
 5943TIP3    H217836   5.818   4.072   1.769
 5944TIP3   OH217837   1.816   5.103   2.420
 5944TIP3    H117838   1.868   5.026   2.443
 5944TIP3    H217839   1.727   5.070   2.411
 5945TIP3   OH217840   0.895   3.078   2.682
 5945TIP3    H117841   0.842   3.155   2.706
 5945TIP3    H217842   0.830   3.011   2.663
 5946TIP3   OH217843   3.124   2.127   1.442
 5946TIP3    H117844   3.145   2.199   1.502
 5946TIP3    H217845   3.067   2.167   1.376
 5947TIP3   OH217846   3.678   5.375   1.041
 5947TIP3    H117847   3.706   5.332   0.960
 5947TIP3    H217848   3.590   5.341   1.056
 5948TIP3   OH217849   4.169   1.363   1.452
 5948TIP3    H117850   4.164   1.424   1.525
 5948TIP3    H217851   4.155   1.277   1.491
 5949TIP3   OH217852   3.605   2.078   0.838
 5949TIP3    H117853   3.523   2.124   0.824
 5949TIP3    H217854   3.586   1.987   0.815
 5950TIP3   OH217855   5.078   3.786   1.664
 5950TIP3    H117856   5.066   3.734   1.584
 5950TIP3    H217857   4.990   3.796   1.699
 5951TIP3   OH217858   1.052   4.742   3.113
 5951TIP3    H117859   1.009   4.664   3.078
 5951TIP3    H217860   0.994   4.815   3.089
 5952TIP3   OH217861   3.376   0.331   3.536
 5952TIP3    H117862   3.417   0.295   3.458
 5952TIP3    H217863   3.420   0.414   3.550
 5953TIP3   OH217864   0.145   2.851   2.722
 5953TIP3    H117865   0.156   2.908   2.797
 5953TIP3    H217866   0.123   2.909   2.650
 5954TIP3   OH217867   4.255   5.077   4.846
 5954TIP3    H117868   4.345   5.104   4.864
 5954TIP3    H217869   4.263   5.005   4.783
 5955TIP3   OH217870   2.363   1.403   2.421
 5955TIP3    H117871   2.429   1.473   2.426
 5955TIP3    H217872   2.372   1.369   2.332
 5956TIP3   OH217873   4.520   2.704   1.113
 5956TIP3    H117874   4.488   2.625   1.155
 5956TIP3    H217875   4.457   2.722   1.043
 5957TIP3   OH217876   2.242   4.024   4.383
 5957TIP3    H117877   2.332   4.016   4.417
 5957TIP3    H217878   2.250   4.083   4.309
 5958TIP3   OH217879   1.250   1.927   4.935
 5958TIP3    H117880   1.332   1.975   4.945
 5958TIP3    H217881   1.276   1.838   4.912
 5959TIP3   OH217882   3.216   5.083   1.416
 5959TIP3    H117883   3.225   5.079   1.321
 5959TIP3    H217884   3.300   5.054   1.450
 5960TIP3   OH217885   0.632   1.923   2.787
 5960TIP3    H117886   0.631   2.012   2.822
 5960TIP3    H217887   0.586   1.870   2.852
 5961TIP3   OH217888   2.141   3.686   2.737
 5961TIP3    H117889   2.135   3.735   2.818
 5961TIP3    H217890   2.235   3.675   2.722
 5962TIP3   OH217891   6.154   2.642   4.211
 5962TIP3    H117892   6.179   2.680   4.295
 5962TIP3    H217893   6.236   2.624   4.166
 5963TIP3   OH217894   0.554   3.462   0.593
 5963TIP3    H117895   0.496   3.386   0.592
 5963TIP3    H217896   0.609   3.448   0.670
 5964TIP3   OH217897   5.890   2.111   2.995
 5964TIP3    H117898   5.983   2.116   2.971
 5964TIP3    H217899   5.890   2.098   3.090
 5965TIP3   OH217900   4.387   2.084   2.292
 5965TIP3    H117901   4.369   2.082   2.198
 5965TIP3    H217902   4.305   2.113   2.332
 5966TIP3   OH217903   3.471   2.159   0.422
 5966TIP3    H117904   3.519   2.115   0.352
 5966TIP3    H217905   3.472   2.098   0.495
 5967TIP3   OH217906   0.534   4.497   3.026
 5967TIP3    H117907   0.553   4.590   3.023
 5967TIP3    H217908   0.612   4.457   3.063
 5968TIP3   OH217909   0.177   3.994   5.036
 5968TIP3    H117910   0.226   3.912   5.026
 5968TIP3    H217911   0.233   4.060   4.994
 5969TIP3   OH217912   5.790   3.887   4.226
 5969TIP3    H117913   5.774   3.981   4.238
 5969TIP3    H217914   5.711   3.845   4.260
 5970TIP3   OH217915   4.240   5.616   2.159
 5970TIP3    H117916   4.211   5.704   2.183
 5970TIP3    H217917   4.210   5.605   2.069
 5971TIP3   OH217918   0.930   4.372   4.610
 5971TIP3    H117919   0.914   4.285   4.646
 5971TIP3    H217920   1.025   4.383   4.618
 5972TIP3   OH217921   0.031   4.271   2.459
 5972TIP3    H117922   0.073   4.339   2.511
 5972TIP3    H217923   0.060   4.288   2.370
 5973TIP3   OH217924   0.577   5.250   3.944
 5973TIP3    H117925   0.656   5.293   3.911
 5973TIP3    H217926   0.557   5.183   3.879
 5974TIP3   OH217927   6.219   5.648   0.367
 5974TIP3    H117928   6.207   5.717   0.301
 5974TIP3    H217929   6.181   5.570   0.327
 5975TIP3   OH217930   1.503   2.757   4.890
 5975TIP3    H117931   1.577   2.698   4.903
 5975TIP3    H217932   1.543   2.842   4.873
 5976TIP3   OH217933   3.522   0.462   1.768
 5976TIP3    H117934   3.612   0.446   1.742
 5976TIP3    H217935   3.469   0.414   1.704
 5977TIP3   OH217936   1.043   1.965   4.135
 5977TIP3    H117937   1.137   1.982   4.127
 5977TIP3    H217938   1.037   1.871   4.151
 5978TIP3   OH217939   0.924   0.394   0.062
 5978TIP3    H117940   0.992   0.445   0.017
 5978TIP3    H217941   0.854   0.457   0.078
 5979TIP3   OH217942   1.208   1.646   0.385
 5979TIP3    H117943   1.227   1.722   0.330
 5979TIP3    H217944   1.293   1.606   0.402
 5980TIP3   OH217945   1.464   4.326   2.228
 5980TIP3    H117946   1.555   4.315   2.198
 5980TIP3    H217947   1.411   4.304   2.152
 5981TIP3   OH217948   0.231   4.610   4.255
 5981TIP3    H117949   0.306   4.551   4.257
 5981TIP3    H217950   0.228   4.648   4.343
 5982TIP3   OH217951   6.170   0.028   2.979
 5982TIP3    H117952   6.105   0.086   2.939
 5982TIP3    H217953   6.169   0.050   3.072
 5983TIP3   OH217954   4.288   0.833   0.735
 5983TIP3    H117955   4.298   0.780   0.656
 5983TIP3    H217956   4.207   0.801   0.775
 5984TIP3   OH217957   5.864   2.704   3.865
 5984TIP3    H117958   5.777   2.692   3.904
 5984TIP3    H217959   5.915   2.630   3.897
 5985TIP3   OH217960   0.550   3.614   4.131
 5985TIP3    H117961   0.576   3.588   4.043
 5985TIP3    H217962   0.475   3.559   4.151
 5986TIP3   OH217963   2.455   1.751   0.048
 5986TIP3    H117964   2.417   1.746   0.136
 5986TIP3    H217965   2.458   1.845   0.029
 5987TIP3   OH217966   2.183   5.657   3.326
 5987TIP3    H117967   2.230   5.584   3.365
 5987TIP3    H217968   2.247   5.698   3.268
 5988TIP3   OH217969   1.362   5.207   5.203
 5988TIP3    H117970   1.292   5.272   5.206
 5988TIP3    H217971   1.433   5.251   5.157
 5989TIP3   OH217972   5.047   4.832   1.498
 5989TIP3    H117973   4.980   4.899   1.501
 5989TIP3    H217974   5.119   4.872   1.450
 5990TIP3   OH217975   0.123   1.544   0.023
 5990TIP3    H117976   0.129   1.637   0.047
 5990TIP3    H217977   0.029   1.525   0.022
 5991TIP3   OH217978   2.118   1.773   0.636
 5991TIP3    H117979   2.202   1.744   0.671
 5991TIP3    H217980   2.110   1.728   0.552
 5992TIP3   OH217981   5.450   3.037   0.571
 5992TIP3    H117982   5.524   3.000   0.524
 5992TIP3    H217983   5.412   3.101   0.511
 5993TIP3   OH217984   0.455   5.436   1.517
 5993TIP3    H117985   0.447   5.356   1.569
 5993TIP3    H217986   0.378   5.434   1.459
 5994TIP3   OH217987   1.894   3.921   2.013
 5994TIP3    H117988   1.841   3.915   2.092
 5994TIP3    H217989   1.900   3.831   1.981
 5995TIP3   OH217990   1.300   0.480   1.955
 5995TIP3    H117991   1.332   0.532   2.029
 5995TIP3    H217992   1.368   0.490   1.888
 5996TIP3   OH217993   0.411   4.731   1.912
 5996TIP3    H117994   0.408   4.705   1.820
 5996TIP3    H217995   0.323   4.764   1.931
 5997TIP3   OH217996   3.051   1.127   3.948
 5997TIP3    H117997   3.039   1.049   3.893
 5997TIP3    H217998   3.013   1.102   4.033
 5998TIP3   OH217999   0.132   1.085   0.055
 5998TIP3    H118000   0.075   1.009   0.063
 5998TIP3    H218001   0.220   1.048   0.045
 5999TIP3   OH218002   6.273   0.637   0.229
 5999TIP3    H118003   6.195   0.690   0.249
 5999TIP3    H218004   6.347   0.693   0.251
 6000TIP3   OH218005   0.149   5.127   1.585
 6000TIP3    H118006   0.088   5.197   1.565
 6000TIP3    H218007   0.112   5.083   1.661
 6001TIP3   OH218008   1.236   2.137   1.799
 6001TIP3    H118009   1.213   2.187   1.877
 6001TIP3    H218010   1.184   2.177   1.729
 6002TIP3   OH218011   3.186   4.959   2.583
 6002TIP3    H118012   3.214   4.872   2.609
 6002TIP3    H218013   3.124   4.944   2.511
 6003TIP3   OH218014   2.246   3.421   3.565
 6003TIP3    H118015   2.224   3.412   3.658
 6003TIP3    H218016   2.166   3.455   3.525
 6004TIP3   OH218017   0.259   0.883   4.444
 6004TIP3    H118018   0.267   0.943   4.370
 6004TIP3    H218019   0.169   0.892   4.474
 6005TIP3   OH218020   0.468   1.101   5.065
 6005TIP3    H118021   0.376   1.082   5.043
 6005TIP3    H218022   0.504   1.142   4.987
 6006TIP3   OH218023   0.775   4.814   0.790
 6006TIP3    H118024   0.742   4.768   0.867
 6006TIP3    H218025   0.746   4.760   0.716
 6007TIP3   OH218026   5.709   1.369   3.518
 6007TIP3    H118027   5.641   1.422   3.476
 6007TIP3    H218028   5.689   1.374   3.611
 6008TIP3   OH218029   5.010   2.492   2.809
 6008TIP3    H118030   5.032   2.573   2.856
 6008TIP3    H218031   4.915   2.496   2.797
 6009TIP3   OH218032   1.927   3.662   4.220
 6009TIP3    H118033   2.022   3.653   4.223
 6009TIP3    H218034   1.894   3.590   4.274
 6010TIP3   OH218035   3.447   3.076   2.724
 6010TIP3    H118036   3.372   3.132   2.745
 6010TIP3    H218037   3.408   2.992   2.698
 6011TIP3   OH218038   5.718   0.141   4.867
 6011TIP3    H118039   5.797   0.093   4.841
 6011TIP3    H218040   5.700   0.200   4.794
 6012TIP3   OH218041   1.743   0.354   0.304
 6012TIP3    H118042   1.687   0.364   0.381
 6012TIP3    H218043   1.825   0.318   0.339
 6013TIP3   OH218044   6.298   5.619   1.449
 6013TIP3    H118045   6.316   5.675   1.373
 6013TIP3    H218046   6.381   5.614   1.496
 6014TIP3   OH218047   2.077   3.744   3.902
 6014TIP3    H118048   2.111   3.736   3.813
 6014TIP3    H218049   2.154   3.733   3.958
 6015TIP3   OH218050   4.636   4.705   4.363
 6015TIP3    H118051   4.584   4.765   4.416
 6015TIP3    H218052   4.573   4.643   4.327
 6016TIP3   OH218053   5.355   0.103   1.877
 6016TIP3    H118054   5.351   0.011   1.905
 6016TIP3    H218055   5.397   0.099   1.791
 6017TIP3   OH218056   6.056   2.783   3.058
 6017TIP3    H118057   6.005   2.707   3.031
 6017TIP3    H218058   6.036   2.850   2.993
 6018TIP3   OH218059   3.889   4.349   4.825
 6018TIP3    H118060   3.945   4.409   4.777
 6018TIP3    H218061   3.825   4.319   4.760
 6019TIP3   OH218062   1.540   4.162   3.153
 6019TIP3    H118063   1.526   4.087   3.211
 6019TIP3    H218064   1.497   4.235   3.197
 6020TIP3   OH218065   2.797   1.943   4.751
 6020TIP3    H118066   2.885   1.908   4.758
 6020TIP3    H218067   2.755   1.891   4.683
 6021TIP3   OH218068   3.942   3.995   0.889
 6021TIP3    H118069   3.963   3.963   0.801
 6021TIP3    H218070   3.847   4.009   0.888
 6022TIP3   OH218071   0.106   2.678   3.464
 6022TIP3    H118072   0.020   2.697   3.427
 6022TIP3    H218073   0.154   2.633   3.394
 6023TIP3   OH218074   5.517   1.024   4.621
 6023TIP3    H118075   5.552   0.967   4.553
 6023TIP3    H218076   5.595   1.056   4.668
 6024TIP3   OH218077   3.820   0.455   3.135
 6024TIP3    H118078   3.902   0.451   3.183
 6024TIP3    H218079   3.827   0.386   3.069
 6025TIP3   OH218080   4.760   4.905   3.204
 6025TIP3    H118081   4.772   4.998   3.221
 6025TIP3    H218082   4.837   4.880   3.152
 6026TIP3   OH218083   2.669   1.580   0.010
 6026TIP3    H118084   2.580   1.616   0.015
 6026TIP3    H218085   2.723   1.653  -0.021
 6027TIP3   OH218086   3.014   5.292   4.103
 6027TIP3    H118087   2.990   5.244   4.183
 6027TIP3    H218088   3.103   5.322   4.119
 6028TIP3   OH218089   3.705   1.886   4.905
 6028TIP3    H118090   3.692   1.847   4.991
 6028TIP3    H218091   3.732   1.976   4.924
 6029TIP3   OH218092   5.399   5.886   3.369
 6029TIP3    H118093   5.491   5.863   3.362
 6029TIP3    H218094   5.374   5.913   3.280
 6030TIP3   OH218095   5.603   2.846   0.382
 6030TIP3    H118096   5.538   2.787   0.343
 6030TIP3    H218097   5.630   2.801   0.462
 6031TIP3   OH218098   4.961   2.437   0.318
 6031TIP3    H118099   4.892   2.414   0.381
 6031TIP3    H218100   5.043   2.423   0.366
 6032TIP3   OH218101   2.686   2.477   3.339
 6032TIP3    H118102   2.664   2.472   3.246
 6032TIP3    H218103   2.624   2.541   3.375
 6033TIP3   OH218104   6.049   1.030   2.227
 6033TIP3    H118105   6.017   1.027   2.317
 6033TIP3    H218106   6.113   1.101   2.226
 6034TIP3   OH218107   3.093   3.461   0.166
 6034TIP3    H118108   3.135   3.400   0.227
 6034TIP3    H218109   3.016   3.493   0.214
 6035TIP3   OH218110   0.622   2.553   2.077
 6035TIP3    H118111   0.599   2.635   2.122
 6035TIP3    H218112   0.540   2.522   2.040
 6036TIP3   OH218113   3.776   2.049   1.804
 6036TIP3    H118114   3.834   2.125   1.803
 6036TIP3    H218115   3.690   2.084   1.780
 6037TIP3   OH218116   2.667   2.149   2.773
 6037TIP3    H118117   2.698   2.210   2.839
 6037TIP3    H218118   2.743   2.095   2.752
 6038TIP3   OH218119   0.033   2.088   2.838
 6038TIP3    H118120   0.052   2.155   2.773
 6038TIP3    H218121   0.074   2.120   2.918
 6039TIP3   OH218122   2.520   4.819   1.209
 6039TIP3    H118123   2.560   4.742   1.249
 6039TIP3    H218124   2.594   4.871   1.178
 6040TIP3   OH218125   4.243   2.502   0.377
 6040TIP3    H118126   4.288   2.569   0.326
 6040TIP3    H218127   4.279   2.510   0.465
 6041TIP3   OH218128   2.923   4.178   3.681
 6041TIP3    H118129   2.916   4.265   3.640
 6041TIP3    H218130   2.859   4.180   3.751
 6042TIP3   OH218131   3.818   0.678   4.673
 6042TIP3    H118132   3.848   0.606   4.618
 6042TIP3    H218133   3.898   0.717   4.707
 6043TIP3   OH218134   0.279   2.447   0.447
 6043TIP3    H118135   0.242   2.360   0.432
 6043TIP3    H218136   0.204   2.506   0.440
 6044TIP3   OH218137   0.585   4.658   2.659
 6044TIP3    H118138   0.660   4.688   2.608
 6044TIP3    H218139   0.539   4.597   2.602
 6045TIP3   OH218140   1.357   4.935   1.244
 6045TIP3    H118141   1.314   5.014   1.277
 6045TIP3    H218142   1.396   4.961   1.161
 6046TIP3   OH218143   3.487   1.021   5.008
 6046TIP3    H118144   3.515   1.111   5.024
 6046TIP3    H218145   3.393   1.028   4.987
 6047TIP3   OH218146   2.724   2.799   2.812
 6047TIP3    H118147   2.764   2.877   2.774
 6047TIP3    H218148   2.663   2.834   2.878
 6048TIP3   OH218149   3.777   2.383   1.506
 6048TIP3    H118150   3.711   2.437   1.548
 6048TIP3    H218151   3.733   2.345   1.430
 6049TIP3   OH218152   0.978   2.632   4.136
 6049TIP3    H118153   0.994   2.710   4.189
 6049TIP3    H218154   1.064   2.609   4.100
 6050TIP3   OH218155   2.260   3.674   5.071
 6050TIP3    H118156   2.190   3.736   5.048
 6050TIP3    H218157   2.216   3.605   5.121
 6051TIP3   OH218158   3.746   2.811   0.592
 6051TIP3    H118159   3.691   2.861   0.652
 6051TIP3    H218160   3.800   2.756   0.649
 6052TIP3   OH218161   1.764   0.663   4.651
 6052TIP3    H118162   1.846   0.622   4.678
 6052TIP3    H218163   1.756   0.740   4.707
 6053TIP3   OH218164   4.615   2.418   3.897
 6053TIP3    H118165   4.559   2.454   3.966
 6053TIP3    H218166   4.561   2.421   3.818
 6054TIP3   OH218167   1.554   3.603   1.923
 6054TIP3    H118168   1.502   3.679   1.898
 6054TIP3    H218169   1.500   3.528   1.900
 6055TIP3   OH218170   3.624   5.265   0.005
 6055TIP3    H118171   3.577   5.343   0.033
 6055TIP3    H218172   3.715   5.294  -0.003
 6056TIP3   OH218173   3.447   4.733   4.573
 6056TIP3    H118174   3.394   4.665   4.532
 6056TIP3    H218175   3.436   4.719   4.667
 6057TIP3   OH218176   5.994   2.526   4.020
 6057TIP3    H118177   6.055   2.554   4.088
 6057TIP3    H218178   6.025   2.440   3.993
 6058TIP3   OH218179   3.386   1.282   2.803
 6058TIP3    H118180   3.309   1.262   2.857
 6058TIP3    H218181   3.449   1.319   2.865
 6059TIP3   OH218182   4.746   4.369   2.100
 6059TIP3    H118183   4.795   4.451   2.097
 6059TIP3    H218184   4.676   4.380   2.035
 6060TIP3   OH218185   4.599   3.972   3.897
 6060TIP3    H118186   4.609   4.065   3.881
 6060TIP3    H218187   4.639   3.958   3.983
 6061TIP3   OH218188   1.129   4.953   0.762
 6061TIP3    H118189   1.160   4.911   0.681
 6061TIP3    H218190   1.144   4.887   0.830
 6062TIP3   OH218191   1.325   0.929   2.432
 6062TIP3    H118192   1.296   0.966   2.349
 6062TIP3    H218193   1.415   0.900   2.415
 6063TIP3   OH218194   5.120   2.139   1.985
 6063TIP3    H118195   5.082   2.117   2.070
 6063TIP3    H218196   5.163   2.058   1.957
 6064TIP3   OH218197   4.802   4.531   4.197
 6064TIP3    H118198   4.766   4.580   4.271
 6064TIP3    H218199   4.851   4.459   4.237
 6065TIP3   OH218200   1.805   2.469   0.432
 6065TIP3    H118201   1.761   2.554   0.437
 6065TIP3    H218202   1.893   2.489   0.402
 6066TIP3   OH218203   5.004   1.879   3.617
 6066TIP3    H118204   5.074   1.859   3.680
 6066TIP3    H218205   5.039   1.951   3.565
 6067TIP3   OH218206   5.546   2.402   4.540
 6067TIP3    H118207   5.539   2.400   4.445
 6067TIP3    H218208   5.465   2.363   4.571
 6068TIP3   OH218209   0.145   1.631   3.587
 6068TIP3    H118210   0.234   1.598   3.599
 6068TIP3    H218211   0.129   1.625   3.493
 6069TIP3   OH218212   0.530   3.472   1.849
 6069TIP3    H118213   0.538   3.538   1.918
 6069TIP3    H218214   0.508   3.522   1.770
 6070TIP3   OH218215   3.416   4.628   2.885
 6070TIP3    H118216   3.326   4.598   2.875
 6070TIP3    H218217   3.438   4.607   2.976
 6071TIP3   OH218218   2.023   3.015   3.693
 6071TIP3    H118219   1.954   3.077   3.670
 6071TIP3    H218220   2.015   2.944   3.629
 6072TIP3   OH218221   3.502   1.595   5.095
 6072TIP3    H118222   3.580   1.647   5.111
 6072TIP3    H218223   3.439   1.625   5.160
 6073TIP3   OH218224   5.598   3.935   5.020
 6073TIP3    H118225   5.514   3.950   5.063
 6073TIP3    H218226   5.612   3.841   5.026
 6074TIP3   OH218227   4.127   3.840   1.448
 6074TIP3    H118228   4.044   3.811   1.408
 6074TIP3    H218229   4.158   3.764   1.496
 6075TIP3   OH218230   2.667   2.759   4.244
 6075TIP3    H118231   2.580   2.740   4.209
 6075TIP3    H218232   2.661   2.847   4.279
 6076TIP3   OH218233   5.626   1.033   3.875
 6076TIP3    H118234   5.553   1.006   3.930
 6076TIP3    H218235   5.626   1.129   3.879
 6077TIP3   OH218236   3.496   3.793   0.733
 6077TIP3    H118237   3.460   3.826   0.651
 6077TIP3    H218238   3.507   3.699   0.718
 6078TIP3   OH218239   4.214   3.205   0.643
 6078TIP3    H118240   4.214   3.163   0.557
 6078TIP3    H218241   4.141   3.163   0.690
 6079TIP3   OH218242   2.675   1.382   0.492
 6079TIP3    H118243   2.722   1.418   0.568
 6079TIP3    H218244   2.728   1.307   0.464
 6080TIP3   OH218245   4.757   2.078   0.363
 6080TIP3    H118246   4.816   2.077   0.288
 6080TIP3    H218247   4.721   1.989   0.367
 6081TIP3   OH218248   0.486   4.311   4.114
 6081TIP3    H118249   0.392   4.304   4.096
 6081TIP3    H218250   0.491   4.371   4.189
 6082TIP3   OH218251   4.834   1.036   1.236
 6082TIP3    H118252   4.744   1.067   1.242
 6082TIP3    H218253   4.849   1.024   1.142
 6083TIP3   OH218254   0.334   3.396   0.247
 6083TIP3    H118255   0.300   3.446   0.173
 6083TIP3    H218256   0.381   3.461   0.300
 6084TIP3   OH218257   5.517   5.822   0.928
 6084TIP3    H118258   5.582   5.826   0.997
 6084TIP3    H218259   5.466   5.743   0.947
 6085TIP3   OH218260   1.428   0.875   3.660
 6085TIP3    H118261   1.428   0.800   3.719
 6085TIP3    H218262   1.398   0.840   3.576
 6086TIP3   OH218263   4.156   5.842   2.790
 6086TIP3    H118264   4.150   5.922   2.842
 6086TIP3    H218265   4.066   5.821   2.767
 6087TIP3   OH218266   2.298   3.304   2.073
 6087TIP3    H118267   2.260   3.217   2.087
 6087TIP3    H218268   2.263   3.332   1.989
 6088TIP3   OH218269   3.146   3.554   0.552
 6088TIP3    H118270   3.110   3.571   0.640
 6088TIP3    H218271   3.069   3.553   0.495
 6089TIP3   OH218272   3.928   5.337   5.132
 6089TIP3    H118273   3.889   5.255   5.164
 6089TIP3    H218274   4.006   5.309   5.085
 6090TIP3   OH218275   5.205   5.247   4.394
 6090TIP3    H118276   5.124   5.286   4.361
 6090TIP3    H218277   5.197   5.154   4.372
 6091TIP3   OH218278   2.921   4.865   3.933
 6091TIP3    H118279   3.008   4.888   3.967
 6091TIP3    H218280   2.934   4.849   3.840
 6092TIP3   OH218281   3.677   0.086   2.477
 6092TIP3    H118282   3.620   0.009   2.480
 6092TIP3    H218283   3.673   0.115   2.386
 6093TIP3   OH218284   5.520   1.669   3.436
 6093TIP3    H118285   5.556   1.640   3.353
 6093TIP3    H218286   5.431   1.698   3.414
 6094TIP3   OH218287   5.554   3.666   3.088
 6094TIP3    H118288   5.612   3.590   3.077
 6094TIP3    H218289   5.492   3.640   3.155
 6095TIP3   OH218290   4.736   0.366   3.467
 6095TIP3    H118291   4.738   0.272   3.485
 6095TIP3    H218292   4.794   0.405   3.533
 6096TIP3   OH218293   5.260   1.921   1.264
 6096TIP3    H118294   5.282   1.830   1.283
 6096TIP3    H218295   5.231   1.922   1.173
 6097TIP3   OH218296   1.016   3.786   5.178
 6097TIP3    H118297   0.961   3.735   5.118
 6097TIP3    H218298   1.105   3.754   5.162
 6098TIP3   OH218299   6.363   5.806   2.287
 6098TIP3    H118300   6.276   5.766   2.285
 6098TIP3    H218301   6.350   5.893   2.249
 6099TIP3   OH218302   5.714   3.129   3.561
 6099TIP3    H118303   5.772   3.202   3.581
 6099TIP3    H218304   5.634   3.171   3.529
 6100TIP3   OH218305   1.521   1.174   1.337
 6100TIP3    H118306   1.521   1.136   1.425
 6100TIP3    H218307   1.606   1.217   1.329
 6101TIP3   OH218308   2.038   5.834   2.984
 6101TIP3    H118309   2.020   5.874   3.069
 6101TIP3    H218310   1.956   5.791   2.959
 6102TIP3   OH218311   1.342   2.166   2.721
 6102TIP3    H118312   1.306   2.093   2.770
 6102TIP3    H218313   1.273   2.233   2.723
 6103TIP3   OH218314   4.159   1.665   4.040
 6103TIP3    H118315   4.082   1.611   4.025
 6103TIP3    H218316   4.134   1.753   4.012
 6104TIP3   OH218317   2.907  -0.027   2.408
 6104TIP3    H118318   2.850   0.042   2.375
 6104TIP3    H218319   2.948  -0.064   2.330
 6105TIP3   OH218320   3.494   1.547   3.073
 6105TIP3    H118321   3.458   1.590   2.996
 6105TIP3    H218322   3.524   1.462   3.042
 6106TIP3   OH218323   0.291   3.953   1.518
 6106TIP3    H118324   0.312   3.875   1.466
 6106TIP3    H218325   0.371   4.006   1.514
 6107TIP3   OH218326   5.902   3.214   3.732
 6107TIP3    H118327   5.903   3.305   3.701
 6107TIP3    H218328   5.995   3.191   3.741
 6108TIP3   OH218329   0.799   1.068   3.006
 6108TIP3    H118330   0.825   1.111   3.087
 6108TIP3    H218331   0.750   0.991   3.034
 6109TIP3   OH218332   5.715   4.912   1.794
 6109TIP3    H118333   5.777   4.972   1.834
 6109TIP3    H218334   5.694   4.849   1.864
 6110TIP3   OH218335   3.136   3.007   3.948
 6110TIP3    H118336   3.129   3.096   3.984
 6110TIP3    H218337   3.087   3.011   3.865
 6111TIP3   OH218338   5.228   0.420   3.717
 6111TIP3    H118339   5.143   0.441   3.678
 6111TIP3    H218340   5.290   0.475   3.671
 6112TIP3   OH218341   3.255   1.071   1.002
 6112TIP3    H118342   3.238   1.092   1.094
 6112TIP3    H218343   3.200   1.131   0.953
 6113TIP3   OH218344   3.014   4.164   4.668
 6113TIP3    H118345   2.932   4.115   4.677
 6113TIP3    H218346   3.082   4.097   4.673
 6114TIP3   OH218347   0.281   2.266   2.382
 6114TIP3    H118348   0.222   2.222   2.321
 6114TIP3    H218349   0.367   2.259   2.341
 6115TIP3   OH218350   3.853   3.778   4.803
 6115TIP3    H118351   3.770   3.813   4.769
 6115TIP3    H218352   3.905   3.856   4.822
 6116TIP3   OH218353   3.575   4.576   0.083
 6116TIP3    H118354   3.642   4.556   0.149
 6116TIP3    H218355   3.499   4.524   0.110
 6117TIP3   OH218356   5.796   1.876   4.623
 6117TIP3    H118357   5.815   1.789   4.656
 6117TIP3    H218358   5.879   1.924   4.631
 6118TIP3   OH218359   3.342   5.559   0.850
 6118TIP3    H118360   3.281   5.486   0.848
 6118TIP3    H218361   3.291   5.636   0.825
 6119TIP3   OH218362   1.329   4.091   4.414
 6119TIP3    H118363   1.236   4.072   4.420
 6119TIP3    H218364   1.343   4.114   4.322
 6120TIP3   OH218365   5.430   3.839   2.929
 6120TIP3    H118366   5.383   3.904   2.981
 6120TIP3    H218367   5.468   3.780   2.994
 6121TIP3   OH218368   2.379   4.378   3.403
 6121TIP3    H118369   2.454   4.323   3.425
 6121TIP3    H218370   2.414   4.466   3.397
 6122TIP3   OH218371   5.450   0.544   3.641
 6122TIP3    H118372   5.485   0.529   3.554
 6122TIP3    H218373   5.509   0.607   3.681
 6123TIP3   OH218374   3.228   3.437   1.313
 6123TIP3    H118375   3.256   3.417   1.224
 6123TIP3    H218376   3.230   3.353   1.359
 6124TIP3   OH218377   5.762   3.806   4.665
 6124TIP3    H118378   5.673   3.839   4.678
 6124TIP3    H218379   5.752   3.711   4.665
 6125TIP3   OH218380   2.145   1.020   2.913
 6125TIP3    H118381   2.183   0.950   2.967
 6125TIP3    H218382   2.089   0.973   2.850
 6126TIP3   OH218383   5.502   3.798   2.398
 6126TIP3    H118384   5.543   3.787   2.484
 6126TIP3    H218385   5.453   3.717   2.385
 6127TIP3   OH218386   4.838   1.035   0.513
 6127TIP3    H118387   4.873   0.969   0.572
 6127TIP3    H218388   4.761   1.070   0.559
 6128TIP3   OH218389   5.234   2.487   0.935
 6128TIP3    H118390   5.241   2.514   1.027
 6128TIP3    H218391   5.190   2.402   0.939
 6129TIP3   OH218392   2.779   5.311   4.561
 6129TIP3    H118393   2.733   5.227   4.562
 6129TIP3    H218394   2.721   5.370   4.610
 6130TIP3   OH218395   4.350   4.249   0.820
 6130TIP3    H118396   4.345   4.231   0.726
 6130TIP3    H218397   4.442   4.234   0.843
 6131TIP3   OH218398   0.709   3.374   3.336
 6131TIP3    H118399   0.719   3.293   3.386
 6131TIP3    H218400   0.759   3.358   3.255
 6132TIP3   OH218401   1.269   5.206   1.374
 6132TIP3    H118402   1.263   5.271   1.304
 6132TIP3    H218403   1.359   5.213   1.406
 6133TIP3   OH218404   2.584   0.042   1.803
 6133TIP3    H118405   2.674   0.070   1.821
 6133TIP3    H218406   2.592  -0.018   1.729
 6134TIP3   OH218407   0.353   3.134   2.540
 6134TIP3    H118408   0.374   3.093   2.624
 6134TIP3    H218409   0.285   3.198   2.561
 6135TIP3   OH218410   0.406   2.490   1.901
 6135TIP3    H118411   0.491   2.485   1.858
 6135TIP3    H218412   0.343   2.461   1.835
 6136TIP3   OH218413   5.818   0.330   5.050
 6136TIP3    H118414   5.802   0.274   4.974
 6136TIP3    H218415   5.770   0.287   5.121
 6137TIP3   OH218416   2.232   1.967   1.286
 6137TIP3    H118417   2.319   1.952   1.248
 6137TIP3    H218418   2.195   1.879   1.297
 6138TIP3   OH218419   3.675   0.041   0.372
 6138TIP3    H118420   3.607  -0.020   0.401
 6138TIP3    H218421   3.671   0.113   0.434
 6139TIP3   OH218422   4.931   2.462   4.334
 6139TIP3    H118423   4.847   2.496   4.366
 6139TIP3    H218424   4.928   2.368   4.355
 6140TIP3   OH218425   6.082   4.809   2.215
 6140TIP3    H118426   6.122   4.884   2.259
 6140TIP3    H218427   6.146   4.738   2.225
 6141TIP3   OH218428   2.489   3.645   3.461
 6141TIP3    H118429   2.416   3.647   3.399
 6141TIP3    H218430   2.496   3.553   3.487
 6142TIP3   OH218431   4.544   0.516   1.488
 6142TIP3    H118432   4.464   0.495   1.440
 6142TIP3    H218433   4.612   0.466   1.444
 6143TIP3   OH218434   3.312   3.867   2.642
 6143TIP3    H118435   3.296   3.806   2.714
 6143TIP3    H218436   3.232   3.864   2.590
 6144TIP3   OH218437   5.216   0.899   0.244
 6144TIP3    H118438   5.185   0.990   0.239
 6144TIP3    H218439   5.200   0.864   0.156
 6145TIP3   OH218440   5.172   1.219   3.006
 6145TIP3    H118441   5.127   1.303   3.001
 6145TIP3    H218442   5.242   1.233   3.069
 6146TIP3   OH218443   4.545   5.074   0.959
 6146TIP3    H118444   4.469   5.016   0.960
 6146TIP3    H218445   4.523   5.143   1.021
 6147TIP3   OH218446   3.490   4.276   3.060
 6147TIP3    H118447   3.501   4.202   3.001
 6147TIP3    H218448   3.570   4.277   3.113
 6148TIP3   OH218449   0.621   4.439   5.136
 6148TIP3    H118450   0.586   4.468   5.221
 6148TIP3    H218451   0.648   4.349   5.151
 6149TIP3   OH218452   2.545   5.457   3.318
 6149TIP3    H118453   2.574   5.417   3.236
 6149TIP3    H218454   2.553   5.552   3.302
 6150TIP3   OH218455   5.895   1.923   4.973
 6150TIP3    H118456   5.968   1.946   4.915
 6150TIP3    H218457   5.907   1.978   5.050
 6151TIP3   OH218458   5.023  -0.017   2.021
 6151TIP3    H118459   5.036  -0.029   2.115
 6151TIP3    H218460   4.928  -0.018   2.009
 6152TIP3   OH218461   3.485   3.734   0.199
 6152TIP3    H118462   3.469   3.673   0.127
 6152TIP3    H218463   3.403   3.736   0.248
 6153TIP3   OH218464   1.376   1.839   2.918
 6153TIP3    H118465   1.310   1.884   2.867
 6153TIP3    H218466   1.432   1.796   2.854
 6154TIP3   OH218467   5.346   3.505   0.894
 6154TIP3    H118468   5.408   3.449   0.848
 6154TIP3    H218469   5.281   3.528   0.828
 6155TIP3   OH218470   4.037   2.198   1.565
 6155TIP3    H118471   4.071   2.113   1.594
 6155TIP3    H218472   3.978   2.225   1.635
 6156TIP3   OH218473   5.141   2.987   0.832
 6156TIP3    H118474   5.129   2.970   0.739
 6156TIP3    H218475   5.061   3.032   0.859
 6157TIP3   OH218476   4.498   1.661   1.459
 6157TIP3    H118477   4.557   1.590   1.432
 6157TIP3    H218478   4.413   1.639   1.421
 6158TIP3   OH218479   5.504   3.548   4.527
 6158TIP3    H118480   5.502   3.515   4.437
 6158TIP3    H218481   5.561   3.625   4.523
 6159TIP3   OH218482   6.368   3.719   1.412
 6159TIP3    H118483   6.288   3.668   1.406
 6159TIP3    H218484   6.382   3.753   1.324
 6160TIP3   OH218485   2.257   3.441   0.550
 6160TIP3    H118486   2.352   3.438   0.546
 6160TIP3    H218487   2.235   3.392   0.629
 6161TIP3   OH218488   5.328   0.329   4.089
 6161TIP3    H118489   5.286   0.413   4.071
 6161TIP3    H218490   5.384   0.313   4.014
 6162TIP3   OH218491   5.072   5.411   2.174
 6162TIP3    H118492   4.981   5.430   2.152
 6162TIP3    H218493   5.066   5.356   2.252
 6163TIP3   OH218494   4.005   1.234   4.349
 6163TIP3    H118495   4.006   1.169   4.420
 6163TIP3    H218496   4.097   1.245   4.326
 6164TIP3   OH218497   1.438   5.252   3.710
 6164TIP3    H118498   1.356   5.219   3.747
 6164TIP3    H218499   1.426   5.244   3.616
 6165TIP3   OH218500   0.288   3.907   3.317
 6165TIP3    H118501   0.312   3.816   3.297
 6165TIP3    H218502   0.367   3.944   3.356
 6166TIP3   OH218503   3.571   5.378   1.550
 6166TIP3    H118504   3.565   5.457   1.497
 6166TIP3    H218505   3.480   5.354   1.568
 6167TIP3   OH218506   4.422   4.391   2.839
 6167TIP3    H118507   4.396   4.299   2.842
 6167TIP3    H218508   4.491   4.394   2.773
 6168TIP3   OH218509   3.115   2.968   2.287
 6168TIP3    H118510   3.087   3.043   2.234
 6168TIP3    H218511   3.149   3.007   2.367
 6169TIP3   OH218512   5.331   5.728   3.907
 6169TIP3    H118513   5.319   5.823   3.897
 6169TIP3    H218514   5.280   5.706   3.985
 6170TIP3   OH218515   2.730   5.653   1.907
 6170TIP3    H118516   2.673   5.698   1.969
 6170TIP3    H218517   2.818   5.680   1.931
 6171TIP3   OH218518   4.515   5.289   3.080
 6171TIP3    H118519   4.492   5.381   3.093
 6171TIP3    H218520   4.563   5.288   2.997
 6172TIP3   OH218521   2.642   5.460   2.450
 6172TIP3    H118522   2.687   5.487   2.530
 6172TIP3    H218523   2.595   5.538   2.421
 6173TIP3   OH218524   5.009   1.711   1.196
 6173TIP3    H118525   5.090   1.698   1.244
 6173TIP3    H218526   4.950   1.755   1.258
 6174TIP3   OH218527   1.535   5.332   4.350
 6174TIP3    H118528   1.585   5.252   4.336
 6174TIP3    H218529   1.448   5.313   4.314
 6175TIP3   OH218530   2.756   3.968   1.691
 6175TIP3    H118531   2.709   4.049   1.674
 6175TIP3    H218532   2.752   3.920   1.608
 6176TIP3   OH218533   3.784   0.482   2.322
 6176TIP3    H118534   3.791   0.388   2.342
 6176TIP3    H218535   3.874   0.513   2.317
 6177TIP3   OH218536   4.667   4.815   0.116
 6177TIP3    H118537   4.661   4.875   0.189
 6177TIP3    H218538   4.725   4.858   0.054
 6178TIP3   OH218539   5.847   1.358   4.039
 6178TIP3    H118540   5.889   1.299   3.976
 6178TIP3    H218541   5.918   1.415   4.069
 6179TIP3   OH218542   0.089   1.090   3.673
 6179TIP3    H118543   0.068   1.076   3.580
 6179TIP3    H218544   0.175   1.132   3.672
 6180TIP3   OH218545   4.668   3.672   3.953
 6180TIP3    H118546   4.636   3.716   3.875
 6180TIP3    H218547   4.662   3.578   3.933
 6181TIP3   OH218548   2.351   2.245   3.696
 6181TIP3    H118549   2.370   2.228   3.604
 6181TIP3    H218550   2.271   2.195   3.714
 6182TIP3   OH218551   0.761   3.329   2.203
 6182TIP3    H118552   0.803   3.244   2.193
 6182TIP3    H218553   0.789   3.360   2.289
 6183TIP3   OH218554   0.264   1.090   0.571
 6183TIP3    H118555   0.360   1.093   0.579
 6183TIP3    H218556   0.233   1.091   0.661
 6184TIP3   OH218557   3.034   2.625   4.467
 6184TIP3    H118558   3.088   2.704   4.477
 6184TIP3    H218559   3.084   2.570   4.407
 6185TIP3   OH218560   3.365   1.449   0.974
 6185TIP3    H118561   3.375   1.398   1.054
 6185TIP3    H218562   3.351   1.539   1.005
 6186TIP3   OH218563   3.558   0.406   1.363
 6186TIP3    H118564   3.530   0.482   1.414
 6186TIP3    H218565   3.517   0.418   1.277
 6187TIP3   OH218566  -0.018   1.880   0.751
 6187TIP3    H118567  -0.042   1.935   0.825
 6187TIP3    H218568   0.075   1.860   0.765
 6188TIP3   OH218569   3.317   0.602   4.134
 6188TIP3    H118570   3.348   0.608   4.224
 6188TIP3    H218571   3.246   0.537   4.138
 6189TIP3   OH218572   2.655   1.138   2.629
 6189TIP3    H118573   2.578   1.167   2.678
 6189TIP3    H218574   2.719   1.114   2.696
 6190TIP3   OH218575   3.829   1.070   3.372
 6190TIP3    H118576   3.924   1.082   3.373
 6190TIP3    H218577   3.817   0.975   3.372
 6191TIP3   OH218578   1.087   0.885   4.006
 6191TIP3    H118579   1.045   0.866   3.922
 6191TIP3    H218580   1.107   0.978   4.002
 6192TIP3   OH218581   4.450   0.507   5.213
 6192TIP3    H118582   4.463   0.510   5.118
 6192TIP3    H218583   4.401   0.427   5.228
 6193TIP3   OH218584   6.250   2.080   4.129
 6193TIP3    H118585   6.328   2.077   4.185
 6193TIP3    H218586   6.209   2.164   4.148
 6194TIP3   OH218587   2.064   2.523   0.373
 6194TIP3    H118588   2.155   2.497   0.360
 6194TIP3    H218589   2.039   2.565   0.291
 6195TIP3   OH218590   6.149   1.710   5.012
 6195TIP3    H118591   6.099   1.706   5.094
 6195TIP3    H218592   6.235   1.742   5.038
 6196TIP3   OH218593   5.797   5.871   2.204
 6196TIP3    H118594   5.731   5.806   2.179
 6196TIP3    H218595   5.851   5.882   2.126
 6197TIP3   OH218596   0.042   4.957   4.599
 6197TIP3    H118597  -0.014   4.907   4.539
 6197TIP3    H218598   0.022   4.922   4.686
 6198TIP3   OH218599   5.712   1.452   2.125
 6198TIP3    H118600   5.731   1.373   2.177
 6198TIP3    H218601   5.700   1.419   2.036
 6199TIP3   OH218602   4.605   3.396   3.877
 6199TIP3    H118603   4.602   3.355   3.963
 6199TIP3    H218604   4.536   3.462   3.879
 6200TIP3   OH218605   3.559   5.858   4.396
 6200TIP3    H118606   3.554   5.793   4.326
 6200TIP3    H218607   3.595   5.810   4.471
 6201TIP3   OH218608   1.886   5.842   5.008
 6201TIP3    H118609   1.925   5.912   5.061
 6201TIP3    H218610   1.896   5.764   5.062
 6202TIP3   OH218611   4.935   4.535   0.173
 6202TIP3    H118612   5.017   4.574   0.203
 6202TIP3    H218613   4.919   4.575   0.087
 6203TIP3   OH218614   0.644   2.204   0.583
 6203TIP3    H118615   0.549   2.202   0.595
 6203TIP3    H218616   0.662   2.136   0.519
 6204TIP3   OH218617   0.352   0.910   0.085
 6204TIP3    H118618   0.399   0.951   0.158
 6204TIP3    H218619   0.420   0.887   0.022
 6205TIP3   OH218620   1.906   5.190   4.315
 6205TIP3    H118621   1.932   5.262   4.257
 6205TIP3    H218622   1.983   5.134   4.321
 6206TIP3   OH218623   1.648   2.660   1.974
 6206TIP3    H118624   1.681   2.571   1.964
 6206TIP3    H218625   1.700   2.712   1.911
 6207TIP3   OH218626   4.233   4.325   2.584
 6207TIP3    H118627   4.145   4.294   2.563
 6207TIP3    H218628   4.260   4.271   2.658
 6208TIP3   OH218629   6.005   2.006   0.507
 6208TIP3    H118630   5.978   2.017   0.598
 6208TIP3    H218631   5.952   1.933   0.475
 6209TIP3   OH218632   3.172   1.883   1.325
 6209TIP3    H118633   3.141   1.955   1.380
 6209TIP3    H218634   3.105   1.815   1.336
 6210TIP3   OH218635   2.975   5.444   0.378
 6210TIP3    H118636   2.908   5.452   0.446
 6210TIP3    H218637   3.056   5.429   0.426
 6211TIP3   OH218638   2.376   0.738   1.498
 6211TIP3    H118639   2.377   0.833   1.500
 6211TIP3    H218640   2.289   0.714   1.532
 6212TIP3   OH218641   3.223   2.722   0.999
 6212TIP3    H118642   3.257   2.696   1.085
 6212TIP3    H218643   3.220   2.640   0.949
 6213TIP3   OH218644   3.197   3.141   1.287
 6213TIP3    H118645   3.107   3.108   1.292
 6213TIP3    H218646   3.242   3.079   1.230
 6214TIP3   OH218647   2.702   3.517   4.868
 6214TIP3    H118648   2.658   3.541   4.949
 6214TIP3    H218649   2.681   3.588   4.807
 6215TIP3   OH218650   4.038   1.116   2.638
 6215TIP3    H118651   4.014   1.051   2.572
 6215TIP3    H218652   3.959   1.168   2.651
 6216TIP3   OH218653   0.910   5.615   3.123
 6216TIP3    H118654   0.817   5.616   3.100
 6216TIP3    H218655   0.930   5.522   3.136
 6217TIP3   OH218656   1.666   3.064   2.010
 6217TIP3    H118657   1.749   3.016   2.017
 6217TIP3    H218658   1.676   3.116   1.930
 6218TIP3   OH218659   1.017   5.755   0.487
 6218TIP3    H118660   1.102   5.727   0.520
 6218TIP3    H218661   0.994   5.691   0.420
 6219TIP3   OH218662   4.437   2.502   3.316
 6219TIP3    H118663   4.485   2.533   3.239
 6219TIP3    H218664   4.368   2.567   3.329
 6220TIP3   OH218665   0.412   3.754   1.363
 6220TIP3    H118666   0.416   3.679   1.302
 6220TIP3    H218667   0.469   3.819   1.323
 6221TIP3   OH218668   0.634   3.230   2.716
 6221TIP3    H118669   0.628   3.279   2.634
 6221TIP3    H218670   0.564   3.165   2.711
 6222TIP3   OH218671   1.177   5.117   4.351
 6222TIP3    H118672   1.174   5.060   4.274
 6222TIP3    H218673   1.191   5.204   4.315
 6223TIP3   OH218674   2.739   1.960   5.167
 6223TIP3    H118675   2.752   1.992   5.256
 6223TIP3    H218676   2.822   1.918   5.144
 6224TIP3   OH218677   3.179   4.753   5.052
 6224TIP3    H118678   3.138   4.689   5.111
 6224TIP3    H218679   3.119   4.758   4.978
 6225TIP3   OH218680   6.013   0.314   0.346
 6225TIP3    H118681   6.000   0.344   0.436
 6225TIP3    H218682   6.096   0.265   0.349
 6226TIP3   OH218683   0.164   0.098   4.040
 6226TIP3    H118684   0.255   0.102   4.068
 6226TIP3    H218685   0.114   0.096   4.122
 6227TIP3   OH218686   3.111   5.610   4.201
 6227TIP3    H118687   3.177   5.631   4.266
 6227TIP3    H218688   3.154   5.548   4.142
 6228TIP3   OH218689   4.286   5.084   3.015
 6228TIP3    H118690   4.262   5.177   3.018
 6228TIP3    H218691   4.205   5.039   2.992
 6229TIP3   OH218692   4.145   2.256   1.126
 6229TIP3    H118693   4.227   2.248   1.174
 6229TIP3    H218694   4.096   2.323   1.174
 6230TIP3   OH218695   5.971   3.435   3.551
 6230TIP3    H118696   6.054   3.406   3.513
 6230TIP3    H218697   5.994   3.469   3.637
 6231TIP3   OH218698   0.388   2.414   0.824
 6231TIP3    H118699   0.335   2.412   0.904
 6231TIP3    H218700   0.406   2.322   0.805
 6232TIP3   OH218701   3.018   4.096   2.631
 6232TIP3    H118702   3.038   4.153   2.705
 6232TIP3    H218703   2.923   4.085   2.634
 6233TIP3   OH218704   0.016   0.869   2.166
 6233TIP3    H118705  -0.060   0.911   2.127
 6233TIP3    H218706   0.013   0.895   2.258
 6234TIP3   OH218707   0.887   3.670   3.263
 6234TIP3    H118708   0.791   3.673   3.266
 6234TIP3    H218709   0.915   3.701   3.349
 6235TIP3   OH218710   0.153   5.178   2.157
 6235TIP3    H118711   0.221   5.176   2.224
 6235TIP3    H218712   0.117   5.266   2.162
 6236TIP3   OH218713   1.667   4.280   0.139
 6236TIP3    H118714   1.695   4.266   0.049
 6236TIP3    H218715   1.702   4.204   0.186
 6237TIP3   OH218716   4.017   2.650   0.274
 6237TIP3    H118717   4.096   2.595   0.268
 6237TIP3    H218718   3.946   2.588   0.288
 6238TIP3   OH218719   0.630   5.200   0.007
 6238TIP3    H118720   0.606   5.179   0.097
 6238TIP3    H218721   0.650   5.115  -0.033
 6239TIP3   OH218722   2.568   3.970   2.766
 6239TIP3    H118723   2.506   3.929   2.706
 6239TIP3    H218724   2.514   4.013   2.832
 6240TIP3   OH218725   2.127   0.397   4.568
 6240TIP3    H118726   2.139   0.304   4.551
 6240TIP3    H218727   2.110   0.436   4.482
 6241TIP3   OH218728   5.019   0.117   4.183
 6241TIP3    H118729   5.045   0.100   4.274
 6241TIP3    H218730   5.064   0.049   4.132
 6242TIP3   OH218731   6.323   2.077   4.996
 6242TIP3    H118732   6.262   2.070   5.070
 6242TIP3    H218733   6.402   2.116   5.033
 6243TIP3   OH218734   2.836   0.344   1.834
 6243TIP3    H118735   2.899   0.409   1.804
 6243TIP3    H218736   2.825   0.362   1.927
 6244TIP3   OH218737   5.132   0.291   1.146
 6244TIP3    H118738   5.226   0.283   1.130
 6244TIP3    H218739   5.116   0.386   1.145
 6245TIP3   OH218740   3.314   5.661   0.222
 6245TIP3    H118741   3.371   5.674   0.146
 6245TIP3    H218742   3.356   5.709   0.292
 6246TIP3   OH218743   2.238   4.265   4.531
 6246TIP3    H118744   2.195   4.227   4.455
 6246TIP3    H218745   2.261   4.190   4.586
 6247TIP3   OH218746   3.803   3.192   0.616
 6247TIP3    H118747   3.875   3.168   0.557
 6247TIP3    H218748   3.749   3.113   0.620
 6248TIP3   OH218749   2.555   1.691   1.452
 6248TIP3    H118750   2.481   1.706   1.511
 6248TIP3    H218751   2.527   1.617   1.397
 6249TIP3   OH218752   2.456   1.954   2.794
 6249TIP3    H118753   2.437   1.966   2.887
 6249TIP3    H218754   2.531   2.010   2.777
 6250TIP3   OH218755   6.033   0.265   0.848
 6250TIP3    H118756   6.113   0.304   0.812
 6250TIP3    H218757   6.058   0.237   0.936
 6251TIP3   OH218758   0.106   0.379   2.742
 6251TIP3    H118759   0.046   0.386   2.816
 6251TIP3    H218760   0.185   0.339   2.778
 6252TIP3   OH218761   5.327   0.554   1.450
 6252TIP3    H118762   5.304   0.473   1.405
 6252TIP3    H218763   5.415   0.539   1.483
 6253TIP3   OH218764   2.128   5.825   0.380
 6253TIP3    H118765   2.074   5.837   0.302
 6253TIP3    H218766   2.087   5.882   0.446
 6254TIP3   OH218767   3.833   5.524   3.184
 6254TIP3    H118768   3.752   5.569   3.162
 6254TIP3    H218769   3.900   5.566   3.129
 6255TIP3   OH218770   0.635   5.916   3.756
 6255TIP3    H118771   0.541   5.908   3.768
 6255TIP3    H218772   0.648   5.908   3.662
 6256TIP3   OH218773   3.573   0.882   4.350
 6256TIP3    H118774   3.593   0.969   4.383
 6256TIP3    H218775   3.650   0.829   4.373
 6257TIP3   OH218776   5.190   0.455   3.399
 6257TIP3    H118777   5.220   0.440   3.309
 6257TIP3    H218778   5.168   0.367   3.431
 6258TIP3   OH218779   0.853   2.726   3.907
 6258TIP3    H118780   0.876   2.686   3.991
 6258TIP3    H218781   0.934   2.769   3.879
 6259TIP3   OH218782   3.191   3.962   4.693
 6259TIP3    H118783   3.260   3.942   4.756
 6259TIP3    H218784   3.177   3.880   4.646
 6260TIP3   OH218785   1.949   0.533   1.853
 6260TIP3    H118786   2.019   0.467   1.859
 6260TIP3    H218787   1.964   0.591   1.927
 6261TIP3   OH218788   4.341   3.962   3.331
 6261TIP3    H118789   4.395   3.888   3.358
 6261TIP3    H218790   4.297   3.991   3.411
 6262TIP3   OH218791   1.478   2.382   1.164
 6262TIP3    H118792   1.508   2.436   1.238
 6262TIP3    H218793   1.544   2.314   1.157
 6263TIP3   OH218794   1.760   2.284   4.879
 6263TIP3    H118795   1.772   2.375   4.906
 6263TIP3    H218796   1.678   2.284   4.831
 6264TIP3   OH218797   3.968   4.048   4.778
 6264TIP3    H118798   4.064   4.039   4.778
 6264TIP3    H218799   3.950   4.110   4.707
 6265TIP3   OH218800   2.673   2.604   1.785
 6265TIP3    H118801   2.705   2.596   1.875
 6265TIP3    H218802   2.610   2.533   1.776
 6266TIP3   OH218803   2.813   3.051   0.991
 6266TIP3    H118804   2.862   3.094   0.921
 6266TIP3    H218805   2.769   3.122   1.037
 6267TIP3   OH218806   0.114   3.719   0.526
 6267TIP3    H118807   0.203   3.692   0.504
 6267TIP3    H218808   0.078   3.644   0.573
 6268TIP3   OH218809   4.977   5.878   4.178
 6268TIP3    H118810   5.020   5.874   4.264
 6268TIP3    H218811   4.912   5.808   4.180
 6269TIP3   OH218812   2.667   3.127   0.000
 6269TIP3    H118813   2.696   3.176   0.077
 6269TIP3    H218814   2.717   3.165  -0.073
 6270TIP3   OH218815   4.348   1.355   5.082
 6270TIP3    H118816   4.329   1.444   5.112
 6270TIP3    H218817   4.334   1.357   4.988
 6271TIP3   OH218818   3.307   5.605   3.004
 6271TIP3    H118819   3.380   5.621   2.944
 6271TIP3    H218820   3.246   5.553   2.952
 6272TIP3   OH218821   4.329   2.244   1.331
 6272TIP3    H118822   4.340   2.149   1.334
 6272TIP3    H218823   4.349   2.275   1.419
 6273TIP3   OH218824   1.740   4.017   0.208
 6273TIP3    H118825   1.822   3.979   0.238
 6273TIP3    H218826   1.718   3.967   0.129
 6274TIP3   OH218827   0.480   2.696   3.091
 6274TIP3    H118828   0.456   2.606   3.114
 6274TIP3    H218829   0.407   2.749   3.124
 6275TIP3   OH218830   0.426   0.242   1.238
 6275TIP3    H118831   0.494   0.305   1.264
 6275TIP3    H218832   0.473   0.177   1.187
 6276TIP3   OH218833   4.654   4.084   5.085
 6276TIP3    H118834   4.647   4.180   5.082
 6276TIP3    H218835   4.740   4.067   5.121
 6277TIP3   OH218836   5.823   5.180   4.128
 6277TIP3    H118837   5.762   5.107   4.114
 6277TIP3    H218838   5.875   5.155   4.203
 6278TIP3   OH218839   4.472   5.179   1.963
 6278TIP3    H118840   4.541   5.116   1.943
 6278TIP3    H218841   4.437   5.205   1.878
 6279TIP3   OH218842   5.721   5.191   0.261
 6279TIP3    H118843   5.817   5.193   0.266
 6279TIP3    H218844   5.691   5.220   0.347
 6280TIP3   OH218845   6.308   0.246   2.537
 6280TIP3    H118846   6.233   0.276   2.589
 6280TIP3    H218847   6.385   0.272   2.589
 6281TIP3   OH218848   5.996   5.852   0.700
 6281TIP3    H118849   6.076   5.832   0.653
 6281TIP3    H218850   6.004   5.945   0.722
 6282TIP3   OH218851   6.111   5.881   1.749
 6282TIP3    H118852   6.104   5.885   1.654
 6282TIP3    H218853   6.159   5.960   1.773
 6283TIP3   OH218854   5.080   0.404   0.458
 6283TIP3    H118855   5.083   0.383   0.551
 6283TIP3    H218856   5.113   0.325   0.414
 6284TIP3   OH218857   5.260   5.993   0.070
 6284TIP3    H118858   5.242   6.018  -0.021
 6284TIP3    H218859   5.258   5.897   0.069
 6285TIP3   OH218860   3.754   3.815   0.111
 6285TIP3    H118861   3.758   3.752   0.038
 6285TIP3    H218862   3.661   3.816   0.136
 6286TIP3   OH218863   4.936   2.728   1.429
 6286TIP3    H118864   4.979   2.729   1.515
 6286TIP3    H218865   4.950   2.639   1.396
 6287TIP3   OH218866   0.478   5.357   0.851
 6287TIP3    H118867   0.405   5.406   0.890
 6287TIP3    H218868   0.488   5.281   0.908
 6288TIP3   OH218869   4.992   1.741   2.937
 6288TIP3    H118870   5.062   1.806   2.927
 6288TIP3    H218871   4.912   1.788   2.915
 6289TIP3   OH218872   4.986   1.903   3.225
 6289TIP3    H118873   4.916   1.949   3.180
 6289TIP3    H218874   5.045   1.972   3.256
 6290TIP3   OH218875   1.618   3.839   0.475
 6290TIP3    H118876   1.619   3.747   0.502
 6290TIP3    H218877   1.644   3.837   0.383
 6291TIP3   OH218878   5.349   2.454   1.697
 6291TIP3    H118879   5.296   2.409   1.763
 6291TIP3    H218880   5.400   2.384   1.656
 6292TIP3   OH218881   0.748   4.783   0.360
 6292TIP3    H118882   0.758   4.877   0.348
 6292TIP3    H218883   0.818   4.744   0.308
 6293TIP3   OH218884   3.753   4.396   2.693
 6293TIP3    H118885   3.742   4.453   2.617
 6293TIP3    H218886   3.844   4.407   2.718
 6294TIP3   OH218887   2.434   5.819   2.678
 6294TIP3    H118888   2.371   5.782   2.740
 6294TIP3    H218889   2.491   5.875   2.731
 6295TIP3   OH218890   6.078   2.674   0.507
 6295TIP3    H118891   6.114   2.758   0.479
 6295TIP3    H218892   6.143   2.638   0.567
 6296TIP3   OH218893   4.823   2.375   3.695
 6296TIP3    H118894   4.813   2.288   3.658
 6296TIP3    H218895   4.746   2.423   3.666
 6297TIP3   OH218896   5.141   3.646   0.458
 6297TIP3    H118897   5.075   3.679   0.397
 6297TIP3    H218898   5.207   3.715   0.462
 6298TIP3   OH218899   2.408   1.634   2.688
 6298TIP3    H118900   2.347   1.561   2.695
 6298TIP3    H218901   2.359   1.710   2.718
 6299TIP3   OH218902   3.156   1.198   1.259
 6299TIP3    H118903   3.076   1.147   1.246
 6299TIP3    H218904   3.171   1.196   1.353
 6300TIP3   OH218905   1.732   0.504   4.983
 6300TIP3    H118906   1.764   0.473   4.898
 6300TIP3    H218907   1.664   0.442   5.007
 6301TIP3   OH218908   2.488   0.935   2.726
 6301TIP3    H118909   2.447   1.006   2.676
 6301TIP3    H218910   2.459   0.950   2.816
 6302TIP3   OH218911   3.968   3.574   0.722
 6302TIP3    H118912   3.925   3.657   0.739
 6302TIP3    H218913   4.061   3.590   0.740
 6303TIP3   OH218914   2.216   2.025   4.160
 6303TIP3    H118915   2.310   2.040   4.153
 6303TIP3    H218916   2.196   2.039   4.253
 6304TIP3   OH218917   3.486   2.908   0.270
 6304TIP3    H118918   3.444   2.924   0.185
 6304TIP3    H218919   3.414   2.877   0.326
 6305TIP3   OH218920   1.549   0.176   2.213
 6305TIP3    H118921   1.558   0.081   2.207
 6305TIP3    H218922   1.571   0.196   2.304
 6306TIP3   OH218923   4.560   4.871   0.626
 6306TIP3    H118924   4.465   4.874   0.639
 6306TIP3    H218925   4.590   4.958   0.652
 6307TIP3   OH218926   1.305   4.038   1.552
 6307TIP3    H118927   1.272   4.025   1.463
 6307TIP3    H218928   1.399   4.023   1.545
 6308TIP3   OH218929   0.230   1.533   4.691
 6308TIP3    H118930   0.261   1.624   4.691
 6308TIP3    H218931   0.174   1.527   4.614
 6309TIP3   OH218932   6.282   0.117   2.095
 6309TIP3    H118933   6.220   0.146   2.163
 6309TIP3    H218934   6.332   0.195   2.073
 6310TIP3   OH218935   2.961   3.239   0.445
 6310TIP3    H118936   2.935   3.154   0.411
 6310TIP3    H218937   2.910   3.250   0.524
 6311TIP3   OH218938   2.205   0.237   0.556
 6311TIP3    H118939   2.269   0.280   0.613
 6311TIP3    H218940   2.159   0.176   0.613
 6312TIP3   OH218941   4.085   4.941   2.620
 6312TIP3    H118942   4.165   4.993   2.617
 6312TIP3    H218943   4.113   4.852   2.596
 6313TIP3   OH218944   3.866   5.616   4.315
 6313TIP3    H118945   3.879   5.635   4.408
 6313TIP3    H218946   3.776   5.643   4.297
 6314TIP3   OH218947   5.207   0.869   0.527
 6314TIP3    H118948   5.164   0.800   0.476
 6314TIP3    H218949   5.238   0.931   0.462
 6315TIP3   OH218950   2.722   3.668   3.327
 6315TIP3    H118951   2.681   3.620   3.399
 6315TIP3    H218952   2.650   3.689   3.268
 6316TIP3   OH218953   6.208   2.882   0.385
 6316TIP3    H118954   6.158   2.942   0.329
 6316TIP3    H218955   6.299   2.900   0.364
 6317TIP3   OH218956   4.734   5.888   3.897
 6317TIP3    H118957   4.769   5.951   3.833
 6317TIP3    H218958   4.792   5.812   3.890
 6318TIP3   OH218959   0.445   4.792   3.609
 6318TIP3    H118960   0.511   4.734   3.646
 6318TIP3    H218961   0.362   4.753   3.633
 6319TIP3   OH218962   2.374   5.998   3.990
 6319TIP3    H118963   2.374   5.903   3.984
 6319TIP3    H218964   2.467   6.022   3.988
 6320TIP3   OH218965   0.847   3.377   1.608
 6320TIP3    H118966   0.778   3.351   1.669
 6320TIP3    H218967   0.899   3.442   1.656
 6321TIP3   OH218968   5.261   1.366   3.856
 6321TIP3    H118969   5.293   1.416   3.781
 6321TIP3    H218970   5.165   1.371   3.849
 6322TIP3   OH218971   4.592   5.830   2.608
 6322TIP3    H118972   4.636   5.767   2.666
 6322TIP3    H218973   4.623   5.915   2.637
 6323TIP3   OH218974   1.750   4.479   2.704
 6323TIP3    H118975   1.805   4.401   2.701
 6323TIP3    H218976   1.666   4.451   2.669
 6324TIP3   OH218977   0.258   2.157   4.524
 6324TIP3    H118978   0.329   2.093   4.525
 6324TIP3    H218979   0.215   2.148   4.609
 6325TIP3   OH218980   5.167   0.032   4.409
 6325TIP3    H118981   5.235   0.035   4.342
 6325TIP3    H218982   5.182  -0.050   4.456
 6326TIP3   OH218983   5.577   1.435   3.769
 6326TIP3    H118984   5.510   1.496   3.739
 6326TIP3    H218985   5.657   1.487   3.776
 6327TIP3   OH218986   1.105   1.108   3.222
 6327TIP3    H118987   1.156   1.036   3.186
 6327TIP3    H218988   1.167   1.181   3.228
 6328TIP3   OH218989   4.931   2.514   1.720
 6328TIP3    H118990   4.943   2.427   1.758
 6328TIP3    H218991   5.007   2.564   1.749
 6329TIP3   OH218992   5.702   0.173   2.025
 6329TIP3    H118993   5.778   0.154   2.080
 6329TIP3    H218994   5.648   0.095   2.030
 6330TIP3   OH218995   1.810   1.477   1.522
 6330TIP3    H118996   1.750   1.404   1.540
 6330TIP3    H218997   1.897   1.442   1.539
 6331TIP3   OH218998   2.286   4.355   0.304
 6331TIP3    H118999   2.262   4.447   0.299
 6331TIP3    H219000   2.381   4.354   0.311
 6332TIP3   OH219001   1.052   0.306   0.284
 6332TIP3    H119002   1.001   0.325   0.205
 6332TIP3    H219003   0.986   0.283   0.350
 6333TIP3   OH219004   1.164   4.698   0.843
 6333TIP3    H119005   1.199   4.677   0.930
 6333TIP3    H219006   1.084   4.645   0.836
 6334TIP3   OH219007   1.255   1.793   2.525
 6334TIP3    H119008   1.170   1.785   2.569
 6334TIP3    H219009   1.314   1.821   2.594
 6335TIP3   OH219010   0.463   2.870   1.787
 6335TIP3    H119011   0.471   2.962   1.764
 6335TIP3    H219012   0.546   2.831   1.761
 6336TIP3   OH219013   0.409   3.528   5.102
 6336TIP3    H119014   0.343   3.520   5.171
 6336TIP3    H219015   0.462   3.449   5.111
 6337TIP3   OH219016   0.946   1.916   2.018
 6337TIP3    H119017   0.882   1.876   1.959
 6337TIP3    H219018   0.950   2.007   1.990
 6338TIP3   OH219019   3.248   5.789   1.094
 6338TIP3    H119020   3.220   5.849   1.163
 6338TIP3    H219021   3.223   5.833   1.012
 6339TIP3   OH219022   0.182   2.546   5.025
 6339TIP3    H119023   0.232   2.627   5.014
 6339TIP3    H219024   0.225   2.501   5.098
 6340TIP3   OH219025   5.235   4.888   2.254
 6340TIP3    H119026   5.156   4.872   2.203
 6340TIP3    H219027   5.205   4.897   2.344
 6341TIP3   OH219028   1.235   1.625   4.526
 6341TIP3    H119029   1.142   1.649   4.526
 6341TIP3    H219030   1.274   1.681   4.593
 6342TIP3   OH219031   1.725   2.422   3.181
 6342TIP3    H119032   1.733   2.483   3.255
 6342TIP3    H219033   1.714   2.479   3.105
 6343TIP3   OH219034   4.789   2.019   4.419
 6343TIP3    H119035   4.704   2.000   4.381
 6343TIP3    H219036   4.811   1.941   4.470
 6344TIP3   OH219037   1.857   4.277   4.074
 6344TIP3    H119038   1.829   4.363   4.043
 6344TIP3    H219039   1.902   4.237   4.000
 6345TIP3   OH219040   5.226   5.476   1.911
 6345TIP3    H119041   5.218   5.389   1.872
 6345TIP3    H219042   5.305   5.513   1.872
 6346TIP3   OH219043   5.174   5.260   1.349
 6346TIP3    H119044   5.260   5.291   1.321
 6346TIP3    H219045   5.116   5.284   1.276
 6347TIP3   OH219046   1.840   2.350   1.044
 6347TIP3    H119047   1.868   2.432   1.004
 6347TIP3    H219048   1.873   2.282   0.985
 6348TIP3   OH219049   0.540   5.901   2.130
 6348TIP3    H119050   0.446   5.907   2.114
 6348TIP3    H219051   0.578   5.967   2.071
 6349TIP3   OH219052   0.078   3.562   4.265
 6349TIP3    H119053   0.050   3.471   4.264
 6349TIP3    H219054   0.117   3.575   4.352
 6350TIP3   OH219055   1.102   0.815   3.133
 6350TIP3    H119056   1.048   0.752   3.086
 6350TIP3    H219057   1.160   0.852   3.067
 6351TIP3   OH219058   4.185   5.286   5.044
 6351TIP3    H119059   4.243   5.228   5.094
 6351TIP3    H219060   4.174   5.243   4.960
 6352TIP3   OH219061   0.529   1.023   0.303
 6352TIP3    H119062   0.578   1.037   0.384
 6352TIP3    H219063   0.482   1.105   0.289
 6353TIP3   OH219064   1.005   3.596   2.635
 6353TIP3    H119065   0.931   3.596   2.696
 6353TIP3    H219066   1.025   3.689   2.621
 6354TIP3   OH219067   1.617   5.729   4.388
 6354TIP3    H119068   1.530   5.765   4.405
 6354TIP3    H219069   1.609   5.636   4.408
 6355TIP3   OH219070   4.214   3.506   1.284
 6355TIP3    H119071   4.218   3.572   1.353
 6355TIP3    H219072   4.245   3.552   1.205
 6356TIP3   OH219073   0.702   0.245   0.702
 6356TIP3    H119074   0.614   0.274   0.726
 6356TIP3    H219075   0.736   0.202   0.780
 6357TIP3   OH219076   5.600   5.198   5.143
 6357TIP3    H119077   5.613   5.118   5.193
 6357TIP3    H219078   5.558   5.258   5.204
 6358TIP3   OH219079   0.871   2.218   3.454
 6358TIP3    H119080   0.819   2.172   3.388
 6358TIP3    H219081   0.881   2.155   3.525
 6359TIP3   OH219082   0.830   2.028   5.019
 6359TIP3    H119083   0.881   2.033   4.937
 6359TIP3    H219084   0.894   2.001   5.085
 6360TIP3   OH219085   6.114   5.430   3.007
 6360TIP3    H119086   6.081   5.343   3.028
 6360TIP3    H219087   6.067   5.455   2.927
 6361TIP3   OH219088   4.134   5.788   1.696
 6361TIP3    H119089   4.088   5.856   1.647
 6361TIP3    H219090   4.117   5.708   1.647
 6362TIP3   OH219091   0.740   3.991   5.071
 6362TIP3    H119092   0.818   3.973   5.019
 6362TIP3    H219093   0.669   3.949   5.022
 6363TIP3   OH219094   4.806   4.466   3.009
 6363TIP3    H119095   4.722   4.509   2.991
 6363TIP3    H219096   4.855   4.474   2.927
 6364TIP3   OH219097   4.812   0.475   1.028
 6364TIP3    H119098   4.829   0.436   0.942
 6364TIP3    H219099   4.887   0.450   1.081
 6365TIP3   OH219100   3.710   4.089   2.304
 6365TIP3    H119101   3.706   4.016   2.365
 6365TIP3    H219102   3.804   4.109   2.296
 6366TIP3   OH219103   6.205   0.946   4.653
 6366TIP3    H119104   6.181   0.854   4.643
 6366TIP3    H219105   6.123   0.989   4.675
 6367TIP3   OH219106   4.941   1.915   1.890
 6367TIP3    H119107   4.960   1.824   1.914
 6367TIP3    H219108   4.872   1.942   1.952
 6368TIP3   OH219109   4.989   3.494   4.010
 6368TIP3    H119110   4.895   3.511   4.018
 6368TIP3    H219111   4.994   3.412   3.960
 6369TIP3   OH219112   2.108   3.652   0.507
 6369TIP3    H119113   2.176   3.585   0.495
 6369TIP3    H219114   2.155   3.728   0.539
 6370TIP3   OH219115   4.027   5.497   1.681
 6370TIP3    H119116   4.042   5.410   1.716
 6370TIP3    H219117   3.982   5.482   1.598
 6371TIP3   OH219118   3.742   2.433   0.800
 6371TIP3    H119119   3.821   2.399   0.842
 6371TIP3    H219120   3.767   2.450   0.710
 6372TIP3   OH219121   6.150   2.006   2.384
 6372TIP3    H119122   6.239   1.995   2.351
 6372TIP3    H219123   6.101   1.932   2.349
 6373TIP3   OH219124   3.478   1.479   0.240
 6373TIP3    H119125   3.391   1.458   0.205
 6373TIP3    H219126   3.489   1.419   0.315
 6374TIP3   OH219127   4.008   5.523   0.662
 6374TIP3    H119128   3.983   5.578   0.588
 6374TIP3    H219129   3.962   5.561   0.736
 6375TIP3   OH219130   2.657   5.972   0.978
 6375TIP3    H119131   2.702   5.890   0.957
 6375TIP3    H219132   2.666   5.980   1.073
 6376TIP3   OH219133   1.611   3.382   0.743
 6376TIP3    H119134   1.688   3.387   0.799
 6376TIP3    H219135   1.597   3.288   0.730
 6377TIP3   OH219136   4.480   1.600   0.641
 6377TIP3    H119137   4.567   1.638   0.629
 6377TIP3    H219138   4.490   1.542   0.717
 6378TIP3   OH219139   2.794   5.443   4.899
 6378TIP3    H119140   2.710   5.398   4.910
 6378TIP3    H219141   2.857   5.387   4.943
 6379TIP3   OH219142   0.143   1.061   0.349
 6379TIP3    H119143   0.184   1.078   0.434
 6379TIP3    H219144   0.201   1.104   0.285
 6380TIP3   OH219145   2.532   0.188   3.977
 6380TIP3    H119146   2.473   0.175   4.051
 6380TIP3    H219147   2.485   0.153   3.902
 6381TIP3   OH219148   0.512   3.763   3.788
 6381TIP3    H119149   0.457   3.699   3.744
 6381TIP3    H219150   0.455   3.799   3.857
 6382TIP3   OH219151   5.640   5.713   3.922
 6382TIP3    H119152   5.573   5.782   3.924
 6382TIP3    H219153   5.680   5.716   4.008
 6383TIP3   OH219154   0.808   3.863   1.134
 6383TIP3    H119155   0.792   3.844   1.042
 6383TIP3    H219156   0.900   3.889   1.138
 6384TIP3   OH219157   5.753   0.063   2.614
 6384TIP3    H119158   5.747   0.040   2.707
 6384TIP3    H219159   5.723   0.154   2.609
 6385TIP3   OH219160   3.790   1.465   3.331
 6385TIP3    H119161   3.850   1.413   3.276
 6385TIP3    H219162   3.816   1.555   3.315
 6386TIP3   OH219163   4.603   5.471   3.465
 6386TIP3    H119164   4.569   5.394   3.511
 6386TIP3    H219165   4.542   5.483   3.391
 6387TIP3   OH219166   3.918   3.028   2.405
 6387TIP3    H119167   3.996   2.975   2.418
 6387TIP3    H219168   3.921   3.053   2.313
 6388TIP3   OH219169   4.216   3.504   3.131
 6388TIP3    H119170   4.247   3.421   3.169
 6388TIP3    H219171   4.284   3.529   3.069
 6389TIP3   OH219172   3.810   4.838   0.986
 6389TIP3    H119173   3.793   4.807   1.075
 6389TIP3    H219174   3.726   4.871   0.955
 6390TIP3   OH219175   3.066   3.127   2.522
 6390TIP3    H119176   3.096   3.213   2.552
 6390TIP3    H219177   2.979   3.144   2.486
 6391TIP3   OH219178   3.114   2.261   0.839
 6391TIP3    H119179   3.036   2.274   0.893
 6391TIP3    H219180   3.082   2.214   0.762
 6392TIP3   OH219181   2.730   1.930   1.029
 6392TIP3    H119182   2.817   1.967   1.043
 6392TIP3    H219183   2.704   1.963   0.943
 6393TIP3   OH219184   5.459   1.058   1.680
 6393TIP3    H119185   5.469   1.006   1.759
 6393TIP3    H219186   5.366   1.054   1.659
 6394TIP3   OH219187   3.499   2.709   2.804
 6394TIP3    H119188   3.407   2.736   2.808
 6394TIP3    H219189   3.509   2.647   2.876
 6395TIP3   OH219190   3.590   0.368   2.885
 6395TIP3    H119191   3.508   0.387   2.839
 6395TIP3    H219192   3.617   0.452   2.922
 6396TIP3   OH219193   4.258   0.585   3.559
 6396TIP3    H119194   4.222   0.663   3.516
 6396TIP3    H219195   4.233   0.513   3.501
 6397TIP3   OH219196   4.066   2.603   4.695
 6397TIP3    H119197   3.977   2.613   4.729
 6397TIP3    H219198   4.081   2.509   4.692
 6398TIP3   OH219199   3.676   5.425   4.835
 6398TIP3    H119200   3.634   5.373   4.767
 6398TIP3    H219201   3.756   5.458   4.794
 6399TIP3   OH219202   3.394   0.301   1.597
 6399TIP3    H119203   3.415   0.288   1.504
 6399TIP3    H219204   3.362   0.216   1.626
 6400TIP3   OH219205   2.865   0.070   1.884
 6400TIP3    H119206   2.892   0.038   1.798
 6400TIP3    H219207   2.870   0.165   1.877
 6401TIP3   OH219208   3.324   3.175   0.231
 6401TIP3    H119209   3.278   3.123   0.297
 6401TIP3    H219210   3.318   3.265   0.264
 6402TIP3   OH219211   2.694   5.296   3.472
 6402TIP3    H119212   2.649   5.333   3.547
 6402TIP3    H219213   2.636   5.314   3.398
 6403TIP3   OH219214   0.524   4.030   3.479
 6403TIP3    H119215   0.547   4.101   3.420
 6403TIP3    H219216   0.558   4.057   3.565
 6404TIP3   OH219217   3.191   4.304   1.342
 6404TIP3    H119218   3.117   4.248   1.319
 6404TIP3    H219219   3.205   4.288   1.436
 6405TIP3   OH219220   3.372   2.839   2.599
 6405TIP3    H119221   3.439   2.792   2.649
 6405TIP3    H219222   3.390   2.817   2.508
 6406TIP3   OH219223   0.463   3.041   2.312
 6406TIP3    H119224   0.465   3.121   2.261
 6406TIP3    H219225   0.420   3.066   2.394
 6407TIP3   OH219226   4.563   3.697   4.754
 6407TIP3    H119227   4.554   3.692   4.659
 6407TIP3    H219228   4.540   3.610   4.785
 6408TIP3   OH219229   1.016   0.528   5.113
 6408TIP3    H119230   1.040   0.620   5.124
 6408TIP3    H219231   0.983   0.502   5.199
 6409TIP3   OH219232   5.790   5.390   3.975
 6409TIP3    H119233   5.793   5.446   4.053
 6409TIP3    H219234   5.811   5.302   4.008
 6410TIP3   OH219235   4.869   5.029   1.520
 6410TIP3    H119236   4.780   5.064   1.529
 6410TIP3    H219237   4.927   5.101   1.542
 6411TIP3   OH219238   2.101   0.757   3.353
 6411TIP3    H119239   2.119   0.824   3.419
 6411TIP3    H219240   2.044   0.694   3.398
 6412TIP3   OH219241   3.999   1.700   4.345
 6412TIP3    H119242   3.939   1.772   4.329
 6412TIP3    H219243   4.010   1.658   4.259
 6413TIP3   OH219244   4.780   1.582   0.292
 6413TIP3    H119245   4.761   1.511   0.354
 6413TIP3    H219246   4.706   1.580   0.231
 6414TIP3   OH219247   0.703   1.905   1.120
 6414TIP3    H119248   0.645   1.975   1.089
 6414TIP3    H219249   0.790   1.945   1.121
 6415TIP3   OH219250   1.794   3.021   4.540
 6415TIP3    H119251   1.736   2.963   4.491
 6415TIP3    H219252   1.871   2.967   4.559
 6416TIP3   OH219253   2.976   2.732   1.156
 6416TIP3    H119254   3.037   2.763   1.089
 6416TIP3    H219255   2.924   2.664   1.111
 6417TIP3   OH219256   0.022   5.430   3.037
 6417TIP3    H119257  -0.060   5.477   3.023
 6417TIP3    H219258   0.001   5.365   3.105
 6418TIP3   OH219259   5.103   4.250   2.040
 6418TIP3    H119260   5.167   4.233   1.971
 6418TIP3    H219261   5.128   4.335   2.076
 6419TIP3   OH219262   1.308   5.207   0.769
 6419TIP3    H119263   1.282   5.134   0.825
 6419TIP3    H219264   1.387   5.242   0.811
 6420TIP3   OH219265   1.295   5.878   1.974
 6420TIP3    H119266   1.249   5.950   2.015
 6420TIP3    H219267   1.241   5.854   1.899
 6421TIP3   OH219268   0.653   3.548   3.581
 6421TIP3    H119269   0.670   3.505   3.498
 6421TIP3    H219270   0.615   3.632   3.558
 6422TIP3   OH219271   2.458   2.611   3.685
 6422TIP3    H119272   2.412   2.695   3.678
 6422TIP3    H219273   2.484   2.590   3.596
 6423TIP3   OH219274   4.561   1.279   2.110
 6423TIP3    H119275   4.613   1.343   2.062
 6423TIP3    H219276   4.528   1.220   2.043
 6424TIP3   OH219277   5.784   1.451   3.005
 6424TIP3    H119278   5.856   1.482   3.061
 6424TIP3    H219279   5.798   1.356   2.999
 6425TIP3   OH219280   4.369   2.661   4.973
 6425TIP3    H119281   4.299   2.658   5.037
 6425TIP3    H219282   4.340   2.724   4.907
 6426TIP3   OH219283   0.543   5.078   0.927
 6426TIP3    H119284   0.554   5.015   0.856
 6426TIP3    H219285   0.620   5.066   0.982
 6427TIP3   OH219286   5.938   5.842   4.980
 6427TIP3    H119287   5.911   5.820   5.069
 6427TIP3    H219288   5.883   5.917   4.956
 6428TIP3   OH219289   0.652   5.130   4.643
 6428TIP3    H119290   0.677   5.214   4.607
 6428TIP3    H219291   0.593   5.092   4.577
 6429TIP3   OH219292   3.545   1.415   1.840
 6429TIP3    H119293   3.576   1.455   1.922
 6429TIP3    H219294   3.460   1.455   1.825
 6430TIP3   OH219295   1.266   3.019   1.261
 6430TIP3    H119296   1.239   3.110   1.271
 6430TIP3    H219297   1.189   2.974   1.226
 6431TIP3   OH219298   4.803   2.896   3.495
 6431TIP3    H119299   4.832   2.904   3.585
 6431TIP3    H219300   4.883   2.873   3.446
 6432TIP3   OH219301   3.883   4.307   0.265
 6432TIP3    H119302   3.940   4.311   0.341
 6432TIP3    H219303   3.838   4.223   0.273
 6433TIP3   OH219304   4.096   1.121   3.404
 6433TIP3    H119305   4.140   1.139   3.487
 6433TIP3    H219306   4.163   1.081   3.350
 6434TIP3   OH219307   4.141   4.671   2.551
 6434TIP3    H119308   4.190   4.603   2.505
 6434TIP3    H219309   4.178   4.671   2.639
 6435TIP3   OH219310   2.008   5.188   0.903
 6435TIP3    H119311   2.077   5.248   0.930
 6435TIP3    H219312   1.995   5.132   0.979
 6436TIP3   OH219313   5.723   4.986   3.830
 6436TIP3    H119314   5.692   5.031   3.752
 6436TIP3    H219315   5.652   4.997   3.894
 6437TIP3   OH219316   5.459   5.483   2.951
 6437TIP3    H119317   5.476   5.419   2.881
 6437TIP3    H219318   5.413   5.554   2.907
 6438TIP3   OH219319   1.770   0.305   1.020
 6438TIP3    H119320   1.822   0.386   1.027
 6438TIP3    H219321   1.772   0.284   0.927
 6439TIP3   OH219322   4.606   4.310   2.317
 6439TIP3    H119323   4.639   4.342   2.233
 6439TIP3    H219324   4.520   4.272   2.296
 6440TIP3   OH219325   4.272   0.833   1.734
 6440TIP3    H119326   4.181   0.857   1.754
 6440TIP3    H219327   4.322   0.868   1.807
 6441TIP3   OH219328   2.649   0.587   0.401
 6441TIP3    H119329   2.741   0.597   0.426
 6441TIP3    H219330   2.632   0.493   0.408
 6442TIP3   OH219331   1.470   5.620   1.217
 6442TIP3    H119332   1.423   5.668   1.150
 6442TIP3    H219333   1.407   5.611   1.289
 6443TIP3   OH219334   3.028   3.510   1.640
 6443TIP3    H119335   3.044   3.417   1.627
 6443TIP3    H219336   2.940   3.524   1.603
 6444TIP3   OH219337   2.759   3.856   2.530
 6444TIP3    H119338   2.673   3.893   2.512
 6444TIP3    H219339   2.791   3.827   2.444
 6445TIP3   OH219340   3.863   5.225   3.857
 6445TIP3    H119341   3.947   5.189   3.829
 6445TIP3    H219342   3.859   5.208   3.951
 6446TIP3   OH219343   2.054   4.489   1.543
 6446TIP3    H119344   2.023   4.566   1.590
 6446TIP3    H219345   2.146   4.507   1.525
 6447TIP3   OH219346   2.136   0.469   2.380
 6447TIP3    H119347   2.054   0.481   2.333
 6447TIP3    H219348   2.113   0.485   2.472
 6448TIP3   OH219349   2.233   5.857   1.158
 6448TIP3    H119350   2.283   5.932   1.126
 6448TIP3    H219351   2.151   5.860   1.108
 6449TIP3   OH219352   0.966   2.583   1.240
 6449TIP3    H119353   1.058   2.564   1.260
 6449TIP3    H219354   0.944   2.522   1.170
 6450TIP3   OH219355   3.315   1.025   2.158
 6450TIP3    H119356   3.287   1.111   2.190
 6450TIP3    H219357   3.392   1.003   2.211
 6451TIP3   OH219358   3.351   4.484   2.632
 6451TIP3    H119359   3.431   4.460   2.585
 6451TIP3    H219360   3.381   4.541   2.703
 6452TIP3   OH219361   3.014   4.208   3.354
 6452TIP3    H119362   3.093   4.214   3.300
 6452TIP3    H219363   2.978   4.297   3.353
 6453TIP3   OH219364   6.076   4.975   4.719
 6453TIP3    H119365   6.001   5.006   4.769
 6453TIP3    H219366   6.096   4.889   4.755
 6454TIP3   OH219367   5.915   1.613   3.248
 6454TIP3    H119368   5.859   1.685   3.277
 6454TIP3    H219369   5.951   1.577   3.329
 6455TIP3   OH219370   0.940   4.216   2.037
 6455TIP3    H119371   0.885   4.293   2.027
 6455TIP3    H219372   0.926   4.188   2.128
 6456TIP3   OH219373   4.428   3.014   4.900
 6456TIP3    H119374   4.498   3.079   4.892
 6456TIP3    H219375   4.453   2.945   4.838
 6457TIP3   OH219376   0.114   1.854   2.955
 6457TIP3    H119377   0.122   1.897   3.041
 6457TIP3    H219378   0.056   1.911   2.905
 6458TIP3   OH219379   3.020   1.013   2.394
 6458TIP3    H119380   2.996   1.099   2.430
 6458TIP3    H219381   3.033   1.028   2.301
 6459TIP3   OH219382   1.880   1.530   4.472
 6459TIP3    H119383   1.792   1.499   4.496
 6459TIP3    H219384   1.936   1.453   4.483
 6460TIP3   OH219385   2.662   5.249   2.195
 6460TIP3    H119386   2.742   5.200   2.180
 6460TIP3    H219387   2.684   5.313   2.262
 6461TIP3   OH219388   2.752   3.610   3.650
 6461TIP3    H119389   2.694   3.683   3.626
 6461TIP3    H219390   2.836   3.633   3.611
 6462TIP3   OH219391   0.979   0.400   2.509
 6462TIP3    H119392   0.905   0.346   2.482
 6462TIP3    H219393   0.954   0.489   2.484
 6463TIP3   OH219394   4.951   4.619   2.732
 6463TIP3    H119395   4.865   4.657   2.711
 6463TIP3    H219396   5.003   4.692   2.762
 6464TIP3   OH219397   2.645   0.394   4.699
 6464TIP3    H119398   2.572   0.331   4.697
 6464TIP3    H219399   2.610   0.472   4.655
 6465TIP3   OH219400   3.122   0.968   2.935
 6465TIP3    H119401   3.094   1.022   3.009
 6465TIP3    H219402   3.119   0.878   2.967
 6466TIP3   OH219403   0.346   4.086   3.858
 6466TIP3    H119404   0.326   4.007   3.907
 6466TIP3    H219405   0.327   4.063   3.767
 6467TIP3   OH219406   0.145   4.050   1.776
 6467TIP3    H119407   0.197   4.028   1.853
 6467TIP3    H219408   0.175   3.990   1.708
 6468TIP3   OH219409   3.877   1.701   0.467
 6468TIP3    H119410   3.820   1.645   0.413
 6468TIP3    H219411   3.903   1.644   0.540
 6469TIP3   OH219412   2.757   2.522   2.074
 6469TIP3    H119413   2.672   2.545   2.110
 6469TIP3    H219414   2.820   2.566   2.131
 6470TIP3   OH219415   2.085   3.660   3.177
 6470TIP3    H119416   2.038   3.712   3.242
 6470TIP3    H219417   2.022   3.594   3.149
 6471TIP3   OH219418   4.924   4.452   0.497
 6471TIP3    H119419   4.955   4.365   0.470
 6471TIP3    H219420   4.996   4.511   0.477
 6472TIP3   OH219421   4.163   1.574   0.591
 6472TIP3    H119422   4.101   1.592   0.661
 6472TIP3    H219423   4.240   1.627   0.613
 6473TIP3   OH219424   5.936   4.342   4.452
 6473TIP3    H119425   5.929   4.249   4.471
 6473TIP3    H219426   5.886   4.385   4.522
 6474TIP3   OH219427   4.743   5.115   2.566
 6474TIP3    H119428   4.733   5.210   2.551
 6474TIP3    H219429   4.788   5.109   2.650
 6475TIP3   OH219430   0.543   1.479   3.933
 6475TIP3    H119431   0.479   1.409   3.920
 6475TIP3    H219432   0.605   1.469   3.862
 6476TIP3   OH219433   0.086   1.562   1.690
 6476TIP3    H119434   0.041   1.585   1.771
 6476TIP3    H219435   0.017   1.551   1.626
 6477TIP3   OH219436   2.484   0.674   2.832
 6477TIP3    H119437   2.548   0.622   2.783
 6477TIP3    H219438   2.482   0.758   2.787
 6478TIP3   OH219439   1.155   3.360   1.591
 6478TIP3    H119440   1.104   3.432   1.628
 6478TIP3    H219441   1.092   3.307   1.543
 6479TIP3   OH219442   1.697   4.670   1.224
 6479TIP3    H119443   1.655   4.612   1.160
 6479TIP3    H219444   1.636   4.671   1.298
 6480TIP3   OH219445   4.284   4.263   4.004
 6480TIP3    H119446   4.351   4.254   3.936
 6480TIP3    H219447   4.205   4.288   3.956
 6481TIP3   OH219448   1.811   4.567   4.314
 6481TIP3    H119449   1.739   4.551   4.252
 6481TIP3    H219450   1.777   4.634   4.373
 6482TIP3   OH219451   1.438   4.515   4.938
 6482TIP3    H119452   1.351   4.481   4.914
 6482TIP3    H219453   1.433   4.609   4.922
 6483TIP3   OH219454   5.489   1.260   2.181
 6483TIP3    H119455   5.508   1.275   2.088
 6483TIP3    H219456   5.546   1.187   2.205
 6484TIP3   OH219457   5.501   0.657   0.670
 6484TIP3    H119458   5.406   0.671   0.674
 6484TIP3    H219459   5.513   0.602   0.592
 6485TIP3   OH219460   3.227   1.208   5.133
 6485TIP3    H119461   3.163   1.204   5.062
 6485TIP3    H219462   3.304   1.250   5.094
 6486TIP3   OH219463   1.826   5.705   0.829
 6486TIP3    H119464   1.859   5.629   0.782
 6486TIP3    H219465   1.745   5.675   0.869
 6487TIP3   OH219466   4.855   1.992   2.848
 6487TIP3    H119467   4.825   2.083   2.849
 6487TIP3    H219468   4.857   1.966   2.940
 6488TIP3   OH219469   2.605   2.200   5.256
 6488TIP3    H119470   2.649   2.123   5.220
 6488TIP3    H219471   2.608   2.264   5.185
 6489TIP3   OH219472   4.562   2.268   3.039
 6489TIP3    H119473   4.556   2.255   3.134
 6489TIP3    H219474   4.478   2.239   3.005
 6490TIP3   OH219475   3.194   3.962   2.240
 6490TIP3    H119476   3.180   3.920   2.156
 6490TIP3    H219477   3.248   4.038   2.221
 6491TIP3   OH219478   5.251   1.471   4.159
 6491TIP3    H119479   5.244   1.399   4.095
 6491TIP3    H219480   5.250   1.550   4.105
 6492TIP3   OH219481   0.859   0.384   0.533
 6492TIP3    H119482   0.822   0.339   0.610
 6492TIP3    H219483   0.953   0.387   0.551
 6493TIP3   OH219484   2.118   4.245   2.025
 6493TIP3    H119485   2.096   4.334   1.996
 6493TIP3    H219486   2.055   4.189   1.979
 6494TIP3   OH219487   3.780   5.641   1.759
 6494TIP3    H119488   3.716   5.606   1.697
 6494TIP3    H219489   3.864   5.607   1.727
 6495TIP3   OH219490   5.979   1.787   0.142
 6495TIP3    H119491   5.912   1.729   0.107
 6495TIP3    H219492   5.951   1.875   0.113
 6496TIP3   OH219493   5.098   3.037   0.333
 6496TIP3    H119494   5.127   2.966   0.276
 6496TIP3    H219495   5.118   3.117   0.284
 6497TIP3   OH219496   0.856   2.521   2.915
 6497TIP3    H119497   0.868   2.480   2.830
 6497TIP3    H219498   0.910   2.600   2.912
 6498TIP3   OH219499   4.841   5.336   3.960
 6498TIP3    H119500   4.754   5.335   3.919
 6498TIP3    H219501   4.898   5.373   3.893
 6499TIP3   OH219502   0.397   2.761   0.840
 6499TIP3    H119503   0.469   2.823   0.854
 6499TIP3    H219504   0.433   2.677   0.866
 6500TIP3   OH219505   5.169   3.293   3.503
 6500TIP3    H119506   5.163   3.351   3.579
 6500TIP3    H219507   5.086   3.246   3.502
 6501TIP3   OH219508   4.245   5.716   3.181
 6501TIP3    H119509   4.172   5.752   3.231
 6501TIP3    H219510   4.204   5.663   3.113
 6502TIP3   OH219511   0.800   4.516   4.933
 6502TIP3    H119512   0.768   4.440   4.883
 6502TIP3    H219513   0.745   4.518   5.011
 6503TIP3   OH219514   1.273   2.315   1.010
 6503TIP3    H119515   1.340   2.324   1.077
 6503TIP3    H219516   1.316   2.265   0.940
 6504TIP3   OH219517   0.629   5.022   0.645
 6504TIP3    H119518   0.698   5.055   0.588
 6504TIP3    H219519   0.659   4.935   0.671
 6505TIP3   OH219520   5.676   2.023   0.724
 6505TIP3    H119521   5.642   1.990   0.808
 6505TIP3    H219522   5.761   2.062   0.745
 6506TIP3   OH219523   5.138   2.770   0.244
 6506TIP3    H119524   5.068   2.708   0.261
 6506TIP3    H219525   5.218   2.717   0.243
 6507TIP3   OH219526   5.025   4.517   4.439
 6507TIP3    H119527   5.112   4.519   4.479
 6507TIP3    H219528   5.007   4.425   4.424
 6508TIP3   OH219529   3.080   1.785   4.540
 6508TIP3    H119530   3.058   1.878   4.544
 6508TIP3    H219531   3.087   1.758   4.632
 6509TIP3   OH219532   1.069   1.710   4.225
 6509TIP3    H119533   1.011   1.726   4.299
 6509TIP3    H219534   1.154   1.693   4.264
 6510TIP3   OH219535   5.630   0.684   1.212
 6510TIP3    H119536   5.621   0.633   1.292
 6510TIP3    H219537   5.703   0.642   1.165
 6511TIP3   OH219538   2.255   2.121   1.585
 6511TIP3    H119539   2.181   2.135   1.526
 6511TIP3    H219540   2.223   2.056   1.648
 6512TIP3   OH219541   1.295   2.928   1.520
 6512TIP3    H119542   1.311   2.970   1.436
 6512TIP3    H219543   1.205   2.897   1.515
 6513TIP3   OH219544   3.278   4.593   2.181
 6513TIP3    H119545   3.353   4.603   2.239
 6513TIP3    H219546   3.228   4.521   2.219
 6514TIP3   OH219547   1.975   5.321   1.506
 6514TIP3    H119548   1.996   5.403   1.462
 6514TIP3    H219549   2.060   5.279   1.520
 6515TIP3   OH219550   3.621   4.712   1.953
 6515TIP3    H119551   3.647   4.729   1.863
 6515TIP3    H219552   3.668   4.777   2.005
 6516TIP3   OH219553   3.370   5.290   3.538
 6516TIP3    H119554   3.358   5.206   3.582
 6516TIP3    H219555   3.281   5.317   3.514
 6517TIP3   OH219556   3.645   3.963   0.924
 6517TIP3    H119557   3.620   4.047   0.963
 6517TIP3    H219558   3.577   3.947   0.858
 6518TIP3   OH219559   0.206   0.000   2.029
 6518TIP3    H119560   0.257   0.078   2.009
 6518TIP3    H219561   0.200  -0.001   2.124
 6519TIP3   OH219562   5.695   2.283   1.711
 6519TIP3    H119563   5.744   2.238   1.780
 6519TIP3    H219564   5.757   2.346   1.674
 6520TIP3   OH219565   3.554   2.910   4.617
 6520TIP3    H119566   3.478   2.852   4.606
 6520TIP3    H219567   3.527   2.992   4.575
 6521TIP3   OH219568   4.054   1.936   0.306
 6521TIP3    H119569   3.973   1.895   0.336
 6521TIP3    H219570   4.030   2.028   0.292
 6522TIP3   OH219571   3.738   2.862   0.060
 6522TIP3    H119572   3.790   2.852   0.140
 6522TIP3    H219573   3.647   2.865   0.091
 6523TIP3   OH219574   2.944   5.717   4.391
 6523TIP3    H119575   2.868   5.659   4.383
 6523TIP3    H219576   2.998   5.695   4.315
 6524TIP3   OH219577   2.073   1.281   1.156
 6524TIP3    H119578   2.123   1.241   1.227
 6524TIP3    H219579   2.029   1.356   1.196
 6525TIP3   OH219580   1.679   5.070   0.835
 6525TIP3    H119581   1.639   5.010   0.773
 6525TIP3    H219582   1.773   5.065   0.816
 6526TIP3   OH219583   4.981   0.743   3.023
 6526TIP3    H119584   4.925   0.807   2.979
 6526TIP3    H219585   5.019   0.692   2.951
 6527TIP3   OH219586   1.733   3.839   4.354
 6527TIP3    H119587   1.804   3.878   4.303
 6527TIP3    H219588   1.741   3.745   4.339
 6528TIP3   OH219589   0.938   3.354   0.514
 6528TIP3    H119590   1.019   3.369   0.562
 6528TIP3    H219591   0.884   3.303   0.573
 6529TIP3   OH219592   4.792   2.143   0.660
 6529TIP3    H119593   4.793   2.099   0.575
 6529TIP3    H219594   4.828   2.229   0.643
 6530TIP3   OH219595   6.215   3.516   4.022
 6530TIP3    H119596   6.177   3.471   4.097
 6530TIP3    H219597   6.222   3.607   4.049
 6531TIP3   OH219598   3.396   1.563   2.806
 6531TIP3    H119599   3.301   1.574   2.796
 6531TIP3    H219600   3.434   1.644   2.772
 6532TIP3   OH219601   3.629   0.432   4.743
 6532TIP3    H119602   3.588   0.451   4.658
 6532TIP3    H219603   3.680   0.510   4.762
 6533TIP3   OH219604   0.430   4.757   0.862
 6533TIP3    H119605   0.495   4.790   0.924
 6533TIP3    H219606   0.402   4.674   0.900
 6534TIP3   OH219607   0.145   1.586   1.351
 6534TIP3    H119608   0.174   1.496   1.365
 6534TIP3    H219609   0.201   1.638   1.409
 6535TIP3   OH219610   5.147   4.621   3.666
 6535TIP3    H119611   5.132   4.527   3.662
 6535TIP3    H219612   5.239   4.629   3.691
 6536TIP3   OH219613   0.269   4.185   4.842
 6536TIP3    H119614   0.265   4.275   4.875
 6536TIP3    H219615   0.198   4.179   4.779
 6537TIP3   OH219616   0.743   2.778   3.000
 6537TIP3    H119617   0.785   2.732   3.072
 6537TIP3    H219618   0.649   2.767   3.016
 6538TIP3   OH219619   5.303   1.382   0.922
 6538TIP3    H119620   5.264   1.295   0.932
 6538TIP3    H219621   5.380   1.380   0.979
 6539TIP3   OH219622   3.030   2.717   2.151
 6539TIP3    H119623   2.999   2.761   2.072
 6539TIP3    H219624   3.033   2.786   2.218
 6540TIP3   OH219625   5.763   1.098   1.646
 6540TIP3    H119626   5.761   1.083   1.552
 6540TIP3    H219627   5.678   1.066   1.677
 6541TIP3   OH219628   3.674   2.669   3.879
 6541TIP3    H119629   3.626   2.599   3.924
 6541TIP3    H219630   3.766   2.643   3.883
 6542TIP3   OH219631   6.188   4.593   2.994
 6542TIP3    H119632   6.162   4.588   2.902
 6542TIP3    H219633   6.247   4.668   2.998
 6543TIP3   OH219634   6.037   2.494   1.776
 6543TIP3    H119635   5.967   2.523   1.718
 6543TIP3    H219636   6.050   2.402   1.755
 6544TIP3   OH219637   2.037   1.001   2.381
 6544TIP3    H119638   2.113   1.054   2.355
 6544TIP3    H219639   2.074   0.917   2.406
 6545TIP3   OH219640   4.760   4.351   3.292
 6545TIP3    H119641   4.665   4.346   3.280
 6545TIP3    H219642   4.791   4.398   3.215
 6546TIP3   OH219643   5.206   4.611   2.935
 6546TIP3    H119644   5.284   4.645   2.889
 6546TIP3    H219645   5.241   4.569   3.013
 6547TIP3   OH219646   6.043   2.266   0.023
 6547TIP3    H119647   5.984   2.193   0.006
 6547TIP3    H219648   6.065   2.258   0.115
 6548TIP3   OH219649   1.442   3.211   0.039
 6548TIP3    H119650   1.392   3.130   0.026
 6548TIP3    H219651   1.386   3.265   0.095
 6549TIP3   OH219652   3.201   5.885   2.728
 6549TIP3    H119653   3.205   5.962   2.785
 6549TIP3    H219654   3.224   5.919   2.641
 6550TIP3   OH219655   0.896   4.333   1.446
 6550TIP3    H119656   0.873   4.412   1.397
 6550TIP3    H219657   0.899   4.362   1.537
 6551TIP3   OH219658   0.478   2.899   0.537
 6551TIP3    H119659   0.410   2.926   0.599
 6551TIP3    H219660   0.445   2.818   0.499
 6552TIP3   OH219661   3.551   4.900   0.833
 6552TIP3    H119662   3.513   4.960   0.768
 6552TIP3    H219663   3.488   4.899   0.904
 6553TIP3   OH219664   5.410   0.500   1.726
 6553TIP3    H119665   5.489   0.452   1.748
 6553TIP3    H219666   5.345   0.432   1.705
 6554TIP3   OH219667   5.327   5.813   0.405
 6554TIP3    H119668   5.354   5.890   0.355
 6554TIP3    H219669   5.285   5.848   0.484
 6555TIP3   OH219670   1.414   3.869   1.784
 6555TIP3    H119671   1.424   3.959   1.814
 6555TIP3    H219672   1.481   3.858   1.716
 6556TIP3   OH219673   4.002   2.527   1.659
 6556TIP3    H119674   3.933   2.514   1.593
 6556TIP3    H219675   4.005   2.444   1.707
 6557TIP3   OH219676   5.795   2.113   2.529
 6557TIP3    H119677   5.785   2.109   2.434
 6557TIP3    H219678   5.883   2.078   2.545
 6558TIP3   OH219679   4.587   5.153   4.130
 6558TIP3    H119680   4.579   5.247   4.138
 6558TIP3    H219681   4.622   5.140   4.042
 6559TIP3   OH219682   3.901   5.598   2.081
 6559TIP3    H119683   3.853   5.635   2.155
 6559TIP3    H219684   3.954   5.670   2.048
 6560TIP3   OH219685   5.069   1.481   2.983
 6560TIP3    H119686   5.091   1.489   3.076
 6560TIP3    H219687   5.047   1.570   2.956
 6561TIP3   OH219688   5.507   3.333   0.717
 6561TIP3    H119689   5.591   3.377   0.730
 6561TIP3    H219690   5.530   3.247   0.682
 6562TIP3   OH219691   4.057   2.730   4.441
 6562TIP3    H119692   4.080   2.685   4.523
 6562TIP3    H219693   3.961   2.730   4.440
 6563TIP3   OH219694   0.144   5.040   3.237
 6563TIP3    H119695   0.227   4.994   3.244
 6563TIP3    H219696   0.139   5.092   3.318
 6564TIP3   OH219697   0.922   5.042   4.478
 6564TIP3    H119698   1.006   5.080   4.452
 6564TIP3    H219699   0.860   5.115   4.473
 6565TIP3   OH219700   6.146   0.660   3.222
 6565TIP3    H119701   6.079   0.690   3.162
 6565TIP3    H219702   6.119   0.694   3.308
 6566TIP3   OH219703   5.759   4.122   4.429
 6566TIP3    H119704   5.667   4.147   4.440
 6566TIP3    H219705   5.787   4.096   4.517
 6567TIP3   OH219706   3.055   1.391   3.240
 6567TIP3    H119707   3.118   1.404   3.169
 6567TIP3    H219708   2.984   1.453   3.220
 6568TIP3   OH219709   1.630   0.570   1.473
 6568TIP3    H119710   1.629   0.647   1.530
 6568TIP3    H219711   1.692   0.510   1.515
 6569TIP3   OH219712   1.783   5.254   4.556
 6569TIP3    H119713   1.711   5.191   4.564
 6569TIP3    H219714   1.814   5.244   4.466
 6570TIP3   OH219715   2.187   0.612   2.931
 6570TIP3    H119716   2.251   0.679   2.906
 6570TIP3    H219717   2.133   0.655   2.997
 6571TIP3   OH219718   3.879   4.639   0.473
 6571TIP3    H119719   3.900   4.724   0.433
 6571TIP3    H219720   3.839   4.662   0.557
 6572TIP3   OH219721   0.742   1.667   2.745
 6572TIP3    H119722   0.707   1.755   2.763
 6572TIP3    H219723   0.792   1.677   2.664
 6573TIP3   OH219724   5.976   1.369   3.667
 6573TIP3    H119725   5.977   1.299   3.732
 6573TIP3    H219726   5.888   1.407   3.674
 6574TIP3   OH219727   2.065   2.527   3.287
 6574TIP3    H119728   1.976   2.542   3.321
 6574TIP3    H219729   2.113   2.607   3.307
 6575TIP3   OH219730   1.941   2.286   4.284
 6575TIP3    H119731   1.973   2.277   4.195
 6575TIP3    H219732   1.929   2.380   4.296
 6576TIP3   OH219733   3.951   1.123   0.945
 6576TIP3    H119734   3.918   1.043   0.985
 6576TIP3    H219735   3.887   1.190   0.972
 6577TIP3   OH219736   1.478   4.460   1.069
 6577TIP3    H119737   1.494   4.433   1.159
 6577TIP3    H219738   1.426   4.388   1.032
 6578TIP3   OH219739   1.968   5.024   1.121
 6578TIP3    H119740   1.962   4.929   1.117
 6578TIP3    H219741   1.890   5.052   1.169
 6579TIP3   OH219742   4.610   0.386   0.385
 6579TIP3    H119743   4.575   0.300   0.407
 6579TIP3    H219744   4.583   0.400   0.294
 6580TIP3   OH219745   2.389   0.541   2.038
 6580TIP3    H119746   2.385   0.577   1.949
 6580TIP3    H219747   2.477   0.504   2.045
 6581TIP3   OH219748   4.784   4.093   0.213
 6581TIP3    H119749   4.699   4.071   0.252
 6581TIP3    H219750   4.793   4.033   0.139
 6582TIP3   OH219751   0.878   3.659   4.974
 6582TIP3    H119752   0.927   3.579   4.954
 6582TIP3    H219753   0.787   3.636   4.956
 6583TIP3   OH219754   0.654   1.266   4.669
 6583TIP3    H119755   0.637   1.238   4.579
 6583TIP3    H219756   0.718   1.337   4.660
 6584TIP3   OH219757   6.134   2.692   3.317
 6584TIP3    H119758   6.120   2.704   3.223
 6584TIP3    H219759   6.048   2.666   3.351
 6585TIP3   OH219760   3.755   5.973   4.709
 6585TIP3    H119761   3.783   5.917   4.781
 6585TIP3    H219762   3.820   5.958   4.640
 6586TIP3   OH219763   3.583   4.562   4.320
 6586TIP3    H119764   3.519   4.621   4.281
 6586TIP3    H219765   3.536   4.480   4.334
 6587TIP3   OH219766   1.915   3.950   4.017
 6587TIP3    H119767   1.848   3.973   3.954
 6587TIP3    H219768   1.938   3.859   3.996
 6588TIP3   OH219769   1.414   4.421   0.742
 6588TIP3    H119770   1.388   4.330   0.728
 6588TIP3    H219771   1.508   4.422   0.725
 6589TIP3   OH219772   1.095   4.913   1.092
 6589TIP3    H119773   1.070   4.932   1.182
 6589TIP3    H219774   1.165   4.849   1.100
 6590TIP3   OH219775   6.159   2.935   2.699
 6590TIP3    H119776   6.130   2.844   2.697
 6590TIP3    H219777   6.080   2.985   2.716
 6591TIP3   OH219778   1.293   3.740   5.106
 6591TIP3    H119779   1.282   3.728   5.200
 6591TIP3    H219780   1.387   3.754   5.094
 6592TIP3   OH219781   3.499   0.572   3.475
 6592TIP3    H119782   3.486   0.647   3.534
 6592TIP3    H219783   3.593   0.555   3.478
 6593TIP3   OH219784   4.750   0.039   3.968
 6593TIP3    H119785   4.820  -0.011   4.010
 6593TIP3    H219786   4.795   0.110   3.923
 6594TIP3   OH219787   4.130   0.621   1.476
 6594TIP3    H119788   4.214   0.648   1.438
 6594TIP3    H219789   4.072   0.696   1.462
 6595TIP3   OH219790   3.189   1.422   3.010
 6595TIP3    H119791   3.136   1.477   2.953
 6595TIP3    H219792   3.280   1.445   2.990
 6596TIP3   OH219793   0.306   0.253   5.186
 6596TIP3    H119794   0.297   0.328   5.126
 6596TIP3    H219795   0.390   0.214   5.163
 6597TIP3   OH219796   4.744   0.043   0.215
 6597TIP3    H119797   4.707   0.121   0.174
 6597TIP3    H219798   4.782  -0.007   0.142
 6598TIP3   OH219799   1.190   1.350   3.213
 6598TIP3    H119800   1.095   1.360   3.211
 6598TIP3    H219801   1.224   1.429   3.172
 6599TIP3   OH219802   2.617   4.337   3.124
 6599TIP3    H119803   2.643   4.324   3.216
 6599TIP3    H219804   2.644   4.426   3.103
 6600TIP3   OH219805   0.226   4.281   4.044
 6600TIP3    H119806   0.256   4.235   3.966
 6600TIP3    H219807   0.150   4.231   4.074
 6601TIP3   OH219808   3.607   5.288   3.767
 6601TIP3    H119809   3.597   5.217   3.705
 6601TIP3    H219810   3.699   5.284   3.794
 6602TIP3   OH219811   4.427   2.942   4.168
 6602TIP3    H119812   4.359   2.918   4.231
 6602TIP3    H219813   4.473   2.860   4.149
 6603TIP3   OH219814   0.153   3.861   1.134
 6603TIP3    H119815   0.087   3.851   1.065
 6603TIP3    H219816   0.219   3.795   1.113
 6604TIP3   OH219817   3.753   3.416   0.779
 6604TIP3    H119818   3.830   3.469   0.759
 6604TIP3    H219819   3.771   3.331   0.740
 6605TIP3   OH219820   2.512   0.814   2.291
 6605TIP3    H119821   2.510   0.906   2.317
 6605TIP3    H219822   2.436   0.775   2.334
 6606TIP3   OH219823   4.604   5.017   0.345
 6606TIP3    H119824   4.586   5.109   0.323
 6606TIP3    H219825   4.679   5.021   0.404
 6607TIP3   OH219826   2.077   0.335   1.440
 6607TIP3    H119827   2.121   0.324   1.524
 6607TIP3    H219828   2.027   0.255   1.428
 6608TIP3   OH219829   5.390   4.513   3.168
 6608TIP3    H119830   5.439   4.527   3.087
 6608TIP3    H219831   5.457   4.513   3.236
 6609TIP3   OH219832   0.351   5.191   4.099
 6609TIP3    H119833   0.431   5.211   4.052
 6609TIP3    H219834   0.282   5.193   4.033
 6610TIP3   OH219835   5.547   3.799   3.440
 6610TIP3    H119836   5.601   3.722   3.422
 6610TIP3    H219837   5.594   3.871   3.399
 6611TIP3   OH219838   0.691   0.818   3.049
 6611TIP3    H119839   0.765   0.757   3.042
 6611TIP3    H219840   0.641   0.805   2.968
 6612TIP3   OH219841   4.578   0.357   2.206
 6612TIP3    H119842   4.625   0.437   2.229
 6612TIP3    H219843   4.636   0.286   2.234
 6613TIP3   OH219844   4.603   2.410   0.876
 6613TIP3    H119845   4.614   2.502   0.851
 6613TIP3    H219846   4.521   2.410   0.926
 6614TIP3   OH219847   2.892   5.138   2.281
 6614TIP3    H119848   2.920   5.210   2.338
 6614TIP3    H219849   2.954   5.067   2.301
 6615TIP3   OH219850   5.837   5.736   3.101
 6615TIP3    H119851   5.931   5.743   3.085
 6615TIP3    H219852   5.807   5.672   3.037
 6616TIP3   OH219853   2.902   0.112   3.173
 6616TIP3    H119854   2.812   0.145   3.171
 6616TIP3    H219855   2.902   0.037   3.114
 6617TIP3   OH219856   4.184   4.250   4.296
 6617TIP3    H119857   4.247   4.253   4.224
 6617TIP3    H219858   4.110   4.200   4.261
 6618TIP3   OH219859   4.632   5.722   3.600
 6618TIP3    H119860   4.637   5.634   3.564
 6618TIP3    H219861   4.713   5.764   3.570
 6619TIP3   OH219862   1.599   4.795   3.794
 6619TIP3    H119863   1.663   4.759   3.732
 6619TIP3    H219864   1.514   4.769   3.759
 6620TIP3   OH219865   6.239   5.271   2.377
 6620TIP3    H119866   6.303   5.329   2.418
 6620TIP3    H219867   6.160   5.279   2.430
 6621TIP3   OH219868   6.161   2.349   2.956
 6621TIP3    H119869   6.137   2.356   3.048
 6621TIP3    H219870   6.137   2.259   2.932
 6622TIP3   OH219871   3.253   0.184   4.228
 6622TIP3    H119872   3.203   0.261   4.200
 6622TIP3    H219873   3.288   0.147   4.147
 6623TIP3   OH219874   4.416   3.273   4.612
 6623TIP3    H119875   4.449   3.327   4.684
 6623TIP3    H219876   4.339   3.229   4.649
 6624TIP3   OH219877   4.202   0.000   3.976
 6624TIP3    H119878   4.136  -0.053   4.021
 6624TIP3    H219879   4.153   0.045   3.907
 6625TIP3   OH219880   6.145   2.935   1.019
 6625TIP3    H119881   6.052   2.942   0.998
 6625TIP3    H219882   6.154   2.980   1.104
 6626TIP3   OH219883   0.865   2.692   2.436
 6626TIP3    H119884   0.811   2.614   2.448
 6626TIP3    H219885   0.848   2.744   2.515
 6627TIP3   OH219886   1.352   4.718   3.708
 6627TIP3    H119887   1.376   4.625   3.712
 6627TIP3    H219888   1.376   4.745   3.619
 6628TIP3   OH219889   5.683   1.419   0.684
 6628TIP3    H119890   5.773   1.412   0.650
 6628TIP3    H219891   5.674   1.512   0.706
 6629TIP3   OH219892   1.723   2.901   0.249
 6629TIP3    H119893   1.801   2.905   0.304
 6629TIP3    H219894   1.698   2.993   0.238
 6630TIP3   OH219895   4.705   5.060   2.067
 6630TIP3    H119896   4.781   5.063   2.125
 6630TIP3    H219897   4.651   5.134   2.092
 6631TIP3   OH219898   0.440   3.117   4.197
 6631TIP3    H119899   0.434   3.056   4.124
 6631TIP3    H219900   0.408   3.067   4.273
 6632TIP3   OH219901   5.471   2.395   2.059
 6632TIP3    H119902   5.562   2.367   2.056
 6632TIP3    H219903   5.430   2.352   1.983
 6633TIP3   OH219904   4.758   5.786   5.185
 6633TIP3    H119905   4.688   5.766   5.247
 6633TIP3    H219906   4.746   5.878   5.163
 6634TIP3   OH219907   6.064   5.522   3.646
 6634TIP3    H119908   6.134   5.540   3.709
 6634TIP3    H219909   5.983   5.541   3.695
 6635TIP3   OH219910   4.259   3.624   1.565
 6635TIP3    H119911   4.204   3.561   1.612
 6635TIP3    H219912   4.347   3.588   1.570
 6636TIP3   OH219913   3.563   0.771   4.932
 6636TIP3    H119914   3.626   0.734   4.994
 6636TIP3    H219915   3.526   0.847   4.977
 6637TIP3   OH219916   0.362   1.724   5.088
 6637TIP3    H119917   0.401   1.685   5.009
 6637TIP3    H219918   0.297   1.660   5.116
 6638TIP3   OH219919   1.333   5.895   4.424
 6638TIP3    H119920   1.282   5.849   4.491
 6638TIP3    H219921   1.333   5.987   4.452
 6639TIP3   OH219922   5.867   1.048   2.497
 6639TIP3    H119923   5.939   1.110   2.511
 6639TIP3    H219924   5.883   0.978   2.560
 6640TIP3   OH219925   5.030   4.005   0.887
 6640TIP3    H119926   4.991   4.087   0.855
 6640TIP3    H219927   5.117   4.003   0.847
 6641TIP3   OH219928   1.236   0.083   4.048
 6641TIP3    H119929   1.318   0.035   4.033
 6641TIP3    H219930   1.180   0.059   3.974
 6642TIP3   OH219931   0.723   5.870   2.661
 6642TIP3    H119932   0.767   5.903   2.582
 6642TIP3    H219933   0.630   5.875   2.640
 6643TIP3   OH219934   4.964   1.199   3.277
 6643TIP3    H119935   5.033   1.186   3.211
 6643TIP3    H219936   4.919   1.279   3.250
 6644TIP3   OH219937   2.824   3.382   4.137
 6644TIP3    H119938   2.871   3.466   4.135
 6644TIP3    H219939   2.744   3.401   4.187
 6645TIP3   OH219940   0.636   5.462   1.840
 6645TIP3    H119941   0.573   5.489   1.774
 6645TIP3    H219942   0.633   5.532   1.906
   6.35962   5.99590   5.19261   0.00000   0.00000  -2.11988   0.00000  -2.11988  -2.99795
