Title t= 16660.00000 step= 8330000
68179
    1GLY      N    1   4.110   3.857   4.353
    1GLY    HT1    2   4.141   3.798   4.273
    1GLY    HT2    3   4.104   3.956   4.321
    1GLY    HT3    4   4.009   3.841   4.368
    1GLY     CA    5   4.197   3.825   4.469
    1GLY    HA1    6   4.165   3.725   4.494
    1GLY    HA2    7   4.178   3.907   4.537
    1GLY      C    8   4.346   3.817   4.428
    1GLY      O    9   4.382   3.863   4.320
    2PRO      N   10   4.429   3.771   4.525
    2PRO     CD   11   4.385   3.681   4.628
    2PRO    HD1   12   4.351   3.586   4.581
    2PRO    HD2   13   4.301   3.725   4.687
    2PRO     CA   14   4.573   3.788   4.523
    2PRO     HA   15   4.585   3.892   4.495
    2PRO     CB   16   4.601   3.761   4.670
    2PRO    HB1   17   4.570   3.853   4.724
    2PRO    HB2   18   4.709   3.739   4.682
    2PRO     CG   19   4.507   3.652   4.713
    2PRO    HG1   20   4.562   3.560   4.684
    2PRO    HG2   21   4.486   3.635   4.821
    2PRO      C   22   4.651   3.698   4.431
    2PRO      O   23   4.769   3.708   4.443
    3GLY      N   24   4.591   3.621   4.344
    3GLY     HN   25   4.492   3.610   4.354
    3GLY     CA   26   4.662   3.538   4.249
    3GLY    HA1   27   4.732   3.599   4.194
    3GLY    HA2   28   4.586   3.491   4.188
    3GLY      C   29   4.740   3.419   4.293
    3GLY      O   30   4.723   3.381   4.410
    4ASP      N   31   4.823   3.356   4.215
    4ASP     HN   32   4.852   3.398   4.129
    4ASP     CA   33   4.904   3.239   4.252
    4ASP     HA   34   4.868   3.211   4.350
    4ASP     CB   35   4.861   3.123   4.157
    4ASP    HB1   36   4.752   3.124   4.174
    4ASP    HB2   37   4.893   3.023   4.194
    4ASP     CG   38   4.896   3.133   4.015
    4ASP    OD1   39   4.887   3.031   3.946
    4ASP    OD2   40   4.907   3.249   3.966
    4ASP      C   41   5.050   3.269   4.255
    4ASP      O   42   5.087   3.377   4.209
    5PRO      N   43   5.133   3.188   4.319
    5PRO     CD   44   5.088   3.079   4.407
    5PRO    HD1   45   5.065   2.989   4.346
    5PRO    HD2   46   5.001   3.113   4.467
    5PRO     CA   47   5.283   3.205   4.322
    5PRO     HA   48   5.300   3.291   4.385
    5PRO     CB   49   5.326   3.084   4.403
    5PRO    HB1   50   5.412   3.108   4.470
    5PRO    HB2   51   5.348   2.991   4.347
    5PRO     CG   52   5.210   3.061   4.499
    5PRO    HG1   53   5.199   2.955   4.528
    5PRO    HG2   54   5.201   3.125   4.590
    5PRO      C   55   5.363   3.246   4.192
    5PRO      O   56   5.331   3.191   4.088
    6GLY      N   57   5.461   3.338   4.200
    6GLY     HN   58   5.463   3.385   4.288
    6GLY     CA   59   5.544   3.388   4.092
    6GLY    HA1   60   5.590   3.302   4.046
    6GLY    HA2   61   5.616   3.451   4.141
    6GLY      C   62   5.478   3.468   3.975
    6GLY      O   63   5.517   3.475   3.862
    7SER      N   64   5.358   3.534   4.009
    7SER     HN   65   5.308   3.533   4.095
    7SER     CA   66   5.294   3.638   3.928
    7SER     HA   67   5.374   3.703   3.894
    7SER     CB   68   5.207   3.570   3.809
    7SER    HB1   69   5.124   3.516   3.860
    7SER    HB2   70   5.267   3.489   3.762
    7SER     OG   71   5.159   3.666   3.718
    7SER    HG1   72   5.235   3.687   3.664
    7SER      C   73   5.200   3.717   4.025
    7SER      O   74   5.173   3.669   4.132
    8GLY      N   75   5.162   3.843   3.986
    8GLY     HN   76   5.193   3.867   3.894
    8GLY     CA   77   5.088   3.937   4.063
    8GLY    HA1   78   5.087   4.029   4.006
    8GLY    HA2   79   5.152   3.950   4.149
    8GLY      C   80   4.942   3.906   4.090
    8GLY      O   81   4.892   3.794   4.057
    9PRO      N   82   4.867   3.994   4.157
    9PRO     CD   83   4.932   4.078   4.258
    9PRO    HD1   84   4.990   4.164   4.219
    9PRO    HD2   85   4.985   4.005   4.324
    9PRO     CA   86   4.723   3.989   4.179
    9PRO     HA   87   4.706   3.896   4.232
    9PRO     CB   88   4.689   4.117   4.256
    9PRO    HB1   89   4.599   4.096   4.318
    9PRO    HB2   90   4.691   4.210   4.196
    9PRO     CG   91   4.816   4.135   4.347
    9PRO    HG1   92   4.827   4.240   4.382
    9PRO    HG2   93   4.812   4.079   4.443
    9PRO      C   94   4.638   3.956   4.059
    9PRO      O   95   4.664   4.005   3.952
   10GLY      N   96   4.538   3.864   4.078
   10GLY     HN   97   4.522   3.824   4.168
   10GLY     CA   98   4.460   3.812   3.963
   10GLY    HA1   99   4.422   3.719   4.005
   10GLY    HA2  100   4.522   3.787   3.878
   10GLY      C  101   4.340   3.888   3.937
   10GLY      O  102   4.266   3.872   3.838
   11ASP      N  103   4.305   3.979   4.024
   11ASP     HN  104   4.362   3.979   4.106
   11ASP     CA  105   4.216   4.095   4.011
   11ASP     HA  106   4.119   4.070   4.050
   11ASP     CB  107   4.280   4.203   4.116
   11ASP    HB1  108   4.239   4.303   4.089
   11ASP    HB2  109   4.388   4.223   4.101
   11ASP     CG  110   4.248   4.170   4.259
   11ASP    OD1  111   4.320   4.214   4.352
   11ASP    OD2  112   4.140   4.107   4.285
   11ASP      C  113   4.209   4.161   3.873
   11ASP      O  114   4.311   4.219   3.833
   12PRO      N  115   4.091   4.183   3.823
   12PRO     CD  116   3.974   4.113   3.866
   12PRO    HD1  117   3.926   4.169   3.948
   12PRO    HD2  118   3.992   4.009   3.901
   12PRO     CA  119   4.076   4.282   3.712
   12PRO     HA  120   4.137   4.247   3.630
   12PRO     CB  121   3.924   4.265   3.693
   12PRO    HB1  122   3.898   4.278   3.586
   12PRO    HB2  123   3.863   4.341   3.748
   12PRO     CG  124   3.894   4.122   3.741
   12PRO    HG1  125   3.786   4.108   3.765
   12PRO    HG2  126   3.916   4.059   3.652
   12PRO      C  127   4.119   4.428   3.739
   12PRO      O  128   4.071   4.478   3.842
   13GLY      N  129   4.190   4.492   3.650
   13GLY     HN  130   4.212   4.455   3.559
   13GLY     CA  131   4.236   4.631   3.660
   13GLY    HA1  132   4.331   4.645   3.611
   13GLY    HA2  133   4.242   4.652   3.766
   13GLY      C  134   4.131   4.727   3.608
   13GLY      O  135   4.126   4.834   3.663
   14SER      N  136   4.049   4.696   3.511
   14SER     HN  137   4.058   4.609   3.463
   14SER     CA  138   3.941   4.786   3.464
   14SER     HA  139   3.915   4.863   3.535
   14SER     CB  140   3.983   4.840   3.331
   14SER    HB1  141   3.994   4.752   3.263
   14SER    HB2  142   4.079   4.895   3.339
   14SER     OG  143   3.887   4.929   3.275
   14SER    HG1  144   3.922   5.014   3.303
   14SER      C  145   3.817   4.704   3.463
   14SER      O  146   3.821   4.581   3.471
   15GLY      N  147   3.703   4.768   3.446
   15GLY     HN  148   3.696   4.865   3.425
   15GLY     CA  149   3.568   4.710   3.469
   15GLY    HA1  150   3.551   4.626   3.403
   15GLY    HA2  151   3.502   4.789   3.439
   15GLY      C  152   3.523   4.657   3.600
   15GLY      O  153   3.596   4.680   3.692
   16PRO      N  154   3.414   4.586   3.618
   16PRO     CD  155   3.305   4.581   3.522
   16PRO    HD1  156   3.337   4.533   3.427
   16PRO    HD2  157   3.268   4.681   3.490
   16PRO     CA  158   3.392   4.498   3.738
   16PRO     HA  159   3.358   4.572   3.809
   16PRO     CB  160   3.280   4.405   3.687
   16PRO    HB1  161   3.217   4.374   3.774
   16PRO    HB2  162   3.329   4.320   3.635
   16PRO     CG  163   3.198   4.486   3.582
   16PRO    HG1  164   3.152   4.431   3.497
   16PRO    HG2  165   3.112   4.541   3.627
   16PRO      C  166   3.508   4.414   3.798
   16PRO      O  167   3.575   4.344   3.726
   17GLY      N  168   3.516   4.413   3.931
   17GLY     HN  169   3.457   4.473   3.984
   17GLY     CA  170   3.618   4.329   3.997
   17GLY    HA1  171   3.627   4.354   4.102
   17GLY    HA2  172   3.707   4.346   3.939
   17GLY      C  173   3.595   4.184   4.004
   17GLY      O  174   3.502   4.128   3.942
   18ASP      N  175   3.675   4.112   4.075
   18ASP     HN  176   3.749   4.151   4.129
   18ASP     CA  177   3.662   3.972   4.107
   18ASP     HA  178   3.697   3.907   4.029
   18ASP     CB  179   3.753   3.953   4.231
   18ASP    HB1  180   3.720   4.018   4.315
   18ASP    HB2  181   3.854   3.978   4.192
   18ASP     CG  182   3.773   3.812   4.280
   18ASP    OD1  183   3.855   3.799   4.377
   18ASP    OD2  184   3.726   3.708   4.216
   18ASP      C  185   3.523   3.931   4.153
   18ASP      O  186   3.472   3.989   4.249
   19PRO      N  187   3.460   3.831   4.095
   19PRO     CD  188   3.481   3.783   3.958
   19PRO    HD1  189   3.553   3.699   3.944
   19PRO    HD2  190   3.519   3.867   3.896
   19PRO     CA  191   3.328   3.787   4.144
   19PRO     HA  192   3.267   3.875   4.159
   19PRO     CB  193   3.278   3.691   4.028
   19PRO    HB1  194   3.169   3.690   4.011
   19PRO    HB2  195   3.314   3.587   4.045
   19PRO     CG  196   3.341   3.743   3.902
   19PRO    HG1  197   3.341   3.663   3.825
   19PRO    HG2  198   3.289   3.832   3.862
   19PRO      C  199   3.334   3.716   4.273
   19PRO    OT1  200   3.237   3.736   4.348
   19PRO    OT2  201   3.421   3.634   4.294
   20LIT    LIT  202   1.871   4.151   1.822
   21LIT    LIT  203   1.737   1.722   4.378
   22LIT    LIT  204   6.301   1.020   0.060
   23LIT    LIT  205   5.095   2.334   0.437
   24LIT    LIT  206   3.499   6.985   4.823
   25LIT    LIT  207   2.264   3.106   6.436
   26LIT    LIT  208   4.362   3.055   1.433
   27LIT    LIT  209   0.066   0.731   7.646
   28LIT    LIT  210   5.491   2.285   3.549
   29LIT    LIT  211   8.018   4.321   0.814
   30LIT    LIT  212   6.827   1.765   7.714
   31LIT    LIT  213   5.461   6.506   1.032
   32LIT    LIT  214   9.223   6.722   5.364
   33LIT    LIT  215   0.419   7.929   2.280
   34LIT    LIT  216   4.552   5.180   0.675
   35LIT    LIT  217   5.101   2.636   4.027
   36LIT    LIT  218   0.977   2.344   3.650
   37LIT    LIT  219   3.353   3.718   4.501
   38LIT    LIT  220   2.635   8.086   0.943
   39LIT    LIT  221   3.703   1.912   0.044
   40LIT    LIT  222   3.594   3.582   4.234
   41LIT    LIT  223   8.693   2.277   1.874
   42LIT    LIT  224   2.129   2.043   1.051
   43LIT    LIT  225   3.430   5.264   2.064
   44LIT    LIT  226   8.213   3.686   0.021
   45LIT    LIT  227   4.198   4.720   4.278
   46LIT    LIT  228   3.532   6.151   6.417
   47LIT    LIT  229   1.042   0.708   5.314
   48LIT    LIT  230   3.978   2.005   1.738
   49LIT    LIT  231   4.997   8.567   2.980
   50LIT    LIT  232   6.778   4.787   0.202
   51LIT    LIT  233   3.852   7.236   0.639
   52LIT    LIT  234   4.356   7.749   0.984
   53LIT    LIT  235   2.205   7.619   5.160
   54LIT    LIT  236   2.753   0.263   0.264
   55LIT    LIT  237   5.541   7.837   5.282
   56LIT    LIT  238   3.452   8.080   6.174
   57LIT    LIT  239   7.360   0.546   1.682
   58LIT    LIT  240   7.658   3.267   5.771
   59LIT    LIT  241   4.867   3.409   3.899
   60LIT    LIT  242   0.886   1.372   2.364
   61LIT    LIT  243   5.758   7.427   1.691
   62LIT    LIT  244   3.184   1.310   3.144
   63LIT    LIT  245   6.607   5.829   1.479
   64LIT    LIT  246   8.757   6.741   7.749
   65LIT    LIT  247   9.428   7.084   2.879
   66LIT    LIT  248   7.011   0.165   4.158
   67LIT    LIT  249   7.846   7.937   4.301
   68LIT    LIT  250   7.959   4.360   4.340
   69LIT    LIT  251   5.956   5.586   3.770
   70LIT    LIT  252   2.712   2.468   7.570
   71LIT    LIT  253   7.619   1.624   5.548
   72LIT    LIT  254   7.061   0.891   3.845
   73LIT    LIT  255   0.871   1.846   2.952
   74LIT    LIT  256   7.322   6.342   4.140
   75LIT    LIT  257   5.609   0.353   5.092
   76LIT    LIT  258   0.165   8.880   5.527
   77LIT    LIT  259   4.833   5.751   2.021
   78LIT    LIT  260   7.153   6.742   7.389
   79LIT    LIT  261   3.002   0.038   3.191
   80LIT    LIT  262   3.733   0.616   2.293
   81LIT    LIT  263   8.076   7.139   6.089
   82LIT    LIT  264   5.171   0.325   1.255
   83LIT    LIT  265   6.468   2.941   4.476
   84LIT    LIT  266   3.305   0.930   3.981
   85LIT    LIT  267   4.589   4.560   4.168
   86LIT    LIT  268   1.181   6.856   6.811
   87LIT    LIT  269   4.709   0.780   3.834
   88CLA    CLA  270   7.382   7.436   2.244
   89CLA    CLA  271   4.250   8.712   1.490
   90CLA    CLA  272   9.031   5.947   6.945
   91CLA    CLA  273   4.227   1.409   5.551
   92CLA    CLA  274   4.155   0.383   5.913
   93CLA    CLA  275   7.199   6.507   7.455
   94CLA    CLA  276   7.446   0.809   3.587
   95CLA    CLA  277   7.291   3.768   3.657
   96CLA    CLA  278   2.774   1.483   3.213
   97CLA    CLA  279   8.822   2.183   1.720
   98CLA    CLA  280   7.145   0.546   6.529
   99CLA    CLA  281   5.747   1.210   5.787
  100CLA    CLA  282   1.296   2.443   5.816
  101CLA    CLA  283   4.442   3.929   1.200
  102CLA    CLA  284   0.221   1.937   7.210
  103CLA    CLA  285   2.348   0.948   0.694
  104CLA    CLA  286   0.385   7.581   2.768
  105CLA    CLA  287   2.504   4.182   5.423
  106CLA    CLA  288   2.634   1.040   3.141
  107CLA    CLA  289   9.101   1.743   2.411
  108CLA    CLA  290   7.539   3.917   0.632
  109CLA    CLA  291   2.848   3.227   6.789
  110CLA    CLA  292   3.123   7.210   0.556
  111CLA    CLA  293   1.540   8.509   5.347
  112CLA    CLA  294   2.578   5.589   7.800
  113CLA    CLA  295   6.164   6.128   4.472
  114CLA    CLA  296   4.769   1.208   3.438
  115CLA    CLA  297   4.649   7.064   0.491
  116CLA    CLA  298   1.823   4.787   1.699
  117CLA    CLA  299   7.838   1.381   4.145
  118CLA    CLA  300   4.559   2.009   2.666
  119CLA    CLA  301   2.578   8.804   2.475
  120CLA    CLA  302   7.326   1.509   2.876
  121CLA    CLA  303   4.842   1.046   4.082
  122CLA    CLA  304   7.777   2.775   1.960
  123CLA    CLA  305   8.588   4.036   1.664
  124CLA    CLA  306   9.188   3.595   1.576
  125CLA    CLA  307   5.749   0.327   1.470
  126CLA    CLA  308   2.440   2.200   4.004
  127CLA    CLA  309   8.081   8.982   6.247
  128CLA    CLA  310   2.303   8.841   3.790
  129CLA    CLA  311   5.656   8.843   3.728
  130CLA    CLA  312   0.643   7.302   6.325
  131CLA    CLA  313   6.244   5.564   3.211
  132CLA    CLA  314   3.273   7.261   5.580
  133CLA    CLA  315   3.361   8.206   1.061
  134CLA    CLA  316   4.210   3.219   1.464
  135CLA    CLA  317   9.320   0.810   7.031
  136CLA    CLA  318   9.051   6.664   3.760
  137CLA    CLA  319   7.003   7.363   6.677
  138CLA    CLA  320   5.385   5.765   1.313
  139CLA    CLA  321   0.460   6.579   5.041
  140CLA    CLA  322   5.374   5.321   3.444
  141CLA    CLA  323   8.077   5.296   5.780
  142CLA    CLA  324   6.963   5.550   5.099
  143CLA    CLA  325   5.663   1.587   0.223
  144CLA    CLA  326   4.776   2.214   4.830
  145CLA    CLA  327   2.477   3.325   3.462
  146CLA    CLA  328   0.526   6.542   1.943
  147CLA    CLA  329   1.879   1.282   4.664
  148CLA    CLA  330   4.974   2.788   0.125
  149CLA    CLA  331   2.533   6.273   5.339
  150CLA    CLA  332   4.550   4.301   3.313
  151CLA    CLA  333   2.279   1.976   6.352
  152CLA    CLA  334   2.501   7.411   1.735
  153TIP3   OH2  335   0.468   5.828   3.996
  153TIP3    H1  336   0.492   5.846   3.905
  153TIP3    H2  337   0.498   5.905   4.044
  154TIP3   OH2  338   5.829   2.275   7.430
  154TIP3    H1  339   5.742   2.283   7.392
  154TIP3    H2  340   5.868   2.362   7.420
  155TIP3   OH2  341   6.462   2.223   3.193
  155TIP3    H1  342   6.443   2.268   3.276
  155TIP3    H2  343   6.551   2.189   3.203
  156TIP3   OH2  344   9.067   0.627   6.005
  156TIP3    H1  345   9.025   0.614   5.920
  156TIP3    H2  346   9.119   0.707   5.994
  157TIP3   OH2  347   2.704   5.344   0.182
  157TIP3    H1  348   2.771   5.332   0.249
  157TIP3    H2  349   2.632   5.288   0.210
  158TIP3   OH2  350   5.211   4.628   3.399
  158TIP3    H1  351   5.226   4.616   3.492
  158TIP3    H2  352   5.126   4.587   3.382
  159TIP3   OH2  353   4.729   7.254   4.780
  159TIP3    H1  354   4.680   7.197   4.840
  159TIP3    H2  355   4.767   7.194   4.716
  160TIP3   OH2  356   2.559   6.063   7.774
  160TIP3    H1  357   2.574   5.996   7.707
  160TIP3    H2  358   2.475   6.040   7.813
  161TIP3   OH2  359   3.959   5.271   1.163
  161TIP3    H1  360   3.909   5.266   1.244
  161TIP3    H2  361   3.904   5.227   1.098
  162TIP3   OH2  362   2.451   1.193   2.303
  162TIP3    H1  363   2.506   1.201   2.224
  162TIP3    H2  364   2.421   1.103   2.302
  163TIP3   OH2  365   7.228   6.925   6.514
  163TIP3    H1  366   7.229   6.830   6.521
  163TIP3    H2  367   7.200   6.955   6.600
  164TIP3   OH2  368   3.387   7.113   1.961
  164TIP3    H1  369   3.409   7.088   2.051
  164TIP3    H2  370   3.356   7.203   1.968
  165TIP3   OH2  371   4.119   7.561   0.758
  165TIP3    H1  372   4.183   7.490   0.761
  165TIP3    H2  373   4.150   7.619   0.689
  166TIP3   OH2  374   2.975   3.599   4.668
  166TIP3    H1  375   2.975   3.573   4.576
  166TIP3    H2  376   2.909   3.544   4.709
  167TIP3   OH2  377   8.764   2.675   1.589
  167TIP3    H1  378   8.819   2.662   1.666
  167TIP3    H2  379   8.695   2.610   1.597
  168TIP3   OH2  380   1.060   8.195   5.712
  168TIP3    H1  381   1.130   8.161   5.656
  168TIP3    H2  382   1.105   8.239   5.784
  169TIP3   OH2  383   0.619   0.498   2.783
  169TIP3    H1  384   0.532   0.458   2.774
  169TIP3    H2  385   0.628   0.514   2.877
  170TIP3   OH2  386   5.927   6.660   5.373
  170TIP3    H1  387   5.908   6.566   5.377
  170TIP3    H2  388   5.888   6.696   5.452
  171TIP3   OH2  389   3.445   7.506   5.693
  171TIP3    H1  390   3.414   7.431   5.642
  171TIP3    H2  391   3.522   7.537   5.644
  172TIP3   OH2  392   8.577   4.658   1.983
  172TIP3    H1  393   8.482   4.669   1.986
  172TIP3    H2  394   8.591   4.567   2.010
  173TIP3   OH2  395   4.571   5.286   6.550
  173TIP3    H1  396   4.491   5.236   6.563
  173TIP3    H2  397   4.641   5.221   6.554
  174TIP3   OH2  398   8.469   2.185   0.400
  174TIP3    H1  399   8.544   2.198   0.342
  174TIP3    H2  400   8.485   2.100   0.442
  175TIP3   OH2  401   8.214   5.022   6.622
  175TIP3    H1  402   8.235   5.000   6.713
  175TIP3    H2  403   8.298   5.041   6.581
  176TIP3   OH2  404   5.369   2.202   6.669
  176TIP3    H1  405   5.346   2.240   6.584
  176TIP3    H2  406   5.442   2.254   6.700
  177TIP3   OH2  407   5.311   7.272   2.870
  177TIP3    H1  408   5.375   7.319   2.817
  177TIP3    H2  409   5.242   7.336   2.888
  178TIP3   OH2  410   3.285   0.568   6.817
  178TIP3    H1  411   3.194   0.568   6.789
  178TIP3    H2  412   3.335   0.578   6.736
  179TIP3   OH2  413   4.180   7.347   4.907
  179TIP3    H1  414   4.148   7.262   4.879
  179TIP3    H2  415   4.131   7.410   4.854
  180TIP3   OH2  416   4.840   0.966   7.302
  180TIP3    H1  417   4.843   0.979   7.397
  180TIP3    H2  418   4.838   1.055   7.266
  181TIP3   OH2  419   0.596   3.972   1.453
  181TIP3    H1  420   0.661   3.915   1.410
  181TIP3    H2  421   0.645   4.052   1.473
  182TIP3   OH2  422   4.699   4.206   6.883
  182TIP3    H1  423   4.791   4.230   6.879
  182TIP3    H2  424   4.652   4.289   6.876
  183TIP3   OH2  425   7.035   7.602   4.356
  183TIP3    H1  426   7.123   7.637   4.369
  183TIP3    H2  427   7.049   7.511   4.329
  184TIP3   OH2  428   1.241   7.376   3.379
  184TIP3    H1  429   1.285   7.457   3.408
  184TIP3    H2  430   1.152   7.404   3.356
  185TIP3   OH2  431   3.849   4.106   5.955
  185TIP3    H1  432   3.877   4.191   5.922
  185TIP3    H2  433   3.871   4.045   5.885
  186TIP3   OH2  434   8.318   1.254   1.356
  186TIP3    H1  435   8.264   1.206   1.419
  186TIP3    H2  436   8.326   1.195   1.281
  187TIP3   OH2  437   1.918   7.066   4.970
  187TIP3    H1  438   1.875   7.070   5.055
  187TIP3    H2  439   1.854   7.023   4.913
  188TIP3   OH2  440   8.693   5.398   0.388
  188TIP3    H1  441   8.607   5.378   0.353
  188TIP3    H2  442   8.685   5.486   0.424
  189TIP3   OH2  443   6.097   5.008   1.759
  189TIP3    H1  444   6.181   4.974   1.729
  189TIP3    H2  445   6.066   5.062   1.686
  190TIP3   OH2  446   6.077   3.133   6.422
  190TIP3    H1  447   6.044   3.043   6.429
  190TIP3    H2  448   6.081   3.163   6.512
  191TIP3   OH2  449   3.817   7.507   7.697
  191TIP3    H1  450   3.797   7.600   7.689
  191TIP3    H2  451   3.764   7.477   7.771
  192TIP3   OH2  452   6.596   3.024   7.776
  192TIP3    H1  453   6.623   2.987   7.692
  192TIP3    H2  454   6.546   2.954   7.818
  193TIP3   OH2  455   7.306   8.014   4.478
  193TIP3    H1  456   7.379   7.960   4.448
  193TIP3    H2  457   7.332   8.104   4.457
  194TIP3   OH2  458   1.343   7.938   2.218
  194TIP3    H1  459   1.402   7.917   2.290
  194TIP3    H2  460   1.319   8.030   2.233
  195TIP3   OH2  461   6.674   6.440   4.610
  195TIP3    H1  462   6.710   6.526   4.631
  195TIP3    H2  463   6.735   6.378   4.648
  196TIP3   OH2  464   5.432   1.797   6.155
  196TIP3    H1  465   5.442   1.868   6.218
  196TIP3    H2  466   5.467   1.720   6.200
  197TIP3   OH2  467   1.254   2.005   1.207
  197TIP3    H1  468   1.230   2.090   1.172
  197TIP3    H2  469   1.325   2.022   1.269
  198TIP3   OH2  470   4.929   5.606   6.762
  198TIP3    H1  471   5.003   5.545   6.755
  198TIP3    H2  472   4.964   5.689   6.730
  199TIP3   OH2  473   7.851   3.720   1.502
  199TIP3    H1  474   7.877   3.630   1.523
  199TIP3    H2  475   7.871   3.769   1.582
  200TIP3   OH2  476   1.397   4.995   1.448
  200TIP3    H1  477   1.350   4.911   1.451
  200TIP3    H2  478   1.340   5.056   1.495
  201TIP3   OH2  479   5.848   0.118   3.602
  201TIP3    H1  480   5.821   0.099   3.692
  201TIP3    H2  481   5.924   0.175   3.610
  202TIP3   OH2  482   7.014   2.580   6.359
  202TIP3    H1  483   6.968   2.567   6.276
  202TIP3    H2  484   6.999   2.498   6.407
  203TIP3   OH2  485   8.083   2.212   4.684
  203TIP3    H1  486   8.173   2.180   4.687
  203TIP3    H2  487   8.066   2.243   4.773
  204TIP3   OH2  488   7.394   7.638   5.625
  204TIP3    H1  489   7.399   7.608   5.716
  204TIP3    H2  490   7.376   7.732   5.631
  205TIP3   OH2  491   6.044   0.441   6.574
  205TIP3    H1  492   6.005   0.364   6.534
  205TIP3    H2  493   6.098   0.479   6.504
  206TIP3   OH2  494   6.828   7.526   0.928
  206TIP3    H1  495   6.775   7.489   0.999
  206TIP3    H2  496   6.787   7.492   0.848
  207TIP3   OH2  497   2.100   6.356   5.208
  207TIP3    H1  498   2.019   6.335   5.255
  207TIP3    H2  499   2.156   6.398   5.274
  208TIP3   OH2  500   1.692   5.407   4.558
  208TIP3    H1  501   1.604   5.370   4.566
  208TIP3    H2  502   1.677   5.501   4.542
  209TIP3   OH2  503   4.907   0.988   7.556
  209TIP3    H1  504   5.001   1.003   7.557
  209TIP3    H2  505   4.870   1.059   7.608
  210TIP3   OH2  506   4.786   8.214   2.448
  210TIP3    H1  507   4.701   8.217   2.492
  210TIP3    H2  508   4.793   8.124   2.416
  211TIP3   OH2  509   1.160   4.785   3.069
  211TIP3    H1  510   1.157   4.699   3.113
  211TIP3    H2  511   1.198   4.843   3.134
  212TIP3   OH2  512   0.199   6.634   0.270
  212TIP3    H1  513   0.285   6.611   0.234
  212TIP3    H2  514   0.152   6.551   0.277
  213TIP3   OH2  515   2.379   5.523   6.117
  213TIP3    H1  516   2.314   5.581   6.076
  213TIP3    H2  517   2.386   5.449   6.057
  214TIP3   OH2  518   0.921   4.158   5.753
  214TIP3    H1  519   0.893   4.189   5.667
  214TIP3    H2  520   0.987   4.092   5.735
  215TIP3   OH2  521   3.652   8.516   6.970
  215TIP3    H1  522   3.626   8.424   6.964
  215TIP3    H2  523   3.573   8.565   6.948
  216TIP3   OH2  524   6.450   5.813   6.901
  216TIP3    H1  525   6.499   5.765   6.834
  216TIP3    H2  526   6.503   5.892   6.917
  217TIP3   OH2  527   7.679   8.697   5.841
  217TIP3    H1  528   7.693   8.750   5.919
  217TIP3    H2  529   7.736   8.621   5.853
  218TIP3   OH2  530   4.297   7.233   0.206
  218TIP3    H1  531   4.318   7.229   0.300
  218TIP3    H2  532   4.367   7.184   0.163
  219TIP3   OH2  533   4.041   4.373   2.296
  219TIP3    H1  534   4.066   4.446   2.239
  219TIP3    H2  535   3.970   4.408   2.350
  220TIP3   OH2  536   1.783   5.153   5.281
  220TIP3    H1  537   1.727   5.077   5.297
  220TIP3    H2  538   1.870   5.117   5.265
  221TIP3   OH2  539   2.072   5.898   3.073
  221TIP3    H1  540   1.994   5.953   3.075
  221TIP3    H2  541   2.124   5.932   3.000
  222TIP3   OH2  542   5.204   0.049   4.906
  222TIP3    H1  543   5.290   0.010   4.922
  222TIP3    H2  544   5.143  -0.025   4.912
  223TIP3   OH2  545   5.832   0.287   0.452
  223TIP3    H1  546   5.794   0.374   0.458
  223TIP3    H2  547   5.927   0.302   0.446
  224TIP3   OH2  548   2.960   1.646   1.654
  224TIP3    H1  549   3.012   1.725   1.663
  224TIP3    H2  550   2.890   1.655   1.719
  225TIP3   OH2  551   7.566   3.564   4.438
  225TIP3    H1  552   7.561   3.588   4.345
  225TIP3    H2  553   7.509   3.487   4.446
  226TIP3   OH2  554   2.823   2.104   2.776
  226TIP3    H1  555   2.886   2.034   2.790
  226TIP3    H2  556   2.830   2.159   2.854
  227TIP3   OH2  557   3.299   0.281   3.290
  227TIP3    H1  558   3.367   0.318   3.345
  227TIP3    H2  559   3.340   0.204   3.250
  228TIP3   OH2  560   0.913   0.425   2.996
  228TIP3    H1  561   0.843   0.490   3.000
  228TIP3    H2  562   0.868   0.343   2.976
  229TIP3   OH2  563   1.807   4.388   5.846
  229TIP3    H1  564   1.896   4.363   5.869
  229TIP3    H2  565   1.770   4.423   5.927
  230TIP3   OH2  566   5.560   5.679   1.070
  230TIP3    H1  567   5.521   5.600   1.033
  230TIP3    H2  568   5.499   5.706   1.139
  231TIP3   OH2  569   1.723   0.051   2.013
  231TIP3    H1  570   1.731   0.121   2.078
  231TIP3    H2  571   1.719   0.096   1.929
  232TIP3   OH2  572   0.098   3.216   5.422
  232TIP3    H1  573   0.054   3.233   5.338
  232TIP3    H2  574   0.190   3.239   5.405
  233TIP3   OH2  575   2.279   6.313   7.388
  233TIP3    H1  576   2.352   6.267   7.430
  233TIP3    H2  577   2.206   6.303   7.449
  234TIP3   OH2  578   1.295   8.324   1.792
  234TIP3    H1  579   1.232   8.355   1.858
  234TIP3    H2  580   1.308   8.232   1.814
  235TIP3   OH2  581   6.207   3.429   7.438
  235TIP3    H1  582   6.282   3.386   7.478
  235TIP3    H2  583   6.243   3.478   7.364
  236TIP3   OH2  584   8.201   2.641   0.580
  236TIP3    H1  585   8.178   2.660   0.489
  236TIP3    H2  586   8.263   2.568   0.574
  237TIP3   OH2  587   3.169   3.089   5.555
  237TIP3    H1  588   3.209   3.118   5.473
  237TIP3    H2  589   3.135   3.002   5.536
  238TIP3   OH2  590   3.302   7.736   5.627
  238TIP3    H1  591   3.366   7.665   5.627
  238TIP3    H2  592   3.250   7.722   5.706
  239TIP3   OH2  593   3.229   1.483   4.356
  239TIP3    H1  594   3.262   1.552   4.415
  239TIP3    H2  595   3.139   1.469   4.384
  240TIP3   OH2  596   4.284   2.498   0.956
  240TIP3    H1  597   4.266   2.416   1.001
  240TIP3    H2  598   4.377   2.514   0.971
  241TIP3   OH2  599   8.585   8.008   4.442
  241TIP3    H1  600   8.613   8.001   4.351
  241TIP3    H2  601   8.489   8.016   4.437
  242TIP3   OH2  602   7.815   5.316   5.962
  242TIP3    H1  603   7.745   5.253   5.948
  242TIP3    H2  604   7.886   5.286   5.905
  243TIP3   OH2  605   8.652   1.651   5.724
  243TIP3    H1  606   8.703   1.730   5.706
  243TIP3    H2  607   8.629   1.658   5.816
  244TIP3   OH2  608   0.449   1.041   2.959
  244TIP3    H1  609   0.483   1.097   2.890
  244TIP3    H2  610   0.398   1.100   3.015
  245TIP3   OH2  611   8.507   6.758   6.318
  245TIP3    H1  612   8.480   6.793   6.403
  245TIP3    H2  613   8.547   6.674   6.338
  246TIP3   OH2  614   6.527   5.020   2.095
  246TIP3    H1  615   6.514   4.951   2.160
  246TIP3    H2  616   6.469   5.091   2.124
  247TIP3   OH2  617   2.132   0.612   4.473
  247TIP3    H1  618   2.069   0.619   4.544
  247TIP3    H2  619   2.079   0.590   4.396
  248TIP3   OH2  620   4.600   8.821   2.416
  248TIP3    H1  621   4.678   8.773   2.391
  248TIP3    H2  622   4.570   8.862   2.334
  249TIP3   OH2  623   1.844   4.335   3.805
  249TIP3    H1  624   1.919   4.310   3.751
  249TIP3    H2  625   1.780   4.265   3.791
  250TIP3   OH2  626   7.758   0.330   1.558
  250TIP3    H1  627   7.695   0.260   1.572
  250TIP3    H2  628   7.733   0.369   1.474
  251TIP3   OH2  629   5.687   8.158   4.538
  251TIP3    H1  630   5.672   8.124   4.626
  251TIP3    H2  631   5.772   8.202   4.543
  252TIP3   OH2  632   6.620   0.775   2.089
  252TIP3    H1  633   6.528   0.750   2.094
  252TIP3    H2  634   6.647   0.787   2.181
  253TIP3   OH2  635   2.873   0.645   4.282
  253TIP3    H1  636   2.904   0.560   4.250
  253TIP3    H2  637   2.782   0.649   4.252
  254TIP3   OH2  638   0.581   1.855   5.374
  254TIP3    H1  639   0.673   1.855   5.401
  254TIP3    H2  640   0.561   1.946   5.356
  255TIP3   OH2  641   9.364   2.299   0.948
  255TIP3    H1  642   9.430   2.238   0.978
  255TIP3    H2  643   9.363   2.289   0.852
  256TIP3   OH2  644   8.157   5.843   3.686
  256TIP3    H1  645   8.221   5.893   3.737
  256TIP3    H2  646   8.194   5.841   3.598
  257TIP3   OH2  647   6.836   6.930   1.938
  257TIP3    H1  648   6.788   6.875   2.000
  257TIP3    H2  649   6.824   6.886   1.853
  258TIP3   OH2  650   0.395   5.535   7.152
  258TIP3    H1  651   0.365   5.610   7.203
  258TIP3    H2  652   0.322   5.514   7.094
  259TIP3   OH2  653   6.274   3.807   6.770
  259TIP3    H1  654   6.320   3.811   6.686
  259TIP3    H2  655   6.248   3.898   6.788
  260TIP3   OH2  656   4.540   5.690   5.288
  260TIP3    H1  657   4.464   5.635   5.270
  260TIP3    H2  658   4.615   5.637   5.259
  261TIP3   OH2  659   3.190   8.366   4.581
  261TIP3    H1  660   3.168   8.459   4.585
  261TIP3    H2  661   3.146   8.333   4.503
  262TIP3   OH2  662   6.056   2.783   4.106
  262TIP3    H1  663   6.060   2.727   4.028
  262TIP3    H2  664   6.090   2.867   4.075
  263TIP3   OH2  665   2.585   5.632   5.312
  263TIP3    H1  666   2.527   5.575   5.263
  263TIP3    H2  667   2.632   5.682   5.246
  264TIP3   OH2  668   7.976   6.120   7.743
  264TIP3    H1  669   8.010   6.103   7.655
  264TIP3    H2  670   7.941   6.209   7.738
  265TIP3   OH2  671   2.621   4.123   5.137
  265TIP3    H1  672   2.583   4.138   5.224
  265TIP3    H2  673   2.567   4.176   5.078
  266TIP3   OH2  674   8.368   0.784   1.048
  266TIP3    H1  675   8.351   0.693   1.071
  266TIP3    H2  676   8.455   0.783   1.008
  267TIP3   OH2  677   0.247   2.878   4.731
  267TIP3    H1  678   0.314   2.905   4.793
  267TIP3    H2  679   0.179   2.838   4.784
  268TIP3   OH2  680   7.491   5.250   0.437
  268TIP3    H1  681   7.535   5.182   0.488
  268TIP3    H2  682   7.424   5.203   0.387
  269TIP3   OH2  683   6.675   7.108   5.047
  269TIP3    H1  684   6.581   7.107   5.062
  269TIP3    H2  685   6.686   7.152   4.963
  270TIP3   OH2  686   9.372   8.538   6.011
  270TIP3    H1  687   9.379   8.454   5.966
  270TIP3    H2  688   9.282   8.540   6.045
  271TIP3   OH2  689   6.541   0.033   1.402
  271TIP3    H1  690   6.575   0.121   1.385
  271TIP3    H2  691   6.466   0.025   1.344
  272TIP3   OH2  692   0.458   8.385   6.705
  272TIP3    H1  693   0.411   8.461   6.670
  272TIP3    H2  694   0.487   8.338   6.628
  273TIP3   OH2  695   3.918   0.972   5.982
  273TIP3    H1  696   3.886   1.055   5.948
  273TIP3    H2  697   4.007   0.965   5.946
  274TIP3   OH2  698   6.960   3.101   1.326
  274TIP3    H1  699   6.941   3.135   1.239
  274TIP3    H2  700   6.896   3.031   1.339
  275TIP3   OH2  701   4.338   7.558   3.913
  275TIP3    H1  702   4.305   7.496   3.848
  275TIP3    H2  703   4.415   7.598   3.872
  276TIP3   OH2  704   7.917   2.303   5.562
  276TIP3    H1  705   7.989   2.332   5.507
  276TIP3    H2  706   7.957   2.282   5.646
  277TIP3   OH2  707   2.118   7.015   7.227
  277TIP3    H1  708   2.080   7.039   7.143
  277TIP3    H2  709   2.059   6.948   7.262
  278TIP3   OH2  710   0.113   6.345   1.689
  278TIP3    H1  711   0.177   6.412   1.713
  278TIP3    H2  712   0.100   6.355   1.595
  279TIP3   OH2  713   6.140   0.274   1.144
  279TIP3    H1  714   6.058   0.321   1.132
  279TIP3    H2  715   6.204   0.325   1.094
  280TIP3   OH2  716   2.696   2.859   1.421
  280TIP3    H1  717   2.740   2.885   1.502
  280TIP3    H2  718   2.647   2.937   1.393
  281TIP3   OH2  719   9.273   1.663   6.824
  281TIP3    H1  720   9.291   1.592   6.886
  281TIP3    H2  721   9.235   1.619   6.748
  282TIP3   OH2  722   8.834   4.481   4.978
  282TIP3    H1  723   8.753   4.430   4.975
  282TIP3    H2  724   8.855   4.498   4.886
  283TIP3   OH2  725   5.590   4.275   2.375
  283TIP3    H1  726   5.540   4.338   2.323
  283TIP3    H2  727   5.657   4.242   2.315
  284TIP3   OH2  728   7.014   0.566   2.699
  284TIP3    H1  729   7.054   0.558   2.785
  284TIP3    H2  730   7.087   0.563   2.638
  285TIP3   OH2  731   0.436   6.707   2.864
  285TIP3    H1  732   0.441   6.743   2.953
  285TIP3    H2  733   0.432   6.784   2.807
  286TIP3   OH2  734   8.810   8.675   2.340
  286TIP3    H1  735   8.806   8.581   2.326
  286TIP3    H2  736   8.893   8.702   2.300
  287TIP3   OH2  737   6.723   7.695   3.107
  287TIP3    H1  738   6.751   7.786   3.110
  287TIP3    H2  739   6.667   7.684   3.185
  288TIP3   OH2  740   1.459   4.801   5.399
  288TIP3    H1  741   1.466   4.856   5.477
  288TIP3    H2  742   1.512   4.846   5.334
  289TIP3   OH2  743   7.898   2.968   7.563
  289TIP3    H1  744   7.834   2.903   7.534
  289TIP3    H2  745   7.978   2.944   7.517
  290TIP3   OH2  746   2.086   3.177   0.595
  290TIP3    H1  747   2.086   3.196   0.689
  290TIP3    H2  748   2.066   3.084   0.590
  291TIP3   OH2  749   4.498   8.815   1.343
  291TIP3    H1  750   4.513   8.748   1.277
  291TIP3    H2  751   4.412   8.794   1.379
  292TIP3   OH2  752   0.938   0.803   2.318
  292TIP3    H1  753   0.999   0.729   2.316
  292TIP3    H2  754   0.977   0.868   2.260
  293TIP3   OH2  755   9.002   7.012   3.479
  293TIP3    H1  756   9.068   7.070   3.518
  293TIP3    H2  757   8.954   7.068   3.418
  294TIP3   OH2  758   2.757   8.756   0.493
  294TIP3    H1  759   2.722   8.835   0.536
  294TIP3    H2  760   2.852   8.764   0.502
  295TIP3   OH2  761   4.227   8.268   3.053
  295TIP3    H1  762   4.190   8.277   2.965
  295TIP3    H2  763   4.175   8.198   3.094
  296TIP3   OH2  764   3.450   1.076   2.877
  296TIP3    H1  765   3.478   1.136   2.946
  296TIP3    H2  766   3.370   1.116   2.843
  297TIP3   OH2  767   4.783   8.005   1.923
  297TIP3    H1  768   4.705   7.952   1.939
  297TIP3    H2  769   4.856   7.944   1.934
  298TIP3   OH2  770   3.934   1.413   5.730
  298TIP3    H1  771   4.012   1.436   5.680
  298TIP3    H2  772   3.923   1.485   5.793
  299TIP3   OH2  773   9.228   0.210   4.920
  299TIP3    H1  774   9.161   0.204   4.988
  299TIP3    H2  775   9.213   0.134   4.864
  300TIP3   OH2  776   3.203   0.443   6.019
  300TIP3    H1  777   3.278   0.495   5.989
  300TIP3    H2  778   3.144   0.506   6.060
  301TIP3   OH2  779   6.549   0.396   1.558
  301TIP3    H1  780   6.474   0.376   1.501
  301TIP3    H2  781   6.536   0.341   1.635
  302TIP3   OH2  782   1.557   5.667   1.595
  302TIP3    H1  783   1.536   5.760   1.604
  302TIP3    H2  784   1.644   5.658   1.634
  303TIP3   OH2  785   4.343   3.740   5.145
  303TIP3    H1  786   4.436   3.744   5.124
  303TIP3    H2  787   4.300   3.788   5.074
  304TIP3   OH2  788   3.477   4.224   1.594
  304TIP3    H1  789   3.451   4.260   1.509
  304TIP3    H2  790   3.561   4.265   1.613
  305TIP3   OH2  791   6.305   0.692   0.664
  305TIP3    H1  792   6.397   0.667   0.663
  305TIP3    H2  793   6.279   0.690   0.572
  306TIP3   OH2  794   5.714   2.464   4.389
  306TIP3    H1  795   5.630   2.427   4.364
  306TIP3    H2  796   5.742   2.514   4.312
  307TIP3   OH2  797   5.437   5.616   7.103
  307TIP3    H1  798   5.510   5.557   7.084
  307TIP3    H2  799   5.364   5.558   7.124
  308TIP3   OH2  800   0.004   4.170   4.398
  308TIP3    H1  801  -0.082   4.175   4.356
  308TIP3    H2  802   0.065   4.149   4.327
  309TIP3   OH2  803   1.798   6.770   0.142
  309TIP3    H1  804   1.814   6.864   0.147
  309TIP3    H2  805   1.883   6.732   0.120
  310TIP3   OH2  806   7.428   5.239   3.548
  310TIP3    H1  807   7.342   5.230   3.590
  310TIP3    H2  808   7.456   5.149   3.532
  311TIP3   OH2  809   3.328   6.038   2.845
  311TIP3    H1  810   3.296   5.948   2.849
  311TIP3    H2  811   3.403   6.039   2.906
  312TIP3   OH2  812   9.014   8.818   0.838
  312TIP3    H1  813   9.097   8.783   0.871
  312TIP3    H2  814   9.019   8.912   0.857
  313TIP3   OH2  815   5.483   7.452   2.764
  313TIP3    H1  816   5.496   7.492   2.678
  313TIP3    H2  817   5.480   7.526   2.825
  314TIP3   OH2  818   7.583   0.903   3.147
  314TIP3    H1  819   7.580   0.980   3.203
  314TIP3    H2  820   7.562   0.830   3.205
  315TIP3   OH2  821   6.942   1.778   1.642
  315TIP3    H1  822   6.977   1.691   1.662
  315TIP3    H2  823   6.860   1.760   1.595
  316TIP3   OH2  824   4.042   2.838   3.690
  316TIP3    H1  825   4.053   2.756   3.642
  316TIP3    H2  826   4.108   2.834   3.760
  317TIP3   OH2  827   4.306   1.175   0.334
  317TIP3    H1  828   4.349   1.096   0.304
  317TIP3    H2  829   4.233   1.144   0.388
  318TIP3   OH2  830   7.296   5.701   5.795
  318TIP3    H1  831   7.250   5.630   5.840
  318TIP3    H2  832   7.235   5.775   5.800
  319TIP3   OH2  833   6.069   3.840   3.422
  319TIP3    H1  834   6.037   3.791   3.498
  319TIP3    H2  835   5.995   3.842   3.362
  320TIP3   OH2  836   1.411   6.596   2.597
  320TIP3    H1  837   1.459   6.530   2.547
  320TIP3    H2  838   1.478   6.640   2.649
  321TIP3   OH2  839   7.810   0.735   3.849
  321TIP3    H1  840   7.794   0.704   3.938
  321TIP3    H2  841   7.754   0.680   3.794
  322TIP3   OH2  842   0.329   0.078   5.637
  322TIP3    H1  843   0.351   0.024   5.561
  322TIP3    H2  844   0.354   0.167   5.611
  323TIP3   OH2  845   3.796   1.823   3.172
  323TIP3    H1  846   3.709   1.854   3.199
  323TIP3    H2  847   3.849   1.831   3.252
  324TIP3   OH2  848   7.142   2.805   3.678
  324TIP3    H1  849   7.146   2.793   3.583
  324TIP3    H2  850   7.229   2.780   3.709
  325TIP3   OH2  851   8.256   2.671   2.595
  325TIP3    H1  852   8.204   2.659   2.516
  325TIP3    H2  853   8.336   2.620   2.579
  326TIP3   OH2  854   6.583   3.694   3.475
  326TIP3    H1  855   6.563   3.604   3.501
  326TIP3    H2  856   6.517   3.747   3.519
  327TIP3   OH2  857   3.937   3.545   4.364
  327TIP3    H1  858   3.926   3.526   4.271
  327TIP3    H2  859   3.897   3.631   4.375
  328TIP3   OH2  860   1.752   2.326   1.041
  328TIP3    H1  861   1.739   2.233   1.060
  328TIP3    H2  862   1.665   2.357   1.016
  329TIP3   OH2  863   2.105   3.490   3.074
  329TIP3    H1  864   2.147   3.425   3.131
  329TIP3    H2  865   2.153   3.571   3.092
  330TIP3   OH2  866   6.676   2.676   4.845
  330TIP3    H1  867   6.658   2.739   4.914
  330TIP3    H2  868   6.623   2.599   4.868
  331TIP3   OH2  869   4.381   4.833   4.606
  331TIP3    H1  870   4.388   4.743   4.639
  331TIP3    H2  871   4.447   4.882   4.655
  332TIP3   OH2  872   3.832   3.318   2.881
  332TIP3    H1  873   3.797   3.358   2.960
  332TIP3    H2  874   3.819   3.384   2.812
  333TIP3   OH2  875   5.988   5.215   0.986
  333TIP3    H1  876   5.987   5.265   0.904
  333TIP3    H2  877   5.996   5.124   0.958
  334TIP3   OH2  878   1.722   7.601   6.939
  334TIP3    H1  879   1.797   7.644   6.898
  334TIP3    H2  880   1.701   7.655   7.015
  335TIP3   OH2  881   4.327   2.918   7.595
  335TIP3    H1  882   4.328   2.844   7.534
  335TIP3    H2  883   4.418   2.949   7.595
  336TIP3   OH2  884   1.974   0.013   3.569
  336TIP3    H1  885   2.019   0.091   3.602
  336TIP3    H2  886   1.882   0.028   3.591
  337TIP3   OH2  887   1.314   4.974   6.411
  337TIP3    H1  888   1.306   4.879   6.416
  337TIP3    H2  889   1.225   5.007   6.422
  338TIP3   OH2  890   8.681   8.039   0.744
  338TIP3    H1  891   8.737   8.030   0.821
  338TIP3    H2  892   8.680   7.953   0.703
  339TIP3   OH2  893   7.225   2.659   1.693
  339TIP3    H1  894   7.227   2.574   1.650
  339TIP3    H2  895   7.298   2.657   1.754
  340TIP3   OH2  896   4.083   4.896   5.029
  340TIP3    H1  897   4.077   4.991   5.017
  340TIP3    H2  898   4.109   4.885   5.121
  341TIP3   OH2  899   0.481   5.693   2.273
  341TIP3    H1  900   0.509   5.776   2.235
  341TIP3    H2  901   0.547   5.630   2.243
  342TIP3   OH2  902   5.573   2.278   3.147
  342TIP3    H1  903   5.638   2.250   3.083
  342TIP3    H2  904   5.589   2.372   3.158
  343TIP3   OH2  905   3.247   2.491   6.091
  343TIP3    H1  906   3.233   2.557   6.023
  343TIP3    H2  907   3.336   2.461   6.077
  344TIP3   OH2  908   0.047   5.455   4.744
  344TIP3    H1  909   0.054   5.514   4.669
  344TIP3    H2  910   0.063   5.368   4.708
  345TIP3   OH2  911   7.675   4.317   2.242
  345TIP3    H1  912   7.681   4.398   2.292
  345TIP3    H2  913   7.607   4.266   2.286
  346TIP3   OH2  914   3.193   6.797   3.882
  346TIP3    H1  915   3.233   6.879   3.913
  346TIP3    H2  916   3.131   6.825   3.815
  347TIP3   OH2  917   0.972   5.912   1.072
  347TIP3    H1  918   1.066   5.915   1.053
  347TIP3    H2  919   0.936   5.852   1.006
  348TIP3   OH2  920   2.650   7.794   1.353
  348TIP3    H1  921   2.703   7.798   1.433
  348TIP3    H2  922   2.709   7.821   1.283
  349TIP3   OH2  923   4.932   8.576   7.052
  349TIP3    H1  924   4.868   8.569   7.123
  349TIP3    H2  925   4.980   8.494   7.056
  350TIP3   OH2  926   9.020   4.431   1.277
  350TIP3    H1  927   8.958   4.503   1.286
  350TIP3    H2  928   8.971   4.361   1.234
  351TIP3   OH2  929   6.486   0.842   1.729
  351TIP3    H1  930   6.531   0.904   1.786
  351TIP3    H2  931   6.423   0.896   1.680
  352TIP3   OH2  932   3.768   5.298   6.065
  352TIP3    H1  933   3.679   5.314   6.097
  352TIP3    H2  934   3.758   5.288   5.971
  353TIP3   OH2  935   8.766   7.000   3.230
  353TIP3    H1  936   8.810   6.921   3.198
  353TIP3    H2  937   8.674   6.975   3.237
  354TIP3   OH2  938   8.140   1.258   0.184
  354TIP3    H1  939   8.194   1.335   0.167
  354TIP3    H2  940   8.133   1.215   0.099
  355TIP3   OH2  941   8.033   7.721   1.275
  355TIP3    H1  942   8.002   7.678   1.355
  355TIP3    H2  943   8.090   7.792   1.306
  356TIP3   OH2  944   1.054   2.384   5.589
  356TIP3    H1  945   1.049   2.460   5.532
  356TIP3    H2  946   1.148   2.370   5.601
  357TIP3   OH2  947   5.623   9.007   1.487
  357TIP3    H1  948   5.599   8.932   1.542
  357TIP3    H2  949   5.686   9.056   1.540
  358TIP3   OH2  950   6.536   1.111   4.645
  358TIP3    H1  951   6.560   1.025   4.611
  358TIP3    H2  952   6.612   1.166   4.627
  359TIP3   OH2  953   4.092   2.523   5.487
  359TIP3    H1  954   4.043   2.603   5.509
  359TIP3    H2  955   4.075   2.464   5.560
  360TIP3   OH2  956   7.210   0.422   1.610
  360TIP3    H1  957   7.194   0.342   1.659
  360TIP3    H2  958   7.179   0.403   1.522
  361TIP3   OH2  959   8.353   6.169   4.852
  361TIP3    H1  960   8.422   6.159   4.786
  361TIP3    H2  961   8.347   6.263   4.866
  362TIP3   OH2  962   2.076   0.599   1.599
  362TIP3    H1  963   2.121   0.520   1.629
  362TIP3    H2  964   2.081   0.659   1.673
  363TIP3   OH2  965   5.527   1.201   6.228
  363TIP3    H1  966   5.464   1.274   6.224
  363TIP3    H2  967   5.594   1.232   6.289
  364TIP3   OH2  968   5.162   6.663   6.931
  364TIP3    H1  969   5.068   6.683   6.929
  364TIP3    H2  970   5.176   6.619   7.014
  365TIP3   OH2  971   2.376   0.334   2.775
  365TIP3    H1  972   2.453   0.385   2.798
  365TIP3    H2  973   2.397   0.295   2.690
  366TIP3   OH2  974   6.328   2.865   6.313
  366TIP3    H1  975   6.278   2.787   6.335
  366TIP3    H2  976   6.417   2.833   6.296
  367TIP3   OH2  977   7.998   4.113   1.866
  367TIP3    H1  978   8.003   4.176   1.794
  367TIP3    H2  979   7.975   4.165   1.942
  368TIP3   OH2  980   5.541   5.557   6.019
  368TIP3    H1  981   5.596   5.480   6.018
  368TIP3    H2  982   5.573   5.610   6.092
  369TIP3   OH2  983   6.769   2.842   2.151
  369TIP3    H1  984   6.795   2.924   2.192
  369TIP3    H2  985   6.764   2.779   2.224
  370TIP3   OH2  986   2.804   7.532   5.692
  370TIP3    H1  987   2.858   7.575   5.625
  370TIP3    H2  988   2.861   7.526   5.769
  371TIP3   OH2  989   8.037   8.431   2.474
  371TIP3    H1  990   7.952   8.469   2.451
  371TIP3    H2  991   8.022   8.337   2.476
  372TIP3   OH2  992   3.646   0.505   2.914
  372TIP3    H1  993   3.649   0.472   3.004
  372TIP3    H2  994   3.585   0.578   2.918
  373TIP3   OH2  995   4.390   3.506   0.230
  373TIP3    H1  996   4.471   3.470   0.266
  373TIP3    H2  997   4.400   3.601   0.238
  374TIP3   OH2  998   5.740   6.747   5.600
  374TIP3    H1  999   5.648   6.774   5.598
  374TIP3    H2 1000   5.762   6.743   5.693
  375TIP3   OH2 1001   1.402   0.736   1.827
  375TIP3    H1 1002   1.361   0.660   1.785
  375TIP3    H2 1003   1.421   0.796   1.755
  376TIP3   OH2 1004   1.756   4.087   3.714
  376TIP3    H1 1005   1.697   4.021   3.751
  376TIP3    H2 1006   1.841   4.043   3.711
  377TIP3   OH2 1007   6.993   5.481   3.553
  377TIP3    H1 1008   6.922   5.434   3.597
  377TIP3    H2 1009   7.011   5.556   3.610
  378TIP3   OH2 1010   1.277   0.207   7.511
  378TIP3    H1 1011   1.219   0.153   7.458
  378TIP3    H2 1012   1.364   0.172   7.495
  379TIP3   OH2 1013   5.803   4.563   7.112
  379TIP3    H1 1014   5.879   4.610   7.145
  379TIP3    H2 1015   5.835   4.512   7.038
  380TIP3   OH2 1016   2.396   7.285   3.790
  380TIP3    H1 1017   2.346   7.359   3.757
  380TIP3    H2 1018   2.483   7.320   3.808
  381TIP3   OH2 1019   2.543   0.628   3.748
  381TIP3    H1 1020   2.503   0.550   3.786
  381TIP3    H2 1021   2.495   0.642   3.666
  382TIP3   OH2 1022   3.153   8.884   2.599
  382TIP3    H1 1023   3.143   8.802   2.646
  382TIP3    H2 1024   3.224   8.868   2.537
  383TIP3   OH2 1025   9.071   4.674   6.830
  383TIP3    H1 1026   9.051   4.601   6.889
  383TIP3    H2 1027   9.104   4.631   6.750
  384TIP3   OH2 1028   4.348   7.264   2.669
  384TIP3    H1 1029   4.441   7.268   2.692
  384TIP3    H2 1030   4.336   7.176   2.633
  385TIP3   OH2 1031   0.889   8.955   3.971
  385TIP3    H1 1032   0.977   8.988   3.984
  385TIP3    H2 1033   0.833   9.033   3.971
  386TIP3   OH2 1034   1.685   2.819   6.806
  386TIP3    H1 1035   1.764   2.795   6.854
  386TIP3    H2 1036   1.672   2.748   6.743
  387TIP3   OH2 1037   5.881   6.811   7.667
  387TIP3    H1 1038   5.891   6.738   7.727
  387TIP3    H2 1039   5.794   6.799   7.628
  388TIP3   OH2 1040   8.421   6.489   7.802
  388TIP3    H1 1041   8.341   6.493   7.854
  388TIP3    H2 1042   8.428   6.398   7.775
  389TIP3   OH2 1043   4.291   0.098   6.812
  389TIP3    H1 1044   4.386   0.093   6.813
  389TIP3    H2 1045   4.264   0.047   6.889
  390TIP3   OH2 1046   0.881   3.691   6.486
  390TIP3    H1 1047   0.813   3.731   6.432
  390TIP3    H2 1048   0.839   3.678   6.571
  391TIP3   OH2 1049   6.474   0.555   6.870
  391TIP3    H1 1050   6.490   0.468   6.833
  391TIP3    H2 1051   6.451   0.609   6.795
  392TIP3   OH2 1052   7.762   4.721   1.159
  392TIP3    H1 1053   7.832   4.710   1.224
  392TIP3    H2 1054   7.764   4.814   1.139
  393TIP3   OH2 1055   5.113   4.217   3.365
  393TIP3    H1 1056   5.024   4.249   3.382
  393TIP3    H2 1057   5.100   4.142   3.307
  394TIP3   OH2 1058   2.356   5.552   2.475
  394TIP3    H1 1059   2.304   5.537   2.395
  394TIP3    H2 1060   2.380   5.464   2.504
  395TIP3   OH2 1061   4.412   2.656   7.461
  395TIP3    H1 1062   4.443   2.578   7.415
  395TIP3    H2 1063   4.410   2.631   7.553
  396TIP3   OH2 1064   2.691   0.109   0.363
  396TIP3    H1 1065   2.595   0.103   0.359
  396TIP3    H2 1066   2.716   0.045   0.429
  397TIP3   OH2 1067   2.150   2.517   3.911
  397TIP3    H1 1068   2.089   2.543   3.980
  397TIP3    H2 1069   2.216   2.586   3.911
  398TIP3   OH2 1070   1.088   5.135   1.081
  398TIP3    H1 1071   1.166   5.081   1.094
  398TIP3    H2 1072   1.044   5.134   1.166
  399TIP3   OH2 1073   7.849   7.324   5.090
  399TIP3    H1 1074   7.933   7.367   5.076
  399TIP3    H2 1075   7.854   7.290   5.179
  400TIP3   OH2 1076   5.221   1.919   5.692
  400TIP3    H1 1077   5.176   2.004   5.693
  400TIP3    H2 1078   5.269   1.916   5.775
  401TIP3   OH2 1079   2.965   7.394   3.302
  401TIP3    H1 1080   2.956   7.327   3.235
  401TIP3    H2 1081   2.991   7.346   3.380
  402TIP3   OH2 1082   6.112   4.708   0.493
  402TIP3    H1 1083   6.062   4.739   0.417
  402TIP3    H2 1084   6.201   4.697   0.460
  403TIP3   OH2 1085   7.029   5.117   2.132
  403TIP3    H1 1086   7.061   5.028   2.116
  403TIP3    H2 1087   6.938   5.116   2.102
  404TIP3   OH2 1088   5.418   2.934   1.916
  404TIP3    H1 1089   5.507   2.965   1.900
  404TIP3    H2 1090   5.380   2.920   1.829
  405TIP3   OH2 1091   7.264   3.718   2.783
  405TIP3    H1 1092   7.346   3.727   2.734
  405TIP3    H2 1093   7.265   3.788   2.847
  406TIP3   OH2 1094   8.333   7.677   3.479
  406TIP3    H1 1095   8.276   7.607   3.512
  406TIP3    H2 1096   8.340   7.739   3.552
  407TIP3   OH2 1097   8.268   4.920   7.778
  407TIP3    H1 1098   8.222   4.880   7.852
  407TIP3    H2 1099   8.329   4.981   7.818
  408TIP3   OH2 1100   9.078   1.546   4.028
  408TIP3    H1 1101   9.089   1.479   4.095
  408TIP3    H2 1102   9.134   1.618   4.056
  409TIP3   OH2 1103   3.579   6.365   2.030
  409TIP3    H1 1104   3.618   6.426   1.967
  409TIP3    H2 1105   3.498   6.336   1.988
  410TIP3   OH2 1106   6.208   4.214   7.800
  410TIP3    H1 1107   6.258   4.143   7.760
  410TIP3    H2 1108   6.210   4.195   7.894
  411TIP3   OH2 1109   8.124   4.557   6.395
  411TIP3    H1 1110   8.100   4.647   6.419
  411TIP3    H2 1111   8.218   4.551   6.414
  412TIP3   OH2 1112   6.145   6.048   0.414
  412TIP3    H1 1113   6.204   6.003   0.475
  412TIP3    H2 1114   6.187   6.038   0.329
  413TIP3   OH2 1115   3.681   3.155   5.763
  413TIP3    H1 1116   3.697   3.139   5.670
  413TIP3    H2 1117   3.616   3.225   5.765
  414TIP3   OH2 1118   1.119   0.602   6.199
  414TIP3    H1 1119   1.163   0.537   6.254
  414TIP3    H2 1120   1.189   0.663   6.175
  415TIP3   OH2 1121   2.100   1.421   1.863
  415TIP3    H1 1122   2.182   1.407   1.911
  415TIP3    H2 1123   2.127   1.459   1.780
  416TIP3   OH2 1124   1.172   1.421   1.955
  416TIP3    H1 1125   1.221   1.387   1.881
  416TIP3    H2 1126   1.226   1.494   1.988
  417TIP3   OH2 1127   5.112   6.962   7.019
  417TIP3    H1 1128   5.019   6.957   7.042
  417TIP3    H2 1129   5.112   6.981   6.925
  418TIP3   OH2 1130   1.661   8.869   3.152
  418TIP3    H1 1131   1.602   8.870   3.227
  418TIP3    H2 1132   1.669   8.961   3.127
  419TIP3   OH2 1133   1.396   5.255   5.249
  419TIP3    H1 1134   1.304   5.242   5.267
  419TIP3    H2 1135   1.431   5.167   5.232
  420TIP3   OH2 1136   7.160   9.003   4.886
  420TIP3    H1 1137   7.158   8.963   4.972
  420TIP3    H2 1138   7.069   9.024   4.866
  421TIP3   OH2 1139   3.728   8.877   0.440
  421TIP3    H1 1140   3.707   8.828   0.519
  421TIP3    H2 1141   3.773   8.814   0.384
  422TIP3   OH2 1142   5.207   2.990   7.663
  422TIP3    H1 1143   5.276   3.032   7.612
  422TIP3    H2 1144   5.132   3.048   7.657
  423TIP3   OH2 1145   6.208   0.348   5.997
  423TIP3    H1 1146   6.132   0.406   5.983
  423TIP3    H2 1147   6.171   0.260   6.002
  424TIP3   OH2 1148   0.461   3.694   0.003
  424TIP3    H1 1149   0.524   3.728   0.068
  424TIP3    H2 1150   0.376   3.725   0.034
  425TIP3   OH2 1151   7.206   6.897   4.053
  425TIP3    H1 1152   7.163   6.910   3.968
  425TIP3    H2 1153   7.137   6.914   4.117
  426TIP3   OH2 1154   8.509   2.995   2.671
  426TIP3    H1 1155   8.546   2.990   2.759
  426TIP3    H2 1156   8.486   3.087   2.660
  427TIP3   OH2 1157   7.687   6.610   5.609
  427TIP3    H1 1158   7.669   6.549   5.680
  427TIP3    H2 1159   7.780   6.630   5.617
  428TIP3   OH2 1160   7.508   5.906   2.213
  428TIP3    H1 1161   7.476   5.939   2.297
  428TIP3    H2 1162   7.564   5.976   2.179
  429TIP3   OH2 1163   8.169   1.695   7.291
  429TIP3    H1 1164   8.180   1.701   7.386
  429TIP3    H2 1165   8.180   1.602   7.272
  430TIP3   OH2 1166   2.481   5.854   6.077
  430TIP3    H1 1167   2.498   5.850   6.172
  430TIP3    H2 1168   2.398   5.808   6.066
  431TIP3   OH2 1169   5.740   6.047   5.367
  431TIP3    H1 1170   5.788   5.964   5.366
  431TIP3    H2 1171   5.751   6.081   5.278
  432TIP3   OH2 1172   4.412   1.823   1.543
  432TIP3    H1 1173   4.372   1.861   1.464
  432TIP3    H2 1174   4.340   1.776   1.585
  433TIP3   OH2 1175   6.358   0.752   2.381
  433TIP3    H1 1176   6.380   0.734   2.290
  433TIP3    H2 1177   6.262   0.744   2.384
  434TIP3   OH2 1178   2.327   7.056   6.866
  434TIP3    H1 1179   2.379   7.022   6.939
  434TIP3    H2 1180   2.393   7.088   6.804
  435TIP3   OH2 1181   4.490   3.506   5.487
  435TIP3    H1 1182   4.518   3.443   5.554
  435TIP3    H2 1183   4.452   3.452   5.418
  436TIP3   OH2 1184   1.713   3.464   5.716
  436TIP3    H1 1185   1.743   3.505   5.797
  436TIP3    H2 1186   1.635   3.414   5.741
  437TIP3   OH2 1187   1.184   0.207   5.778
  437TIP3    H1 1188   1.161   0.292   5.815
  437TIP3    H2 1189   1.204   0.153   5.855
  438TIP3   OH2 1190   7.025   6.690   2.683
  438TIP3    H1 1191   6.961   6.639   2.634
  438TIP3    H2 1192   6.975   6.729   2.754
  439TIP3   OH2 1193   7.459   6.010   5.262
  439TIP3    H1 1194   7.520   6.010   5.336
  439TIP3    H2 1195   7.417   6.096   5.266
  440TIP3   OH2 1196   6.195   1.254   6.818
  440TIP3    H1 1197   6.249   1.227   6.744
  440TIP3    H2 1198   6.112   1.207   6.805
  441TIP3   OH2 1199   6.477   1.263   0.782
  441TIP3    H1 1200   6.412   1.242   0.848
  441TIP3    H2 1201   6.546   1.198   0.794
  442TIP3   OH2 1202   2.442   2.765   2.983
  442TIP3    H1 1203   2.484   2.849   3.002
  442TIP3    H2 1204   2.508   2.699   3.006
  443TIP3   OH2 1205   7.656   5.837   6.862
  443TIP3    H1 1206   7.689   5.838   6.951
  443TIP3    H2 1207   7.729   5.804   6.810
  444TIP3   OH2 1208   9.556   1.390   5.700
  444TIP3    H1 1209   9.483   1.393   5.761
  444TIP3    H2 1210   9.614   1.321   5.734
  445TIP3   OH2 1211   2.901   0.490   5.657
  445TIP3    H1 1212   2.857   0.574   5.645
  445TIP3    H2 1213   2.830   0.426   5.665
  446TIP3   OH2 1214   7.740   3.041   6.834
  446TIP3    H1 1215   7.808   2.985   6.796
  446TIP3    H2 1216   7.786   3.119   6.865
  447TIP3   OH2 1217   5.580   3.370   1.539
  447TIP3    H1 1218   5.527   3.432   1.589
  447TIP3    H2 1219   5.552   3.383   1.448
  448TIP3   OH2 1220   8.056   0.493   0.435
  448TIP3    H1 1221   8.131   0.550   0.450
  448TIP3    H2 1222   7.985   0.534   0.484
  449TIP3   OH2 1223   7.308   4.667   2.411
  449TIP3    H1 1224   7.286   4.697   2.323
  449TIP3    H2 1225   7.302   4.571   2.406
  450TIP3   OH2 1226   9.197   5.586   4.738
  450TIP3    H1 1227   9.111   5.572   4.698
  450TIP3    H2 1228   9.180   5.581   4.833
  451TIP3   OH2 1229   7.182   6.432   0.424
  451TIP3    H1 1230   7.202   6.351   0.471
  451TIP3    H2 1231   7.267   6.474   0.412
  452TIP3   OH2 1232   8.424   7.017   7.711
  452TIP3    H1 1233   8.391   7.101   7.679
  452TIP3    H2 1234   8.510   7.008   7.671
  453TIP3   OH2 1235   1.363   7.352   6.676
  453TIP3    H1 1236   1.363   7.418   6.607
  453TIP3    H2 1237   1.274   7.353   6.710
  454TIP3   OH2 1238   9.140   6.972   2.955
  454TIP3    H1 1239   9.143   6.911   2.881
  454TIP3    H2 1240   9.105   6.919   3.027
  455TIP3   OH2 1241   0.558   6.687   4.347
  455TIP3    H1 1242   0.578   6.653   4.434
  455TIP3    H2 1243   0.541   6.780   4.361
  456TIP3   OH2 1244   2.104   8.459   4.392
  456TIP3    H1 1245   2.054   8.511   4.330
  456TIP3    H2 1246   2.063   8.373   4.391
  457TIP3   OH2 1247   1.813   4.090   4.475
  457TIP3    H1 1248   1.742   4.063   4.417
  457TIP3    H2 1249   1.892   4.060   4.431
  458TIP3   OH2 1250   7.043   0.804   4.872
  458TIP3    H1 1251   6.965   0.859   4.862
  458TIP3    H2 1252   7.064   0.810   4.965
  459TIP3   OH2 1253   9.420   3.358   4.439
  459TIP3    H1 1254   9.452   3.286   4.385
  459TIP3    H2 1255   9.429   3.436   4.384
  460TIP3   OH2 1256   4.306   4.054   1.438
  460TIP3    H1 1257   4.351   4.028   1.358
  460TIP3    H2 1258   4.226   4.097   1.408
  461TIP3   OH2 1259   2.629   1.147   2.570
  461TIP3    H1 1260   2.591   1.102   2.495
  461TIP3    H2 1261   2.603   1.094   2.645
  462TIP3   OH2 1262   2.496   4.183   6.004
  462TIP3    H1 1263   2.421   4.125   5.991
  462TIP3    H2 1264   2.510   4.225   5.919
  463TIP3   OH2 1265   0.673   6.259   2.825
  463TIP3    H1 1266   0.624   6.338   2.802
  463TIP3    H2 1267   0.764   6.287   2.824
  464TIP3   OH2 1268   3.795   6.553   2.548
  464TIP3    H1 1269   3.767   6.625   2.492
  464TIP3    H2 1270   3.870   6.514   2.502
  465TIP3   OH2 1271   8.813   3.711   5.703
  465TIP3    H1 1272   8.865   3.755   5.771
  465TIP3    H2 1273   8.771   3.638   5.748
  466TIP3   OH2 1274   4.258   6.801   7.405
  466TIP3    H1 1275   4.266   6.780   7.498
  466TIP3    H2 1276   4.282   6.720   7.360
  467TIP3   OH2 1277   5.481   0.950   5.754
  467TIP3    H1 1278   5.492   0.980   5.845
  467TIP3    H2 1279   5.499   1.028   5.701
  468TIP3   OH2 1280   2.862   0.811   4.547
  468TIP3    H1 1281   2.797   0.741   4.538
  468TIP3    H2 1282   2.933   0.785   4.489
  469TIP3   OH2 1283   2.758   0.220   1.140
  469TIP3    H1 1284   2.735   0.200   1.230
  469TIP3    H2 1285   2.686   0.184   1.088
  470TIP3   OH2 1286   0.179   1.082   3.980
  470TIP3    H1 1287   0.146   1.008   4.031
  470TIP3    H2 1288   0.268   1.056   3.954
  471TIP3   OH2 1289   5.965   2.721   0.338
  471TIP3    H1 1290   5.893   2.678   0.385
  471TIP3    H2 1291   5.927   2.743   0.253
  472TIP3   OH2 1292   3.857   0.995   2.864
  472TIP3    H1 1293   3.853   0.900   2.861
  472TIP3    H2 1294   3.950   1.016   2.850
  473TIP3   OH2 1295   8.060   1.381   2.831
  473TIP3    H1 1296   8.130   1.424   2.881
  473TIP3    H2 1297   8.036   1.444   2.763
  474TIP3   OH2 1298   0.184   5.561   1.428
  474TIP3    H1 1299   0.167   5.529   1.340
  474TIP3    H2 1300   0.256   5.623   1.418
  475TIP3   OH2 1301   7.635   1.486   6.497
  475TIP3    H1 1302   7.555   1.538   6.510
  475TIP3    H2 1303   7.632   1.461   6.404
  476TIP3   OH2 1304   6.672   0.302   4.626
  476TIP3    H1 1305   6.714   0.371   4.575
  476TIP3    H2 1306   6.596   0.277   4.573
  477TIP3   OH2 1307   0.164   5.312   7.291
  477TIP3    H1 1308   0.148   5.269   7.375
  477TIP3    H2 1309   0.082   5.357   7.271
  478TIP3   OH2 1310   6.946   0.519   3.806
  478TIP3    H1 1311   6.995   0.454   3.756
  478TIP3    H2 1312   6.967   0.602   3.763
  479TIP3   OH2 1313   2.522   4.830   0.081
  479TIP3    H1 1314   2.435   4.847   0.117
  479TIP3    H2 1315   2.582   4.872   0.142
  480TIP3   OH2 1316   7.133   5.234   7.002
  480TIP3    H1 1317   7.050   5.270   6.969
  480TIP3    H2 1318   7.121   5.139   6.996
  481TIP3   OH2 1319   1.575   5.037   0.937
  481TIP3    H1 1320   1.498   4.983   0.955
  481TIP3    H2 1321   1.545   5.127   0.952
  482TIP3   OH2 1322   2.772   8.299   3.908
  482TIP3    H1 1323   2.864   8.271   3.904
  482TIP3    H2 1324   2.776   8.394   3.902
  483TIP3   OH2 1325   7.875   3.663   5.717
  483TIP3    H1 1326   7.915   3.750   5.717
  483TIP3    H2 1327   7.929   3.612   5.777
  484TIP3   OH2 1328   5.790   7.944   7.454
  484TIP3    H1 1329   5.804   7.939   7.549
  484TIP3    H2 1330   5.779   7.853   7.427
  485TIP3   OH2 1331   4.197   7.741   5.189
  485TIP3    H1 1332   4.199   7.769   5.281
  485TIP3    H2 1333   4.250   7.661   5.187
  486TIP3   OH2 1334   2.773   0.984   5.950
  486TIP3    H1 1335   2.864   0.983   5.921
  486TIP3    H2 1336   2.735   0.905   5.911
  487TIP3   OH2 1337   0.838   7.962   1.666
  487TIP3    H1 1338   0.932   7.960   1.681
  487TIP3    H2 1339   0.825   7.916   1.583
  488TIP3   OH2 1340   3.447   3.426   5.277
  488TIP3    H1 1341   3.506   3.469   5.338
  488TIP3    H2 1342   3.389   3.496   5.246
  489TIP3   OH2 1343   2.634   5.319   1.276
  489TIP3    H1 1344   2.572   5.277   1.336
  489TIP3    H2 1345   2.616   5.278   1.191
  490TIP3   OH2 1346   8.370   7.618   1.450
  490TIP3    H1 1347   8.300   7.629   1.515
  490TIP3    H2 1348   8.450   7.609   1.501
  491TIP3   OH2 1349   2.860   8.917   6.539
  491TIP3    H1 1350   2.882   8.904   6.631
  491TIP3    H2 1351   2.806   8.841   6.516
  492TIP3   OH2 1352   6.744   5.067   7.660
  492TIP3    H1 1353   6.779   5.140   7.711
  492TIP3    H2 1354   6.801   4.993   7.682
  493TIP3   OH2 1355   0.054   2.210   6.015
  493TIP3    H1 1356   0.067   2.156   5.936
  493TIP3    H2 1357   0.006   2.153   6.075
  494TIP3   OH2 1358   9.313   5.972   7.042
  494TIP3    H1 1359   9.317   5.973   7.137
  494TIP3    H2 1360   9.220   5.965   7.022
  495TIP3   OH2 1361   6.637   6.927   5.438
  495TIP3    H1 1362   6.655   6.886   5.523
  495TIP3    H2 1363   6.546   6.958   5.446
  496TIP3   OH2 1364   4.337   5.986   7.081
  496TIP3    H1 1365   4.431   5.990   7.097
  496TIP3    H2 1366   4.324   5.900   7.039
  497TIP3   OH2 1367   6.109   2.079   4.300
  497TIP3    H1 1368   6.056   1.999   4.296
  497TIP3    H2 1369   6.066   2.140   4.239
  498TIP3   OH2 1370   3.507   2.359   3.139
  498TIP3    H1 1371   3.529   2.421   3.209
  498TIP3    H2 1372   3.591   2.323   3.111
  499TIP3   OH2 1373   9.388   0.763   1.327
  499TIP3    H1 1374   9.433   0.844   1.352
  499TIP3    H2 1375   9.309   0.761   1.380
  500TIP3   OH2 1376   1.877   0.813   7.205
  500TIP3    H1 1377   1.971   0.830   7.210
  500TIP3    H2 1378   1.868   0.751   7.132
  501TIP3   OH2 1379   9.555   7.029   4.442
  501TIP3    H1 1380   9.549   6.993   4.530
  501TIP3    H2 1381   9.487   7.096   4.439
  502TIP3   OH2 1382   0.366   3.322   5.664
  502TIP3    H1 1383   0.356   3.368   5.581
  502TIP3    H2 1384   0.424   3.379   5.716
  503TIP3   OH2 1385   3.926   7.544   0.972
  503TIP3    H1 1386   3.996   7.559   0.909
  503TIP3    H2 1387   3.970   7.546   1.057
  504TIP3   OH2 1388   2.737   1.464   5.887
  504TIP3    H1 1389   2.686   1.544   5.873
  504TIP3    H2 1390   2.673   1.394   5.881
  505TIP3   OH2 1391   5.909   4.465   2.229
  505TIP3    H1 1392   6.001   4.466   2.255
  505TIP3    H2 1393   5.875   4.382   2.261
  506TIP3   OH2 1394   2.883   3.239   0.398
  506TIP3    H1 1395   2.955   3.228   0.336
  506TIP3    H2 1396   2.919   3.295   0.467
  507TIP3   OH2 1397   2.507   5.197   3.966
  507TIP3    H1 1398   2.456   5.116   3.962
  507TIP3    H2 1399   2.578   5.184   3.903
  508TIP3   OH2 1400   5.043   4.154   5.807
  508TIP3    H1 1401   5.000   4.210   5.743
  508TIP3    H2 1402   5.005   4.180   5.891
  509TIP3   OH2 1403   1.098   2.165   0.189
  509TIP3    H1 1404   1.029   2.192   0.250
  509TIP3    H2 1405   1.068   2.080   0.155
  510TIP3   OH2 1406   6.178   4.775   1.168
  510TIP3    H1 1407   6.194   4.816   1.253
  510TIP3    H2 1408   6.183   4.681   1.184
  511TIP3   OH2 1409   0.906   7.643   4.556
  511TIP3    H1 1410   0.963   7.567   4.546
  511TIP3    H2 1411   0.913   7.665   4.649
  512TIP3   OH2 1412   2.912   4.626   3.777
  512TIP3    H1 1413   2.946   4.638   3.866
  512TIP3    H2 1414   2.818   4.642   3.785
  513TIP3   OH2 1415   9.201   1.088   7.510
  513TIP3    H1 1416   9.233   1.087   7.600
  513TIP3    H2 1417   9.176   1.179   7.496
  514TIP3   OH2 1418   3.510   1.066   1.080
  514TIP3    H1 1419   3.560   0.985   1.072
  514TIP3    H2 1420   3.419   1.039   1.073
  515TIP3   OH2 1421   8.405   5.145   0.436
  515TIP3    H1 1422   8.346   5.219   0.432
  515TIP3    H2 1423   8.388   5.095   0.356
  516TIP3   OH2 1424   2.650   5.819   1.125
  516TIP3    H1 1425   2.669   5.727   1.144
  516TIP3    H2 1426   2.556   5.826   1.135
  517TIP3   OH2 1427   8.914   5.618   5.361
  517TIP3    H1 1428   8.820   5.601   5.374
  517TIP3    H2 1429   8.952   5.609   5.448
  518TIP3   OH2 1430   4.844   0.997   3.228
  518TIP3    H1 1431   4.820   1.028   3.141
  518TIP3    H2 1432   4.847   1.076   3.282
  519TIP3   OH2 1433   6.745   8.977   1.170
  519TIP3    H1 1434   6.785   9.053   1.128
  519TIP3    H2 1435   6.652   8.985   1.151
  520TIP3   OH2 1436   2.492   2.738   0.114
  520TIP3    H1 1437   2.454   2.651   0.120
  520TIP3    H2 1438   2.457   2.775   0.033
  521TIP3   OH2 1439   5.335   1.433   5.790
  521TIP3    H1 1440   5.248   1.397   5.808
  521TIP3    H2 1441   5.319   1.520   5.755
  522TIP3   OH2 1442   2.207   8.075   0.752
  522TIP3    H1 1443   2.241   8.164   0.761
  522TIP3    H2 1444   2.284   8.020   0.744
  523TIP3   OH2 1445   6.513   3.615   1.050
  523TIP3    H1 1446   6.514   3.616   1.146
  523TIP3    H2 1447   6.451   3.546   1.028
  524TIP3   OH2 1448   2.426   3.368   1.526
  524TIP3    H1 1449   2.465   3.358   1.613
  524TIP3    H2 1450   2.464   3.449   1.492
  525TIP3   OH2 1451   5.866   7.623   2.499
  525TIP3    H1 1452   5.797   7.661   2.444
  525TIP3    H2 1453   5.820   7.595   2.578
  526TIP3   OH2 1454   2.710   4.581   3.515
  526TIP3    H1 1455   2.697   4.575   3.420
  526TIP3    H2 1456   2.633   4.629   3.546
  527TIP3   OH2 1457   9.362   1.084   3.845
  527TIP3    H1 1458   9.268   1.072   3.830
  527TIP3    H2 1459   9.374   1.179   3.851
  528TIP3   OH2 1460   8.987   1.139   2.629
  528TIP3    H1 1461   9.056   1.205   2.626
  528TIP3    H2 1462   8.910   1.183   2.594
  529TIP3   OH2 1463   9.487   7.880   5.384
  529TIP3    H1 1464   9.558   7.939   5.361
  529TIP3    H2 1465   9.512   7.796   5.345
  530TIP3   OH2 1466   6.642   3.789   6.436
  530TIP3    H1 1467   6.651   3.802   6.341
  530TIP3    H2 1468   6.717   3.834   6.474
  531TIP3   OH2 1469   5.026   6.828   3.057
  531TIP3    H1 1470   5.007   6.801   3.147
  531TIP3    H2 1471   5.121   6.826   3.051
  532TIP3   OH2 1472   9.320   5.502   6.151
  532TIP3    H1 1473   9.343   5.493   6.244
  532TIP3    H2 1474   9.360   5.426   6.109
  533TIP3   OH2 1475   3.047   4.731   7.455
  533TIP3    H1 1476   2.996   4.670   7.508
  533TIP3    H2 1477   3.014   4.718   7.366
  534TIP3   OH2 1478   5.548   1.958   4.147
  534TIP3    H1 1479   5.524   1.894   4.213
  534TIP3    H2 1480   5.465   1.996   4.119
  535TIP3   OH2 1481   3.906   8.684   0.594
  535TIP3    H1 1482   3.829   8.735   0.616
  535TIP3    H2 1483   3.910   8.687   0.498
  536TIP3   OH2 1484   7.954   4.419   0.100
  536TIP3    H1 1485   7.878   4.445   0.152
  536TIP3    H2 1486   7.916   4.379   0.021
  537TIP3   OH2 1487   4.143   2.213   5.016
  537TIP3    H1 1488   4.116   2.267   5.090
  537TIP3    H2 1489   4.158   2.126   5.054
  538TIP3   OH2 1490   9.450   6.165   4.276
  538TIP3    H1 1491   9.363   6.126   4.273
  538TIP3    H2 1492   9.442   6.245   4.223
  539TIP3   OH2 1493   9.297   2.220   2.909
  539TIP3    H1 1494   9.347   2.283   2.858
  539TIP3    H2 1495   9.240   2.177   2.845
  540TIP3   OH2 1496   9.533   4.769   3.250
  540TIP3    H1 1497   9.600   4.781   3.318
  540TIP3    H2 1498   9.453   4.805   3.289
  541TIP3   OH2 1499   0.125   1.161   2.838
  541TIP3    H1 1500   0.180   1.178   2.915
  541TIP3    H2 1501   0.074   1.083   2.863
  542TIP3   OH2 1502   2.074   1.335   5.203
  542TIP3    H1 1503   2.151   1.391   5.193
  542TIP3    H2 1504   2.092   1.260   5.147
  543TIP3   OH2 1505   0.753   4.548   2.363
  543TIP3    H1 1506   0.660   4.529   2.350
  543TIP3    H2 1507   0.789   4.467   2.400
  544TIP3   OH2 1508   0.714   4.099   7.463
  544TIP3    H1 1509   0.742   4.160   7.395
  544TIP3    H2 1510   0.622   4.121   7.479
  545TIP3   OH2 1511   0.113   4.263   6.573
  545TIP3    H1 1512   0.108   4.167   6.574
  545TIP3    H2 1513   0.126   4.287   6.665
  546TIP3   OH2 1514   0.060   5.727   4.210
  546TIP3    H1 1515   0.132   5.711   4.271
  546TIP3    H2 1516   0.083   5.809   4.166
  547TIP3   OH2 1517   6.254   4.876   2.294
  547TIP3    H1 1518   6.345   4.864   2.321
  547TIP3    H2 1519   6.203   4.826   2.358
  548TIP3   OH2 1520   3.032   0.348   5.041
  548TIP3    H1 1521   3.048   0.343   5.135
  548TIP3    H2 1522   2.994   0.435   5.028
  549TIP3   OH2 1523   2.400   1.076   3.499
  549TIP3    H1 1524   2.329   1.121   3.453
  549TIP3    H2 1525   2.423   1.134   3.571
  550TIP3   OH2 1526   8.384   8.624   0.694
  550TIP3    H1 1527   8.307   8.569   0.675
  550TIP3    H2 1528   8.455   8.561   0.705
  551TIP3   OH2 1529   6.789   6.017   2.167
  551TIP3    H1 1530   6.718   6.020   2.103
  551TIP3    H2 1531   6.857   6.073   2.130
  552TIP3   OH2 1532   4.753   4.361   1.171
  552TIP3    H1 1533   4.774   4.282   1.121
  552TIP3    H2 1534   4.697   4.331   1.242
  553TIP3   OH2 1535   4.115   8.408   6.904
  553TIP3    H1 1536   4.164   8.351   6.963
  553TIP3    H2 1537   4.042   8.440   6.958
  554TIP3   OH2 1538   5.492   0.185   3.074
  554TIP3    H1 1539   5.566   0.150   3.123
  554TIP3    H2 1540   5.472   0.117   3.009
  555TIP3   OH2 1541   1.095   5.939   4.942
  555TIP3    H1 1542   1.141   5.998   5.002
  555TIP3    H2 1543   1.013   5.918   4.987
  556TIP3   OH2 1544   8.214   0.224   0.079
  556TIP3    H1 1545   8.146   0.276   0.122
  556TIP3    H2 1546   8.285   0.285   0.064
  557TIP3   OH2 1547   8.913   6.313   1.822
  557TIP3    H1 1548   8.998   6.314   1.778
  557TIP3    H2 1549   8.930   6.270   1.906
  558TIP3   OH2 1550   9.106   2.835   3.898
  558TIP3    H1 1551   9.156   2.907   3.938
  558TIP3    H2 1552   9.155   2.813   3.819
  559TIP3   OH2 1553   5.664   4.978   7.462
  559TIP3    H1 1554   5.672   4.968   7.368
  559TIP3    H2 1555   5.751   4.959   7.496
  560TIP3   OH2 1556   0.572   2.793   1.951
  560TIP3    H1 1557   0.500   2.750   1.905
  560TIP3    H2 1558   0.585   2.876   1.906
  561TIP3   OH2 1559   1.281   1.700   3.936
  561TIP3    H1 1560   1.206   1.642   3.926
  561TIP3    H2 1561   1.346   1.667   3.873
  562TIP3   OH2 1562   1.713   8.671   2.937
  562TIP3    H1 1563   1.706   8.588   2.984
  562TIP3    H2 1564   1.686   8.737   3.002
  563TIP3   OH2 1565   4.037   6.879   1.324
  563TIP3    H1 1566   3.995   6.797   1.302
  563TIP3    H2 1567   3.966   6.943   1.327
  564TIP3   OH2 1568   1.578   4.298   1.401
  564TIP3    H1 1569   1.599   4.210   1.369
  564TIP3    H2 1570   1.498   4.322   1.354
  565TIP3   OH2 1571   4.668   5.747   7.238
  565TIP3    H1 1572   4.634   5.661   7.214
  565TIP3    H2 1573   4.671   5.746   7.334
  566TIP3   OH2 1574   5.597   8.094   2.382
  566TIP3    H1 1575   5.582   8.150   2.458
  566TIP3    H2 1576   5.511   8.058   2.362
  567TIP3   OH2 1577   3.805   2.899   6.933
  567TIP3    H1 1578   3.797   2.980   6.983
  567TIP3    H2 1579   3.808   2.927   6.841
  568TIP3   OH2 1580   9.344   7.942   2.520
  568TIP3    H1 1581   9.297   7.909   2.444
  568TIP3    H2 1582   9.283   8.004   2.561
  569TIP3   OH2 1583   6.224   0.603   3.922
  569TIP3    H1 1584   6.130   0.607   3.903
  569TIP3    H2 1585   6.234   0.658   4.000
  570TIP3   OH2 1586   5.821   1.150   7.667
  570TIP3    H1 1587   5.744   1.198   7.699
  570TIP3    H2 1588   5.807   1.146   7.572
  571TIP3   OH2 1589   7.651   7.085   3.944
  571TIP3    H1 1590   7.672   7.122   3.858
  571TIP3    H2 1591   7.568   7.125   3.968
  572TIP3   OH2 1592   5.945   2.435   0.698
  572TIP3    H1 1593   5.895   2.406   0.773
  572TIP3    H2 1594   5.998   2.359   0.673
  573TIP3   OH2 1595   9.032   1.909   0.622
  573TIP3    H1 1596   9.041   1.887   0.715
  573TIP3    H2 1597   9.000   1.829   0.581
  574TIP3   OH2 1598   0.208   3.730   5.113
  574TIP3    H1 1599   0.292   3.730   5.158
  574TIP3    H2 1600   0.184   3.822   5.107
  575TIP3   OH2 1601   8.803   5.949   6.047
  575TIP3    H1 1602   8.890   5.937   6.010
  575TIP3    H2 1603   8.815   6.018   6.113
  576TIP3   OH2 1604   8.480   6.669   0.083
  576TIP3    H1 1605   8.475   6.762   0.061
  576TIP3    H2 1606   8.465   6.666   0.177
  577TIP3   OH2 1607   8.916   4.070   7.630
  577TIP3    H1 1608   8.984   4.022   7.678
  577TIP3    H2 1609   8.908   4.023   7.547
  578TIP3   OH2 1610   0.496   3.275   6.358
  578TIP3    H1 1611   0.480   3.259   6.265
  578TIP3    H2 1612   0.543   3.359   6.360
  579TIP3   OH2 1613   7.421   7.233   0.339
  579TIP3    H1 1614   7.514   7.225   0.359
  579TIP3    H2 1615   7.418   7.263   0.248
  580TIP3   OH2 1616   7.389   2.804   2.881
  580TIP3    H1 1617   7.447   2.865   2.928
  580TIP3    H2 1618   7.416   2.717   2.912
  581TIP3   OH2 1619   4.728   6.740   4.703
  581TIP3    H1 1620   4.671   6.749   4.780
  581TIP3    H2 1621   4.811   6.711   4.738
  582TIP3   OH2 1622   5.954   0.791   3.784
  582TIP3    H1 1623   5.945   0.763   3.693
  582TIP3    H2 1624   5.908   0.724   3.835
  583TIP3   OH2 1625   4.605   7.610   5.877
  583TIP3    H1 1626   4.550   7.532   5.873
  583TIP3    H2 1627   4.607   7.634   5.969
  584TIP3   OH2 1628   5.738   8.408   2.786
  584TIP3    H1 1629   5.720   8.453   2.869
  584TIP3    H2 1630   5.737   8.478   2.721
  585TIP3   OH2 1631   7.057   5.302   6.277
  585TIP3    H1 1632   7.143   5.332   6.307
  585TIP3    H2 1633   7.072   5.212   6.248
  586TIP3   OH2 1634   4.523   4.063   3.077
  586TIP3    H1 1635   4.541   4.122   3.151
  586TIP3    H2 1636   4.427   4.056   3.076
  587TIP3   OH2 1637   4.797   4.511   5.875
  587TIP3    H1 1638   4.857   4.585   5.875
  587TIP3    H2 1639   4.830   4.453   5.806
  588TIP3   OH2 1640   8.123   3.830   2.090
  588TIP3    H1 1641   8.098   3.754   2.142
  588TIP3    H2 1642   8.140   3.795   2.003
  589TIP3   OH2 1643   5.663   4.874   1.113
  589TIP3    H1 1644   5.693   4.965   1.118
  589TIP3    H2 1645   5.701   4.841   1.032
  590TIP3   OH2 1646   4.132   7.086   4.853
  590TIP3    H1 1647   4.071   7.078   4.926
  590TIP3    H2 1648   4.217   7.064   4.890
  591TIP3   OH2 1649   9.392   4.085   2.473
  591TIP3    H1 1650   9.319   4.037   2.432
  591TIP3    H2 1651   9.361   4.175   2.477
  592TIP3   OH2 1652   8.421   7.393   2.203
  592TIP3    H1 1653   8.475   7.338   2.259
  592TIP3    H2 1654   8.367   7.331   2.154
  593TIP3   OH2 1655   6.865   5.470   6.155
  593TIP3    H1 1656   6.924   5.410   6.202
  593TIP3    H2 1657   6.910   5.488   6.072
  594TIP3   OH2 1658   1.340   3.934   6.933
  594TIP3    H1 1659   1.349   3.903   6.843
  594TIP3    H2 1660   1.274   4.004   6.929
  595TIP3   OH2 1661   3.187   5.925   3.793
  595TIP3    H1 1662   3.241   5.974   3.731
  595TIP3    H2 1663   3.112   5.894   3.741
  596TIP3   OH2 1664   5.381   2.220   0.515
  596TIP3    H1 1665   5.420   2.169   0.444
  596TIP3    H2 1666   5.336   2.156   0.570
  597TIP3   OH2 1667   2.264   4.117   1.674
  597TIP3    H1 1668   2.327   4.051   1.703
  597TIP3    H2 1669   2.295   4.143   1.587
  598TIP3   OH2 1670   0.365   6.102   2.685
  598TIP3    H1 1671   0.404   6.176   2.637
  598TIP3    H2 1672   0.278   6.092   2.647
  599TIP3   OH2 1673   0.069   8.632   1.562
  599TIP3    H1 1674   0.056   8.685   1.641
  599TIP3    H2 1675   0.015   8.675   1.496
  600TIP3   OH2 1676   2.011   0.322   3.142
  600TIP3    H1 1677   1.955   0.388   3.182
  600TIP3    H2 1678   1.983   0.321   3.050
  601TIP3   OH2 1679   2.679   1.693   6.223
  601TIP3    H1 1680   2.637   1.779   6.222
  601TIP3    H2 1681   2.616   1.635   6.180
  602TIP3   OH2 1682   8.373   4.459   2.607
  602TIP3    H1 1683   8.388   4.538   2.659
  602TIP3    H2 1684   8.407   4.480   2.521
  603TIP3   OH2 1685   8.750   4.374   3.153
  603TIP3    H1 1686   8.705   4.292   3.175
  603TIP3    H2 1687   8.719   4.396   3.065
  604TIP3   OH2 1688   3.816   4.832   5.765
  604TIP3    H1 1689   3.912   4.831   5.769
  604TIP3    H2 1690   3.789   4.753   5.811
  605TIP3   OH2 1691   2.025   1.291   3.522
  605TIP3    H1 1692   2.039   1.287   3.616
  605TIP3    H2 1693   2.109   1.319   3.485
  606TIP3   OH2 1694   3.766   3.983   0.545
  606TIP3    H1 1695   3.684   4.019   0.511
  606TIP3    H2 1696   3.782   3.904   0.494
  607TIP3   OH2 1697   5.610   1.763   5.758
  607TIP3    H1 1698   5.515   1.767   5.746
  607TIP3    H2 1699   5.638   1.688   5.705
  608TIP3   OH2 1700   5.756   3.314   1.150
  608TIP3    H1 1701   5.788   3.359   1.228
  608TIP3    H2 1702   5.694   3.375   1.110
  609TIP3   OH2 1703   8.971   7.788   4.938
  609TIP3    H1 1704   8.884   7.811   4.906
  609TIP3    H2 1705   9.026   7.790   4.860
  610TIP3   OH2 1706   2.640   2.544   1.033
  610TIP3    H1 1707   2.622   2.535   0.939
  610TIP3    H2 1708   2.726   2.504   1.045
  611TIP3   OH2 1709   5.984   2.258   1.149
  611TIP3    H1 1710   5.921   2.196   1.184
  611TIP3    H2 1711   6.070   2.222   1.173
  612TIP3   OH2 1712   2.545   2.820   5.075
  612TIP3    H1 1713   2.486   2.753   5.041
  612TIP3    H2 1714   2.616   2.823   5.011
  613TIP3   OH2 1715   2.592   6.506   4.261
  613TIP3    H1 1716   2.674   6.551   4.280
  613TIP3    H2 1717   2.524   6.562   4.298
  614TIP3   OH2 1718   6.293   2.030   0.484
  614TIP3    H1 1719   6.289   2.085   0.562
  614TIP3    H2 1720   6.317   2.090   0.413
  615TIP3   OH2 1721   5.964   5.404   5.409
  615TIP3    H1 1722   5.973   5.483   5.356
  615TIP3    H2 1723   5.890   5.357   5.369
  616TIP3   OH2 1724   3.625   0.530   2.444
  616TIP3    H1 1725   3.535   0.542   2.472
  616TIP3    H2 1726   3.668   0.487   2.519
  617TIP3   OH2 1727   0.353   4.397   4.216
  617TIP3    H1 1728   0.344   4.392   4.312
  617TIP3    H2 1729   0.439   4.358   4.199
  618TIP3   OH2 1730   0.689   6.153   5.797
  618TIP3    H1 1731   0.708   6.167   5.704
  618TIP3    H2 1732   0.636   6.073   5.799
  619TIP3   OH2 1733   0.093   4.920   6.511
  619TIP3    H1 1734   0.098   4.830   6.545
  619TIP3    H2 1735   0.182   4.954   6.523
  620TIP3   OH2 1736   2.734   2.334   3.222
  620TIP3    H1 1737   2.654   2.311   3.175
  620TIP3    H2 1738   2.712   2.415   3.268
  621TIP3   OH2 1739   6.314   7.207   7.520
  621TIP3    H1 1740   6.246   7.268   7.548
  621TIP3    H2 1741   6.331   7.230   7.429
  622TIP3   OH2 1742   0.121   7.735   3.019
  622TIP3    H1 1743   0.205   7.762   2.982
  622TIP3    H2 1744   0.141   7.711   3.110
  623TIP3   OH2 1745   6.383   6.929   3.878
  623TIP3    H1 1746   6.442   6.859   3.907
  623TIP3    H2 1747   6.313   6.883   3.832
  624TIP3   OH2 1748   4.939   8.082   3.486
  624TIP3    H1 1749   4.957   8.099   3.579
  624TIP3    H2 1750   4.874   8.147   3.462
  625TIP3   OH2 1751   0.370   4.597   0.795
  625TIP3    H1 1752   0.306   4.626   0.860
  625TIP3    H2 1753   0.317   4.573   0.719
  626TIP3   OH2 1754   7.600   1.747   3.700
  626TIP3    H1 1755   7.592   1.713   3.611
  626TIP3    H2 1756   7.667   1.691   3.740
  627TIP3   OH2 1757   8.613   3.715   4.469
  627TIP3    H1 1758   8.679   3.758   4.414
  627TIP3    H2 1759   8.640   3.735   4.558
  628TIP3   OH2 1760   8.390   4.825   5.804
  628TIP3    H1 1761   8.400   4.862   5.891
  628TIP3    H2 1762   8.403   4.899   5.745
  629TIP3   OH2 1763   9.285   0.716   5.834
  629TIP3    H1 1764   9.304   0.632   5.876
  629TIP3    H2 1765   9.343   0.779   5.877
  630TIP3   OH2 1766   0.778   7.932   0.785
  630TIP3    H1 1767   0.865   7.906   0.755
  630TIP3    H2 1768   0.731   7.956   0.705
  631TIP3   OH2 1769   5.084   2.707   6.778
  631TIP3    H1 1770   5.047   2.738   6.860
  631TIP3    H2 1771   5.011   2.663   6.734
  632TIP3   OH2 1772   2.437   5.712   6.913
  632TIP3    H1 1773   2.406   5.622   6.905
  632TIP3    H2 1774   2.514   5.716   6.858
  633TIP3   OH2 1775   1.695   8.944   2.514
  633TIP3    H1 1776   1.698   8.874   2.580
  633TIP3    H2 1777   1.605   8.941   2.482
  634TIP3   OH2 1778   4.021   4.643   0.844
  634TIP3    H1 1779   3.938   4.633   0.891
  634TIP3    H2 1780   3.998   4.687   0.763
  635TIP3   OH2 1781   8.871   7.035   2.858
  635TIP3    H1 1782   8.890   6.974   2.787
  635TIP3    H2 1783   8.945   7.024   2.919
  636TIP3   OH2 1784   7.786   5.770   6.629
  636TIP3    H1 1785   7.874   5.739   6.650
  636TIP3    H2 1786   7.763   5.724   6.548
  637TIP3   OH2 1787   2.745   4.074   3.607
  637TIP3    H1 1788   2.783   4.007   3.550
  637TIP3    H2 1789   2.792   4.154   3.584
  638TIP3   OH2 1790   0.206   7.467   6.162
  638TIP3    H1 1791   0.224   7.548   6.114
  638TIP3    H2 1792   0.133   7.490   6.220
  639TIP3   OH2 1793   4.876   0.262   1.588
  639TIP3    H1 1794   4.923   0.263   1.672
  639TIP3    H2 1795   4.864   0.169   1.569
  640TIP3   OH2 1796   8.478   3.469   7.714
  640TIP3    H1 1797   8.458   3.544   7.769
  640TIP3    H2 1798   8.413   3.472   7.643
  641TIP3   OH2 1799   5.148   0.465   1.416
  641TIP3    H1 1800   5.084   0.510   1.472
  641TIP3    H2 1801   5.214   0.532   1.396
  642TIP3   OH2 1802   8.926   8.842   2.557
  642TIP3    H1 1803   8.859   8.826   2.491
  642TIP3    H2 1804   8.923   8.765   2.613
  643TIP3   OH2 1805   1.260   5.900   5.464
  643TIP3    H1 1806   1.209   5.838   5.516
  643TIP3    H2 1807   1.348   5.863   5.460
  644TIP3   OH2 1808   5.030   3.386   5.045
  644TIP3    H1 1809   4.938   3.360   5.038
  644TIP3    H2 1810   5.054   3.365   5.135
  645TIP3   OH2 1811   6.296   8.148   1.684
  645TIP3    H1 1812   6.287   8.231   1.732
  645TIP3    H2 1813   6.223   8.094   1.716
  646TIP3   OH2 1814   0.629   4.279   0.717
  646TIP3    H1 1815   0.615   4.368   0.682
  646TIP3    H2 1816   0.593   4.282   0.806
  647TIP3   OH2 1817   9.437   6.919   2.987
  647TIP3    H1 1818   9.452   6.829   2.958
  647TIP3    H2 1819   9.399   6.910   3.075
  648TIP3   OH2 1820   3.084   6.476   6.550
  648TIP3    H1 1821   3.121   6.552   6.596
  648TIP3    H2 1822   2.992   6.499   6.537
  649TIP3   OH2 1823   4.917   3.145   7.667
  649TIP3    H1 1824   4.901   3.137   7.572
  649TIP3    H2 1825   4.830   3.136   7.706
  650TIP3   OH2 1826   7.826   0.687   0.180
  650TIP3    H1 1827   7.912   0.716   0.210
  650TIP3    H2 1828   7.815   0.729   0.095
  651TIP3   OH2 1829   5.070   4.727   0.807
  651TIP3    H1 1830   5.019   4.709   0.728
  651TIP3    H2 1831   5.156   4.688   0.788
  652TIP3   OH2 1832   5.315   1.390   7.093
  652TIP3    H1 1833   5.318   1.332   7.017
  652TIP3    H2 1834   5.358   1.342   7.163
  653TIP3   OH2 1835   3.894   1.791   5.599
  653TIP3    H1 1836   3.984   1.818   5.578
  653TIP3    H2 1837   3.858   1.865   5.648
  654TIP3   OH2 1838   5.936   6.654   0.333
  654TIP3    H1 1839   5.869   6.624   0.394
  654TIP3    H2 1840   5.969   6.575   0.292
  655TIP3   OH2 1841   7.751   1.615   2.485
  655TIP3    H1 1842   7.797   1.692   2.519
  655TIP3    H2 1843   7.661   1.644   2.471
  656TIP3   OH2 1844   0.810   1.714   5.265
  656TIP3    H1 1845   0.818   1.676   5.352
  656TIP3    H2 1846   0.766   1.647   5.213
  657TIP3   OH2 1847   4.700   5.768   6.813
  657TIP3    H1 1848   4.623   5.733   6.769
  657TIP3    H2 1849   4.759   5.693   6.820
  658TIP3   OH2 1850   2.168   2.124   4.147
  658TIP3    H1 1851   2.173   2.078   4.231
  658TIP3    H2 1852   2.258   2.147   4.127
  659TIP3   OH2 1853   4.871   2.506   4.881
  659TIP3    H1 1854   4.850   2.413   4.875
  659TIP3    H2 1855   4.797   2.550   4.840
  660TIP3   OH2 1856   5.869   1.709   5.483
  660TIP3    H1 1857   5.888   1.715   5.577
  660TIP3    H2 1858   5.844   1.618   5.469
  661TIP3   OH2 1859   6.051   5.200   0.083
  661TIP3    H1 1860   5.984   5.268   0.075
  661TIP3    H2 1861   6.043   5.148   0.003
  662TIP3   OH2 1862   5.229   7.755   1.131
  662TIP3    H1 1863   5.256   7.827   1.073
  662TIP3    H2 1864   5.295   7.755   1.201
  663TIP3   OH2 1865   8.199   6.892   1.223
  663TIP3    H1 1866   8.262   6.828   1.190
  663TIP3    H2 1867   8.223   6.905   1.314
  664TIP3   OH2 1868   6.969   8.350   6.526
  664TIP3    H1 1869   7.038   8.316   6.584
  664TIP3    H2 1870   6.938   8.274   6.477
  665TIP3   OH2 1871   5.424   2.426   4.378
  665TIP3    H1 1872   5.352   2.488   4.391
  665TIP3    H2 1873   5.384   2.340   4.389
  666TIP3   OH2 1874   0.929   3.816   0.499
  666TIP3    H1 1875   0.834   3.829   0.496
  666TIP3    H2 1876   0.958   3.864   0.577
  667TIP3   OH2 1877   0.511   5.803   0.070
  667TIP3    H1 1878   0.427   5.849   0.066
  667TIP3    H2 1879   0.521   5.764  -0.016
  668TIP3   OH2 1880   2.468   3.603   1.406
  668TIP3    H1 1881   2.387   3.636   1.367
  668TIP3    H2 1882   2.516   3.564   1.332
  669TIP3   OH2 1883   2.179   1.207   0.702
  669TIP3    H1 1884   2.236   1.130   0.698
  669TIP3    H2 1885   2.120   1.197   0.628
  670TIP3   OH2 1886   0.702   8.522   3.355
  670TIP3    H1 1887   0.766   8.562   3.296
  670TIP3    H2 1888   0.728   8.553   3.442
  671TIP3   OH2 1889   0.717   3.310   5.878
  671TIP3    H1 1890   0.707   3.315   5.783
  671TIP3    H2 1891   0.811   3.317   5.893
  672TIP3   OH2 1892   7.776   3.002   2.610
  672TIP3    H1 1893   7.867   3.027   2.596
  672TIP3    H2 1894   7.734   3.016   2.526
  673TIP3   OH2 1895   8.012   7.730   7.411
  673TIP3    H1 1896   8.076   7.724   7.481
  673TIP3    H2 1897   8.026   7.816   7.373
  674TIP3   OH2 1898   4.102   0.583   4.666
  674TIP3    H1 1899   4.036   0.580   4.736
  674TIP3    H2 1900   4.065   0.529   4.596
  675TIP3   OH2 1901   0.369   5.411   0.686
  675TIP3    H1 1902   0.328   5.381   0.767
  675TIP3    H2 1903   0.452   5.448   0.713
  676TIP3   OH2 1904   6.754   4.304   6.009
  676TIP3    H1 1905   6.836   4.339   6.045
  676TIP3    H2 1906   6.749   4.216   6.045
  677TIP3   OH2 1907   0.638   5.968   1.054
  677TIP3    H1 1908   0.608   5.877   1.049
  677TIP3    H2 1909   0.729   5.962   1.081
  678TIP3   OH2 1910   3.576   2.463   1.975
  678TIP3    H1 1911   3.600   2.446   2.066
  678TIP3    H2 1912   3.496   2.514   1.979
  679TIP3   OH2 1913   5.345   4.756   5.980
  679TIP3    H1 1914   5.350   4.838   5.930
  679TIP3    H2 1915   5.433   4.720   5.977
  680TIP3   OH2 1916   0.109   8.247   1.684
  680TIP3    H1 1917   0.168   8.283   1.617
  680TIP3    H2 1918   0.134   8.155   1.692
  681TIP3   OH2 1919   8.055   8.907   0.781
  681TIP3    H1 1920   8.074   8.815   0.802
  681TIP3    H2 1921   7.981   8.930   0.837
  682TIP3   OH2 1922   2.215   7.622   1.901
  682TIP3    H1 1923   2.303   7.621   1.864
  682TIP3    H2 1924   2.171   7.547   1.861
  683TIP3   OH2 1925   5.122   6.355   2.067
  683TIP3    H1 1926   5.055   6.305   2.022
  683TIP3    H2 1927   5.198   6.353   2.009
  684TIP3   OH2 1928   1.453   2.877   0.662
  684TIP3    H1 1929   1.471   2.963   0.699
  684TIP3    H2 1930   1.488   2.881   0.573
  685TIP3   OH2 1931   8.320   5.718   6.398
  685TIP3    H1 1932   8.333   5.786   6.332
  685TIP3    H2 1933   8.249   5.664   6.362
  686TIP3   OH2 1934   2.668   3.144   7.728
  686TIP3    H1 1935   2.637   3.155   7.639
  686TIP3    H2 1936   2.763   3.158   7.722
  687TIP3   OH2 1937   7.777   1.318   1.029
  687TIP3    H1 1938   7.832   1.392   1.052
  687TIP3    H2 1939   7.732   1.294   1.110
  688TIP3   OH2 1940   9.167   0.389   1.670
  688TIP3    H1 1941   9.261   0.406   1.667
  688TIP3    H2 1942   9.154   0.343   1.753
  689TIP3   OH2 1943   2.827   6.040   3.373
  689TIP3    H1 1944   2.911   6.076   3.343
  689TIP3    H2 1945   2.797   6.101   3.440
  690TIP3   OH2 1946   8.108   8.873   0.261
  690TIP3    H1 1947   8.022   8.914   0.269
  690TIP3    H2 1948   8.131   8.847   0.351
  691TIP3   OH2 1949   9.483   7.708   6.857
  691TIP3    H1 1950   9.561   7.660   6.831
  691TIP3    H2 1951   9.410   7.656   6.825
  692TIP3   OH2 1952   3.677   7.227   1.083
  692TIP3    H1 1953   3.772   7.216   1.082
  692TIP3    H2 1954   3.661   7.296   1.149
  693TIP3   OH2 1955   8.291   1.719   3.638
  693TIP3    H1 1956   8.252   1.803   3.662
  693TIP3    H2 1957   8.297   1.722   3.543
  694TIP3   OH2 1958   0.251   5.085   5.477
  694TIP3    H1 1959   0.253   5.180   5.486
  694TIP3    H2 1960   0.183   5.057   5.539
  695TIP3   OH2 1961   0.052   5.791   7.480
  695TIP3    H1 1962   0.145   5.779   7.461
  695TIP3    H2 1963   0.044   5.883   7.503
  696TIP3   OH2 1964   7.906   6.325   1.460
  696TIP3    H1 1965   7.847   6.369   1.398
  696TIP3    H2 1966   7.986   6.377   1.458
  697TIP3   OH2 1967   1.560   8.792   1.843
  697TIP3    H1 1968   1.618   8.718   1.826
  697TIP3    H2 1969   1.613   8.852   1.896
  698TIP3   OH2 1970   2.969   4.732   2.924
  698TIP3    H1 1971   3.002   4.773   3.004
  698TIP3    H2 1972   2.877   4.756   2.920
  699TIP3   OH2 1973   7.796   4.221   7.397
  699TIP3    H1 1974   7.756   4.199   7.313
  699TIP3    H2 1975   7.741   4.176   7.462
  700TIP3   OH2 1976   6.991   4.394   2.701
  700TIP3    H1 1977   6.959   4.483   2.681
  700TIP3    H2 1978   6.929   4.361   2.766
  701TIP3   OH2 1979   9.216   5.025   7.149
  701TIP3    H1 1980   9.263   5.103   7.118
  701TIP3    H2 1981   9.140   5.019   7.090
  702TIP3   OH2 1982   6.163   4.147   2.515
  702TIP3    H1 1983   6.173   4.053   2.501
  702TIP3    H2 1984   6.212   4.188   2.443
  703TIP3   OH2 1985   2.304   4.802   6.815
  703TIP3    H1 1986   2.345   4.839   6.893
  703TIP3    H2 1987   2.273   4.878   6.766
  704TIP3   OH2 1988   7.409   8.969   1.429
  704TIP3    H1 1989   7.397   8.909   1.355
  704TIP3    H2 1990   7.474   8.926   1.484
  705TIP3   OH2 1991   9.502   2.733   0.910
  705TIP3    H1 1992   9.575   2.692   0.864
  705TIP3    H2 1993   9.525   2.726   1.002
  706TIP3   OH2 1994   3.328   8.952   3.197
  706TIP3    H1 1995   3.255   9.006   3.226
  706TIP3    H2 1996   3.387   9.013   3.153
  707TIP3   OH2 1997   0.301   0.807   2.819
  707TIP3    H1 1998   0.367   0.855   2.869
  707TIP3    H2 1999   0.261   0.748   2.883
  708TIP3   OH2 2000   0.716   5.723   5.606
  708TIP3    H1 2001   0.742   5.689   5.521
  708TIP3    H2 2002   0.633   5.680   5.625
  709TIP3   OH2 2003   2.565   8.441   5.292
  709TIP3    H1 2004   2.637   8.492   5.256
  709TIP3    H2 2005   2.573   8.355   5.249
  710TIP3   OH2 2006   3.792   3.544   7.094
  710TIP3    H1 2007   3.886   3.527   7.095
  710TIP3    H2 2008   3.761   3.514   7.180
  711TIP3   OH2 2009   0.583   2.600   2.588
  711TIP3    H1 2010   0.664   2.595   2.638
  711TIP3    H2 2011   0.611   2.595   2.497
  712TIP3   OH2 2012   4.686   3.456   1.219
  712TIP3    H1 2013   4.755   3.475   1.155
  712TIP3    H2 2014   4.622   3.526   1.206
  713TIP3   OH2 2015   6.392   1.506   3.325
  713TIP3    H1 2016   6.326   1.487   3.392
  713TIP3    H2 2017   6.408   1.600   3.333
  714TIP3   OH2 2018   6.930   6.948   5.594
  714TIP3    H1 2019   6.857   6.917   5.647
  714TIP3    H2 2020   6.900   6.936   5.503
  715TIP3   OH2 2021   7.501   1.171   2.289
  715TIP3    H1 2022   7.504   1.105   2.219
  715TIP3    H2 2023   7.412   1.167   2.323
  716TIP3   OH2 2024   7.536   5.510   5.669
  716TIP3    H1 2025   7.454   5.546   5.636
  716TIP3    H2 2026   7.510   5.433   5.718
  717TIP3   OH2 2027   8.727   4.723   7.012
  717TIP3    H1 2028   8.755   4.634   7.032
  717TIP3    H2 2029   8.632   4.718   7.006
  718TIP3   OH2 2030   4.837   3.053   2.716
  718TIP3    H1 2031   4.796   2.967   2.710
  718TIP3    H2 2032   4.847   3.069   2.810
  719TIP3   OH2 2033   4.982   2.840   5.974
  719TIP3    H1 2034   4.975   2.844   6.070
  719TIP3    H2 2035   4.980   2.746   5.954
  720TIP3   OH2 2036   9.210   7.690   5.398
  720TIP3    H1 2037   9.185   7.679   5.306
  720TIP3    H2 2038   9.157   7.627   5.445
  721TIP3   OH2 2039   2.018   1.674   2.066
  721TIP3    H1 2040   2.093   1.696   2.010
  721TIP3    H2 2041   2.007   1.580   2.055
  722TIP3   OH2 2042   5.070   7.600   7.193
  722TIP3    H1 2043   5.034   7.512   7.198
  722TIP3    H2 2044   4.995   7.659   7.200
  723TIP3   OH2 2045   0.333   5.439   6.183
  723TIP3    H1 2046   0.413   5.401   6.219
  723TIP3    H2 2047   0.299   5.373   6.123
  724TIP3   OH2 2048   6.903   7.742   1.919
  724TIP3    H1 2049   6.884   7.834   1.937
  724TIP3    H2 2050   6.962   7.743   1.844
  725TIP3   OH2 2051   1.742   3.707   6.392
  725TIP3    H1 2052   1.692   3.642   6.443
  725TIP3    H2 2053   1.739   3.786   6.445
  726TIP3   OH2 2054   0.801   0.704   5.927
  726TIP3    H1 2055   0.723   0.682   5.978
  726TIP3    H2 2056   0.870   0.651   5.965
  727TIP3   OH2 2057   0.421   4.074   6.658
  727TIP3    H1 2058   0.439   4.002   6.718
  727TIP3    H2 2059   0.504   4.121   6.651
  728TIP3   OH2 2060   1.173   6.877   5.584
  728TIP3    H1 2061   1.239   6.816   5.551
  728TIP3    H2 2062   1.112   6.888   5.510
  729TIP3   OH2 2063   2.905   3.387   2.588
  729TIP3    H1 2064   2.855   3.330   2.647
  729TIP3    H2 2065   2.843   3.413   2.520
  730TIP3   OH2 2066   7.204   0.018   5.171
  730TIP3    H1 2067   7.251  -0.025   5.243
  730TIP3    H2 2068   7.258  -0.000   5.093
  731TIP3   OH2 2069   7.835   4.520   0.455
  731TIP3    H1 2070   7.885   4.585   0.406
  731TIP3    H2 2071   7.772   4.572   0.505
  732TIP3   OH2 2072   3.867   1.255   1.967
  732TIP3    H1 2073   3.843   1.217   2.051
  732TIP3    H2 2074   3.956   1.225   1.950
  733TIP3   OH2 2075   8.957   0.358   4.725
  733TIP3    H1 2076   8.916   0.358   4.812
  733TIP3    H2 2077   8.966   0.266   4.703
  734TIP3   OH2 2078   7.670   1.167   1.873
  734TIP3    H1 2079   7.762   1.140   1.866
  734TIP3    H2 2080   7.633   1.145   1.787
  735TIP3   OH2 2081   1.235   0.407   7.715
  735TIP3    H1 2082   1.144   0.384   7.737
  735TIP3    H2 2083   1.246   0.375   7.626
  736TIP3   OH2 2084   3.181   4.344   4.998
  736TIP3    H1 2085   3.176   4.289   4.920
  736TIP3    H2 2086   3.156   4.285   5.070
  737TIP3   OH2 2087   9.201   5.872   1.303
  737TIP3    H1 2088   9.133   5.883   1.370
  737TIP3    H2 2089   9.223   5.779   1.308
  738TIP3   OH2 2090   0.658   3.845   0.537
  738TIP3    H1 2091   0.595   3.782   0.505
  738TIP3    H2 2092   0.609   3.927   0.544
  739TIP3   OH2 2093   1.556   7.966   7.489
  739TIP3    H1 2094   1.640   7.951   7.446
  739TIP3    H2 2095   1.554   7.903   7.561
  740TIP3   OH2 2096   3.252   1.237   5.139
  740TIP3    H1 2097   3.306   1.163   5.109
  740TIP3    H2 2098   3.305   1.314   5.120
  741TIP3   OH2 2099   1.294   0.228   2.631
  741TIP3    H1 2100   1.307   0.147   2.680
  741TIP3    H2 2101   1.211   0.217   2.586
  742TIP3   OH2 2102   5.222   2.431   2.292
  742TIP3    H1 2103   5.243   2.498   2.356
  742TIP3    H2 2104   5.202   2.479   2.212
  743TIP3   OH2 2105   8.604   8.543   3.898
  743TIP3    H1 2106   8.690   8.563   3.862
  743TIP3    H2 2107   8.610   8.568   3.990
  744TIP3   OH2 2108   7.367   5.020   5.300
  744TIP3    H1 2109   7.320   5.086   5.248
  744TIP3    H2 2110   7.454   5.058   5.313
  745TIP3   OH2 2111   5.228   4.530   0.062
  745TIP3    H1 2112   5.189   4.517   0.148
  745TIP3    H2 2113   5.291   4.601   0.074
  746TIP3   OH2 2114   3.625   6.333   1.628
  746TIP3    H1 2115   3.540   6.372   1.651
  746TIP3    H2 2116   3.603   6.249   1.588
  747TIP3   OH2 2117   1.120   8.776   3.874
  747TIP3    H1 2118   1.098   8.708   3.938
  747TIP3    H2 2119   1.185   8.736   3.817
  748TIP3   OH2 2120   4.028   2.574   2.276
  748TIP3    H1 2121   4.066   2.491   2.303
  748TIP3    H2 2122   3.964   2.595   2.344
  749TIP3   OH2 2123   1.380   8.204   0.572
  749TIP3    H1 2124   1.335   8.149   0.636
  749TIP3    H2 2125   1.317   8.214   0.501
  750TIP3   OH2 2126   6.711   1.046   5.060
  750TIP3    H1 2127   6.666   1.131   5.058
  750TIP3    H2 2128   6.676   1.003   5.138
  751TIP3   OH2 2129   9.259   5.745   2.009
  751TIP3    H1 2130   9.316   5.721   2.082
  751TIP3    H2 2131   9.179   5.695   2.023
  752TIP3   OH2 2132   4.519   7.658   1.416
  752TIP3    H1 2133   4.614   7.654   1.412
  752TIP3    H2 2134   4.496   7.733   1.360
  753TIP3   OH2 2135   5.282   3.780   0.785
  753TIP3    H1 2136   5.193   3.756   0.809
  753TIP3    H2 2137   5.333   3.765   0.865
  754TIP3   OH2 2138   0.623   7.355   2.836
  754TIP3    H1 2139   0.549   7.409   2.808
  754TIP3    H2 2140   0.613   7.274   2.786
  755TIP3   OH2 2141   5.879   1.795   1.787
  755TIP3    H1 2142   5.918   1.882   1.780
  755TIP3    H2 2143   5.938   1.747   1.844
  756TIP3   OH2 2144   4.934   1.945   5.341
  756TIP3    H1 2145   4.986   2.026   5.341
  756TIP3    H2 2146   4.971   1.893   5.413
  757TIP3   OH2 2147   2.194   2.304   0.725
  757TIP3    H1 2148   2.151   2.320   0.641
  757TIP3    H2 2149   2.213   2.391   0.759
  758TIP3   OH2 2150   3.045   4.077   2.651
  758TIP3    H1 2151   3.118   4.103   2.595
  758TIP3    H2 2152   3.062   4.121   2.734
  759TIP3   OH2 2153   3.265   0.463   6.349
  759TIP3    H1 2154   3.257   0.406   6.272
  759TIP3    H2 2155   3.359   0.469   6.365
  760TIP3   OH2 2156   4.920   8.416   6.773
  760TIP3    H1 2157   5.008   8.436   6.739
  760TIP3    H2 2158   4.934   8.399   6.867
  761TIP3   OH2 2159   3.208   2.535   1.731
  761TIP3    H1 2160   3.171   2.615   1.767
  761TIP3    H2 2161   3.174   2.530   1.642
  762TIP3   OH2 2162   3.009   7.441   0.099
  762TIP3    H1 2163   3.051   7.482   0.174
  762TIP3    H2 2164   3.077   7.384   0.062
  763TIP3   OH2 2165   5.172   2.475   6.077
  763TIP3    H1 2166   5.077   2.488   6.071
  763TIP3    H2 2167   5.201   2.541   6.140
  764TIP3   OH2 2168   3.034   6.777   7.797
  764TIP3    H1 2169   3.035   6.828   7.878
  764TIP3    H2 2170   3.125   6.753   7.782
  765TIP3   OH2 2171   5.763   2.750   4.994
  765TIP3    H1 2172   5.717   2.830   5.019
  765TIP3    H2 2173   5.696   2.694   4.957
  766TIP3   OH2 2174   3.558   8.651   7.278
  766TIP3    H1 2175   3.523   8.693   7.356
  766TIP3    H2 2176   3.611   8.718   7.235
  767TIP3   OH2 2177   3.022   1.759   0.903
  767TIP3    H1 2178   2.937   1.736   0.940
  767TIP3    H2 2179   3.011   1.847   0.867
  768TIP3   OH2 2180   5.958   4.274   1.893
  768TIP3    H1 2181   5.899   4.339   1.931
  768TIP3    H2 2182   6.044   4.294   1.931
  769TIP3   OH2 2183   0.650   5.365   3.624
  769TIP3    H1 2184   0.717   5.309   3.665
  769TIP3    H2 2185   0.568   5.336   3.662
  770TIP3   OH2 2186   0.778   2.911   4.705
  770TIP3    H1 2187   0.765   2.847   4.775
  770TIP3    H2 2188   0.873   2.915   4.695
  771TIP3   OH2 2189   4.199   6.188   4.812
  771TIP3    H1 2190   4.159   6.220   4.893
  771TIP3    H2 2191   4.251   6.113   4.839
  772TIP3   OH2 2192   4.325   5.592   1.050
  772TIP3    H1 2193   4.412   5.571   1.016
  772TIP3    H2 2194   4.275   5.511   1.039
  773TIP3   OH2 2195   1.898   6.839   0.628
  773TIP3    H1 2196   1.956   6.811   0.699
  773TIP3    H2 2197   1.811   6.813   0.656
  774TIP3   OH2 2198   8.310   0.036   6.512
  774TIP3    H1 2199   8.272   0.121   6.533
  774TIP3    H2 2200   8.288  -0.019   6.586
  775TIP3   OH2 2201   5.740   6.988   6.055
  775TIP3    H1 2202   5.809   6.979   6.122
  775TIP3    H2 2203   5.725   6.899   6.024
  776TIP3   OH2 2204   1.476   2.916   7.150
  776TIP3    H1 2205   1.464   2.985   7.215
  776TIP3    H2 2206   1.479   2.835   7.201
  777TIP3   OH2 2207   2.699   8.995   2.287
  777TIP3    H1 2208   2.791   9.005   2.313
  777TIP3    H2 2209   2.665   8.928   2.346
  778TIP3   OH2 2210   9.040   5.735   0.686
  778TIP3    H1 2211   9.064   5.754   0.595
  778TIP3    H2 2212   9.117   5.692   0.723
  779TIP3   OH2 2213   9.469   8.095   7.482
  779TIP3    H1 2214   9.471   8.032   7.410
  779TIP3    H2 2215   9.420   8.050   7.551
  780TIP3   OH2 2216   2.807   5.425   7.629
  780TIP3    H1 2217   2.812   5.345   7.683
  780TIP3    H2 2218   2.734   5.474   7.667
  781TIP3   OH2 2219   0.831   1.933   5.496
  781TIP3    H1 2220   0.767   1.990   5.539
  781TIP3    H2 2221   0.915   1.976   5.511
  782TIP3   OH2 2222   9.152   8.198   6.380
  782TIP3    H1 2223   9.184   8.185   6.291
  782TIP3    H2 2224   9.097   8.276   6.375
  783TIP3   OH2 2225   6.330   7.399   5.255
  783TIP3    H1 2226   6.339   7.473   5.194
  783TIP3    H2 2227   6.340   7.438   5.341
  784TIP3   OH2 2228   8.965   3.640   4.515
  784TIP3    H1 2229   8.959   3.586   4.437
  784TIP3    H2 2230   9.049   3.684   4.508
  785TIP3   OH2 2231   9.468   1.715   1.592
  785TIP3    H1 2232   9.467   1.620   1.584
  785TIP3    H2 2233   9.470   1.732   1.686
  786TIP3   OH2 2234   8.986   5.462   1.052
  786TIP3    H1 2235   9.069   5.489   1.091
  786TIP3    H2 2236   8.926   5.535   1.070
  787TIP3   OH2 2237   0.357   6.429   4.629
  787TIP3    H1 2238   0.270   6.417   4.591
  787TIP3    H2 2239   0.349   6.394   4.718
  788TIP3   OH2 2240   0.295   3.609   0.642
  788TIP3    H1 2241   0.349   3.662   0.699
  788TIP3    H2 2242   0.242   3.556   0.702
  789TIP3   OH2 2243   9.129   6.093   4.499
  789TIP3    H1 2244   9.225   6.102   4.504
  789TIP3    H2 2245   9.113   6.065   4.409
  790TIP3   OH2 2246   2.142   2.561   7.213
  790TIP3    H1 2247   2.141   2.477   7.167
  790TIP3    H2 2248   2.148   2.538   7.305
  791TIP3   OH2 2249   7.168   2.943   2.270
  791TIP3    H1 2250   7.131   3.021   2.313
  791TIP3    H2 2251   7.261   2.963   2.260
  792TIP3   OH2 2252   8.933   3.578   7.309
  792TIP3    H1 2253   8.952   3.563   7.402
  792TIP3    H2 2254   8.838   3.573   7.302
  793TIP3   OH2 2255   3.952   6.778   6.232
  793TIP3    H1 2256   3.910   6.839   6.293
  793TIP3    H2 2257   4.042   6.769   6.265
  794TIP3   OH2 2258   1.487   2.185   7.441
  794TIP3    H1 2259   1.467   2.278   7.433
  794TIP3    H2 2260   1.572   2.175   7.399
  795TIP3   OH2 2261   7.589   0.472   4.082
  795TIP3    H1 2262   7.632   0.399   4.127
  795TIP3    H2 2263   7.649   0.545   4.094
  796TIP3   OH2 2264   8.766   7.016   4.250
  796TIP3    H1 2265   8.755   7.076   4.323
  796TIP3    H2 2266   8.816   7.066   4.185
  797TIP3   OH2 2267   5.894   6.359   2.039
  797TIP3    H1 2268   5.809   6.368   2.081
  797TIP3    H2 2269   5.923   6.450   2.024
  798TIP3   OH2 2270   0.615   4.021   4.426
  798TIP3    H1 2271   0.686   3.956   4.420
  798TIP3    H2 2272   0.555   3.984   4.491
  799TIP3   OH2 2273   6.113   7.731   3.646
  799TIP3    H1 2274   6.165   7.652   3.629
  799TIP3    H2 2275   6.026   7.709   3.611
  800TIP3   OH2 2276   0.734   4.553   1.549
  800TIP3    H1 2277   0.802   4.561   1.615
  800TIP3    H2 2278   0.658   4.597   1.586
  801TIP3   OH2 2279   6.487   8.239   2.482
  801TIP3    H1 2280   6.492   8.251   2.387
  801TIP3    H2 2281   6.436   8.314   2.513
  802TIP3   OH2 2282   6.367   1.530   5.097
  802TIP3    H1 2283   6.342   1.619   5.075
  802TIP3    H2 2284   6.353   1.481   5.016
  803TIP3   OH2 2285   8.477   5.561   7.646
  803TIP3    H1 2286   8.468   5.641   7.697
  803TIP3    H2 2287   8.389   5.542   7.615
  804TIP3   OH2 2288   4.868   6.978   3.275
  804TIP3    H1 2289   4.874   6.883   3.276
  804TIP3    H2 2290   4.914   7.007   3.354
  805TIP3   OH2 2291   5.052   7.970   5.022
  805TIP3    H1 2292   5.100   7.963   4.940
  805TIP3    H2 2293   5.091   7.904   5.079
  806TIP3   OH2 2294   6.527   6.823   1.704
  806TIP3    H1 2295   6.493   6.749   1.754
  806TIP3    H2 2296   6.486   6.816   1.618
  807TIP3   OH2 2297   3.338   4.891   6.306
  807TIP3    H1 2298   3.424   4.912   6.344
  807TIP3    H2 2299   3.297   4.977   6.292
  808TIP3   OH2 2300   4.212   4.714   4.901
  808TIP3    H1 2301   4.286   4.685   4.955
  808TIP3    H2 2302   4.165   4.776   4.956
  809TIP3   OH2 2303   2.728   6.331   3.995
  809TIP3    H1 2304   2.668   6.308   4.066
  809TIP3    H2 2305   2.815   6.309   4.028
  810TIP3   OH2 2306   6.282   7.888   5.980
  810TIP3    H1 2307   6.204   7.863   5.930
  810TIP3    H2 2308   6.294   7.981   5.960
  811TIP3   OH2 2309   1.774   7.503   3.358
  811TIP3    H1 2310   1.865   7.486   3.333
  811TIP3    H2 2311   1.747   7.424   3.405
  812TIP3   OH2 2312   5.947   4.057   2.054
  812TIP3    H1 2313   5.933   4.132   1.995
  812TIP3    H2 2314   6.028   4.017   2.023
  813TIP3   OH2 2315   2.036   6.927   6.818
  813TIP3    H1 2316   2.074   6.893   6.899
  813TIP3    H2 2317   2.111   6.959   6.768
  814TIP3   OH2 2318   8.764   6.461   3.754
  814TIP3    H1 2319   8.791   6.372   3.777
  814TIP3    H2 2320   8.826   6.518   3.800
  815TIP3   OH2 2321   9.454   6.572   3.446
  815TIP3    H1 2322   9.376   6.539   3.401
  815TIP3    H2 2323   9.419   6.621   3.521
  816TIP3   OH2 2324   7.223   1.331   3.293
  816TIP3    H1 2325   7.146   1.363   3.247
  816TIP3    H2 2326   7.296   1.348   3.234
  817TIP3   OH2 2327   7.737   3.803   0.859
  817TIP3    H1 2328   7.685   3.835   0.786
  817TIP3    H2 2329   7.719   3.708   0.862
  818TIP3   OH2 2330   7.530   4.983   0.974
  818TIP3    H1 2331   7.441   4.974   1.008
  818TIP3    H2 2332   7.563   5.064   1.012
  819TIP3   OH2 2333   3.480   5.708   4.004
  819TIP3    H1 2334   3.554   5.720   3.943
  819TIP3    H2 2335   3.514   5.739   4.088
  820TIP3   OH2 2336   5.849   3.620   3.514
  820TIP3    H1 2337   5.853   3.606   3.419
  820TIP3    H2 2338   5.761   3.591   3.539
  821TIP3   OH2 2339   6.037   1.594   7.529
  821TIP3    H1 2340   5.976   1.527   7.499
  821TIP3    H2 2341   5.981   1.668   7.555
  822TIP3   OH2 2342   2.326   4.894   1.653
  822TIP3    H1 2343   2.383   4.855   1.586
  822TIP3    H2 2344   2.345   4.987   1.649
  823TIP3   OH2 2345   0.965   1.075   1.602
  823TIP3    H1 2346   1.047   1.038   1.569
  823TIP3    H2 2347   0.976   1.169   1.593
  824TIP3   OH2 2348   4.734   8.332   4.340
  824TIP3    H1 2349   4.651   8.341   4.293
  824TIP3    H2 2350   4.725   8.393   4.414
  825TIP3   OH2 2351   6.173   0.835   4.315
  825TIP3    H1 2352   6.092   0.802   4.354
  825TIP3    H2 2353   6.213   0.888   4.383
  826TIP3   OH2 2354   7.703   0.720   4.356
  826TIP3    H1 2355   7.690   0.786   4.425
  826TIP3    H2 2356   7.706   0.637   4.403
  827TIP3   OH2 2357   2.483   3.684   0.466
  827TIP3    H1 2358   2.401   3.732   0.457
  827TIP3    H2 2359   2.502   3.651   0.378
  828TIP3   OH2 2360   6.778   0.310   6.903
  828TIP3    H1 2361   6.763   0.384   6.961
  828TIP3    H2 2362   6.808   0.350   6.821
  829TIP3   OH2 2363   1.842   1.178   2.392
  829TIP3    H1 2364   1.757   1.222   2.395
  829TIP3    H2 2365   1.877   1.199   2.306
  830TIP3   OH2 2366   5.451   5.980   0.414
  830TIP3    H1 2367   5.401   6.016   0.341
  830TIP3    H2 2368   5.389   5.924   0.461
  831TIP3   OH2 2369   3.639   8.220   0.115
  831TIP3    H1 2370   3.624   8.126   0.107
  831TIP3    H2 2371   3.586   8.259   0.045
  832TIP3   OH2 2372   6.057   7.479   3.355
  832TIP3    H1 2373   6.032   7.445   3.441
  832TIP3    H2 2374   6.152   7.490   3.359
  833TIP3   OH2 2375   8.177   0.747   1.344
  833TIP3    H1 2376   8.223   0.805   1.404
  833TIP3    H2 2377   8.245   0.690   1.309
  834TIP3   OH2 2378   1.584   2.662   5.709
  834TIP3    H1 2379   1.654   2.663   5.774
  834TIP3    H2 2380   1.513   2.614   5.751
  835TIP3   OH2 2381   3.231   2.259   2.987
  835TIP3    H1 2382   3.204   2.237   3.076
  835TIP3    H2 2383   3.326   2.260   2.990
  836TIP3   OH2 2384   6.216   1.141   3.565
  836TIP3    H1 2385   6.147   1.186   3.613
  836TIP3    H2 2386   6.228   1.058   3.611
  837TIP3   OH2 2387   2.795   2.643   0.292
  837TIP3    H1 2388   2.719   2.700   0.276
  837TIP3    H2 2389   2.864   2.704   0.320
  838TIP3   OH2 2390   2.843   1.531   0.701
  838TIP3    H1 2391   2.772   1.485   0.656
  838TIP3    H2 2392   2.804   1.614   0.729
  839TIP3   OH2 2393   5.986   0.484   2.496
  839TIP3    H1 2394   6.014   0.564   2.452
  839TIP3    H2 2395   5.929   0.441   2.433
  840TIP3   OH2 2396   2.470   4.570   0.612
  840TIP3    H1 2397   2.412   4.630   0.566
  840TIP3    H2 2398   2.429   4.484   0.600
  841TIP3   OH2 2399   4.045   6.418   4.668
  841TIP3    H1 2400   4.080   6.487   4.724
  841TIP3    H2 2401   4.097   6.341   4.690
  842TIP3   OH2 2402   5.519   0.844   5.466
  842TIP3    H1 2403   5.613   0.864   5.459
  842TIP3    H2 2404   5.490   0.896   5.542
  843TIP3   OH2 2405   3.126   3.532   0.104
  843TIP3    H1 2406   3.192   3.546   0.036
  843TIP3    H2 2407   3.104   3.439   0.097
  844TIP3   OH2 2408   5.802   1.159   4.807
  844TIP3    H1 2409   5.890   1.193   4.822
  844TIP3    H2 2410   5.789   1.166   4.712
  845TIP3   OH2 2411   0.407   0.064   6.554
  845TIP3    H1 2412   0.405   0.096   6.464
  845TIP3    H2 2413   0.489   0.013   6.559
  846TIP3   OH2 2414   1.481   0.256   2.449
  846TIP3    H1 2415   1.501   0.346   2.422
  846TIP3    H2 2416   1.396   0.263   2.493
  847TIP3   OH2 2417   1.594   0.413   1.629
  847TIP3    H1 2418   1.539   0.337   1.647
  847TIP3    H2 2419   1.640   0.391   1.548
  848TIP3   OH2 2420   5.448   1.129   5.027
  848TIP3    H1 2421   5.370   1.076   5.009
  848TIP3    H2 2422   5.515   1.065   5.052
  849TIP3   OH2 2423   9.381   6.049   6.209
  849TIP3    H1 2424   9.349   5.988   6.275
  849TIP3    H2 2425   9.311   6.114   6.200
  850TIP3   OH2 2426   0.460   6.881   5.147
  850TIP3    H1 2427   0.541   6.902   5.194
  850TIP3    H2 2428   0.469   6.788   5.125
  851TIP3   OH2 2429   3.277   7.276   3.354
  851TIP3    H1 2430   3.229   7.216   3.410
  851TIP3    H2 2431   3.329   7.220   3.297
  852TIP3   OH2 2432   1.196   4.807   0.467
  852TIP3    H1 2433   1.168   4.867   0.398
  852TIP3    H2 2434   1.265   4.855   0.514
  853TIP3   OH2 2435   4.582   0.791   0.382
  853TIP3    H1 2436   4.499   0.832   0.359
  853TIP3    H2 2437   4.613   0.752   0.300
  854TIP3   OH2 2438   6.600   1.387   6.778
  854TIP3    H1 2439   6.678   1.420   6.823
  854TIP3    H2 2440   6.635   1.341   6.701
  855TIP3   OH2 2441   1.992   3.609   5.083
  855TIP3    H1 2442   2.064   3.546   5.096
  855TIP3    H2 2443   2.017   3.657   5.004
  856TIP3   OH2 2444   7.338   6.529   5.572
  856TIP3    H1 2445   7.292   6.582   5.506
  856TIP3    H2 2446   7.386   6.593   5.624
  857TIP3   OH2 2447   1.980   4.196   1.975
  857TIP3    H1 2448   2.052   4.169   2.031
  857TIP3    H2 2449   1.954   4.282   2.010
  858TIP3   OH2 2450   1.237   8.838   2.225
  858TIP3    H1 2451   1.279   8.920   2.251
  858TIP3    H2 2452   1.309   8.783   2.195
  859TIP3   OH2 2453   5.872   5.762   3.713
  859TIP3    H1 2454   5.911   5.822   3.650
  859TIP3    H2 2455   5.796   5.809   3.747
  860TIP3   OH2 2456   6.545   7.078   6.361
  860TIP3    H1 2457   6.518   7.115   6.277
  860TIP3    H2 2458   6.597   7.147   6.402
  861TIP3   OH2 2459   2.009   8.968   7.002
  861TIP3    H1 2460   2.043   8.881   7.023
  861TIP3    H2 2461   2.083   9.014   6.962
  862TIP3   OH2 2462   7.534   1.757   2.933
  862TIP3    H1 2463   7.600   1.763   2.864
  862TIP3    H2 2464   7.475   1.687   2.904
  863TIP3   OH2 2465   9.133   0.590   4.096
  863TIP3    H1 2466   9.123   0.671   4.145
  863TIP3    H2 2467   9.209   0.606   4.040
  864TIP3   OH2 2468   6.250   8.981   7.034
  864TIP3    H1 2469   6.179   8.970   7.097
  864TIP3    H2 2470   6.211   9.029   6.961
  865TIP3   OH2 2471   6.897   2.024   5.784
  865TIP3    H1 2472   6.851   2.009   5.867
  865TIP3    H2 2473   6.925   2.115   5.788
  866TIP3   OH2 2474   1.370   6.844   4.032
  866TIP3    H1 2475   1.433   6.848   4.104
  866TIP3    H2 2476   1.421   6.815   3.957
  867TIP3   OH2 2477   2.949   7.611   5.443
  867TIP3    H1 2478   2.958   7.516   5.443
  867TIP3    H2 2479   3.032   7.644   5.410
  868TIP3   OH2 2480   3.130   5.860   5.718
  868TIP3    H1 2481   3.197   5.811   5.669
  868TIP3    H2 2482   3.051   5.807   5.709
  869TIP3   OH2 2483   6.399   8.675   2.298
  869TIP3    H1 2484   6.464   8.608   2.318
  869TIP3    H2 2485   6.397   8.679   2.202
  870TIP3   OH2 2486   4.680   3.885   6.247
  870TIP3    H1 2487   4.758   3.837   6.219
  870TIP3    H2 2488   4.631   3.901   6.167
  871TIP3   OH2 2489   4.247   2.095   5.787
  871TIP3    H1 2490   4.171   2.039   5.768
  871TIP3    H2 2491   4.268   2.135   5.703
  872TIP3   OH2 2492   7.673   6.441   1.731
  872TIP3    H1 2493   7.609   6.373   1.712
  872TIP3    H2 2494   7.680   6.442   1.826
  873TIP3   OH2 2495   4.631   6.864   6.643
  873TIP3    H1 2496   4.696   6.920   6.686
  873TIP3    H2 2497   4.595   6.810   6.713
  874TIP3   OH2 2498   0.110   0.570   7.564
  874TIP3    H1 2499   0.117   0.559   7.469
  874TIP3    H2 2500   0.098   0.481   7.598
  875TIP3   OH2 2501   4.175   4.397   6.416
  875TIP3    H1 2502   4.244   4.331   6.428
  875TIP3    H2 2503   4.128   4.369   6.338
  876TIP3   OH2 2504   4.254   2.752   5.293
  876TIP3    H1 2505   4.199   2.828   5.309
  876TIP3    H2 2506   4.196   2.688   5.251
  877TIP3   OH2 2507   8.228   1.158   1.606
  877TIP3    H1 2508   8.291   1.155   1.678
  877TIP3    H2 2509   8.181   1.240   1.619
  878TIP3   OH2 2510   1.927   8.709   6.015
  878TIP3    H1 2511   1.962   8.750   6.094
  878TIP3    H2 2512   1.919   8.781   5.953
  879TIP3   OH2 2513   1.816   2.051   1.753
  879TIP3    H1 2514   1.777   2.136   1.773
  879TIP3    H2 2515   1.751   1.987   1.782
  880TIP3   OH2 2516   1.609   8.613   4.893
  880TIP3    H1 2517   1.526   8.600   4.847
  880TIP3    H2 2518   1.584   8.648   4.978
  881TIP3   OH2 2519   7.366   5.224   1.871
  881TIP3    H1 2520   7.416   5.306   1.880
  881TIP3    H2 2521   7.330   5.228   1.783
  882TIP3   OH2 2522   6.347   2.529   7.315
  882TIP3    H1 2523   6.281   2.510   7.382
  882TIP3    H2 2524   6.426   2.485   7.347
  883TIP3   OH2 2525   2.154   2.973   1.344
  883TIP3    H1 2526   2.172   2.879   1.345
  883TIP3    H2 2527   2.179   3.003   1.432
  884TIP3   OH2 2528   3.864   1.483   4.295
  884TIP3    H1 2529   3.934   1.418   4.292
  884TIP3    H2 2530   3.796   1.447   4.237
  885TIP3   OH2 2531   1.579   6.038   2.314
  885TIP3    H1 2532   1.487   6.064   2.314
  885TIP3    H2 2533   1.605   6.040   2.406
  886TIP3   OH2 2534   0.155   7.097   2.551
  886TIP3    H1 2535   0.191   7.018   2.511
  886TIP3    H2 2536   0.230   7.156   2.558
  887TIP3   OH2 2537   0.224   6.347   2.738
  887TIP3    H1 2538   0.212   6.317   2.828
  887TIP3    H2 2539   0.319   6.360   2.729
  888TIP3   OH2 2540   2.302   2.494   7.473
  888TIP3    H1 2541   2.336   2.453   7.553
  888TIP3    H2 2542   2.350   2.452   7.402
  889TIP3   OH2 2543   3.148   0.670   7.212
  889TIP3    H1 2544   3.155   0.725   7.289
  889TIP3    H2 2545   3.094   0.596   7.240
  890TIP3   OH2 2546   3.623   7.060   3.360
  890TIP3    H1 2547   3.532   7.088   3.357
  890TIP3    H2 2548   3.661   7.092   3.278
  891TIP3   OH2 2549   5.782   5.288   7.069
  891TIP3    H1 2550   5.854   5.308   7.128
  891TIP3    H2 2551   5.774   5.192   7.073
  892TIP3   OH2 2552   2.227   3.508   7.546
  892TIP3    H1 2553   2.139   3.527   7.514
  892TIP3    H2 2554   2.255   3.430   7.498
  893TIP3   OH2 2555   6.229   6.460   1.198
  893TIP3    H1 2556   6.286   6.404   1.251
  893TIP3    H2 2557   6.249   6.436   1.108
  894TIP3   OH2 2558   7.891   4.945   7.332
  894TIP3    H1 2559   7.831   4.999   7.385
  894TIP3    H2 2560   7.865   4.963   7.242
  895TIP3   OH2 2561   8.574   3.122   3.746
  895TIP3    H1 2562   8.610   3.035   3.728
  895TIP3    H2 2563   8.499   3.106   3.803
  896TIP3   OH2 2564   6.451   3.258   7.462
  896TIP3    H1 2565   6.473   3.177   7.415
  896TIP3    H2 2566   6.422   3.229   7.548
  897TIP3   OH2 2567   8.747   1.334   0.034
  897TIP3    H1 2568   8.705   1.344   0.119
  897TIP3    H2 2569   8.818   1.270   0.049
  898TIP3   OH2 2570   7.008   4.650   3.971
  898TIP3    H1 2571   6.995   4.733   3.924
  898TIP3    H2 2572   6.990   4.672   4.063
  899TIP3   OH2 2573   3.538   8.082   5.856
  899TIP3    H1 2574   3.522   8.169   5.892
  899TIP3    H2 2575   3.611   8.094   5.796
  900TIP3   OH2 2576   8.504   6.321   2.351
  900TIP3    H1 2577   8.578   6.298   2.408
  900TIP3    H2 2578   8.521   6.412   2.326
  901TIP3   OH2 2579   8.891   4.856   4.641
  901TIP3    H1 2580   8.898   4.934   4.586
  901TIP3    H2 2581   8.969   4.858   4.696
  902TIP3   OH2 2582   7.443   7.475   0.924
  902TIP3    H1 2583   7.490   7.493   0.843
  902TIP3    H2 2584   7.379   7.545   0.931
  903TIP3   OH2 2585   4.534   4.537   1.612
  903TIP3    H1 2586   4.442   4.552   1.589
  903TIP3    H2 2587   4.534   4.452   1.656
  904TIP3   OH2 2588   3.613   0.463   0.833
  904TIP3    H1 2589   3.538   0.471   0.774
  904TIP3    H2 2590   3.678   0.415   0.782
  905TIP3   OH2 2591   4.794   5.447   3.742
  905TIP3    H1 2592   4.744   5.371   3.771
  905TIP3    H2 2593   4.781   5.450   3.647
  906TIP3   OH2 2594   1.359   0.250   0.402
  906TIP3    H1 2595   1.292   0.277   0.465
  906TIP3    H2 2596   1.367   0.325   0.343
  907TIP3   OH2 2597   2.132   5.166   3.685
  907TIP3    H1 2598   2.127   5.261   3.694
  907TIP3    H2 2599   2.133   5.151   3.590
  908TIP3   OH2 2600   0.788   0.800   0.646
  908TIP3    H1 2601   0.744   0.778   0.563
  908TIP3    H2 2602   0.721   0.847   0.696
  909TIP3   OH2 2603   5.825   0.444   7.536
  909TIP3    H1 2604   5.893   0.480   7.479
  909TIP3    H2 2605   5.870   0.429   7.620
  910TIP3   OH2 2606   3.746   2.995   5.334
  910TIP3    H1 2607   3.765   3.055   5.407
  910TIP3    H2 2608   3.714   2.916   5.376
  911TIP3   OH2 2609   4.603   1.202   6.023
  911TIP3    H1 2610   4.694   1.229   6.026
  911TIP3    H2 2611   4.574   1.224   5.934
  912TIP3   OH2 2612   3.571   8.328   3.925
  912TIP3    H1 2613   3.488   8.374   3.935
  912TIP3    H2 2614   3.601   8.352   3.837
  913TIP3   OH2 2615   0.715   7.015   1.738
  913TIP3    H1 2616   0.777   7.016   1.811
  913TIP3    H2 2617   0.670   7.099   1.745
  914TIP3   OH2 2618   1.055   7.383   3.759
  914TIP3    H1 2619   0.962   7.397   3.779
  914TIP3    H2 2620   1.064   7.288   3.754
  915TIP3   OH2 2621   1.962   0.538   4.269
  915TIP3    H1 2622   1.879   0.490   4.263
  915TIP3    H2 2623   2.020   0.494   4.208
  916TIP3   OH2 2624   5.463   7.791   2.464
  916TIP3    H1 2625   5.439   7.853   2.395
  916TIP3    H2 2626   5.388   7.791   2.524
  917TIP3   OH2 2627   2.565   4.582   6.154
  917TIP3    H1 2628   2.470   4.588   6.149
  917TIP3    H2 2629   2.582   4.557   6.245
  918TIP3   OH2 2630   0.338   1.639   6.691
  918TIP3    H1 2631   0.247   1.658   6.711
  918TIP3    H2 2632   0.353   1.552   6.726
  919TIP3   OH2 2633   7.152   1.284   1.390
  919TIP3    H1 2634   7.219   1.229   1.351
  919TIP3    H2 2635   7.174   1.373   1.363
  920TIP3   OH2 2636   6.798   6.040   0.738
  920TIP3    H1 2637   6.838   6.126   0.732
  920TIP3    H2 2638   6.872   5.979   0.734
  921TIP3   OH2 2639   6.369   0.274   3.702
  921TIP3    H1 2640   6.342   0.240   3.788
  921TIP3    H2 2641   6.453   0.316   3.718
  922TIP3   OH2 2642   1.240   0.103   6.040
  922TIP3    H1 2643   1.328   0.092   6.076
  922TIP3    H2 2644   1.184   0.116   6.116
  923TIP3   OH2 2645   5.679   2.771   3.058
  923TIP3    H1 2646   5.584   2.777   3.068
  923TIP3    H2 2647   5.696   2.808   2.971
  924TIP3   OH2 2648   6.401   8.577   0.196
  924TIP3    H1 2649   6.374   8.558   0.106
  924TIP3    H2 2650   6.346   8.651   0.222
  925TIP3   OH2 2651   7.332   6.039   4.552
  925TIP3    H1 2652   7.307   6.038   4.460
  925TIP3    H2 2653   7.385   5.960   4.564
  926TIP3   OH2 2654   2.357   1.891   1.704
  926TIP3    H1 2655   2.429   1.954   1.710
  926TIP3    H2 2656   2.278   1.943   1.720
  927TIP3   OH2 2657   6.390   6.843   1.446
  927TIP3    H1 2658   6.351   6.831   1.359
  927TIP3    H2 2659   6.484   6.833   1.431
  928TIP3   OH2 2660   1.569   8.718   4.025
  928TIP3    H1 2661   1.633   8.743   3.958
  928TIP3    H2 2662   1.605   8.639   4.064
  929TIP3   OH2 2663   9.485   4.242   7.275
  929TIP3    H1 2664   9.459   4.171   7.333
  929TIP3    H2 2665   9.426   4.315   7.298
  930TIP3   OH2 2666   2.605   0.071   0.906
  930TIP3    H1 2667   2.583   0.160   0.878
  930TIP3    H2 2668   2.700   0.065   0.897
  931TIP3   OH2 2669   5.112   6.755   0.083
  931TIP3    H1 2670   5.137   6.838   0.042
  931TIP3    H2 2671   5.016   6.759   0.090
  932TIP3   OH2 2672   3.602   5.193   2.046
  932TIP3    H1 2673   3.658   5.213   2.121
  932TIP3    H2 2674   3.644   5.118   2.003
  933TIP3   OH2 2675   1.685   7.536   5.448
  933TIP3    H1 2676   1.630   7.550   5.370
  933TIP3    H2 2677   1.633   7.572   5.520
  934TIP3   OH2 2678   1.813   4.125   6.919
  934TIP3    H1 2679   1.764   4.068   6.860
  934TIP3    H2 2680   1.775   4.108   7.005
  935TIP3   OH2 2681   0.624   4.784   2.648
  935TIP3    H1 2682   0.611   4.749   2.737
  935TIP3    H2 2683   0.699   4.843   2.656
  936TIP3   OH2 2684   5.750   1.460   2.746
  936TIP3    H1 2685   5.759   1.463   2.842
  936TIP3    H2 2686   5.832   1.422   2.716
  937TIP3   OH2 2687   7.419   4.969   3.466
  937TIP3    H1 2688   7.335   4.932   3.440
  937TIP3    H2 2689   7.478   4.894   3.468
  938TIP3   OH2 2690   3.243   7.397   1.990
  938TIP3    H1 2691   3.272   7.485   2.013
  938TIP3    H2 2692   3.148   7.399   2.000
  939TIP3   OH2 2693   6.875   6.554   7.437
  939TIP3    H1 2694   6.847   6.464   7.418
  939TIP3    H2 2695   6.968   6.555   7.414
  940TIP3   OH2 2696   1.655   4.966   3.587
  940TIP3    H1 2697   1.582   4.906   3.575
  940TIP3    H2 2698   1.722   4.934   3.527
  941TIP3   OH2 2699   5.051   3.396   2.131
  941TIP3    H1 2700   5.030   3.304   2.149
  941TIP3    H2 2701   5.003   3.445   2.198
  942TIP3   OH2 2702   4.903   1.405   6.631
  942TIP3    H1 2703   4.816   1.367   6.621
  942TIP3    H2 2704   4.951   1.343   6.687
  943TIP3   OH2 2705   1.994   2.484   7.744
  943TIP3    H1 2706   1.984   2.579   7.751
  943TIP3    H2 2707   2.087   2.468   7.759
  944TIP3   OH2 2708   1.381   3.332   1.499
  944TIP3    H1 2709   1.314   3.398   1.480
  944TIP3    H2 2710   1.331   3.256   1.531
  945TIP3   OH2 2711   4.117   2.394   7.560
  945TIP3    H1 2712   4.197   2.341   7.567
  945TIP3    H2 2713   4.137   2.474   7.607
  946TIP3   OH2 2714   4.001   1.411   5.075
  946TIP3    H1 2715   4.093   1.413   5.101
  946TIP3    H2 2716   3.957   1.360   5.143
  947TIP3   OH2 2717   6.861   8.472   3.721
  947TIP3    H1 2718   6.790   8.535   3.709
  947TIP3    H2 2719   6.939   8.527   3.732
  948TIP3   OH2 2720   5.539   3.462   5.123
  948TIP3    H1 2721   5.468   3.450   5.186
  948TIP3    H2 2722   5.551   3.557   5.119
  949TIP3   OH2 2723   9.542   3.570   5.056
  949TIP3    H1 2724   9.543   3.498   5.120
  949TIP3    H2 2725   9.610   3.630   5.086
  950TIP3   OH2 2726   2.832   0.598   3.501
  950TIP3    H1 2727   2.862   0.508   3.512
  950TIP3    H2 2728   2.750   0.590   3.453
  951TIP3   OH2 2729   8.526   6.219   7.165
  951TIP3    H1 2730   8.598   6.158   7.149
  951TIP3    H2 2731   8.522   6.228   7.260
  952TIP3   OH2 2732   6.982   0.796   6.793
  952TIP3    H1 2733   7.015   0.721   6.744
  952TIP3    H2 2734   7.038   0.869   6.766
  953TIP3   OH2 2735   3.473   6.099   5.586
  953TIP3    H1 2736   3.527   6.178   5.589
  953TIP3    H2 2737   3.384   6.130   5.600
  954TIP3   OH2 2738   6.298   6.730   1.222
  954TIP3    H1 2739   6.283   6.776   1.139
  954TIP3    H2 2740   6.233   6.659   1.221
  955TIP3   OH2 2741   8.546   4.220   3.940
  955TIP3    H1 2742   8.502   4.136   3.926
  955TIP3    H2 2743   8.539   4.235   4.035
  956TIP3   OH2 2744   0.688   1.340   0.060
  956TIP3    H1 2745   0.701   1.267  -0.001
  956TIP3    H2 2746   0.602   1.376   0.037
  957TIP3   OH2 2747   3.978   0.422   4.479
  957TIP3    H1 2748   3.972   0.345   4.423
  957TIP3    H2 2749   3.948   0.494   4.424
  958TIP3   OH2 2750   4.496   6.206   0.678
  958TIP3    H1 2751   4.555   6.131   0.673
  958TIP3    H2 2752   4.412   6.173   0.647
  959TIP3   OH2 2753   0.138   0.245   5.435
  959TIP3    H1 2754   0.223   0.266   5.474
  959TIP3    H2 2755   0.095   0.331   5.426
  960TIP3   OH2 2756   1.605   2.000   2.798
  960TIP3    H1 2757   1.657   2.035   2.726
  960TIP3    H2 2758   1.649   1.919   2.823
  961TIP3   OH2 2759   5.944   5.842   1.116
  961TIP3    H1 2760   5.929   5.925   1.161
  961TIP3    H2 2761   5.871   5.786   1.144
  962TIP3   OH2 2762   5.006   8.011   0.680
  962TIP3    H1 2763   4.942   8.080   0.694
  962TIP3    H2 2764   5.004   7.995   0.585
  963TIP3   OH2 2765   1.678   3.053   3.299
  963TIP3    H1 2766   1.724   3.042   3.215
  963TIP3    H2 2767   1.741   3.022   3.364
  964TIP3   OH2 2768   0.118   4.673   4.485
  964TIP3    H1 2769   0.158   4.759   4.473
  964TIP3    H2 2770   0.097   4.669   4.579
  965TIP3   OH2 2771   9.329   0.490   7.599
  965TIP3    H1 2772   9.382   0.472   7.522
  965TIP3    H2 2773   9.294   0.578   7.584
  966TIP3   OH2 2774   7.877   5.139   5.586
  966TIP3    H1 2775   7.817   5.209   5.561
  966TIP3    H2 2776   7.945   5.182   5.638
  967TIP3   OH2 2777   0.880   7.482   2.005
  967TIP3    H1 2778   0.804   7.533   2.032
  967TIP3    H2 2779   0.877   7.403   2.059
  968TIP3   OH2 2780   9.558   6.887   5.268
  968TIP3    H1 2781   9.629   6.940   5.232
  968TIP3    H2 2782   9.527   6.835   5.194
  969TIP3   OH2 2783   6.939   2.995   6.436
  969TIP3    H1 2784   6.965   3.024   6.523
  969TIP3    H2 2785   7.021   2.969   6.394
  970TIP3   OH2 2786   7.650   6.270   7.685
  970TIP3    H1 2787   7.554   6.271   7.689
  970TIP3    H2 2788   7.671   6.184   7.648
  971TIP3   OH2 2789   7.135   8.428   1.100
  971TIP3    H1 2790   7.155   8.517   1.130
  971TIP3    H2 2791   7.178   8.371   1.164
  972TIP3   OH2 2792   6.684   5.596   4.336
  972TIP3    H1 2793   6.762   5.544   4.357
  972TIP3    H2 2794   6.714   5.687   4.345
  973TIP3   OH2 2795   4.200   5.647   3.173
  973TIP3    H1 2796   4.164   5.588   3.106
  973TIP3    H2 2797   4.135   5.646   3.242
  974TIP3   OH2 2798   9.039   4.392   5.593
  974TIP3    H1 2799   8.961   4.349   5.625
  974TIP3    H2 2800   9.089   4.413   5.671
  975TIP3   OH2 2801   6.104   0.481   3.409
  975TIP3    H1 2802   6.055   0.407   3.374
  975TIP3    H2 2803   6.126   0.533   3.332
  976TIP3   OH2 2804   4.530   2.728   3.005
  976TIP3    H1 2805   4.436   2.730   2.990
  976TIP3    H2 2806   4.568   2.718   2.918
  977TIP3   OH2 2807   7.533   5.894   6.562
  977TIP3    H1 2808   7.609   5.879   6.618
  977TIP3    H2 2809   7.506   5.984   6.583
  978TIP3   OH2 2810   4.282   5.824   3.357
  978TIP3    H1 2811   4.270   5.755   3.292
  978TIP3    H2 2812   4.226   5.798   3.430
  979TIP3   OH2 2813   2.855   4.529   0.056
  979TIP3    H1 2814   2.920   4.473   0.014
  979TIP3    H2 2815   2.905   4.580   0.120
  980TIP3   OH2 2816   5.948   0.604   1.849
  980TIP3    H1 2817   6.007   0.652   1.906
  980TIP3    H2 2818   5.969   0.512   1.865
  981TIP3   OH2 2819   9.451   7.969   3.168
  981TIP3    H1 2820   9.423   7.955   3.077
  981TIP3    H2 2821   9.415   7.894   3.215
  982TIP3   OH2 2822   4.282   5.382   4.903
  982TIP3    H1 2823   4.251   5.342   4.985
  982TIP3    H2 2824   4.203   5.390   4.849
  983TIP3   OH2 2825   0.308   7.683   5.998
  983TIP3    H1 2826   0.305   7.673   5.903
  983TIP3    H2 2827   0.393   7.647   6.024
  984TIP3   OH2 2828   4.110   1.602   5.351
  984TIP3    H1 2829   4.194   1.648   5.357
  984TIP3    H2 2830   4.118   1.529   5.412
  985TIP3   OH2 2831   1.758   5.941   7.738
  985TIP3    H1 2832   1.669   5.958   7.769
  985TIP3    H2 2833   1.759   5.972   7.648
  986TIP3   OH2 2834   4.502   0.686   2.175
  986TIP3    H1 2835   4.521   0.607   2.225
  986TIP3    H2 2836   4.412   0.675   2.147
  987TIP3   OH2 2837   1.590   0.650   4.201
  987TIP3    H1 2838   1.663   0.702   4.236
  987TIP3    H2 2839   1.513   0.706   4.212
  988TIP3   OH2 2840   5.404   6.289   5.691
  988TIP3    H1 2841   5.450   6.370   5.670
  988TIP3    H2 2842   5.311   6.310   5.680
  989TIP3   OH2 2843   4.016   5.497   2.974
  989TIP3    H1 2844   3.928   5.504   3.012
  989TIP3    H2 2845   4.001   5.469   2.884
  990TIP3   OH2 2846   6.170   5.114   6.994
  990TIP3    H1 2847   6.240   5.143   6.936
  990TIP3    H2 2848   6.148   5.192   7.046
  991TIP3   OH2 2849   6.641   5.101   6.147
  991TIP3    H1 2850   6.659   5.007   6.141
  991TIP3    H2 2851   6.690   5.139   6.074
  992TIP3   OH2 2852   0.591   3.152   6.570
  992TIP3    H1 2853   0.543   3.071   6.585
  992TIP3    H2 2854   0.569   3.177   6.480
  993TIP3   OH2 2855   0.096   6.450   3.789
  993TIP3    H1 2856   0.088   6.497   3.706
  993TIP3    H2 2857   0.125   6.517   3.851
  994TIP3   OH2 2858   0.505   3.552   3.139
  994TIP3    H1 2859   0.564   3.623   3.112
  994TIP3    H2 2860   0.552   3.472   3.113
  995TIP3   OH2 2861   3.831   8.656   4.642
  995TIP3    H1 2862   3.849   8.565   4.664
  995TIP3    H2 2863   3.855   8.664   4.549
  996TIP3   OH2 2864   9.293   1.507   0.359
  996TIP3    H1 2865   9.322   1.580   0.305
  996TIP3    H2 2866   9.234   1.457   0.303
  997TIP3   OH2 2867   0.775   3.018   4.999
  997TIP3    H1 2868   0.863   2.982   4.990
  997TIP3    H2 2869   0.717   2.942   4.990
  998TIP3   OH2 2870   7.410   2.116   2.175
  998TIP3    H1 2871   7.428   2.207   2.151
  998TIP3    H2 2872   7.317   2.103   2.154
  999TIP3   OH2 2873   6.421   0.900   2.587
  999TIP3    H1 2874   6.402   0.839   2.516
  999TIP3    H2 2875   6.490   0.857   2.638
 1000TIP3   OH2 2876   7.784   0.958   6.366
 1000TIP3    H1 2877   7.734   0.881   6.339
 1000TIP3    H2 2878   7.866   0.952   6.316
 1001TIP3   OH2 2879   8.528   1.824   0.305
 1001TIP3    H1 2880   8.458   1.807   0.369
 1001TIP3    H2 2881   8.600   1.858   0.358
 1002TIP3   OH2 2882   6.768   4.638   3.296
 1002TIP3    H1 2883   6.863   4.649   3.296
 1002TIP3    H2 2884   6.751   4.570   3.360
 1003TIP3   OH2 2885   4.875   0.859   3.833
 1003TIP3    H1 2886   4.874   0.944   3.876
 1003TIP3    H2 2887   4.965   0.849   3.801
 1004TIP3   OH2 2888   0.408   2.160   0.689
 1004TIP3    H1 2889   0.333   2.215   0.664
 1004TIP3    H2 2890   0.377   2.110   0.764
 1005TIP3   OH2 2891   3.159   0.355   0.867
 1005TIP3    H1 2892   3.154   0.451   0.866
 1005TIP3    H2 2893   3.094   0.327   0.802
 1006TIP3   OH2 2894   8.227   4.080   2.080
 1006TIP3    H1 2895   8.211   3.986   2.090
 1006TIP3    H2 2896   8.202   4.100   1.990
 1007TIP3   OH2 2897   0.210   7.158   0.760
 1007TIP3    H1 2898   0.187   7.124   0.673
 1007TIP3    H2 2899   0.278   7.100   0.792
 1008TIP3   OH2 2900   3.516   3.758   5.423
 1008TIP3    H1 2901   3.549   3.717   5.503
 1008TIP3    H2 2902   3.497   3.848   5.450
 1009TIP3   OH2 2903   9.303   4.356   7.534
 1009TIP3    H1 2904   9.253   4.344   7.453
 1009TIP3    H2 2905   9.255   4.304   7.599
 1010TIP3   OH2 2906   1.947   3.954   2.984
 1010TIP3    H1 2907   2.041   3.949   2.964
 1010TIP3    H2 2908   1.944   3.976   3.077
 1011TIP3   OH2 2909   5.631   1.754   1.681
 1011TIP3    H1 2910   5.588   1.768   1.766
 1011TIP3    H2 2911   5.724   1.742   1.703
 1012TIP3   OH2 2912   0.447   3.127   0.454
 1012TIP3    H1 2913   0.362   3.086   0.436
 1012TIP3    H2 2914   0.425   3.211   0.494
 1013TIP3   OH2 2915   9.263   2.050   7.752
 1013TIP3    H1 2916   9.284   1.979   7.812
 1013TIP3    H2 2917   9.283   2.130   7.801
 1014TIP3   OH2 2918   1.980   4.104   7.580
 1014TIP3    H1 2919   1.969   4.162   7.505
 1014TIP3    H2 2920   2.023   4.158   7.646
 1015TIP3   OH2 2921   7.034   8.376   2.564
 1015TIP3    H1 2922   7.045   8.291   2.608
 1015TIP3    H2 2923   7.009   8.353   2.474
 1016TIP3   OH2 2924   4.860   3.708   1.033
 1016TIP3    H1 2925   4.872   3.742   1.122
 1016TIP3    H2 2926   4.850   3.786   0.979
 1017TIP3   OH2 2927   4.702   0.612   6.946
 1017TIP3    H1 2928   4.701   0.589   6.853
 1017TIP3    H2 2929   4.679   0.531   6.991
 1018TIP3   OH2 2930   0.659   5.345   0.003
 1018TIP3    H1 2931   0.686   5.420  -0.050
 1018TIP3    H2 2932   0.578   5.373   0.045
 1019TIP3   OH2 2933   7.513   2.355   0.802
 1019TIP3    H1 2934   7.421   2.330   0.793
 1019TIP3    H2 2935   7.550   2.346   0.714
 1020TIP3   OH2 2936   1.281   3.849   2.047
 1020TIP3    H1 2937   1.276   3.754   2.061
 1020TIP3    H2 2938   1.339   3.859   1.971
 1021TIP3   OH2 2939   3.193   0.879   0.002
 1021TIP3    H1 2940   3.151   0.936   0.066
 1021TIP3    H2 2941   3.286   0.885   0.023
 1022TIP3   OH2 2942   4.668   0.857   2.355
 1022TIP3    H1 2943   4.726   0.907   2.297
 1022TIP3    H2 2944   4.598   0.825   2.297
 1023TIP3   OH2 2945   8.487   4.073   7.352
 1023TIP3    H1 2946   8.549   4.001   7.345
 1023TIP3    H2 2947   8.401   4.032   7.343
 1024TIP3   OH2 2948   1.655   7.787   6.164
 1024TIP3    H1 2949   1.578   7.747   6.124
 1024TIP3    H2 2950   1.729   7.742   6.122
 1025TIP3   OH2 2951   8.418   8.604   6.763
 1025TIP3    H1 2952   8.430   8.635   6.673
 1025TIP3    H2 2953   8.465   8.521   6.766
 1026TIP3   OH2 2954   8.211   0.722   2.743
 1026TIP3    H1 2955   8.134   0.713   2.799
 1026TIP3    H2 2956   8.175   0.744   2.656
 1027TIP3   OH2 2957   0.095   6.867   3.786
 1027TIP3    H1 2958   0.091   6.807   3.712
 1027TIP3    H2 2959   0.163   6.931   3.762
 1028TIP3   OH2 2960   8.082   7.870   0.128
 1028TIP3    H1 2961   8.111   7.947   0.080
 1028TIP3    H2 2962   8.082   7.800   0.063
 1029TIP3   OH2 2963   7.637   6.137   5.077
 1029TIP3    H1 2964   7.582   6.090   5.140
 1029TIP3    H2 2965   7.645   6.225   5.113
 1030TIP3   OH2 2966   2.125   3.405   1.668
 1030TIP3    H1 2967   2.221   3.400   1.665
 1030TIP3    H2 2968   2.096   3.314   1.660
 1031TIP3   OH2 2969   3.258   3.963   4.889
 1031TIP3    H1 2970   3.311   4.018   4.947
 1031TIP3    H2 2971   3.313   3.889   4.868
 1032TIP3   OH2 2972   8.998   7.921   1.463
 1032TIP3    H1 2973   9.059   7.936   1.535
 1032TIP3    H2 2974   8.966   7.832   1.476
 1033TIP3   OH2 2975   1.170   1.534   2.782
 1033TIP3    H1 2976   1.244   1.574   2.827
 1033TIP3    H2 2977   1.207   1.459   2.736
 1034TIP3   OH2 2978   2.625   2.526   4.931
 1034TIP3    H1 2979   2.574   2.530   4.850
 1034TIP3    H2 2980   2.569   2.478   4.991
 1035TIP3   OH2 2981   7.026   7.724   0.006
 1035TIP3    H1 2982   6.995   7.773   0.082
 1035TIP3    H2 2983   7.098   7.777  -0.029
 1036TIP3   OH2 2984   9.203   3.333   2.854
 1036TIP3    H1 2985   9.130   3.382   2.892
 1036TIP3    H2 2986   9.203   3.358   2.761
 1037TIP3   OH2 2987   8.705   0.227   6.115
 1037TIP3    H1 2988   8.640   0.286   6.153
 1037TIP3    H2 2989   8.761   0.202   6.188
 1038TIP3   OH2 2990   7.659   1.770   1.923
 1038TIP3    H1 2991   7.705   1.704   1.976
 1038TIP3    H2 2992   7.726   1.835   1.903
 1039TIP3   OH2 2993   2.502   5.224   3.371
 1039TIP3    H1 2994   2.447   5.288   3.416
 1039TIP3    H2 2995   2.454   5.142   3.378
 1040TIP3   OH2 2996   1.032   7.191   2.491
 1040TIP3    H1 2997   1.090   7.115   2.501
 1040TIP3    H2 2998   1.087   7.258   2.450
 1041TIP3   OH2 2999   6.641   0.401   2.078
 1041TIP3    H1 3000   6.685   0.459   2.015
 1041TIP3    H2 3001   6.694   0.321   2.077
 1042TIP3   OH2 3002   8.496   8.495   1.229
 1042TIP3    H1 3003   8.526   8.470   1.142
 1042TIP3    H2 3004   8.566   8.466   1.287
 1043TIP3   OH2 3005   9.489   4.456   3.485
 1043TIP3    H1 3006   9.577   4.462   3.447
 1043TIP3    H2 3007   9.473   4.362   3.492
 1044TIP3   OH2 3008   9.406   6.102   7.745
 1044TIP3    H1 3009   9.397   6.008   7.730
 1044TIP3    H2 3010   9.489   6.125   7.703
 1045TIP3   OH2 3011   0.394   1.123   5.774
 1045TIP3    H1 3012   0.454   1.171   5.718
 1045TIP3    H2 3013   0.349   1.191   5.825
 1046TIP3   OH2 3014   5.714   0.531   1.736
 1046TIP3    H1 3015   5.738   0.472   1.664
 1046TIP3    H2 3016   5.798   0.568   1.765
 1047TIP3   OH2 3017   3.678   0.651   1.616
 1047TIP3    H1 3018   3.629   0.692   1.545
 1047TIP3    H2 3019   3.770   0.663   1.591
 1048TIP3   OH2 3020   7.561   0.056   4.468
 1048TIP3    H1 3021   7.505   0.132   4.481
 1048TIP3    H2 3022   7.648   0.093   4.453
 1049TIP3   OH2 3023   5.609   8.708   7.441
 1049TIP3    H1 3024   5.541   8.643   7.426
 1049TIP3    H2 3025   5.664   8.705   7.363
 1050TIP3   OH2 3026   1.434   7.138   1.234
 1050TIP3    H1 3027   1.351   7.105   1.200
 1050TIP3    H2 3028   1.496   7.066   1.219
 1051TIP3   OH2 3029   3.726   2.710   6.581
 1051TIP3    H1 3030   3.720   2.650   6.507
 1051TIP3    H2 3031   3.732   2.654   6.658
 1052TIP3   OH2 3032   9.338   4.244   1.013
 1052TIP3    H1 3033   9.302   4.271   1.097
 1052TIP3    H2 3034   9.315   4.151   1.007
 1053TIP3   OH2 3035   3.361   4.181   5.386
 1053TIP3    H1 3036   3.447   4.148   5.360
 1053TIP3    H2 3037   3.355   4.160   5.479
 1054TIP3   OH2 3038   4.655   2.500   2.369
 1054TIP3    H1 3039   4.700   2.465   2.292
 1054TIP3    H2 3040   4.620   2.423   2.413
 1055TIP3   OH2 3041   0.893   5.049   3.217
 1055TIP3    H1 3042   0.977   5.044   3.171
 1055TIP3    H2 3043   0.917   5.071   3.307
 1056TIP3   OH2 3044   7.788   2.655   7.112
 1056TIP3    H1 3045   7.873   2.640   7.154
 1056TIP3    H2 3046   7.808   2.696   7.028
 1057TIP3   OH2 3047   6.354   3.954   1.673
 1057TIP3    H1 3048   6.373   3.887   1.607
 1057TIP3    H2 3049   6.262   3.976   1.660
 1058TIP3   OH2 3050   3.531   7.884   4.370
 1058TIP3    H1 3051   3.479   7.865   4.292
 1058TIP3    H2 3052   3.495   7.965   4.405
 1059TIP3   OH2 3053   3.207   1.778   7.243
 1059TIP3    H1 3054   3.200   1.683   7.230
 1059TIP3    H2 3055   3.144   1.797   7.312
 1060TIP3   OH2 3056   1.897   4.420   4.058
 1060TIP3    H1 3057   1.866   4.373   3.981
 1060TIP3    H2 3058   1.826   4.479   4.081
 1061TIP3   OH2 3059   6.970   8.272   4.259
 1061TIP3    H1 3060   6.971   8.354   4.309
 1061TIP3    H2 3061   6.936   8.297   4.173
 1062TIP3   OH2 3062   1.624   4.403   0.278
 1062TIP3    H1 3063   1.630   4.392   0.373
 1062TIP3    H2 3064   1.638   4.497   0.263
 1063TIP3   OH2 3065   4.212   8.840   6.870
 1063TIP3    H1 3066   4.196   8.929   6.837
 1063TIP3    H2 3067   4.228   8.852   6.964
 1064TIP3   OH2 3068   6.096   5.062   2.937
 1064TIP3    H1 3069   6.088   5.008   3.016
 1064TIP3    H2 3070   6.010   5.103   2.927
 1065TIP3   OH2 3071   5.243   1.275   6.173
 1065TIP3    H1 3072   5.230   1.369   6.158
 1065TIP3    H2 3073   5.200   1.258   6.257
 1066TIP3   OH2 3074   7.450   7.349   0.094
 1066TIP3    H1 3075   7.525   7.294   0.070
 1066TIP3    H2 3076   7.444   7.413   0.023
 1067TIP3   OH2 3077   2.121   6.529   6.097
 1067TIP3    H1 3078   2.036   6.524   6.053
 1067TIP3    H2 3079   2.161   6.608   6.061
 1068TIP3   OH2 3080   2.751   4.432   4.547
 1068TIP3    H1 3081   2.759   4.343   4.582
 1068TIP3    H2 3082   2.657   4.447   4.540
 1069TIP3   OH2 3083   4.137   6.495   6.413
 1069TIP3    H1 3084   4.155   6.402   6.425
 1069TIP3    H2 3085   4.186   6.539   6.483
 1070TIP3   OH2 3086   5.085   4.770   0.232
 1070TIP3    H1 3087   5.094   4.694   0.290
 1070TIP3    H2 3088   5.153   4.831   0.261
 1071TIP3   OH2 3089   5.410   6.127   7.724
 1071TIP3    H1 3090   5.443   6.200   7.672
 1071TIP3    H2 3091   5.390   6.059   7.660
 1072TIP3   OH2 3092   4.510   0.729   5.525
 1072TIP3    H1 3093   4.461   0.792   5.472
 1072TIP3    H2 3094   4.455   0.714   5.602
 1073TIP3   OH2 3095   5.072   1.070   6.988
 1073TIP3    H1 3096   4.999   1.074   6.927
 1073TIP3    H2 3097   5.044   1.122   7.063
 1074TIP3   OH2 3098   5.277   5.701   4.942
 1074TIP3    H1 3099   5.370   5.694   4.921
 1074TIP3    H2 3100   5.244   5.769   4.884
 1075TIP3   OH2 3101   7.548   0.265   0.002
 1075TIP3    H1 3102   7.503   0.229  -0.074
 1075TIP3    H2 3103   7.483   0.261   0.072
 1076TIP3   OH2 3104   1.397   6.546   1.002
 1076TIP3    H1 3105   1.450   6.478   1.045
 1076TIP3    H2 3106   1.440   6.558   0.917
 1077TIP3   OH2 3107   2.328   5.635   5.053
 1077TIP3    H1 3108   2.268   5.595   5.116
 1077TIP3    H2 3109   2.403   5.575   5.050
 1078TIP3   OH2 3110   3.382   7.818   4.137
 1078TIP3    H1 3111   3.444   7.794   4.068
 1078TIP3    H2 3112   3.303   7.844   4.089
 1079TIP3   OH2 3113   7.258   1.777   3.543
 1079TIP3    H1 3114   7.208   1.783   3.462
 1079TIP3    H2 3115   7.261   1.683   3.562
 1080TIP3   OH2 3116   4.544   8.699   0.614
 1080TIP3    H1 3117   4.481   8.640   0.654
 1080TIP3    H2 3118   4.575   8.754   0.686
 1081TIP3   OH2 3119   3.357   5.418   1.475
 1081TIP3    H1 3120   3.424   5.448   1.413
 1081TIP3    H2 3121   3.286   5.384   1.419
 1082TIP3   OH2 3122   3.551   1.731   7.525
 1082TIP3    H1 3123   3.498   1.652   7.516
 1082TIP3    H2 3124   3.488   1.803   7.513
 1083TIP3   OH2 3125   1.714   2.332   3.271
 1083TIP3    H1 3126   1.783   2.272   3.298
 1083TIP3    H2 3127   1.658   2.281   3.213
 1084TIP3   OH2 3128   1.476   3.452   0.037
 1084TIP3    H1 3129   1.386   3.454   0.069
 1084TIP3    H2 3130   1.529   3.436   0.116
 1085TIP3   OH2 3131   5.552   1.273   2.533
 1085TIP3    H1 3132   5.498   1.212   2.582
 1085TIP3    H2 3133   5.583   1.336   2.598
 1086TIP3   OH2 3134   8.286   7.669   6.050
 1086TIP3    H1 3135   8.379   7.653   6.067
 1086TIP3    H2 3136   8.243   7.650   6.133
 1087TIP3   OH2 3137   6.335   8.723   7.017
 1087TIP3    H1 3138   6.300   8.811   7.007
 1087TIP3    H2 3139   6.293   8.672   6.948
 1088TIP3   OH2 3140   3.159   4.672   0.034
 1088TIP3    H1 3141   3.148   4.577   0.041
 1088TIP3    H2 3142   3.118   4.707   0.113
 1089TIP3   OH2 3143   1.904   6.370   6.635
 1089TIP3    H1 3144   1.914   6.408   6.548
 1089TIP3    H2 3145   1.874   6.443   6.690
 1090TIP3   OH2 3146   8.496   1.570   4.236
 1090TIP3    H1 3147   8.513   1.488   4.283
 1090TIP3    H2 3148   8.573   1.583   4.181
 1091TIP3   OH2 3149   1.467   0.844   7.391
 1091TIP3    H1 3150   1.511   0.853   7.307
 1091TIP3    H2 3151   1.490   0.923   7.440
 1092TIP3   OH2 3152   9.199   0.240   1.961
 1092TIP3    H1 3153   9.272   0.183   1.987
 1092TIP3    H2 3154   9.128   0.216   2.020
 1093TIP3   OH2 3155   5.579   2.499   3.953
 1093TIP3    H1 3156   5.618   2.424   3.909
 1093TIP3    H2 3157   5.535   2.548   3.883
 1094TIP3   OH2 3158   3.504   4.195   2.445
 1094TIP3    H1 3159   3.487   4.187   2.539
 1094TIP3    H2 3160   3.542   4.282   2.435
 1095TIP3   OH2 3161   9.248   3.792   5.878
 1095TIP3    H1 3162   9.196   3.847   5.819
 1095TIP3    H2 3163   9.263   3.712   5.828
 1096TIP3   OH2 3164   6.781   5.770   1.520
 1096TIP3    H1 3165   6.806   5.811   1.603
 1096TIP3    H2 3166   6.856   5.714   1.497
 1097TIP3   OH2 3167   5.588   0.849   7.040
 1097TIP3    H1 3168   5.610   0.756   7.035
 1097TIP3    H2 3169   5.495   0.853   7.018
 1098TIP3   OH2 3170   7.509   3.661   4.199
 1098TIP3    H1 3171   7.480   3.652   4.108
 1098TIP3    H2 3172   7.573   3.732   4.196
 1099TIP3   OH2 3173   5.735   5.111   5.170
 1099TIP3    H1 3174   5.659   5.149   5.214
 1099TIP3    H2 3175   5.747   5.165   5.092
 1100TIP3   OH2 3176   4.551   6.982   3.095
 1100TIP3    H1 3177   4.631   6.955   3.050
 1100TIP3    H2 3178   4.576   7.060   3.144
 1101TIP3   OH2 3179   1.467   6.401   6.312
 1101TIP3    H1 3180   1.474   6.307   6.293
 1101TIP3    H2 3181   1.396   6.432   6.256
 1102TIP3   OH2 3182   6.252   4.293   4.482
 1102TIP3    H1 3183   6.314   4.309   4.553
 1102TIP3    H2 3184   6.196   4.371   4.481
 1103TIP3   OH2 3185   2.867   2.070   1.807
 1103TIP3    H1 3186   2.902   2.155   1.782
 1103TIP3    H2 3187   2.907   2.051   1.892
 1104TIP3   OH2 3188   0.617   8.586   1.702
 1104TIP3    H1 3189   0.605   8.681   1.705
 1104TIP3    H2 3190   0.655   8.569   1.616
 1105TIP3   OH2 3191   8.905   0.862   2.572
 1105TIP3    H1 3192   8.881   0.954   2.577
 1105TIP3    H2 3193   8.969   0.857   2.500
 1106TIP3   OH2 3194   1.535   4.169   4.528
 1106TIP3    H1 3195   1.523   4.241   4.590
 1106TIP3    H2 3196   1.619   4.130   4.553
 1107TIP3   OH2 3197   1.483   5.041   5.566
 1107TIP3    H1 3198   1.483   5.046   5.662
 1107TIP3    H2 3199   1.494   5.131   5.538
 1108TIP3   OH2 3200   5.254   2.457   4.815
 1108TIP3    H1 3201   5.323   2.401   4.781
 1108TIP3    H2 3202   5.252   2.532   4.755
 1109TIP3   OH2 3203   3.185   3.877   0.830
 1109TIP3    H1 3204   3.197   3.971   0.842
 1109TIP3    H2 3205   3.105   3.869   0.777
 1110TIP3   OH2 3206   5.279   8.910   2.508
 1110TIP3    H1 3207   5.288   8.986   2.451
 1110TIP3    H2 3208   5.365   8.868   2.505
 1111TIP3   OH2 3209   5.635   5.982   1.359
 1111TIP3    H1 3210   5.697   5.928   1.409
 1111TIP3    H2 3211   5.566   5.921   1.333
 1112TIP3   OH2 3212   4.524   7.059   5.221
 1112TIP3    H1 3213   4.475   6.986   5.259
 1112TIP3    H2 3214   4.533   7.121   5.294
 1113TIP3   OH2 3215   4.897   3.035   1.318
 1113TIP3    H1 3216   4.829   3.102   1.308
 1113TIP3    H2 3217   4.962   3.075   1.376
 1114TIP3   OH2 3218   3.734   3.228   4.651
 1114TIP3    H1 3219   3.785   3.246   4.572
 1114TIP3    H2 3220   3.707   3.315   4.682
 1115TIP3   OH2 3221   3.646   8.743   1.393
 1115TIP3    H1 3222   3.606   8.785   1.317
 1115TIP3    H2 3223   3.659   8.815   1.456
 1116TIP3   OH2 3224   4.145   2.033   0.753
 1116TIP3    H1 3225   4.169   1.970   0.686
 1116TIP3    H2 3226   4.070   2.081   0.716
 1117TIP3   OH2 3227   3.799   7.651   3.221
 1117TIP3    H1 3228   3.828   7.726   3.274
 1117TIP3    H2 3229   3.718   7.681   3.180
 1118TIP3   OH2 3230   2.946   7.811   5.772
 1118TIP3    H1 3231   2.876   7.819   5.707
 1118TIP3    H2 3232   2.901   7.793   5.855
 1119TIP3   OH2 3233   1.222   5.554   3.198
 1119TIP3    H1 3234   1.271   5.505   3.264
 1119TIP3    H2 3235   1.226   5.645   3.228
 1120TIP3   OH2 3236   2.587   1.250   7.620
 1120TIP3    H1 3237   2.553   1.300   7.546
 1120TIP3    H2 3238   2.679   1.235   7.599
 1121TIP3   OH2 3239   5.310   3.841   4.635
 1121TIP3    H1 3240   5.215   3.831   4.625
 1121TIP3    H2 3241   5.341   3.865   4.548
 1122TIP3   OH2 3242   8.240   5.969   1.660
 1122TIP3    H1 3243   8.313   6.012   1.615
 1122TIP3    H2 3244   8.271   5.955   1.749
 1123TIP3   OH2 3245   1.875   2.995   4.494
 1123TIP3    H1 3246   1.849   3.052   4.422
 1123TIP3    H2 3247   1.807   3.009   4.561
 1124TIP3   OH2 3248   3.983   8.676   2.439
 1124TIP3    H1 3249   4.049   8.705   2.376
 1124TIP3    H2 3250   3.920   8.748   2.442
 1125TIP3   OH2 3251   0.505   1.220   7.258
 1125TIP3    H1 3252   0.592   1.246   7.229
 1125TIP3    H2 3253   0.449   1.294   7.236
 1126TIP3   OH2 3254   3.337   3.096   0.082
 1126TIP3    H1 3255   3.366   3.051   0.161
 1126TIP3    H2 3256   3.313   3.025   0.022
 1127TIP3   OH2 3257   0.059   4.826   2.972
 1127TIP3    H1 3258   0.132   4.781   3.015
 1127TIP3    H2 3259  -0.002   4.847   3.042
 1128TIP3   OH2 3260   1.647   2.326   6.518
 1128TIP3    H1 3261   1.737   2.298   6.535
 1128TIP3    H2 3262   1.603   2.246   6.489
 1129TIP3   OH2 3263   1.543   4.346   1.106
 1129TIP3    H1 3264   1.599   4.417   1.137
 1129TIP3    H2 3265   1.584   4.266   1.139
 1130TIP3   OH2 3266   0.963   5.423   1.805
 1130TIP3    H1 3267   1.040   5.403   1.857
 1130TIP3    H2 3268   0.895   5.366   1.840
 1131TIP3   OH2 3269   5.424   1.754   7.178
 1131TIP3    H1 3270   5.402   1.836   7.133
 1131TIP3    H2 3271   5.519   1.755   7.185
 1132TIP3   OH2 3272   4.606   3.655   5.706
 1132TIP3    H1 3273   4.674   3.716   5.734
 1132TIP3    H2 3274   4.565   3.698   5.631
 1133TIP3   OH2 3275   2.889   1.271   2.616
 1133TIP3    H1 3276   2.804   1.234   2.594
 1133TIP3    H2 3277   2.949   1.234   2.551
 1134TIP3   OH2 3278   4.809   0.667   2.570
 1134TIP3    H1 3279   4.726   0.619   2.575
 1134TIP3    H2 3280   4.812   0.700   2.480
 1135TIP3   OH2 3281   6.836   5.642   5.762
 1135TIP3    H1 3282   6.876   5.628   5.676
 1135TIP3    H2 3283   6.831   5.555   5.801
 1136TIP3   OH2 3284   9.258   6.276   1.333
 1136TIP3    H1 3285   9.192   6.253   1.268
 1136TIP3    H2 3286   9.336   6.296   1.282
 1137TIP3   OH2 3287   3.665   8.692   3.948
 1137TIP3    H1 3288   3.604   8.707   3.876
 1137TIP3    H2 3289   3.613   8.702   4.027
 1138TIP3   OH2 3290   2.248   3.596   0.260
 1138TIP3    H1 3291   2.199   3.664   0.306
 1138TIP3    H2 3292   2.222   3.514   0.302
 1139TIP3   OH2 3293   6.505   3.555   6.109
 1139TIP3    H1 3294   6.590   3.540   6.150
 1139TIP3    H2 3295   6.473   3.468   6.086
 1140TIP3   OH2 3296   2.875   8.584   0.122
 1140TIP3    H1 3297   2.809   8.536   0.072
 1140TIP3    H2 3298   2.854   8.568   0.213
 1141TIP3   OH2 3299   9.446   5.249   7.511
 1141TIP3    H1 3300   9.425   5.226   7.601
 1141TIP3    H2 3301   9.438   5.167   7.462
 1142TIP3   OH2 3302   1.379   2.085   0.110
 1142TIP3    H1 3303   1.319   2.011   0.099
 1142TIP3    H2 3304   1.326   2.152   0.152
 1143TIP3   OH2 3305   1.446   6.636   0.752
 1143TIP3    H1 3306   1.365   6.621   0.704
 1143TIP3    H2 3307   1.512   6.588   0.703
 1144TIP3   OH2 3308   2.461   3.189   0.890
 1144TIP3    H1 3309   2.504   3.264   0.850
 1144TIP3    H2 3310   2.523   3.158   0.956
 1145TIP3   OH2 3311   2.895   2.560   2.859
 1145TIP3    H1 3312   2.882   2.542   2.952
 1145TIP3    H2 3313   2.990   2.551   2.845
 1146TIP3   OH2 3314   3.816   2.074   4.548
 1146TIP3    H1 3315   3.771   2.052   4.467
 1146TIP3    H2 3316   3.890   2.014   4.552
 1147TIP3   OH2 3317   7.446   0.758   0.106
 1147TIP3    H1 3318   7.493   0.745   0.024
 1147TIP3    H2 3319   7.494   0.706   0.170
 1148TIP3   OH2 3320   8.691   0.546   2.780
 1148TIP3    H1 3321   8.651   0.459   2.787
 1148TIP3    H2 3322   8.748   0.553   2.856
 1149TIP3   OH2 3323   5.267   2.308   6.292
 1149TIP3    H1 3324   5.282   2.347   6.206
 1149TIP3    H2 3325   5.310   2.368   6.353
 1150TIP3   OH2 3326   1.536   3.833   5.186
 1150TIP3    H1 3327   1.536   3.832   5.091
 1150TIP3    H2 3328   1.603   3.770   5.211
 1151TIP3   OH2 3329   6.634   3.473   0.531
 1151TIP3    H1 3330   6.663   3.382   0.535
 1151TIP3    H2 3331   6.678   3.515   0.605
 1152TIP3   OH2 3332   5.502   2.150   3.699
 1152TIP3    H1 3333   5.453   2.069   3.707
 1152TIP3    H2 3334   5.559   2.150   3.776
 1153TIP3   OH2 3335   8.257   3.787   0.535
 1153TIP3    H1 3336   8.300   3.861   0.577
 1153TIP3    H2 3337   8.204   3.747   0.604
 1154TIP3   OH2 3338   4.646   4.684   3.782
 1154TIP3    H1 3339   4.596   4.764   3.800
 1154TIP3    H2 3340   4.579   4.617   3.767
 1155TIP3   OH2 3341   4.785   6.947   6.005
 1155TIP3    H1 3342   4.872   6.983   5.985
 1155TIP3    H2 3343   4.774   6.876   5.942
 1156TIP3   OH2 3344   9.390   5.134   1.102
 1156TIP3    H1 3345   9.307   5.137   1.149
 1156TIP3    H2 3346   9.379   5.066   1.036
 1157TIP3   OH2 3347   5.967   6.678   3.617
 1157TIP3    H1 3348   5.938   6.606   3.673
 1157TIP3    H2 3349   5.887   6.710   3.575
 1158TIP3   OH2 3350   7.315   8.234   1.807
 1158TIP3    H1 3351   7.331   8.271   1.720
 1158TIP3    H2 3352   7.299   8.310   1.863
 1159TIP3   OH2 3353   2.456   4.084   0.815
 1159TIP3    H1 3354   2.536   4.075   0.867
 1159TIP3    H2 3355   2.445   3.999   0.773
 1160TIP3   OH2 3356   3.661   0.575   7.097
 1160TIP3    H1 3357   3.644   0.649   7.038
 1160TIP3    H2 3358   3.576   0.533   7.109
 1161TIP3   OH2 3359   3.824   7.039   1.324
 1161TIP3    H1 3360   3.733   7.010   1.319
 1161TIP3    H2 3361   3.820   7.126   1.365
 1162TIP3   OH2 3362   2.047   0.669   0.601
 1162TIP3    H1 3363   2.081   0.586   0.567
 1162TIP3    H2 3364   1.978   0.693   0.540
 1163TIP3   OH2 3365   7.822   5.941   2.317
 1163TIP3    H1 3366   7.912   5.944   2.349
 1163TIP3    H2 3367   7.830   5.910   2.226
 1164TIP3   OH2 3368   6.996   7.559   5.989
 1164TIP3    H1 3369   6.995   7.604   5.905
 1164TIP3    H2 3370   6.944   7.615   6.047
 1165TIP3   OH2 3371   4.015   6.625   3.952
 1165TIP3    H1 3372   3.954   6.586   4.014
 1165TIP3    H2 3373   4.061   6.692   4.002
 1166TIP3   OH2 3374   1.484   1.599   3.380
 1166TIP3    H1 3375   1.412   1.585   3.441
 1166TIP3    H2 3376   1.483   1.522   3.323
 1167TIP3   OH2 3377   2.547   7.849   3.109
 1167TIP3    H1 3378   2.515   7.761   3.090
 1167TIP3    H2 3379   2.569   7.885   3.023
 1168TIP3   OH2 3380   3.242   4.928   3.112
 1168TIP3    H1 3381   3.330   4.945   3.081
 1168TIP3    H2 3382   3.214   5.009   3.154
 1169TIP3   OH2 3383   5.196   1.203   3.974
 1169TIP3    H1 3384   5.271   1.180   3.920
 1169TIP3    H2 3385   5.136   1.248   3.915
 1170TIP3   OH2 3386   9.044   2.737   1.380
 1170TIP3    H1 3387   9.100   2.677   1.429
 1170TIP3    H2 3388   9.101   2.810   1.357
 1171TIP3   OH2 3389   6.684   2.838   5.307
 1171TIP3    H1 3390   6.606   2.789   5.334
 1171TIP3    H2 3391   6.669   2.927   5.340
 1172TIP3   OH2 3392   5.959   2.035   7.077
 1172TIP3    H1 3393   6.013   1.988   7.013
 1172TIP3    H2 3394   5.966   1.983   7.157
 1173TIP3   OH2 3395   5.262   3.417   6.446
 1173TIP3    H1 3396   5.345   3.461   6.464
 1173TIP3    H2 3397   5.282   3.356   6.374
 1174TIP3   OH2 3398   9.552   5.834   5.817
 1174TIP3    H1 3399   9.527   5.868   5.731
 1174TIP3    H2 3400   9.527   5.903   5.879
 1175TIP3   OH2 3401   2.444   7.370   5.491
 1175TIP3    H1 3402   2.531   7.340   5.465
 1175TIP3    H2 3403   2.413   7.421   5.417
 1176TIP3   OH2 3404   5.975   8.124   5.806
 1176TIP3    H1 3405   6.025   8.194   5.848
 1176TIP3    H2 3406   5.960   8.156   5.717
 1177TIP3   OH2 3407   0.223   7.643   1.329
 1177TIP3    H1 3408   0.232   7.608   1.241
 1177TIP3    H2 3409   0.212   7.738   1.316
 1178TIP3   OH2 3410   7.817   5.229   0.917
 1178TIP3    H1 3411   7.829   5.219   1.011
 1178TIP3    H2 3412   7.902   5.259   0.885
 1179TIP3   OH2 3413   5.659   0.976   6.569
 1179TIP3    H1 3414   5.668   0.882   6.583
 1179TIP3    H2 3415   5.741   1.003   6.528
 1180TIP3   OH2 3416   1.518   0.839   0.286
 1180TIP3    H1 3417   1.461   0.899   0.239
 1180TIP3    H2 3418   1.462   0.801   0.354
 1181TIP3   OH2 3419   8.260   5.551   1.846
 1181TIP3    H1 3420   8.237   5.635   1.806
 1181TIP3    H2 3421   8.193   5.491   1.813
 1182TIP3   OH2 3422   1.997   0.797   3.779
 1182TIP3    H1 3423   2.042   0.861   3.724
 1182TIP3    H2 3424   2.065   0.760   3.835
 1183TIP3   OH2 3425   9.400   7.023   4.941
 1183TIP3    H1 3426   9.472   7.046   4.999
 1183TIP3    H2 3427   9.336   6.979   4.997
 1184TIP3   OH2 3428   5.791   1.784   4.536
 1184TIP3    H1 3429   5.868   1.841   4.527
 1184TIP3    H2 3430   5.718   1.845   4.547
 1185TIP3   OH2 3431   0.219   3.281   3.998
 1185TIP3    H1 3432   0.157   3.326   3.941
 1185TIP3    H2 3433   0.302   3.281   3.949
 1186TIP3   OH2 3434   8.277   0.235   3.325
 1186TIP3    H1 3435   8.233   0.152   3.307
 1186TIP3    H2 3436   8.306   0.267   3.239
 1187TIP3   OH2 3437   8.134   5.268   3.781
 1187TIP3    H1 3438   8.212   5.221   3.812
 1187TIP3    H2 3439   8.103   5.217   3.707
 1188TIP3   OH2 3440   8.464   6.120   2.199
 1188TIP3    H1 3441   8.476   6.205   2.241
 1188TIP3    H2 3442   8.524   6.062   2.246
 1189TIP3   OH2 3443   6.216   4.294   1.941
 1189TIP3    H1 3444   6.300   4.332   1.913
 1189TIP3    H2 3445   6.234   4.260   2.029
 1190TIP3   OH2 3446   8.989   3.879   6.523
 1190TIP3    H1 3447   8.902   3.916   6.506
 1190TIP3    H2 3448   9.050   3.938   6.480
 1191TIP3   OH2 3449   3.718   0.110   6.892
 1191TIP3    H1 3450   3.626   0.084   6.892
 1191TIP3    H2 3451   3.717   0.205   6.900
 1192TIP3   OH2 3452   7.672   0.581   6.930
 1192TIP3    H1 3453   7.648   0.666   6.891
 1192TIP3    H2 3454   7.589   0.533   6.935
 1193TIP3   OH2 3455   5.760   3.842   2.007
 1193TIP3    H1 3456   5.687   3.841   2.069
 1193TIP3    H2 3457   5.811   3.919   2.031
 1194TIP3   OH2 3458   0.427   8.292   1.821
 1194TIP3    H1 3459   0.421   8.352   1.746
 1194TIP3    H2 3460   0.471   8.215   1.786
 1195TIP3   OH2 3461   1.488   3.094   0.829
 1195TIP3    H1 3462   1.531   3.165   0.876
 1195TIP3    H2 3463   1.420   3.138   0.777
 1196TIP3   OH2 3464   3.072   2.098   4.291
 1196TIP3    H1 3465   3.055   2.031   4.356
 1196TIP3    H2 3466   3.062   2.053   4.207
 1197TIP3   OH2 3467   4.064   4.852   4.317
 1197TIP3    H1 3468   4.081   4.898   4.400
 1197TIP3    H2 3469   4.023   4.918   4.262
 1198TIP3   OH2 3470   6.312   5.500   4.121
 1198TIP3    H1 3471   6.230   5.547   4.140
 1198TIP3    H2 3472   6.289   5.439   4.051
 1199TIP3   OH2 3473   1.752   7.305   4.594
 1199TIP3    H1 3474   1.740   7.241   4.524
 1199TIP3    H2 3475   1.663   7.333   4.616
 1200TIP3   OH2 3476   5.650   5.608   6.533
 1200TIP3    H1 3477   5.606   5.523   6.529
 1200TIP3    H2 3478   5.578   5.672   6.534
 1201TIP3   OH2 3479   3.350   8.090   0.691
 1201TIP3    H1 3480   3.255   8.072   0.694
 1201TIP3    H2 3481   3.387   8.011   0.652
 1202TIP3   OH2 3482   9.226   1.530   6.076
 1202TIP3    H1 3483   9.269   1.614   6.059
 1202TIP3    H2 3484   9.239   1.516   6.170
 1203TIP3   OH2 3485   0.345   8.974   2.486
 1203TIP3    H1 3486   0.328   9.045   2.424
 1203TIP3    H2 3487   0.258   8.948   2.516
 1204TIP3   OH2 3488   5.853   6.431   4.168
 1204TIP3    H1 3489   5.924   6.377   4.205
 1204TIP3    H2 3490   5.898   6.498   4.118
 1205TIP3   OH2 3491   6.877   3.600   4.875
 1205TIP3    H1 3492   6.968   3.577   4.858
 1205TIP3    H2 3493   6.829   3.567   4.800
 1206TIP3   OH2 3494   3.176   3.424   3.169
 1206TIP3    H1 3495   3.133   3.510   3.163
 1206TIP3    H2 3496   3.184   3.395   3.078
 1207TIP3   OH2 3497   4.310   0.730   1.261
 1207TIP3    H1 3498   4.216   0.738   1.279
 1207TIP3    H2 3499   4.319   0.757   1.170
 1208TIP3   OH2 3500   9.183   6.776   2.760
 1208TIP3    H1 3501   9.231   6.738   2.834
 1208TIP3    H2 3502   9.251   6.821   2.709
 1209TIP3   OH2 3503   0.844   8.322   4.839
 1209TIP3    H1 3504   0.801   8.400   4.875
 1209TIP3    H2 3505   0.923   8.311   4.892
 1210TIP3   OH2 3506   8.828   4.696   4.111
 1210TIP3    H1 3507   8.804   4.616   4.158
 1210TIP3    H2 3508   8.882   4.745   4.172
 1211TIP3   OH2 3509   4.493   2.763   5.167
 1211TIP3    H1 3510   4.464   2.840   5.118
 1211TIP3    H2 3511   4.419   2.743   5.225
 1212TIP3   OH2 3512   4.187   2.007   2.963
 1212TIP3    H1 3513   4.238   2.018   2.883
 1212TIP3    H2 3514   4.249   2.022   3.034
 1213TIP3   OH2 3515   8.502   1.232   0.796
 1213TIP3    H1 3516   8.446   1.302   0.828
 1213TIP3    H2 3517   8.565   1.218   0.867
 1214TIP3   OH2 3518   2.297   6.098   0.685
 1214TIP3    H1 3519   2.292   6.130   0.774
 1214TIP3    H2 3520   2.317   6.175   0.632
 1215TIP3   OH2 3521   3.568   7.661   5.425
 1215TIP3    H1 3522   3.523   7.727   5.372
 1215TIP3    H2 3523   3.558   7.579   5.375
 1216TIP3   OH2 3524   8.716   2.205   0.270
 1216TIP3    H1 3525   8.793   2.260   0.285
 1216TIP3    H2 3526   8.750   2.117   0.255
 1217TIP3   OH2 3527   5.825   2.230   5.586
 1217TIP3    H1 3528   5.763   2.158   5.599
 1217TIP3    H2 3529   5.885   2.225   5.660
 1218TIP3   OH2 3530   5.896   5.261   2.922
 1218TIP3    H1 3531   5.819   5.218   2.958
 1218TIP3    H2 3532   5.926   5.319   2.992
 1219TIP3   OH2 3533   6.387   4.867   6.950
 1219TIP3    H1 3534   6.297   4.877   6.920
 1219TIP3    H2 3535   6.441   4.883   6.872
 1220TIP3   OH2 3536   8.397   2.830   4.187
 1220TIP3    H1 3537   8.307   2.826   4.154
 1220TIP3    H2 3538   8.444   2.766   4.133
 1221TIP3   OH2 3539   0.995   2.098   2.079
 1221TIP3    H1 3540   0.991   2.106   2.174
 1221TIP3    H2 3541   0.905   2.117   2.050
 1222TIP3   OH2 3542   3.749   5.973   1.243
 1222TIP3    H1 3543   3.795   5.929   1.314
 1222TIP3    H2 3544   3.812   6.038   1.210
 1223TIP3   OH2 3545   7.770   8.494   1.813
 1223TIP3    H1 3546   7.694   8.451   1.773
 1223TIP3    H2 3547   7.763   8.585   1.783
 1224TIP3   OH2 3548   1.146   4.477   6.306
 1224TIP3    H1 3549   1.062   4.511   6.276
 1224TIP3    H2 3550   1.126   4.391   6.342
 1225TIP3   OH2 3551   9.491   8.936   0.907
 1225TIP3    H1 3552   9.542   8.955   0.828
 1225TIP3    H2 3553   9.557   8.917   0.974
 1226TIP3   OH2 3554   4.122   3.280   6.319
 1226TIP3    H1 3555   4.163   3.195   6.301
 1226TIP3    H2 3556   4.034   3.272   6.282
 1227TIP3   OH2 3557   7.425   2.967   6.319
 1227TIP3    H1 3558   7.357   2.901   6.316
 1227TIP3    H2 3559   7.507   2.917   6.320
 1228TIP3   OH2 3560   0.449   3.538   6.535
 1228TIP3    H1 3561   0.380   3.558   6.472
 1228TIP3    H2 3562   0.527   3.525   6.481
 1229TIP3   OH2 3563   2.635   1.621   4.178
 1229TIP3    H1 3564   2.727   1.600   4.161
 1229TIP3    H2 3565   2.626   1.711   4.148
 1230TIP3   OH2 3566   6.605   6.827   6.293
 1230TIP3    H1 3567   6.590   6.803   6.202
 1230TIP3    H2 3568   6.600   6.923   6.293
 1231TIP3   OH2 3569   0.987   1.119   7.625
 1231TIP3    H1 3570   1.080   1.137   7.639
 1231TIP3    H2 3571   0.950   1.203   7.599
 1232TIP3   OH2 3572   1.832   0.778   4.904
 1232TIP3    H1 3573   1.745   0.793   4.942
 1232TIP3    H2 3574   1.832   0.828   4.823
 1233TIP3   OH2 3575   2.965   1.589   6.831
 1233TIP3    H1 3576   3.035   1.648   6.859
 1233TIP3    H2 3577   2.999   1.501   6.849
 1234TIP3   OH2 3578   7.664   7.660   5.247
 1234TIP3    H1 3579   7.738   7.614   5.206
 1234TIP3    H2 3580   7.697   7.684   5.334
 1235TIP3   OH2 3581   7.470   7.365   2.813
 1235TIP3    H1 3582   7.481   7.272   2.833
 1235TIP3    H2 3583   7.427   7.366   2.728
 1236TIP3   OH2 3584   8.587   6.516   7.410
 1236TIP3    H1 3585   8.611   6.463   7.486
 1236TIP3    H2 3586   8.496   6.540   7.426
 1237TIP3   OH2 3587   7.730   3.384   5.919
 1237TIP3    H1 3588   7.809   3.438   5.918
 1237TIP3    H2 3589   7.673   3.427   5.983
 1238TIP3   OH2 3590   7.796   9.005   4.436
 1238TIP3    H1 3591   7.852   8.934   4.467
 1238TIP3    H2 3592   7.747   9.032   4.514
 1239TIP3   OH2 3593   6.460   7.212   4.396
 1239TIP3    H1 3594   6.440   7.279   4.330
 1239TIP3    H2 3595   6.470   7.131   4.346
 1240TIP3   OH2 3596   1.047   4.830   4.721
 1240TIP3    H1 3597   1.139   4.803   4.726
 1240TIP3    H2 3598   1.047   4.922   4.745
 1241TIP3   OH2 3599   0.225   0.539   2.736
 1241TIP3    H1 3600   0.248   0.631   2.728
 1241TIP3    H2 3601   0.292   0.493   2.685
 1242TIP3   OH2 3602   3.497   7.961   0.052
 1242TIP3    H1 3603   3.589   7.933   0.057
 1242TIP3    H2 3604   3.449   7.891   0.097
 1243TIP3   OH2 3605   6.023   5.186   1.967
 1243TIP3    H1 3606   6.055   5.142   2.046
 1243TIP3    H2 3607   6.053   5.130   1.896
 1244TIP3   OH2 3608   8.799   3.193   1.992
 1244TIP3    H1 3609   8.797   3.199   1.897
 1244TIP3    H2 3610   8.868   3.255   2.019
 1245TIP3   OH2 3611   7.251   7.230   4.322
 1245TIP3    H1 3612   7.258   7.217   4.227
 1245TIP3    H2 3613   7.166   7.272   4.335
 1246TIP3   OH2 3614   2.724   8.997   6.962
 1246TIP3    H1 3615   2.714   8.945   7.042
 1246TIP3    H2 3616   2.644   8.979   6.912
 1247TIP3   OH2 3617   4.347   5.386   5.373
 1247TIP3    H1 3618   4.256   5.372   5.347
 1247TIP3    H2 3619   4.342   5.450   5.444
 1248TIP3   OH2 3620   0.830   3.149   0.372
 1248TIP3    H1 3621   0.906   3.181   0.420
 1248TIP3    H2 3622   0.755   3.191   0.416
 1249TIP3   OH2 3623   2.344   2.668   4.972
 1249TIP3    H1 3624   2.308   2.645   4.887
 1249TIP3    H2 3625   2.302   2.750   4.996
 1250TIP3   OH2 3626   3.225   7.806   7.731
 1250TIP3    H1 3627   3.130   7.807   7.745
 1250TIP3    H2 3628   3.255   7.724   7.772
 1251TIP3   OH2 3629   1.848   5.407   5.149
 1251TIP3    H1 3630   1.910   5.370   5.086
 1251TIP3    H2 3631   1.819   5.332   5.200
 1252TIP3   OH2 3632   4.063   8.556   3.031
 1252TIP3    H1 3633   4.140   8.553   2.974
 1252TIP3    H2 3634   4.095   8.529   3.117
 1253TIP3   OH2 3635   8.573   5.771   0.842
 1253TIP3    H1 3636   8.618   5.690   0.864
 1253TIP3    H2 3637   8.544   5.759   0.752
 1254TIP3   OH2 3638   0.882   8.503   2.708
 1254TIP3    H1 3639   0.821   8.514   2.635
 1254TIP3    H2 3640   0.866   8.414   2.739
 1255TIP3   OH2 3641   9.148   2.395   4.147
 1255TIP3    H1 3642   9.238   2.429   4.144
 1255TIP3    H2 3643   9.097   2.457   4.095
 1256TIP3   OH2 3644   7.488   7.708   6.933
 1256TIP3    H1 3645   7.575   7.702   6.973
 1256TIP3    H2 3646   7.472   7.620   6.898
 1257TIP3   OH2 3647   3.077   1.514   6.329
 1257TIP3    H1 3648   3.164   1.510   6.369
 1257TIP3    H2 3649   3.075   1.440   6.269
 1258TIP3   OH2 3650   2.738   7.602   2.249
 1258TIP3    H1 3651   2.791   7.626   2.173
 1258TIP3    H2 3652   2.801   7.582   2.318
 1259TIP3   OH2 3653   5.931   6.650   1.960
 1259TIP3    H1 3654   5.976   6.733   1.973
 1259TIP3    H2 3655   5.972   6.613   1.881
 1260TIP3   OH2 3656   2.201   2.820   2.562
 1260TIP3    H1 3657   2.181   2.798   2.653
 1260TIP3    H2 3658   2.191   2.738   2.514
 1261TIP3   OH2 3659   4.454   7.173   3.811
 1261TIP3    H1 3660   4.479   7.144   3.899
 1261TIP3    H2 3661   4.364   7.205   3.822
 1262TIP3   OH2 3662   6.690   1.691   6.015
 1262TIP3    H1 3663   6.664   1.763   6.071
 1262TIP3    H2 3664   6.608   1.649   5.990
 1263TIP3   OH2 3665   3.647   4.424   2.360
 1263TIP3    H1 3666   3.719   4.476   2.396
 1263TIP3    H2 3667   3.595   4.487   2.310
 1264TIP3   OH2 3668   8.741   4.365   0.851
 1264TIP3    H1 3669   8.684   4.391   0.778
 1264TIP3    H2 3670   8.803   4.303   0.813
 1265TIP3   OH2 3671   1.738   6.780   5.466
 1265TIP3    H1 3672   1.816   6.741   5.427
 1265TIP3    H2 3673   1.701   6.711   5.521
 1266TIP3   OH2 3674   8.424   2.689   5.619
 1266TIP3    H1 3675   8.475   2.689   5.537
 1266TIP3    H2 3676   8.351   2.630   5.602
 1267TIP3   OH2 3677   1.589   8.594   0.040
 1267TIP3    H1 3678   1.649   8.530   0.003
 1267TIP3    H2 3679   1.520   8.542   0.081
 1268TIP3   OH2 3680   3.531   3.875   3.045
 1268TIP3    H1 3681   3.499   3.879   3.135
 1268TIP3    H2 3682   3.564   3.963   3.028
 1269TIP3   OH2 3683   8.173   1.566   6.322
 1269TIP3    H1 3684   8.097   1.605   6.367
 1269TIP3    H2 3685   8.135   1.506   6.258
 1270TIP3   OH2 3686   3.418   0.198   2.973
 1270TIP3    H1 3687   3.505   0.236   2.963
 1270TIP3    H2 3688   3.414   0.170   3.065
 1271TIP3   OH2 3689   4.252   6.257   6.607
 1271TIP3    H1 3690   4.303   6.245   6.687
 1271TIP3    H2 3691   4.195   6.180   6.602
 1272TIP3   OH2 3692   1.845   2.849   1.768
 1272TIP3    H1 3693   1.866   2.795   1.691
 1272TIP3    H2 3694   1.767   2.898   1.742
 1273TIP3   OH2 3695   7.398   8.880   4.433
 1273TIP3    H1 3696   7.378   8.806   4.376
 1273TIP3    H2 3697   7.457   8.843   4.499
 1274TIP3   OH2 3698   3.835   4.532   2.980
 1274TIP3    H1 3699   3.770   4.527   3.050
 1274TIP3    H2 3700   3.882   4.449   2.985
 1275TIP3   OH2 3701   9.181   0.774   1.488
 1275TIP3    H1 3702   9.094   0.815   1.483
 1275TIP3    H2 3703   9.170   0.704   1.553
 1276TIP3   OH2 3704   7.729   7.830   4.867
 1276TIP3    H1 3705   7.685   7.879   4.797
 1276TIP3    H2 3706   7.738   7.893   4.938
 1277TIP3   OH2 3707   7.097   3.569   3.031
 1277TIP3    H1 3708   7.112   3.481   3.066
 1277TIP3    H2 3709   7.017   3.599   3.075
 1278TIP3   OH2 3710   6.807   2.305   4.987
 1278TIP3    H1 3711   6.824   2.315   5.081
 1278TIP3    H2 3712   6.716   2.334   4.976
 1279TIP3   OH2 3713   3.241   7.268   6.415
 1279TIP3    H1 3714   3.244   7.268   6.319
 1279TIP3    H2 3715   3.332   7.257   6.442
 1280TIP3   OH2 3716   3.619   8.328   5.977
 1280TIP3    H1 3717   3.705   8.286   5.981
 1280TIP3    H2 3718   3.599   8.349   6.068
 1281TIP3   OH2 3719   2.392   6.474   5.933
 1281TIP3    H1 3720   2.327   6.405   5.919
 1281TIP3    H2 3721   2.470   6.444   5.887
 1282TIP3   OH2 3722   7.906   7.230   7.189
 1282TIP3    H1 3723   7.921   7.323   7.171
 1282TIP3    H2 3724   7.947   7.185   7.115
 1283TIP3   OH2 3725   4.365   5.439   2.628
 1283TIP3    H1 3726   4.288   5.481   2.666
 1283TIP3    H2 3727   4.439   5.485   2.668
 1284TIP3   OH2 3728   9.116   6.653   7.186
 1284TIP3    H1 3729   9.193   6.705   7.208
 1284TIP3    H2 3730   9.121   6.643   7.091
 1285TIP3   OH2 3731   7.886   3.296   1.154
 1285TIP3    H1 3732   7.969   3.343   1.152
 1285TIP3    H2 3733   7.882   3.256   1.241
 1286TIP3   OH2 3734   0.124   5.007   0.674
 1286TIP3    H1 3735   0.050   4.971   0.723
 1286TIP3    H2 3736   0.088   5.028   0.588
 1287TIP3   OH2 3737   2.826   1.157   5.674
 1287TIP3    H1 3738   2.867   1.130   5.755
 1287TIP3    H2 3739   2.745   1.202   5.701
 1288TIP3   OH2 3740   2.131   1.390   4.573
 1288TIP3    H1 3741   2.041   1.374   4.603
 1288TIP3    H2 3742   2.130   1.479   4.540
 1289TIP3   OH2 3743   0.291   7.537   1.054
 1289TIP3    H1 3744   0.366   7.480   1.036
 1289TIP3    H2 3745   0.216   7.490   1.018
 1290TIP3   OH2 3746   8.722   2.048   1.181
 1290TIP3    H1 3747   8.655   2.004   1.128
 1290TIP3    H2 3748   8.731   1.993   1.258
 1291TIP3   OH2 3749   1.764   0.970   0.822
 1291TIP3    H1 3750   1.738   0.982   0.914
 1291TIP3    H2 3751   1.853   0.936   0.826
 1292TIP3   OH2 3752   7.182   8.248   5.650
 1292TIP3    H1 3753   7.270   8.261   5.685
 1292TIP3    H2 3754   7.158   8.333   5.613
 1293TIP3   OH2 3755   5.266   5.346   5.273
 1293TIP3    H1 3756   5.187   5.326   5.323
 1293TIP3    H2 3757   5.251   5.434   5.238
 1294TIP3   OH2 3758   2.451   4.202   1.997
 1294TIP3    H1 3759   2.368   4.169   2.031
 1294TIP3    H2 3760   2.496   4.237   2.074
 1295TIP3   OH2 3761   2.943   3.181   4.781
 1295TIP3    H1 3762   3.016   3.227   4.739
 1295TIP3    H2 3763   2.936   3.098   4.733
 1296TIP3   OH2 3764   7.183   4.422   3.355
 1296TIP3    H1 3765   7.243   4.347   3.349
 1296TIP3    H2 3766   7.240   4.499   3.349
 1297TIP3   OH2 3767   3.191   6.768   5.971
 1297TIP3    H1 3768   3.258   6.735   6.031
 1297TIP3    H2 3769   3.122   6.800   6.029
 1298TIP3   OH2 3770   3.196   6.988   1.576
 1298TIP3    H1 3771   3.110   6.945   1.578
 1298TIP3    H2 3772   3.228   6.983   1.666
 1299TIP3   OH2 3773   8.260   6.927   0.912
 1299TIP3    H1 3774   8.346   6.913   0.952
 1299TIP3    H2 3775   8.278   6.970   0.829
 1300TIP3   OH2 3776   0.194   2.141   0.979
 1300TIP3    H1 3777   0.125   2.093   0.933
 1300TIP3    H2 3778   0.240   2.074   1.029
 1301TIP3   OH2 3779   1.300   7.389   1.505
 1301TIP3    H1 3780   1.286   7.298   1.529
 1301TIP3    H2 3781   1.231   7.437   1.550
 1302TIP3   OH2 3782   7.675   1.023   2.770
 1302TIP3    H1 3783   7.696   1.065   2.686
 1302TIP3    H2 3784   7.655   1.095   2.829
 1303TIP3   OH2 3785   0.692   1.044   0.199
 1303TIP3    H1 3786   0.666   0.985   0.128
 1303TIP3    H2 3787   0.612   1.093   0.220
 1304TIP3   OH2 3788   1.880   5.544   4.772
 1304TIP3    H1 3789   1.836   5.476   4.723
 1304TIP3    H2 3790   1.816   5.572   4.837
 1305TIP3   OH2 3791   0.626   4.992   1.479
 1305TIP3    H1 3792   0.634   5.035   1.564
 1305TIP3    H2 3793   0.543   4.945   1.483
 1306TIP3   OH2 3794   9.084   6.412   5.153
 1306TIP3    H1 3795   9.109   6.469   5.080
 1306TIP3    H2 3796   9.027   6.346   5.113
 1307TIP3   OH2 3797   6.889   2.355   2.412
 1307TIP3    H1 3798   6.937   2.334   2.492
 1307TIP3    H2 3799   6.934   2.306   2.343
 1308TIP3   OH2 3800   7.936   6.880   0.126
 1308TIP3    H1 3801   7.919   6.799   0.078
 1308TIP3    H2 3802   7.909   6.860   0.216
 1309TIP3   OH2 3803   6.148   1.998   0.899
 1309TIP3    H1 3804   6.056   1.979   0.918
 1309TIP3    H2 3805   6.196   1.925   0.936
 1310TIP3   OH2 3806   4.246   8.412   5.347
 1310TIP3    H1 3807   4.162   8.446   5.378
 1310TIP3    H2 3808   4.275   8.476   5.282
 1311TIP3   OH2 3809   1.015   3.840   5.219
 1311TIP3    H1 3810   1.031   3.901   5.147
 1311TIP3    H2 3811   1.098   3.796   5.233
 1312TIP3   OH2 3812   5.075   3.840   6.627
 1312TIP3    H1 3813   5.146   3.872   6.572
 1312TIP3    H2 3814   5.098   3.749   6.645
 1313TIP3   OH2 3815   2.284   3.144   4.963
 1313TIP3    H1 3816   2.197   3.158   4.926
 1313TIP3    H2 3817   2.283   3.193   5.046
 1314TIP3   OH2 3818   9.539   0.622   6.802
 1314TIP3    H1 3819   9.556   0.692   6.865
 1314TIP3    H2 3820   9.598   0.552   6.828
 1315TIP3   OH2 3821   7.735   1.665   4.055
 1315TIP3    H1 3822   7.810   1.710   4.095
 1315TIP3    H2 3823   7.740   1.576   4.089
 1316TIP3   OH2 3824   6.655   8.326   0.044
 1316TIP3    H1 3825   6.636   8.413   0.009
 1316TIP3    H2 3826   6.733   8.297  -0.004
 1317TIP3   OH2 3827   5.692   5.216   0.283
 1317TIP3    H1 3828   5.710   5.298   0.328
 1317TIP3    H2 3829   5.764   5.158   0.308
 1318TIP3   OH2 3830   6.687   8.910   2.006
 1318TIP3    H1 3831   6.665   8.900   1.913
 1318TIP3    H2 3832   6.689   8.821   2.041
 1319TIP3   OH2 3833   4.010   8.328   5.648
 1319TIP3    H1 3834   4.088   8.363   5.690
 1319TIP3    H2 3835   4.006   8.374   5.564
 1320TIP3   OH2 3836   7.009   0.800   5.628
 1320TIP3    H1 3837   6.923   0.823   5.593
 1320TIP3    H2 3838   7.071   0.841   5.568
 1321TIP3   OH2 3839   4.056   6.037   3.251
 1321TIP3    H1 3840   4.115   6.101   3.212
 1321TIP3    H2 3841   3.974   6.046   3.201
 1322TIP3   OH2 3842   2.195   6.288   0.358
 1322TIP3    H1 3843   2.240   6.295   0.273
 1322TIP3    H2 3844   2.110   6.330   0.344
 1323TIP3   OH2 3845   3.787   5.393   6.879
 1323TIP3    H1 3846   3.857   5.333   6.851
 1323TIP3    H2 3847   3.717   5.336   6.910
 1324TIP3   OH2 3848   3.156   1.174   1.205
 1324TIP3    H1 3849   3.067   1.156   1.237
 1324TIP3    H2 3850   3.189   1.241   1.265
 1325TIP3   OH2 3851   2.613   3.417   2.738
 1325TIP3    H1 3852   2.625   3.364   2.817
 1325TIP3    H2 3853   2.668   3.494   2.752
 1326TIP3   OH2 3854   3.838   7.729   5.385
 1326TIP3    H1 3855   3.854   7.694   5.297
 1326TIP3    H2 3856   3.743   7.724   5.396
 1327TIP3   OH2 3857   3.753   1.101   7.636
 1327TIP3    H1 3858   3.707   1.140   7.562
 1327TIP3    H2 3859   3.685   1.085   7.702
 1328TIP3   OH2 3860   6.811   6.643   1.207
 1328TIP3    H1 3861   6.722   6.612   1.220
 1328TIP3    H2 3862   6.805   6.701   1.131
 1329TIP3   OH2 3863   1.457   5.951   4.358
 1329TIP3    H1 3864   1.449   6.041   4.325
 1329TIP3    H2 3865   1.393   5.902   4.307
 1330TIP3   OH2 3866   0.454   5.698   6.135
 1330TIP3    H1 3867   0.389   5.630   6.152
 1330TIP3    H2 3868   0.511   5.697   6.212
 1331TIP3   OH2 3869   9.414   3.024   6.688
 1331TIP3    H1 3870   9.394   3.098   6.630
 1331TIP3    H2 3871   9.332   3.009   6.735
 1332TIP3   OH2 3872   1.765   5.431   0.676
 1332TIP3    H1 3873   1.695   5.367   0.662
 1332TIP3    H2 3874   1.770   5.480   0.594
 1333TIP3   OH2 3875   7.831   3.192   5.725
 1333TIP3    H1 3876   7.884   3.115   5.747
 1333TIP3    H2 3877   7.892   3.252   5.682
 1334TIP3   OH2 3878   6.417   5.605   0.670
 1334TIP3    H1 3879   6.327   5.606   0.701
 1334TIP3    H2 3880   6.466   5.654   0.737
 1335TIP3   OH2 3881   1.937   7.403   6.733
 1335TIP3    H1 3882   1.950   7.479   6.790
 1335TIP3    H2 3883   2.000   7.338   6.765
 1336TIP3   OH2 3884   3.335   5.172   2.240
 1336TIP3    H1 3885   3.375   5.127   2.314
 1336TIP3    H2 3886   3.278   5.238   2.280
 1337TIP3   OH2 3887   2.820   2.897   3.084
 1337TIP3    H1 3888   2.770   2.865   3.159
 1337TIP3    H2 3889   2.874   2.968   3.119
 1338TIP3   OH2 3890   2.613   8.725   3.573
 1338TIP3    H1 3891   2.600   8.630   3.583
 1338TIP3    H2 3892   2.524   8.760   3.565
 1339TIP3   OH2 3893   8.126   4.985   2.733
 1339TIP3    H1 3894   8.105   4.896   2.762
 1339TIP3    H2 3895   8.048   5.013   2.685
 1340TIP3   OH2 3896   8.542   2.640   5.857
 1340TIP3    H1 3897   8.511   2.642   5.766
 1340TIP3    H2 3898   8.629   2.680   5.853
 1341TIP3   OH2 3899   3.495   5.668   2.235
 1341TIP3    H1 3900   3.566   5.731   2.250
 1341TIP3    H2 3901   3.485   5.624   2.319
 1342TIP3   OH2 3902   2.241   3.719   4.651
 1342TIP3    H1 3903   2.207   3.632   4.630
 1342TIP3    H2 3904   2.336   3.711   4.643
 1343TIP3   OH2 3905   8.477   6.246   1.970
 1343TIP3    H1 3906   8.470   6.218   2.061
 1343TIP3    H2 3907   8.537   6.183   1.930
 1344TIP3   OH2 3908   5.305   0.596   1.712
 1344TIP3    H1 3909   5.388   0.608   1.760
 1344TIP3    H2 3910   5.247   0.554   1.776
 1345TIP3   OH2 3911   5.899   8.862   2.890
 1345TIP3    H1 3912   5.907   8.957   2.895
 1345TIP3    H2 3913   5.920   8.831   2.979
 1346TIP3   OH2 3914   5.294   8.611   1.506
 1346TIP3    H1 3915   5.304   8.680   1.441
 1346TIP3    H2 3916   5.383   8.584   1.527
 1347TIP3   OH2 3917   5.589   4.474   4.303
 1347TIP3    H1 3918   5.554   4.403   4.356
 1347TIP3    H2 3919   5.594   4.549   4.363
 1348TIP3   OH2 3920   1.924   5.511   5.673
 1348TIP3    H1 3921   1.879   5.458   5.739
 1348TIP3    H2 3922   1.933   5.452   5.598
 1349TIP3   OH2 3923   2.764   2.383   4.710
 1349TIP3    H1 3924   2.851   2.350   4.688
 1349TIP3    H2 3925   2.756   2.367   4.804
 1350TIP3   OH2 3926   0.761   3.231   3.402
 1350TIP3    H1 3927   0.847   3.255   3.369
 1350TIP3    H2 3928   0.736   3.154   3.352
 1351TIP3   OH2 3929   3.511   5.658   1.032
 1351TIP3    H1 3930   3.598   5.671   0.996
 1351TIP3    H2 3931   3.463   5.611   0.963
 1352TIP3   OH2 3932   8.577   5.858   7.037
 1352TIP3    H1 3933   8.646   5.907   6.992
 1352TIP3    H2 3934   8.623   5.810   7.106
 1353TIP3   OH2 3935   6.948   5.385   4.786
 1353TIP3    H1 3936   7.014   5.395   4.854
 1353TIP3    H2 3937   6.952   5.467   4.737
 1354TIP3   OH2 3938   3.051   8.622   6.701
 1354TIP3    H1 3939   3.014   8.541   6.735
 1354TIP3    H2 3940   3.069   8.675   6.778
 1355TIP3   OH2 3941   1.546   3.072   7.660
 1355TIP3    H1 3942   1.527   3.080   7.753
 1355TIP3    H2 3943   1.625   3.018   7.657
 1356TIP3   OH2 3944   4.650   4.224   5.204
 1356TIP3    H1 3945   4.696   4.252   5.125
 1356TIP3    H2 3946   4.597   4.150   5.176
 1357TIP3   OH2 3947   9.312   1.395   5.848
 1357TIP3    H1 3948   9.242   1.330   5.835
 1357TIP3    H2 3949   9.292   1.436   5.932
 1358TIP3   OH2 3950   5.080   8.599   4.457
 1358TIP3    H1 3951   5.057   8.506   4.451
 1358TIP3    H2 3952   5.135   8.615   4.380
 1359TIP3   OH2 3953   2.423   1.345   2.795
 1359TIP3    H1 3954   2.513   1.339   2.764
 1359TIP3    H2 3955   2.403   1.438   2.794
 1360TIP3   OH2 3956   9.049   0.897   2.333
 1360TIP3    H1 3957   9.044   0.958   2.259
 1360TIP3    H2 3958   9.121   0.838   2.311
 1361TIP3   OH2 3959   2.671   6.478   5.548
 1361TIP3    H1 3960   2.668   6.551   5.486
 1361TIP3    H2 3961   2.634   6.404   5.499
 1362TIP3   OH2 3962   7.652   7.530   2.457
 1362TIP3    H1 3963   7.599   7.576   2.392
 1362TIP3    H2 3964   7.742   7.559   2.438
 1363TIP3   OH2 3965   8.714   2.220   6.567
 1363TIP3    H1 3966   8.710   2.302   6.617
 1363TIP3    H2 3967   8.719   2.152   6.634
 1364TIP3   OH2 3968   5.082   4.302   3.954
 1364TIP3    H1 3969   4.994   4.265   3.964
 1364TIP3    H2 3970   5.070   4.378   3.898
 1365TIP3   OH2 3971   9.531   0.134   7.338
 1365TIP3    H1 3972   9.499   0.056   7.292
 1365TIP3    H2 3973   9.597   0.100   7.399
 1366TIP3   OH2 3974   7.248   2.781   6.017
 1366TIP3    H1 3975   7.187   2.707   6.013
 1366TIP3    H2 3976   7.191   2.859   6.016
 1367TIP3   OH2 3977   2.572   0.608   6.116
 1367TIP3    H1 3978   2.515   0.648   6.051
 1367TIP3    H2 3979   2.585   0.518   6.085
 1368TIP3   OH2 3980   0.281   3.984   4.823
 1368TIP3    H1 3981   0.311   4.046   4.889
 1368TIP3    H2 3982   0.356   3.926   4.809
 1369TIP3   OH2 3983   2.155   5.506   4.836
 1369TIP3    H1 3984   2.200   5.573   4.886
 1369TIP3    H2 3985   2.074   5.549   4.806
 1370TIP3   OH2 3986   7.798   0.559   3.455
 1370TIP3    H1 3987   7.869   0.592   3.510
 1370TIP3    H2 3988   7.788   0.624   3.386
 1371TIP3   OH2 3989   0.891   4.896   1.501
 1371TIP3    H1 3990   0.938   4.953   1.562
 1371TIP3    H2 3991   0.801   4.928   1.502
 1372TIP3   OH2 3992   4.612   7.375   6.923
 1372TIP3    H1 3993   4.637   7.414   7.007
 1372TIP3    H2 3994   4.616   7.448   6.861
 1373TIP3   OH2 3995   1.664   3.270   4.074
 1373TIP3    H1 3996   1.743   3.275   4.128
 1373TIP3    H2 3997   1.592   3.281   4.136
 1374TIP3   OH2 3998   6.745   3.125   6.880
 1374TIP3    H1 3999   6.786   3.156   6.799
 1374TIP3    H2 4000   6.818   3.116   6.941
 1375TIP3   OH2 4001   5.989   0.048   0.293
 1375TIP3    H1 4002   6.060   0.007   0.343
 1375TIP3    H2 4003   5.915   0.050   0.354
 1376TIP3   OH2 4004   1.005   5.548   0.973
 1376TIP3    H1 4005   1.075   5.489   0.946
 1376TIP3    H2 4006   0.981   5.595   0.893
 1377TIP3   OH2 4007   6.986   8.107   7.175
 1377TIP3    H1 4008   7.005   8.190   7.132
 1377TIP3    H2 4009   7.053   8.046   7.141
 1378TIP3   OH2 4010   4.410   0.552   3.987
 1378TIP3    H1 4011   4.396   0.500   3.907
 1378TIP3    H2 4012   4.409   0.643   3.957
 1379TIP3   OH2 4013   1.727   0.156   0.231
 1379TIP3    H1 4014   1.721   0.073   0.279
 1379TIP3    H2 4015   1.795   0.205   0.276
 1380TIP3   OH2 4016   1.594   6.679   5.195
 1380TIP3    H1 4017   1.663   6.688   5.261
 1380TIP3    H2 4018   1.605   6.755   5.139
 1381TIP3   OH2 4019   6.778   5.102   7.383
 1381TIP3    H1 4020   6.762   5.106   7.477
 1381TIP3    H2 4021   6.745   5.016   7.357
 1382TIP3   OH2 4022   7.034   7.452   5.446
 1382TIP3    H1 4023   7.119   7.491   5.427
 1382TIP3    H2 4024   7.040   7.423   5.537
 1383TIP3   OH2 4025   1.689   2.013   4.130
 1383TIP3    H1 4026   1.642   2.016   4.046
 1383TIP3    H2 4027   1.767   1.960   4.112
 1384TIP3   OH2 4028   2.265   3.122   0.252
 1384TIP3    H1 4029   2.235   3.209   0.279
 1384TIP3    H2 4030   2.245   3.117   0.159
 1385TIP3   OH2 4031   7.897   1.703   1.323
 1385TIP3    H1 4032   7.866   1.628   1.374
 1385TIP3    H2 4033   7.834   1.773   1.341
 1386TIP3   OH2 4034   7.253   4.187   6.413
 1386TIP3    H1 4035   7.314   4.250   6.451
 1386TIP3    H2 4036   7.271   4.188   6.319
 1387TIP3   OH2 4037   5.278   1.010   5.318
 1387TIP3    H1 4038   5.360   1.035   5.361
 1387TIP3    H2 4039   5.231   1.093   5.307
 1388TIP3   OH2 4040   1.725   0.048   1.524
 1388TIP3    H1 4041   1.791  -0.011   1.486
 1388TIP3    H2 4042   1.656   0.051   1.458
 1389TIP3   OH2 4043   5.708   6.000   2.684
 1389TIP3    H1 4044   5.797   6.021   2.654
 1389TIP3    H2 4045   5.690   6.065   2.752
 1390TIP3   OH2 4046   7.573   1.790   5.929
 1390TIP3    H1 4047   7.508   1.851   5.892
 1390TIP3    H2 4048   7.639   1.781   5.861
 1391TIP3   OH2 4049   9.190   2.317   5.354
 1391TIP3    H1 4050   9.124   2.248   5.368
 1391TIP3    H2 4051   9.187   2.334   5.260
 1392TIP3   OH2 4052   0.351   7.052   5.637
 1392TIP3    H1 4053   0.412   6.988   5.600
 1392TIP3    H2 4054   0.356   7.037   5.731
 1393TIP3   OH2 4055   8.897   0.146   2.702
 1393TIP3    H1 4056   8.967   0.201   2.737
 1393TIP3    H2 4057   8.916   0.059   2.736
 1394TIP3   OH2 4058   9.188   5.124   1.821
 1394TIP3    H1 4059   9.112   5.070   1.842
 1394TIP3    H2 4060   9.203   5.110   1.728
 1395TIP3   OH2 4061   5.001   7.168   1.367
 1395TIP3    H1 4062   4.954   7.088   1.389
 1395TIP3    H2 4063   4.935   7.237   1.372
 1396TIP3   OH2 4064   8.101   0.487   5.575
 1396TIP3    H1 4065   8.088   0.483   5.670
 1396TIP3    H2 4066   8.030   0.542   5.543
 1397TIP3   OH2 4067   6.900   0.798   2.604
 1397TIP3    H1 4068   6.870   0.832   2.688
 1397TIP3    H2 4069   6.948   0.718   2.625
 1398TIP3   OH2 4070   3.273   8.675   3.297
 1398TIP3    H1 4071   3.201   8.639   3.246
 1398TIP3    H2 4072   3.284   8.764   3.263
 1399TIP3   OH2 4073   5.353   8.720   6.833
 1399TIP3    H1 4074   5.378   8.781   6.902
 1399TIP3    H2 4075   5.429   8.717   6.774
 1400TIP3   OH2 4076   7.961   1.525   1.094
 1400TIP3    H1 4077   7.935   1.592   1.158
 1400TIP3    H2 4078   8.056   1.536   1.085
 1401TIP3   OH2 4079   8.280   6.455   4.898
 1401TIP3    H1 4080   8.205   6.483   4.951
 1401TIP3    H2 4081   8.338   6.531   4.897
 1402TIP3   OH2 4082   7.929   2.599   6.598
 1402TIP3    H1 4083   7.993   2.529   6.612
 1402TIP3    H2 4084   7.917   2.602   6.504
 1403TIP3   OH2 4085   6.754   7.439   5.850
 1403TIP3    H1 4086   6.719   7.439   5.939
 1403TIP3    H2 4087   6.732   7.353   5.815
 1404TIP3   OH2 4088   6.172   2.994   3.977
 1404TIP3    H1 4089   6.203   3.084   3.987
 1404TIP3    H2 4090   6.246   2.948   3.936
 1405TIP3   OH2 4091   6.438   8.645   1.177
 1405TIP3    H1 4092   6.520   8.637   1.128
 1405TIP3    H2 4093   6.382   8.698   1.120
 1406TIP3   OH2 4094   8.527   2.504   6.400
 1406TIP3    H1 4095   8.531   2.593   6.366
 1406TIP3    H2 4096   8.463   2.460   6.345
 1407TIP3   OH2 4097   0.817   7.321   7.452
 1407TIP3    H1 4098   0.816   7.410   7.487
 1407TIP3    H2 4099   0.826   7.332   7.358
 1408TIP3   OH2 4100   7.724   6.054   4.357
 1408TIP3    H1 4101   7.675   6.021   4.282
 1408TIP3    H2 4102   7.755   5.976   4.403
 1409TIP3   OH2 4103   4.040   4.067   0.664
 1409TIP3    H1 4104   3.960   4.021   0.637
 1409TIP3    H2 4105   4.080   4.011   0.730
 1410TIP3   OH2 4106   4.475   2.921   4.897
 1410TIP3    H1 4107   4.475   2.860   4.823
 1410TIP3    H2 4108   4.402   2.981   4.879
 1411TIP3   OH2 4109   1.466   5.217   1.995
 1411TIP3    H1 4110   1.453   5.131   1.955
 1411TIP3    H2 4111   1.537   5.257   1.945
 1412TIP3   OH2 4112   8.256   5.930   5.479
 1412TIP3    H1 4113   8.266   5.927   5.384
 1412TIP3    H2 4114   8.170   5.890   5.495
 1413TIP3   OH2 4115   3.772   5.569   5.801
 1413TIP3    H1 4116   3.787   5.556   5.895
 1413TIP3    H2 4117   3.741   5.484   5.770
 1414TIP3   OH2 4118   8.717   3.037   7.759
 1414TIP3    H1 4119   8.726   3.023   7.854
 1414TIP3    H2 4120   8.630   3.004   7.739
 1415TIP3   OH2 4121   2.793   8.287   2.282
 1415TIP3    H1 4122   2.714   8.234   2.291
 1415TIP3    H2 4123   2.778   8.362   2.338
 1416TIP3   OH2 4124   1.488   3.359   5.358
 1416TIP3    H1 4125   1.466   3.382   5.448
 1416TIP3    H2 4126   1.583   3.351   5.357
 1417TIP3   OH2 4127   4.855   3.851   6.790
 1417TIP3    H1 4128   4.793   3.907   6.744
 1417TIP3    H2 4129   4.937   3.860   6.742
 1418TIP3   OH2 4130   1.781   5.975   7.069
 1418TIP3    H1 4131   1.698   5.940   7.035
 1418TIP3    H2 4132   1.843   5.903   7.056
 1419TIP3   OH2 4133   3.730   4.400   7.039
 1419TIP3    H1 4134   3.779   4.482   7.044
 1419TIP3    H2 4135   3.711   4.378   7.131
 1420TIP3   OH2 4136   5.683   3.980   6.864
 1420TIP3    H1 4137   5.773   3.950   6.855
 1420TIP3    H2 4138   5.690   4.063   6.911
 1421TIP3   OH2 4139   4.724   4.681   6.540
 1421TIP3    H1 4140   4.783   4.714   6.472
 1421TIP3    H2 4141   4.753   4.725   6.620
 1422TIP3   OH2 4142   7.261   2.412   1.468
 1422TIP3    H1 4143   7.195   2.459   1.417
 1422TIP3    H2 4144   7.323   2.380   1.402
 1423TIP3   OH2 4145   0.891   1.956   0.065
 1423TIP3    H1 4146   0.812   1.986   0.111
 1423TIP3    H2 4147   0.858   1.912  -0.014
 1424TIP3   OH2 4148   6.157   2.980   3.401
 1424TIP3    H1 4149   6.233   3.002   3.347
 1424TIP3    H2 4150   6.094   2.942   3.340
 1425TIP3   OH2 4151   0.639   6.471   5.550
 1425TIP3    H1 4152   0.566   6.416   5.522
 1425TIP3    H2 4153   0.647   6.538   5.482
 1426TIP3   OH2 4154   6.590   2.881   5.009
 1426TIP3    H1 4155   6.649   2.937   4.959
 1426TIP3    H2 4156   6.592   2.915   5.098
 1427TIP3   OH2 4157   3.154   3.657   0.574
 1427TIP3    H1 4158   3.233   3.676   0.625
 1427TIP3    H2 4159   3.173   3.690   0.486
 1428TIP3   OH2 4160   8.732   8.815   1.989
 1428TIP3    H1 4161   8.821   8.807   2.022
 1428TIP3    H2 4162   8.682   8.749   2.038
 1429TIP3   OH2 4163   6.013   8.311   1.143
 1429TIP3    H1 4164   6.015   8.247   1.072
 1429TIP3    H2 4165   5.959   8.383   1.110
 1430TIP3   OH2 4166   8.628   6.412   0.916
 1430TIP3    H1 4167   8.652   6.494   0.960
 1430TIP3    H2 4168   8.532   6.414   0.914
 1431TIP3   OH2 4169   3.221   3.579   4.888
 1431TIP3    H1 4170   3.276   3.656   4.870
 1431TIP3    H2 4171   3.161   3.576   4.813
 1432TIP3   OH2 4172   2.578   5.695   3.962
 1432TIP3    H1 4173   2.572   5.639   4.039
 1432TIP3    H2 4174   2.534   5.776   3.988
 1433TIP3   OH2 4175   7.454   5.450   0.140
 1433TIP3    H1 4176   7.494   5.524   0.094
 1433TIP3    H2 4177   7.399   5.490   0.207
 1434TIP3   OH2 4178   3.035   2.706   7.186
 1434TIP3    H1 4179   3.062   2.733   7.099
 1434TIP3    H2 4180   2.956   2.653   7.172
 1435TIP3   OH2 4181   6.220   1.841   2.613
 1435TIP3    H1 4182   6.173   1.905   2.560
 1435TIP3    H2 4183   6.300   1.823   2.563
 1436TIP3   OH2 4184   0.561   6.977   3.603
 1436TIP3    H1 4185   0.594   6.887   3.600
 1436TIP3    H2 4186   0.512   6.987   3.522
 1437TIP3   OH2 4187   0.118   4.011   5.090
 1437TIP3    H1 4188   0.024   3.996   5.077
 1437TIP3    H2 4189   0.150   4.037   5.003
 1438TIP3   OH2 4190   8.913   4.749   0.531
 1438TIP3    H1 4191   8.940   4.675   0.585
 1438TIP3    H2 4192   8.986   4.764   0.471
 1439TIP3   OH2 4193   0.471   4.774   4.660
 1439TIP3    H1 4194   0.396   4.815   4.702
 1439TIP3    H2 4195   0.433   4.706   4.604
 1440TIP3   OH2 4196   2.991   5.459   3.201
 1440TIP3    H1 4197   2.896   5.465   3.214
 1440TIP3    H2 4198   3.027   5.487   3.285
 1441TIP3   OH2 4199   8.350   5.143   1.128
 1441TIP3    H1 4200   8.438   5.168   1.099
 1441TIP3    H2 4201   8.291   5.200   1.079
 1442TIP3   OH2 4202   9.043   5.436   7.109
 1442TIP3    H1 4203   9.079   5.524   7.121
 1442TIP3    H2 4204   8.958   5.451   7.068
 1443TIP3   OH2 4205   3.893   6.991   6.413
 1443TIP3    H1 4206   3.982   7.025   6.407
 1443TIP3    H2 4207   3.879   6.975   6.506
 1444TIP3   OH2 4208   9.025   8.983   4.624
 1444TIP3    H1 4209   9.003   8.916   4.560
 1444TIP3    H2 4210   8.944   9.032   4.637
 1445TIP3   OH2 4211   4.975   7.244   4.613
 1445TIP3    H1 4212   4.982   7.180   4.542
 1445TIP3    H2 4213   5.064   7.249   4.649
 1446TIP3   OH2 4214   8.194   2.502   3.172
 1446TIP3    H1 4215   8.121   2.549   3.134
 1446TIP3    H2 4216   8.270   2.559   3.159
 1447TIP3   OH2 4217   5.091   3.603   2.739
 1447TIP3    H1 4218   5.100   3.675   2.677
 1447TIP3    H2 4219   5.011   3.557   2.712
 1448TIP3   OH2 4220   1.329   5.234   3.634
 1448TIP3    H1 4221   1.307   5.142   3.619
 1448TIP3    H2 4222   1.377   5.234   3.717
 1449TIP3   OH2 4223   0.082   8.405   2.589
 1449TIP3    H1 4224   0.052   8.373   2.503
 1449TIP3    H2 4225   0.006   8.391   2.646
 1450TIP3   OH2 4226   8.059   0.364   2.442
 1450TIP3    H1 4227   8.039   0.281   2.399
 1450TIP3    H2 4228   7.974   0.396   2.472
 1451TIP3   OH2 4229   2.504   8.711   5.089
 1451TIP3    H1 4230   2.523   8.781   5.027
 1451TIP3    H2 4231   2.526   8.748   5.175
 1452TIP3   OH2 4232   6.947   3.967   2.097
 1452TIP3    H1 4233   6.988   3.881   2.101
 1452TIP3    H2 4234   6.926   3.988   2.188
 1453TIP3   OH2 4235   6.799   1.505   5.553
 1453TIP3    H1 4236   6.744   1.554   5.615
 1453TIP3    H2 4237   6.881   1.554   5.551
 1454TIP3   OH2 4238   3.871   8.385   6.456
 1454TIP3    H1 4239   3.911   8.365   6.540
 1454TIP3    H2 4240   3.843   8.476   6.464
 1455TIP3   OH2 4241   4.522   1.022   1.615
 1455TIP3    H1 4242   4.504   1.068   1.533
 1455TIP3    H2 4243   4.614   0.998   1.610
 1456TIP3   OH2 4244   8.981   5.176   3.816
 1456TIP3    H1 4245   8.940   5.102   3.862
 1456TIP3    H2 4246   9.073   5.173   3.843
 1457TIP3   OH2 4247   8.065   5.499   0.151
 1457TIP3    H1 4248   8.155   5.467   0.151
 1457TIP3    H2 4249   8.020   5.445   0.086
 1458TIP3   OH2 4250   6.398   1.817   3.313
 1458TIP3    H1 4251   6.477   1.843   3.266
 1458TIP3    H2 4252   6.384   1.888   3.376
 1459TIP3   OH2 4253   3.167   7.488   3.128
 1459TIP3    H1 4254   3.094   7.500   3.188
 1459TIP3    H2 4255   3.181   7.393   3.124
 1460TIP3   OH2 4256   0.191   3.276   0.503
 1460TIP3    H1 4257   0.159   3.318   0.423
 1460TIP3    H2 4258   0.114   3.267   0.558
 1461TIP3   OH2 4259   3.544   0.807   1.201
 1461TIP3    H1 4260   3.457   0.831   1.234
 1461TIP3    H2 4261   3.604   0.835   1.270
 1462TIP3   OH2 4262   3.022   8.939   0.756
 1462TIP3    H1 4263   3.024   8.847   0.732
 1462TIP3    H2 4264   2.947   8.975   0.707
 1463TIP3   OH2 4265   3.107   2.003   6.188
 1463TIP3    H1 4266   3.201   2.004   6.168
 1463TIP3    H2 4267   3.071   1.937   6.129
 1464TIP3   OH2 4268   3.598   6.352   7.524
 1464TIP3    H1 4269   3.633   6.296   7.455
 1464TIP3    H2 4270   3.673   6.402   7.556
 1465TIP3   OH2 4271   5.370   7.144   0.824
 1465TIP3    H1 4272   5.299   7.199   0.790
 1465TIP3    H2 4273   5.446   7.203   0.826
 1466TIP3   OH2 4274   6.707   2.960   3.922
 1466TIP3    H1 4275   6.783   2.961   3.864
 1466TIP3    H2 4276   6.661   3.041   3.903
 1467TIP3   OH2 4277   2.837   5.341   4.360
 1467TIP3    H1 4278   2.915   5.373   4.316
 1467TIP3    H2 4279   2.822   5.254   4.324
 1468TIP3   OH2 4280   9.030   0.793   7.129
 1468TIP3    H1 4281   9.031   0.823   7.220
 1468TIP3    H2 4282   9.121   0.801   7.100
 1469TIP3   OH2 4283   0.466   0.132   5.270
 1469TIP3    H1 4284   0.404   0.204   5.273
 1469TIP3    H2 4285   0.549   0.173   5.243
 1470TIP3   OH2 4286   1.242   7.591   4.101
 1470TIP3    H1 4287   1.281   7.664   4.148
 1470TIP3    H2 4288   1.250   7.615   4.009
 1471TIP3   OH2 4289   8.673   1.985   3.857
 1471TIP3    H1 4290   8.727   1.992   3.935
 1471TIP3    H2 4291   8.681   2.071   3.815
 1472TIP3   OH2 4292   1.134   2.292   5.087
 1472TIP3    H1 4293   1.163   2.220   5.031
 1472TIP3    H2 4294   1.154   2.263   5.176
 1473TIP3   OH2 4295   5.006   4.507   1.146
 1473TIP3    H1 4296   4.943   4.435   1.155
 1473TIP3    H2 4297   5.071   4.474   1.085
 1474TIP3   OH2 4298   5.519   0.328   3.474
 1474TIP3    H1 4299   5.515   0.238   3.506
 1474TIP3    H2 4300   5.584   0.326   3.404
 1475TIP3   OH2 4301   7.179   6.228   3.049
 1475TIP3    H1 4302   7.167   6.133   3.050
 1475TIP3    H2 4303   7.151   6.257   3.136
 1476TIP3   OH2 4304   4.224   3.702   5.390
 1476TIP3    H1 4305   4.201   3.612   5.367
 1476TIP3    H2 4306   4.262   3.739   5.310
 1477TIP3   OH2 4307   2.923   6.729   2.302
 1477TIP3    H1 4308   2.992   6.764   2.245
 1477TIP3    H2 4309   2.938   6.772   2.387
 1478TIP3   OH2 4310   4.459   6.974   2.791
 1478TIP3    H1 4311   4.445   6.950   2.882
 1478TIP3    H2 4312   4.395   6.921   2.742
 1479TIP3   OH2 4313   4.374   4.823   6.264
 1479TIP3    H1 4314   4.328   4.829   6.181
 1479TIP3    H2 4315   4.467   4.831   6.241
 1480TIP3   OH2 4316   7.249   1.045   0.330
 1480TIP3    H1 4317   7.273   0.963   0.372
 1480TIP3    H2 4318   7.172   1.024   0.278
 1481TIP3   OH2 4319   6.324   7.471   3.883
 1481TIP3    H1 4320   6.323   7.550   3.937
 1481TIP3    H2 4321   6.310   7.400   3.945
 1482TIP3   OH2 4322   1.794   8.737   2.212
 1482TIP3    H1 4323   1.757   8.650   2.196
 1482TIP3    H2 4324   1.841   8.727   2.295
 1483TIP3   OH2 4325   3.124   0.782   1.355
 1483TIP3    H1 4326   3.113   0.706   1.298
 1483TIP3    H2 4327   3.116   0.747   1.444
 1484TIP3   OH2 4328   8.693   7.871   7.764
 1484TIP3    H1 4329   8.761   7.806   7.745
 1484TIP3    H2 4330   8.721   7.912   7.845
 1485TIP3   OH2 4331   8.590   1.664   6.867
 1485TIP3    H1 4332   8.540   1.583   6.876
 1485TIP3    H2 4333   8.533   1.722   6.816
 1486TIP3   OH2 4334   7.558   4.086   4.130
 1486TIP3    H1 4335   7.467   4.116   4.139
 1486TIP3    H2 4336   7.608   4.166   4.115
 1487TIP3   OH2 4337   7.404   7.041   3.422
 1487TIP3    H1 4338   7.418   7.114   3.362
 1487TIP3    H2 4339   7.311   7.046   3.445
 1488TIP3   OH2 4340   6.319   5.944   7.346
 1488TIP3    H1 4341   6.391   6.005   7.364
 1488TIP3    H2 4342   6.362   5.865   7.314
 1489TIP3   OH2 4343   3.655   7.418   1.278
 1489TIP3    H1 4344   3.669   7.486   1.344
 1489TIP3    H2 4345   3.694   7.340   1.315
 1490TIP3   OH2 4346   9.519   1.886   0.442
 1490TIP3    H1 4347   9.550   1.799   0.466
 1490TIP3    H2 4348   9.435   1.895   0.487
 1491TIP3   OH2 4349   7.352   6.713   5.273
 1491TIP3    H1 4350   7.315   6.763   5.346
 1491TIP3    H2 4351   7.283   6.651   5.249
 1492TIP3   OH2 4352   3.116   3.519   3.517
 1492TIP3    H1 4353   3.102   3.575   3.593
 1492TIP3    H2 4354   3.041   3.535   3.460
 1493TIP3   OH2 4355   9.282   8.953   2.597
 1493TIP3    H1 4356   9.313   8.865   2.621
 1493TIP3    H2 4357   9.193   8.957   2.631
 1494TIP3   OH2 4358   2.204   4.158   6.287
 1494TIP3    H1 4359   2.138   4.201   6.234
 1494TIP3    H2 4360   2.165   4.074   6.311
 1495TIP3   OH2 4361   1.316   4.456   1.349
 1495TIP3    H1 4362   1.320   4.424   1.439
 1495TIP3    H2 4363   1.346   4.547   1.355
 1496TIP3   OH2 4364   8.025   5.976   5.079
 1496TIP3    H1 4365   8.097   5.958   5.139
 1496TIP3    H2 4366   8.032   5.909   5.011
 1497TIP3   OH2 4367   4.377   2.301   4.309
 1497TIP3    H1 4368   4.371   2.396   4.301
 1497TIP3    H2 4369   4.289   2.274   4.338
 1498TIP3   OH2 4370   3.120   3.328   4.639
 1498TIP3    H1 4371   3.198   3.295   4.594
 1498TIP3    H2 4372   3.080   3.388   4.576
 1499TIP3   OH2 4373   1.086   7.027   1.324
 1499TIP3    H1 4374   1.146   7.072   1.383
 1499TIP3    H2 4375   1.086   6.936   1.356
 1500TIP3   OH2 4376   8.620   1.925   1.692
 1500TIP3    H1 4377   8.542   1.974   1.717
 1500TIP3    H2 4378   8.692   1.986   1.706
 1501TIP3   OH2 4379   3.099   2.056   5.159
 1501TIP3    H1 4380   3.163   1.985   5.151
 1501TIP3    H2 4381   3.051   2.036   5.239
 1502TIP3   OH2 4382   1.674   5.941   6.289
 1502TIP3    H1 4383   1.725   6.006   6.240
 1502TIP3    H2 4384   1.583   5.967   6.275
 1503TIP3   OH2 4385   3.299   6.242   1.899
 1503TIP3    H1 4386   3.249   6.169   1.863
 1503TIP3    H2 4387   3.266   6.253   1.988
 1504TIP3   OH2 4388   6.607   4.040   5.331
 1504TIP3    H1 4389   6.599   4.083   5.416
 1504TIP3    H2 4390   6.597   4.111   5.267
 1505TIP3   OH2 4391   3.139   0.945   7.654
 1505TIP3    H1 4392   3.133   0.901   7.738
 1505TIP3    H2 4393   3.228   0.982   7.653
 1506TIP3   OH2 4394   7.609   3.845   2.817
 1506TIP3    H1 4395   7.544   3.915   2.818
 1506TIP3    H2 4396   7.625   3.826   2.909
 1507TIP3   OH2 4397   5.783   1.345   2.311
 1507TIP3    H1 4398   5.849   1.288   2.352
 1507TIP3    H2 4399   5.788   1.323   2.218
 1508TIP3   OH2 4400   5.754   8.754   4.250
 1508TIP3    H1 4401   5.658   8.747   4.247
 1508TIP3    H2 4402   5.783   8.724   4.163
 1509TIP3   OH2 4403   2.344   6.000   2.205
 1509TIP3    H1 4404   2.353   5.905   2.214
 1509TIP3    H2 4405   2.434   6.031   2.192
 1510TIP3   OH2 4406   0.226   8.799   0.881
 1510TIP3    H1 4407   0.277   8.855   0.939
 1510TIP3    H2 4408   0.254   8.824   0.793
 1511TIP3   OH2 4409   0.923   6.244   4.110
 1511TIP3    H1 4410   0.873   6.198   4.042
 1511TIP3    H2 4411   0.975   6.308   4.062
 1512TIP3   OH2 4412   0.449   3.945   0.948
 1512TIP3    H1 4413   0.403   4.029   0.941
 1512TIP3    H2 4414   0.439   3.905   0.862
 1513TIP3   OH2 4415   3.032   2.044   5.477
 1513TIP3    H1 4416   3.074   2.123   5.509
 1513TIP3    H2 4417   3.101   1.978   5.476
 1514TIP3   OH2 4418   5.581   7.712   2.707
 1514TIP3    H1 4419   5.666   7.746   2.734
 1514TIP3    H2 4420   5.582   7.720   2.612
 1515TIP3   OH2 4421   4.735   1.793   0.877
 1515TIP3    H1 4422   4.798   1.859   0.848
 1515TIP3    H2 4423   4.789   1.715   0.895
 1516TIP3   OH2 4424   9.450   1.210   1.229
 1516TIP3    H1 4425   9.456   1.302   1.255
 1516TIP3    H2 4426   9.399   1.212   1.148
 1517TIP3   OH2 4427   6.702   6.246   1.315
 1517TIP3    H1 4428   6.779   6.193   1.336
 1517TIP3    H2 4429   6.720   6.332   1.353
 1518TIP3   OH2 4430   7.300   0.032   5.783
 1518TIP3    H1 4431   7.276   0.121   5.809
 1518TIP3    H2 4432   7.375   0.011   5.839
 1519TIP3   OH2 4433   7.505   2.706   0.801
 1519TIP3    H1 4434   7.582   2.708   0.743
 1519TIP3    H2 4435   7.527   2.641   0.868
 1520TIP3   OH2 4436   1.869   3.062   7.073
 1520TIP3    H1 4437   1.782   3.074   7.036
 1520TIP3    H2 4438   1.902   2.982   7.031
 1521TIP3   OH2 4439   9.471   0.557   1.190
 1521TIP3    H1 4440   9.538   0.520   1.248
 1521TIP3    H2 4441   9.426   0.622   1.245
 1522TIP3   OH2 4442   1.699   8.526   4.160
 1522TIP3    H1 4443   1.792   8.546   4.155
 1522TIP3    H2 4444   1.685   8.499   4.251
 1523TIP3   OH2 4445   2.533   7.232   6.187
 1523TIP3    H1 4446   2.455   7.256   6.137
 1523TIP3    H2 4447   2.606   7.244   6.126
 1524TIP3   OH2 4448   3.616   0.906   0.620
 1524TIP3    H1 4449   3.530   0.909   0.662
 1524TIP3    H2 4450   3.635   0.813   0.611
 1525TIP3   OH2 4451   5.392   8.823   1.373
 1525TIP3    H1 4452   5.452   8.812   1.447
 1525TIP3    H2 4453   5.434   8.887   1.317
 1526TIP3   OH2 4454   0.957   7.140   7.112
 1526TIP3    H1 4455   0.998   7.180   7.036
 1526TIP3    H2 4456   0.908   7.211   7.153
 1527TIP3   OH2 4457   1.817   0.331   2.892
 1527TIP3    H1 4458   1.824   0.239   2.865
 1527TIP3    H2 4459   1.862   0.380   2.823
 1528TIP3   OH2 4460   1.386   0.630   5.818
 1528TIP3    H1 4461   1.425   0.716   5.830
 1528TIP3    H2 4462   1.295   0.641   5.848
 1529TIP3   OH2 4463   6.185   7.971   5.252
 1529TIP3    H1 4464   6.259   7.911   5.239
 1529TIP3    H2 4465   6.172   7.972   5.347
 1530TIP3   OH2 4466   5.993   4.610   6.204
 1530TIP3    H1 4467   6.070   4.607   6.148
 1530TIP3    H2 4468   5.989   4.701   6.234
 1531TIP3   OH2 4469   6.558   5.179   6.409
 1531TIP3    H1 4470   6.583   5.175   6.316
 1531TIP3    H2 4471   6.476   5.228   6.410
 1532TIP3   OH2 4472   1.751   3.602   0.493
 1532TIP3    H1 4473   1.711   3.671   0.441
 1532TIP3    H2 4474   1.678   3.542   0.513
 1533TIP3   OH2 4475   3.875   6.873   4.230
 1533TIP3    H1 4476   3.942   6.936   4.259
 1533TIP3    H2 4477   3.858   6.898   4.139
 1534TIP3   OH2 4478   1.415   6.763   3.334
 1534TIP3    H1 4479   1.392   6.855   3.323
 1534TIP3    H2 4480   1.398   6.744   3.426
 1535TIP3   OH2 4481   6.874   6.450   5.448
 1535TIP3    H1 4482   6.826   6.479   5.371
 1535TIP3    H2 4483   6.842   6.361   5.464
 1536TIP3   OH2 4484   5.819   8.629   0.215
 1536TIP3    H1 4485   5.847   8.582   0.294
 1536TIP3    H2 4486   5.887   8.694   0.199
 1537TIP3   OH2 4487   2.851   5.994   3.931
 1537TIP3    H1 4488   2.861   5.943   4.011
 1537TIP3    H2 4489   2.889   6.079   3.952
 1538TIP3   OH2 4490   7.540   8.807   3.378
 1538TIP3    H1 4491   7.593   8.878   3.342
 1538TIP3    H2 4492   7.491   8.774   3.302
 1539TIP3   OH2 4493   4.266   6.534   1.957
 1539TIP3    H1 4494   4.300   6.523   2.046
 1539TIP3    H2 4495   4.312   6.467   1.906
 1540TIP3   OH2 4496   1.530   7.747   0.367
 1540TIP3    H1 4497   1.541   7.742   0.272
 1540TIP3    H2 4498   1.579   7.825   0.393
 1541TIP3   OH2 4499   2.443   2.073   5.949
 1541TIP3    H1 4500   2.487   2.113   5.874
 1541TIP3    H2 4501   2.350   2.091   5.935
 1542TIP3   OH2 4502   6.687   3.136   3.500
 1542TIP3    H1 4503   6.702   3.149   3.407
 1542TIP3    H2 4504   6.747   3.066   3.525
 1543TIP3   OH2 4505   6.016   3.235   0.547
 1543TIP3    H1 4506   6.110   3.221   0.542
 1543TIP3    H2 4507   5.978   3.161   0.499
 1544TIP3   OH2 4508   6.825   7.403   1.342
 1544TIP3    H1 4509   6.754   7.392   1.280
 1544TIP3    H2 4510   6.882   7.327   1.328
 1545TIP3   OH2 4511   0.348   2.202   2.785
 1545TIP3    H1 4512   0.405   2.150   2.728
 1545TIP3    H2 4513   0.327   2.143   2.858
 1546TIP3   OH2 4514   1.156   0.607   0.639
 1546TIP3    H1 4515   1.153   0.619   0.734
 1546TIP3    H2 4516   1.074   0.648   0.608
 1547TIP3   OH2 4517   7.547   8.319   5.440
 1547TIP3    H1 4518   7.531   8.384   5.509
 1547TIP3    H2 4519   7.486   8.248   5.461
 1548TIP3   OH2 4520   2.846   5.134   1.735
 1548TIP3    H1 4521   2.829   5.069   1.803
 1548TIP3    H2 4522   2.809   5.215   1.769
 1549TIP3   OH2 4523   2.710   1.403   0.973
 1549TIP3    H1 4524   2.708   1.407   1.068
 1549TIP3    H2 4525   2.769   1.474   0.947
 1550TIP3   OH2 4526   4.602   5.403   5.635
 1550TIP3    H1 4527   4.594   5.498   5.643
 1550TIP3    H2 4528   4.556   5.382   5.553
 1551TIP3   OH2 4529   1.585   6.886   0.780
 1551TIP3    H1 4530   1.537   6.803   0.778
 1551TIP3    H2 4531   1.517   6.953   0.783
 1552TIP3   OH2 4532   2.159   3.921   2.311
 1552TIP3    H1 4533   2.179   3.830   2.336
 1552TIP3    H2 4534   2.095   3.950   2.376
 1553TIP3   OH2 4535   1.078   4.013   0.059
 1553TIP3    H1 4536   1.019   4.006  -0.016
 1553TIP3    H2 4537   1.068   4.103   0.090
 1554TIP3   OH2 4538   9.233   7.966   3.514
 1554TIP3    H1 4539   9.318   7.988   3.551
 1554TIP3    H2 4540   9.253   7.917   3.434
 1555TIP3   OH2 4541   6.344   1.397   6.339
 1555TIP3    H1 4542   6.316   1.412   6.429
 1555TIP3    H2 4543   6.265   1.407   6.286
 1556TIP3   OH2 4544   3.889   8.896   5.995
 1556TIP3    H1 4545   3.958   8.907   6.059
 1556TIP3    H2 4546   3.829   8.832   6.035
 1557TIP3   OH2 4547   3.487   8.776   5.478
 1557TIP3    H1 4548   3.567   8.747   5.523
 1557TIP3    H2 4549   3.516   8.850   5.425
 1558TIP3   OH2 4550   5.676   6.566   0.508
 1558TIP3    H1 4551   5.734   6.493   0.486
 1558TIP3    H2 4552   5.590   6.539   0.478
 1559TIP3   OH2 4553   1.173   3.557   6.095
 1559TIP3    H1 4554   1.196   3.568   6.187
 1559TIP3    H2 4555   1.258   3.556   6.050
 1560TIP3   OH2 4556   6.811   6.804   1.691
 1560TIP3    H1 4557   6.717   6.820   1.682
 1560TIP3    H2 4558   6.826   6.726   1.637
 1561TIP3   OH2 4559   5.197   0.445   7.326
 1561TIP3    H1 4560   5.157   0.501   7.392
 1561TIP3    H2 4561   5.139   0.369   7.319
 1562TIP3   OH2 4562   1.662   4.636   3.109
 1562TIP3    H1 4563   1.689   4.555   3.150
 1562TIP3    H2 4564   1.733   4.659   3.050
 1563TIP3   OH2 4565   2.542   8.618   1.781
 1563TIP3    H1 4566   2.456   8.660   1.793
 1563TIP3    H2 4567   2.522   8.525   1.770
 1564TIP3   OH2 4568   7.068   3.830   5.613
 1564TIP3    H1 4569   7.065   3.759   5.549
 1564TIP3    H2 4570   7.161   3.835   5.638
 1565TIP3   OH2 4571   3.032   7.975   7.326
 1565TIP3    H1 4572   3.094   8.032   7.282
 1565TIP3    H2 4573   2.972   8.034   7.371
 1566TIP3   OH2 4574   8.809   4.738   6.581
 1566TIP3    H1 4575   8.804   4.650   6.617
 1566TIP3    H2 4576   8.802   4.796   6.657
 1567TIP3   OH2 4577   4.746   2.050   3.682
 1567TIP3    H1 4578   4.763   2.116   3.615
 1567TIP3    H2 4579   4.790   2.084   3.760
 1568TIP3   OH2 4580   3.468   2.431   5.955
 1568TIP3    H1 4581   3.490   2.520   5.925
 1568TIP3    H2 4582   3.445   2.384   5.876
 1569TIP3   OH2 4583   7.269   4.994   4.369
 1569TIP3    H1 4584   7.337   4.964   4.429
 1569TIP3    H2 4585   7.190   4.948   4.397
 1570TIP3   OH2 4586   4.449   0.044   3.101
 1570TIP3    H1 4587   4.407  -0.031   3.058
 1570TIP3    H2 4588   4.395   0.119   3.075
 1571TIP3   OH2 4589   3.026   7.128   3.090
 1571TIP3    H1 4590   2.936   7.112   3.119
 1571TIP3    H2 4591   3.077   7.058   3.131
 1572TIP3   OH2 4592   3.558   0.319   5.544
 1572TIP3    H1 4593   3.599   0.246   5.497
 1572TIP3    H2 4594   3.615   0.334   5.619
 1573TIP3   OH2 4595   4.398   2.033   6.473
 1573TIP3    H1 4596   4.394   1.937   6.480
 1573TIP3    H2 4597   4.460   2.050   6.402
 1574TIP3   OH2 4598   0.142   7.528   2.391
 1574TIP3    H1 4599   0.055   7.558   2.364
 1574TIP3    H2 4600   0.177   7.600   2.444
 1575TIP3   OH2 4601   1.551   3.779   4.918
 1575TIP3    H1 4602   1.613   3.799   4.847
 1575TIP3    H2 4603   1.521   3.690   4.899
 1576TIP3   OH2 4604   7.662   6.124   2.100
 1576TIP3    H1 4605   7.751   6.089   2.093
 1576TIP3    H2 4606   7.649   6.134   2.195
 1577TIP3   OH2 4607   3.682   3.802   1.224
 1577TIP3    H1 4608   3.742   3.762   1.161
 1577TIP3    H2 4609   3.604   3.821   1.173
 1578TIP3   OH2 4610   7.145   7.003   3.514
 1578TIP3    H1 4611   7.095   6.928   3.482
 1578TIP3    H2 4612   7.121   7.011   3.607
 1579TIP3   OH2 4613   9.252   8.179   0.975
 1579TIP3    H1 4614   9.262   8.133   0.891
 1579TIP3    H2 4615   9.328   8.151   1.026
 1580TIP3   OH2 4616   3.794   1.941   0.877
 1580TIP3    H1 4617   3.781   1.851   0.905
 1580TIP3    H2 4618   3.713   1.964   0.832
 1581TIP3   OH2 4619   2.830   5.539   0.962
 1581TIP3    H1 4620   2.795   5.605   0.902
 1581TIP3    H2 4621   2.842   5.461   0.907
 1582TIP3   OH2 4622   1.583   7.992   0.473
 1582TIP3    H1 4623   1.500   7.968   0.513
 1582TIP3    H2 4624   1.638   8.020   0.546
 1583TIP3   OH2 4625   0.436   3.903   6.878
 1583TIP3    H1 4626   0.516   3.864   6.842
 1583TIP3    H2 4627   0.380   3.827   6.899
 1584TIP3   OH2 4628   9.150   6.040   4.236
 1584TIP3    H1 4629   9.074   6.098   4.228
 1584TIP3    H2 4630   9.141   5.979   4.163
 1585TIP3   OH2 4631   1.889   6.398   0.587
 1585TIP3    H1 4632   1.964   6.407   0.646
 1585TIP3    H2 4633   1.927   6.389   0.500
 1586TIP3   OH2 4634   6.562   5.762   1.309
 1586TIP3    H1 4635   6.625   5.791   1.242
 1586TIP3    H2 4636   6.499   5.709   1.260
 1587TIP3   OH2 4637   6.456   1.962   6.543
 1587TIP3    H1 4638   6.496   1.914   6.470
 1587TIP3    H2 4639   6.434   1.896   6.607
 1588TIP3   OH2 4640   5.119   0.599   7.523
 1588TIP3    H1 4641   5.112   0.527   7.585
 1588TIP3    H2 4642   5.211   0.628   7.529
 1589TIP3   OH2 4643   1.712   8.163   0.655
 1589TIP3    H1 4644   1.806   8.157   0.669
 1589TIP3    H2 4645   1.680   8.214   0.730
 1590TIP3   OH2 4646   5.347   4.975   6.209
 1590TIP3    H1 4647   5.307   4.906   6.262
 1590TIP3    H2 4648   5.280   4.997   6.144
 1591TIP3   OH2 4649   6.900   1.233   7.109
 1591TIP3    H1 4650   6.929   1.146   7.135
 1591TIP3    H2 4651   6.825   1.252   7.166
 1592TIP3   OH2 4652   4.067   7.008   3.284
 1592TIP3    H1 4653   4.002   7.069   3.250
 1592TIP3    H2 4654   4.099   6.961   3.208
 1593TIP3   OH2 4655   0.087   3.444   2.605
 1593TIP3    H1 4656   0.098   3.523   2.659
 1593TIP3    H2 4657   0.008   3.462   2.553
 1594TIP3   OH2 4658   7.410   4.084   5.907
 1594TIP3    H1 4659   7.345   4.016   5.922
 1594TIP3    H2 4660   7.382   4.127   5.825
 1595TIP3   OH2 4661   1.751   0.268   5.869
 1595TIP3    H1 4662   1.707   0.345   5.904
 1595TIP3    H2 4663   1.803   0.302   5.796
 1596TIP3   OH2 4664   4.290   4.720   0.955
 1596TIP3    H1 4665   4.320   4.780   0.887
 1596TIP3    H2 4666   4.216   4.674   0.916
 1597TIP3   OH2 4667   6.085   2.218   0.609
 1597TIP3    H1 4668   6.063   2.135   0.566
 1597TIP3    H2 4669   6.131   2.192   0.689
 1598TIP3   OH2 4670   6.274   6.850   5.365
 1598TIP3    H1 4671   6.276   6.756   5.382
 1598TIP3    H2 4672   6.225   6.887   5.439
 1599TIP3   OH2 4673   5.773   1.173   3.183
 1599TIP3    H1 4674   5.689   1.134   3.160
 1599TIP3    H2 4675   5.802   1.122   3.259
 1600TIP3   OH2 4676   6.169   3.115   1.544
 1600TIP3    H1 4677   6.102   3.063   1.500
 1600TIP3    H2 4678   6.123   3.195   1.571
 1601TIP3   OH2 4679   4.306   2.298   6.301
 1601TIP3    H1 4680   4.275   2.208   6.317
 1601TIP3    H2 4681   4.243   2.334   6.239
 1602TIP3   OH2 4682   6.525   6.253   3.291
 1602TIP3    H1 4683   6.534   6.263   3.386
 1602TIP3    H2 4684   6.611   6.275   3.257
 1603TIP3   OH2 4685   3.702   3.760   2.842
 1603TIP3    H1 4686   3.638   3.801   2.901
 1603TIP3    H2 4687   3.736   3.833   2.791
 1604TIP3   OH2 4688   1.924   2.935   2.407
 1604TIP3    H1 4689   1.855   2.985   2.362
 1604TIP3    H2 4690   1.988   2.916   2.338
 1605TIP3   OH2 4691   1.517   1.697   1.691
 1605TIP3    H1 4692   1.591   1.724   1.746
 1605TIP3    H2 4693   1.520   1.602   1.693
 1606TIP3   OH2 4694   4.445   6.025   2.847
 1606TIP3    H1 4695   4.446   5.968   2.924
 1606TIP3    H2 4696   4.457   6.113   2.881
 1607TIP3   OH2 4697   1.376   8.632   3.843
 1607TIP3    H1 4698   1.331   8.584   3.913
 1607TIP3    H2 4699   1.426   8.700   3.888
 1608TIP3   OH2 4700   3.189   8.413   1.820
 1608TIP3    H1 4701   3.139   8.407   1.739
 1608TIP3    H2 4702   3.127   8.445   1.885
 1609TIP3   OH2 4703   0.249   6.299   4.106
 1609TIP3    H1 4704   0.330   6.297   4.157
 1609TIP3    H2 4705   0.187   6.347   4.161
 1610TIP3   OH2 4706   5.106   1.979   3.557
 1610TIP3    H1 4707   5.094   2.030   3.477
 1610TIP3    H2 4708   5.133   1.892   3.527
 1611TIP3   OH2 4709   0.962   8.485   5.720
 1611TIP3    H1 4710   0.907   8.548   5.768
 1611TIP3    H2 4711   0.947   8.402   5.766
 1612TIP3   OH2 4712   4.422   2.654   7.776
 1612TIP3    H1 4713   4.510   2.619   7.763
 1612TIP3    H2 4714   4.371   2.580   7.807
 1613TIP3   OH2 4715   9.171   6.809   1.689
 1613TIP3    H1 4716   9.173   6.763   1.606
 1613TIP3    H2 4717   9.110   6.759   1.743
 1614TIP3   OH2 4718   2.825   1.572   4.739
 1614TIP3    H1 4719   2.851   1.504   4.801
 1614TIP3    H2 4720   2.846   1.654   4.783
 1615TIP3   OH2 4721   1.369   4.373   5.937
 1615TIP3    H1 4722   1.320   4.361   5.856
 1615TIP3    H2 4723   1.348   4.462   5.965
 1616TIP3   OH2 4724   2.269   2.900   1.615
 1616TIP3    H1 4725   2.364   2.891   1.603
 1616TIP3    H2 4726   2.251   2.858   1.699
 1617TIP3   OH2 4727   8.608   7.598   7.634
 1617TIP3    H1 4728   8.555   7.583   7.712
 1617TIP3    H2 4729   8.551   7.646   7.574
 1618TIP3   OH2 4730   8.380   3.402   4.081
 1618TIP3    H1 4731   8.345   3.318   4.110
 1618TIP3    H2 4732   8.345   3.465   4.144
 1619TIP3   OH2 4733   3.989   7.290   5.634
 1619TIP3    H1 4734   4.048   7.335   5.574
 1619TIP3    H2 4735   3.925   7.355   5.660
 1620TIP3   OH2 4736   6.969   4.306   4.703
 1620TIP3    H1 4737   6.907   4.241   4.671
 1620TIP3    H2 4738   6.936   4.390   4.670
 1621TIP3   OH2 4739   6.088   8.714   3.464
 1621TIP3    H1 4740   6.071   8.627   3.427
 1621TIP3    H2 4741   6.033   8.773   3.413
 1622TIP3   OH2 4742   0.651   1.957   2.252
 1622TIP3    H1 4743   0.667   1.914   2.168
 1622TIP3    H2 4744   0.558   1.944   2.268
 1623TIP3   OH2 4745   2.535   1.081   0.126
 1623TIP3    H1 4746   2.505   1.107   0.213
 1623TIP3    H2 4747   2.488   1.139   0.067
 1624TIP3   OH2 4748   8.383   6.727   1.087
 1624TIP3    H1 4749   8.398   6.647   1.138
 1624TIP3    H2 4750   8.464   6.738   1.036
 1625TIP3   OH2 4751   3.185   6.675   2.522
 1625TIP3    H1 4752   3.272   6.656   2.487
 1625TIP3    H2 4753   3.137   6.593   2.513
 1626TIP3   OH2 4754   6.647   4.991   3.390
 1626TIP3    H1 4755   6.572   5.044   3.417
 1626TIP3    H2 4756   6.672   4.943   3.468
 1627TIP3   OH2 4757   7.039   2.863   1.734
 1627TIP3    H1 4758   7.052   2.856   1.828
 1627TIP3    H2 4759   7.082   2.786   1.698
 1628TIP3   OH2 4760   3.797   7.122   5.566
 1628TIP3    H1 4761   3.783   7.055   5.633
 1628TIP3    H2 4762   3.878   7.165   5.592
 1629TIP3   OH2 4763   2.789   8.003   7.717
 1629TIP3    H1 4764   2.789   8.047   7.632
 1629TIP3    H2 4765   2.840   8.061   7.774
 1630TIP3   OH2 4766   8.415   2.950   0.957
 1630TIP3    H1 4767   8.369   2.936   0.875
 1630TIP3    H2 4768   8.348   2.941   1.024
 1631TIP3   OH2 4769   5.125   0.175   7.234
 1631TIP3    H1 4770   5.132   0.203   7.325
 1631TIP3    H2 4771   5.034   0.149   7.223
 1632TIP3   OH2 4772   0.754   5.644   2.691
 1632TIP3    H1 4773   0.670   5.603   2.711
 1632TIP3    H2 4774   0.818   5.599   2.746
 1633TIP3   OH2 4775   2.791   6.457   1.297
 1633TIP3    H1 4776   2.715   6.515   1.309
 1633TIP3    H2 4777   2.832   6.489   1.217
 1634TIP3   OH2 4778   1.683   1.850   2.487
 1634TIP3    H1 4779   1.736   1.821   2.413
 1634TIP3    H2 4780   1.618   1.781   2.499
 1635TIP3   OH2 4781   5.398   8.431   3.627
 1635TIP3    H1 4782   5.464   8.447   3.695
 1635TIP3    H2 4783   5.448   8.406   3.550
 1636TIP3   OH2 4784   7.459   6.105   5.807
 1636TIP3    H1 4785   7.529   6.161   5.773
 1636TIP3    H2 4786   7.476   6.100   5.901
 1637TIP3   OH2 4787   3.386   1.520   0.881
 1637TIP3    H1 4788   3.383   1.430   0.914
 1637TIP3    H2 4789   3.295   1.548   0.881
 1638TIP3   OH2 4790   7.447   1.928   0.080
 1638TIP3    H1 4791   7.362   1.945   0.120
 1638TIP3    H2 4792   7.456   1.996   0.013
 1639TIP3   OH2 4793   1.496   2.583   1.025
 1639TIP3    H1 4794   1.415   2.629   1.044
 1639TIP3    H2 4795   1.540   2.638   0.961
 1640TIP3   OH2 4796   7.401   2.715   3.218
 1640TIP3    H1 4797   7.463   2.748   3.283
 1640TIP3    H2 4798   7.396   2.784   3.152
 1641TIP3   OH2 4799   7.397   2.312   1.674
 1641TIP3    H1 4800   7.341   2.340   1.602
 1641TIP3    H2 4801   7.357   2.231   1.705
 1642TIP3   OH2 4802   3.998   4.490   1.990
 1642TIP3    H1 4803   3.914   4.447   1.974
 1642TIP3    H2 4804   4.014   4.541   1.911
 1643TIP3   OH2 4805   2.222   4.180   4.582
 1643TIP3    H1 4806   2.188   4.090   4.590
 1643TIP3    H2 4807   2.244   4.189   4.489
 1644TIP3   OH2 4808   2.374   6.953   6.056
 1644TIP3    H1 4809   2.344   7.026   6.111
 1644TIP3    H2 4810   2.435   6.993   5.994
 1645TIP3   OH2 4811   8.418   1.008   6.976
 1645TIP3    H1 4812   8.331   1.023   6.939
 1645TIP3    H2 4813   8.471   1.080   6.943
 1646TIP3   OH2 4814   9.043   6.763   5.740
 1646TIP3    H1 4815   9.018   6.822   5.669
 1646TIP3    H2 4816   9.100   6.815   5.797
 1647TIP3   OH2 4817   1.871   1.490   1.140
 1647TIP3    H1 4818   1.866   1.422   1.073
 1647TIP3    H2 4819   1.801   1.551   1.118
 1648TIP3   OH2 4820   0.554   0.455   0.229
 1648TIP3    H1 4821   0.468   0.464   0.271
 1648TIP3    H2 4822   0.544   0.380   0.171
 1649TIP3   OH2 4823   5.182   2.121   2.056
 1649TIP3    H1 4824   5.158   2.111   2.148
 1649TIP3    H2 4825   5.100   2.109   2.008
 1650TIP3   OH2 4826   1.420   2.892   1.609
 1650TIP3    H1 4827   1.366   2.925   1.681
 1650TIP3    H2 4828   1.357   2.866   1.542
 1651TIP3   OH2 4829   5.905   1.261   5.508
 1651TIP3    H1 4830   5.852   1.270   5.587
 1651TIP3    H2 4831   5.878   1.177   5.470
 1652TIP3   OH2 4832   7.447   8.814   7.001
 1652TIP3    H1 4833   7.539   8.833   6.984
 1652TIP3    H2 4834   7.401   8.894   6.972
 1653TIP3   OH2 4835   0.399   8.183   5.473
 1653TIP3    H1 4836   0.308   8.153   5.470
 1653TIP3    H2 4837   0.392   8.277   5.490
 1654TIP3   OH2 4838   5.237   6.711   4.875
 1654TIP3    H1 4839   5.331   6.727   4.879
 1654TIP3    H2 4840   5.198   6.780   4.928
 1655TIP3   OH2 4841   5.384   2.246   0.905
 1655TIP3    H1 4842   5.312   2.185   0.923
 1655TIP3    H2 4843   5.344   2.333   0.913
 1656TIP3   OH2 4844   2.493   5.156   0.238
 1656TIP3    H1 4845   2.436   5.137   0.164
 1656TIP3    H2 4846   2.434   5.171   0.311
 1657TIP3   OH2 4847   8.814   3.072   3.507
 1657TIP3    H1 4848   8.773   3.009   3.565
 1657TIP3    H2 4849   8.751   3.082   3.435
 1658TIP3   OH2 4850   8.240   4.070   6.647
 1658TIP3    H1 4851   8.161   4.015   6.650
 1658TIP3    H2 4852   8.296   4.028   6.582
 1659TIP3   OH2 4853   8.599   5.467   2.873
 1659TIP3    H1 4854   8.657   5.477   2.948
 1659TIP3    H2 4855   8.631   5.389   2.828
 1660TIP3   OH2 4856   2.558   8.230   2.436
 1660TIP3    H1 4857   2.479   8.282   2.425
 1660TIP3    H2 4858   2.589   8.252   2.524
 1661TIP3   OH2 4859   4.670   3.300   4.799
 1661TIP3    H1 4860   4.729   3.375   4.801
 1661TIP3    H2 4861   4.723   3.227   4.833
 1662TIP3   OH2 4862   0.605   8.993   7.282
 1662TIP3    H1 4863   0.621   9.050   7.358
 1662TIP3    H2 4864   0.606   8.905   7.318
 1663TIP3   OH2 4865   3.375   0.090   5.861
 1663TIP3    H1 4866   3.297   0.090   5.916
 1663TIP3    H2 4867   3.370   0.173   5.814
 1664TIP3   OH2 4868   3.250   4.686   5.983
 1664TIP3    H1 4869   3.208   4.602   5.962
 1664TIP3    H2 4870   3.207   4.714   6.064
 1665TIP3   OH2 4871   9.124   2.425   2.145
 1665TIP3    H1 4872   9.037   2.437   2.183
 1665TIP3    H2 4873   9.134   2.330   2.136
 1666TIP3   OH2 4874   1.231   8.852   6.619
 1666TIP3    H1 4875   1.237   8.924   6.557
 1666TIP3    H2 4876   1.314   8.854   6.667
 1667TIP3   OH2 4877   3.531   8.359   7.575
 1667TIP3    H1 4878   3.539   8.275   7.620
 1667TIP3    H2 4879   3.475   8.412   7.631
 1668TIP3   OH2 4880   1.443   5.533   1.991
 1668TIP3    H1 4881   1.504   5.508   2.060
 1668TIP3    H2 4882   1.384   5.596   2.032
 1669TIP3   OH2 4883   4.478   3.131   1.288
 1669TIP3    H1 4884   4.566   3.140   1.252
 1669TIP3    H2 4885   4.423   3.115   1.211
 1670TIP3   OH2 4886   6.278   2.224   2.795
 1670TIP3    H1 4887   6.222   2.147   2.804
 1670TIP3    H2 4888   6.305   2.223   2.703
 1671TIP3   OH2 4889   7.080   7.675   5.190
 1671TIP3    H1 4890   7.122   7.684   5.104
 1671TIP3    H2 4891   7.150   7.645   5.248
 1672TIP3   OH2 4892   4.926   3.767   0.098
 1672TIP3    H1 4893   4.850   3.763   0.040
 1672TIP3    H2 4894   5.002   3.766   0.040
 1673TIP3   OH2 4895   1.132   5.012   1.947
 1673TIP3    H1 4896   1.084   5.082   1.992
 1673TIP3    H2 4897   1.211   5.000   2.000
 1674TIP3   OH2 4898   8.857   4.326   6.530
 1674TIP3    H1 4899   8.919   4.263   6.566
 1674TIP3    H2 4900   8.862   4.401   6.590
 1675TIP3   OH2 4901   1.441   4.878   2.378
 1675TIP3    H1 4902   1.406   4.935   2.310
 1675TIP3    H2 4903   1.371   4.874   2.444
 1676TIP3   OH2 4904   5.247   8.190   3.070
 1676TIP3    H1 4905   5.343   8.197   3.068
 1676TIP3    H2 4906   5.224   8.155   2.984
 1677TIP3   OH2 4907   6.858   6.691   0.553
 1677TIP3    H1 4908   6.800   6.617   0.572
 1677TIP3    H2 4909   6.944   6.662   0.585
 1678TIP3   OH2 4910   5.291   2.708   6.258
 1678TIP3    H1 4911   5.225   2.697   6.326
 1678TIP3    H2 4912   5.340   2.785   6.284
 1679TIP3   OH2 4913   8.027   3.639   2.289
 1679TIP3    H1 4914   7.997   3.622   2.378
 1679TIP3    H2 4915   8.065   3.556   2.261
 1680TIP3   OH2 4916   6.749   1.202   6.356
 1680TIP3    H1 4917   6.739   1.234   6.266
 1680TIP3    H2 4918   6.746   1.106   6.347
 1681TIP3   OH2 4919   3.517   7.502   6.734
 1681TIP3    H1 4920   3.520   7.407   6.745
 1681TIP3    H2 4921   3.533   7.536   6.822
 1682TIP3   OH2 4922   2.961   1.158   5.171
 1682TIP3    H1 4923   2.937   1.201   5.253
 1682TIP3    H2 4924   3.056   1.170   5.165
 1683TIP3   OH2 4925   4.682   2.460   1.175
 1683TIP3    H1 4926   4.675   2.554   1.193
 1683TIP3    H2 4927   4.775   2.441   1.186
 1684TIP3   OH2 4928   7.821   3.801   0.149
 1684TIP3    H1 4929   7.780   3.813   0.063
 1684TIP3    H2 4930   7.786   3.872   0.203
 1685TIP3   OH2 4931   4.131   4.958   4.574
 1685TIP3    H1 4932   4.069   4.905   4.624
 1685TIP3    H2 4933   4.216   4.939   4.612
 1686TIP3   OH2 4934   0.110   7.596   7.551
 1686TIP3    H1 4935   0.203   7.576   7.538
 1686TIP3    H2 4936   0.066   7.511   7.552
 1687TIP3   OH2 4937   5.380   0.867   7.323
 1687TIP3    H1 4938   5.311   0.823   7.274
 1687TIP3    H2 4939   5.340   0.947   7.357
 1688TIP3   OH2 4940   8.249   4.985   1.670
 1688TIP3    H1 4941   8.301   5.011   1.746
 1688TIP3    H2 4942   8.314   4.958   1.605
 1689TIP3   OH2 4943   7.735   3.950   0.343
 1689TIP3    H1 4944   7.693   4.027   0.304
 1689TIP3    H2 4945   7.675   3.923   0.413
 1690TIP3   OH2 4946   1.000   2.216   1.751
 1690TIP3    H1 4947   1.072   2.219   1.688
 1690TIP3    H2 4948   0.990   2.124   1.772
 1691TIP3   OH2 4949   7.208   1.471   5.437
 1691TIP3    H1 4950   7.224   1.540   5.372
 1691TIP3    H2 4951   7.146   1.510   5.499
 1692TIP3   OH2 4952   8.268   6.256   3.145
 1692TIP3    H1 4953   8.317   6.287   3.069
 1692TIP3    H2 4954   8.258   6.334   3.200
 1693TIP3   OH2 4955   8.020   7.240   2.369
 1693TIP3    H1 4956   8.108   7.238   2.408
 1693TIP3    H2 4957   7.961   7.257   2.442
 1694TIP3   OH2 4958   5.427   7.069   3.071
 1694TIP3    H1 4959   5.415   7.132   3.142
 1694TIP3    H2 4960   5.387   7.111   2.995
 1695TIP3   OH2 4961   8.311   5.931   7.402
 1695TIP3    H1 4962   8.376   5.926   7.472
 1695TIP3    H2 4963   8.327   6.016   7.361
 1696TIP3   OH2 4964   8.605   3.483   3.269
 1696TIP3    H1 4965   8.578   3.520   3.353
 1696TIP3    H2 4966   8.644   3.557   3.221
 1697TIP3   OH2 4967   3.944   6.838   7.147
 1697TIP3    H1 4968   4.010   6.770   7.133
 1697TIP3    H2 4969   3.990   6.908   7.192
 1698TIP3   OH2 4970   8.595   6.103   0.362
 1698TIP3    H1 4971   8.626   6.173   0.304
 1698TIP3    H2 4972   8.672   6.048   0.377
 1699TIP3   OH2 4973   4.074   2.592   3.571
 1699TIP3    H1 4974   4.155   2.550   3.543
 1699TIP3    H2 4975   4.008   2.522   3.566
 1700TIP3   OH2 4976   8.992   5.654   4.949
 1700TIP3    H1 4977   9.018   5.743   4.975
 1700TIP3    H2 4978   9.017   5.600   5.024
 1701TIP3   OH2 4979   5.914   4.269   5.549
 1701TIP3    H1 4980   5.864   4.309   5.478
 1701TIP3    H2 4981   5.860   4.197   5.579
 1702TIP3   OH2 4982   5.081   6.711   7.348
 1702TIP3    H1 4983   5.065   6.690   7.440
 1702TIP3    H2 4984   5.048   6.635   7.300
 1703TIP3   OH2 4985   0.789   5.712   2.419
 1703TIP3    H1 4986   0.767   5.670   2.502
 1703TIP3    H2 4987   0.729   5.673   2.355
 1704TIP3   OH2 4988   8.660   4.818   7.493
 1704TIP3    H1 4989   8.649   4.780   7.406
 1704TIP3    H2 4990   8.571   4.832   7.525
 1705TIP3   OH2 4991   0.206   7.488   4.998
 1705TIP3    H1 4992   0.189   7.478   4.904
 1705TIP3    H2 4993   0.259   7.412   5.021
 1706TIP3   OH2 4994   7.496   5.837   4.541
 1706TIP3    H1 4995   7.468   5.745   4.540
 1706TIP3    H2 4996   7.583   5.836   4.501
 1707TIP3   OH2 4997   0.769   5.934   4.683
 1707TIP3    H1 4998   0.754   6.014   4.734
 1707TIP3    H2 4999   0.716   5.867   4.727
 1708TIP3   OH2 5000   0.928   1.664   1.831
 1708TIP3    H1 5001   0.942   1.758   1.843
 1708TIP3    H2 5002   0.858   1.658   1.766
 1709TIP3   OH2 5003   2.277   6.739   2.451
 1709TIP3    H1 5004   2.320   6.824   2.455
 1709TIP3    H2 5005   2.335   6.686   2.395
 1710TIP3   OH2 5006   2.376   4.544   3.432
 1710TIP3    H1 5007   2.442   4.575   3.494
 1710TIP3    H2 5008   2.364   4.452   3.453
 1711TIP3   OH2 5009   4.312   3.744   7.638
 1711TIP3    H1 5010   4.337   3.759   7.547
 1711TIP3    H2 5011   4.323   3.829   7.681
 1712TIP3   OH2 5012   2.765   5.900   4.613
 1712TIP3    H1 5013   2.698   5.838   4.642
 1712TIP3    H2 5014   2.738   5.926   4.526
 1713TIP3   OH2 5015   8.030   6.352   2.192
 1713TIP3    H1 5016   8.069   6.280   2.142
 1713TIP3    H2 5017   7.984   6.309   2.264
 1714TIP3   OH2 5018   0.561   6.141   1.481
 1714TIP3    H1 5019   0.581   6.169   1.571
 1714TIP3    H2 5020   0.547   6.223   1.434
 1715TIP3   OH2 5021   0.706   2.654   0.546
 1715TIP3    H1 5022   0.751   2.625   0.626
 1715TIP3    H2 5023   0.777   2.680   0.487
 1716TIP3   OH2 5024   0.470   3.367   6.065
 1716TIP3    H1 5025   0.528   3.350   5.991
 1716TIP3    H2 5026   0.497   3.453   6.097
 1717TIP3   OH2 5027   2.308   2.730   3.960
 1717TIP3    H1 5028   2.301   2.755   4.052
 1717TIP3    H2 5029   2.320   2.812   3.914
 1718TIP3   OH2 5030   2.717   6.873   6.351
 1718TIP3    H1 5031   2.776   6.870   6.276
 1718TIP3    H2 5032   2.633   6.843   6.317
 1719TIP3   OH2 5033   8.203   6.430   1.424
 1719TIP3    H1 5034   8.189   6.340   1.452
 1719TIP3    H2 5035   8.219   6.479   1.505
 1720TIP3   OH2 5036   1.609   1.235   3.224
 1720TIP3    H1 5037   1.529   1.246   3.276
 1720TIP3    H2 5038   1.648   1.322   3.221
 1721TIP3   OH2 5039   7.514   2.835   5.429
 1721TIP3    H1 5040   7.449   2.893   5.469
 1721TIP3    H2 5041   7.593   2.889   5.423
 1722TIP3   OH2 5042   0.289   2.484   1.619
 1722TIP3    H1 5043   0.209   2.482   1.566
 1722TIP3    H2 5044   0.336   2.404   1.595
 1723TIP3   OH2 5045   3.923   2.420   1.775
 1723TIP3    H1 5046   3.941   2.430   1.868
 1723TIP3    H2 5047   3.847   2.475   1.758
 1724TIP3   OH2 5048   8.185   8.340   1.195
 1724TIP3    H1 5049   8.221   8.289   1.267
 1724TIP3    H2 5050   8.206   8.431   1.217
 1725TIP3   OH2 5051   8.239   7.596   4.657
 1725TIP3    H1 5052   8.239   7.534   4.584
 1725TIP3    H2 5053   8.182   7.667   4.628
 1726TIP3   OH2 5054   5.555   2.455   3.629
 1726TIP3    H1 5055   5.645   2.468   3.659
 1726TIP3    H2 5056   5.514   2.541   3.638
 1727TIP3   OH2 5057   3.276   1.666   5.285
 1727TIP3    H1 5058   3.208   1.613   5.324
 1727TIP3    H2 5059   3.358   1.621   5.307
 1728TIP3   OH2 5060   3.625   5.329   3.483
 1728TIP3    H1 5061   3.624   5.406   3.540
 1728TIP3    H2 5062   3.533   5.314   3.461
 1729TIP3   OH2 5063   1.557   1.203   0.659
 1729TIP3    H1 5064   1.517   1.285   0.687
 1729TIP3    H2 5065   1.488   1.157   0.612
 1730TIP3   OH2 5066   9.218   6.686   6.232
 1730TIP3    H1 5067   9.162   6.666   6.156
 1730TIP3    H2 5068   9.197   6.776   6.254
 1731TIP3   OH2 5069   3.587   0.821   6.706
 1731TIP3    H1 5070   3.683   0.823   6.710
 1731TIP3    H2 5071   3.559   0.818   6.798
 1732TIP3   OH2 5072   1.223   7.867   4.331
 1732TIP3    H1 5073   1.148   7.808   4.336
 1732TIP3    H2 5074   1.204   7.924   4.256
 1733TIP3   OH2 5075   7.970   0.556   1.351
 1733TIP3    H1 5076   8.023   0.636   1.349
 1733TIP3    H2 5077   8.034   0.485   1.348
 1734TIP3   OH2 5078   5.617   4.780   5.210
 1734TIP3    H1 5079   5.623   4.875   5.203
 1734TIP3    H2 5080   5.592   4.750   5.123
 1735TIP3   OH2 5081   4.657   4.564   0.739
 1735TIP3    H1 5082   4.629   4.656   0.742
 1735TIP3    H2 5083   4.680   4.543   0.830
 1736TIP3   OH2 5084   7.659   3.894   3.941
 1736TIP3    H1 5085   7.753   3.894   3.962
 1736TIP3    H2 5086   7.628   3.980   3.969
 1737TIP3   OH2 5087   1.186   6.588   0.673
 1737TIP3    H1 5088   1.110   6.589   0.730
 1737TIP3    H2 5089   1.181   6.503   0.628
 1738TIP3   OH2 5090   3.126   3.847   6.771
 1738TIP3    H1 5091   3.080   3.859   6.854
 1738TIP3    H2 5092   3.081   3.906   6.710
 1739TIP3   OH2 5093   0.864   6.250   3.299
 1739TIP3    H1 5094   0.847   6.307   3.225
 1739TIP3    H2 5095   0.784   6.252   3.351
 1740TIP3   OH2 5096   8.197   5.513   0.731
 1740TIP3    H1 5097   8.180   5.573   0.658
 1740TIP3    H2 5098   8.130   5.535   0.796
 1741TIP3   OH2 5099   1.217   4.558   0.349
 1741TIP3    H1 5100   1.230   4.618   0.422
 1741TIP3    H2 5101   1.124   4.535   0.354
 1742TIP3   OH2 5102   9.114   2.680   6.771
 1742TIP3    H1 5103   9.066   2.657   6.851
 1742TIP3    H2 5104   9.129   2.596   6.728
 1743TIP3   OH2 5105   6.156   5.495   2.932
 1743TIP3    H1 5106   6.165   5.537   3.017
 1743TIP3    H2 5107   6.198   5.410   2.942
 1744TIP3   OH2 5108   7.235   3.624   4.569
 1744TIP3    H1 5109   7.250   3.614   4.475
 1744TIP3    H2 5110   7.159   3.682   4.575
 1745TIP3   OH2 5111   9.055   2.762   7.391
 1745TIP3    H1 5112   9.104   2.816   7.452
 1745TIP3    H2 5113   9.035   2.820   7.317
 1746TIP3   OH2 5114   4.576   6.906   6.189
 1746TIP3    H1 5115   4.653   6.889   6.135
 1746TIP3    H2 5116   4.506   6.856   6.148
 1747TIP3   OH2 5117   5.841   3.473   5.188
 1747TIP3    H1 5118   5.769   3.412   5.173
 1747TIP3    H2 5119   5.799   3.559   5.187
 1748TIP3   OH2 5120   2.304   1.856   4.146
 1748TIP3    H1 5121   2.222   1.895   4.176
 1748TIP3    H2 5122   2.348   1.927   4.099
 1749TIP3   OH2 5123   8.553   1.222   3.530
 1749TIP3    H1 5124   8.461   1.194   3.529
 1749TIP3    H2 5125   8.553   1.301   3.584
 1750TIP3   OH2 5126   2.250   8.810   5.744
 1750TIP3    H1 5127   2.323   8.748   5.755
 1750TIP3    H2 5128   2.209   8.815   5.830
 1751TIP3   OH2 5129   5.899   0.398   1.102
 1751TIP3    H1 5130   5.810   0.362   1.099
 1751TIP3    H2 5131   5.888   0.491   1.086
 1752TIP3   OH2 5132   6.556   7.709   3.314
 1752TIP3    H1 5133   6.488   7.763   3.274
 1752TIP3    H2 5134   6.547   7.725   3.408
 1753TIP3   OH2 5135   0.317   8.329   0.905
 1753TIP3    H1 5136   0.260   8.354   0.977
 1753TIP3    H2 5137   0.264   8.341   0.827
 1754TIP3   OH2 5138   6.272   2.724   0.977
 1754TIP3    H1 5139   6.276   2.687   1.065
 1754TIP3    H2 5140   6.230   2.810   0.989
 1755TIP3   OH2 5141   2.484   6.071   4.674
 1755TIP3    H1 5142   2.422   5.998   4.667
 1755TIP3    H2 5143   2.540   6.061   4.597
 1756TIP3   OH2 5144   3.259   0.580   5.013
 1756TIP3    H1 5145   3.224   0.660   5.051
 1756TIP3    H2 5146   3.347   0.571   5.050
 1757TIP3   OH2 5147   4.729   4.262   7.604
 1757TIP3    H1 5148   4.687   4.191   7.555
 1757TIP3    H2 5149   4.766   4.218   7.681
 1758TIP3   OH2 5150   4.274   5.541   6.783
 1758TIP3    H1 5151   4.279   5.515   6.875
 1758TIP3    H2 5152   4.365   5.555   6.757
 1759TIP3   OH2 5153   5.697   3.682   7.546
 1759TIP3    H1 5154   5.780   3.636   7.533
 1759TIP3    H2 5155   5.722   3.762   7.593
 1760TIP3   OH2 5156   1.754   8.729   0.554
 1760TIP3    H1 5157   1.786   8.813   0.520
 1760TIP3    H2 5158   1.752   8.741   0.649
 1761TIP3   OH2 5159   2.318   7.005   4.294
 1761TIP3    H1 5160   2.276   7.069   4.236
 1761TIP3    H2 5161   2.245   6.959   4.336
 1762TIP3   OH2 5162   8.434   0.507   6.466
 1762TIP3    H1 5163   8.352   0.546   6.435
 1762TIP3    H2 5164   8.418   0.413   6.463
 1763TIP3   OH2 5165   2.763   3.142   4.172
 1763TIP3    H1 5166   2.731   3.219   4.125
 1763TIP3    H2 5167   2.804   3.089   4.104
 1764TIP3   OH2 5168   1.970   5.532   1.584
 1764TIP3    H1 5169   2.040   5.509   1.524
 1764TIP3    H2 5170   1.902   5.466   1.568
 1765TIP3   OH2 5171   5.253   3.932   2.658
 1765TIP3    H1 5172   5.265   4.011   2.711
 1765TIP3    H2 5173   5.333   3.881   2.672
 1766TIP3   OH2 5174   9.229   8.993   7.106
 1766TIP3    H1 5175   9.282   9.014   7.183
 1766TIP3    H2 5176   9.141   8.980   7.141
 1767TIP3   OH2 5177   0.214   0.862   4.586
 1767TIP3    H1 5178   0.263   0.784   4.563
 1767TIP3    H2 5179   0.197   0.854   4.680
 1768TIP3   OH2 5180   5.472   1.817   0.120
 1768TIP3    H1 5181   5.386   1.778   0.140
 1768TIP3    H2 5182   5.528   1.741   0.102
 1769TIP3   OH2 5183   8.005   6.524   6.076
 1769TIP3    H1 5184   7.921   6.566   6.059
 1769TIP3    H2 5185   8.059   6.547   6.001
 1770TIP3   OH2 5186   5.474   0.526   7.283
 1770TIP3    H1 5187   5.381   0.507   7.274
 1770TIP3    H2 5188   5.480   0.581   7.362
 1771TIP3   OH2 5189   5.905   6.013   7.675
 1771TIP3    H1 5190   5.926   5.954   7.602
 1771TIP3    H2 5191   5.987   6.020   7.724
 1772TIP3   OH2 5192   1.348   1.582   5.705
 1772TIP3    H1 5193   1.323   1.590   5.797
 1772TIP3    H2 5194   1.290   1.644   5.659
 1773TIP3   OH2 5195   3.124   7.600   4.638
 1773TIP3    H1 5196   3.190   7.603   4.569
 1773TIP3    H2 5197   3.067   7.527   4.614
 1774TIP3   OH2 5198   2.796   4.679   2.138
 1774TIP3    H1 5199   2.771   4.649   2.225
 1774TIP3    H2 5200   2.736   4.633   2.079
 1775TIP3   OH2 5201   5.735   5.517   0.404
 1775TIP3    H1 5202   5.692   5.577   0.465
 1775TIP3    H2 5203   5.794   5.573   0.353
 1776TIP3   OH2 5204   7.114   5.014   1.611
 1776TIP3    H1 5205   7.118   4.920   1.626
 1776TIP3    H2 5206   7.021   5.036   1.618
 1777TIP3   OH2 5207   5.025   6.588   1.621
 1777TIP3    H1 5208   4.961   6.654   1.647
 1777TIP3    H2 5209   5.009   6.575   1.527
 1778TIP3   OH2 5210   2.659   4.425   1.310
 1778TIP3    H1 5211   2.591   4.433   1.377
 1778TIP3    H2 5212   2.619   4.372   1.241
 1779TIP3   OH2 5213   1.363   6.196   2.678
 1779TIP3    H1 5214   1.425   6.131   2.713
 1779TIP3    H2 5215   1.341   6.163   2.591
 1780TIP3   OH2 5216   1.490   3.747   2.946
 1780TIP3    H1 5217   1.450   3.775   3.028
 1780TIP3    H2 5218   1.417   3.736   2.886
 1781TIP3   OH2 5219   7.192   2.872   5.156
 1781TIP3    H1 5220   7.172   2.900   5.245
 1781TIP3    H2 5221   7.171   2.948   5.102
 1782TIP3   OH2 5222   0.871   5.441   3.238
 1782TIP3    H1 5223   0.869   5.396   3.154
 1782TIP3    H2 5224   0.949   5.497   3.234
 1783TIP3   OH2 5225   0.084   8.331   3.308
 1783TIP3    H1 5226   0.109   8.264   3.371
 1783TIP3    H2 5227   0.097   8.414   3.355
 1784TIP3   OH2 5228   4.005   3.443   0.958
 1784TIP3    H1 5229   4.019   3.349   0.948
 1784TIP3    H2 5230   4.076   3.483   0.908
 1785TIP3   OH2 5231   0.487   7.231   0.087
 1785TIP3    H1 5232   0.531   7.284   0.154
 1785TIP3    H2 5233   0.544   7.236   0.011
 1786TIP3   OH2 5234   0.810   4.759   0.182
 1786TIP3    H1 5235   0.889   4.760   0.128
 1786TIP3    H2 5236   0.840   4.784   0.270
 1787TIP3   OH2 5237   4.423   6.139   2.522
 1787TIP3    H1 5238   4.501   6.089   2.499
 1787TIP3    H2 5239   4.350   6.092   2.481
 1788TIP3   OH2 5240   5.424   8.368   7.804
 1788TIP3    H1 5241   5.477   8.413   7.738
 1788TIP3    H2 5242   5.400   8.438   7.866
 1789TIP3   OH2 5243   3.605   6.777   2.191
 1789TIP3    H1 5244   3.532   6.820   2.147
 1789TIP3    H2 5245   3.680   6.789   2.133
 1790TIP3   OH2 5246   8.911   5.555   4.613
 1790TIP3    H1 5247   8.874   5.620   4.673
 1790TIP3    H2 5248   8.900   5.593   4.526
 1791TIP3   OH2 5249   5.556   5.190   7.573
 1791TIP3    H1 5250   5.490   5.142   7.623
 1791TIP3    H2 5251   5.614   5.123   7.538
 1792TIP3   OH2 5252   5.869   3.933   2.443
 1792TIP3    H1 5253   5.855   3.839   2.448
 1792TIP3    H2 5254   5.956   3.943   2.405
 1793TIP3   OH2 5255   9.521   2.481   4.767
 1793TIP3    H1 5256   9.547   2.454   4.855
 1793TIP3    H2 5257   9.594   2.456   4.711
 1794TIP3   OH2 5258   7.688   8.393   1.325
 1794TIP3    H1 5259   7.753   8.330   1.356
 1794TIP3    H2 5260   7.637   8.415   1.403
 1795TIP3   OH2 5261   8.069   0.780   0.266
 1795TIP3    H1 5262   8.118   0.726   0.328
 1795TIP3    H2 5263   8.116   0.864   0.264
 1796TIP3   OH2 5264   6.597   0.716   2.699
 1796TIP3    H1 5265   6.644   0.727   2.782
 1796TIP3    H2 5266   6.652   0.656   2.648
 1797TIP3   OH2 5267   9.414   2.424   5.131
 1797TIP3    H1 5268   9.430   2.386   5.217
 1797TIP3    H2 5269   9.352   2.364   5.090
 1798TIP3   OH2 5270   7.199   8.166   5.252
 1798TIP3    H1 5271   7.116   8.203   5.283
 1798TIP3    H2 5272   7.216   8.094   5.313
 1799TIP3   OH2 5273   1.989   7.860   5.852
 1799TIP3    H1 5274   2.077   7.886   5.823
 1799TIP3    H2 5275   1.950   7.817   5.776
 1800TIP3   OH2 5276   9.151   6.788   3.476
 1800TIP3    H1 5277   9.155   6.737   3.558
 1800TIP3    H2 5278   9.097   6.863   3.498
 1801TIP3   OH2 5279   6.909   8.079   1.550
 1801TIP3    H1 5280   6.931   8.071   1.457
 1801TIP3    H2 5281   6.929   8.170   1.571
 1802TIP3   OH2 5282   6.954   6.168   2.008
 1802TIP3    H1 5283   6.933   6.254   1.970
 1802TIP3    H2 5284   7.032   6.184   2.061
 1803TIP3   OH2 5285   1.101   7.833   2.113
 1803TIP3    H1 5286   1.043   7.830   2.189
 1803TIP3    H2 5287   1.184   7.866   2.147
 1804TIP3   OH2 5288   8.726   3.785   4.200
 1804TIP3    H1 5289   8.692   3.752   4.117
 1804TIP3    H2 5290   8.660   3.849   4.229
 1805TIP3   OH2 5291   5.113   8.111   0.922
 1805TIP3    H1 5292   5.166   8.048   0.972
 1805TIP3    H2 5293   5.093   8.066   0.840
 1806TIP3   OH2 5294   9.111   3.661   3.205
 1806TIP3    H1 5295   9.097   3.571   3.176
 1806TIP3    H2 5296   9.037   3.681   3.261
 1807TIP3   OH2 5297   7.987   0.835   5.009
 1807TIP3    H1 5298   8.014   0.886   4.933
 1807TIP3    H2 5299   8.009   0.744   4.985
 1808TIP3   OH2 5300   8.060   0.021   5.168
 1808TIP3    H1 5301   7.970   0.013   5.137
 1808TIP3    H2 5302   8.076  -0.060   5.217
 1809TIP3   OH2 5303   2.311   1.090   6.968
 1809TIP3    H1 5304   2.233   1.139   6.941
 1809TIP3    H2 5305   2.351   1.144   7.036
 1810TIP3   OH2 5306   9.564   7.687   2.017
 1810TIP3    H1 5307   9.508   7.618   1.982
 1810TIP3    H2 5308   9.528   7.706   2.104
 1811TIP3   OH2 5309   0.455   2.626   4.756
 1811TIP3    H1 5310   0.492   2.537   4.755
 1811TIP3    H2 5311   0.510   2.674   4.818
 1812TIP3   OH2 5312   0.596   8.217   4.511
 1812TIP3    H1 5313   0.618   8.306   4.538
 1812TIP3    H2 5314   0.664   8.162   4.549
 1813TIP3   OH2 5315   8.857   3.959   2.887
 1813TIP3    H1 5316   8.809   4.041   2.899
 1813TIP3    H2 5317   8.790   3.891   2.892
 1814TIP3   OH2 5318   6.346   1.257   1.023
 1814TIP3    H1 5319   6.309   1.170   1.034
 1814TIP3    H2 5320   6.434   1.251   1.059
 1815TIP3   OH2 5321   7.235   6.362   2.502
 1815TIP3    H1 5322   7.253   6.439   2.447
 1815TIP3    H2 5323   7.225   6.398   2.590
 1816TIP3   OH2 5324   9.114   2.525   1.540
 1816TIP3    H1 5325   9.087   2.541   1.630
 1816TIP3    H2 5326   9.044   2.471   1.503
 1817TIP3   OH2 5327   9.032   0.358   0.627
 1817TIP3    H1 5328   9.127   0.369   0.641
 1817TIP3    H2 5329   8.994   0.364   0.715
 1818TIP3   OH2 5330   7.689   1.463   5.456
 1818TIP3    H1 5331   7.663   1.371   5.459
 1818TIP3    H2 5332   7.697   1.483   5.362
 1819TIP3   OH2 5333   3.523   2.154   5.414
 1819TIP3    H1 5334   3.589   2.196   5.469
 1819TIP3    H2 5335   3.497   2.221   5.351
 1820TIP3   OH2 5336   4.267   0.771   4.218
 1820TIP3    H1 5337   4.270   0.864   4.240
 1820TIP3    H2 5338   4.344   0.734   4.262
 1821TIP3   OH2 5339   5.706   4.203   5.072
 1821TIP3    H1 5340   5.665   4.282   5.107
 1821TIP3    H2 5341   5.677   4.133   5.130
 1822TIP3   OH2 5342   9.306   5.852   3.161
 1822TIP3    H1 5343   9.225   5.891   3.193
 1822TIP3    H2 5344   9.280   5.768   3.124
 1823TIP3   OH2 5345   1.831   5.634   6.959
 1823TIP3    H1 5346   1.926   5.647   6.955
 1823TIP3    H2 5347   1.795   5.705   6.906
 1824TIP3   OH2 5348   6.879   0.826   7.574
 1824TIP3    H1 5349   6.896   0.746   7.525
 1824TIP3    H2 5350   6.908   0.806   7.663
 1825TIP3   OH2 5351   5.066   2.687   7.633
 1825TIP3    H1 5352   5.046   2.614   7.575
 1825TIP3    H2 5353   5.050   2.653   7.721
 1826TIP3   OH2 5354   5.724   3.576   3.234
 1826TIP3    H1 5355   5.733   3.525   3.153
 1826TIP3    H2 5356   5.775   3.656   3.218
 1827TIP3   OH2 5357   6.879   8.567   5.683
 1827TIP3    H1 5358   6.864   8.618   5.762
 1827TIP3    H2 5359   6.813   8.598   5.621
 1828TIP3   OH2 5360   0.675   3.956   5.006
 1828TIP3    H1 5361   0.726   3.881   5.036
 1828TIP3    H2 5362   0.659   4.007   5.085
 1829TIP3   OH2 5363   9.026   3.243   7.529
 1829TIP3    H1 5364   9.045   3.303   7.457
 1829TIP3    H2 5365   8.930   3.236   7.531
 1830TIP3   OH2 5366   5.143   2.934   1.155
 1830TIP3    H1 5367   5.118   2.983   1.234
 1830TIP3    H2 5368   5.222   2.977   1.124
 1831TIP3   OH2 5369   7.174   5.906   6.415
 1831TIP3    H1 5370   7.107   5.962   6.454
 1831TIP3    H2 5371   7.188   5.837   6.479
 1832TIP3   OH2 5372   6.382   3.823   5.286
 1832TIP3    H1 5373   6.367   3.791   5.375
 1832TIP3    H2 5374   6.468   3.864   5.289
 1833TIP3   OH2 5375   6.725   5.948   3.504
 1833TIP3    H1 5376   6.692   6.032   3.534
 1833TIP3    H2 5377   6.803   5.932   3.557
 1834TIP3   OH2 5378   2.541   5.046   5.666
 1834TIP3    H1 5379   2.631   5.014   5.666
 1834TIP3    H2 5380   2.493   4.984   5.722
 1835TIP3   OH2 5381   7.474   7.957   7.107
 1835TIP3    H1 5382   7.425   8.036   7.087
 1835TIP3    H2 5383   7.443   7.931   7.194
 1836TIP3   OH2 5384   1.158   7.165   2.000
 1836TIP3    H1 5385   1.066   7.140   1.995
 1836TIP3    H2 5386   1.170   7.227   1.927
 1837TIP3   OH2 5387   3.155   7.994   6.985
 1837TIP3    H1 5388   3.246   8.023   6.980
 1837TIP3    H2 5389   3.158   7.901   6.962
 1838TIP3   OH2 5390   7.221   8.925   0.519
 1838TIP3    H1 5391   7.206   8.881   0.435
 1838TIP3    H2 5392   7.183   8.867   0.584
 1839TIP3   OH2 5393   2.766   0.635   1.693
 1839TIP3    H1 5394   2.719   0.712   1.661
 1839TIP3    H2 5395   2.712   0.561   1.665
 1840TIP3   OH2 5396   9.299   4.764   4.839
 1840TIP3    H1 5397   9.212   4.803   4.830
 1840TIP3    H2 5398   9.283   4.674   4.867
 1841TIP3   OH2 5399   3.047   1.488   3.506
 1841TIP3    H1 5400   2.978   1.479   3.440
 1841TIP3    H2 5401   3.000   1.488   3.589
 1842TIP3   OH2 5402   9.099   8.505   7.296
 1842TIP3    H1 5403   9.180   8.540   7.259
 1842TIP3    H2 5404   9.104   8.411   7.278
 1843TIP3   OH2 5405   7.922   8.186   2.439
 1843TIP3    H1 5406   7.835   8.150   2.458
 1843TIP3    H2 5407   7.939   8.163   2.348
 1844TIP3   OH2 5408   6.824   2.084   0.006
 1844TIP3    H1 5409   6.770   2.163  -0.001
 1844TIP3    H2 5410   6.794   2.028  -0.066
 1845TIP3   OH2 5411   2.459   6.833   6.644
 1845TIP3    H1 5412   2.468   6.804   6.553
 1845TIP3    H2 5413   2.425   6.756   6.690
 1846TIP3   OH2 5414   6.720   8.259   3.614
 1846TIP3    H1 5415   6.751   8.334   3.666
 1846TIP3    H2 5416   6.738   8.285   3.523
 1847TIP3   OH2 5417   2.169   5.937   4.788
 1847TIP3    H1 5418   2.101   5.904   4.847
 1847TIP3    H2 5419   2.195   5.861   4.737
 1848TIP3   OH2 5420   2.889   2.980   0.322
 1848TIP3    H1 5421   2.880   3.066   0.363
 1848TIP3    H2 5422   2.807   2.935   0.340
 1849TIP3   OH2 5423   2.101   5.374   4.132
 1849TIP3    H1 5424   2.126   5.309   4.066
 1849TIP3    H2 5425   2.006   5.384   4.122
 1850TIP3   OH2 5426   3.341   3.359   3.862
 1850TIP3    H1 5427   3.361   3.291   3.927
 1850TIP3    H2 5428   3.350   3.315   3.778
 1851TIP3   OH2 5429   8.955   1.992   4.852
 1851TIP3    H1 5430   8.970   2.082   4.825
 1851TIP3    H2 5431   8.950   1.943   4.769
 1852TIP3   OH2 5432   0.636   4.217   4.216
 1852TIP3    H1 5433   0.698   4.269   4.268
 1852TIP3    H2 5434   0.600   4.154   4.278
 1853TIP3   OH2 5435   1.211   8.719   5.766
 1853TIP3    H1 5436   1.304   8.737   5.772
 1853TIP3    H2 5437   1.192   8.660   5.838
 1854TIP3   OH2 5438   0.642   0.431   5.645
 1854TIP3    H1 5439   0.625   0.525   5.642
 1854TIP3    H2 5440   0.690   0.419   5.727
 1855TIP3   OH2 5441   7.075   5.346   1.981
 1855TIP3    H1 5442   7.086   5.324   1.889
 1855TIP3    H2 5443   7.092   5.264   2.027
 1856TIP3   OH2 5444   7.388   5.268   4.839
 1856TIP3    H1 5445   7.455   5.262   4.907
 1856TIP3    H2 5446   7.321   5.326   4.876
 1857TIP3   OH2 5447   3.782   1.124   5.082
 1857TIP3    H1 5448   3.754   1.184   5.150
 1857TIP3    H2 5449   3.710   1.060   5.076
 1858TIP3   OH2 5450   4.668   0.177   0.246
 1858TIP3    H1 5451   4.634   0.219   0.326
 1858TIP3    H2 5452   4.695   0.090   0.274
 1859TIP3   OH2 5453   2.667   4.911   5.395
 1859TIP3    H1 5454   2.685   4.819   5.411
 1859TIP3    H2 5455   2.717   4.958   5.461
 1860TIP3   OH2 5456   3.561   8.496   2.023
 1860TIP3    H1 5457   3.497   8.535   1.964
 1860TIP3    H2 5458   3.566   8.558   2.096
 1861TIP3   OH2 5459   0.259   7.275   2.904
 1861TIP3    H1 5460   0.290   7.206   2.962
 1861TIP3    H2 5461   0.325   7.344   2.911
 1862TIP3   OH2 5462   7.361   5.506   0.413
 1862TIP3    H1 5463   7.403   5.486   0.497
 1862TIP3    H2 5464   7.317   5.424   0.388
 1863TIP3   OH2 5465   0.412   0.705   7.082
 1863TIP3    H1 5466   0.334   0.741   7.124
 1863TIP3    H2 5467   0.484   0.757   7.119
 1864TIP3   OH2 5468   5.582   3.705   4.257
 1864TIP3    H1 5469   5.561   3.775   4.196
 1864TIP3    H2 5470   5.671   3.725   4.287
 1865TIP3   OH2 5471   3.219   3.353   5.600
 1865TIP3    H1 5472   3.217   3.259   5.586
 1865TIP3    H2 5473   3.180   3.390   5.521
 1866TIP3   OH2 5474   3.999   6.946   6.021
 1866TIP3    H1 5475   4.004   7.038   6.046
 1866TIP3    H2 5476   3.975   6.901   6.102
 1867TIP3   OH2 5477   7.571   6.943   7.758
 1867TIP3    H1 5478   7.584   6.946   7.853
 1867TIP3    H2 5479   7.477   6.929   7.747
 1868TIP3   OH2 5480   4.573   6.927   3.428
 1868TIP3    H1 5481   4.519   6.963   3.498
 1868TIP3    H2 5482   4.565   6.990   3.356
 1869TIP3   OH2 5483   5.052   5.547   0.363
 1869TIP3    H1 5484   5.101   5.551   0.281
 1869TIP3    H2 5485   4.961   5.535   0.336
 1870TIP3   OH2 5486   7.370   3.356   1.692
 1870TIP3    H1 5487   7.452   3.382   1.649
 1870TIP3    H2 5488   7.375   3.260   1.696
 1871TIP3   OH2 5489   5.728   5.692   6.920
 1871TIP3    H1 5490   5.820   5.668   6.907
 1871TIP3    H2 5491   5.719   5.702   7.015
 1872TIP3   OH2 5492   6.907   7.888   3.488
 1872TIP3    H1 5493   6.891   7.836   3.566
 1872TIP3    H2 5494   7.002   7.893   3.481
 1873TIP3   OH2 5495   3.115   5.373   1.341
 1873TIP3    H1 5496   3.079   5.445   1.289
 1873TIP3    H2 5497   3.039   5.331   1.379
 1874TIP3   OH2 5498   8.556   6.456   6.393
 1874TIP3    H1 5499   8.462   6.454   6.414
 1874TIP3    H2 5500   8.572   6.373   6.349
 1875TIP3   OH2 5501   2.964   1.291   7.434
 1875TIP3    H1 5502   3.051   1.328   7.418
 1875TIP3    H2 5503   2.941   1.246   7.353
 1876TIP3   OH2 5504   0.161   4.027   5.377
 1876TIP3    H1 5505   0.159   4.015   5.282
 1876TIP3    H2 5506   0.246   3.991   5.404
 1877TIP3   OH2 5507   5.203   7.283   1.554
 1877TIP3    H1 5508   5.291   7.247   1.543
 1877TIP3    H2 5509   5.148   7.229   1.498
 1878TIP3   OH2 5510   4.579   2.321   3.245
 1878TIP3    H1 5511   4.561   2.318   3.151
 1878TIP3    H2 5512   4.669   2.288   3.254
 1879TIP3   OH2 5513   0.442   8.683   7.034
 1879TIP3    H1 5514   0.391   8.659   6.957
 1879TIP3    H2 5515   0.529   8.704   7.000
 1880TIP3   OH2 5516   7.630   7.457   2.073
 1880TIP3    H1 5517   7.685   7.525   2.113
 1880TIP3    H2 5518   7.549   7.458   2.126
 1881TIP3   OH2 5519   9.526   5.233   1.318
 1881TIP3    H1 5520   9.621   5.229   1.303
 1881TIP3    H2 5521   9.487   5.203   1.235
 1882TIP3   OH2 5522   1.849   3.836   5.460
 1882TIP3    H1 5523   1.853   3.892   5.382
 1882TIP3    H2 5524   1.823   3.751   5.426
 1883TIP3   OH2 5525   5.263   1.629   6.417
 1883TIP3    H1 5526   5.293   1.719   6.405
 1883TIP3    H2 5527   5.172   1.637   6.446
 1884TIP3   OH2 5528   7.342   0.826   1.280
 1884TIP3    H1 5529   7.336   0.773   1.200
 1884TIP3    H2 5530   7.255   0.863   1.291
 1885TIP3   OH2 5531   8.772   8.318   3.045
 1885TIP3    H1 5532   8.771   8.363   3.130
 1885TIP3    H2 5533   8.865   8.311   3.023
 1886TIP3   OH2 5534   5.119   2.553   1.498
 1886TIP3    H1 5535   5.101   2.538   1.591
 1886TIP3    H2 5536   5.210   2.583   1.495
 1887TIP3   OH2 5537   1.640   4.114   5.584
 1887TIP3    H1 5538   1.717   4.063   5.607
 1887TIP3    H2 5539   1.672   4.204   5.572
 1888TIP3   OH2 5540   6.168   6.615   3.111
 1888TIP3    H1 5541   6.156   6.641   3.202
 1888TIP3    H2 5542   6.229   6.541   3.114
 1889TIP3   OH2 5543   5.375   2.747   7.580
 1889TIP3    H1 5544   5.355   2.793   7.499
 1889TIP3    H2 5545   5.311   2.779   7.644
 1890TIP3   OH2 5546   2.982   4.110   5.914
 1890TIP3    H1 5547   2.945   4.124   6.002
 1890TIP3    H2 5548   3.059   4.055   5.929
 1891TIP3   OH2 5549   3.367   0.584   2.574
 1891TIP3    H1 5550   3.372   0.671   2.612
 1891TIP3    H2 5551   3.370   0.524   2.649
 1892TIP3   OH2 5552   9.099   6.350   4.723
 1892TIP3    H1 5553   9.089   6.433   4.771
 1892TIP3    H2 5554   9.085   6.283   4.790
 1893TIP3   OH2 5555   5.291   6.356   5.381
 1893TIP3    H1 5556   5.347   6.280   5.372
 1893TIP3    H2 5557   5.214   6.324   5.429
 1894TIP3   OH2 5558   1.935   4.037   2.410
 1894TIP3    H1 5559   1.958   4.126   2.384
 1894TIP3    H2 5560   1.980   4.025   2.494
 1895TIP3   OH2 5561   6.415   8.082   4.908
 1895TIP3    H1 5562   6.367   8.150   4.955
 1895TIP3    H2 5563   6.496   8.125   4.881
 1896TIP3   OH2 5564   3.522   1.178   6.030
 1896TIP3    H1 5565   3.556   1.165   5.942
 1896TIP3    H2 5566   3.568   1.256   6.062
 1897TIP3   OH2 5567   3.561   8.081   4.029
 1897TIP3    H1 5568   3.541   8.168   3.996
 1897TIP3    H2 5569   3.476   8.042   4.050
 1898TIP3   OH2 5570   7.213   7.515   3.587
 1898TIP3    H1 5571   7.121   7.487   3.584
 1898TIP3    H2 5572   7.238   7.523   3.495
 1899TIP3   OH2 5573   6.633   3.380   3.870
 1899TIP3    H1 5574   6.673   3.351   3.952
 1899TIP3    H2 5575   6.700   3.435   3.829
 1900TIP3   OH2 5576   7.037   1.329   0.431
 1900TIP3    H1 5577   7.067   1.241   0.451
 1900TIP3    H2 5578   6.941   1.322   0.427
 1901TIP3   OH2 5579   9.016   3.045   4.833
 1901TIP3    H1 5580   8.958   3.105   4.786
 1901TIP3    H2 5581   9.092   3.035   4.775
 1902TIP3   OH2 5582   8.521   0.330   0.405
 1902TIP3    H1 5583   8.545   0.419   0.380
 1902TIP3    H2 5584   8.432   0.338   0.442
 1903TIP3   OH2 5585   7.696   7.617   0.181
 1903TIP3    H1 5586   7.669   7.532   0.147
 1903TIP3    H2 5587   7.680   7.611   0.275
 1904TIP3   OH2 5588   7.833   2.167   0.530
 1904TIP3    H1 5589   7.912   2.210   0.497
 1904TIP3    H2 5590   7.761   2.224   0.502
 1905TIP3   OH2 5591   3.764   1.241   5.586
 1905TIP3    H1 5592   3.820   1.163   5.594
 1905TIP3    H2 5593   3.813   1.310   5.630
 1906TIP3   OH2 5594   3.700   3.515   5.876
 1906TIP3    H1 5595   3.752   3.499   5.955
 1906TIP3    H2 5596   3.611   3.531   5.909
 1907TIP3   OH2 5597   7.809   6.782   2.421
 1907TIP3    H1 5598   7.902   6.805   2.421
 1907TIP3    H2 5599   7.768   6.849   2.476
 1908TIP3   OH2 5600   2.050   7.158   4.638
 1908TIP3    H1 5601   2.125   7.126   4.688
 1908TIP3    H2 5602   1.999   7.210   4.701
 1909TIP3   OH2 5603   3.338   5.341   3.785
 1909TIP3    H1 5604   3.328   5.433   3.760
 1909TIP3    H2 5605   3.265   5.296   3.742
 1910TIP3   OH2 5606   6.181   5.686   1.198
 1910TIP3    H1 5607   6.106   5.716   1.147
 1910TIP3    H2 5608   6.164   5.717   1.287
 1911TIP3   OH2 5609   8.783   5.276   4.265
 1911TIP3    H1 5610   8.840   5.233   4.329
 1911TIP3    H2 5611   8.734   5.205   4.226
 1912TIP3   OH2 5612   0.076   7.137   5.637
 1912TIP3    H1 5613   0.170   7.155   5.641
 1912TIP3    H2 5614   0.070   7.043   5.620
 1913TIP3   OH2 5615   5.736   8.590   3.519
 1913TIP3    H1 5616   5.771   8.625   3.436
 1913TIP3    H2 5617   5.780   8.641   3.587
 1914TIP3   OH2 5618   6.327   5.854   1.823
 1914TIP3    H1 5619   6.256   5.912   1.795
 1914TIP3    H2 5620   6.296   5.815   1.905
 1915TIP3   OH2 5621   3.723   1.227   4.465
 1915TIP3    H1 5622   3.691   1.316   4.453
 1915TIP3    H2 5623   3.763   1.204   4.381
 1916TIP3   OH2 5624   4.836   2.685   1.387
 1916TIP3    H1 5625   4.894   2.668   1.461
 1916TIP3    H2 5626   4.821   2.780   1.389
 1917TIP3   OH2 5627   2.042   4.079   0.749
 1917TIP3    H1 5628   2.137   4.089   0.755
 1917TIP3    H2 5629   2.029   3.992   0.711
 1918TIP3   OH2 5630   2.095   6.060   3.569
 1918TIP3    H1 5631   2.142   5.994   3.519
 1918TIP3    H2 5632   2.145   6.069   3.650
 1919TIP3   OH2 5633   8.911   0.379   2.960
 1919TIP3    H1 5634   8.934   0.341   2.876
 1919TIP3    H2 5635   8.859   0.311   3.004
 1920TIP3   OH2 5636   3.988   4.122   4.494
 1920TIP3    H1 5637   3.899   4.154   4.476
 1920TIP3    H2 5638   4.031   4.121   4.409
 1921TIP3   OH2 5639   8.747   8.405   5.440
 1921TIP3    H1 5640   8.812   8.351   5.485
 1921TIP3    H2 5641   8.710   8.347   5.373
 1922TIP3   OH2 5642   6.752   2.223   1.288
 1922TIP3    H1 5643   6.676   2.277   1.267
 1922TIP3    H2 5644   6.791   2.265   1.365
 1923TIP3   OH2 5645   8.702   0.421   2.509
 1923TIP3    H1 5646   8.641   0.354   2.540
 1923TIP3    H2 5647   8.730   0.467   2.588
 1924TIP3   OH2 5648   8.635   7.997   6.680
 1924TIP3    H1 5649   8.585   8.038   6.609
 1924TIP3    H2 5650   8.699   8.064   6.706
 1925TIP3   OH2 5651   6.850   8.990   4.448
 1925TIP3    H1 5652   6.872   9.048   4.521
 1925TIP3    H2 5653   6.918   9.006   4.383
 1926TIP3   OH2 5654   2.347   8.965   1.757
 1926TIP3    H1 5655   2.323   9.019   1.681
 1926TIP3    H2 5656   2.336   8.875   1.726
 1927TIP3   OH2 5657   6.077   1.337   6.240
 1927TIP3    H1 5658   6.092   1.242   6.237
 1927TIP3    H2 5659   5.987   1.346   6.272
 1928TIP3   OH2 5660   2.536   6.075   6.741
 1928TIP3    H1 5661   2.534   6.159   6.696
 1928TIP3    H2 5662   2.625   6.067   6.774
 1929TIP3   OH2 5663   2.869   7.203   2.222
 1929TIP3    H1 5664   2.809   7.226   2.293
 1929TIP3    H2 5665   2.953   7.189   2.265
 1930TIP3   OH2 5666   4.900   4.318   1.462
 1930TIP3    H1 5667   4.895   4.327   1.557
 1930TIP3    H2 5668   4.811   4.337   1.431
 1931TIP3   OH2 5669   6.650   5.208   3.022
 1931TIP3    H1 5670   6.647   5.282   3.083
 1931TIP3    H2 5671   6.726   5.157   3.051
 1932TIP3   OH2 5672   6.035   6.922   4.033
 1932TIP3    H1 5673   6.013   6.945   3.943
 1932TIP3    H2 5674   5.996   6.991   4.086
 1933TIP3   OH2 5675   6.746   4.534   5.193
 1933TIP3    H1 5676   6.679   4.601   5.186
 1933TIP3    H2 5677   6.778   4.541   5.282
 1934TIP3   OH2 5678   8.701   8.766   6.758
 1934TIP3    H1 5679   8.708   8.680   6.800
 1934TIP3    H2 5680   8.716   8.749   6.665
 1935TIP3   OH2 5681   5.497   2.841   0.355
 1935TIP3    H1 5682   5.415   2.866   0.397
 1935TIP3    H2 5683   5.473   2.819   0.266
 1936TIP3   OH2 5684   6.179   3.460   6.336
 1936TIP3    H1 5685   6.271   3.453   6.361
 1936TIP3    H2 5686   6.131   3.417   6.406
 1937TIP3   OH2 5687   2.843   5.668   2.862
 1937TIP3    H1 5688   2.788   5.614   2.805
 1937TIP3    H2 5689   2.893   5.605   2.913
 1938TIP3   OH2 5690   8.368   0.892   1.894
 1938TIP3    H1 5691   8.418   0.819   1.929
 1938TIP3    H2 5692   8.289   0.853   1.857
 1939TIP3   OH2 5693   5.395   8.108   0.320
 1939TIP3    H1 5694   5.441   8.029   0.291
 1939TIP3    H2 5695   5.351   8.082   0.401
 1940TIP3   OH2 5696   0.908   7.444   5.383
 1940TIP3    H1 5697   0.966   7.383   5.428
 1940TIP3    H2 5698   0.893   7.515   5.445
 1941TIP3   OH2 5699   6.285   8.864   2.011
 1941TIP3    H1 5700   6.342   8.930   1.972
 1941TIP3    H2 5701   6.334   8.782   2.001
 1942TIP3   OH2 5702   2.708   0.311   4.375
 1942TIP3    H1 5703   2.646   0.243   4.400
 1942TIP3    H2 5704   2.794   0.272   4.390
 1943TIP3   OH2 5705   3.650   6.948   4.342
 1943TIP3    H1 5706   3.616   6.859   4.355
 1943TIP3    H2 5707   3.738   6.934   4.307
 1944TIP3   OH2 5708   2.770   3.054   7.182
 1944TIP3    H1 5709   2.865   3.064   7.184
 1944TIP3    H2 5710   2.736   3.144   7.185
 1945TIP3   OH2 5711   8.758   7.809   5.907
 1945TIP3    H1 5712   8.696   7.873   5.873
 1945TIP3    H2 5713   8.763   7.742   5.839
 1946TIP3   OH2 5714   9.537   8.013   1.220
 1946TIP3    H1 5715   9.523   8.107   1.230
 1946TIP3    H2 5716   9.553   8.001   1.126
 1947TIP3   OH2 5717   3.194   1.301   0.288
 1947TIP3    H1 5718   3.262   1.366   0.307
 1947TIP3    H2 5719   3.141   1.298   0.368
 1948TIP3   OH2 5720   7.003   8.943   6.605
 1948TIP3    H1 5721   7.036   8.856   6.584
 1948TIP3    H2 5722   6.955   8.931   6.687
 1949TIP3   OH2 5723   0.899   2.244   4.881
 1949TIP3    H1 5724   0.898   2.150   4.862
 1949TIP3    H2 5725   0.936   2.249   4.969
 1950TIP3   OH2 5726   8.451   8.918   2.210
 1950TIP3    H1 5727   8.373   8.897   2.158
 1950TIP3    H2 5728   8.523   8.873   2.165
 1951TIP3   OH2 5729   1.705   4.963   6.069
 1951TIP3    H1 5730   1.626   5.014   6.049
 1951TIP3    H2 5731   1.739   4.937   5.984
 1952TIP3   OH2 5732   6.934   5.975   4.660
 1952TIP3    H1 5733   6.942   6.070   4.668
 1952TIP3    H2 5734   6.942   5.943   4.750
 1953TIP3   OH2 5735   1.646   4.797   7.270
 1953TIP3    H1 5736   1.568   4.757   7.308
 1953TIP3    H2 5737   1.657   4.879   7.318
 1954TIP3   OH2 5738   3.959   6.531   2.346
 1954TIP3    H1 5739   3.935   6.623   2.334
 1954TIP3    H2 5740   3.877   6.483   2.332
 1955TIP3   OH2 5741   5.616   5.999   2.101
 1955TIP3    H1 5742   5.554   6.028   2.035
 1955TIP3    H2 5743   5.601   6.058   2.175
 1956TIP3   OH2 5744   5.222   5.658   6.236
 1956TIP3    H1 5745   5.126   5.654   6.237
 1956TIP3    H2 5746   5.250   5.588   6.295
 1957TIP3   OH2 5747   6.298   8.437   2.508
 1957TIP3    H1 5748   6.225   8.467   2.562
 1957TIP3    H2 5749   6.320   8.513   2.454
 1958TIP3   OH2 5750   0.777   2.603   6.820
 1958TIP3    H1 5751   0.722   2.676   6.849
 1958TIP3    H2 5752   0.850   2.603   6.881
 1959TIP3   OH2 5753   1.248   3.393   7.301
 1959TIP3    H1 5754   1.208   3.461   7.355
 1959TIP3    H2 5755   1.334   3.429   7.277
 1960TIP3   OH2 5756   7.531   7.446   6.286
 1960TIP3    H1 5757   7.450   7.407   6.318
 1960TIP3    H2 5758   7.504   7.497   6.209
 1961TIP3   OH2 5759   1.142   5.750   4.554
 1961TIP3    H1 5760   1.217   5.713   4.508
 1961TIP3    H2 5761   1.179   5.789   4.634
 1962TIP3   OH2 5762   4.468   3.185   1.829
 1962TIP3    H1 5763   4.425   3.230   1.901
 1962TIP3    H2 5764   4.428   3.220   1.750
 1963TIP3   OH2 5765   5.726   1.867   1.420
 1963TIP3    H1 5766   5.694   1.832   1.503
 1963TIP3    H2 5767   5.673   1.825   1.353
 1964TIP3   OH2 5768   4.089   4.478   0.609
 1964TIP3    H1 5769   4.166   4.425   0.632
 1964TIP3    H2 5770   4.066   4.524   0.689
 1965TIP3   OH2 5771   8.590   2.560   5.042
 1965TIP3    H1 5772   8.663   2.552   4.981
 1965TIP3    H2 5773   8.596   2.483   5.098
 1966TIP3   OH2 5774   2.558   1.375   0.287
 1966TIP3    H1 5775   2.485   1.316   0.306
 1966TIP3    H2 5776   2.547   1.398   0.195
 1967TIP3   OH2 5777   6.419   6.941   7.480
 1967TIP3    H1 5778   6.384   7.021   7.520
 1967TIP3    H2 5779   6.414   6.875   7.550
 1968TIP3   OH2 5780   0.975   2.246   4.233
 1968TIP3    H1 5781   0.914   2.178   4.206
 1968TIP3    H2 5782   0.930   2.293   4.303
 1969TIP3   OH2 5783   2.543   1.636   0.857
 1969TIP3    H1 5784   2.563   1.542   0.853
 1969TIP3    H2 5785   2.474   1.648   0.792
 1970TIP3   OH2 5786   8.781   4.469   3.612
 1970TIP3    H1 5787   8.840   4.501   3.544
 1970TIP3    H2 5788   8.774   4.541   3.674
 1971TIP3   OH2 5789   6.831   0.628   4.310
 1971TIP3    H1 5790   6.894   0.612   4.239
 1971TIP3    H2 5791   6.751   0.655   4.264
 1972TIP3   OH2 5792   3.826   3.251   4.275
 1972TIP3    H1 5793   3.786   3.167   4.253
 1972TIP3    H2 5794   3.849   3.289   4.191
 1973TIP3   OH2 5795   2.354   0.136   7.134
 1973TIP3    H1 5796   2.428   0.184   7.096
 1973TIP3    H2 5797   2.280   0.156   7.077
 1974TIP3   OH2 5798   9.556   4.509   3.123
 1974TIP3    H1 5799   9.545   4.595   3.165
 1974TIP3    H2 5800   9.626   4.467   3.172
 1975TIP3   OH2 5801   1.386   1.767   6.460
 1975TIP3    H1 5802   1.300   1.762   6.503
 1975TIP3    H2 5803   1.441   1.813   6.523
 1976TIP3   OH2 5804   9.080   6.884   1.292
 1976TIP3    H1 5805   9.163   6.897   1.246
 1976TIP3    H2 5806   9.087   6.938   1.370
 1977TIP3   OH2 5807   9.391   6.778   7.674
 1977TIP3    H1 5808   9.458   6.846   7.670
 1977TIP3    H2 5809   9.418   6.714   7.608
 1978TIP3   OH2 5810   4.982   7.097   2.834
 1978TIP3    H1 5811   4.906   7.040   2.828
 1978TIP3    H2 5812   5.001   7.103   2.927
 1979TIP3   OH2 5813   3.843   7.796   7.729
 1979TIP3    H1 5814   3.770   7.790   7.791
 1979TIP3    H2 5815   3.919   7.765   7.779
 1980TIP3   OH2 5816   7.334   9.013   0.839
 1980TIP3    H1 5817   7.316   8.919   0.832
 1980TIP3    H2 5818   7.247   9.053   0.850
 1981TIP3   OH2 5819   6.419   2.978   2.738
 1981TIP3    H1 5820   6.489   2.922   2.771
 1981TIP3    H2 5821   6.376   3.011   2.817
 1982TIP3   OH2 5822   5.824   2.751   5.447
 1982TIP3    H1 5823   5.738   2.750   5.404
 1982TIP3    H2 5824   5.885   2.781   5.380
 1983TIP3   OH2 5825   2.068   6.777   2.899
 1983TIP3    H1 5826   2.098   6.727   2.823
 1983TIP3    H2 5827   1.989   6.732   2.927
 1984TIP3   OH2 5828   2.917   6.891   2.580
 1984TIP3    H1 5829   2.988   6.891   2.644
 1984TIP3    H2 5830   2.852   6.831   2.616
 1985TIP3   OH2 5831   6.157   1.876   6.578
 1985TIP3    H1 5832   6.062   1.883   6.586
 1985TIP3    H2 5833   6.174   1.883   6.484
 1986TIP3   OH2 5834   3.715   3.770   0.729
 1986TIP3    H1 5835   3.672   3.769   0.644
 1986TIP3    H2 5836   3.806   3.745   0.711
 1987TIP3   OH2 5837   0.467   1.393   6.785
 1987TIP3    H1 5838   0.460   1.322   6.849
 1987TIP3    H2 5839   0.507   1.466   6.833
 1988TIP3   OH2 5840   7.011   7.225   4.136
 1988TIP3    H1 5841   6.953   7.292   4.101
 1988TIP3    H2 5842   6.987   7.219   4.229
 1989TIP3   OH2 5843   4.117   1.823   3.207
 1989TIP3    H1 5844   4.096   1.844   3.298
 1989TIP3    H2 5845   4.101   1.729   3.200
 1990TIP3   OH2 5846   4.652   8.380   3.195
 1990TIP3    H1 5847   4.656   8.298   3.146
 1990TIP3    H2 5848   4.564   8.381   3.232
 1991TIP3   OH2 5849   7.190   5.562   0.096
 1991TIP3    H1 5850   7.133   5.627   0.137
 1991TIP3    H2 5851   7.190   5.585   0.003
 1992TIP3   OH2 5852   6.541   1.859   1.299
 1992TIP3    H1 5853   6.507   1.902   1.221
 1992TIP3    H2 5854   6.466   1.855   1.359
 1993TIP3   OH2 5855   1.792   1.262   2.059
 1993TIP3    H1 5856   1.883   1.257   2.088
 1993TIP3    H2 5857   1.755   1.177   2.080
 1994TIP3   OH2 5858   7.567   7.359   1.606
 1994TIP3    H1 5859   7.472   7.359   1.595
 1994TIP3    H2 5860   7.594   7.271   1.579
 1995TIP3   OH2 5861   3.032   0.506   6.492
 1995TIP3    H1 5862   3.033   0.555   6.574
 1995TIP3    H2 5863   3.125   0.498   6.467
 1996TIP3   OH2 5864   6.097   2.637   5.011
 1996TIP3    H1 5865   6.062   2.668   5.095
 1996TIP3    H2 5866   6.186   2.671   5.008
 1997TIP3   OH2 5867   6.299   2.770   7.207
 1997TIP3    H1 5868   6.335   2.698   7.260
 1997TIP3    H2 5869   6.293   2.734   7.119
 1998TIP3   OH2 5870   8.847   0.452   1.959
 1998TIP3    H1 5871   8.896   0.528   1.989
 1998TIP3    H2 5872   8.824   0.404   2.039
 1999TIP3   OH2 5873   8.447   8.641   6.014
 1999TIP3    H1 5874   8.403   8.570   6.062
 1999TIP3    H2 5875   8.533   8.605   5.992
 2000TIP3   OH2 5876   4.288   4.821   0.704
 2000TIP3    H1 5877   4.277   4.741   0.652
 2000TIP3    H2 5878   4.380   4.844   0.693
 2001TIP3   OH2 5879   0.886   0.883   2.577
 2001TIP3    H1 5880   0.965   0.924   2.612
 2001TIP3    H2 5881   0.905   0.870   2.484
 2002TIP3   OH2 5882   2.986   3.292   3.397
 2002TIP3    H1 5883   3.017   3.334   3.478
 2002TIP3    H2 5884   3.029   3.341   3.327
 2003TIP3   OH2 5885   9.155   7.875   0.551
 2003TIP3    H1 5886   9.112   7.806   0.602
 2003TIP3    H2 5887   9.085   7.913   0.498
 2004TIP3   OH2 5888   4.539   1.390   1.108
 2004TIP3    H1 5889   4.499   1.336   1.177
 2004TIP3    H2 5890   4.605   1.442   1.154
 2005TIP3   OH2 5891   2.941   6.872   0.595
 2005TIP3    H1 5892   2.979   6.959   0.580
 2005TIP3    H2 5893   2.974   6.819   0.522
 2006TIP3   OH2 5894   7.867   4.556   5.201
 2006TIP3    H1 5895   7.929   4.623   5.230
 2006TIP3    H2 5896   7.831   4.591   5.119
 2007TIP3   OH2 5897   6.691   8.329   1.994
 2007TIP3    H1 5898   6.779   8.290   1.994
 2007TIP3    H2 5899   6.677   8.356   1.903
 2008TIP3   OH2 5900   1.923   6.302   3.522
 2008TIP3    H1 5901   1.964   6.220   3.495
 2008TIP3    H2 5902   1.925   6.357   3.444
 2009TIP3   OH2 5903   0.367   1.856   7.797
 2009TIP3    H1 5904   0.280   1.816   7.791
 2009TIP3    H2 5905   0.370   1.896   7.884
 2010TIP3   OH2 5906   7.408   0.422   3.351
 2010TIP3    H1 5907   7.454   0.377   3.421
 2010TIP3    H2 5908   7.340   0.360   3.323
 2011TIP3   OH2 5909   5.854   5.080   0.659
 2011TIP3    H1 5910   5.928   5.047   0.609
 2011TIP3    H2 5911   5.831   5.163   0.616
 2012TIP3   OH2 5912   3.666   5.960   5.729
 2012TIP3    H1 5913   3.600   5.904   5.769
 2012TIP3    H2 5914   3.619   6.007   5.660
 2013TIP3   OH2 5915   4.068   3.936   5.391
 2013TIP3    H1 5916   4.117   3.857   5.415
 2013TIP3    H2 5917   3.995   3.903   5.338
 2014TIP3   OH2 5918   2.120   1.202   6.498
 2014TIP3    H1 5919   2.143   1.274   6.439
 2014TIP3    H2 5920   2.203   1.175   6.537
 2015TIP3   OH2 5921   1.754   8.265   2.895
 2015TIP3    H1 5922   1.758   8.172   2.920
 2015TIP3    H2 5923   1.801   8.269   2.812
 2016TIP3   OH2 5924   5.926   1.926   6.344
 2016TIP3    H1 5925   5.903   2.002   6.291
 2016TIP3    H2 5926   5.882   1.940   6.428
 2017TIP3   OH2 5927   7.528   5.241   5.778
 2017TIP3    H1 5928   7.536   5.166   5.718
 2017TIP3    H2 5929   7.524   5.202   5.865
 2018TIP3   OH2 5930   0.530   4.000   2.274
 2018TIP3    H1 5931   0.586   4.046   2.337
 2018TIP3    H2 5932   0.574   4.012   2.190
 2019TIP3   OH2 5933   5.732   2.311   1.433
 2019TIP3    H1 5934   5.660   2.366   1.463
 2019TIP3    H2 5935   5.787   2.299   1.510
 2020TIP3   OH2 5936   5.249   0.453   0.888
 2020TIP3    H1 5937   5.169   0.504   0.878
 2020TIP3    H2 5938   5.270   0.423   0.800
 2021TIP3   OH2 5939   2.280   3.103   6.618
 2021TIP3    H1 5940   2.368   3.085   6.651
 2021TIP3    H2 5941   2.228   3.120   6.697
 2022TIP3   OH2 5942   8.201   5.821   5.230
 2022TIP3    H1 5943   8.238   5.742   5.190
 2022TIP3    H2 5944   8.140   5.789   5.295
 2023TIP3   OH2 5945   2.201   8.168   6.056
 2023TIP3    H1 5946   2.217   8.234   5.989
 2023TIP3    H2 5947   2.286   8.157   6.099
 2024TIP3   OH2 5948   7.181   6.461   7.089
 2024TIP3    H1 5949   7.199   6.367   7.087
 2024TIP3    H2 5950   7.097   6.471   7.044
 2025TIP3   OH2 5951   6.254   2.995   0.295
 2025TIP3    H1 5952   6.241   2.921   0.235
 2025TIP3    H2 5953   6.253   3.072   0.239
 2026TIP3   OH2 5954   7.248   8.499   6.701
 2026TIP3    H1 5955   7.268   8.406   6.688
 2026TIP3    H2 5956   7.332   8.543   6.690
 2027TIP3   OH2 5957   1.318   7.589   4.384
 2027TIP3    H1 5958   1.306   7.682   4.365
 2027TIP3    H2 5959   1.410   7.581   4.408
 2028TIP3   OH2 5960   1.202   5.170   2.391
 2028TIP3    H1 5961   1.227   5.094   2.444
 2028TIP3    H2 5962   1.269   5.174   2.322
 2029TIP3   OH2 5963   6.109   0.787   2.019
 2029TIP3    H1 5964   6.083   0.826   2.102
 2029TIP3    H2 5965   6.084   0.852   1.953
 2030TIP3   OH2 5966   5.978   8.233   3.973
 2030TIP3    H1 5967   5.961   8.153   4.022
 2030TIP3    H2 5968   5.899   8.285   3.985
 2031TIP3   OH2 5969   0.374   7.312   3.240
 2031TIP3    H1 5970   0.399   7.240   3.299
 2031TIP3    H2 5971   0.458   7.345   3.207
 2032TIP3   OH2 5972   3.564   0.257   3.414
 2032TIP3    H1 5973   3.604   0.304   3.487
 2032TIP3    H2 5974   3.559   0.166   3.444
 2033TIP3   OH2 5975   3.494   3.984   6.181
 2033TIP3    H1 5976   3.455   4.033   6.254
 2033TIP3    H2 5977   3.527   3.904   6.220
 2034TIP3   OH2 5978   8.400   7.380   6.276
 2034TIP3    H1 5979   8.421   7.350   6.365
 2034TIP3    H2 5980   8.450   7.462   6.266
 2035TIP3   OH2 5981   0.752   1.012   4.776
 2035TIP3    H1 5982   0.794   0.950   4.835
 2035TIP3    H2 5983   0.823   1.045   4.721
 2036TIP3   OH2 5984   0.873   1.690   2.850
 2036TIP3    H1 5985   0.800   1.648   2.804
 2036TIP3    H2 5986   0.950   1.644   2.818
 2037TIP3   OH2 5987   0.246   3.447   3.156
 2037TIP3    H1 5988   0.333   3.483   3.169
 2037TIP3    H2 5989   0.233   3.449   3.061
 2038TIP3   OH2 5990   8.617   3.555   0.044
 2038TIP3    H1 5991   8.710   3.548   0.021
 2038TIP3    H2 5992   8.600   3.482   0.103
 2039TIP3   OH2 5993   6.687   0.964   1.887
 2039TIP3    H1 5994   6.782   0.956   1.887
 2039TIP3    H2 5995   6.658   0.909   1.960
 2040TIP3   OH2 5996   0.373   7.538   4.171
 2040TIP3    H1 5997   0.350   7.544   4.264
 2040TIP3    H2 5998   0.468   7.548   4.169
 2041TIP3   OH2 5999   9.481   4.932   2.619
 2041TIP3    H1 6000   9.455   4.979   2.539
 2041TIP3    H2 6001   9.481   4.999   2.687
 2042TIP3   OH2 6002   8.153   2.697   3.624
 2042TIP3    H1 6003   8.124   2.788   3.615
 2042TIP3    H2 6004   8.210   2.683   3.548
 2043TIP3   OH2 6005   0.348   5.288   6.731
 2043TIP3    H1 6006   0.271   5.335   6.701
 2043TIP3    H2 6007   0.343   5.291   6.826
 2044TIP3   OH2 6008   2.489   0.443   7.164
 2044TIP3    H1 6009   2.448   0.385   7.100
 2044TIP3    H2 6010   2.540   0.505   7.111
 2045TIP3   OH2 6011   8.136   5.494   3.155
 2045TIP3    H1 6012   8.184   5.459   3.080
 2045TIP3    H2 6013   8.199   5.550   3.199
 2046TIP3   OH2 6014   1.539   7.162   0.086
 2046TIP3    H1 6015   1.617   7.114   0.111
 2046TIP3    H2 6016   1.560   7.254   0.104
 2047TIP3   OH2 6017   6.169   2.486   2.623
 2047TIP3    H1 6018   6.200   2.566   2.581
 2047TIP3    H2 6019   6.163   2.422   2.551
 2048TIP3   OH2 6020   5.280   7.947   4.504
 2048TIP3    H1 6021   5.233   7.931   4.422
 2048TIP3    H2 6022   5.364   7.982   4.476
 2049TIP3   OH2 6023   2.451   4.133   4.788
 2049TIP3    H1 6024   2.467   4.205   4.849
 2049TIP3    H2 6025   2.389   4.169   4.724
 2050TIP3   OH2 6026   4.432   0.800   6.295
 2050TIP3    H1 6027   4.470   0.854   6.226
 2050TIP3    H2 6028   4.344   0.778   6.263
 2051TIP3   OH2 6029   8.429   6.595   3.211
 2051TIP3    H1 6030   8.425   6.544   3.130
 2051TIP3    H2 6031   8.521   6.622   3.217
 2052TIP3   OH2 6032   9.111   4.802   5.951
 2052TIP3    H1 6033   9.189   4.797   6.008
 2052TIP3    H2 6034   9.132   4.871   5.888
 2053TIP3   OH2 6035   3.853   2.576   7.794
 2053TIP3    H1 6036   3.840   2.484   7.772
 2053TIP3    H2 6037   3.842   2.580   7.889
 2054TIP3   OH2 6038   7.437   2.425   3.758
 2054TIP3    H1 6039   7.349   2.406   3.792
 2054TIP3    H2 6040   7.448   2.362   3.686
 2055TIP3   OH2 6041   9.410   7.836   6.444
 2055TIP3    H1 6042   9.352   7.763   6.466
 2055TIP3    H2 6043   9.450   7.811   6.360
 2056TIP3   OH2 6044   3.804   8.468   1.848
 2056TIP3    H1 6045   3.830   8.550   1.806
 2056TIP3    H2 6046   3.728   8.490   1.902
 2057TIP3   OH2 6047   7.437   0.877   4.762
 2057TIP3    H1 6048   7.425   0.928   4.842
 2057TIP3    H2 6049   7.349   0.855   4.733
 2058TIP3   OH2 6050   7.875   6.873   0.407
 2058TIP3    H1 6051   7.915   6.833   0.485
 2058TIP3    H2 6052   7.928   6.952   0.392
 2059TIP3   OH2 6053   7.419   6.932   5.066
 2059TIP3    H1 6054   7.342   6.886   5.033
 2059TIP3    H2 6055   7.387   6.980   5.143
 2060TIP3   OH2 6056   6.682   1.098   2.835
 2060TIP3    H1 6057   6.741   1.023   2.844
 2060TIP3    H2 6058   6.682   1.138   2.922
 2061TIP3   OH2 6059   0.992   7.282   5.990
 2061TIP3    H1 6060   0.958   7.268   5.902
 2061TIP3    H2 6061   0.934   7.348   6.028
 2062TIP3   OH2 6062   2.833   3.777   0.477
 2062TIP3    H1 6063   2.873   3.732   0.402
 2062TIP3    H2 6064   2.748   3.806   0.444
 2063TIP3   OH2 6065   4.973   1.949   0.061
 2063TIP3    H1 6066   5.003   1.902   0.139
 2063TIP3    H2 6067   4.882   1.922   0.050
 2064TIP3   OH2 6068   6.427   8.850   4.309
 2064TIP3    H1 6069   6.492   8.913   4.341
 2064TIP3    H2 6070   6.368   8.902   4.254
 2065TIP3   OH2 6071   5.541   0.846   1.114
 2065TIP3    H1 6072   5.472   0.882   1.169
 2065TIP3    H2 6073   5.619   0.845   1.170
 2066TIP3   OH2 6074   4.013   4.304   0.987
 2066TIP3    H1 6075   3.984   4.367   0.921
 2066TIP3    H2 6076   4.083   4.255   0.944
 2067TIP3   OH2 6077   8.648   2.452   4.555
 2067TIP3    H1 6078   8.728   2.504   4.562
 2067TIP3    H2 6079   8.622   2.461   4.463
 2068TIP3   OH2 6080   4.613   5.538   4.968
 2068TIP3    H1 6081   4.623   5.455   4.921
 2068TIP3    H2 6082   4.572   5.597   4.904
 2069TIP3   OH2 6083   5.783   4.264   0.250
 2069TIP3    H1 6084   5.806   4.248   0.342
 2069TIP3    H2 6085   5.854   4.223   0.200
 2070TIP3   OH2 6086   0.922   3.153   1.966
 2070TIP3    H1 6087   0.957   3.128   2.051
 2070TIP3    H2 6088   0.962   3.090   1.905
 2071TIP3   OH2 6089   5.727   7.730   7.288
 2071TIP3    H1 6090   5.779   7.656   7.320
 2071TIP3    H2 6091   5.637   7.695   7.284
 2072TIP3   OH2 6092   6.373   8.438   1.767
 2072TIP3    H1 6093   6.450   8.430   1.710
 2072TIP3    H2 6094   6.306   8.478   1.712
 2073TIP3   OH2 6095   0.165   2.351   5.373
 2073TIP3    H1 6096   0.070   2.335   5.373
 2073TIP3    H2 6097   0.197   2.298   5.446
 2074TIP3   OH2 6098   0.214   0.131   3.536
 2074TIP3    H1 6099   0.174   0.170   3.613
 2074TIP3    H2 6100   0.178   0.180   3.462
 2075TIP3   OH2 6101   8.028   0.854   7.802
 2075TIP3    H1 6102   8.023   0.857   7.897
 2075TIP3    H2 6103   8.007   0.943   7.774
 2076TIP3   OH2 6104   9.067   2.267   6.491
 2076TIP3    H1 6105   9.087   2.359   6.472
 2076TIP3    H2 6106   9.009   2.240   6.419
 2077TIP3   OH2 6107   4.310   0.435   1.971
 2077TIP3    H1 6108   4.374   0.371   1.940
 2077TIP3    H2 6109   4.302   0.498   1.899
 2078TIP3   OH2 6110   2.091   4.714   1.528
 2078TIP3    H1 6111   2.119   4.645   1.588
 2078TIP3    H2 6112   2.017   4.756   1.572
 2079TIP3   OH2 6113   2.550   4.495   6.652
 2079TIP3    H1 6114   2.554   4.574   6.598
 2079TIP3    H2 6115   2.617   4.437   6.615
 2080TIP3   OH2 6116   5.787   0.818   5.482
 2080TIP3    H1 6117   5.852   0.781   5.422
 2080TIP3    H2 6118   5.830   0.817   5.567
 2081TIP3   OH2 6119   8.096   7.840   4.611
 2081TIP3    H1 6120   8.180   7.883   4.602
 2081TIP3    H2 6121   8.046   7.866   4.534
 2082TIP3   OH2 6122   9.376   5.478   7.701
 2082TIP3    H1 6123   9.398   5.428   7.623
 2082TIP3    H2 6124   9.281   5.492   7.695
 2083TIP3   OH2 6125   4.679   1.820   5.918
 2083TIP3    H1 6126   4.657   1.816   5.825
 2083TIP3    H2 6127   4.610   1.875   5.956
 2084TIP3   OH2 6128   5.474   8.701   4.152
 2084TIP3    H1 6129   5.501   8.667   4.066
 2084TIP3    H2 6130   5.379   8.710   4.145
 2085TIP3   OH2 6131   3.261   2.195   5.479
 2085TIP3    H1 6132   3.329   2.228   5.538
 2085TIP3    H2 6133   3.302   2.121   5.434
 2086TIP3   OH2 6134   6.368   3.572   2.867
 2086TIP3    H1 6135   6.325   3.486   2.865
 2086TIP3    H2 6136   6.443   3.560   2.924
 2087TIP3   OH2 6137   1.901   2.873   0.163
 2087TIP3    H1 6138   1.864   2.885   0.250
 2087TIP3    H2 6139   1.866   2.947   0.112
 2088TIP3   OH2 6140   4.739   6.102   4.388
 2088TIP3    H1 6141   4.666   6.102   4.326
 2088TIP3    H2 6142   4.809   6.148   4.342
 2089TIP3   OH2 6143   0.106   5.285   3.122
 2089TIP3    H1 6144   0.147   5.318   3.202
 2089TIP3    H2 6145   0.080   5.364   3.074
 2090TIP3   OH2 6146   5.654   7.285   1.759
 2090TIP3    H1 6147   5.655   7.267   1.853
 2090TIP3    H2 6148   5.578   7.236   1.726
 2091TIP3   OH2 6149   8.262   1.237   7.140
 2091TIP3    H1 6150   8.280   1.302   7.208
 2091TIP3    H2 6151   8.286   1.153   7.180
 2092TIP3   OH2 6152   8.092   2.420   5.382
 2092TIP3    H1 6153   8.120   2.336   5.344
 2092TIP3    H2 6154   8.099   2.483   5.311
 2093TIP3   OH2 6155   4.880   0.721   7.517
 2093TIP3    H1 6156   4.903   0.813   7.528
 2093TIP3    H2 6157   4.963   0.674   7.522
 2094TIP3   OH2 6158   4.668   8.711   7.571
 2094TIP3    H1 6159   4.693   8.715   7.663
 2094TIP3    H2 6160   4.715   8.784   7.530
 2095TIP3   OH2 6161   7.445   1.109   6.743
 2095TIP3    H1 6162   7.492   1.099   6.660
 2095TIP3    H2 6163   7.500   1.063   6.807
 2096TIP3   OH2 6164   6.087   8.755   4.628
 2096TIP3    H1 6165   6.164   8.721   4.583
 2096TIP3    H2 6166   6.013   8.714   4.584
 2097TIP3   OH2 6167   8.109   3.188   0.336
 2097TIP3    H1 6168   8.158   3.161   0.414
 2097TIP3    H2 6169   8.088   3.105   0.291
 2098TIP3   OH2 6170   0.705   2.723   3.855
 2098TIP3    H1 6171   0.652   2.781   3.910
 2098TIP3    H2 6172   0.794   2.734   3.887
 2099TIP3   OH2 6173   1.438   5.830   3.931
 2099TIP3    H1 6174   1.429   5.803   4.023
 2099TIP3    H2 6175   1.364   5.789   3.887
 2100TIP3   OH2 6176   3.545   3.141   6.183
 2100TIP3    H1 6177   3.536   3.225   6.138
 2100TIP3    H2 6178   3.605   3.159   6.255
 2101TIP3   OH2 6179   4.837   6.969   7.108
 2101TIP3    H1 6180   4.791   6.936   7.031
 2101TIP3    H2 6181   4.807   7.059   7.117
 2102TIP3   OH2 6182   0.520   3.961   7.616
 2102TIP3    H1 6183   0.499   4.041   7.664
 2102TIP3    H2 6184   0.602   3.930   7.656
 2103TIP3   OH2 6185   0.087   2.429   3.250
 2103TIP3    H1 6186   0.077   2.514   3.206
 2103TIP3    H2 6187   0.142   2.448   3.326
 2104TIP3   OH2 6188   4.074   6.956   7.563
 2104TIP3    H1 6189   4.160   6.983   7.598
 2104TIP3    H2 6190   4.093   6.920   7.477
 2105TIP3   OH2 6191   6.380   5.146   6.808
 2105TIP3    H1 6192   6.444   5.075   6.808
 2105TIP3    H2 6193   6.419   5.214   6.754
 2106TIP3   OH2 6194   0.245   1.467   1.444
 2106TIP3    H1 6195   0.298   1.533   1.400
 2106TIP3    H2 6196   0.296   1.444   1.522
 2107TIP3   OH2 6197   7.159   8.005   1.944
 2107TIP3    H1 6198   7.175   7.924   1.894
 2107TIP3    H2 6199   7.200   8.074   1.890
 2108TIP3   OH2 6200   2.906   3.585   6.377
 2108TIP3    H1 6201   2.961   3.508   6.393
 2108TIP3    H2 6202   2.817   3.552   6.384
 2109TIP3   OH2 6203   3.780   1.524   2.676
 2109TIP3    H1 6204   3.692   1.540   2.641
 2109TIP3    H2 6205   3.788   1.429   2.678
 2110TIP3   OH2 6206   6.829   7.868   2.200
 2110TIP3    H1 6207   6.855   7.778   2.180
 2110TIP3    H2 6208   6.794   7.902   2.118
 2111TIP3   OH2 6209   1.661   1.283   5.840
 2111TIP3    H1 6210   1.592   1.248   5.784
 2111TIP3    H2 6211   1.674   1.372   5.809
 2112TIP3   OH2 6212   4.831   2.571   3.402
 2112TIP3    H1 6213   4.867   2.653   3.436
 2112TIP3    H2 6214   4.737   2.589   3.393
 2113TIP3   OH2 6215   8.235   1.566   0.643
 2113TIP3    H1 6216   8.255   1.560   0.737
 2113TIP3    H2 6217   8.167   1.633   0.637
 2114TIP3   OH2 6218   6.940   0.764   3.687
 2114TIP3    H1 6219   6.850   0.745   3.716
 2114TIP3    H2 6220   6.931   0.788   3.595
 2115TIP3   OH2 6221   0.139   6.965   7.399
 2115TIP3    H1 6222   0.206   6.910   7.359
 2115TIP3    H2 6223   0.181   7.051   7.407
 2116TIP3   OH2 6224   4.472   4.448   3.809
 2116TIP3    H1 6225   4.415   4.372   3.800
 2116TIP3    H2 6226   4.508   4.462   3.721
 2117TIP3   OH2 6227   0.806   6.653   6.199
 2117TIP3    H1 6228   0.851   6.717   6.144
 2117TIP3    H2 6229   0.719   6.643   6.159
 2118TIP3   OH2 6230   5.505   3.087   1.330
 2118TIP3    H1 6231   5.563   3.109   1.402
 2118TIP3    H2 6232   5.454   3.167   1.314
 2119TIP3   OH2 6233   1.159   2.432   4.160
 2119TIP3    H1 6234   1.078   2.381   4.162
 2119TIP3    H2 6235   1.161   2.471   4.073
 2120TIP3   OH2 6236   0.995   8.914   5.599
 2120TIP3    H1 6237   1.059   8.933   5.530
 2120TIP3    H2 6238   1.039   8.853   5.657
 2121TIP3   OH2 6239   0.076   7.047   3.983
 2121TIP3    H1 6240   0.152   7.064   4.039
 2121TIP3    H2 6241   0.108   6.985   3.917
 2122TIP3   OH2 6242   6.204   4.210   1.618
 2122TIP3    H1 6243   6.145   4.286   1.613
 2122TIP3    H2 6244   6.197   4.181   1.709
 2123TIP3   OH2 6245   7.844   1.563   3.763
 2123TIP3    H1 6246   7.895   1.557   3.681
 2123TIP3    H2 6247   7.901   1.523   3.829
 2124TIP3   OH2 6248   0.742   6.289   1.046
 2124TIP3    H1 6249   0.779   6.278   0.959
 2124TIP3    H2 6250   0.653   6.323   1.030
 2125TIP3   OH2 6251   0.348   4.800   0.272
 2125TIP3    H1 6252   0.389   4.826   0.355
 2125TIP3    H2 6253   0.391   4.718   0.250
 2126TIP3   OH2 6254   5.759   8.887   1.252
 2126TIP3    H1 6255   5.804   8.963   1.216
 2126TIP3    H2 6256   5.723   8.918   1.336
 2127TIP3   OH2 6257   0.209   5.997   3.160
 2127TIP3    H1 6258   0.251   6.035   3.238
 2127TIP3    H2 6259   0.274   6.008   3.091
 2128TIP3   OH2 6260   0.659   7.024   6.217
 2128TIP3    H1 6261   0.641   7.112   6.251
 2128TIP3    H2 6262   0.705   6.980   6.288
 2129TIP3   OH2 6263   1.730   5.614   3.853
 2129TIP3    H1 6264   1.783   5.694   3.859
 2129TIP3    H2 6265   1.641   5.644   3.870
 2130TIP3   OH2 6266   3.176   1.559   4.088
 2130TIP3    H1 6267   3.214   1.537   4.174
 2130TIP3    H2 6268   3.190   1.480   4.036
 2131TIP3   OH2 6269   4.550   7.409   1.992
 2131TIP3    H1 6270   4.583   7.453   1.914
 2131TIP3    H2 6271   4.495   7.474   2.035
 2132TIP3   OH2 6272   1.097   7.577   7.357
 2132TIP3    H1 6273   1.019   7.625   7.385
 2132TIP3    H2 6274   1.124   7.527   7.434
 2133TIP3   OH2 6275   1.146   1.503   4.505
 2133TIP3    H1 6276   1.053   1.505   4.526
 2133TIP3    H2 6277   1.186   1.457   4.579
 2134TIP3   OH2 6278   4.511   6.954   3.678
 2134TIP3    H1 6279   4.604   6.955   3.702
 2134TIP3    H2 6280   4.478   7.038   3.707
 2135TIP3   OH2 6281   5.371   8.040   5.630
 2135TIP3    H1 6282   5.283   8.055   5.596
 2135TIP3    H2 6283   5.375   8.093   5.710
 2136TIP3   OH2 6284   0.408   0.463   2.553
 2136TIP3    H1 6285   0.458   0.512   2.487
 2136TIP3    H2 6286   0.396   0.377   2.514
 2137TIP3   OH2 6287   3.301   3.189   2.412
 2137TIP3    H1 6288   3.269   3.237   2.335
 2137TIP3    H2 6289   3.222   3.166   2.460
 2138TIP3   OH2 6290   6.347   3.245   3.508
 2138TIP3    H1 6291   6.386   3.170   3.462
 2138TIP3    H2 6292   6.284   3.206   3.569
 2139TIP3   OH2 6293   7.012   8.528   5.285
 2139TIP3    H1 6294   6.973   8.443   5.265
 2139TIP3    H2 6295   7.044   8.560   5.200
 2140TIP3   OH2 6296   3.603   5.770   2.584
 2140TIP3    H1 6297   3.650   5.832   2.640
 2140TIP3    H2 6298   3.512   5.799   2.586
 2141TIP3   OH2 6299   7.407   8.193   6.918
 2141TIP3    H1 6300   7.359   8.222   6.841
 2141TIP3    H2 6301   7.462   8.121   6.886
 2142TIP3   OH2 6302   0.219   3.728   3.085
 2142TIP3    H1 6303   0.200   3.635   3.102
 2142TIP3    H2 6304   0.213   3.770   3.171
 2143TIP3   OH2 6305   3.417   5.005   1.782
 2143TIP3    H1 6306   3.466   4.924   1.799
 2143TIP3    H2 6307   3.325   4.977   1.777
 2144TIP3   OH2 6308   2.014   0.992   6.327
 2144TIP3    H1 6309   2.024   1.054   6.399
 2144TIP3    H2 6310   2.040   1.041   6.249
 2145TIP3   OH2 6311   5.887   4.464   3.881
 2145TIP3    H1 6312   5.817   4.437   3.940
 2145TIP3    H2 6313   5.852   4.450   3.793
 2146TIP3   OH2 6314   0.817   1.304   5.515
 2146TIP3    H1 6315   0.903   1.322   5.555
 2146TIP3    H2 6316   0.806   1.373   5.450
 2147TIP3   OH2 6317   8.428   5.827   4.260
 2147TIP3    H1 6318   8.505   5.788   4.301
 2147TIP3    H2 6319   8.389   5.883   4.328
 2148TIP3   OH2 6320   0.645   6.710   1.325
 2148TIP3    H1 6321   0.674   6.629   1.283
 2148TIP3    H2 6322   0.711   6.775   1.301
 2149TIP3   OH2 6323   5.964   3.679   2.116
 2149TIP3    H1 6324   5.898   3.716   2.057
 2149TIP3    H2 6325   5.929   3.694   2.204
 2150TIP3   OH2 6326   8.989   8.139   3.468
 2150TIP3    H1 6327   9.048   8.084   3.519
 2150TIP3    H2 6328   8.940   8.188   3.534
 2151TIP3   OH2 6329   3.284   0.937   1.201
 2151TIP3    H1 6330   3.245   1.021   1.225
 2151TIP3    H2 6331   3.247   0.875   1.265
 2152TIP3   OH2 6332   1.144   5.749   0.240
 2152TIP3    H1 6333   1.213   5.737   0.175
 2152TIP3    H2 6334   1.172   5.696   0.315
 2153TIP3   OH2 6335   3.042   0.097   0.243
 2153TIP3    H1 6336   3.109   0.051   0.192
 2153TIP3    H2 6337   2.968   0.036   0.245
 2154TIP3   OH2 6338   5.459   6.206   6.850
 2154TIP3    H1 6339   5.484   6.201   6.757
 2154TIP3    H2 6340   5.537   6.177   6.897
 2155TIP3   OH2 6341   7.680   7.392   4.481
 2155TIP3    H1 6342   7.675   7.461   4.546
 2155TIP3    H2 6343   7.633   7.426   4.405
 2156TIP3   OH2 6344   3.719   8.065   4.997
 2156TIP3    H1 6345   3.749   7.999   4.935
 2156TIP3    H2 6346   3.797   8.117   5.016
 2157TIP3   OH2 6347   4.891   2.285   5.118
 2157TIP3    H1 6348   4.804   2.283   5.159
 2157TIP3    H2 6349   4.877   2.255   5.029
 2158TIP3   OH2 6350   8.181   4.239   3.744
 2158TIP3    H1 6351   8.099   4.267   3.785
 2158TIP3    H2 6352   8.155   4.203   3.659
 2159TIP3   OH2 6353   0.986   0.706   0.399
 2159TIP3    H1 6354   0.953   0.729   0.312
 2159TIP3    H2 6355   0.927   0.637   0.430
 2160TIP3   OH2 6356   3.763   7.450   3.939
 2160TIP3    H1 6357   3.820   7.400   3.997
 2160TIP3    H2 6358   3.754   7.535   3.981
 2161TIP3   OH2 6359   4.255   8.618   1.015
 2161TIP3    H1 6360   4.246   8.524   0.999
 2161TIP3    H2 6361   4.202   8.636   1.092
 2162TIP3   OH2 6362   0.016   3.331   3.276
 2162TIP3    H1 6363  -0.025   3.266   3.219
 2162TIP3    H2 6364   0.105   3.340   3.242
 2163TIP3   OH2 6365   2.976   4.461   2.987
 2163TIP3    H1 6366   2.922   4.427   2.916
 2163TIP3    H2 6367   2.984   4.555   2.969
 2164TIP3   OH2 6368   7.717   6.537   2.411
 2164TIP3    H1 6369   7.743   6.629   2.414
 2164TIP3    H2 6370   7.787   6.494   2.362
 2165TIP3   OH2 6371   9.071   8.094   1.880
 2165TIP3    H1 6372   9.027   8.153   1.819
 2165TIP3    H2 6373   9.003   8.032   1.906
 2166TIP3   OH2 6374   0.381   3.777   2.125
 2166TIP3    H1 6375   0.351   3.807   2.039
 2166TIP3    H2 6376   0.420   3.855   2.165
 2167TIP3   OH2 6377   6.702   6.906   6.856
 2167TIP3    H1 6378   6.699   6.811   6.860
 2167TIP3    H2 6379   6.622   6.935   6.900
 2168TIP3   OH2 6380   4.691   2.877   6.494
 2168TIP3    H1 6381   4.649   2.838   6.572
 2168TIP3    H2 6382   4.784   2.857   6.505
 2169TIP3   OH2 6383   7.134   8.020   3.284
 2169TIP3    H1 6384   7.139   7.943   3.340
 2169TIP3    H2 6385   7.067   8.075   3.324
 2170TIP3   OH2 6386   5.353   7.747   0.077
 2170TIP3    H1 6387   5.273   7.748   0.129
 2170TIP3    H2 6388   5.392   7.662   0.094
 2171TIP3   OH2 6389   4.262   7.323   0.861
 2171TIP3    H1 6390   4.341   7.272   0.850
 2171TIP3    H2 6391   4.278   7.375   0.940
 2172TIP3   OH2 6392   3.302   6.966   0.494
 2172TIP3    H1 6393   3.370   6.999   0.435
 2172TIP3    H2 6394   3.257   7.045   0.525
 2173TIP3   OH2 6395   6.020   5.435   4.363
 2173TIP3    H1 6396   6.011   5.376   4.438
 2173TIP3    H2 6397   6.041   5.520   4.401
 2174TIP3   OH2 6398   7.490   0.087   1.103
 2174TIP3    H1 6399   7.511   0.120   1.190
 2174TIP3    H2 6400   7.395   0.071   1.107
 2175TIP3   OH2 6401   5.334   3.477   2.202
 2175TIP3    H1 6402   5.261   3.430   2.162
 2175TIP3    H2 6403   5.353   3.548   2.142
 2176TIP3   OH2 6404   7.863   8.503   5.923
 2176TIP3    H1 6405   7.911   8.443   5.866
 2176TIP3    H2 6406   7.798   8.448   5.967
 2177TIP3   OH2 6407   0.313   0.770   0.893
 2177TIP3    H1 6408   0.342   0.692   0.845
 2177TIP3    H2 6409   0.218   0.765   0.892
 2178TIP3   OH2 6410   6.616   5.720   6.675
 2178TIP3    H1 6411   6.702   5.729   6.634
 2178TIP3    H2 6412   6.565   5.666   6.614
 2179TIP3   OH2 6413   7.040   0.603   1.381
 2179TIP3    H1 6414   7.050   0.692   1.347
 2179TIP3    H2 6415   7.024   0.615   1.474
 2180TIP3   OH2 6416   8.477   7.430   5.123
 2180TIP3    H1 6417   8.449   7.410   5.212
 2180TIP3    H2 6418   8.518   7.516   5.129
 2181TIP3   OH2 6419   5.619   7.819   3.328
 2181TIP3    H1 6420   5.531   7.782   3.328
 2181TIP3    H2 6421   5.651   7.804   3.239
 2182TIP3   OH2 6422   8.479   6.545   1.273
 2182TIP3    H1 6423   8.397   6.505   1.304
 2182TIP3    H2 6424   8.545   6.476   1.285
 2183TIP3   OH2 6425   1.675   1.350   3.742
 2183TIP3    H1 6426   1.609   1.280   3.748
 2183TIP3    H2 6427   1.717   1.351   3.828
 2184TIP3   OH2 6428   1.850   5.180   0.186
 2184TIP3    H1 6429   1.913   5.176   0.114
 2184TIP3    H2 6430   1.863   5.267   0.224
 2185TIP3   OH2 6431   9.302   0.343   3.960
 2185TIP3    H1 6432   9.313   0.427   4.005
 2185TIP3    H2 6433   9.290   0.279   4.030
 2186TIP3   OH2 6434   8.345   3.863   3.335
 2186TIP3    H1 6435   8.364   3.917   3.412
 2186TIP3    H2 6436   8.385   3.910   3.262
 2187TIP3   OH2 6437   1.014   0.905   5.366
 2187TIP3    H1 6438   0.955   0.944   5.430
 2187TIP3    H2 6439   1.068   0.979   5.336
 2188TIP3   OH2 6440   4.872   6.714   6.942
 2188TIP3    H1 6441   4.858   6.667   7.024
 2188TIP3    H2 6442   4.785   6.717   6.902
 2189TIP3   OH2 6443   4.806   8.701   2.670
 2189TIP3    H1 6444   4.759   8.780   2.694
 2189TIP3    H2 6445   4.898   8.722   2.684
 2190TIP3   OH2 6446   7.086   5.154   7.631
 2190TIP3    H1 6447   7.114   5.076   7.583
 2190TIP3    H2 6448   7.168   5.196   7.657
 2191TIP3   OH2 6449   8.186   7.665   4.326
 2191TIP3    H1 6450   8.181   7.571   4.341
 2191TIP3    H2 6451   8.278   7.682   4.310
 2192TIP3   OH2 6452   2.772   8.033   2.688
 2192TIP3    H1 6453   2.813   8.050   2.773
 2192TIP3    H2 6454   2.750   8.120   2.655
 2193TIP3   OH2 6455   2.270   8.800   3.020
 2193TIP3    H1 6456   2.331   8.728   3.031
 2193TIP3    H2 6457   2.314   8.859   2.959
 2194TIP3   OH2 6458   0.957   4.082   1.922
 2194TIP3    H1 6459   0.978   3.997   1.960
 2194TIP3    H2 6460   0.973   4.145   1.993
 2195TIP3   OH2 6461   6.899   7.987   4.344
 2195TIP3    H1 6462   6.970   7.998   4.281
 2195TIP3    H2 6463   6.906   8.065   4.400
 2196TIP3   OH2 6464   0.211   8.423   0.182
 2196TIP3    H1 6465   0.287   8.398   0.130
 2196TIP3    H2 6466   0.224   8.379   0.266
 2197TIP3   OH2 6467   2.416   8.204   3.428
 2197TIP3    H1 6468   2.394   8.275   3.368
 2197TIP3    H2 6469   2.345   8.141   3.419
 2198TIP3   OH2 6470   8.300   2.064   1.405
 2198TIP3    H1 6471   8.236   2.133   1.388
 2198TIP3    H2 6472   8.374   2.109   1.445
 2199TIP3   OH2 6473   7.032   0.414   2.330
 2199TIP3    H1 6474   6.961   0.370   2.283
 2199TIP3    H2 6475   7.059   0.485   2.271
 2200TIP3   OH2 6476   8.654   3.094   0.955
 2200TIP3    H1 6477   8.723   3.044   0.998
 2200TIP3    H2 6478   8.578   3.036   0.956
 2201TIP3   OH2 6479   3.792   2.950   2.508
 2201TIP3    H1 6480   3.738   2.960   2.586
 2201TIP3    H2 6481   3.810   3.040   2.480
 2202TIP3   OH2 6482   4.021   4.862   1.103
 2202TIP3    H1 6483   3.993   4.771   1.104
 2202TIP3    H2 6484   3.947   4.910   1.068
 2203TIP3   OH2 6485   7.249   6.373   0.739
 2203TIP3    H1 6486   7.175   6.318   0.766
 2203TIP3    H2 6487   7.298   6.390   0.819
 2204TIP3   OH2 6488   7.160   6.059   6.017
 2204TIP3    H1 6489   7.220   6.126   6.049
 2204TIP3    H2 6490   7.149   6.079   5.924
 2205TIP3   OH2 6491   4.866   8.665   0.459
 2205TIP3    H1 6492   4.842   8.601   0.392
 2205TIP3    H2 6493   4.902   8.739   0.410
 2206TIP3   OH2 6494   7.965   0.853   6.970
 2206TIP3    H1 6495   7.934   0.932   6.925
 2206TIP3    H2 6496   7.952   0.872   7.063
 2207TIP3   OH2 6497   8.374   1.400   4.445
 2207TIP3    H1 6498   8.300   1.379   4.388
 2207TIP3    H2 6499   8.358   1.490   4.473
 2208TIP3   OH2 6500   8.074   6.616   0.379
 2208TIP3    H1 6501   8.049   6.658   0.461
 2208TIP3    H2 6502   8.106   6.529   0.406
 2209TIP3   OH2 6503   2.552   8.549   7.336
 2209TIP3    H1 6504   2.546   8.641   7.309
 2209TIP3    H2 6505   2.567   8.501   7.255
 2210TIP3   OH2 6506   9.004   0.704   2.079
 2210TIP3    H1 6507   9.080   0.763   2.078
 2210TIP3    H2 6508   9.030   0.632   2.136
 2211TIP3   OH2 6509   0.682   6.498   4.196
 2211TIP3    H1 6510   0.760   6.469   4.243
 2211TIP3    H2 6511   0.653   6.576   4.244
 2212TIP3   OH2 6512   1.724   2.539   3.785
 2212TIP3    H1 6513   1.657   2.600   3.817
 2212TIP3    H2 6514   1.805   2.569   3.827
 2213TIP3   OH2 6515   4.311   7.491   5.217
 2213TIP3    H1 6516   4.382   7.441   5.178
 2213TIP3    H2 6517   4.235   7.433   5.212
 2214TIP3   OH2 6518   4.770   6.458   4.003
 2214TIP3    H1 6519   4.839   6.422   4.060
 2214TIP3    H2 6520   4.723   6.381   3.971
 2215TIP3   OH2 6521   8.580   3.957   3.097
 2215TIP3    H1 6522   8.599   4.039   3.143
 2215TIP3    H2 6523   8.531   3.984   3.020
 2216TIP3   OH2 6524   3.413   5.401   0.198
 2216TIP3    H1 6525   3.480   5.437   0.140
 2216TIP3    H2 6526   3.443   5.312   0.216
 2217TIP3   OH2 6527   8.773   8.513   6.874
 2217TIP3    H1 6528   8.840   8.570   6.911
 2217TIP3    H2 6529   8.740   8.462   6.948
 2218TIP3   OH2 6530   1.383   6.523   7.425
 2218TIP3    H1 6531   1.380   6.464   7.349
 2218TIP3    H2 6532   1.327   6.597   7.400
 2219TIP3   OH2 6533   9.474   0.099   2.391
 2219TIP3    H1 6534   9.524   0.030   2.434
 2219TIP3    H2 6535   9.518   0.180   2.418
 2220TIP3   OH2 6536   3.069   0.704   1.959
 2220TIP3    H1 6537   3.004   0.635   1.975
 2220TIP3    H2 6538   3.149   0.657   1.934
 2221TIP3   OH2 6539   0.691   0.865   2.919
 2221TIP3    H1 6540   0.721   0.936   2.864
 2221TIP3    H2 6541   0.613   0.899   2.963
 2222TIP3   OH2 6542   9.105   6.913   7.507
 2222TIP3    H1 6543   9.190   6.898   7.466
 2222TIP3    H2 6544   9.058   6.969   7.447
 2223TIP3   OH2 6545   1.219   5.208   1.523
 2223TIP3    H1 6546   1.308   5.241   1.538
 2223TIP3    H2 6547   1.162   5.281   1.548
 2224TIP3   OH2 6548   6.406   5.127   2.918
 2224TIP3    H1 6549   6.336   5.162   2.972
 2224TIP3    H2 6550   6.487   5.157   2.959
 2225TIP3   OH2 6551   5.941   0.551   4.915
 2225TIP3    H1 6552   6.032   0.523   4.904
 2225TIP3    H2 6553   5.915   0.582   4.829
 2226TIP3   OH2 6554   3.793   6.780   2.391
 2226TIP3    H1 6555   3.850   6.851   2.360
 2226TIP3    H2 6556   3.711   6.794   2.343
 2227TIP3   OH2 6557   1.718   0.718   5.245
 2227TIP3    H1 6558   1.716   0.775   5.168
 2227TIP3    H2 6559   1.791   0.752   5.298
 2228TIP3   OH2 6560   3.513   1.280   6.965
 2228TIP3    H1 6561   3.470   1.304   6.883
 2228TIP3    H2 6562   3.458   1.318   7.033
 2229TIP3   OH2 6563   1.872   8.694   6.551
 2229TIP3    H1 6564   1.813   8.730   6.485
 2229TIP3    H2 6565   1.913   8.619   6.509
 2230TIP3   OH2 6566   7.927   0.272   6.544
 2230TIP3    H1 6567   7.832   0.268   6.544
 2230TIP3    H2 6568   7.947   0.365   6.529
 2231TIP3   OH2 6569   6.363   7.246   0.759
 2231TIP3    H1 6570   6.340   7.238   0.667
 2231TIP3    H2 6571   6.369   7.341   0.774
 2232TIP3   OH2 6572   2.386   7.684   5.248
 2232TIP3    H1 6573   2.427   7.711   5.166
 2232TIP3    H2 6574   2.459   7.676   5.310
 2233TIP3   OH2 6575   4.936   2.667   2.637
 2233TIP3    H1 6576   4.917   2.575   2.656
 2233TIP3    H2 6577   4.876   2.716   2.693
 2234TIP3   OH2 6578   4.366   7.265   1.431
 2234TIP3    H1 6579   4.306   7.221   1.491
 2234TIP3    H2 6580   4.319   7.344   1.403
 2235TIP3   OH2 6581   5.190   2.857   0.806
 2235TIP3    H1 6582   5.252   2.898   0.867
 2235TIP3    H2 6583   5.108   2.905   0.820
 2236TIP3   OH2 6584   2.742   1.964   4.365
 2236TIP3    H1 6585   2.740   2.034   4.300
 2236TIP3    H2 6586   2.655   1.925   4.362
 2237TIP3   OH2 6587   7.712   2.379   0.279
 2237TIP3    H1 6588   7.751   2.339   0.201
 2237TIP3    H2 6589   7.762   2.460   0.290
 2238TIP3   OH2 6590   5.479   8.724   3.512
 2238TIP3    H1 6591   5.532   8.647   3.490
 2238TIP3    H2 6592   5.525   8.765   3.585
 2239TIP3   OH2 6593   2.286   4.648   1.982
 2239TIP3    H1 6594   2.323   4.571   1.938
 2239TIP3    H2 6595   2.228   4.687   1.917
 2240TIP3   OH2 6596   8.193   2.992   7.150
 2240TIP3    H1 6597   8.229   2.909   7.181
 2240TIP3    H2 6598   8.103   2.992   7.182
 2241TIP3   OH2 6599   7.642   5.468   7.404
 2241TIP3    H1 6600   7.647   5.496   7.312
 2241TIP3    H2 6601   7.563   5.509   7.437
 2242TIP3   OH2 6602   1.480   6.477   5.040
 2242TIP3    H1 6603   1.508   6.392   5.074
 2242TIP3    H2 6604   1.523   6.541   5.096
 2243TIP3   OH2 6605   8.097   8.496   7.701
 2243TIP3    H1 6606   8.124   8.434   7.633
 2243TIP3    H2 6607   8.165   8.564   7.699
 2244TIP3   OH2 6608   0.830   7.502   1.720
 2244TIP3    H1 6609   0.778   7.487   1.799
 2244TIP3    H2 6610   0.892   7.570   1.746
 2245TIP3   OH2 6611   8.358   6.368   4.344
 2245TIP3    H1 6612   8.276   6.417   4.335
 2245TIP3    H2 6613   8.333   6.276   4.336
 2246TIP3   OH2 6614   9.193   4.100   2.278
 2246TIP3    H1 6615   9.171   4.109   2.186
 2246TIP3    H2 6616   9.111   4.076   2.321
 2247TIP3   OH2 6617   7.130   1.893   4.898
 2247TIP3    H1 6618   7.057   1.883   4.959
 2247TIP3    H2 6619   7.092   1.932   4.820
 2248TIP3   OH2 6620   9.197   1.753   6.304
 2248TIP3    H1 6621   9.247   1.826   6.342
 2248TIP3    H2 6622   9.108   1.765   6.336
 2249TIP3   OH2 6623   9.163   6.321   6.340
 2249TIP3    H1 6624   9.085   6.376   6.340
 2249TIP3    H2 6625   9.168   6.287   6.251
 2250TIP3   OH2 6626   9.204   4.120   7.386
 2250TIP3    H1 6627   9.130   4.146   7.331
 2250TIP3    H2 6628   9.256   4.062   7.331
 2251TIP3   OH2 6629   1.755   3.510   7.119
 2251TIP3    H1 6630   1.708   3.427   7.114
 2251TIP3    H2 6631   1.840   3.488   7.157
 2252TIP3   OH2 6632   3.933   3.730   4.898
 2252TIP3    H1 6633   3.990   3.653   4.902
 2252TIP3    H2 6634   3.904   3.733   4.807
 2253TIP3   OH2 6635   7.623   8.542   4.136
 2253TIP3    H1 6636   7.641   8.450   4.117
 2253TIP3    H2 6637   7.693   8.590   4.090
 2254TIP3   OH2 6638   4.607   3.388   7.118
 2254TIP3    H1 6639   4.632   3.450   7.049
 2254TIP3    H2 6640   4.686   3.337   7.135
 2255TIP3   OH2 6641   2.880   0.663   2.931
 2255TIP3    H1 6642   2.923   0.728   2.986
 2255TIP3    H2 6643   2.787   0.668   2.957
 2256TIP3   OH2 6644   8.494   1.755   0.739
 2256TIP3    H1 6645   8.540   1.680   0.778
 2256TIP3    H2 6646   8.410   1.757   0.784
 2257TIP3   OH2 6647   1.339   2.478   7.627
 2257TIP3    H1 6648   1.347   2.563   7.584
 2257TIP3    H2 6649   1.284   2.427   7.568
 2258TIP3   OH2 6650   8.823   5.653   7.462
 2258TIP3    H1 6651   8.782   5.567   7.471
 2258TIP3    H2 6652   8.824   5.688   7.551
 2259TIP3   OH2 6653   4.604   5.069   3.420
 2259TIP3    H1 6654   4.694   5.100   3.413
 2259TIP3    H2 6655   4.575   5.100   3.506
 2260TIP3   OH2 6656   6.890   3.715   7.560
 2260TIP3    H1 6657   6.809   3.679   7.526
 2260TIP3    H2 6658   6.959   3.660   7.523
 2261TIP3   OH2 6659   7.437   6.077   0.229
 2261TIP3    H1 6660   7.478   6.145   0.282
 2261TIP3    H2 6661   7.499   6.061   0.158
 2262TIP3   OH2 6662   4.092   3.036   6.730
 2262TIP3    H1 6663   4.065   3.108   6.674
 2262TIP3    H2 6664   4.131   3.078   6.807
 2263TIP3   OH2 6665   7.705   0.073   3.693
 2263TIP3    H1 6666   7.787   0.040   3.656
 2263TIP3    H2 6667   7.732   0.119   3.773
 2264TIP3   OH2 6668   6.266   7.010   0.533
 2264TIP3    H1 6669   6.201   7.074   0.563
 2264TIP3    H2 6670   6.214   6.942   0.491
 2265TIP3   OH2 6671   0.656   8.032   6.645
 2265TIP3    H1 6672   0.734   8.048   6.698
 2265TIP3    H2 6673   0.689   7.986   6.567
 2266TIP3   OH2 6674   3.473   1.902   4.839
 2266TIP3    H1 6675   3.384   1.866   4.838
 2266TIP3    H2 6676   3.512   1.872   4.757
 2267TIP3   OH2 6677   7.288   8.043   1.526
 2267TIP3    H1 6678   7.219   8.003   1.580
 2267TIP3    H2 6679   7.326   7.970   1.478
 2268TIP3   OH2 6680   5.551   5.317   3.188
 2268TIP3    H1 6681   5.593   5.402   3.205
 2268TIP3    H2 6682   5.498   5.301   3.267
 2269TIP3   OH2 6683   1.168   6.578   3.700
 2269TIP3    H1 6684   1.250   6.576   3.749
 2269TIP3    H2 6685   1.167   6.497   3.650
 2270TIP3   OH2 6686   4.990   0.281   0.390
 2270TIP3    H1 6687   5.017   0.203   0.341
 2270TIP3    H2 6688   4.910   0.311   0.346
 2271TIP3   OH2 6689   1.383   4.509   2.196
 2271TIP3    H1 6690   1.457   4.561   2.225
 2271TIP3    H2 6691   1.415   4.419   2.197
 2272TIP3   OH2 6692   1.693   2.722   7.722
 2272TIP3    H1 6693   1.778   2.712   7.764
 2272TIP3    H2 6694   1.646   2.642   7.744
 2273TIP3   OH2 6695   4.095   3.508   2.089
 2273TIP3    H1 6696   4.019   3.473   2.041
 2273TIP3    H2 6697   4.071   3.598   2.110
 2274TIP3   OH2 6698   6.895   8.308   1.781
 2274TIP3    H1 6699   6.970   8.360   1.753
 2274TIP3    H2 6700   6.821   8.343   1.730
 2275TIP3   OH2 6701   6.802   5.665   3.191
 2275TIP3    H1 6702   6.736   5.733   3.203
 2275TIP3    H2 6703   6.755   5.583   3.203
 2276TIP3   OH2 6704   5.573   2.714   2.458
 2276TIP3    H1 6705   5.521   2.738   2.535
 2276TIP3    H2 6706   5.569   2.790   2.401
 2277TIP3   OH2 6707   2.859   5.233   5.269
 2277TIP3    H1 6708   2.786   5.215   5.210
 2277TIP3    H2 6709   2.920   5.161   5.254
 2278TIP3   OH2 6710   2.337   0.170   5.547
 2278TIP3    H1 6711   2.340   0.083   5.508
 2278TIP3    H2 6712   2.367   0.158   5.637
 2279TIP3   OH2 6713   5.469   7.131   6.581
 2279TIP3    H1 6714   5.541   7.142   6.643
 2279TIP3    H2 6715   5.390   7.136   6.634
 2280TIP3   OH2 6716   2.913   3.781   5.741
 2280TIP3    H1 6717   2.958   3.738   5.668
 2280TIP3    H2 6718   2.820   3.773   5.720
 2281TIP3   OH2 6719   0.164   0.063   0.858
 2281TIP3    H1 6720   0.139   0.142   0.810
 2281TIP3    H2 6721   0.122  -0.008   0.811
 2282TIP3   OH2 6722   2.608   8.895   0.699
 2282TIP3    H1 6723   2.524   8.872   0.660
 2282TIP3    H2 6724   2.589   8.970   0.755
 2283TIP3   OH2 6725   1.926   0.628   4.681
 2283TIP3    H1 6726   1.937   0.633   4.776
 2283TIP3    H2 6727   1.892   0.715   4.657
 2284TIP3   OH2 6728   2.691   4.294   6.412
 2284TIP3    H1 6729   2.595   4.291   6.416
 2284TIP3    H2 6730   2.712   4.257   6.326
 2285TIP3   OH2 6731   3.255   7.342   7.721
 2285TIP3    H1 6732   3.235   7.388   7.640
 2285TIP3    H2 6733   3.262   7.250   7.695
 2286TIP3   OH2 6734   7.662   6.837   5.183
 2286TIP3    H1 6735   7.645   6.756   5.232
 2286TIP3    H2 6736   7.575   6.869   5.159
 2287TIP3   OH2 6737   0.741   5.732   7.303
 2287TIP3    H1 6738   0.728   5.713   7.210
 2287TIP3    H2 6739   0.694   5.814   7.318
 2288TIP3   OH2 6740   8.439   3.182   7.701
 2288TIP3    H1 6741   8.491   3.261   7.715
 2288TIP3    H2 6742   8.391   3.200   7.620
 2289TIP3   OH2 6743   5.764   0.324   3.343
 2289TIP3    H1 6744   5.767   0.228   3.343
 2289TIP3    H2 6745   5.773   0.347   3.250
 2290TIP3   OH2 6746   1.853   3.043   1.498
 2290TIP3    H1 6747   1.839   3.053   1.404
 2290TIP3    H2 6748   1.773   3.076   1.538
 2291TIP3   OH2 6749   3.365   5.758   2.776
 2291TIP3    H1 6750   3.437   5.697   2.791
 2291TIP3    H2 6751   3.317   5.759   2.859
 2292TIP3   OH2 6752   5.582   4.354   0.929
 2292TIP3    H1 6753   5.557   4.356   0.837
 2292TIP3    H2 6754   5.643   4.280   0.936
 2293TIP3   OH2 6755   2.657   2.304   6.118
 2293TIP3    H1 6756   2.679   2.291   6.026
 2293TIP3    H2 6757   2.688   2.224   6.161
 2294TIP3   OH2 6758   1.552   3.258   5.786
 2294TIP3    H1 6759   1.509   3.173   5.772
 2294TIP3    H2 6760   1.552   3.269   5.882
 2295TIP3   OH2 6761   1.411   7.361   3.920
 2295TIP3    H1 6762   1.503   7.368   3.895
 2295TIP3    H2 6763   1.363   7.373   3.838
 2296TIP3   OH2 6764   0.790   8.084   6.041
 2296TIP3    H1 6765   0.730   8.035   6.096
 2296TIP3    H2 6766   0.788   8.173   6.076
 2297TIP3   OH2 6767   1.624   2.678   0.822
 2297TIP3    H1 6768   1.711   2.671   0.785
 2297TIP3    H2 6769   1.588   2.758   0.785
 2298TIP3   OH2 6770   3.014   5.305   6.744
 2298TIP3    H1 6771   2.938   5.264   6.704
 2298TIP3    H2 6772   2.992   5.311   6.837
 2299TIP3   OH2 6773   7.451   1.588   6.073
 2299TIP3    H1 6774   7.474   1.667   6.025
 2299TIP3    H2 6775   7.404   1.534   6.009
 2300TIP3   OH2 6776   8.558   8.119   2.439
 2300TIP3    H1 6777   8.550   8.117   2.344
 2300TIP3    H2 6778   8.626   8.184   2.456
 2301TIP3   OH2 6779   7.973   1.494   0.518
 2301TIP3    H1 6780   8.062   1.527   0.530
 2301TIP3    H2 6781   7.954   1.445   0.598
 2302TIP3   OH2 6782   5.734   3.140   0.958
 2302TIP3    H1 6783   5.782   3.186   0.890
 2302TIP3    H2 6784   5.746   3.193   1.037
 2303TIP3   OH2 6785   8.095   0.052   3.969
 2303TIP3    H1 6786   8.183   0.016   3.952
 2303TIP3    H2 6787   8.046  -0.022   4.005
 2304TIP3   OH2 6788   0.614   0.904   7.197
 2304TIP3    H1 6789   0.669   0.829   7.175
 2304TIP3    H2 6790   0.675   0.974   7.220
 2305TIP3   OH2 6791   5.243   8.568   5.545
 2305TIP3    H1 6792   5.191   8.587   5.623
 2305TIP3    H2 6793   5.229   8.642   5.487
 2306TIP3   OH2 6794   8.459   7.181   5.332
 2306TIP3    H1 6795   8.377   7.228   5.345
 2306TIP3    H2 6796   8.449   7.101   5.383
 2307TIP3   OH2 6797   8.103   0.326   7.580
 2307TIP3    H1 6798   8.125   0.241   7.620
 2307TIP3    H2 6799   8.123   0.314   7.487
 2308TIP3   OH2 6800   4.818   1.246   5.363
 2308TIP3    H1 6801   4.772   1.330   5.356
 2308TIP3    H2 6802   4.892   1.264   5.420
 2309TIP3   OH2 6803   0.576   1.297   2.046
 2309TIP3    H1 6804   0.579   1.207   2.015
 2309TIP3    H2 6805   0.501   1.335   2.000
 2310TIP3   OH2 6806   6.601   6.012   1.542
 2310TIP3    H1 6807   6.560   6.094   1.515
 2310TIP3    H2 6808   6.604   6.016   1.638
 2311TIP3   OH2 6809   8.811   6.853   3.684
 2311TIP3    H1 6810   8.891   6.805   3.708
 2311TIP3    H2 6811   8.835   6.900   3.604
 2312TIP3   OH2 6812   4.774   5.027   2.548
 2312TIP3    H1 6813   4.810   5.000   2.632
 2312TIP3    H2 6814   4.851   5.037   2.491
 2313TIP3   OH2 6815   3.670   8.347   5.023
 2313TIP3    H1 6816   3.655   8.254   5.041
 2313TIP3    H2 6817   3.609   8.393   5.081
 2314TIP3   OH2 6818   8.814   1.426   4.380
 2314TIP3    H1 6819   8.745   1.373   4.338
 2314TIP3    H2 6820   8.895   1.378   4.361
 2315TIP3   OH2 6821   4.269   5.709   5.472
 2315TIP3    H1 6822   4.230   5.630   5.509
 2315TIP3    H2 6823   4.216   5.781   5.506
 2316TIP3   OH2 6824   0.784   3.155   4.060
 2316TIP3    H1 6825   0.816   3.092   4.124
 2316TIP3    H2 6826   0.694   3.129   4.043
 2317TIP3   OH2 6827   2.256   5.116   4.274
 2317TIP3    H1 6828   2.330   5.176   4.269
 2317TIP3    H2 6829   2.179   5.171   4.257
 2318TIP3   OH2 6830   8.311   0.182   6.022
 2318TIP3    H1 6831   8.375   0.169   5.952
 2318TIP3    H2 6832   8.350   0.140   6.099
 2319TIP3   OH2 6833   5.771   6.304   5.964
 2319TIP3    H1 6834   5.841   6.239   5.961
 2319TIP3    H2 6835   5.691   6.253   5.966
 2320TIP3   OH2 6836   1.523   4.655   5.135
 2320TIP3    H1 6837   1.527   4.749   5.151
 2320TIP3    H2 6838   1.533   4.616   5.222
 2321TIP3   OH2 6839   8.171   2.824   3.993
 2321TIP3    H1 6840   8.102   2.872   3.948
 2321TIP3    H2 6841   8.158   2.733   3.967
 2322TIP3   OH2 6842   6.519   2.230   0.087
 2322TIP3    H1 6843   6.430   2.257   0.112
 2322TIP3    H2 6844   6.571   2.242   0.166
 2323TIP3   OH2 6845   8.015   8.752   1.118
 2323TIP3    H1 6846   7.985   8.666   1.090
 2323TIP3    H2 6847   8.108   8.753   1.097
 2324TIP3   OH2 6848   5.711   2.652   4.572
 2324TIP3    H1 6849   5.791   2.633   4.621
 2324TIP3    H2 6850   5.709   2.586   4.503
 2325TIP3   OH2 6851   2.427   7.159   3.124
 2325TIP3    H1 6852   2.368   7.127   3.193
 2325TIP3    H2 6853   2.373   7.219   3.073
 2326TIP3   OH2 6854   2.508   0.909   2.463
 2326TIP3    H1 6855   2.497   0.886   2.555
 2326TIP3    H2 6856   2.419   0.912   2.428
 2327TIP3   OH2 6857   9.376   0.613   3.938
 2327TIP3    H1 6858   9.391   0.576   3.851
 2327TIP3    H2 6859   9.426   0.695   3.937
 2328TIP3   OH2 6860   5.066   6.882   3.708
 2328TIP3    H1 6861   5.007   6.807   3.718
 2328TIP3    H2 6862   5.066   6.901   3.614
 2329TIP3   OH2 6863   6.388   4.759   3.888
 2329TIP3    H1 6864   6.336   4.708   3.826
 2329TIP3    H2 6865   6.425   4.694   3.948
 2330TIP3   OH2 6866   3.583   1.013   7.159
 2330TIP3    H1 6867   3.619   1.055   7.081
 2330TIP3    H2 6868   3.656   0.964   7.196
 2331TIP3   OH2 6869   1.807   7.031   0.014
 2331TIP3    H1 6870   1.744   7.049  -0.056
 2331TIP3    H2 6871   1.877   6.982  -0.029
 2332TIP3   OH2 6872   5.005   8.017   0.394
 2332TIP3    H1 6873   4.947   7.967   0.336
 2332TIP3    H2 6874   5.042   8.085   0.337
 2333TIP3   OH2 6875   6.618   8.600   2.565
 2333TIP3    H1 6876   6.671   8.546   2.624
 2333TIP3    H2 6877   6.586   8.671   2.620
 2334TIP3   OH2 6878   6.211   6.350   7.409
 2334TIP3    H1 6879   6.200   6.434   7.364
 2334TIP3    H2 6880   6.210   6.373   7.502
 2335TIP3   OH2 6881   9.170   2.419   3.753
 2335TIP3    H1 6882   9.091   2.452   3.710
 2335TIP3    H2 6883   9.138   2.353   3.815
 2336TIP3   OH2 6884   3.017   8.630   2.358
 2336TIP3    H1 6885   3.072   8.661   2.286
 2336TIP3    H2 6886   3.077   8.581   2.414
 2337TIP3   OH2 6887   2.364   4.632   0.986
 2337TIP3    H1 6888   2.394   4.566   0.923
 2337TIP3    H2 6889   2.408   4.712   0.961
 2338TIP3   OH2 6890   5.272   4.303   0.538
 2338TIP3    H1 6891   5.201   4.240   0.547
 2338TIP3    H2 6892   5.350   4.250   0.522
 2339TIP3   OH2 6893   9.141   2.465   4.431
 2339TIP3    H1 6894   9.226   2.479   4.473
 2339TIP3    H2 6895   9.161   2.445   4.340
 2340TIP3   OH2 6896   0.637   8.208   6.867
 2340TIP3    H1 6897   0.727   8.212   6.836
 2340TIP3    H2 6898   0.589   8.267   6.809
 2341TIP3   OH2 6899   2.721   6.286   2.222
 2341TIP3    H1 6900   2.637   6.331   2.224
 2341TIP3    H2 6901   2.712   6.216   2.288
 2342TIP3   OH2 6902   1.337   4.709   6.425
 2342TIP3    H1 6903   1.415   4.672   6.466
 2342TIP3    H2 6904   1.284   4.633   6.401
 2343TIP3   OH2 6905   2.503   2.712   5.347
 2343TIP3    H1 6906   2.528   2.796   5.309
 2343TIP3    H2 6907   2.484   2.656   5.272
 2344TIP3   OH2 6908   1.298   4.079   6.407
 2344TIP3    H1 6909   1.309   4.153   6.348
 2344TIP3    H2 6910   1.206   4.083   6.433
 2345TIP3   OH2 6911   4.165   1.299   7.552
 2345TIP3    H1 6912   4.079   1.327   7.522
 2345TIP3    H2 6913   4.207   1.263   7.474
 2346TIP3   OH2 6914   2.322   5.813   3.634
 2346TIP3    H1 6915   2.315   5.727   3.591
 2346TIP3    H2 6916   2.258   5.809   3.706
 2347TIP3   OH2 6917   2.133   4.655   2.217
 2347TIP3    H1 6918   2.189   4.598   2.165
 2347TIP3    H2 6919   2.159   4.744   2.193
 2348TIP3   OH2 6920   6.092   5.075   2.205
 2348TIP3    H1 6921   6.061   5.103   2.291
 2348TIP3    H2 6922   6.165   5.016   2.224
 2349TIP3   OH2 6923   1.751   3.882   5.990
 2349TIP3    H1 6924   1.685   3.848   6.051
 2349TIP3    H2 6925   1.729   3.974   5.979
 2350TIP3   OH2 6926   2.713   1.372   3.960
 2350TIP3    H1 6927   2.721   1.357   4.054
 2350TIP3    H2 6928   2.720   1.286   3.921
 2351TIP3   OH2 6929   0.819   6.945   2.410
 2351TIP3    H1 6930   0.842   6.964   2.501
 2351TIP3    H2 6931   0.898   6.909   2.372
 2352TIP3   OH2 6932   4.701   3.806   3.238
 2352TIP3    H1 6933   4.771   3.862   3.206
 2352TIP3    H2 6934   4.695   3.826   3.331
 2353TIP3   OH2 6935   2.287   8.816   0.929
 2353TIP3    H1 6936   2.336   8.896   0.910
 2353TIP3    H2 6937   2.212   8.819   0.870
 2354TIP3   OH2 6938   8.013   8.615   7.040
 2354TIP3    H1 6939   8.065   8.544   7.003
 2354TIP3    H2 6940   8.076   8.669   7.087
 2355TIP3   OH2 6941   7.789   1.888   6.539
 2355TIP3    H1 6942   7.800   1.923   6.628
 2355TIP3    H2 6943   7.715   1.938   6.503
 2356TIP3   OH2 6944   1.967   5.151   6.187
 2356TIP3    H1 6945   1.907   5.224   6.205
 2356TIP3    H2 6946   1.988   5.115   6.273
 2357TIP3   OH2 6947   1.095   6.650   2.626
 2357TIP3    H1 6948   1.163   6.712   2.599
 2357TIP3    H2 6949   1.133   6.605   2.701
 2358TIP3   OH2 6950   1.707   8.142   6.757
 2358TIP3    H1 6951   1.670   8.073   6.811
 2358TIP3    H2 6952   1.684   8.223   6.803
 2359TIP3   OH2 6953   5.146   3.255   3.879
 2359TIP3    H1 6954   5.202   3.214   3.945
 2359TIP3    H2 6955   5.058   3.250   3.914
 2360TIP3   OH2 6956   5.093   3.648   2.343
 2360TIP3    H1 6957   5.067   3.704   2.416
 2360TIP3    H2 6958   5.177   3.683   2.314
 2361TIP3   OH2 6959   8.508   1.348   3.975
 2361TIP3    H1 6960   8.575   1.410   4.005
 2361TIP3    H2 6961   8.506   1.360   3.880
 2362TIP3   OH2 6962   0.770   1.351   7.534
 2362TIP3    H1 6963   0.825   1.417   7.576
 2362TIP3    H2 6964   0.778   1.368   7.440
 2363TIP3   OH2 6965   0.609   8.740   7.405
 2363TIP3    H1 6966   0.594   8.654   7.365
 2363TIP3    H2 6967   0.541   8.749   7.471
 2364TIP3   OH2 6968   0.372   8.635   5.924
 2364TIP3    H1 6969   0.348   8.555   5.878
 2364TIP3    H2 6970   0.463   8.650   5.901
 2365TIP3   OH2 6971   5.497   4.864   4.986
 2365TIP3    H1 6972   5.450   4.821   4.915
 2365TIP3    H2 6973   5.468   4.955   4.983
 2366TIP3   OH2 6974   7.752   5.565   5.848
 2366TIP3    H1 6975   7.774   5.480   5.885
 2366TIP3    H2 6976   7.709   5.544   5.764
 2367TIP3   OH2 6977   0.925   0.027   6.958
 2367TIP3    H1 6978   0.843  -0.009   6.991
 2367TIP3    H2 6979   0.898   0.088   6.889
 2368TIP3   OH2 6980   2.825   1.884   0.209
 2368TIP3    H1 6981   2.807   1.966   0.254
 2368TIP3    H2 6982   2.750   1.828   0.230
 2369TIP3   OH2 6983   3.566   3.199   3.030
 2369TIP3    H1 6984   3.560   3.289   3.062
 2369TIP3    H2 6985   3.609   3.207   2.945
 2370TIP3   OH2 6986   2.582   2.241   4.568
 2370TIP3    H1 6987   2.657   2.295   4.592
 2370TIP3    H2 6988   2.566   2.262   4.476
 2371TIP3   OH2 6989   4.365   0.746   3.609
 2371TIP3    H1 6990   4.317   0.736   3.527
 2371TIP3    H2 6991   4.356   0.839   3.630
 2372TIP3   OH2 6992   7.465   8.471   1.163
 2372TIP3    H1 6993   7.557   8.475   1.191
 2372TIP3    H2 6994   7.469   8.438   1.073
 2373TIP3   OH2 6995   8.687   0.942   0.290
 2373TIP3    H1 6996   8.718   0.997   0.362
 2373TIP3    H2 6997   8.757   0.879   0.276
 2374TIP3   OH2 6998   6.935   8.741   1.542
 2374TIP3    H1 6999   6.852   8.693   1.531
 2374TIP3    H2 7000   6.956   8.773   1.455
 2375TIP3   OH2 7001   6.207   4.511   1.191
 2375TIP3    H1 7002   6.197   4.478   1.101
 2375TIP3    H2 7003   6.131   4.477   1.238
 2376TIP3   OH2 7004   4.501   0.098   6.088
 2376TIP3    H1 7005   4.591   0.123   6.066
 2376TIP3    H2 7006   4.450   0.176   6.067
 2377TIP3   OH2 7007   2.350   5.514   4.191
 2377TIP3    H1 7008   2.394   5.430   4.178
 2377TIP3    H2 7009   2.258   5.496   4.174
 2378TIP3   OH2 7010   4.497   0.868   2.927
 2378TIP3    H1 7011   4.484   0.797   2.990
 2378TIP3    H2 7012   4.418   0.866   2.873
 2379TIP3   OH2 7013   0.872   4.911   2.729
 2379TIP3    H1 7014   0.945   4.910   2.668
 2379TIP3    H2 7015   0.866   5.002   2.759
 2380TIP3   OH2 7016   0.829   7.699   0.231
 2380TIP3    H1 7017   0.878   7.728   0.155
 2380TIP3    H2 7018   0.846   7.766   0.298
 2381TIP3   OH2 7019   2.843   0.144   5.017
 2381TIP3    H1 7020   2.905   0.092   4.967
 2381TIP3    H2 7021   2.891   0.223   5.041
 2382TIP3   OH2 7022   3.322   4.892   5.352
 2382TIP3    H1 7023   3.356   4.975   5.385
 2382TIP3    H2 7024   3.283   4.850   5.429
 2383TIP3   OH2 7025   1.329   7.982   7.755
 2383TIP3    H1 7026   1.271   7.983   7.831
 2383TIP3    H2 7027   1.403   7.928   7.783
 2384TIP3   OH2 7028   0.818   7.527   0.858
 2384TIP3    H1 7029   0.777   7.576   0.786
 2384TIP3    H2 7030   0.890   7.582   0.886
 2385TIP3   OH2 7031   4.540   1.056   1.251
 2385TIP3    H1 7032   4.560   1.069   1.158
 2385TIP3    H2 7033   4.612   1.101   1.296
 2386TIP3   OH2 7034   2.652   4.043   1.649
 2386TIP3    H1 7035   2.703   4.061   1.728
 2386TIP3    H2 7036   2.567   4.013   1.682
 2387TIP3   OH2 7037   8.148   5.609   6.193
 2387TIP3    H1 7038   8.215   5.625   6.128
 2387TIP3    H2 7039   8.107   5.526   6.166
 2388TIP3   OH2 7040   4.763   6.250   7.052
 2388TIP3    H1 7041   4.787   6.168   7.010
 2388TIP3    H2 7042   4.779   6.317   6.986
 2389TIP3   OH2 7043   6.751   1.595   2.312
 2389TIP3    H1 7044   6.736   1.641   2.394
 2389TIP3    H2 7045   6.706   1.511   2.322
 2390TIP3   OH2 7046   6.970   4.133   7.005
 2390TIP3    H1 7047   6.961   4.226   7.025
 2390TIP3    H2 7048   6.999   4.093   7.087
 2391TIP3   OH2 7049   7.855   2.927   4.703
 2391TIP3    H1 7050   7.852   3.023   4.705
 2391TIP3    H2 7051   7.874   2.902   4.793
 2392TIP3   OH2 7052   2.801   6.655   4.384
 2392TIP3    H1 7053   2.831   6.735   4.341
 2392TIP3    H2 7054   2.851   6.585   4.341
 2393TIP3   OH2 7055   3.352   0.210   1.551
 2393TIP3    H1 7056   3.295   0.217   1.627
 2393TIP3    H2 7057   3.416   0.281   1.561
 2394TIP3   OH2 7058   4.340   8.031   5.662
 2394TIP3    H1 7059   4.315   8.061   5.749
 2394TIP3    H2 7060   4.378   7.944   5.676
 2395TIP3   OH2 7061   9.366   1.127   7.278
 2395TIP3    H1 7062   9.321   1.150   7.360
 2395TIP3    H2 7063   9.311   1.061   7.237
 2396TIP3   OH2 7064   5.631   5.240   4.429
 2396TIP3    H1 7065   5.654   5.310   4.369
 2396TIP3    H2 7066   5.706   5.180   4.426
 2397TIP3   OH2 7067   6.411   7.089   5.398
 2397TIP3    H1 7068   6.366   7.015   5.356
 2397TIP3    H2 7069   6.342   7.132   5.450
 2398TIP3   OH2 7070   6.985   6.899   6.109
 2398TIP3    H1 7071   6.990   6.902   6.204
 2398TIP3    H2 7072   7.010   6.987   6.080
 2399TIP3   OH2 7073   1.300   8.358   7.111
 2399TIP3    H1 7074   1.220   8.345   7.163
 2399TIP3    H2 7075   1.270   8.359   7.021
 2400TIP3   OH2 7076   2.303   5.682   4.520
 2400TIP3    H1 7077   2.216   5.720   4.530
 2400TIP3    H2 7078   2.288   5.593   4.490
 2401TIP3   OH2 7079   0.381   1.040   4.801
 2401TIP3    H1 7080   0.363   0.948   4.821
 2401TIP3    H2 7081   0.423   1.038   4.715
 2402TIP3   OH2 7082   7.264   2.058   3.934
 2402TIP3    H1 7083   7.322   2.012   3.873
 2402TIP3    H2 7084   7.297   2.035   4.021
 2403TIP3   OH2 7085   6.275   7.711   3.988
 2403TIP3    H1 7086   6.272   7.788   3.932
 2403TIP3    H2 7087   6.211   7.729   4.057
 2404TIP3   OH2 7088   0.152   0.938   6.079
 2404TIP3    H1 7089   0.245   0.934   6.056
 2404TIP3    H2 7090   0.119   0.850   6.064
 2405TIP3   OH2 7091   2.722   4.999   0.202
 2405TIP3    H1 7092   2.794   5.023   0.144
 2405TIP3    H2 7093   2.664   5.074   0.202
 2406TIP3   OH2 7094   8.978   3.046   6.731
 2406TIP3    H1 7095   9.012   3.078   6.648
 2406TIP3    H2 7096   8.926   3.118   6.766
 2407TIP3   OH2 7097   3.356   4.084   1.010
 2407TIP3    H1 7098   3.426   4.120   1.064
 2407TIP3    H2 7099   3.386   4.098   0.920
 2408TIP3   OH2 7100   0.665   8.927   4.668
 2408TIP3    H1 7101   0.626   8.885   4.745
 2408TIP3    H2 7102   0.760   8.921   4.685
 2409TIP3   OH2 7103   1.338   6.196   2.375
 2409TIP3    H1 7104   1.351   6.285   2.343
 2409TIP3    H2 7105   1.253   6.171   2.341
 2410TIP3   OH2 7106   3.308   1.706   1.740
 2410TIP3    H1 7107   3.395   1.743   1.721
 2410TIP3    H2 7108   3.247   1.778   1.723
 2411TIP3   OH2 7109   3.039   8.267   4.356
 2411TIP3    H1 7110   2.992   8.317   4.289
 2411TIP3    H2 7111   3.065   8.186   4.312
 2412TIP3   OH2 7112   0.065   4.898   3.468
 2412TIP3    H1 7113  -0.016   4.943   3.491
 2412TIP3    H2 7114   0.122   4.967   3.435
 2413TIP3   OH2 7115   2.099   8.710   3.347
 2413TIP3    H1 7116   2.024   8.675   3.300
 2413TIP3    H2 7117   2.118   8.794   3.305
 2414TIP3   OH2 7118   6.393   2.063   2.259
 2414TIP3    H1 7119   6.397   2.002   2.333
 2414TIP3    H2 7120   6.332   2.022   2.197
 2415TIP3   OH2 7121   5.829   1.484   1.717
 2415TIP3    H1 7122   5.902   1.427   1.740
 2415TIP3    H2 7123   5.764   1.469   1.785
 2416TIP3   OH2 7124   7.317   4.389   7.772
 2416TIP3    H1 7125   7.409   4.388   7.745
 2416TIP3    H2 7126   7.278   4.460   7.723
 2417TIP3   OH2 7127   5.336   3.110   5.655
 2417TIP3    H1 7128   5.299   3.188   5.695
 2417TIP3    H2 7129   5.272   3.041   5.674
 2418TIP3   OH2 7130   8.281   1.090   3.599
 2418TIP3    H1 7131   8.189   1.109   3.581
 2418TIP3    H2 7132   8.280   1.027   3.670
 2419TIP3   OH2 7133   8.368   1.262   2.450
 2419TIP3    H1 7134   8.414   1.257   2.366
 2419TIP3    H2 7135   8.401   1.188   2.500
 2420TIP3   OH2 7136   3.612   3.085   5.107
 2420TIP3    H1 7137   3.669   3.048   5.174
 2420TIP3    H2 7138   3.530   3.036   5.116
 2421TIP3   OH2 7139   1.719   8.565   7.095
 2421TIP3    H1 7140   1.702   8.541   7.004
 2421TIP3    H2 7141   1.810   8.537   7.109
 2422TIP3   OH2 7142   5.212   2.478   2.715
 2422TIP3    H1 7143   5.255   2.439   2.639
 2422TIP3    H2 7144   5.271   2.460   2.788
 2423TIP3   OH2 7145   2.842   1.922   4.648
 2423TIP3    H1 7146   2.773   1.971   4.693
 2423TIP3    H2 7147   2.823   1.935   4.555
 2424TIP3   OH2 7148   2.924   8.691   5.912
 2424TIP3    H1 7149   2.922   8.707   5.817
 2424TIP3    H2 7150   2.910   8.778   5.951
 2425TIP3   OH2 7151   3.880   7.531   2.030
 2425TIP3    H1 7152   3.939   7.544   2.105
 2425TIP3    H2 7153   3.899   7.443   2.000
 2426TIP3   OH2 7154   4.509   1.930   1.858
 2426TIP3    H1 7155   4.422   1.928   1.898
 2426TIP3    H2 7156   4.533   2.022   1.857
 2427TIP3   OH2 7157   0.989   0.435   5.092
 2427TIP3    H1 7158   0.936   0.492   5.148
 2427TIP3    H2 7159   1.003   0.486   5.012
 2428TIP3   OH2 7160   7.904   7.906   1.813
 2428TIP3    H1 7161   7.870   7.822   1.782
 2428TIP3    H2 7162   7.945   7.885   1.897
 2429TIP3   OH2 7163   2.192   0.078   3.108
 2429TIP3    H1 7164   2.225   0.161   3.142
 2429TIP3    H2 7165   2.162   0.098   3.020
 2430TIP3   OH2 7166   8.492   0.109   2.944
 2430TIP3    H1 7167   8.423   0.074   2.887
 2430TIP3    H2 7168   8.448   0.178   2.994
 2431TIP3   OH2 7169   0.313   1.366   7.736
 2431TIP3    H1 7170   0.345   1.407   7.817
 2431TIP3    H2 7171   0.390   1.365   7.679
 2432TIP3   OH2 7172   6.258   0.713   0.374
 2432TIP3    H1 7173   6.212   0.631   0.354
 2432TIP3    H2 7174   6.241   0.769   0.299
 2433TIP3   OH2 7175   5.623   5.428   7.724
 2433TIP3    H1 7176   5.639   5.409   7.817
 2433TIP3    H2 7177   5.615   5.342   7.683
 2434TIP3   OH2 7178   2.095   5.332   1.379
 2434TIP3    H1 7179   2.011   5.293   1.401
 2434TIP3    H2 7180   2.137   5.351   1.463
 2435TIP3   OH2 7181   4.367   8.468   6.265
 2435TIP3    H1 7182   4.334   8.391   6.219
 2435TIP3    H2 7183   4.342   8.454   6.356
 2436TIP3   OH2 7184   3.500   7.834   5.100
 2436TIP3    H1 7185   3.454   7.765   5.147
 2436TIP3    H2 7186   3.447   7.849   5.022
 2437TIP3   OH2 7187   4.017   0.816   6.442
 2437TIP3    H1 7188   3.973   0.802   6.358
 2437TIP3    H2 7189   4.077   0.743   6.451
 2438TIP3   OH2 7190   1.806   3.139   0.715
 2438TIP3    H1 7191   1.802   3.109   0.806
 2438TIP3    H2 7192   1.847   3.067   0.668
 2439TIP3   OH2 7193   3.221   2.909   1.611
 2439TIP3    H1 7194   3.282   2.836   1.600
 2439TIP3    H2 7195   3.247   2.971   1.543
 2440TIP3   OH2 7196   8.192   4.871   6.876
 2440TIP3    H1 7197   8.121   4.810   6.856
 2440TIP3    H2 7198   8.148   4.949   6.909
 2441TIP3   OH2 7199   8.692   2.454   0.560
 2441TIP3    H1 7200   8.739   2.371   0.563
 2441TIP3    H2 7201   8.628   2.448   0.632
 2442TIP3   OH2 7202   2.555   1.882   3.290
 2442TIP3    H1 7203   2.645   1.879   3.321
 2442TIP3    H2 7204   2.559   1.935   3.210
 2443TIP3   OH2 7205   7.430   4.808   0.051
 2443TIP3    H1 7206   7.507   4.770   0.009
 2443TIP3    H2 7207   7.436   4.780   0.142
 2444TIP3   OH2 7208   8.578   6.272   1.299
 2444TIP3    H1 7209   8.510   6.214   1.334
 2444TIP3    H2 7210   8.600   6.234   1.214
 2445TIP3   OH2 7211   6.392   4.667   2.768
 2445TIP3    H1 7212   6.428   4.589   2.812
 2445TIP3    H2 7213   6.365   4.725   2.840
 2446TIP3   OH2 7214   6.426   7.858   6.673
 2446TIP3    H1 7215   6.415   7.793   6.604
 2446TIP3    H2 7216   6.343   7.905   6.676
 2447TIP3   OH2 7217   5.164   3.033   2.223
 2447TIP3    H1 7218   5.223   3.070   2.288
 2447TIP3    H2 7219   5.106   2.975   2.272
 2448TIP3   OH2 7220   9.512   7.204   6.863
 2448TIP3    H1 7221   9.444   7.169   6.920
 2448TIP3    H2 7222   9.550   7.127   6.821
 2449TIP3   OH2 7223   6.031   0.258   0.094
 2449TIP3    H1 7224   5.961   0.228   0.036
 2449TIP3    H2 7225   6.028   0.198   0.168
 2450TIP3   OH2 7226   9.033   0.133   3.147
 2450TIP3    H1 7227   8.948   0.142   3.104
 2450TIP3    H2 7228   9.097   0.128   3.076
 2451TIP3   OH2 7229   2.213   3.718   6.051
 2451TIP3    H1 7230   2.166   3.774   5.989
 2451TIP3    H2 7231   2.290   3.769   6.075
 2452TIP3   OH2 7232   1.108   6.826   0.282
 2452TIP3    H1 7233   1.092   6.917   0.306
 2452TIP3    H2 7234   1.201   6.812   0.302
 2453TIP3   OH2 7235   4.882   1.949   0.708
 2453TIP3    H1 7236   4.923   1.979   0.789
 2453TIP3    H2 7237   4.838   2.027   0.674
 2454TIP3   OH2 7238   9.300   3.797   3.414
 2454TIP3    H1 7239   9.326   3.875   3.366
 2454TIP3    H2 7240   9.279   3.733   3.346
 2455TIP3   OH2 7241   2.613   7.773   0.601
 2455TIP3    H1 7242   2.517   7.778   0.602
 2455TIP3    H2 7243   2.633   7.697   0.655
 2456TIP3   OH2 7244   3.549   2.381   0.328
 2456TIP3    H1 7245   3.531   2.462   0.375
 2456TIP3    H2 7246   3.520   2.398   0.239
 2457TIP3   OH2 7247   1.156   2.178   2.366
 2457TIP3    H1 7248   1.104   2.099   2.381
 2457TIP3    H2 7249   1.139   2.232   2.443
 2458TIP3   OH2 7250   8.273   4.854   5.311
 2458TIP3    H1 7251   8.217   4.918   5.355
 2458TIP3    H2 7252   8.212   4.799   5.262
 2459TIP3   OH2 7253   8.649   7.964   4.156
 2459TIP3    H1 7254   8.737   8.002   4.149
 2459TIP3    H2 7255   8.661   7.872   4.134
 2460TIP3   OH2 7256   5.423   5.071   1.225
 2460TIP3    H1 7257   5.423   4.988   1.178
 2460TIP3    H2 7258   5.514   5.101   1.222
 2461TIP3   OH2 7259   7.543   6.531   2.622
 2461TIP3    H1 7260   7.536   6.453   2.677
 2461TIP3    H2 7261   7.575   6.497   2.538
 2462TIP3   OH2 7262   7.259   4.780   2.983
 2462TIP3    H1 7263   7.196   4.709   2.971
 2462TIP3    H2 7264   7.325   4.764   2.916
 2463TIP3   OH2 7265   5.154   2.971   1.758
 2463TIP3    H1 7266   5.107   3.005   1.834
 2463TIP3    H2 7267   5.219   3.038   1.738
 2464TIP3   OH2 7268   7.551   4.974   5.743
 2464TIP3    H1 7269   7.486   4.919   5.786
 2464TIP3    H2 7270   7.634   4.928   5.756
 2465TIP3   OH2 7271   1.662   1.132   7.803
 2465TIP3    H1 7272   1.709   1.049   7.789
 2465TIP3    H2 7273   1.670   1.178   7.719
 2466TIP3   OH2 7274   0.789   3.563   1.616
 2466TIP3    H1 7275   0.739   3.639   1.645
 2466TIP3    H2 7276   0.875   3.574   1.656
 2467TIP3   OH2 7277   4.384   5.853   1.515
 2467TIP3    H1 7278   4.343   5.769   1.538
 2467TIP3    H2 7279   4.346   5.916   1.577
 2468TIP3   OH2 7280   9.222   1.886   0.298
 2468TIP3    H1 7281   9.308   1.900   0.339
 2468TIP3    H2 7282   9.241   1.882   0.205
 2469TIP3   OH2 7283   4.876   7.042   5.567
 2469TIP3    H1 7284   4.898   7.124   5.523
 2469TIP3    H2 7285   4.782   7.050   5.586
 2470TIP3   OH2 7286   1.819   1.590   4.503
 2470TIP3    H1 7287   1.914   1.582   4.494
 2470TIP3    H2 7288   1.798   1.541   4.582
 2471TIP3   OH2 7289   5.979   5.358   4.102
 2471TIP3    H1 7290   6.023   5.385   4.183
 2471TIP3    H2 7291   6.020   5.275   4.079
 2472TIP3   OH2 7292   3.250   6.120   4.010
 2472TIP3    H1 7293   3.221   6.060   3.941
 2472TIP3    H2 7294   3.281   6.197   3.963
 2473TIP3   OH2 7295   0.900   4.380   4.238
 2473TIP3    H1 7296   0.844   4.439   4.287
 2473TIP3    H2 7297   0.955   4.338   4.305
 2474TIP3   OH2 7298   1.243   2.441   0.545
 2474TIP3    H1 7299   1.148   2.442   0.550
 2474TIP3    H2 7300   1.271   2.433   0.636
 2475TIP3   OH2 7301   1.302   0.735   6.082
 2475TIP3    H1 7302   1.398   0.731   6.079
 2475TIP3    H2 7303   1.283   0.828   6.098
 2476TIP3   OH2 7304   4.147   3.387   3.910
 2476TIP3    H1 7305   4.121   3.387   3.818
 2476TIP3    H2 7306   4.193   3.470   3.922
 2477TIP3   OH2 7307   2.108   4.570   1.054
 2477TIP3    H1 7308   2.121   4.475   1.059
 2477TIP3    H2 7309   2.184   4.601   1.005
 2478TIP3   OH2 7310   4.250   8.738   3.710
 2478TIP3    H1 7311   4.280   8.658   3.667
 2478TIP3    H2 7312   4.217   8.793   3.639
 2479TIP3   OH2 7313   5.733   1.795   7.159
 2479TIP3    H1 7314   5.793   1.860   7.196
 2479TIP3    H2 7315   5.790   1.722   7.134
 2480TIP3   OH2 7316   4.327   3.881   6.603
 2480TIP3    H1 7317   4.348   3.808   6.544
 2480TIP3    H2 7318   4.410   3.926   6.616
 2481TIP3   OH2 7319   0.654   5.981   6.299
 2481TIP3    H1 7320   0.578   6.013   6.251
 2481TIP3    H2 7321   0.627   5.895   6.332
 2482TIP3   OH2 7322   8.898   7.825   3.349
 2482TIP3    H1 7323   8.930   7.910   3.378
 2482TIP3    H2 7324   8.848   7.844   3.269
 2483TIP3   OH2 7325   3.095   0.631   5.242
 2483TIP3    H1 7326   3.050   0.607   5.161
 2483TIP3    H2 7327   3.053   0.713   5.269
 2484TIP3   OH2 7328   3.631   3.567   4.953
 2484TIP3    H1 7329   3.681   3.647   4.968
 2484TIP3    H2 7330   3.688   3.496   4.984
 2485TIP3   OH2 7331   4.513   2.376   7.263
 2485TIP3    H1 7332   4.487   2.284   7.267
 2485TIP3    H2 7333   4.529   2.392   7.170
 2486TIP3   OH2 7334   1.006   5.449   6.220
 2486TIP3    H1 7335   1.086   5.432   6.171
 2486TIP3    H2 7336   0.942   5.476   6.154
 2487TIP3   OH2 7337   6.377   0.347   3.419
 2487TIP3    H1 7338   6.307   0.412   3.427
 2487TIP3    H2 7339   6.378   0.302   3.504
 2488TIP3   OH2 7340   4.843   1.138   1.119
 2488TIP3    H1 7341   4.791   1.164   1.043
 2488TIP3    H2 7342   4.862   1.045   1.103
 2489TIP3   OH2 7343   3.108   8.935   5.995
 2489TIP3    H1 7344   3.071   9.007   5.944
 2489TIP3    H2 7345   3.191   8.915   5.952
 2490TIP3   OH2 7346   1.821   3.897   1.099
 2490TIP3    H1 7347   1.765   3.918   1.024
 2490TIP3    H2 7348   1.896   3.852   1.060
 2491TIP3   OH2 7349   1.447   8.697   2.091
 2491TIP3    H1 7350   1.467   8.613   2.132
 2491TIP3    H2 7351   1.489   8.693   2.005
 2492TIP3   OH2 7352   6.043   4.820   4.663
 2492TIP3    H1 7353   6.129   4.860   4.678
 2492TIP3    H2 7354   5.984   4.895   4.650
 2493TIP3   OH2 7355   1.118   7.358   6.969
 2493TIP3    H1 7356   1.126   7.340   6.875
 2493TIP3    H2 7357   1.207   7.345   7.003
 2494TIP3   OH2 7358   3.061   5.953   5.236
 2494TIP3    H1 7359   3.109   5.923   5.159
 2494TIP3    H2 7360   3.129   5.962   5.304
 2495TIP3   OH2 7361   5.527   6.106   4.617
 2495TIP3    H1 7362   5.563   6.193   4.600
 2495TIP3    H2 7363   5.592   6.064   4.672
 2496TIP3   OH2 7364   5.753   3.359   2.404
 2496TIP3    H1 7365   5.694   3.350   2.479
 2496TIP3    H2 7366   5.817   3.288   2.416
 2497TIP3   OH2 7367   7.915   0.636   6.310
 2497TIP3    H1 7368   7.914   0.564   6.247
 2497TIP3    H2 7369   7.829   0.678   6.300
 2498TIP3   OH2 7370   5.859   0.614   3.960
 2498TIP3    H1 7371   5.783   0.629   4.017
 2498TIP3    H2 7372   5.852   0.522   3.935
 2499TIP3   OH2 7373   3.488   5.122   0.231
 2499TIP3    H1 7374   3.510   5.067   0.156
 2499TIP3    H2 7375   3.393   5.125   0.232
 2500TIP3   OH2 7376   0.103   1.723   2.153
 2500TIP3    H1 7377   0.091   1.812   2.120
 2500TIP3    H2 7378   0.015   1.694   2.176
 2501TIP3   OH2 7379   2.421   7.111   3.571
 2501TIP3    H1 7380   2.399   7.188   3.623
 2501TIP3    H2 7381   2.349   7.104   3.508
 2502TIP3   OH2 7382   4.595   6.384   6.374
 2502TIP3    H1 7383   4.529   6.315   6.383
 2502TIP3    H2 7384   4.616   6.408   6.465
 2503TIP3   OH2 7385   5.177   5.300   7.688
 2503TIP3    H1 7386   5.103   5.338   7.736
 2503TIP3    H2 7387   5.254   5.334   7.734
 2504TIP3   OH2 7388   6.355   5.652   2.559
 2504TIP3    H1 7389   6.316   5.575   2.600
 2504TIP3    H2 7390   6.449   5.640   2.569
 2505TIP3   OH2 7391   5.784   8.703   7.206
 2505TIP3    H1 7392   5.879   8.707   7.195
 2505TIP3    H2 7393   5.751   8.672   7.122
 2506TIP3   OH2 7394   6.371   2.131   2.557
 2506TIP3    H1 7395   6.419   2.049   2.561
 2506TIP3    H2 7396   6.431   2.191   2.513
 2507TIP3   OH2 7397   9.193   8.248   2.592
 2507TIP3    H1 7398   9.115   8.262   2.646
 2507TIP3    H2 7399   9.266   8.277   2.647
 2508TIP3   OH2 7400   2.842   0.317   2.249
 2508TIP3    H1 7401   2.900   0.313   2.325
 2508TIP3    H2 7402   2.777   0.247   2.264
 2509TIP3   OH2 7403   1.190   4.284   3.002
 2509TIP3    H1 7404   1.275   4.241   3.004
 2509TIP3    H2 7405   1.128   4.214   2.983
 2510TIP3   OH2 7406   0.406   5.373   1.982
 2510TIP3    H1 7407   0.352   5.451   1.986
 2510TIP3    H2 7408   0.403   5.347   1.889
 2511TIP3   OH2 7409   3.374   6.856   1.429
 2511TIP3    H1 7410   3.327   6.854   1.346
 2511TIP3    H2 7411   3.317   6.903   1.489
 2512TIP3   OH2 7412   6.537   8.009   5.439
 2512TIP3    H1 7413   6.557   7.968   5.355
 2512TIP3    H2 7414   6.551   7.939   5.503
 2513TIP3   OH2 7415   9.261   0.726   2.262
 2513TIP3    H1 7416   9.313   0.742   2.341
 2513TIP3    H2 7417   9.301   0.782   2.196
 2514TIP3   OH2 7418   5.630   1.795   4.914
 2514TIP3    H1 7419   5.593   1.715   4.878
 2514TIP3    H2 7420   5.682   1.766   4.989
 2515TIP3   OH2 7421   1.959   3.402   7.617
 2515TIP3    H1 7422   2.018   3.402   7.692
 2515TIP3    H2 7423   1.879   3.362   7.650
 2516TIP3   OH2 7424   7.427   3.504   5.066
 2516TIP3    H1 7425   7.369   3.553   5.008
 2516TIP3    H2 7426   7.478   3.571   5.111
 2517TIP3   OH2 7427   6.317   1.761   0.563
 2517TIP3    H1 7428   6.226   1.739   0.582
 2517TIP3    H2 7429   6.314   1.848   0.525
 2518TIP3   OH2 7430   4.698   0.561   0.671
 2518TIP3    H1 7431   4.603   0.559   0.682
 2518TIP3    H2 7432   4.721   0.654   0.674
 2519TIP3   OH2 7433   2.900   8.796   2.911
 2519TIP3    H1 7434   2.864   8.803   2.823
 2519TIP3    H2 7435   2.843   8.734   2.956
 2520TIP3   OH2 7436   8.150   2.905   6.322
 2520TIP3    H1 7437   8.154   2.998   6.343
 2520TIP3    H2 7438   8.212   2.864   6.383
 2521TIP3   OH2 7439   4.332   6.203   7.446
 2521TIP3    H1 7440   4.356   6.268   7.513
 2521TIP3    H2 7441   4.327   6.121   7.493
 2522TIP3   OH2 7442   3.056   5.908   2.452
 2522TIP3    H1 7443   3.039   5.912   2.546
 2522TIP3    H2 7444   3.091   5.994   2.430
 2523TIP3   OH2 7445   5.907   0.496   7.041
 2523TIP3    H1 7446   5.959   0.565   7.081
 2523TIP3    H2 7447   5.823   0.538   7.020
 2524TIP3   OH2 7448   6.861   0.157   7.129
 2524TIP3    H1 7449   6.871   0.077   7.077
 2524TIP3    H2 7450   6.808   0.215   7.074
 2525TIP3   OH2 7451   3.666   7.732   6.599
 2525TIP3    H1 7452   3.639   7.640   6.591
 2525TIP3    H2 7453   3.689   7.742   6.691
 2526TIP3   OH2 7454   7.902   1.826   2.610
 2526TIP3    H1 7455   7.984   1.832   2.660
 2526TIP3    H2 7456   7.885   1.915   2.581
 2527TIP3   OH2 7457   5.598   1.381   1.861
 2527TIP3    H1 7458   5.523   1.411   1.809
 2527TIP3    H2 7459   5.589   1.427   1.944
 2528TIP3   OH2 7460   4.428   6.069   3.705
 2528TIP3    H1 7461   4.384   6.060   3.789
 2528TIP3    H2 7462   4.518   6.040   3.721
 2529TIP3   OH2 7463   4.331   8.953   5.963
 2529TIP3    H1 7464   4.291   8.869   5.984
 2529TIP3    H2 7465   4.413   8.953   6.011
 2530TIP3   OH2 7466   6.997   4.280   7.479
 2530TIP3    H1 7467   7.047   4.342   7.425
 2530TIP3    H2 7468   7.013   4.195   7.437
 2531TIP3   OH2 7469   3.613   1.684   2.846
 2531TIP3    H1 7470   3.592   1.650   2.933
 2531TIP3    H2 7471   3.691   1.636   2.819
 2532TIP3   OH2 7472   7.548   7.912   6.091
 2532TIP3    H1 7473   7.484   7.984   6.089
 2532TIP3    H2 7474   7.633   7.955   6.086
 2533TIP3   OH2 7475   8.247   0.029   0.575
 2533TIP3    H1 7476   8.161   0.065   0.556
 2533TIP3    H2 7477   8.276  -0.011   0.493
 2534TIP3   OH2 7478   6.252   4.283   0.954
 2534TIP3    H1 7479   6.163   4.256   0.979
 2534TIP3    H2 7480   6.310   4.227   1.005
 2535TIP3   OH2 7481   8.879   5.055   5.037
 2535TIP3    H1 7482   8.813   5.094   4.980
 2535TIP3    H2 7483   8.843   4.970   5.062
 2536TIP3   OH2 7484   3.914   8.832   1.062
 2536TIP3    H1 7485   3.943   8.802   0.975
 2536TIP3    H2 7486   3.954   8.771   1.123
 2537TIP3   OH2 7487   6.042   5.881   1.697
 2537TIP3    H1 7488   6.022   5.788   1.698
 2537TIP3    H2 7489   5.960   5.924   1.723
 2538TIP3   OH2 7490   4.726   2.892   5.285
 2538TIP3    H1 7491   4.735   2.832   5.359
 2538TIP3    H2 7492   4.638   2.876   5.252
 2539TIP3   OH2 7493   2.543   1.284   4.774
 2539TIP3    H1 7494   2.454   1.263   4.803
 2539TIP3    H2 7495   2.600   1.234   4.833
 2540TIP3   OH2 7496   7.615   0.111   5.795
 2540TIP3    H1 7497   7.582   0.048   5.859
 2540TIP3    H2 7498   7.710   0.100   5.797
 2541TIP3   OH2 7499   6.497   4.800   5.651
 2541TIP3    H1 7500   6.432   4.730   5.656
 2541TIP3    H2 7501   6.475   4.847   5.571
 2542TIP3   OH2 7502   6.626   3.118   3.215
 2542TIP3    H1 7503   6.667   3.050   3.163
 2542TIP3    H2 7504   6.668   3.199   3.187
 2543TIP3   OH2 7505   0.339   2.881   5.009
 2543TIP3    H1 7506   0.333   2.798   5.058
 2543TIP3    H2 7507   0.267   2.934   5.042
 2544TIP3   OH2 7508   7.796   2.202   7.612
 2544TIP3    H1 7509   7.812   2.111   7.587
 2544TIP3    H2 7510   7.881   2.245   7.598
 2545TIP3   OH2 7511   3.985   7.542   7.498
 2545TIP3    H1 7512   4.043   7.610   7.534
 2545TIP3    H2 7513   3.933   7.512   7.573
 2546TIP3   OH2 7514   6.705   3.846   0.644
 2546TIP3    H1 7515   6.677   3.833   0.553
 2546TIP3    H2 7516   6.628   3.883   0.687
 2547TIP3   OH2 7517   6.012   5.513   7.508
 2547TIP3    H1 7518   6.063   5.566   7.568
 2547TIP3    H2 7519   6.016   5.560   7.424
 2548TIP3   OH2 7520   1.048   4.085   0.490
 2548TIP3    H1 7521   1.084   4.153   0.434
 2548TIP3    H2 7522   1.001   4.132   0.558
 2549TIP3   OH2 7523   2.195   0.174   2.856
 2549TIP3    H1 7524   2.252   0.249   2.841
 2549TIP3    H2 7525   2.221   0.111   2.788
 2550TIP3   OH2 7526   9.343   5.877   2.496
 2550TIP3    H1 7527   9.373   5.946   2.436
 2550TIP3    H2 7528   9.323   5.803   2.439
 2551TIP3   OH2 7529   3.184   4.902   7.707
 2551TIP3    H1 7530   3.254   4.856   7.662
 2551TIP3    H2 7531   3.147   4.960   7.641
 2552TIP3   OH2 7532   7.523   0.218   3.508
 2552TIP3    H1 7533   7.477   0.241   3.589
 2552TIP3    H2 7534   7.586   0.151   3.534
 2553TIP3   OH2 7535   3.807   3.782   6.806
 2553TIP3    H1 7536   3.845   3.762   6.892
 2553TIP3    H2 7537   3.882   3.801   6.750
 2554TIP3   OH2 7538   2.479   7.968   5.361
 2554TIP3    H1 7539   2.461   8.061   5.369
 2554TIP3    H2 7540   2.408   7.925   5.410
 2555TIP3   OH2 7541   6.800   5.182   0.085
 2555TIP3    H1 7542   6.843   5.155   0.004
 2555TIP3    H2 7543   6.741   5.253   0.059
 2556TIP3   OH2 7544   1.353   4.955   2.121
 2556TIP3    H1 7545   1.334   4.861   2.120
 2556TIP3    H2 7546   1.396   4.972   2.037
 2557TIP3   OH2 7547   3.842   0.904   3.520
 2557TIP3    H1 7548   3.893   0.887   3.440
 2557TIP3    H2 7549   3.906   0.940   3.581
 2558TIP3   OH2 7550   5.997   6.509   1.655
 2558TIP3    H1 7551   6.028   6.426   1.619
 2558TIP3    H2 7552   6.065   6.572   1.631
 2559TIP3   OH2 7553   3.440   4.330   5.746
 2559TIP3    H1 7554   3.392   4.255   5.711
 2559TIP3    H2 7555   3.415   4.334   5.838
 2560TIP3   OH2 7556   8.801   4.020   7.159
 2560TIP3    H1 7557   8.720   3.972   7.175
 2560TIP3    H2 7558   8.851   3.965   7.099
 2561TIP3   OH2 7559   5.019   1.092   1.388
 2561TIP3    H1 7560   5.064   1.173   1.409
 2561TIP3    H2 7561   5.084   1.040   1.340
 2562TIP3   OH2 7562   7.731   6.967   5.873
 2562TIP3    H1 7563   7.702   7.005   5.791
 2562TIP3    H2 7564   7.653   6.925   5.909
 2563TIP3   OH2 7565   2.453   4.540   6.898
 2563TIP3    H1 7566   2.431   4.633   6.904
 2563TIP3    H2 7567   2.504   4.532   6.817
 2564TIP3   OH2 7568   7.663   1.681   6.725
 2564TIP3    H1 7569   7.686   1.757   6.670
 2564TIP3    H2 7570   7.744   1.660   6.771
 2565TIP3   OH2 7571   4.043   5.168   7.181
 2565TIP3    H1 7572   4.029   5.076   7.157
 2565TIP3    H2 7573   4.080   5.208   7.103
 2566TIP3   OH2 7574   1.665   5.308   4.960
 2566TIP3    H1 7575   1.693   5.383   5.013
 2566TIP3    H2 7576   1.746   5.275   4.921
 2567TIP3   OH2 7577   4.827   7.753   4.090
 2567TIP3    H1 7578   4.788   7.719   4.010
 2567TIP3    H2 7579   4.841   7.675   4.145
 2568TIP3   OH2 7580   4.108   1.120   4.003
 2568TIP3    H1 7581   4.104   1.126   4.098
 2568TIP3    H2 7582   4.047   1.050   3.980
 2569TIP3   OH2 7583   4.106   2.651   1.080
 2569TIP3    H1 7584   4.159   2.595   1.024
 2569TIP3    H2 7585   4.035   2.682   1.022
 2570TIP3   OH2 7586   7.794   7.483   6.286
 2570TIP3    H1 7587   7.811   7.577   6.294
 2570TIP3    H2 7588   7.699   7.476   6.279
 2571TIP3   OH2 7589   6.724   6.542   4.069
 2571TIP3    H1 7590   6.796   6.496   4.113
 2571TIP3    H2 7591   6.722   6.504   3.981
 2572TIP3   OH2 7592   3.084   7.431   6.558
 2572TIP3    H1 7593   3.124   7.382   6.631
 2572TIP3    H2 7594   3.113   7.384   6.480
 2573TIP3   OH2 7595   5.530   2.395   0.035
 2573TIP3    H1 7596   5.558   2.484   0.013
 2573TIP3    H2 7597   5.477   2.405   0.114
 2574TIP3   OH2 7598   7.931   7.206   0.282
 2574TIP3    H1 7599   7.925   7.233   0.190
 2574TIP3    H2 7600   7.842   7.213   0.316
 2575TIP3   OH2 7601   8.642   3.689   0.279
 2575TIP3    H1 7602   8.547   3.697   0.292
 2575TIP3    H2 7603   8.652   3.681   0.184
 2576TIP3   OH2 7604   6.751   2.052   3.759
 2576TIP3    H1 7605   6.692   1.995   3.808
 2576TIP3    H2 7606   6.838   2.012   3.769
 2577TIP3   OH2 7607   0.607   8.909   4.376
 2577TIP3    H1 7608   0.610   8.816   4.355
 2577TIP3    H2 7609   0.656   8.916   4.458
 2578TIP3   OH2 7610   4.929   0.430   3.068
 2578TIP3    H1 7611   4.942   0.523   3.091
 2578TIP3    H2 7612   4.853   0.404   3.119
 2579TIP3   OH2 7613   6.718   8.517   5.918
 2579TIP3    H1 7614   6.694   8.607   5.940
 2579TIP3    H2 7615   6.644   8.484   5.867
 2580TIP3   OH2 7616   8.315   2.624   4.678
 2580TIP3    H1 7617   8.282   2.684   4.746
 2580TIP3    H2 7618   8.337   2.681   4.605
 2581TIP3   OH2 7619   5.724   8.441   1.707
 2581TIP3    H1 7620   5.647   8.477   1.752
 2581TIP3    H2 7621   5.714   8.346   1.715
 2582TIP3   OH2 7622   6.505   0.284   1.794
 2582TIP3    H1 7623   6.422   0.239   1.809
 2582TIP3    H2 7624   6.484   0.377   1.800
 2583TIP3   OH2 7625   0.715   0.094   0.817
 2583TIP3    H1 7626   0.634   0.065   0.858
 2583TIP3    H2 7627   0.688   0.133   0.734
 2584TIP3   OH2 7628   1.384   0.210   3.426
 2584TIP3    H1 7629   1.399   0.304   3.424
 2584TIP3    H2 7630   1.366   0.186   3.336
 2585TIP3   OH2 7631   1.905   0.344   6.814
 2585TIP3    H1 7632   1.983   0.380   6.771
 2585TIP3    H2 7633   1.866   0.286   6.749
 2586TIP3   OH2 7634   0.039   0.698   6.012
 2586TIP3    H1 7635   0.091   0.626   5.977
 2586TIP3    H2 7636   0.000   0.662   6.092
 2587TIP3   OH2 7637   3.714   0.174   2.321
 2587TIP3    H1 7638   3.807   0.196   2.325
 2587TIP3    H2 7639   3.700   0.112   2.393
 2588TIP3   OH2 7640   2.909   7.433   0.951
 2588TIP3    H1 7641   2.959   7.466   0.876
 2588TIP3    H2 7642   2.933   7.490   1.023
 2589TIP3   OH2 7643   6.508   5.381   1.241
 2589TIP3    H1 7644   6.474   5.301   1.200
 2589TIP3    H2 7645   6.441   5.405   1.305
 2590TIP3   OH2 7646   9.429   7.550   2.673
 2590TIP3    H1 7647   9.508   7.507   2.705
 2590TIP3    H2 7648   9.460   7.633   2.638
 2591TIP3   OH2 7649   1.681   6.819   3.605
 2591TIP3    H1 7650   1.721   6.880   3.544
 2591TIP3    H2 7651   1.644   6.750   3.550
 2592TIP3   OH2 7652   0.183   5.186   7.725
 2592TIP3    H1 7653   0.240   5.231   7.663
 2592TIP3    H2 7654   0.103   5.168   7.676
 2593TIP3   OH2 7655   2.660   5.480   2.326
 2593TIP3    H1 7656   2.627   5.445   2.409
 2593TIP3    H2 7657   2.753   5.496   2.341
 2594TIP3   OH2 7658   5.001   4.028   3.671
 2594TIP3    H1 7659   4.952   3.955   3.633
 2594TIP3    H2 7660   4.933   4.088   3.703
 2595TIP3   OH2 7661   4.398   6.417   0.406
 2595TIP3    H1 7662   4.472   6.460   0.364
 2595TIP3    H2 7663   4.410   6.324   0.387
 2596TIP3   OH2 7664   3.882   3.552   7.456
 2596TIP3    H1 7665   3.850   3.563   7.545
 2596TIP3    H2 7666   3.968   3.593   7.456
 2597TIP3   OH2 7667   5.559   8.592   5.134
 2597TIP3    H1 7668   5.528   8.534   5.064
 2597TIP3    H2 7669   5.577   8.675   5.089
 2598TIP3   OH2 7670   6.790   6.671   4.696
 2598TIP3    H1 7671   6.727   6.721   4.748
 2598TIP3    H2 7672   6.868   6.667   4.750
 2599TIP3   OH2 7673   5.233   7.402   2.552
 2599TIP3    H1 7674   5.321   7.386   2.518
 2599TIP3    H2 7675   5.228   7.350   2.632
 2600TIP3   OH2 7676   6.439   6.327   4.098
 2600TIP3    H1 7677   6.523   6.366   4.123
 2600TIP3    H2 7678   6.416   6.270   4.172
 2601TIP3   OH2 7679   6.179   8.864   5.728
 2601TIP3    H1 7680   6.183   8.835   5.637
 2601TIP3    H2 7681   6.135   8.949   5.724
 2602TIP3   OH2 7682   7.421   0.232   0.257
 2602TIP3    H1 7683   7.420   0.168   0.329
 2602TIP3    H2 7684   7.400   0.315   0.299
 2603TIP3   OH2 7685   2.432   2.114   0.697
 2603TIP3    H1 7686   2.351   2.162   0.677
 2603TIP3    H2 7687   2.501   2.180   0.690
 2604TIP3   OH2 7688   7.294   4.227   6.161
 2604TIP3    H1 7689   7.227   4.295   6.161
 2604TIP3    H2 7690   7.364   4.262   6.106
 2605TIP3   OH2 7691   2.306   7.294   5.121
 2605TIP3    H1 7692   2.269   7.315   5.035
 2605TIP3    H2 7693   2.229   7.276   5.176
 2606TIP3   OH2 7694   1.779   7.484   2.038
 2606TIP3    H1 7695   1.795   7.578   2.036
 2606TIP3    H2 7696   1.759   7.461   1.947
 2607TIP3   OH2 7697   4.733   4.927   4.982
 2607TIP3    H1 7698   4.690   4.908   4.899
 2607TIP3    H2 7699   4.728   4.846   5.032
 2608TIP3   OH2 7700   7.746   2.670   4.665
 2608TIP3    H1 7701   7.808   2.630   4.725
 2608TIP3    H2 7702   7.759   2.765   4.676
 2609TIP3   OH2 7703   9.328   8.521   4.831
 2609TIP3    H1 7704   9.232   8.518   4.828
 2609TIP3    H2 7705   9.353   8.563   4.749
 2610TIP3   OH2 7706   4.915   5.468   7.386
 2610TIP3    H1 7707   4.923   5.534   7.317
 2610TIP3    H2 7708   4.835   5.493   7.433
 2611TIP3   OH2 7709   7.883   0.401   7.198
 2611TIP3    H1 7710   7.818   0.472   7.202
 2611TIP3    H2 7711   7.924   0.411   7.112
 2612TIP3   OH2 7712   8.158   4.607   0.114
 2612TIP3    H1 7713   8.099   4.537   0.144
 2612TIP3    H2 7714   8.118   4.639   0.034
 2613TIP3   OH2 7715   1.993   0.691   6.128
 2613TIP3    H1 7716   2.087   0.674   6.131
 2613TIP3    H2 7717   1.952   0.605   6.116
 2614TIP3   OH2 7718   5.559   8.722   6.628
 2614TIP3    H1 7719   5.567   8.665   6.552
 2614TIP3    H2 7720   5.633   8.783   6.620
 2615TIP3   OH2 7721   8.338   4.605   7.458
 2615TIP3    H1 7722   8.374   4.690   7.433
 2615TIP3    H2 7723   8.302   4.618   7.546
 2616TIP3   OH2 7724   1.099   6.648   6.014
 2616TIP3    H1 7725   1.112   6.740   6.038
 2616TIP3    H2 7726   1.004   6.634   6.022
 2617TIP3   OH2 7727   3.679   1.643   3.780
 2617TIP3    H1 7728   3.642   1.569   3.732
 2617TIP3    H2 7729   3.756   1.607   3.824
 2618TIP3   OH2 7730   8.097   5.789   2.127
 2618TIP3    H1 7731   8.177   5.797   2.075
 2618TIP3    H2 7732   8.127   5.793   2.218
 2619TIP3   OH2 7733   9.500   6.748   5.047
 2619TIP3    H1 7734   9.591   6.756   5.017
 2619TIP3    H2 7735   9.451   6.722   4.969
 2620TIP3   OH2 7736   3.210   2.984   4.555
 2620TIP3    H1 7737   3.241   2.994   4.465
 2620TIP3    H2 7738   3.116   2.971   4.547
 2621TIP3   OH2 7739   6.316   2.857   4.404
 2621TIP3    H1 7740   6.255   2.924   4.374
 2621TIP3    H2 7741   6.262   2.779   4.418
 2622TIP3   OH2 7742   3.692   4.413   1.933
 2622TIP3    H1 7743   3.716   4.393   1.842
 2622TIP3    H2 7744   3.716   4.334   1.981
 2623TIP3   OH2 7745   0.964   6.242   6.558
 2623TIP3    H1 7746   0.935   6.251   6.649
 2623TIP3    H2 7747   1.025   6.168   6.560
 2624TIP3   OH2 7748   4.288   1.772   3.992
 2624TIP3    H1 7749   4.330   1.692   4.023
 2624TIP3    H2 7750   4.339   1.843   4.031
 2625TIP3   OH2 7751   5.250   5.159   6.437
 2625TIP3    H1 7752   5.308   5.090   6.472
 2625TIP3    H2 7753   5.234   5.133   6.346
 2626TIP3   OH2 7754   7.164   6.671   6.388
 2626TIP3    H1 7755   7.071   6.692   6.389
 2626TIP3    H2 7756   7.173   6.598   6.450
 2627TIP3   OH2 7757   6.552   5.019   0.473
 2627TIP3    H1 7758   6.498   5.027   0.552
 2627TIP3    H2 7759   6.642   5.018   0.505
 2628TIP3   OH2 7760   2.358   4.869   3.025
 2628TIP3    H1 7761   2.362   4.781   2.987
 2628TIP3    H2 7762   2.268   4.875   3.059
 2629TIP3   OH2 7763   4.610   0.648   7.571
 2629TIP3    H1 7764   4.632   0.578   7.632
 2629TIP3    H2 7765   4.695   0.684   7.544
 2630TIP3   OH2 7766   0.205   7.753   7.096
 2630TIP3    H1 7767   0.298   7.745   7.073
 2630TIP3    H2 7768   0.158   7.729   7.016
 2631TIP3   OH2 7769   8.762   5.355   7.125
 2631TIP3    H1 7770   8.756   5.431   7.067
 2631TIP3    H2 7771   8.773   5.392   7.212
 2632TIP3   OH2 7772   5.384   7.605   6.231
 2632TIP3    H1 7773   5.463   7.554   6.215
 2632TIP3    H2 7774   5.400   7.688   6.187
 2633TIP3   OH2 7775   2.445   7.029   5.396
 2633TIP3    H1 7776   2.471   7.095   5.332
 2633TIP3    H2 7777   2.528   6.993   5.428
 2634TIP3   OH2 7778   6.922   0.820   3.977
 2634TIP3    H1 7779   6.836   0.861   3.975
 2634TIP3    H2 7780   6.920   0.761   4.052
 2635TIP3   OH2 7781   2.098   6.696   3.355
 2635TIP3    H1 7782   2.165   6.710   3.422
 2635TIP3    H2 7783   2.148   6.679   3.275
 2636TIP3   OH2 7784   1.412   1.154   1.974
 2636TIP3    H1 7785   1.461   1.159   1.892
 2636TIP3    H2 7786   1.334   1.103   1.953
 2637TIP3   OH2 7787   7.201   0.897   5.447
 2637TIP3    H1 7788   7.245   0.814   5.429
 2637TIP3    H2 7789   7.271   0.963   5.444
 2638TIP3   OH2 7790   4.780   5.469   3.208
 2638TIP3    H1 7791   4.830   5.551   3.216
 2638TIP3    H2 7792   4.816   5.428   3.130
 2639TIP3   OH2 7793   7.308   8.232   3.525
 2639TIP3    H1 7794   7.276   8.304   3.471
 2639TIP3    H2 7795   7.403   8.235   3.514
 2640TIP3   OH2 7796   2.870   2.961   2.210
 2640TIP3    H1 7797   2.811   3.017   2.259
 2640TIP3    H2 7798   2.931   3.022   2.167
 2641TIP3   OH2 7799   6.741   6.136   1.067
 2641TIP3    H1 7800   6.825   6.175   1.045
 2641TIP3    H2 7801   6.721   6.169   1.154
 2642TIP3   OH2 7802   8.576   8.501   5.634
 2642TIP3    H1 7803   8.553   8.593   5.622
 2642TIP3    H2 7804   8.625   8.479   5.554
 2643TIP3   OH2 7805   9.317   3.399   3.632
 2643TIP3    H1 7806   9.255   3.466   3.659
 2643TIP3    H2 7807   9.363   3.438   3.558
 2644TIP3   OH2 7808   5.824   4.601   5.616
 2644TIP3    H1 7809   5.801   4.516   5.654
 2644TIP3    H2 7810   5.904   4.583   5.566
 2645TIP3   OH2 7811   4.238   8.836   7.147
 2645TIP3    H1 7812   4.222   8.869   7.235
 2645TIP3    H2 7813   4.328   8.861   7.128
 2646TIP3   OH2 7814   8.533   2.174   0.766
 2646TIP3    H1 7815   8.537   2.264   0.735
 2646TIP3    H2 7816   8.443   2.164   0.799
 2647TIP3   OH2 7817   1.602   2.046   5.809
 2647TIP3    H1 7818   1.548   1.991   5.866
 2647TIP3    H2 7819   1.687   2.001   5.806
 2648TIP3   OH2 7820   2.967   2.943   3.423
 2648TIP3    H1 7821   2.920   2.860   3.417
 2648TIP3    H2 7822   2.900   3.010   3.406
 2649TIP3   OH2 7823   5.420   1.132   7.543
 2649TIP3    H1 7824   5.347   1.132   7.605
 2649TIP3    H2 7825   5.489   1.083   7.588
 2650TIP3   OH2 7826   1.720   5.236   7.312
 2650TIP3    H1 7827   1.795   5.194   7.270
 2650TIP3    H2 7828   1.689   5.300   7.247
 2651TIP3   OH2 7829   8.287   1.499   1.197
 2651TIP3    H1 7830   8.279   1.427   1.261
 2651TIP3    H2 7831   8.258   1.577   1.245
 2652TIP3   OH2 7832   3.050   2.887   5.369
 2652TIP3    H1 7833   2.991   2.951   5.330
 2652TIP3    H2 7834   2.997   2.807   5.377
 2653TIP3   OH2 7835   6.396   5.728   7.172
 2653TIP3    H1 7836   6.410   5.767   7.086
 2653TIP3    H2 7837   6.461   5.658   7.178
 2654TIP3   OH2 7838   1.344   3.131   7.263
 2654TIP3    H1 7839   1.436   3.144   7.287
 2654TIP3    H2 7840   1.302   3.215   7.282
 2655TIP3   OH2 7841   8.389   8.412   6.435
 2655TIP3    H1 7842   8.452   8.350   6.473
 2655TIP3    H2 7843   8.421   8.498   6.460
 2656TIP3   OH2 7844   3.879   4.501   4.341
 2656TIP3    H1 7845   3.825   4.568   4.382
 2656TIP3    H2 7846   3.877   4.522   4.248
 2657TIP3   OH2 7847   1.906   7.849   6.539
 2657TIP3    H1 7848   1.827   7.808   6.505
 2657TIP3    H2 7849   1.884   7.942   6.544
 2658TIP3   OH2 7850   4.515   5.257   1.833
 2658TIP3    H1 7851   4.515   5.282   1.741
 2658TIP3    H2 7852   4.578   5.184   1.838
 2659TIP3   OH2 7853   1.779   7.541   0.614
 2659TIP3    H1 7854   1.782   7.472   0.680
 2659TIP3    H2 7855   1.860   7.590   0.626
 2660TIP3   OH2 7856   0.539   0.809   3.598
 2660TIP3    H1 7857   0.599   0.767   3.660
 2660TIP3    H2 7858   0.452   0.799   3.638
 2661TIP3   OH2 7859   2.355   3.273   6.096
 2661TIP3    H1 7860   2.366   3.192   6.046
 2661TIP3    H2 7861   2.263   3.274   6.120
 2662TIP3   OH2 7862   1.484   7.023   2.637
 2662TIP3    H1 7863   1.434   7.077   2.577
 2662TIP3    H2 7864   1.496   7.077   2.715
 2663TIP3   OH2 7865   9.013   4.202   7.175
 2663TIP3    H1 7866   8.933   4.150   7.187
 2663TIP3    H2 7867   8.984   4.293   7.188
 2664TIP3   OH2 7868   7.976   7.412   4.191
 2664TIP3    H1 7869   7.960   7.380   4.280
 2664TIP3    H2 7870   7.918   7.359   4.136
 2665TIP3   OH2 7871   0.800   1.513   1.579
 2665TIP3    H1 7872   0.851   1.594   1.567
 2665TIP3    H2 7873   0.794   1.475   1.492
 2666TIP3   OH2 7874   8.740   5.257   6.586
 2666TIP3    H1 7875   8.672   5.319   6.559
 2666TIP3    H2 7876   8.792   5.305   6.650
 2667TIP3   OH2 7877   4.028   8.746   5.070
 2667TIP3    H1 7878   4.001   8.766   5.159
 2667TIP3    H2 7879   4.025   8.650   5.065
 2668TIP3   OH2 7880   5.121   5.291   5.529
 2668TIP3    H1 7881   5.138   5.207   5.486
 2668TIP3    H2 7882   5.208   5.332   5.537
 2669TIP3   OH2 7883   8.796   0.600   7.411
 2669TIP3    H1 7884   8.762   0.661   7.346
 2669TIP3    H2 7885   8.878   0.568   7.373
 2670TIP3   OH2 7886   5.161   0.863   3.818
 2670TIP3    H1 7887   5.251   0.864   3.785
 2670TIP3    H2 7888   5.170   0.870   3.913
 2671TIP3   OH2 7889   9.561   3.743   2.074
 2671TIP3    H1 7890   9.471   3.746   2.041
 2671TIP3    H2 7891   9.581   3.650   2.084
 2672TIP3   OH2 7892   7.191   7.961   7.112
 2672TIP3    H1 7893   7.236   7.910   7.179
 2672TIP3    H2 7894   7.167   7.897   7.045
 2673TIP3   OH2 7895   7.919   7.385   7.751
 2673TIP3    H1 7896   7.997   7.364   7.803
 2673TIP3    H2 7897   7.916   7.317   7.684
 2674TIP3   OH2 7898   4.014   3.579   4.632
 2674TIP3    H1 7899   3.976   3.560   4.546
 2674TIP3    H2 7900   3.983   3.508   4.688
 2675TIP3   OH2 7901   3.957   0.759   0.591
 2675TIP3    H1 7902   3.883   0.744   0.649
 2675TIP3    H2 7903   3.943   0.700   0.517
 2676TIP3   OH2 7904   1.755   1.087   3.628
 2676TIP3    H1 7905   1.808   1.056   3.554
 2676TIP3    H2 7906   1.780   1.179   3.638
 2677TIP3   OH2 7907   8.967   1.418   1.460
 2677TIP3    H1 7908   8.910   1.386   1.530
 2677TIP3    H2 7909   8.956   1.355   1.389
 2678TIP3   OH2 7910   7.999   0.147   7.022
 2678TIP3    H1 7911   7.931   0.138   6.956
 2678TIP3    H2 7912   8.035   0.234   7.008
 2679TIP3   OH2 7913   5.672   1.025   2.716
 2679TIP3    H1 7914   5.590   1.068   2.692
 2679TIP3    H2 7915   5.712   1.085   2.780
 2680TIP3   OH2 7916   5.956   8.389   1.987
 2680TIP3    H1 7917   5.981   8.435   1.907
 2680TIP3    H2 7918   5.948   8.297   1.960
 2681TIP3   OH2 7919   9.506   3.465   0.860
 2681TIP3    H1 7920   9.490   3.439   0.950
 2681TIP3    H2 7921   9.601   3.480   0.855
 2682TIP3   OH2 7922   8.370   8.416   4.816
 2682TIP3    H1 7923   8.281   8.393   4.843
 2682TIP3    H2 7924   8.427   8.358   4.867
 2683TIP3   OH2 7925   7.266   2.037   4.237
 2683TIP3    H1 7926   7.304   2.101   4.296
 2683TIP3    H2 7927   7.192   2.083   4.196
 2684TIP3   OH2 7928   9.406   0.481   2.236
 2684TIP3    H1 7929   9.372   0.418   2.299
 2684TIP3    H2 7930   9.357   0.561   2.253
 2685TIP3   OH2 7931   5.711   4.637   2.315
 2685TIP3    H1 7932   5.745   4.643   2.404
 2685TIP3    H2 7933   5.780   4.593   2.265
 2686TIP3   OH2 7934   2.682   7.075   5.689
 2686TIP3    H1 7935   2.657   7.018   5.616
 2686TIP3    H2 7936   2.778   7.076   5.685
 2687TIP3   OH2 7937   5.680   7.078   1.451
 2687TIP3    H1 7938   5.636   6.993   1.456
 2687TIP3    H2 7939   5.772   7.058   1.467
 2688TIP3   OH2 7940   7.695   4.543   3.344
 2688TIP3    H1 7941   7.634   4.508   3.409
 2688TIP3    H2 7942   7.673   4.636   3.339
 2689TIP3   OH2 7943   3.867   1.591   1.516
 2689TIP3    H1 7944   3.831   1.526   1.576
 2689TIP3    H2 7945   3.959   1.600   1.543
 2690TIP3   OH2 7946   5.168   4.063   6.746
 2690TIP3    H1 7947   5.135   3.982   6.708
 2690TIP3    H2 7948   5.261   4.065   6.723
 2691TIP3   OH2 7949   9.402   7.088   3.834
 2691TIP3    H1 7950   9.328   7.030   3.848
 2691TIP3    H2 7951   9.472   7.052   3.889
 2692TIP3   OH2 7952   0.429   7.300   6.871
 2692TIP3    H1 7953   0.491   7.336   6.809
 2692TIP3    H2 7954   0.374   7.241   6.819
 2693TIP3   OH2 7955   2.482   0.379   5.409
 2693TIP3    H1 7956   2.422   0.452   5.425
 2693TIP3    H2 7957   2.457   0.313   5.474
 2694TIP3   OH2 7958   2.349   7.485   3.583
 2694TIP3    H1 7959   2.440   7.496   3.553
 2694TIP3    H2 7960   2.310   7.572   3.574
 2695TIP3   OH2 7961   5.958   5.903   3.431
 2695TIP3    H1 7962   6.016   5.832   3.460
 2695TIP3    H2 7963   5.876   5.860   3.408
 2696TIP3   OH2 7964   5.329   3.170   1.712
 2696TIP3    H1 7965   5.420   3.199   1.713
 2696TIP3    H2 7966   5.278   3.250   1.697
 2697TIP3   OH2 7967   8.816   3.865   4.650
 2697TIP3    H1 7968   8.877   3.936   4.629
 2697TIP3    H2 7969   8.861   3.786   4.621
 2698TIP3   OH2 7970   9.129   0.736   0.005
 2698TIP3    H1 7971   9.050   0.745   0.057
 2698TIP3    H2 7972   9.117   0.654  -0.044
 2699TIP3   OH2 7973   0.113   6.677   3.582
 2699TIP3    H1 7974   0.054   6.642   3.515
 2699TIP3    H2 7975   0.197   6.687   3.537
 2700TIP3   OH2 7976   3.962   8.179   4.274
 2700TIP3    H1 7977   4.027   8.129   4.323
 2700TIP3    H2 7978   3.907   8.219   4.341
 2701TIP3   OH2 7979   2.783   2.843   4.935
 2701TIP3    H1 7980   2.872   2.814   4.955
 2701TIP3    H2 7981   2.790   2.937   4.921
 2702TIP3   OH2 7982   0.984   1.585   0.883
 2702TIP3    H1 7983   0.972   1.664   0.936
 2702TIP3    H2 7984   1.060   1.604   0.827
 2703TIP3   OH2 7985   1.030   8.472   0.729
 2703TIP3    H1 7986   0.975   8.550   0.727
 2703TIP3    H2 7987   1.109   8.500   0.775
 2704TIP3   OH2 7988   6.695   4.920   4.522
 2704TIP3    H1 7989   6.619   4.963   4.483
 2704TIP3    H2 7990   6.669   4.903   4.613
 2705TIP3   OH2 7991   4.940   2.594   5.634
 2705TIP3    H1 7992   4.851   2.592   5.669
 2705TIP3    H2 7993   4.996   2.606   5.711
 2706TIP3   OH2 7994   0.431   6.595   0.130
 2706TIP3    H1 7995   0.499   6.534   0.102
 2706TIP3    H2 7996   0.422   6.657   0.057
 2707TIP3   OH2 7997   1.692   7.833   1.100
 2707TIP3    H1 7998   1.711   7.787   1.018
 2707TIP3    H2 7999   1.691   7.765   1.166
 2708TIP3   OH2 8000   0.776   8.528   2.237
 2708TIP3    H1 8001   0.842   8.567   2.179
 2708TIP3    H2 8002   0.773   8.587   2.313
 2709TIP3   OH2 8003   2.033   3.538   0.602
 2709TIP3    H1 8004   1.958   3.568   0.551
 2709TIP3    H2 8005   1.999   3.467   0.656
 2710TIP3   OH2 8006   4.531   6.120   1.396
 2710TIP3    H1 8007   4.442   6.121   1.359
 2710TIP3    H2 8008   4.549   6.028   1.412
 2711TIP3   OH2 8009   4.078   7.733   0.372
 2711TIP3    H1 8010   4.022   7.660   0.346
 2711TIP3    H2 8011   4.147   7.736   0.305
 2712TIP3   OH2 8012   8.838   5.591   7.001
 2712TIP3    H1 8013   8.796   5.641   6.930
 2712TIP3    H2 8014   8.846   5.654   7.072
 2713TIP3   OH2 8015   4.713   6.631   6.274
 2713TIP3    H1 8016   4.671   6.561   6.324
 2713TIP3    H2 8017   4.652   6.650   6.202
 2714TIP3   OH2 8018   8.672   8.636   4.139
 2714TIP3    H1 8019   8.659   8.710   4.197
 2714TIP3    H2 8020   8.656   8.559   4.194
 2715TIP3   OH2 8021   6.461   1.246   0.287
 2715TIP3    H1 8022   6.495   1.332   0.261
 2715TIP3    H2 8023   6.508   1.184   0.231
 2716TIP3   OH2 8024   6.235   8.137   0.734
 2716TIP3    H1 8025   6.193   8.103   0.656
 2716TIP3    H2 8026   6.327   8.146   0.710
 2717TIP3   OH2 8027   8.882   3.435   3.669
 2717TIP3    H1 8028   8.939   3.421   3.593
 2717TIP3    H2 8029   8.939   3.422   3.745
 2718TIP3   OH2 8030   2.140   5.169   4.555
 2718TIP3    H1 8031   2.147   5.076   4.534
 2718TIP3    H2 8032   2.065   5.200   4.504
 2719TIP3   OH2 8033   3.977   8.240   7.139
 2719TIP3    H1 8034   3.923   8.194   7.203
 2719TIP3    H2 8035   3.943   8.329   7.138
 2720TIP3   OH2 8036   1.217   2.701   7.576
 2720TIP3    H1 8037   1.176   2.751   7.506
 2720TIP3    H2 8038   1.144   2.654   7.617
 2721TIP3   OH2 8039   0.127   3.539   7.314
 2721TIP3    H1 8040   0.042   3.527   7.356
 2721TIP3    H2 8041   0.130   3.631   7.290
 2722TIP3   OH2 8042   8.379   5.088   2.179
 2722TIP3    H1 8043   8.285   5.106   2.186
 2722TIP3    H2 8044   8.421   5.166   2.216
 2723TIP3   OH2 8045   7.851   5.958   5.697
 2723TIP3    H1 8046   7.794   6.022   5.740
 2723TIP3    H2 8047   7.821   5.957   5.606
 2724TIP3   OH2 8048   0.146   7.879   6.427
 2724TIP3    H1 8049   0.145   7.954   6.367
 2724TIP3    H2 8050   0.060   7.838   6.415
 2725TIP3   OH2 8051   1.459   2.346   6.731
 2725TIP3    H1 8052   1.517   2.285   6.777
 2725TIP3    H2 8053   1.472   2.326   6.638
 2726TIP3   OH2 8054   3.006   5.280   7.037
 2726TIP3    H1 8055   2.913   5.259   7.045
 2726TIP3    H2 8056   3.051   5.203   7.070
 2727TIP3   OH2 8057   2.680   2.734   6.906
 2727TIP3    H1 8058   2.594   2.769   6.931
 2727TIP3    H2 8059   2.742   2.801   6.935
 2728TIP3   OH2 8060   6.397   6.250   2.846
 2728TIP3    H1 8061   6.370   6.192   2.917
 2728TIP3    H2 8062   6.465   6.201   2.800
 2729TIP3   OH2 8063   8.792   6.210   6.455
 2729TIP3    H1 8064   8.839   6.258   6.524
 2729TIP3    H2 8065   8.736   6.148   6.503
 2730TIP3   OH2 8066   8.189   0.272   6.605
 2730TIP3    H1 8067   8.095   0.258   6.598
 2730TIP3    H2 8068   8.205   0.281   6.699
 2731TIP3   OH2 8069   1.940   5.664   3.691
 2731TIP3    H1 8070   1.854   5.623   3.701
 2731TIP3    H2 8071   1.927   5.754   3.722
 2732TIP3   OH2 8072   2.468   1.548   7.799
 2732TIP3    H1 8073   2.411   1.586   7.867
 2732TIP3    H2 8074   2.557   1.567   7.830
 2733TIP3   OH2 8075   2.371   6.307   5.056
 2733TIP3    H1 8076   2.295   6.320   5.114
 2733TIP3    H2 8077   2.443   6.288   5.115
 2734TIP3   OH2 8078   3.250   8.183   4.993
 2734TIP3    H1 8079   3.174   8.169   5.049
 2734TIP3    H2 8080   3.220   8.159   4.905
 2735TIP3   OH2 8081   6.859   7.270   0.349
 2735TIP3    H1 8082   6.931   7.276   0.287
 2735TIP3    H2 8083   6.808   7.350   0.333
 2736TIP3   OH2 8084   6.486   4.469   1.174
 2736TIP3    H1 8085   6.398   4.505   1.173
 2736TIP3    H2 8086   6.530   4.516   1.245
 2737TIP3   OH2 8087   8.239   4.832   3.393
 2737TIP3    H1 8088   8.298   4.832   3.318
 2737TIP3    H2 8089   8.244   4.743   3.427
 2738TIP3   OH2 8090   1.781   5.770   1.704
 2738TIP3    H1 8091   1.860   5.776   1.650
 2738TIP3    H2 8092   1.746   5.860   1.705
 2739TIP3   OH2 8093   8.223   4.337   5.768
 2739TIP3    H1 8094   8.277   4.403   5.812
 2739TIP3    H2 8095   8.211   4.268   5.833
 2740TIP3   OH2 8096   7.847   3.083   0.980
 2740TIP3    H1 8097   7.840   3.153   1.045
 2740TIP3    H2 8098   7.767   3.033   0.990
 2741TIP3   OH2 8099   3.377   5.660   3.681
 2741TIP3    H1 8100   3.454   5.621   3.640
 2741TIP3    H2 8101   3.407   5.686   3.769
 2742TIP3   OH2 8102   7.848   6.600   3.089
 2742TIP3    H1 8103   7.845   6.529   3.153
 2742TIP3    H2 8104   7.884   6.560   3.010
 2743TIP3   OH2 8105   0.548   2.467   5.865
 2743TIP3    H1 8106   0.628   2.518   5.873
 2743TIP3    H2 8107   0.513   2.463   5.954
 2744TIP3   OH2 8108   2.034   0.322   5.215
 2744TIP3    H1 8109   1.993   0.374   5.146
 2744TIP3    H2 8110   2.104   0.379   5.248
 2745TIP3   OH2 8111   6.142   1.612   4.435
 2745TIP3    H1 8112   6.114   1.619   4.344
 2745TIP3    H2 8113   6.220   1.557   4.432
 2746TIP3   OH2 8114   3.049   6.804   4.405
 2746TIP3    H1 8115   3.048   6.709   4.397
 2746TIP3    H2 8116   3.141   6.826   4.420
 2747TIP3   OH2 8117   4.143   8.045   4.419
 2747TIP3    H1 8118   4.208   8.035   4.349
 2747TIP3    H2 8119   4.181   8.109   4.479
 2748TIP3   OH2 8120   1.571   7.096   6.035
 2748TIP3    H1 8121   1.552   7.004   6.019
 2748TIP3    H2 8122   1.556   7.139   5.951
 2749TIP3   OH2 8123   6.077   5.809   3.953
 2749TIP3    H1 8124   6.140   5.875   3.926
 2749TIP3    H2 8125   6.105   5.729   3.907
 2750TIP3   OH2 8126   0.010   8.523   6.262
 2750TIP3    H1 8127  -0.024   8.445   6.305
 2750TIP3    H2 8128  -0.016   8.513   6.170
 2751TIP3   OH2 8129   0.581   3.378   7.426
 2751TIP3    H1 8130   0.529   3.400   7.503
 2751TIP3    H2 8131   0.597   3.461   7.383
 2752TIP3   OH2 8132   8.604   8.114   7.630
 2752TIP3    H1 8133   8.687   8.161   7.627
 2752TIP3    H2 8134   8.621   8.037   7.683
 2753TIP3   OH2 8135   0.448   2.789   6.595
 2753TIP3    H1 8136   0.381   2.733   6.633
 2753TIP3    H2 8137   0.402   2.871   6.573
 2754TIP3   OH2 8138   8.953   5.300   0.390
 2754TIP3    H1 8139   8.949   5.205   0.384
 2754TIP3    H2 8140   8.862   5.328   0.401
 2755TIP3   OH2 8141   1.877   6.080   6.172
 2755TIP3    H1 8142   1.965   6.117   6.182
 2755TIP3    H2 8143   1.865   6.073   6.077
 2756TIP3   OH2 8144   4.439   7.442   6.025
 2756TIP3    H1 8145   4.444   7.353   6.060
 2756TIP3    H2 8146   4.500   7.492   6.079
 2757TIP3   OH2 8147   7.586   2.134   7.765
 2757TIP3    H1 8148   7.617   2.050   7.799
 2757TIP3    H2 8149   7.652   2.159   7.701
 2758TIP3   OH2 8150   6.844   8.528   4.583
 2758TIP3    H1 8151   6.775   8.585   4.549
 2758TIP3    H2 8152   6.912   8.588   4.612
 2759TIP3   OH2 8153   2.179   4.371   5.006
 2759TIP3    H1 8154   2.237   4.342   5.076
 2759TIP3    H2 8155   2.095   4.387   5.049
 2760TIP3   OH2 8156   4.115   5.806   5.666
 2760TIP3    H1 8157   4.098   5.773   5.755
 2760TIP3    H2 8158   4.043   5.866   5.649
 2761TIP3   OH2 8159   1.683   2.518   7.003
 2761TIP3    H1 8160   1.616   2.583   7.020
 2761TIP3    H2 8161   1.635   2.436   6.989
 2762TIP3   OH2 8162   2.760   1.837   1.225
 2762TIP3    H1 8163   2.839   1.888   1.241
 2762TIP3    H2 8164   2.752   1.780   1.302
 2763TIP3   OH2 8165   3.032   7.098   6.462
 2763TIP3    H1 8166   3.099   7.164   6.478
 2763TIP3    H2 8167   2.957   7.148   6.427
 2764TIP3   OH2 8168   4.485   5.187   4.694
 2764TIP3    H1 8169   4.396   5.208   4.668
 2764TIP3    H2 8170   4.532   5.270   4.690
 2765TIP3   OH2 8171   8.633   2.936   5.838
 2765TIP3    H1 8172   8.678   2.908   5.758
 2765TIP3    H2 8173   8.593   3.020   5.815
 2766TIP3   OH2 8174   9.395   0.786   2.518
 2766TIP3    H1 8175   9.472   0.819   2.564
 2766TIP3    H2 8176   9.322   0.835   2.556
 2767TIP3   OH2 8177   6.395   1.363   4.120
 2767TIP3    H1 8178   6.382   1.429   4.188
 2767TIP3    H2 8179   6.351   1.285   4.153
 2768TIP3   OH2 8180   3.613   6.021   0.146
 2768TIP3    H1 8181   3.583   6.089   0.086
 2768TIP3    H2 8182   3.690   6.059   0.189
 2769TIP3   OH2 8183   8.553   1.320   7.676
 2769TIP3    H1 8184   8.607   1.394   7.702
 2769TIP3    H2 8185   8.578   1.304   7.585
 2770TIP3   OH2 8186   5.085   2.799   7.371
 2770TIP3    H1 8187   5.103   2.776   7.463
 2770TIP3    H2 8188   5.119   2.725   7.321
 2771TIP3   OH2 8189   4.677   2.481   0.539
 2771TIP3    H1 8190   4.627   2.560   0.559
 2771TIP3    H2 8191   4.627   2.410   0.577
 2772TIP3   OH2 8192   7.697   7.063   0.928
 2772TIP3    H1 8193   7.609   7.040   0.900
 2772TIP3    H2 8194   7.729   6.987   0.976
 2773TIP3   OH2 8195   4.099   6.236   5.327
 2773TIP3    H1 8196   4.116   6.162   5.268
 2773TIP3    H2 8197   4.173   6.235   5.387
 2774TIP3   OH2 8198   1.143   4.378   4.016
 2774TIP3    H1 8199   1.125   4.469   3.990
 2774TIP3    H2 8200   1.065   4.330   3.989
 2775TIP3   OH2 8201   8.599   6.804   7.315
 2775TIP3    H1 8202   8.680   6.773   7.354
 2775TIP3    H2 8203   8.595   6.762   7.229
 2776TIP3   OH2 8204   3.232   1.212   3.611
 2776TIP3    H1 8205   3.170   1.271   3.567
 2776TIP3    H2 8206   3.180   1.134   3.629
 2777TIP3   OH2 8207   2.960   4.830   4.464
 2777TIP3    H1 8208   3.029   4.891   4.492
 2777TIP3    H2 8209   2.899   4.828   4.537
 2778TIP3   OH2 8210   7.750   7.429   2.817
 2778TIP3    H1 8211   7.739   7.521   2.840
 2778TIP3    H2 8212   7.663   7.392   2.825
 2779TIP3   OH2 8213   9.123   6.831   2.089
 2779TIP3    H1 8214   9.051   6.863   2.143
 2779TIP3    H2 8215   9.166   6.911   2.057
 2780TIP3   OH2 8216   7.662   3.506   1.102
 2780TIP3    H1 8217   7.725   3.561   1.148
 2780TIP3    H2 8218   7.700   3.418   1.106
 2781TIP3   OH2 8219   5.411   4.572   6.682
 2781TIP3    H1 8220   5.494   4.572   6.635
 2781TIP3    H2 8221   5.371   4.656   6.660
 2782TIP3   OH2 8222   8.797   6.783   1.558
 2782TIP3    H1 8223   8.738   6.796   1.484
 2782TIP3    H2 8224   8.810   6.688   1.561
 2783TIP3   OH2 8225   6.694   1.278   5.816
 2783TIP3    H1 8226   6.701   1.201   5.759
 2783TIP3    H2 8227   6.614   1.321   5.787
 2784TIP3   OH2 8228   5.116   2.661   1.225
 2784TIP3    H1 8229   5.047   2.661   1.291
 2784TIP3    H2 8230   5.120   2.751   1.194
 2785TIP3   OH2 8231   7.279   0.342   6.703
 2785TIP3    H1 8232   7.208   0.357   6.765
 2785TIP3    H2 8233   7.266   0.408   6.635
 2786TIP3   OH2 8234   6.392   5.829   3.096
 2786TIP3    H1 8235   6.333   5.780   3.153
 2786TIP3    H2 8236   6.470   5.846   3.149
 2787TIP3   OH2 8237   5.950   2.260   4.171
 2787TIP3    H1 8238   5.867   2.228   4.206
 2787TIP3    H2 8239   5.925   2.331   4.112
 2788TIP3   OH2 8240   2.798   0.928   6.865
 2788TIP3    H1 8241   2.736   0.896   6.800
 2788TIP3    H2 8242   2.746   0.938   6.945
 2789TIP3   OH2 8243   6.698   8.662   5.510
 2789TIP3    H1 8244   6.703   8.757   5.519
 2789TIP3    H2 8245   6.626   8.648   5.448
 2790TIP3   OH2 8246   7.328   2.911   6.973
 2790TIP3    H1 8247   7.249   2.858   6.979
 2790TIP3    H2 8248   7.368   2.884   6.890
 2791TIP3   OH2 8249   5.192   6.021   1.387
 2791TIP3    H1 8250   5.175   5.928   1.371
 2791TIP3    H2 8251   5.256   6.046   1.320
 2792TIP3   OH2 8252   4.453   3.771   0.185
 2792TIP3    H1 8253   4.470   3.779   0.279
 2792TIP3    H2 8254   4.400   3.848   0.163
 2793TIP3   OH2 8255   6.511   2.999   1.708
 2793TIP3    H1 8256   6.605   3.015   1.718
 2793TIP3    H2 8257   6.469   3.057   1.772
 2794TIP3   OH2 8258   4.279   3.908   6.954
 2794TIP3    H1 8259   4.339   3.952   6.895
 2794TIP3    H2 8260   4.326   3.902   7.037
 2795TIP3   OH2 8261   7.699   4.607   2.650
 2795TIP3    H1 8262   7.694   4.702   2.663
 2795TIP3    H2 8263   7.790   4.593   2.624
 2796TIP3   OH2 8264   6.175   8.507   1.578
 2796TIP3    H1 8265   6.181   8.424   1.531
 2796TIP3    H2 8266   6.136   8.568   1.516
 2797TIP3   OH2 8267   2.154   5.165   3.948
 2797TIP3    H1 8268   2.215   5.092   3.955
 2797TIP3    H2 8269   2.143   5.179   3.854
 2798TIP3   OH2 8270   5.927   3.283   1.661
 2798TIP3    H1 8271   5.944   3.258   1.752
 2798TIP3    H2 8272   5.963   3.372   1.653
 2799TIP3   OH2 8273   4.668   0.600   3.171
 2799TIP3    H1 8274   4.601   0.604   3.239
 2799TIP3    H2 8275   4.626   0.556   3.098
 2800TIP3   OH2 8276   7.187   4.955   6.935
 2800TIP3    H1 8277   7.236   4.932   6.856
 2800TIP3    H2 8278   7.243   4.928   7.008
 2801TIP3   OH2 8279   1.528   2.455   7.372
 2801TIP3    H1 8280   1.545   2.541   7.410
 2801TIP3    H2 8281   1.483   2.473   7.290
 2802TIP3   OH2 8282   9.212   4.725   1.748
 2802TIP3    H1 8283   9.283   4.771   1.792
 2802TIP3    H2 8284   9.173   4.670   1.817
 2803TIP3   OH2 8285   3.408   0.887   5.738
 2803TIP3    H1 8286   3.433   0.978   5.725
 2803TIP3    H2 8287   3.355   0.865   5.661
 2804TIP3   OH2 8288   8.718   8.665   3.245
 2804TIP3    H1 8289   8.785   8.602   3.219
 2804TIP3    H2 8290   8.665   8.618   3.309
 2805TIP3   OH2 8291   8.137   7.373   5.065
 2805TIP3    H1 8292   8.223   7.355   5.026
 2805TIP3    H2 8293   8.128   7.469   5.060
 2806TIP3   OH2 8294   0.525   3.583   0.774
 2806TIP3    H1 8295   0.598   3.642   0.792
 2806TIP3    H2 8296   0.503   3.544   0.858
 2807TIP3   OH2 8297   3.995   2.136   5.396
 2807TIP3    H1 8298   3.989   2.216   5.344
 2807TIP3    H2 8299   3.908   2.127   5.435
 2808TIP3   OH2 8300   2.019   3.923   3.768
 2808TIP3    H1 8301   2.105   3.963   3.785
 2808TIP3    H2 8302   1.972   3.933   3.851
 2809TIP3   OH2 8303   5.591   0.596   1.421
 2809TIP3    H1 8304   5.497   0.578   1.423
 2809TIP3    H2 8305   5.632   0.513   1.443
 2810TIP3   OH2 8306   0.161   5.361   4.040
 2810TIP3    H1 8307   0.227   5.431   4.040
 2810TIP3    H2 8308   0.101   5.385   4.110
 2811TIP3   OH2 8309   9.087   8.326   4.856
 2811TIP3    H1 8310   9.021   8.365   4.799
 2811TIP3    H2 8311   9.053   8.240   4.878
 2812TIP3   OH2 8312   1.866   5.340   1.074
 2812TIP3    H1 8313   1.861   5.255   1.118
 2812TIP3    H2 8314   1.908   5.322   0.990
 2813TIP3   OH2 8315   3.253   3.216   6.848
 2813TIP3    H1 8316   3.243   3.159   6.772
 2813TIP3    H2 8317   3.327   3.273   6.825
 2814TIP3   OH2 8318   5.258   7.949   0.481
 2814TIP3    H1 8319   5.173   7.981   0.450
 2814TIP3    H2 8320   5.239   7.862   0.517
 2815TIP3   OH2 8321   7.239   0.193   4.685
 2815TIP3    H1 8322   7.262   0.226   4.771
 2815TIP3    H2 8323   7.154   0.231   4.666
 2816TIP3   OH2 8324   8.593   7.020   6.753
 2816TIP3    H1 8325   8.533   7.090   6.781
 2816TIP3    H2 8326   8.679   7.061   6.756
 2817TIP3   OH2 8327   9.367   5.700   2.288
 2817TIP3    H1 8328   9.459   5.724   2.294
 2817TIP3    H2 8329   9.366   5.605   2.302
 2818TIP3   OH2 8330   9.212   3.495   0.989
 2818TIP3    H1 8331   9.219   3.400   0.981
 2818TIP3    H2 8332   9.232   3.528   0.901
 2819TIP3   OH2 8333   0.896   7.066   0.660
 2819TIP3    H1 8334   0.904   7.014   0.740
 2819TIP3    H2 8335   0.913   7.156   0.688
 2820TIP3   OH2 8336   6.721   6.630   6.851
 2820TIP3    H1 8337   6.759   6.600   6.768
 2820TIP3    H2 8338   6.790   6.616   6.916
 2821TIP3   OH2 8339   5.295   6.863   6.058
 2821TIP3    H1 8340   5.304   6.950   6.097
 2821TIP3    H2 8341   5.374   6.817   6.084
 2822TIP3   OH2 8342   9.039   8.511   5.749
 2822TIP3    H1 8343   8.988   8.577   5.701
 2822TIP3    H2 8344   9.102   8.479   5.685
 2823TIP3   OH2 8345   0.866   4.551   4.018
 2823TIP3    H1 8346   0.866   4.470   4.069
 2823TIP3    H2 8347   0.875   4.621   4.082
 2824TIP3   OH2 8348   0.968   3.291   0.761
 2824TIP3    H1 8349   0.946   3.264   0.672
 2824TIP3    H2 8350   0.936   3.220   0.816
 2825TIP3   OH2 8351   0.698   6.459   7.612
 2825TIP3    H1 8352   0.793   6.471   7.616
 2825TIP3    H2 8353   0.663   6.547   7.608
 2826TIP3   OH2 8354   5.412   5.639   3.109
 2826TIP3    H1 8355   5.380   5.728   3.125
 2826TIP3    H2 8356   5.501   5.638   3.143
 2827TIP3   OH2 8357   9.496   2.157   4.631
 2827TIP3    H1 8358   9.524   2.092   4.695
 2827TIP3    H2 8359   9.403   2.139   4.617
 2828TIP3   OH2 8360   0.161   1.786   0.916
 2828TIP3    H1 8361   0.222   1.836   0.970
 2828TIP3    H2 8362   0.161   1.830   0.832
 2829TIP3   OH2 8363   0.006   3.426   2.978
 2829TIP3    H1 8364   0.034   3.506   2.933
 2829TIP3    H2 8365  -0.059   3.456   3.042
 2830TIP3   OH2 8366   5.830   2.777   3.559
 2830TIP3    H1 8367   5.793   2.831   3.629
 2830TIP3    H2 8368   5.777   2.799   3.482
 2831TIP3   OH2 8369   9.548   7.792   2.622
 2831TIP3    H1 8370   9.635   7.802   2.584
 2831TIP3    H2 8371   9.500   7.870   2.594
 2832TIP3   OH2 8372   7.039   8.653   3.829
 2832TIP3    H1 8373   7.118   8.693   3.792
 2832TIP3    H2 8374   6.987   8.728   3.858
 2833TIP3   OH2 8375   8.216   1.752   5.758
 2833TIP3    H1 8376   8.198   1.660   5.735
 2833TIP3    H2 8377   8.204   1.756   5.853
 2834TIP3   OH2 8378   4.943   0.691   3.122
 2834TIP3    H1 8379   4.851   0.681   3.144
 2834TIP3    H2 8380   4.980   0.743   3.194
 2835TIP3   OH2 8381   2.830   1.534   7.518
 2835TIP3    H1 8382   2.785   1.567   7.440
 2835TIP3    H2 8383   2.868   1.451   7.491
 2836TIP3   OH2 8384   5.078   1.613   3.132
 2836TIP3    H1 8385   5.007   1.548   3.134
 2836TIP3    H2 8386   5.066   1.657   3.048
 2837TIP3   OH2 8387   8.666   4.945   6.716
 2837TIP3    H1 8388   8.705   4.992   6.790
 2837TIP3    H2 8389   8.604   5.008   6.678
 2838TIP3   OH2 8390   4.401   2.430   6.028
 2838TIP3    H1 8391   4.313   2.393   6.034
 2838TIP3    H2 8392   4.456   2.369   6.078
 2839TIP3   OH2 8393   8.698   4.707   0.023
 2839TIP3    H1 8394   8.668   4.616   0.021
 2839TIP3    H2 8395   8.742   4.720  -0.060
 2840TIP3   OH2 8396   0.105   2.705   4.538
 2840TIP3    H1 8397   0.146   2.619   4.551
 2840TIP3    H2 8398   0.129   2.755   4.616
 2841TIP3   OH2 8399   4.507   5.786   4.626
 2841TIP3    H1 8400   4.599   5.764   4.614
 2841TIP3    H2 8401   4.475   5.722   4.689
 2842TIP3   OH2 8402   1.473   3.772   7.490
 2842TIP3    H1 8403   1.398   3.715   7.507
 2842TIP3    H2 8404   1.458   3.850   7.543
 2843TIP3   OH2 8405   4.336   1.544   5.804
 2843TIP3    H1 8406   4.415   1.490   5.812
 2843TIP3    H2 8407   4.286   1.502   5.734
 2844TIP3   OH2 8408   1.851   8.201   7.371
 2844TIP3    H1 8409   1.833   8.269   7.436
 2844TIP3    H2 8410   1.799   8.226   7.294
 2845TIP3   OH2 8411   8.390   4.545   6.508
 2845TIP3    H1 8412   8.446   4.620   6.489
 2845TIP3    H2 8413   8.442   4.489   6.565
 2846TIP3   OH2 8414   3.550   8.417   6.251
 2846TIP3    H1 8415   3.475   8.471   6.277
 2846TIP3    H2 8416   3.616   8.434   6.318
 2847TIP3   OH2 8417   3.327   2.409   2.215
 2847TIP3    H1 8418   3.237   2.404   2.247
 2847TIP3    H2 8419   3.360   2.493   2.249
 2848TIP3   OH2 8420   3.845   2.362   0.071
 2848TIP3    H1 8421   3.835   2.444   0.021
 2848TIP3    H2 8422   3.884   2.389   0.154
 2849TIP3   OH2 8423   0.026   5.176   2.770
 2849TIP3    H1 8424   0.051   5.257   2.816
 2849TIP3    H2 8425   0.079   5.176   2.691
 2850TIP3   OH2 8426   1.240   4.589   5.685
 2850TIP3    H1 8427   1.161   4.559   5.729
 2850TIP3    H2 8428   1.279   4.653   5.745
 2851TIP3   OH2 8429   7.165   7.051   5.702
 2851TIP3    H1 8430   7.176   6.981   5.767
 2851TIP3    H2 8431   7.072   7.046   5.677
 2852TIP3   OH2 8432   4.436   8.510   0.058
 2852TIP3    H1 8433   4.461   8.601   0.039
 2852TIP3    H2 8434   4.476   8.492   0.143
 2853TIP3   OH2 8435   8.173   4.142   3.498
 2853TIP3    H1 8436   8.120   4.064   3.517
 2853TIP3    H2 8437   8.111   4.204   3.460
 2854TIP3   OH2 8438   2.033   4.236   6.095
 2854TIP3    H1 8439   2.093   4.276   6.033
 2854TIP3    H2 8440   1.999   4.159   6.049
 2855TIP3   OH2 8441   1.705   2.101   7.281
 2855TIP3    H1 8442   1.682   2.008   7.273
 2855TIP3    H2 8443   1.801   2.102   7.279
 2856TIP3   OH2 8444   0.835   7.626   0.555
 2856TIP3    H1 8445   0.749   7.666   0.568
 2856TIP3    H2 8446   0.888   7.696   0.517
 2857TIP3   OH2 8447   3.558   3.825   7.097
 2857TIP3    H1 8448   3.551   3.730   7.110
 2857TIP3    H2 8449   3.625   3.852   7.161
 2858TIP3   OH2 8450   6.667   4.411   6.904
 2858TIP3    H1 8451   6.669   4.504   6.880
 2858TIP3    H2 8452   6.656   4.365   6.821
 2859TIP3   OH2 8453   4.234   6.469   2.958
 2859TIP3    H1 8454   4.175   6.463   2.883
 2859TIP3    H2 8455   4.311   6.515   2.924
 2860TIP3   OH2 8456   3.252   0.204   4.994
 2860TIP3    H1 8457   3.177   0.263   5.000
 2860TIP3    H2 8458   3.264   0.191   4.900
 2861TIP3   OH2 8459   0.117   1.450   3.322
 2861TIP3    H1 8460   0.069   1.443   3.239
 2861TIP3    H2 8461   0.097   1.539   3.353
 2862TIP3   OH2 8462   7.221   4.879   0.417
 2862TIP3    H1 8463   7.195   4.787   0.419
 2862TIP3    H2 8464   7.301   4.883   0.468
 2863TIP3   OH2 8465   7.226   5.519   2.126
 2863TIP3    H1 8466   7.202   5.459   2.055
 2863TIP3    H2 8467   7.296   5.572   2.089
 2864TIP3   OH2 8468   3.802   0.768   2.381
 2864TIP3    H1 8469   3.884   0.795   2.422
 2864TIP3    H2 8470   3.752   0.850   2.372
 2865TIP3   OH2 8471   8.945   1.011   1.083
 2865TIP3    H1 8472   8.976   0.940   1.139
 2865TIP3    H2 8473   9.018   1.027   1.023
 2866TIP3   OH2 8474   4.343   0.917   6.551
 2866TIP3    H1 8475   4.251   0.930   6.527
 2866TIP3    H2 8476   4.384   0.885   6.470
 2867TIP3   OH2 8477   8.486   0.727   1.365
 2867TIP3    H1 8478   8.516   0.704   1.453
 2867TIP3    H2 8479   8.563   0.719   1.310
 2868TIP3   OH2 8480   5.542   0.948   3.886
 2868TIP3    H1 8481   5.634   0.970   3.873
 2868TIP3    H2 8482   5.543   0.855   3.910
 2869TIP3   OH2 8483   3.047   4.522   0.709
 2869TIP3    H1 8484   3.104   4.561   0.775
 2869TIP3    H2 8485   3.049   4.428   0.728
 2870TIP3   OH2 8486   0.675   8.983   6.051
 2870TIP3    H1 8487   0.709   9.055   5.998
 2870TIP3    H2 8488   0.583   9.005   6.066
 2871TIP3   OH2 8489   7.712   3.065   1.684
 2871TIP3    H1 8490   7.659   3.063   1.604
 2871TIP3    H2 8491   7.775   3.135   1.669
 2872TIP3   OH2 8492   5.979   4.160   6.320
 2872TIP3    H1 8493   6.013   4.071   6.327
 2872TIP3    H2 8494   5.961   4.186   6.411
 2873TIP3   OH2 8495   5.618   6.588   1.923
 2873TIP3    H1 8496   5.658   6.501   1.919
 2873TIP3    H2 8497   5.681   6.640   1.973
 2874TIP3   OH2 8498   5.590   5.530   1.763
 2874TIP3    H1 8499   5.629   5.610   1.798
 2874TIP3    H2 8500   5.597   5.539   1.668
 2875TIP3   OH2 8501   9.163   3.533   6.459
 2875TIP3    H1 8502   9.234   3.584   6.419
 2875TIP3    H2 8503   9.083   3.577   6.432
 2876TIP3   OH2 8504   1.415   4.680   0.243
 2876TIP3    H1 8505   1.399   4.646   0.154
 2876TIP3    H2 8506   1.344   4.643   0.296
 2877TIP3   OH2 8507   5.421   5.570   6.777
 2877TIP3    H1 8508   5.501   5.530   6.810
 2877TIP3    H2 8509   5.451   5.639   6.718
 2878TIP3   OH2 8510   0.582   3.554   3.976
 2878TIP3    H1 8511   0.527   3.558   3.898
 2878TIP3    H2 8512   0.561   3.634   4.024
 2879TIP3   OH2 8513   8.016   7.071   4.722
 2879TIP3    H1 8514   7.972   6.992   4.693
 2879TIP3    H2 8515   7.950   7.140   4.713
 2880TIP3   OH2 8516   8.135   7.974   1.467
 2880TIP3    H1 8517   8.169   8.012   1.386
 2880TIP3    H2 8518   8.105   8.049   1.518
 2881TIP3   OH2 8519   4.138   3.531   0.381
 2881TIP3    H1 8520   4.210   3.522   0.317
 2881TIP3    H2 8521   4.118   3.624   0.381
 2882TIP3   OH2 8522   4.797   7.376   4.091
 2882TIP3    H1 8523   4.843   7.429   4.025
 2882TIP3    H2 8524   4.820   7.417   4.175
 2883TIP3   OH2 8525   7.615   8.092   0.836
 2883TIP3    H1 8526   7.598   8.185   0.849
 2883TIP3    H2 8527   7.582   8.073   0.749
 2884TIP3   OH2 8528   0.901   3.077   2.232
 2884TIP3    H1 8529   0.825   3.024   2.256
 2884TIP3    H2 8530   0.968   3.051   2.295
 2885TIP3   OH2 8531   4.820   4.770   7.646
 2885TIP3    H1 8532   4.766   4.701   7.684
 2885TIP3    H2 8533   4.903   4.728   7.625
 2886TIP3   OH2 8534   5.152   1.698   3.435
 2886TIP3    H1 8535   5.063   1.695   3.469
 2886TIP3    H2 8536   5.161   1.616   3.386
 2887TIP3   OH2 8537   7.892   0.268   5.414
 2887TIP3    H1 8538   7.926   0.277   5.503
 2887TIP3    H2 8539   7.821   0.204   5.422
 2888TIP3   OH2 8540   2.646   0.378   7.617
 2888TIP3    H1 8541   2.585   0.452   7.617
 2888TIP3    H2 8542   2.640   0.343   7.528
 2889TIP3   OH2 8543   3.292   0.791   2.709
 2889TIP3    H1 8544   3.262   0.882   2.719
 2889TIP3    H2 8545   3.212   0.739   2.710
 2890TIP3   OH2 8546   4.965   6.721   3.328
 2890TIP3    H1 8547   4.912   6.709   3.407
 2890TIP3    H2 8548   5.037   6.659   3.338
 2891TIP3   OH2 8549   4.627   5.257   5.851
 2891TIP3    H1 8550   4.679   5.324   5.897
 2891TIP3    H2 8551   4.594   5.302   5.773
 2892TIP3   OH2 8552   6.486   3.735   7.195
 2892TIP3    H1 8553   6.547   3.684   7.249
 2892TIP3    H2 8554   6.540   3.805   7.158
 2893TIP3   OH2 8555   6.848   2.676   5.162
 2893TIP3    H1 8556   6.801   2.735   5.221
 2893TIP3    H2 8557   6.851   2.723   5.078
 2894TIP3   OH2 8558   8.548   8.292   5.821
 2894TIP3    H1 8559   8.550   8.334   5.736
 2894TIP3    H2 8560   8.464   8.317   5.859
 2895TIP3   OH2 8561   1.512   7.100   5.737
 2895TIP3    H1 8562   1.495   7.015   5.778
 2895TIP3    H2 8563   1.441   7.156   5.768
 2896TIP3   OH2 8564   1.371   6.742   5.376
 2896TIP3    H1 8565   1.409   6.681   5.313
 2896TIP3    H2 8566   1.290   6.772   5.333
 2897TIP3   OH2 8567   4.639   7.777   2.856
 2897TIP3    H1 8568   4.651   7.827   2.775
 2897TIP3    H2 8569   4.685   7.827   2.922
 2898TIP3   OH2 8570   2.716   6.476   6.041
 2898TIP3    H1 8571   2.686   6.559   6.004
 2898TIP3    H2 8572   2.746   6.425   5.966
 2899TIP3   OH2 8573   2.907   7.955   1.957
 2899TIP3    H1 8574   2.880   8.029   2.011
 2899TIP3    H2 8575   2.839   7.948   1.890
 2900TIP3   OH2 8576   7.816   3.810   5.089
 2900TIP3    H1 8577   7.743   3.869   5.070
 2900TIP3    H2 8578   7.888   3.843   5.035
 2901TIP3   OH2 8579   8.084   4.271   4.460
 2901TIP3    H1 8580   8.035   4.197   4.495
 2901TIP3    H2 8581   8.158   4.281   4.521
 2902TIP3   OH2 8582   8.433   8.961   0.312
 2902TIP3    H1 8583   8.434   9.043   0.263
 2902TIP3    H2 8584   8.467   8.985   0.398
 2903TIP3   OH2 8585   5.253   6.401   1.676
 2903TIP3    H1 8586   5.254   6.359   1.590
 2903TIP3    H2 8587   5.165   6.437   1.684
 2904TIP3   OH2 8588   4.900   7.621   6.177
 2904TIP3    H1 8589   4.923   7.646   6.266
 2904TIP3    H2 8590   4.972   7.564   6.149
 2905TIP3   OH2 8591   1.531   4.687   2.631
 2905TIP3    H1 8592   1.437   4.706   2.632
 2905TIP3    H2 8593   1.568   4.748   2.695
 2906TIP3   OH2 8594   0.251   6.282   3.016
 2906TIP3    H1 8595   0.302   6.204   2.992
 2906TIP3    H2 8596   0.280   6.303   3.105
 2907TIP3   OH2 8597   0.300   3.510   4.471
 2907TIP3    H1 8598   0.225   3.460   4.440
 2907TIP3    H2 8599   0.363   3.444   4.499
 2908TIP3   OH2 8600   2.962   1.448   2.802
 2908TIP3    H1 8601   2.931   1.401   2.725
 2908TIP3    H2 8602   2.935   1.394   2.876
 2909TIP3   OH2 8603   4.271   1.161   5.884
 2909TIP3    H1 8604   4.320   1.169   5.802
 2909TIP3    H2 8605   4.338   1.152   5.952
 2910TIP3   OH2 8606   5.803   6.871   4.463
 2910TIP3    H1 8607   5.783   6.961   4.490
 2910TIP3    H2 8608   5.722   6.823   4.482
 2911TIP3   OH2 8609   9.560   7.759   0.583
 2911TIP3    H1 8610   9.500   7.801   0.521
 2911TIP3    H2 8611   9.519   7.771   0.669
 2912TIP3   OH2 8612   0.183   4.054   7.404
 2912TIP3    H1 8613   0.200   3.962   7.423
 2912TIP3    H2 8614   0.165   4.056   7.310
 2913TIP3   OH2 8615   5.802   2.961   0.741
 2913TIP3    H1 8616   5.795   3.041   0.792
 2913TIP3    H2 8617   5.721   2.958   0.689
 2914TIP3   OH2 8618   3.622   3.197   0.116
 2914TIP3    H1 8619   3.613   3.245   0.198
 2914TIP3    H2 8620   3.540   3.147   0.109
 2915TIP3   OH2 8621   7.478   0.620   3.034
 2915TIP3    H1 8622   7.469   0.662   3.119
 2915TIP3    H2 8623   7.425   0.674   2.975
 2916TIP3   OH2 8624   7.102   2.721   4.714
 2916TIP3    H1 8625   7.150   2.711   4.796
 2916TIP3    H2 8626   7.104   2.634   4.674
 2917TIP3   OH2 8627   4.134   0.307   2.110
 2917TIP3    H1 8628   4.196   0.357   2.056
 2917TIP3    H2 8629   4.081   0.259   2.046
 2918TIP3   OH2 8630   3.802   6.538   1.549
 2918TIP3    H1 8631   3.754   6.456   1.561
 2918TIP3    H2 8632   3.733   6.603   1.537
 2919TIP3   OH2 8633   6.953   1.320   5.701
 2919TIP3    H1 8634   6.889   1.305   5.771
 2919TIP3    H2 8635   6.906   1.373   5.637
 2920TIP3   OH2 8636   8.929   8.089   7.272
 2920TIP3    H1 8637   8.843   8.128   7.288
 2920TIP3    H2 8638   8.913   8.021   7.206
 2921TIP3   OH2 8639   5.626   2.128   0.800
 2921TIP3    H1 8640   5.588   2.215   0.789
 2921TIP3    H2 8641   5.577   2.089   0.872
 2922TIP3   OH2 8642   1.512   7.915   7.135
 2922TIP3    H1 8643   1.451   7.848   7.166
 2922TIP3    H2 8644   1.591   7.903   7.188
 2923TIP3   OH2 8645   2.964   4.691   3.467
 2923TIP3    H1 8646   2.985   4.777   3.504
 2923TIP3    H2 8647   2.886   4.663   3.513
 2924TIP3   OH2 8648   4.687   2.812   2.696
 2924TIP3    H1 8649   4.644   2.758   2.631
 2924TIP3    H2 8650   4.616   2.852   2.745
 2925TIP3   OH2 8651   8.444   7.906   2.889
 2925TIP3    H1 8652   8.495   7.890   2.809
 2925TIP3    H2 8653   8.483   7.986   2.926
 2926TIP3   OH2 8654   2.038   1.144   0.454
 2926TIP3    H1 8655   2.051   1.061   0.409
 2926TIP3    H2 8656   1.948   1.140   0.488
 2927TIP3   OH2 8657   6.414   0.403   3.966
 2927TIP3    H1 8658   6.490   0.459   3.952
 2927TIP3    H2 8659   6.339   0.462   3.959
 2928TIP3   OH2 8660   1.847   1.125   4.918
 2928TIP3    H1 8661   1.852   1.198   4.857
 2928TIP3    H2 8662   1.883   1.051   4.869
 2929TIP3   OH2 8663   0.371   8.584   3.394
 2929TIP3    H1 8664   0.392   8.640   3.468
 2929TIP3    H2 8665   0.419   8.503   3.410
 2930TIP3   OH2 8666   9.543   5.465   4.191
 2930TIP3    H1 8667   9.583   5.551   4.177
 2930TIP3    H2 8668   9.467   5.483   4.246
 2931TIP3   OH2 8669   1.551   8.699   1.043
 2931TIP3    H1 8670   1.539   8.716   1.137
 2931TIP3    H2 8671   1.628   8.642   1.038
 2932TIP3   OH2 8672   9.171   2.589   1.887
 2932TIP3    H1 8673   9.263   2.612   1.873
 2932TIP3    H2 8674   9.175   2.512   1.944
 2933TIP3   OH2 8675   4.551   5.505   7.218
 2933TIP3    H1 8676   4.464   5.510   7.259
 2933TIP3    H2 8677   4.574   5.413   7.222
 2934TIP3   OH2 8678   8.452   5.999   6.814
 2934TIP3    H1 8679   8.482   5.937   6.880
 2934TIP3    H2 8680   8.391   6.057   6.860
 2935TIP3   OH2 8681   4.820   6.519   7.792
 2935TIP3    H1 8682   4.725   6.520   7.795
 2935TIP3    H2 8683   4.847   6.510   7.884
 2936TIP3   OH2 8684   3.764   6.350   0.598
 2936TIP3    H1 8685   3.732   6.323   0.684
 2936TIP3    H2 8686   3.805   6.435   0.613
 2937TIP3   OH2 8687   0.526   0.428   3.716
 2937TIP3    H1 8688   0.445   0.419   3.666
 2937TIP3    H2 8689   0.501   0.482   3.791
 2938TIP3   OH2 8690   8.378   0.542   5.622
 2938TIP3    H1 8691   8.292   0.523   5.584
 2938TIP3    H2 8692   8.359   0.600   5.696
 2939TIP3   OH2 8693   2.635   1.158   4.506
 2939TIP3    H1 8694   2.541   1.176   4.507
 2939TIP3    H2 8695   2.641   1.062   4.512
 2940TIP3   OH2 8696   0.155   8.734   6.365
 2940TIP3    H1 8697   0.152   8.788   6.285
 2940TIP3    H2 8698   0.121   8.649   6.338
 2941TIP3   OH2 8699   4.348   0.977   0.075
 2941TIP3    H1 8700   4.406   1.053   0.080
 2941TIP3    H2 8701   4.346   0.955  -0.018
 2942TIP3   OH2 8702   2.204   6.648   0.375
 2942TIP3    H1 8703   2.292   6.656   0.340
 2942TIP3    H2 8704   2.216   6.630   0.468
 2943TIP3   OH2 8705   1.482   6.034   4.905
 2943TIP3    H1 8706   1.474   6.022   5.000
 2943TIP3    H2 8707   1.555   6.094   4.894
 2944TIP3   OH2 8708   7.362   3.783   1.628
 2944TIP3    H1 8709   7.302   3.718   1.664
 2944TIP3    H2 8710   7.435   3.786   1.690
 2945TIP3   OH2 8711   6.250   7.486   7.076
 2945TIP3    H1 8712   6.158   7.511   7.084
 2945TIP3    H2 8713   6.286   7.548   7.013
 2946TIP3   OH2 8714   6.021   8.334   6.315
 2946TIP3    H1 8715   5.998   8.315   6.406
 2946TIP3    H2 8716   5.943   8.378   6.280
 2947TIP3   OH2 8717   5.671   8.310   6.807
 2947TIP3    H1 8718   5.610   8.319   6.881
 2947TIP3    H2 8719   5.680   8.215   6.796
 2948TIP3   OH2 8720   7.187   6.452   5.048
 2948TIP3    H1 8721   7.160   6.471   5.138
 2948TIP3    H2 8722   7.183   6.356   5.042
 2949TIP3   OH2 8723   2.205   7.833   2.896
 2949TIP3    H1 8724   2.280   7.804   2.842
 2949TIP3    H2 8725   2.140   7.764   2.884
 2950TIP3   OH2 8726   8.784   4.793   7.719
 2950TIP3    H1 8727   8.744   4.810   7.634
 2950TIP3    H2 8728   8.790   4.697   7.723
 2951TIP3   OH2 8729   8.812   2.039   2.810
 2951TIP3    H1 8730   8.854   2.014   2.892
 2951TIP3    H2 8731   8.836   1.971   2.748
 2952TIP3   OH2 8732   7.722   5.363   5.514
 2952TIP3    H1 8733   7.670   5.426   5.564
 2952TIP3    H2 8734   7.796   5.414   5.482
 2953TIP3   OH2 8735   1.439   2.926   4.864
 2953TIP3    H1 8736   1.492   2.846   4.868
 2953TIP3    H2 8737   1.459   2.972   4.946
 2954TIP3   OH2 8738   9.314   6.415   3.276
 2954TIP3    H1 8739   9.398   6.377   3.303
 2954TIP3    H2 8740   9.281   6.354   3.210
 2955TIP3   OH2 8741   1.380   6.725   0.363
 2955TIP3    H1 8742   1.406   6.738   0.272
 2955TIP3    H2 8743   1.430   6.789   0.412
 2956TIP3   OH2 8744   2.988   4.125   6.237
 2956TIP3    H1 8745   2.978   4.030   6.239
 2956TIP3    H2 8746   2.907   4.157   6.198
 2957TIP3   OH2 8747   3.293   6.922   6.878
 2957TIP3    H1 8748   3.256   7.007   6.900
 2957TIP3    H2 8749   3.267   6.865   6.951
 2958TIP3   OH2 8750   4.084   7.059   1.910
 2958TIP3    H1 8751   4.038   7.008   1.844
 2958TIP3    H2 8752   4.176   7.041   1.895
 2959TIP3   OH2 8753   5.535   8.208   2.971
 2959TIP3    H1 8754   5.586   8.212   2.890
 2959TIP3    H2 8755   5.583   8.264   3.033
 2960TIP3   OH2 8756   3.544   6.724   7.237
 2960TIP3    H1 8757   3.588   6.700   7.156
 2960TIP3    H2 8758   3.532   6.819   7.232
 2961TIP3   OH2 8759   3.021   8.220   3.154
 2961TIP3    H1 8760   3.096   8.272   3.184
 2961TIP3    H2 8761   3.014   8.149   3.218
 2962TIP3   OH2 8762   5.776   7.155   2.976
 2962TIP3    H1 8763   5.720   7.132   2.902
 2962TIP3    H2 8764   5.863   7.167   2.938
 2963TIP3   OH2 8765   6.901   1.713   1.286
 2963TIP3    H1 8766   6.991   1.733   1.314
 2963TIP3    H2 8767   6.856   1.797   1.292
 2964TIP3   OH2 8768   7.776   1.107   2.214
 2964TIP3    H1 8769   7.825   1.187   2.199
 2964TIP3    H2 8770   7.696   1.136   2.259
 2965TIP3   OH2 8771   5.915   2.127   5.115
 2965TIP3    H1 8772   5.956   2.208   5.086
 2965TIP3    H2 8773   5.922   2.068   5.041
 2966TIP3   OH2 8774   3.715   5.254   3.076
 2966TIP3    H1 8775   3.620   5.246   3.088
 2966TIP3    H2 8776   3.743   5.170   3.041
 2967TIP3   OH2 8777   8.873   4.957   7.327
 2967TIP3    H1 8778   8.883   4.894   7.397
 2967TIP3    H2 8779   8.922   4.920   7.254
 2968TIP3   OH2 8780   1.944   4.571   6.095
 2968TIP3    H1 8781   1.982   4.513   6.161
 2968TIP3    H2 8782   1.976   4.658   6.119
 2969TIP3   OH2 8783   7.263   2.543   1.035
 2969TIP3    H1 8784   7.358   2.554   1.045
 2969TIP3    H2 8785   7.229   2.633   1.033
 2970TIP3   OH2 8786   5.616   3.915   0.356
 2970TIP3    H1 8787   5.614   4.008   0.378
 2970TIP3    H2 8788   5.704   3.887   0.381
 2971TIP3   OH2 8789   9.423   7.652   7.227
 2971TIP3    H1 8790   9.351   7.707   7.197
 2971TIP3    H2 8791   9.415   7.572   7.174
 2972TIP3   OH2 8792   6.192   1.136   0.187
 2972TIP3    H1 8793   6.104   1.172   0.175
 2972TIP3    H2 8794   6.233   1.194   0.252
 2973TIP3   OH2 8795   3.982   1.822   4.190
 2973TIP3    H1 8796   4.018   1.756   4.132
 2973TIP3    H2 8797   4.003   1.792   4.278
 2974TIP3   OH2 8798   6.061   1.828   0.211
 2974TIP3    H1 8799   6.089   1.736   0.207
 2974TIP3    H2 8800   6.138   1.878   0.185
 2975TIP3   OH2 8801   3.561   0.490   5.973
 2975TIP3    H1 8802   3.561   0.417   6.036
 2975TIP3    H2 8803   3.495   0.551   6.007
 2976TIP3   OH2 8804   6.206   6.236   0.139
 2976TIP3    H1 8805   6.287   6.186   0.136
 2976TIP3    H2 8806   6.141   6.180   0.095
 2977TIP3   OH2 8807   4.813   7.636   1.456
 2977TIP3    H1 8808   4.891   7.583   1.438
 2977TIP3    H2 8809   4.840   7.726   1.434
 2978TIP3   OH2 8810   8.342   5.551   2.106
 2978TIP3    H1 8811   8.362   5.644   2.092
 2978TIP3    H2 8812   8.305   5.522   2.022
 2979TIP3   OH2 8813   7.536   2.523   6.098
 2979TIP3    H1 8814   7.617   2.526   6.148
 2979TIP3    H2 8815   7.533   2.435   6.061
 2980TIP3   OH2 8816   5.428   2.410   2.519
 2980TIP3    H1 8817   5.463   2.357   2.591
 2980TIP3    H2 8818   5.474   2.494   2.526
 2981TIP3   OH2 8819   8.028   0.711   4.326
 2981TIP3    H1 8820   8.117   0.716   4.290
 2981TIP3    H2 8821   7.998   0.623   4.305
 2982TIP3   OH2 8822   1.075   1.800   6.660
 2982TIP3    H1 8823   1.115   1.885   6.642
 2982TIP3    H2 8824   1.055   1.765   6.573
 2983TIP3   OH2 8825   2.527   1.869   7.642
 2983TIP3    H1 8826   2.503   1.866   7.550
 2983TIP3    H2 8827   2.494   1.787   7.679
 2984TIP3   OH2 8828   8.312   4.087   4.913
 2984TIP3    H1 8829   8.321   4.057   4.823
 2984TIP3    H2 8830   8.332   4.010   4.967
 2985TIP3   OH2 8831   8.453   8.542   3.099
 2985TIP3    H1 8832   8.496   8.566   3.181
 2985TIP3    H2 8833   8.363   8.523   3.125
 2986TIP3   OH2 8834   8.574   3.343   3.592
 2986TIP3    H1 8835   8.656   3.371   3.552
 2986TIP3    H2 8836   8.599   3.272   3.651
 2987TIP3   OH2 8837   4.842   2.803   7.530
 2987TIP3    H1 8838   4.874   2.822   7.442
 2987TIP3    H2 8839   4.918   2.768   7.576
 2988TIP3   OH2 8840   5.525   4.234   0.114
 2988TIP3    H1 8841   5.533   4.158   0.057
 2988TIP3    H2 8842   5.603   4.231   0.170
 2989TIP3   OH2 8843   5.126   3.948   2.052
 2989TIP3    H1 8844   5.136   3.853   2.044
 2989TIP3    H2 8845   5.214   3.982   2.036
 2990TIP3   OH2 8846   1.603   3.102   4.452
 2990TIP3    H1 8847   1.593   3.011   4.424
 2990TIP3    H2 8848   1.545   3.110   4.528
 2991TIP3   OH2 8849   0.492   2.524   2.879
 2991TIP3    H1 8850   0.552   2.596   2.899
 2991TIP3    H2 8851   0.410   2.548   2.923
 2992TIP3   OH2 8852   1.943   6.683   6.690
 2992TIP3    H1 8853   1.856   6.717   6.669
 2992TIP3    H2 8854   1.990   6.758   6.727
 2993TIP3   OH2 8855   0.707   1.542   7.805
 2993TIP3    H1 8856   0.636   1.550   7.741
 2993TIP3    H2 8857   0.683   1.604   7.874
 2994TIP3   OH2 8858   4.586   2.932   0.513
 2994TIP3    H1 8859   4.578   3.004   0.577
 2994TIP3    H2 8860   4.656   2.877   0.548
 2995TIP3   OH2 8861   1.625   5.303   5.689
 2995TIP3    H1 8862   1.625   5.255   5.772
 2995TIP3    H2 8863   1.649   5.392   5.713
 2996TIP3   OH2 8864   9.385   3.980   1.761
 2996TIP3    H1 8865   9.409   4.060   1.808
 2996TIP3    H2 8866   9.390   4.005   1.669
 2997TIP3   OH2 8867   2.393   5.071   6.080
 2997TIP3    H1 8868   2.298   5.057   6.074
 2997TIP3    H2 8869   2.403   5.136   6.149
 2998TIP3   OH2 8870   5.256   1.300   6.663
 2998TIP3    H1 8871   5.252   1.214   6.703
 2998TIP3    H2 8872   5.194   1.353   6.714
 2999TIP3   OH2 8873   2.982   3.501   2.880
 2999TIP3    H1 8874   3.060   3.445   2.874
 2999TIP3    H2 8875   2.940   3.492   2.795
 3000TIP3   OH2 8876   6.781   1.445   4.263
 3000TIP3    H1 8877   6.767   1.513   4.328
 3000TIP3    H2 8878   6.843   1.385   4.304
 3001TIP3   OH2 8879   7.610   7.286   4.157
 3001TIP3    H1 8880   7.678   7.308   4.094
 3001TIP3    H2 8881   7.528   7.311   4.114
 3002TIP3   OH2 8882   4.489   2.993   5.712
 3002TIP3    H1 8883   4.461   2.945   5.634
 3002TIP3    H2 8884   4.579   2.964   5.727
 3003TIP3   OH2 8885   4.603   5.998   5.774
 3003TIP3    H1 8886   4.528   6.019   5.718
 3003TIP3    H2 8887   4.654   6.079   5.775
 3004TIP3   OH2 8888   7.649   7.387   1.101
 3004TIP3    H1 8889   7.585   7.400   1.031
 3004TIP3    H2 8890   7.733   7.398   1.058
 3005TIP3   OH2 8891   6.897   0.044   4.240
 3005TIP3    H1 8892   6.937   0.020   4.324
 3005TIP3    H2 8893   6.804   0.053   4.259
 3006TIP3   OH2 8894   8.169   5.585   5.668
 3006TIP3    H1 8895   8.086   5.632   5.673
 3006TIP3    H2 8896   8.150   5.499   5.707
 3007TIP3   OH2 8897   7.889   5.717   1.929
 3007TIP3    H1 8898   7.877   5.642   1.989
 3007TIP3    H2 8899   7.938   5.781   1.981
 3008TIP3   OH2 8900   3.177   7.159   0.857
 3008TIP3    H1 8901   3.272   7.151   0.865
 3008TIP3    H2 8902   3.160   7.152   0.763
 3009TIP3   OH2 8903   9.109   2.885   5.853
 3009TIP3    H1 8904   9.036   2.945   5.871
 3009TIP3    H2 8905   9.187   2.940   5.859
 3010TIP3   OH2 8906   0.236   6.896   0.050
 3010TIP3    H1 8907   0.323   6.927   0.075
 3010TIP3    H2 8908   0.196   6.866   0.131
 3011TIP3   OH2 8909   5.030   7.944   6.261
 3011TIP3    H1 8910   4.973   7.952   6.338
 3011TIP3    H2 8911   4.969   7.928   6.188
 3012TIP3   OH2 8912   5.340   0.431   5.774
 3012TIP3    H1 8913   5.392   0.512   5.771
 3012TIP3    H2 8914   5.258   0.454   5.731
 3013TIP3   OH2 8915   1.614   2.600   4.897
 3013TIP3    H1 8916   1.630   2.690   4.926
 3013TIP3    H2 8917   1.679   2.548   4.943
 3014TIP3   OH2 8918   3.400   1.976   1.533
 3014TIP3    H1 8919   3.371   1.918   1.463
 3014TIP3    H2 8920   3.495   1.968   1.534
 3015TIP3   OH2 8921   6.057   4.687   2.889
 3015TIP3    H1 8922   6.070   4.597   2.861
 3015TIP3    H2 8923   6.135   4.708   2.940
 3016TIP3   OH2 8924   8.088   2.560   1.033
 3016TIP3    H1 8925   8.008   2.555   1.086
 3016TIP3    H2 8926   8.057   2.569   0.943
 3017TIP3   OH2 8927   5.811   4.530   1.996
 3017TIP3    H1 8928   5.858   4.601   1.953
 3017TIP3    H2 8929   5.853   4.521   2.082
 3018TIP3   OH2 8930   1.733   3.697   4.080
 3018TIP3    H1 8931   1.779   3.781   4.070
 3018TIP3    H2 8932   1.658   3.704   4.021
 3019TIP3   OH2 8933   2.268   4.413   6.019
 3019TIP3    H1 8934   2.321   4.362   6.081
 3019TIP3    H2 8935   2.284   4.504   6.043
 3020TIP3   OH2 8936   5.727   2.602   6.917
 3020TIP3    H1 8937   5.741   2.516   6.877
 3020TIP3    H2 8938   5.788   2.604   6.990
 3021TIP3   OH2 8939   9.154   2.385   6.741
 3021TIP3    H1 8940   9.122   2.338   6.663
 3021TIP3    H2 8941   9.246   2.361   6.747
 3022TIP3   OH2 8942   2.545   0.087   5.352
 3022TIP3    H1 8943   2.552   0.178   5.382
 3022TIP3    H2 8944   2.468   0.087   5.295
 3023TIP3   OH2 8945   2.695   7.923   5.194
 3023TIP3    H1 8946   2.614   7.924   5.245
 3023TIP3    H2 8947   2.727   7.833   5.201
 3024TIP3   OH2 8948   7.932   1.705   2.184
 3024TIP3    H1 8949   7.854   1.744   2.223
 3024TIP3    H2 8950   7.899   1.655   2.109
 3025TIP3   OH2 8951   1.535   0.287   0.096
 3025TIP3    H1 8952   1.574   0.329   0.020
 3025TIP3    H2 8953   1.603   0.227   0.128
 3026TIP3   OH2 8954   5.843   1.600   4.815
 3026TIP3    H1 8955   5.761   1.559   4.784
 3026TIP3    H2 8956   5.852   1.678   4.761
 3027TIP3   OH2 8957   4.770   2.364   6.893
 3027TIP3    H1 8958   4.688   2.365   6.844
 3027TIP3    H2 8959   4.748   2.406   6.977
 3028TIP3   OH2 8960   0.909   6.540   3.328
 3028TIP3    H1 8961   0.873   6.510   3.245
 3028TIP3    H2 8962   0.846   6.510   3.394
 3029TIP3   OH2 8963   1.843   3.755   4.462
 3029TIP3    H1 8964   1.892   3.778   4.383
 3029TIP3    H2 8965   1.889   3.679   4.497
 3030TIP3   OH2 8966   9.507   3.257   7.314
 3030TIP3    H1 8967   9.498   3.167   7.282
 3030TIP3    H2 8968   9.560   3.247   7.394
 3031TIP3   OH2 8969   2.843   6.338   3.210
 3031TIP3    H1 8970   2.874   6.374   3.293
 3031TIP3    H2 8971   2.796   6.411   3.169
 3032TIP3   OH2 8972   8.749   3.290   3.122
 3032TIP3    H1 8973   8.689   3.355   3.158
 3032TIP3    H2 8974   8.737   3.213   3.178
 3033TIP3   OH2 8975   4.537   1.763   2.359
 3033TIP3    H1 8976   4.592   1.709   2.303
 3033TIP3    H2 8977   4.598   1.800   2.423
 3034TIP3   OH2 8978   2.621   2.067   4.797
 3034TIP3    H1 8979   2.611   2.104   4.885
 3034TIP3    H2 8980   2.600   2.139   4.738
 3035TIP3   OH2 8981   3.146   6.438   6.985
 3035TIP3    H1 8982   3.207   6.370   6.954
 3035TIP3    H2 8983   3.134   6.418   7.078
 3036TIP3   OH2 8984   8.676   5.808   3.898
 3036TIP3    H1 8985   8.628   5.748   3.840
 3036TIP3    H2 8986   8.734   5.752   3.948
 3037TIP3   OH2 8987   3.503   3.769   7.415
 3037TIP3    H1 8988   3.527   3.850   7.459
 3037TIP3    H2 8989   3.426   3.738   7.462
 3038TIP3   OH2 8990   0.427   4.465   5.009
 3038TIP3    H1 8991   0.371   4.408   4.955
 3038TIP3    H2 8992   0.511   4.464   4.963
 3039TIP3   OH2 8993   6.149   5.573   3.819
 3039TIP3    H1 8994   6.222   5.604   3.767
 3039TIP3    H2 8995   6.181   5.492   3.860
 3040TIP3   OH2 8996   2.520   3.033   2.763
 3040TIP3    H1 8997   2.437   3.052   2.806
 3040TIP3    H2 8998   2.580   3.012   2.834
 3041TIP3   OH2 8999   0.376   2.433   0.137
 3041TIP3    H1 9000   0.328   2.508   0.173
 3041TIP3    H2 9001   0.400   2.380   0.213
 3042TIP3   OH2 9002   1.209   0.512   0.042
 3042TIP3    H1 9003   1.227   0.587  -0.016
 3042TIP3    H2 9004   1.234   0.543   0.129
 3043TIP3   OH2 9005   1.492   0.722   2.092
 3043TIP3    H1 9006   1.489   0.742   1.998
 3043TIP3    H2 9007   1.410   0.759   2.127
 3044TIP3   OH2 9008   2.885   8.016   4.049
 3044TIP3    H1 9009   2.869   7.928   4.015
 3044TIP3    H2 9010   2.809   8.067   4.020
 3045TIP3   OH2 9011   6.240   1.790   5.259
 3045TIP3    H1 9012   6.147   1.790   5.237
 3045TIP3    H2 9013   6.243   1.774   5.353
 3046TIP3   OH2 9014   7.778   4.614   6.660
 3046TIP3    H1 9015   7.819   4.603   6.574
 3046TIP3    H2 9016   7.687   4.639   6.639
 3047TIP3   OH2 9017   7.547   3.614   0.539
 3047TIP3    H1 9018   7.567   3.702   0.571
 3047TIP3    H2 9019   7.614   3.597   0.473
 3048TIP3   OH2 9020   6.122   4.459   5.792
 3048TIP3    H1 9021   6.207   4.504   5.784
 3048TIP3    H2 9022   6.130   4.383   5.735
 3049TIP3   OH2 9023   5.288   5.550   1.853
 3049TIP3    H1 9024   5.219   5.528   1.791
 3049TIP3    H2 9025   5.364   5.500   1.823
 3050TIP3   OH2 9026   0.267   7.317   7.113
 3050TIP3    H1 9027   0.327   7.347   7.045
 3050TIP3    H2 9028   0.212   7.394   7.132
 3051TIP3   OH2 9029   1.702   8.160   5.893
 3051TIP3    H1 9030   1.717   8.091   5.828
 3051TIP3    H2 9031   1.732   8.122   5.976
 3052TIP3   OH2 9032   8.725   2.433   0.920
 3052TIP3    H1 9033   8.777   2.361   0.882
 3052TIP3    H2 9034   8.789   2.502   0.938
 3053TIP3   OH2 9035   4.386   3.802   3.604
 3053TIP3    H1 9036   4.452   3.840   3.546
 3053TIP3    H2 9037   4.323   3.873   3.618
 3054TIP3   OH2 9038   7.589   6.134   6.957
 3054TIP3    H1 9039   7.684   6.133   6.943
 3054TIP3    H2 9040   7.568   6.044   6.982
 3055TIP3   OH2 9041   9.144   8.248   7.305
 3055TIP3    H1 9042   9.075   8.184   7.291
 3055TIP3    H2 9043   9.212   8.226   7.242
 3056TIP3   OH2 9044   5.057   2.220   0.603
 3056TIP3    H1 9045   5.022   2.267   0.679
 3056TIP3    H2 9046   5.120   2.159   0.641
 3057TIP3   OH2 9047   8.997   5.143   3.303
 3057TIP3    H1 9048   8.951   5.221   3.334
 3057TIP3    H2 9049   9.058   5.176   3.238
 3058TIP3   OH2 9050   9.280   0.459   6.710
 3058TIP3    H1 9051   9.366   0.501   6.718
 3058TIP3    H2 9052   9.236   0.508   6.641
 3059TIP3   OH2 9053   8.395   0.942   2.811
 3059TIP3    H1 9054   8.357   0.864   2.770
 3059TIP3    H2 9055   8.475   0.958   2.762
 3060TIP3   OH2 9056   6.654   1.173   6.598
 3060TIP3    H1 9057   6.679   1.099   6.654
 3060TIP3    H2 9058   6.718   1.173   6.527
 3061TIP3   OH2 9059   5.288   0.207   1.372
 3061TIP3    H1 9060   5.367   0.221   1.425
 3061TIP3    H2 9061   5.235   0.147   1.425
 3062TIP3   OH2 9062   0.791   0.992   6.392
 3062TIP3    H1 9063   0.816   1.053   6.323
 3062TIP3    H2 9064   0.739   0.925   6.348
 3063TIP3   OH2 9065   8.695   1.808   2.509
 3063TIP3    H1 9066   8.671   1.762   2.589
 3063TIP3    H2 9067   8.659   1.754   2.438
 3064TIP3   OH2 9068   5.976   8.511   1.336
 3064TIP3    H1 9069   5.969   8.439   1.273
 3064TIP3    H2 9070   5.885   8.530   1.361
 3065TIP3   OH2 9071   8.628   0.900   7.118
 3065TIP3    H1 9072   8.563   0.916   7.051
 3065TIP3    H2 9073   8.586   0.926   7.200
 3066TIP3   OH2 9074   8.183   1.918   3.389
 3066TIP3    H1 9075   8.238   1.846   3.359
 3066TIP3    H2 9076   8.094   1.893   3.362
 3067TIP3   OH2 9077   0.540   0.190   0.094
 3067TIP3    H1 9078   0.509   0.146   0.014
 3067TIP3    H2 9079   0.631   0.162   0.102
 3068TIP3   OH2 9080   6.357   4.995   6.527
 3068TIP3    H1 9081   6.279   4.977   6.580
 3068TIP3    H2 9082   6.383   5.084   6.551
 3069TIP3   OH2 9083   6.951   2.522   3.207
 3069TIP3    H1 9084   7.031   2.524   3.260
 3069TIP3    H2 9085   6.978   2.557   3.122
 3070TIP3   OH2 9086   6.814   3.336   3.167
 3070TIP3    H1 9087   6.901   3.309   3.196
 3070TIP3    H2 9088   6.806   3.426   3.199
 3071TIP3   OH2 9089   5.359   0.427   4.575
 3071TIP3    H1 9090   5.434   0.401   4.629
 3071TIP3    H2 9091   5.289   0.367   4.602
 3072TIP3   OH2 9092   9.272   4.976   2.112
 3072TIP3    H1 9093   9.270   4.892   2.065
 3072TIP3    H2 9094   9.181   5.005   2.113
 3073TIP3   OH2 9095   4.678   4.579   1.005
 3073TIP3    H1 9096   4.685   4.672   1.026
 3073TIP3    H2 9097   4.684   4.534   1.089
 3074TIP3   OH2 9098   4.321   5.403   3.923
 3074TIP3    H1 9099   4.379   5.463   3.971
 3074TIP3    H2 9100   4.344   5.415   3.831
 3075TIP3   OH2 9101   6.166   0.624   5.653
 3075TIP3    H1 9102   6.221   0.642   5.577
 3075TIP3    H2 9103   6.171   0.529   5.664
 3076TIP3   OH2 9104   0.078   2.220   2.224
 3076TIP3    H1 9105   0.106   2.293   2.170
 3076TIP3    H2 9106   0.145   2.214   2.293
 3077TIP3   OH2 9107   0.512   8.742   5.372
 3077TIP3    H1 9108   0.498   8.664   5.317
 3077TIP3    H2 9109   0.600   8.730   5.407
 3078TIP3   OH2 9110   1.277   8.470   4.032
 3078TIP3    H1 9111   1.289   8.389   4.082
 3078TIP3    H2 9112   1.186   8.467   4.003
 3079TIP3   OH2 9113   8.901   2.552   4.535
 3079TIP3    H1 9114   8.928   2.619   4.598
 3079TIP3    H2 9115   8.983   2.526   4.492
 3080TIP3   OH2 9116   4.622   1.341   1.821
 3080TIP3    H1 9117   4.677   1.321   1.897
 3080TIP3    H2 9118   4.681   1.333   1.746
 3081TIP3   OH2 9119   9.256   4.384   1.648
 3081TIP3    H1 9120   9.174   4.431   1.662
 3081TIP3    H2 9121   9.230   4.301   1.609
 3082TIP3   OH2 9122   0.305   4.454   6.339
 3082TIP3    H1 9123   0.277   4.440   6.429
 3082TIP3    H2 9124   0.309   4.366   6.300
 3083TIP3   OH2 9125   6.866   8.919   6.835
 3083TIP3    H1 9126   6.795   8.860   6.860
 3083TIP3    H2 9127   6.889   8.964   6.917
 3084TIP3   OH2 9128   7.496   3.168   6.669
 3084TIP3    H1 9129   7.425   3.208   6.720
 3084TIP3    H2 9130   7.562   3.144   6.734
 3085TIP3   OH2 9131   0.216   1.492   0.968
 3085TIP3    H1 9132   0.187   1.583   0.973
 3085TIP3    H2 9133   0.297   1.495   0.918
 3086TIP3   OH2 9134   3.142   3.612   6.618
 3086TIP3    H1 9135   3.121   3.548   6.686
 3086TIP3    H2 9136   3.143   3.696   6.664
 3087TIP3   OH2 9137   9.243   3.342   1.243
 3087TIP3    H1 9138   9.201   3.401   1.181
 3087TIP3    H2 9139   9.279   3.399   1.311
 3088TIP3   OH2 9140   4.081   7.282   0.037
 3088TIP3    H1 9141   4.086   7.227  -0.041
 3088TIP3    H2 9142   4.159   7.259   0.088
 3089TIP3   OH2 9143   0.950   0.398   5.698
 3089TIP3    H1 9144   1.002   0.400   5.618
 3089TIP3    H2 9145   0.997   0.454   5.759
 3090TIP3   OH2 9146   3.685   1.799   6.666
 3090TIP3    H1 9147   3.737   1.877   6.648
 3090TIP3    H2 9148   3.717   1.734   6.604
 3091TIP3   OH2 9149   5.460   3.061   0.793
 3091TIP3    H1 9150   5.495   3.127   0.733
 3091TIP3    H2 9151   5.474   2.978   0.748
 3092TIP3   OH2 9152   2.041   5.828   2.708
 3092TIP3    H1 9153   2.003   5.812   2.622
 3092TIP3    H2 9154   2.000   5.763   2.765
 3093TIP3   OH2 9155   7.277   3.452   1.985
 3093TIP3    H1 9156   7.255   3.537   1.947
 3093TIP3    H2 9157   7.339   3.413   1.923
 3094TIP3   OH2 9158   8.216   6.264   6.760
 3094TIP3    H1 9159   8.305   6.262   6.723
 3094TIP3    H2 9160   8.228   6.240   6.852
 3095TIP3   OH2 9161   1.066   6.312   1.793
 3095TIP3    H1 9162   0.983   6.265   1.808
 3095TIP3    H2 9163   1.131   6.260   1.840
 3096TIP3   OH2 9164   6.554   8.279   1.177
 3096TIP3    H1 9165   6.464   8.308   1.186
 3096TIP3    H2 9166   6.567   8.269   1.083
 3097TIP3   OH2 9167   6.811   0.771   5.876
 3097TIP3    H1 9168   6.770   0.753   5.791
 3097TIP3    H2 9169   6.786   0.696   5.931
 3098TIP3   OH2 9170   6.601   4.915   3.851
 3098TIP3    H1 9171   6.517   4.879   3.876
 3098TIP3    H2 9172   6.619   4.876   3.765
 3099TIP3   OH2 9173   7.581   4.084   5.369
 3099TIP3    H1 9174   7.564   3.991   5.354
 3099TIP3    H2 9175   7.538   4.129   5.296
 3100TIP3   OH2 9176   3.544   5.418   7.623
 3100TIP3    H1 9177   3.533   5.512   7.609
 3100TIP3    H2 9178   3.622   5.395   7.572
 3101TIP3   OH2 9179   4.729   6.270   2.977
 3101TIP3    H1 9180   4.748   6.205   2.909
 3101TIP3    H2 9181   4.802   6.331   2.974
 3102TIP3   OH2 9182   2.722   1.358   2.243
 3102TIP3    H1 9183   2.748   1.446   2.216
 3102TIP3    H2 9184   2.750   1.302   2.170
 3103TIP3   OH2 9185   7.563   8.908   0.694
 3103TIP3    H1 9186   7.481   8.943   0.731
 3103TIP3    H2 9187   7.632   8.959   0.736
 3104TIP3   OH2 9188   8.239   2.172   6.468
 3104TIP3    H1 9189   8.151   2.135   6.460
 3104TIP3    H2 9190   8.294   2.115   6.414
 3105TIP3   OH2 9191   1.007   0.768   2.902
 3105TIP3    H1 9192   0.920   0.729   2.891
 3105TIP3    H2 9193   1.001   0.817   2.984
 3106TIP3   OH2 9194   6.737   3.409   2.718
 3106TIP3    H1 9195   6.747   3.482   2.656
 3106TIP3    H2 9196   6.661   3.361   2.687
 3107TIP3   OH2 9197   8.116   4.785   3.954
 3107TIP3    H1 9198   8.108   4.844   3.879
 3107TIP3    H2 9199   8.063   4.825   4.022
 3108TIP3   OH2 9200   6.692   6.813   3.407
 3108TIP3    H1 9201   6.602   6.784   3.419
 3108TIP3    H2 9202   6.710   6.799   3.314
 3109TIP3   OH2 9203   9.365   4.510   0.601
 3109TIP3    H1 9204   9.317   4.571   0.656
 3109TIP3    H2 9205   9.398   4.444   0.661
 3110TIP3   OH2 9206   1.363   2.049   2.196
 3110TIP3    H1 9207   1.283   2.064   2.247
 3110TIP3    H2 9208   1.413   2.130   2.204
 3111TIP3   OH2 9209   8.223   7.453   7.464
 3111TIP3    H1 9210   8.229   7.496   7.379
 3111TIP3    H2 9211   8.236   7.524   7.528
 3112TIP3   OH2 9212   6.780   7.916   5.297
 3112TIP3    H1 9213   6.821   7.865   5.366
 3112TIP3    H2 9214   6.714   7.858   5.259
 3113TIP3   OH2 9215   9.517   0.974   1.445
 3113TIP3    H1 9216   9.493   1.054   1.398
 3113TIP3    H2 9217   9.493   0.991   1.536
 3114TIP3   OH2 9218   8.679   0.898   6.207
 3114TIP3    H1 9219   8.696   0.804   6.213
 3114TIP3    H2 9220   8.749   0.932   6.152
 3115TIP3   OH2 9221   6.724   6.138   6.485
 3115TIP3    H1 9222   6.716   6.216   6.431
 3115TIP3    H2 9223   6.729   6.171   6.575
 3116TIP3   OH2 9224   2.514   4.226   1.126
 3116TIP3    H1 9225   2.569   4.149   1.134
 3116TIP3    H2 9226   2.425   4.192   1.120
 3117TIP3   OH2 9227   5.233   1.358   2.869
 3117TIP3    H1 9228   5.185   1.289   2.915
 3117TIP3    H2 9229   5.267   1.415   2.939
 3118TIP3   OH2 9230   6.730   5.565   6.880
 3118TIP3    H1 9231   6.730   5.599   6.790
 3118TIP3    H2 9232   6.817   5.588   6.913
 3119TIP3   OH2 9233   3.465   0.797   2.948
 3119TIP3    H1 9234   3.490   0.883   2.914
 3119TIP3    H2 9235   3.405   0.761   2.882
 3120TIP3   OH2 9236   6.531   6.223   0.553
 3120TIP3    H1 9237   6.440   6.250   0.541
 3120TIP3    H2 9238   6.545   6.227   0.648
 3121TIP3   OH2 9239   5.064   4.503   4.620
 3121TIP3    H1 9240   5.053   4.542   4.707
 3121TIP3    H2 9241   5.028   4.415   4.628
 3122TIP3   OH2 9242   8.645   7.982   3.249
 3122TIP3    H1 9243   8.603   8.038   3.184
 3122TIP3    H2 9244   8.589   7.904   3.253
 3123TIP3   OH2 9245   9.302   5.854   6.364
 3123TIP3    H1 9246   9.282   5.765   6.333
 3123TIP3    H2 9247   9.224   5.880   6.413
 3124TIP3   OH2 9248   5.268   6.075   5.594
 3124TIP3    H1 9249   5.312   6.125   5.663
 3124TIP3    H2 9250   5.311   6.103   5.513
 3125TIP3   OH2 9251   5.485   4.776   1.493
 3125TIP3    H1 9252   5.442   4.752   1.411
 3125TIP3    H2 9253   5.575   4.748   1.482
 3126TIP3   OH2 9254   3.176   1.603   2.702
 3126TIP3    H1 9255   3.201   1.673   2.763
 3126TIP3    H2 9256   3.102   1.559   2.745
 3127TIP3   OH2 9257   5.307   4.705   4.240
 3127TIP3    H1 9258   5.397   4.727   4.218
 3127TIP3    H2 9259   5.288   4.626   4.191
 3128TIP3   OH2 9260   1.025   8.427   3.097
 3128TIP3    H1 9261   1.035   8.347   3.045
 3128TIP3    H2 9262   1.096   8.423   3.161
 3129TIP3   OH2 9263   2.646   8.147   0.264
 3129TIP3    H1 9264   2.658   8.056   0.291
 3129TIP3    H2 9265   2.561   8.148   0.219
 3130TIP3   OH2 9266   3.527   7.416   4.149
 3130TIP3    H1 9267   3.540   7.347   4.214
 3130TIP3    H2 9268   3.598   7.478   4.166
 3131TIP3   OH2 9269   3.789   2.704   2.395
 3131TIP3    H1 9270   3.787   2.772   2.462
 3131TIP3    H2 9271   3.784   2.752   2.312
 3132TIP3   OH2 9272   5.691   5.933   6.059
 3132TIP3    H1 9273   5.761   5.988   6.024
 3132TIP3    H2 9274   5.654   5.890   5.983
 3133TIP3   OH2 9275   0.398   6.425   7.597
 3133TIP3    H1 9276   0.407   6.439   7.503
 3133TIP3    H2 9277   0.371   6.334   7.605
 3134TIP3   OH2 9278   7.611   4.342   1.279
 3134TIP3    H1 9279   7.574   4.284   1.345
 3134TIP3    H2 9280   7.602   4.294   1.197
 3135TIP3   OH2 9281   0.168   4.669   6.634
 3135TIP3    H1 9282   0.260   4.648   6.617
 3135TIP3    H2 9283   0.149   4.627   6.718
 3136TIP3   OH2 9284   3.161   6.023   1.807
 3136TIP3    H1 9285   3.109   5.944   1.799
 3136TIP3    H2 9286   3.169   6.056   1.718
 3137TIP3   OH2 9287   8.769   1.898   0.408
 3137TIP3    H1 9288   8.826   1.822   0.419
 3137TIP3    H2 9289   8.750   1.926   0.498
 3138TIP3   OH2 9290   4.793   5.924   3.082
 3138TIP3    H1 9291   4.726   5.905   3.147
 3138TIP3    H2 9292   4.867   5.960   3.132
 3139TIP3   OH2 9293   1.190   3.103   6.439
 3139TIP3    H1 9294   1.150   3.155   6.369
 3139TIP3    H2 9295   1.192   3.013   6.404
 3140TIP3   OH2 9296   4.113   7.752   7.744
 3140TIP3    H1 9297   4.121   7.712   7.831
 3140TIP3    H2 9298   4.200   7.744   7.706
 3141TIP3   OH2 9299   4.667   1.985   5.414
 3141TIP3    H1 9300   4.758   1.977   5.386
 3141TIP3    H2 9301   4.616   1.950   5.341
 3142TIP3   OH2 9302   5.792   1.752   0.784
 3142TIP3    H1 9303   5.870   1.702   0.762
 3142TIP3    H2 9304   5.824   1.822   0.841
 3143TIP3   OH2 9305   6.188   1.715   5.517
 3143TIP3    H1 9306   6.198   1.685   5.607
 3143TIP3    H2 9307   6.128   1.651   5.478
 3144TIP3   OH2 9308   1.428   7.962   5.861
 3144TIP3    H1 9309   1.418   8.051   5.826
 3144TIP3    H2 9310   1.412   7.971   5.955
 3145TIP3   OH2 9311   4.069   8.656   1.214
 3145TIP3    H1 9312   4.021   8.576   1.237
 3145TIP3    H2 9313   4.118   8.677   1.294
 3146TIP3   OH2 9314   6.999   4.157   0.791
 3146TIP3    H1 9315   7.071   4.195   0.742
 3146TIP3    H2 9316   6.937   4.229   0.803
 3147TIP3   OH2 9317   7.493   1.515   0.729
 3147TIP3    H1 9318   7.464   1.600   0.764
 3147TIP3    H2 9319   7.418   1.483   0.679
 3148TIP3   OH2 9320   5.354   3.661   7.676
 3148TIP3    H1 9321   5.345   3.653   7.581
 3148TIP3    H2 9322   5.355   3.571   7.709
 3149TIP3   OH2 9323   1.373   1.282   3.359
 3149TIP3    H1 9324   1.325   1.345   3.412
 3149TIP3    H2 9325   1.331   1.198   3.379
 3150TIP3   OH2 9326   6.173   7.870   2.957
 3150TIP3    H1 9327   6.158   7.776   2.964
 3150TIP3    H2 9328   6.184   7.899   3.047
 3151TIP3   OH2 9329   4.056   4.940   7.015
 3151TIP3    H1 9330   3.987   4.874   7.004
 3151TIP3    H2 9331   4.130   4.907   6.964
 3152TIP3   OH2 9332   1.955   8.453   7.253
 3152TIP3    H1 9333   1.959   8.446   7.348
 3152TIP3    H2 9334   2.046   8.446   7.224
 3153TIP3   OH2 9335   2.587   6.663   1.292
 3153TIP3    H1 9336   2.522   6.695   1.354
 3153TIP3    H2 9337   2.637   6.741   1.267
 3154TIP3   OH2 9338   2.627   5.321   6.330
 3154TIP3    H1 9339   2.608   5.305   6.423
 3154TIP3    H2 9340   2.600   5.412   6.315
 3155TIP3   OH2 9341   9.076   6.860   6.582
 3155TIP3    H1 9342   9.091   6.766   6.578
 3155TIP3    H2 9343   9.098   6.892   6.494
 3156TIP3   OH2 9344   8.664   1.357   7.408
 3156TIP3    H1 9345   8.596   1.423   7.418
 3156TIP3    H2 9346   8.736   1.402   7.364
 3157TIP3   OH2 9347   8.192   3.766   4.921
 3157TIP3    H1 9348   8.172   3.694   4.981
 3157TIP3    H2 9349   8.224   3.723   4.841
 3158TIP3   OH2 9350   0.803   2.265   7.176
 3158TIP3    H1 9351   0.843   2.179   7.182
 3158TIP3    H2 9352   0.863   2.316   7.121
 3159TIP3   OH2 9353   0.864   4.032   4.103
 3159TIP3    H1 9354   0.768   4.032   4.097
 3159TIP3    H2 9355   0.891   4.106   4.049
 3160TIP3   OH2 9356   8.023   8.266   4.083
 3160TIP3    H1 9357   8.055   8.176   4.085
 3160TIP3    H2 9358   8.082   8.311   4.022
 3161TIP3   OH2 9359   2.254   6.011   0.342
 3161TIP3    H1 9360   2.231   6.101   0.366
 3161TIP3    H2 9361   2.349   6.013   0.332
 3162TIP3   OH2 9362   6.355   2.681   6.937
 3162TIP3    H1 9363   6.363   2.591   6.967
 3162TIP3    H2 9364   6.444   2.705   6.911
 3163TIP3   OH2 9365   5.843   3.065   4.709
 3163TIP3    H1 9366   5.812   3.038   4.623
 3163TIP3    H2 9367   5.905   2.996   4.735
 3164TIP3   OH2 9368   4.008   3.192   3.675
 3164TIP3    H1 9369   3.997   3.286   3.664
 3164TIP3    H2 9370   3.920   3.159   3.690
 3165TIP3   OH2 9371   2.851   1.579   2.115
 3165TIP3    H1 9372   2.898   1.662   2.122
 3165TIP3    H2 9373   2.920   1.514   2.100
 3166TIP3   OH2 9374   6.937   1.062   1.960
 3166TIP3    H1 9375   6.912   1.124   1.891
 3166TIP3    H2 9376   6.918   1.107   2.042
 3167TIP3   OH2 9377   2.195   7.097   6.262
 3167TIP3    H1 9378   2.121   7.037   6.265
 3167TIP3    H2 9379   2.182   7.155   6.336
 3168TIP3   OH2 9380   2.536   0.921   1.227
 3168TIP3    H1 9381   2.598   0.989   1.204
 3168TIP3    H2 9382   2.465   0.930   1.164
 3169TIP3   OH2 9383   1.120   4.101   6.925
 3169TIP3    H1 9384   1.044   4.077   6.872
 3169TIP3    H2 9385   1.084   4.121   7.012
 3170TIP3   OH2 9386   7.785   1.622   7.242
 3170TIP3    H1 9387   7.802   1.550   7.181
 3170TIP3    H2 9388   7.816   1.590   7.326
 3171TIP3   OH2 9389   0.249   7.367   5.746
 3171TIP3    H1 9390   0.331   7.329   5.712
 3171TIP3    H2 9391   0.248   7.456   5.710
 3172TIP3   OH2 9392   3.055   3.210   6.550
 3172TIP3    H1 9393   2.984   3.220   6.613
 3172TIP3    H2 9394   3.119   3.155   6.595
 3173TIP3   OH2 9395   6.075   2.651   3.878
 3173TIP3    H1 9396   6.106   2.563   3.861
 3173TIP3    H2 9397   6.072   2.693   3.792
 3174TIP3   OH2 9398   4.264   2.437   3.845
 3174TIP3    H1 9399   4.183   2.454   3.893
 3174TIP3    H2 9400   4.240   2.442   3.753
 3175TIP3   OH2 9401   7.102   4.397   3.622
 3175TIP3    H1 9402   7.104   4.423   3.530
 3175TIP3    H2 9403   7.118   4.479   3.670
 3176TIP3   OH2 9404   0.666   6.709   2.182
 3176TIP3    H1 9405   0.674   6.650   2.257
 3176TIP3    H2 9406   0.630   6.654   2.113
 3177TIP3   OH2 9407   7.747   2.375   3.267
 3177TIP3    H1 9408   7.739   2.369   3.172
 3177TIP3    H2 9409   7.818   2.437   3.280
 3178TIP3   OH2 9410   2.865   3.229   1.421
 3178TIP3    H1 9411   2.914   3.157   1.383
 3178TIP3    H2 9412   2.859   3.207   1.514
 3179TIP3   OH2 9413   1.332   8.270   6.724
 3179TIP3    H1 9414   1.355   8.273   6.631
 3179TIP3    H2 9415   1.410   8.303   6.768
 3180TIP3   OH2 9416   6.638   0.691   4.091
 3180TIP3    H1 9417   6.552   0.669   4.126
 3180TIP3    H2 9418   6.655   0.625   4.024
 3181TIP3   OH2 9419   1.517   8.856   4.258
 3181TIP3    H1 9420   1.427   8.822   4.260
 3181TIP3    H2 9421   1.551   8.827   4.173
 3182TIP3   OH2 9422   1.813   4.403   7.071
 3182TIP3    H1 9423   1.786   4.424   7.160
 3182TIP3    H2 9424   1.781   4.315   7.056
 3183TIP3   OH2 9425   3.586   4.704   0.579
 3183TIP3    H1 9426   3.569   4.648   0.654
 3183TIP3    H2 9427   3.662   4.756   0.605
 3184TIP3   OH2 9428   9.546   1.608   0.499
 3184TIP3    H1 9429   9.570   1.563   0.581
 3184TIP3    H2 9430   9.457   1.578   0.481
 3185TIP3   OH2 9431   4.154   1.748   4.721
 3185TIP3    H1 9432   4.154   1.806   4.798
 3185TIP3    H2 9433   4.245   1.718   4.715
 3186TIP3   OH2 9434   4.950   8.829   6.968
 3186TIP3    H1 9435   5.002   8.826   6.888
 3186TIP3    H2 9436   4.952   8.739   7.001
 3187TIP3   OH2 9437   2.379   4.114   2.621
 3187TIP3    H1 9438   2.303   4.166   2.594
 3187TIP3    H2 9439   2.431   4.104   2.542
 3188TIP3   OH2 9440   7.745   2.497   6.276
 3188TIP3    H1 9441   7.798   2.576   6.286
 3188TIP3    H2 9442   7.686   2.498   6.351
 3189TIP3   OH2 9443   5.104   5.985   0.990
 3189TIP3    H1 9444   5.019   5.977   0.947
 3189TIP3    H2 9445   5.094   5.937   1.072
 3190TIP3   OH2 9446   5.635   5.924   6.831
 3190TIP3    H1 9447   5.671   5.838   6.852
 3190TIP3    H2 9448   5.660   5.939   6.740
 3191TIP3   OH2 9449   3.476   4.106   2.725
 3191TIP3    H1 9450   3.438   4.018   2.716
 3191TIP3    H2 9451   3.434   4.143   2.802
 3192TIP3   OH2 9452   3.823   4.613   3.836
 3192TIP3    H1 9453   3.884   4.553   3.792
 3192TIP3    H2 9454   3.753   4.627   3.773
 3193TIP3   OH2 9455   7.113   6.018   7.498
 3193TIP3    H1 9456   7.147   6.000   7.585
 3193TIP3    H2 9457   7.019   6.001   7.505
 3194TIP3   OH2 9458   2.876   0.087   0.840
 3194TIP3    H1 9459   2.956   0.036   0.853
 3194TIP3    H2 9460   2.903   0.160   0.784
 3195TIP3   OH2 9461   8.380   0.691   7.760
 3195TIP3    H1 9462   8.379   0.606   7.716
 3195TIP3    H2 9463   8.312   0.742   7.717
 3196TIP3   OH2 9464   2.506   4.479   7.349
 3196TIP3    H1 9465   2.426   4.532   7.341
 3196TIP3    H2 9466   2.488   4.419   7.421
 3197TIP3   OH2 9467   7.240   7.962   0.727
 3197TIP3    H1 9468   7.299   7.902   0.681
 3197TIP3    H2 9469   7.292   7.996   0.800
 3198TIP3   OH2 9470   9.257   0.071   5.307
 3198TIP3    H1 9471   9.319   0.004   5.337
 3198TIP3    H2 9472   9.194   0.023   5.253
 3199TIP3   OH2 9473   5.434   5.977   3.996
 3199TIP3    H1 9474   5.529   5.969   4.006
 3199TIP3    H2 9475   5.399   5.950   4.081
 3200TIP3   OH2 9476   2.314   7.719   6.278
 3200TIP3    H1 9477   2.343   7.642   6.230
 3200TIP3    H2 9478   2.276   7.685   6.359
 3201TIP3   OH2 9479   2.046   5.304   0.544
 3201TIP3    H1 9480   2.116   5.300   0.609
 3201TIP3    H2 9481   2.025   5.397   0.538
 3202TIP3   OH2 9482   5.142   1.720   0.833
 3202TIP3    H1 9483   5.158   1.745   0.742
 3202TIP3    H2 9484   5.201   1.646   0.848
 3203TIP3   OH2 9485   3.884   5.879   3.452
 3203TIP3    H1 9486   3.943   5.939   3.407
 3203TIP3    H2 9487   3.886   5.908   3.544
 3204TIP3   OH2 9488   1.205   3.966   7.578
 3204TIP3    H1 9489   1.159   3.957   7.661
 3204TIP3    H2 9490   1.296   3.984   7.603
 3205TIP3   OH2 9491   7.582   8.879   3.958
 3205TIP3    H1 9492   7.536   8.925   3.887
 3205TIP3    H2 9493   7.526   8.805   3.980
 3206TIP3   OH2 9494   7.704   2.700   2.360
 3206TIP3    H1 9495   7.641   2.701   2.432
 3206TIP3    H2 9496   7.658   2.654   2.289
 3207TIP3   OH2 9497   0.303   7.216   1.762
 3207TIP3    H1 9498   0.305   7.291   1.821
 3207TIP3    H2 9499   0.240   7.241   1.694
 3208TIP3   OH2 9500   0.563   2.612   5.190
 3208TIP3    H1 9501   0.635   2.549   5.191
 3208TIP3    H2 9502   0.485   2.559   5.175
 3209TIP3   OH2 9503   1.084   3.970   7.322
 3209TIP3    H1 9504   1.114   3.951   7.411
 3209TIP3    H2 9505   1.152   3.933   7.266
 3210TIP3   OH2 9506   4.794   2.859   3.049
 3210TIP3    H1 9507   4.821   2.868   3.140
 3210TIP3    H2 9508   4.722   2.795   3.051
 3211TIP3   OH2 9509   7.411   2.327   2.478
 3211TIP3    H1 9510   7.363   2.373   2.548
 3211TIP3    H2 9511   7.342   2.289   2.423
 3212TIP3   OH2 9512   7.406   6.349   0.959
 3212TIP3    H1 9513   7.452   6.265   0.962
 3212TIP3    H2 9514   7.353   6.350   1.039
 3213TIP3   OH2 9515   1.925   0.751   5.704
 3213TIP3    H1 9516   1.849   0.694   5.715
 3213TIP3    H2 9517   1.993   0.694   5.668
 3214TIP3   OH2 9518   6.361   8.193   2.830
 3214TIP3    H1 9519   6.418   8.148   2.768
 3214TIP3    H2 9520   6.272   8.177   2.798
 3215TIP3   OH2 9521   3.549   1.422   7.711
 3215TIP3    H1 9522   3.534   1.399   7.802
 3215TIP3    H2 9523   3.624   1.482   7.713
 3216TIP3   OH2 9524   3.743   2.901   3.726
 3216TIP3    H1 9525   3.717   2.879   3.636
 3216TIP3    H2 9526   3.838   2.900   3.724
 3217TIP3   OH2 9527   1.169   6.717   4.464
 3217TIP3    H1 9528   1.164   6.638   4.411
 3217TIP3    H2 9529   1.153   6.788   4.402
 3218TIP3   OH2 9530   7.964   8.625   5.345
 3218TIP3    H1 9531   7.942   8.624   5.252
 3218TIP3    H2 9532   7.965   8.718   5.368
 3219TIP3   OH2 9533   4.464   1.737   3.772
 3219TIP3    H1 9534   4.549   1.760   3.810
 3219TIP3    H2 9535   4.406   1.727   3.847
 3220TIP3   OH2 9536   4.167   7.802   6.610
 3220TIP3    H1 9537   4.104   7.796   6.539
 3220TIP3    H2 9538   4.114   7.790   6.689
 3221TIP3   OH2 9539   5.579   7.596   5.647
 3221TIP3    H1 9540   5.535   7.668   5.692
 3221TIP3    H2 9541   5.637   7.558   5.713
 3222TIP3   OH2 9542   4.778   1.062   2.958
 3222TIP3    H1 9543   4.712   1.050   2.890
 3222TIP3    H2 9544   4.855   1.016   2.925
 3223TIP3   OH2 9545   0.256   5.254   4.883
 3223TIP3    H1 9546   0.278   5.333   4.833
 3223TIP3    H2 9547   0.277   5.276   4.973
 3224TIP3   OH2 9548   6.681   8.457   7.234
 3224TIP3    H1 9549   6.667   8.369   7.201
 3224TIP3    H2 9550   6.776   8.467   7.236
 3225TIP3   OH2 9551   7.208   0.029   0.316
 3225TIP3    H1 9552   7.157   0.085   0.374
 3225TIP3    H2 9553   7.155   0.020   0.237
 3226TIP3   OH2 9554   5.461   8.964   0.077
 3226TIP3    H1 9555   5.477   9.049   0.117
 3226TIP3    H2 9556   5.508   8.902   0.132
 3227TIP3   OH2 9557   9.296   1.779   2.977
 3227TIP3    H1 9558   9.274   1.685   2.977
 3227TIP3    H2 9559   9.336   1.794   2.891
 3228TIP3   OH2 9560   6.802   3.963   7.477
 3228TIP3    H1 9561   6.872   3.998   7.533
 3228TIP3    H2 9562   6.778   3.881   7.519
 3229TIP3   OH2 9563   7.381   3.935   7.036
 3229TIP3    H1 9564   7.325   3.950   6.960
 3229TIP3    H2 9565   7.446   4.006   7.032
 3230TIP3   OH2 9566   6.969   3.179   5.915
 3230TIP3    H1 9567   6.960   3.250   5.851
 3230TIP3    H2 9568   6.879   3.160   5.942
 3231TIP3   OH2 9569   8.311   8.874   3.954
 3231TIP3    H1 9570   8.222   8.907   3.945
 3231TIP3    H2 9571   8.318   8.848   4.046
 3232TIP3   OH2 9572   8.288   0.995   5.369
 3232TIP3    H1 9573   8.358   1.057   5.391
 3232TIP3    H2 9574   8.221   1.010   5.435
 3233TIP3   OH2 9575   1.136   3.510   3.956
 3233TIP3    H1 9576   1.047   3.488   3.984
 3233TIP3    H2 9577   1.177   3.426   3.936
 3234TIP3   OH2 9578   8.169   3.291   1.002
 3234TIP3    H1 9579   8.201   3.314   1.089
 3234TIP3    H2 9580   8.144   3.199   1.009
 3235TIP3   OH2 9581   6.868   8.033   5.047
 3235TIP3    H1 9582   6.818   7.985   4.981
 3235TIP3    H2 9583   6.851   7.986   5.129
 3236TIP3   OH2 9584   5.787   0.155   2.537
 3236TIP3    H1 9585   5.710   0.199   2.501
 3236TIP3    H2 9586   5.773   0.063   2.517
 3237TIP3   OH2 9587   1.735   1.566   0.180
 3237TIP3    H1 9588   1.781   1.571   0.264
 3237TIP3    H2 9589   1.797   1.524   0.121
 3238TIP3   OH2 9590   4.762   8.933   3.646
 3238TIP3    H1 9591   4.803   8.866   3.591
 3238TIP3    H2 9592   4.815   9.012   3.632
 3239TIP3   OH2 9593   6.904   8.983   2.975
 3239TIP3    H1 9594   6.866   9.029   2.900
 3239TIP3    H2 9595   6.944   9.051   3.028
 3240TIP3   OH2 9596   5.078   7.220   1.091
 3240TIP3    H1 9597   5.023   7.208   1.169
 3240TIP3    H2 9598   5.095   7.314   1.089
 3241TIP3   OH2 9599   8.881   1.225   7.699
 3241TIP3    H1 9600   8.899   1.146   7.750
 3241TIP3    H2 9601   8.827   1.193   7.626
 3242TIP3   OH2 9602   0.787   1.941   5.116
 3242TIP3    H1 9603   0.822   1.877   5.178
 3242TIP3    H2 9604   0.704   1.904   5.088
 3243TIP3   OH2 9605   0.467   3.776   5.206
 3243TIP3    H1 9606   0.491   3.782   5.299
 3243TIP3    H2 9607   0.549   3.792   5.159
 3244TIP3   OH2 9608   3.234   2.530   0.610
 3244TIP3    H1 9609   3.268   2.590   0.543
 3244TIP3    H2 9610   3.172   2.474   0.563
 3245TIP3   OH2 9611   4.846   3.879   1.252
 3245TIP3    H1 9612   4.787   3.952   1.234
 3245TIP3    H2 9613   4.930   3.919   1.274
 3246TIP3   OH2 9614   4.343   6.579   1.328
 3246TIP3    H1 9615   4.334   6.548   1.238
 3246TIP3    H2 9616   4.303   6.666   1.328
 3247TIP3   OH2 9617   4.483   3.546   3.389
 3247TIP3    H1 9618   4.458   3.633   3.358
 3247TIP3    H2 9619   4.406   3.513   3.434
 3248TIP3   OH2 9620   0.896   2.910   6.274
 3248TIP3    H1 9621   0.910   2.846   6.204
 3248TIP3    H2 9622   0.854   2.860   6.344
 3249TIP3   OH2 9623   4.645   3.637   7.303
 3249TIP3    H1 9624   4.561   3.592   7.312
 3249TIP3    H2 9625   4.674   3.616   7.214
 3250TIP3   OH2 9626   4.433   3.818   0.703
 3250TIP3    H1 9627   4.492   3.779   0.768
 3250TIP3    H2 9628   4.346   3.813   0.743
 3251TIP3   OH2 9629   5.222   5.078   5.403
 3251TIP3    H1 9630   5.269   5.003   5.367
 3251TIP3    H2 9631   5.262   5.154   5.362
 3252TIP3   OH2 9632   0.570   6.929   2.321
 3252TIP3    H1 9633   0.594   6.858   2.262
 3252TIP3    H2 9634   0.650   6.944   2.373
 3253TIP3   OH2 9635   4.208   6.089   5.774
 3253TIP3    H1 9636   4.277   6.046   5.724
 3253TIP3    H2 9637   4.130   6.081   5.720
 3254TIP3   OH2 9638   4.014   2.528   0.233
 3254TIP3    H1 9639   4.031   2.602   0.174
 3254TIP3    H2 9640   4.099   2.509   0.273
 3255TIP3   OH2 9641   6.823   6.318   0.312
 3255TIP3    H1 9642   6.813   6.352   0.223
 3255TIP3    H2 9643   6.831   6.223   0.300
 3256TIP3   OH2 9644   3.612   4.151   0.214
 3256TIP3    H1 9645   3.679   4.215   0.239
 3256TIP3    H2 9646   3.533   4.203   0.200
 3257TIP3   OH2 9647   5.817   5.178   6.199
 3257TIP3    H1 9648   5.878   5.109   6.173
 3257TIP3    H2 9649   5.865   5.229   6.265
 3258TIP3   OH2 9650   4.162   5.630   0.462
 3258TIP3    H1 9651   4.107   5.552   0.454
 3258TIP3    H2 9652   4.172   5.660   0.372
 3259TIP3   OH2 9653   2.254   8.104   1.681
 3259TIP3    H1 9654   2.211   8.137   1.602
 3259TIP3    H2 9655   2.308   8.031   1.650
 3260TIP3   OH2 9656   5.075   1.343   1.485
 3260TIP3    H1 9657   5.091   1.399   1.561
 3260TIP3    H2 9658   5.106   1.393   1.410
 3261TIP3   OH2 9659   7.428   0.278   4.486
 3261TIP3    H1 9660   7.350   0.258   4.538
 3261TIP3    H2 9661   7.421   0.371   4.468
 3262TIP3   OH2 9662   8.124   1.915   6.197
 3262TIP3    H1 9663   8.127   2.008   6.171
 3262TIP3    H2 9664   8.076   1.872   6.126
 3263TIP3   OH2 9665   5.654   8.258   3.224
 3263TIP3    H1 9666   5.606   8.176   3.237
 3263TIP3    H2 9667   5.670   8.292   3.312
 3264TIP3   OH2 9668   2.697   3.394   3.695
 3264TIP3    H1 9669   2.623   3.358   3.646
 3264TIP3    H2 9670   2.699   3.486   3.670
 3265TIP3   OH2 9671   7.282   2.129   4.915
 3265TIP3    H1 9672   7.240   2.043   4.920
 3265TIP3    H2 9673   7.358   2.116   4.858
 3266TIP3   OH2 9674   0.010   5.534   2.478
 3266TIP3    H1 9675  -0.044   5.598   2.523
 3266TIP3    H2 9676   0.091   5.582   2.457
 3267TIP3   OH2 9677   3.443   1.003   6.569
 3267TIP3    H1 9678   3.370   0.942   6.558
 3267TIP3    H2 9679   3.518   0.947   6.587
 3268TIP3   OH2 9680   4.803   8.279   2.704
 3268TIP3    H1 9681   4.708   8.291   2.715
 3268TIP3    H2 9682   4.819   8.299   2.612
 3269TIP3   OH2 9683   1.169   8.209   4.701
 3269TIP3    H1 9684   1.246   8.185   4.753
 3269TIP3    H2 9685   1.131   8.283   4.748
 3270TIP3   OH2 9686   4.020   8.183   0.036
 3270TIP3    H1 9687   3.943   8.181  -0.020
 3270TIP3    H2 9688   3.988   8.154   0.122
 3271TIP3   OH2 9689   4.738   6.995   4.105
 3271TIP3    H1 9690   4.720   6.953   4.189
 3271TIP3    H2 9691   4.797   6.935   4.060
 3272TIP3   OH2 9692   6.392   4.251   7.333
 3272TIP3    H1 9693   6.465   4.244   7.395
 3272TIP3    H2 9694   6.433   4.280   7.251
 3273TIP3   OH2 9695   8.188   7.326   1.456
 3273TIP3    H1 9696   8.120   7.278   1.410
 3273TIP3    H2 9697   8.203   7.276   1.536
 3274TIP3   OH2 9698   6.496   5.734   6.090
 3274TIP3    H1 9699   6.507   5.650   6.135
 3274TIP3    H2 9700   6.579   5.747   6.044
 3275TIP3   OH2 9701   7.053   6.832   7.541
 3275TIP3    H1 9702   6.973   6.813   7.589
 3275TIP3    H2 9703   7.058   6.928   7.540
 3276TIP3   OH2 9704   5.469   3.936   7.599
 3276TIP3    H1 9705   5.450   3.866   7.662
 3276TIP3    H2 9706   5.564   3.943   7.599
 3277TIP3   OH2 9707   5.781   7.605   0.411
 3277TIP3    H1 9708   5.736   7.609   0.326
 3277TIP3    H2 9709   5.849   7.672   0.405
 3278TIP3   OH2 9710   4.049   8.961   3.531
 3278TIP3    H1 9711   4.049   8.984   3.624
 3278TIP3    H2 9712   3.992   9.026   3.490
 3279TIP3   OH2 9713   6.316   1.815   4.990
 3279TIP3    H1 9714   6.283   1.820   5.079
 3279TIP3    H2 9715   6.255   1.867   4.938
 3280TIP3   OH2 9716   6.230   5.378   1.334
 3280TIP3    H1 9717   6.224   5.289   1.368
 3280TIP3    H2 9718   6.198   5.371   1.244
 3281TIP3   OH2 9719   4.066   3.216   1.879
 3281TIP3    H1 9720   4.021   3.262   1.808
 3281TIP3    H2 9721   3.997   3.164   1.921
 3282TIP3   OH2 9722   2.210   8.607   1.437
 3282TIP3    H1 9723   2.291   8.588   1.389
 3282TIP3    H2 9724   2.147   8.545   1.402
 3283TIP3   OH2 9725   7.813   2.462   1.835
 3283TIP3    H1 9726   7.794   2.554   1.849
 3283TIP3    H2 9727   7.730   2.417   1.851
 3284TIP3   OH2 9728   0.188   3.064   0.335
 3284TIP3    H1 9729   0.188   3.145   0.385
 3284TIP3    H2 9730   0.126   3.007   0.382
 3285TIP3   OH2 9731   7.669   7.734   3.028
 3285TIP3    H1 9732   7.583   7.694   3.037
 3285TIP3    H2 9733   7.652   7.818   2.985
 3286TIP3   OH2 9734   1.274   4.456   1.625
 3286TIP3    H1 9735   1.235   4.544   1.629
 3286TIP3    H2 9736   1.208   4.399   1.664
 3287TIP3   OH2 9737   2.411   7.041   0.308
 3287TIP3    H1 9738   2.348   6.970   0.302
 3287TIP3    H2 9739   2.464   7.034   0.228
 3288TIP3   OH2 9740   1.125   3.811   1.598
 3288TIP3    H1 9741   1.095   3.751   1.666
 3288TIP3    H2 9742   1.221   3.810   1.606
 3289TIP3   OH2 9743   6.605   8.812   1.751
 3289TIP3    H1 9744   6.661   8.811   1.673
 3289TIP3    H2 9745   6.527   8.860   1.724
 3290TIP3   OH2 9746   0.430   6.452   7.268
 3290TIP3    H1 9747   0.391   6.416   7.189
 3290TIP3    H2 9748   0.500   6.391   7.291
 3291TIP3   OH2 9749   2.997   2.217   6.311
 3291TIP3    H1 9750   3.025   2.135   6.270
 3291TIP3    H2 9751   3.072   2.275   6.303
 3292TIP3   OH2 9752   6.250   1.542   1.055
 3292TIP3    H1 9753   6.282   1.455   1.031
 3292TIP3    H2 9754   6.185   1.525   1.124
 3293TIP3   OH2 9755   7.348   1.703   4.015
 3293TIP3    H1 9756   7.434   1.746   4.022
 3293TIP3    H2 9757   7.312   1.737   3.933
 3294TIP3   OH2 9758   6.703   5.540   0.815
 3294TIP3    H1 9759   6.648   5.609   0.853
 3294TIP3    H2 9760   6.792   5.563   0.841
 3295TIP3   OH2 9761   1.687   1.116   1.365
 3295TIP3    H1 9762   1.692   1.033   1.413
 3295TIP3    H2 9763   1.776   1.151   1.367
 3296TIP3   OH2 9764   5.766   4.355   4.097
 3296TIP3    H1 9765   5.703   4.295   4.057
 3296TIP3    H2 9766   5.731   4.372   4.185
 3297TIP3   OH2 9767   4.715   2.142   0.615
 3297TIP3    H1 9768   4.669   2.204   0.671
 3297TIP3    H2 9769   4.649   2.078   0.591
 3298TIP3   OH2 9770   0.735   0.469   3.347
 3298TIP3    H1 9771   0.771   0.480   3.435
 3298TIP3    H2 9772   0.753   0.378   3.324
 3299TIP3   OH2 9773   8.921   5.050   2.925
 3299TIP3    H1 9774   8.899   5.043   3.018
 3299TIP3    H2 9775   9.016   5.051   2.923
 3300TIP3   OH2 9776   6.159   0.527   6.816
 3300TIP3    H1 9777   6.123   0.485   6.738
 3300TIP3    H2 9778   6.099   0.600   6.834
 3301TIP3   OH2 9779   0.079   4.613   3.899
 3301TIP3    H1 9780   0.023   4.655   3.834
 3301TIP3    H2 9781   0.040   4.637   3.984
 3302TIP3   OH2 9782   7.044   8.918   0.105
 3302TIP3    H1 9783   7.074   8.959   0.186
 3302TIP3    H2 9784   7.116   8.929   0.043
 3303TIP3   OH2 9785   3.407   2.943   6.048
 3303TIP3    H1 9786   3.471   3.004   6.084
 3303TIP3    H2 9787   3.334   2.945   6.111
 3304TIP3   OH2 9788   3.600   1.252   3.146
 3304TIP3    H1 9789   3.562   1.284   3.228
 3304TIP3    H2 9790   3.650   1.326   3.112
 3305TIP3   OH2 9791   7.612   7.709   7.407
 3305TIP3    H1 9792   7.670   7.693   7.482
 3305TIP3    H2 9793   7.530   7.737   7.446
 3306TIP3   OH2 9794   0.018   3.637   5.590
 3306TIP3    H1 9795   0.024   3.548   5.625
 3306TIP3    H2 9796   0.030   3.625   5.495
 3307TIP3   OH2 9797   3.654   5.963   7.785
 3307TIP3    H1 9798   3.603   6.042   7.805
 3307TIP3    H2 9799   3.694   5.982   7.700
 3308TIP3   OH2 9800   3.223   8.625   2.147
 3308TIP3    H1 9801   3.276   8.633   2.068
 3308TIP3    H2 9802   3.284   8.596   2.215
 3309TIP3   OH2 9803   8.402   2.040   4.398
 3309TIP3    H1 9804   8.338   2.103   4.364
 3309TIP3    H2 9805   8.377   1.957   4.357
 3310TIP3   OH2 9806   1.671   4.580   7.575
 3310TIP3    H1 9807   1.643   4.489   7.575
 3310TIP3    H2 9808   1.590   4.631   7.577
 3311TIP3   OH2 9809   0.131   8.815   5.709
 3311TIP3    H1 9810   0.175   8.862   5.780
 3311TIP3    H2 9811   0.059   8.768   5.752
 3312TIP3   OH2 9812   0.404   5.777   7.623
 3312TIP3    H1 9813   0.341   5.848   7.639
 3312TIP3    H2 9814   0.357   5.697   7.647
 3313TIP3   OH2 9815   0.421   0.172   0.369
 3313TIP3    H1 9816   0.465   0.087   0.376
 3313TIP3    H2 9817   0.450   0.207   0.284
 3314TIP3   OH2 9818   0.899   2.344   3.461
 3314TIP3    H1 9819   0.903   2.427   3.414
 3314TIP3    H2 9820   0.883   2.279   3.394
 3315TIP3   OH2 9821   5.043   8.297   7.337
 3315TIP3    H1 9822   5.081   8.384   7.345
 3315TIP3    H2 9823   5.107   8.248   7.285
 3316TIP3   OH2 9824   4.274   1.428   5.094
 3316TIP3    H1 9825   4.301   1.419   5.002
 3316TIP3    H2 9826   4.356   1.447   5.140
 3317TIP3   OH2 9827   4.455   2.896   6.944
 3317TIP3    H1 9828   4.487   2.847   7.019
 3317TIP3    H2 9829   4.364   2.869   6.934
 3318TIP3   OH2 9830   1.563   8.100   4.174
 3318TIP3    H1 9831   1.506   8.126   4.246
 3318TIP3    H2 9832   1.577   8.180   4.123
 3319TIP3   OH2 9833   4.212   0.633   2.145
 3319TIP3    H1 9834   4.223   0.556   2.089
 3319TIP3    H2 9835   4.146   0.686   2.100
 3320TIP3   OH2 9836   5.088   2.718   5.317
 3320TIP3    H1 9837   5.070   2.643   5.373
 3320TIP3    H2 9838   5.029   2.707   5.242
 3321TIP3   OH2 9839   3.758   0.591   6.466
 3321TIP3    H1 9840   3.793   0.672   6.503
 3321TIP3    H2 9841   3.835   0.539   6.444
 3322TIP3   OH2 9842   0.861   5.536   5.963
 3322TIP3    H1 9843   0.931   5.510   5.904
 3322TIP3    H2 9844   0.856   5.631   5.957
 3323TIP3   OH2 9845   2.021   7.788   3.231
 3323TIP3    H1 9846   2.105   7.751   3.259
 3323TIP3    H2 9847   2.040   7.881   3.216
 3324TIP3   OH2 9848   1.042   1.117   3.882
 3324TIP3    H1 9849   1.049   1.049   3.950
 3324TIP3    H2 9850   1.108   1.182   3.908
 3325TIP3   OH2 9851   8.237   2.150   0.749
 3325TIP3    H1 9852   8.231   2.089   0.822
 3325TIP3    H2 9853   8.163   2.209   0.761
 3326TIP3   OH2 9854   8.231   0.733   3.750
 3326TIP3    H1 9855   8.305   0.674   3.733
 3326TIP3    H2 9856   8.271   0.819   3.764
 3327TIP3   OH2 9857   6.389   4.524   6.264
 3327TIP3    H1 9858   6.339   4.566   6.194
 3327TIP3    H2 9859   6.480   4.545   6.245
 3328TIP3   OH2 9860   1.761   5.356   1.531
 3328TIP3    H1 9861   1.678   5.363   1.483
 3328TIP3    H2 9862   1.786   5.264   1.521
 3329TIP3   OH2 9863   1.791   0.890   7.715
 3329TIP3    H1 9864   1.777   0.860   7.625
 3329TIP3    H2 9865   1.846   0.824   7.755
 3330TIP3   OH2 9866   0.695   5.401   1.946
 3330TIP3    H1 9867   0.602   5.405   1.921
 3330TIP3    H2 9868   0.720   5.311   1.928
 3331TIP3   OH2 9869   0.306   1.279   4.905
 3331TIP3    H1 9870   0.349   1.196   4.884
 3331TIP3    H2 9871   0.272   1.310   4.820
 3332TIP3   OH2 9872   7.172   5.636   4.088
 3332TIP3    H1 9873   7.228   5.665   4.016
 3332TIP3    H2 9874   7.089   5.683   4.075
 3333TIP3   OH2 9875   4.907   7.878   7.434
 3333TIP3    H1 9876   4.911   7.818   7.508
 3333TIP3    H2 9877   4.823   7.923   7.444
 3334TIP3   OH2 9878   9.075   8.558   6.017
 3334TIP3    H1 9879   9.072   8.554   5.921
 3334TIP3    H2 9880   8.985   8.575   6.043
 3335TIP3   OH2 9881   1.649   1.645   1.079
 3335TIP3    H1 9882   1.603   1.722   1.046
 3335TIP3    H2 9883   1.616   1.633   1.168
 3336TIP3   OH2 9884   3.293   5.253   7.270
 3336TIP3    H1 9885   3.256   5.186   7.212
 3336TIP3    H2 9886   3.383   5.224   7.286
 3337TIP3   OH2 9887   7.336   3.248   3.236
 3337TIP3    H1 9888   7.409   3.295   3.276
 3337TIP3    H2 9889   7.361   3.237   3.145
 3338TIP3   OH2 9890   7.196   4.076   0.326
 3338TIP3    H1 9891   7.160   4.082   0.237
 3338TIP3    H2 9892   7.119   4.067   0.382
 3339TIP3   OH2 9893   5.385   5.898   5.253
 3339TIP3    H1 9894   5.410   5.808   5.232
 3339TIP3    H2 9895   5.360   5.895   5.345
 3340TIP3   OH2 9896   6.406   3.210   4.840
 3340TIP3    H1 9897   6.438   3.298   4.857
 3340TIP3    H2 9898   6.350   3.190   4.915
 3341TIP3   OH2 9899   3.304   7.706   1.118
 3341TIP3    H1 9900   3.294   7.795   1.085
 3341TIP3    H2 9901   3.399   7.690   1.115
 3342TIP3   OH2 9902   6.678   6.480   0.495
 3342TIP3    H1 9903   6.725   6.444   0.420
 3342TIP3    H2 9904   6.630   6.406   0.531
 3343TIP3   OH2 9905   0.156   6.312   1.405
 3343TIP3    H1 9906   0.154   6.217   1.394
 3343TIP3    H2 9907   0.244   6.337   1.376
 3344TIP3   OH2 9908   6.228   4.577   6.035
 3344TIP3    H1 9909   6.317   4.545   6.019
 3344TIP3    H2 9910   6.173   4.524   5.978
 3345TIP3   OH2 9911   6.174   0.993   5.666
 3345TIP3    H1 9912   6.154   0.959   5.579
 3345TIP3    H2 9913   6.250   0.943   5.695
 3346TIP3   OH2 9914   5.390   4.035   1.997
 3346TIP3    H1 9915   5.444   3.963   1.963
 3346TIP3    H2 9916   5.416   4.110   1.943
 3347TIP3   OH2 9917   3.009   2.810   2.697
 3347TIP3    H1 9918   2.921   2.844   2.708
 3347TIP3    H2 9919   2.996   2.719   2.671
 3348TIP3   OH2 9920   1.451   1.392   5.547
 3348TIP3    H1 9921   1.544   1.414   5.547
 3348TIP3    H2 9922   1.410   1.459   5.601
 3349TIP3   OH2 9923   1.954   7.390   2.915
 3349TIP3    H1 9924   1.976   7.483   2.919
 3349TIP3    H2 9925   1.913   7.378   2.830
 3350TIP3   OH2 9926   3.370   5.897   7.584
 3350TIP3    H1 9927   3.277   5.879   7.599
 3350TIP3    H2 9928   3.371   5.964   7.515
 3351TIP3   OH2 9929   0.382   7.528   7.522
 3351TIP3    H1 9930   0.364   7.476   7.601
 3351TIP3    H2 9931   0.401   7.463   7.454
 3352TIP3   OH2 9932   0.930   6.613   0.379
 3352TIP3    H1 9933   0.993   6.666   0.331
 3352TIP3    H2 9934   0.919   6.660   0.462
 3353TIP3   OH2 9935   7.143   1.995   5.671
 3353TIP3    H1 9936   7.122   1.950   5.589
 3353TIP3    H2 9937   7.058   2.016   5.709
 3354TIP3   OH2 9938   1.819   1.132   0.595
 3354TIP3    H1 9939   1.834   1.074   0.669
 3354TIP3    H2 9940   1.727   1.157   0.602
 3355TIP3   OH2 9941   9.260   3.605   2.188
 3355TIP3    H1 9942   9.288   3.514   2.184
 3355TIP3    H2 9943   9.166   3.601   2.209
 3356TIP3   OH2 9944   0.270   7.877   0.862
 3356TIP3    H1 9945   0.300   7.832   0.941
 3356TIP3    H2 9946   0.195   7.928   0.891
 3357TIP3   OH2 9947   0.740   0.283   7.091
 3357TIP3    H1 9948   0.781   0.209   7.137
 3357TIP3    H2 9949   0.708   0.246   7.009
 3358TIP3   OH2 9950   4.830   7.857   6.065
 3358TIP3    H1 9951   4.846   7.768   6.096
 3358TIP3    H2 9952   4.743   7.852   6.024
 3359TIP3   OH2 9953   7.718   6.667   6.630
 3359TIP3    H1 9954   7.699   6.739   6.690
 3359TIP3    H2 9955   7.811   6.647   6.644
 3360TIP3   OH2 9956   9.166   7.739   1.898
 3360TIP3    H1 9957   9.128   7.694   1.974
 3360TIP3    H2 9958   9.228   7.801   1.935
 3361TIP3   OH2 9959   6.652   2.541   6.977
 3361TIP3    H1 9960   6.724   2.534   6.914
 3361TIP3    H2 9961   6.688   2.591   7.050
 3362TIP3   OH2 9962   7.938   0.078   3.289
 3362TIP3    H1 9963   7.877   0.150   3.301
 3362TIP3    H2 9964   7.882   0.000   3.284
 3363TIP3   OH2 9965   3.726   7.382   0.657
 3363TIP3    H1 9966   3.753   7.467   0.692
 3363TIP3    H2 9967   3.631   7.380   0.670
 3364TIP3   OH2 9968   4.236   1.265   6.853
 3364TIP3    H1 9969   4.192   1.337   6.806
 3364TIP3    H2 9970   4.194   1.264   6.939
 3365TIP3   OH2 9971   6.049   1.868   2.359
 3365TIP3    H1 9972   6.111   1.794   2.358
 3365TIP3    H2 9973   6.061   1.910   2.273
 3366TIP3   OH2 9974   2.959   3.416   2.053
 3366TIP3    H1 9975   2.875   3.445   2.089
 3366TIP3    H2 9976   2.973   3.472   1.977
 3367TIP3   OH2 9977   6.961   3.094   1.004
 3367TIP3    H1 9978   7.041   3.081   1.056
 3367TIP3    H2 9979   6.949   3.189   1.001
 3368TIP3   OH2 9980   2.857   3.878   3.068
 3368TIP3    H1 9981   2.763   3.869   3.087
 3368TIP3    H2 9982   2.860   3.930   2.988
 3369TIP3   OH2 9983   6.426   7.339   5.674
 3369TIP3    H1 9984   6.345   7.316   5.628
 3369TIP3    H2 9985   6.398   7.399   5.744
 3370TIP3   OH2 9986   9.377   5.561   5.218
 3370TIP3    H1 9987   9.403   5.650   5.193
 3370TIP3    H2 9988   9.340   5.523   5.138
 3371TIP3   OH2 9989   0.821   1.371   2.178
 3371TIP3    H1 9990   0.727   1.358   2.164
 3371TIP3    H2 9991   0.861   1.351   2.093
 3372TIP3   OH2 9992   0.054   5.045   5.656
 3372TIP3    H1 9993   0.030   5.100   5.730
 3372TIP3    H2 9994  -0.029   5.007   5.627
 3373TIP3   OH2 9995   3.328   3.328   0.427
 3373TIP3    H1 9996   3.340   3.258   0.492
 3373TIP3    H2 9997   3.305   3.405   0.479
 3374TIP3   OH2 9998   2.776   3.130   3.394
 3374TIP3    H1 9999   2.701   3.190   3.394
 3374TIP3    H210000   2.852   3.187   3.406
 3375TIP3   OH210001   6.102   6.810   1.004
 3375TIP3    H110002   6.049   6.767   0.937
 3375TIP3    H210003   6.149   6.879   0.957
 3376TIP3   OH210004   9.330   2.656   7.389
 3376TIP3    H110005   9.356   2.628   7.301
 3376TIP3    H210006   9.237   2.678   7.381
 3377TIP3   OH210007   0.554   2.131   5.393
 3377TIP3    H110008   0.560   2.182   5.474
 3377TIP3    H210009   0.608   2.179   5.330
 3378TIP3   OH210010   8.166   5.836   6.873
 3378TIP3    H110011   8.241   5.819   6.815
 3378TIP3    H210012   8.113   5.899   6.825
 3379TIP3   OH210013   7.277   6.054   6.737
 3379TIP3    H110014   7.271   6.101   6.653
 3379TIP3    H210015   7.186   6.043   6.764
 3380TIP3   OH210016   1.638   4.063   4.096
 3380TIP3    H110017   1.659   4.018   4.177
 3380TIP3    H210018   1.612   4.151   4.123
 3381TIP3   OH210019   3.849   8.663   6.417
 3381TIP3    H110020   3.821   8.752   6.439
 3381TIP3    H210021   3.934   8.654   6.460
 3382TIP3   OH210022   8.214   3.744   4.115
 3382TIP3    H110023   8.222   3.665   4.168
 3382TIP3    H210024   8.119   3.759   4.109
 3383TIP3   OH210025   0.458   7.977   6.830
 3383TIP3    H110026   0.543   8.020   6.825
 3383TIP3    H210027   0.436   7.957   6.739
 3384TIP3   OH210028   8.307   3.688   6.126
 3384TIP3    H110029   8.264   3.665   6.043
 3384TIP3    H210030   8.399   3.695   6.103
 3385TIP3   OH210031   5.659   3.441   7.167
 3385TIP3    H110032   5.698   3.527   7.183
 3385TIP3    H210033   5.732   3.386   7.140
 3386TIP3   OH210034   7.191   5.329   3.652
 3386TIP3    H110035   7.125   5.295   3.713
 3386TIP3    H210036   7.153   5.409   3.617
 3387TIP3   OH210037   5.848   8.278   2.558
 3387TIP3    H110038   5.862   8.316   2.645
 3387TIP3    H210039   5.934   8.244   2.533
 3388TIP3   OH210040   6.380   5.990   5.001
 3388TIP3    H110041   6.468   5.999   4.965
 3388TIP3    H210042   6.325   6.038   4.938
 3389TIP3   OH210043   2.539   6.280   3.392
 3389TIP3    H110044   2.602   6.317   3.454
 3389TIP3    H210045   2.593   6.233   3.328
 3390TIP3   OH210046   4.386   0.719   7.360
 3390TIP3    H110047   4.309   0.712   7.417
 3390TIP3    H210048   4.457   0.678   7.410
 3391TIP3   OH210049   2.087   3.904   6.307
 3391TIP3    H110050   2.128   3.880   6.389
 3391TIP3    H210051   1.997   3.927   6.330
 3392TIP3   OH210052   1.071   2.647   2.353
 3392TIP3    H110053   1.121   2.591   2.413
 3392TIP3    H210054   1.107   2.628   2.267
 3393TIP3   OH210055   2.579   3.589   3.071
 3393TIP3    H110056   2.571   3.496   3.050
 3393TIP3    H210057   2.595   3.591   3.165
 3394TIP3   OH210058   2.349   5.982   0.007
 3394TIP3    H110059   2.409   5.908  -0.006
 3394TIP3    H210060   2.391   6.035   0.075
 3395TIP3   OH210061   8.935   2.984   1.109
 3395TIP3    H110062   9.019   3.007   1.070
 3395TIP3    H210063   8.926   3.044   1.184
 3396TIP3   OH210064   6.674   2.506   3.183
 3396TIP3    H110065   6.707   2.452   3.254
 3396TIP3    H210066   6.750   2.556   3.153
 3397TIP3   OH210067   1.714   2.305   1.802
 3397TIP3    H110068   1.649   2.288   1.870
 3397TIP3    H210069   1.683   2.384   1.758
 3398TIP3   OH210070   7.013   7.666   7.752
 3398TIP3    H110071   6.941   7.693   7.808
 3398TIP3    H210072   6.994   7.705   7.667
 3399TIP3   OH210073   6.072   1.019   1.888
 3399TIP3    H110074   6.017   1.000   1.812
 3399TIP3    H210075   6.097   1.111   1.877
 3400TIP3   OH210076   0.075   1.417   0.323
 3400TIP3    H110077   0.134   1.454   0.257
 3400TIP3    H210078   0.054   1.490   0.381
 3401TIP3   OH210079   9.065   7.324   2.388
 3401TIP3    H110080   9.115   7.244   2.374
 3401TIP3    H210081   8.997   7.322   2.321
 3402TIP3   OH210082   7.922   1.772   3.202
 3402TIP3    H110083   7.963   1.691   3.170
 3402TIP3    H210084   7.934   1.769   3.296
 3403TIP3   OH210085   8.435   1.116   4.080
 3403TIP3    H110086   8.349   1.116   4.120
 3403TIP3    H210087   8.447   1.206   4.048
 3404TIP3   OH210088   8.830   5.799   4.726
 3404TIP3    H110089   8.780   5.833   4.800
 3404TIP3    H210090   8.918   5.833   4.738
 3405TIP3   OH210091   3.095   6.174   3.365
 3405TIP3    H110092   3.178   6.145   3.401
 3405TIP3    H210093   3.093   6.268   3.380
 3406TIP3   OH210094   8.886   1.938   4.027
 3406TIP3    H110095   8.863   1.901   4.113
 3406TIP3    H210096   8.959   1.997   4.046
 3407TIP3   OH210097   7.942   7.023   3.817
 3407TIP3    H110098   7.960   7.041   3.909
 3407TIP3    H210099   7.869   7.081   3.795
 3408TIP3   OH210100   5.394   1.452   4.003
 3408TIP3    H110101   5.456   1.515   3.966
 3408TIP3    H210102   5.437   1.367   3.993
 3409TIP3   OH210103   5.212   4.075   4.917
 3409TIP3    H110104   5.173   4.010   4.975
 3409TIP3    H210105   5.168   4.157   4.940
 3410TIP3   OH210106   0.111   2.438   7.376
 3410TIP3    H110107   0.107   2.342   7.372
 3410TIP3    H210108   0.105   2.458   7.470
 3411TIP3   OH210109   0.679   7.538   3.996
 3411TIP3    H110110   0.774   7.527   3.996
 3411TIP3    H210111   0.645   7.453   3.967
 3412TIP3   OH210112   3.877   4.883   5.401
 3412TIP3    H110113   3.858   4.790   5.391
 3412TIP3    H210114   3.960   4.896   5.356
 3413TIP3   OH210115   1.282   0.872   0.023
 3413TIP3    H110116   1.257   0.934   0.092
 3413TIP3    H210117   1.258   0.917  -0.058
 3414TIP3   OH210118   6.914   3.578   4.163
 3414TIP3    H110119   6.944   3.506   4.108
 3414TIP3    H210120   6.982   3.644   4.155
 3415TIP3   OH210121   7.975   6.730   2.739
 3415TIP3    H110122   7.985   6.823   2.762
 3415TIP3    H210123   7.880   6.718   2.734
 3416TIP3   OH210124   7.811   8.194   5.410
 3416TIP3    H110125   7.880   8.255   5.435
 3416TIP3    H210126   7.731   8.231   5.448
 3417TIP3   OH210127   8.006   2.668   2.727
 3417TIP3    H110128   8.081   2.678   2.669
 3417TIP3    H210129   8.044   2.656   2.814
 3418TIP3   OH210130   0.656   2.426   1.981
 3418TIP3    H110131   0.717   2.500   1.982
 3418TIP3    H210132   0.581   2.458   1.931
 3419TIP3   OH210133   2.615   6.813   2.952
 3419TIP3    H110134   2.529   6.804   2.993
 3419TIP3    H210135   2.612   6.898   2.908
 3420TIP3   OH210136   3.506   8.530   5.154
 3420TIP3    H110137   3.439   8.474   5.192
 3420TIP3    H210138   3.469   8.559   5.070
 3421TIP3   OH210139   1.919   5.959   5.901
 3421TIP3    H110140   2.013   5.937   5.895
 3421TIP3    H210141   1.909   6.036   5.846
 3422TIP3   OH210142   5.612   1.484   0.760
 3422TIP3    H110143   5.626   1.573   0.730
 3422TIP3    H210144   5.590   1.493   0.853
 3423TIP3   OH210145   6.128   4.654   5.534
 3423TIP3    H110146   6.116   4.628   5.626
 3423TIP3    H210147   6.192   4.591   5.500
 3424TIP3   OH210148   5.434   4.659   0.958
 3424TIP3    H110149   5.394   4.647   0.872
 3424TIP3    H210150   5.523   4.627   0.948
 3425TIP3   OH210151   7.915   4.984   7.054
 3425TIP3    H110152   7.973   5.019   6.985
 3425TIP3    H210153   7.849   4.935   7.006
 3426TIP3   OH210154   2.079   3.496   5.962
 3426TIP3    H110155   1.993   3.536   5.973
 3426TIP3    H210156   2.140   3.563   5.991
 3427TIP3   OH210157   5.139   9.011   3.590
 3427TIP3    H110158   5.131   8.961   3.672
 3427TIP3    H210159   5.050   9.039   3.569
 3428TIP3   OH210160   4.071   8.492   3.935
 3428TIP3    H110161   4.147   8.549   3.941
 3428TIP3    H210162   4.040   8.483   4.025
 3429TIP3   OH210163   2.162   3.644   3.970
 3429TIP3    H110164   2.089   3.583   3.979
 3429TIP3    H210165   2.120   3.731   3.968
 3430TIP3   OH210166   3.843   0.721   5.639
 3430TIP3    H110167   3.772   0.717   5.703
 3430TIP3    H210168   3.920   0.692   5.689
 3431TIP3   OH210169   9.394   0.957   4.470
 3431TIP3    H110170   9.403   0.898   4.545
 3431TIP3    H210171   9.478   1.002   4.464
 3432TIP3   OH210172   5.709   4.116   7.404
 3432TIP3    H110173   5.786   4.061   7.390
 3432TIP3    H210174   5.736   4.177   7.473
 3433TIP3   OH210175   6.552   7.634   4.104
 3433TIP3    H110176   6.621   7.696   4.080
 3433TIP3    H210177   6.472   7.672   4.069
 3434TIP3   OH210178   0.965   6.387   7.063
 3434TIP3    H110179   0.892   6.391   7.124
 3434TIP3    H210180   0.983   6.479   7.041
 3435TIP3   OH210181   1.091   5.765   5.633
 3435TIP3    H110182   1.013   5.817   5.615
 3435TIP3    H210183   1.064   5.675   5.619
 3436TIP3   OH210184   7.335   0.627   5.449
 3436TIP3    H110185   7.305   0.540   5.474
 3436TIP3    H210186   7.428   0.615   5.428
 3437TIP3   OH210187   5.739   7.142   4.563
 3437TIP3    H110188   5.725   7.172   4.474
 3437TIP3    H210189   5.746   7.222   4.615
 3438TIP3   OH210190   0.797   7.458   4.350
 3438TIP3    H110191   0.825   7.500   4.268
 3438TIP3    H210192   0.821   7.520   4.418
 3439TIP3   OH210193   2.968   8.188   7.019
 3439TIP3    H110194   3.010   8.235   7.091
 3439TIP3    H210195   3.004   8.099   7.024
 3440TIP3   OH210196   8.032   3.074   4.139
 3440TIP3    H110197   7.990   3.001   4.094
 3440TIP3    H210198   8.013   3.150   4.084
 3441TIP3   OH210199   4.173   0.930   5.884
 3441TIP3    H110200   4.164   0.908   5.791
 3441TIP3    H210201   4.229   1.007   5.885
 3442TIP3   OH210202   8.784   4.689   1.671
 3442TIP3    H110203   8.697   4.651   1.655
 3442TIP3    H210204   8.806   4.733   1.589
 3443TIP3   OH210205   0.844   2.721   1.258
 3443TIP3    H110206   0.802   2.673   1.186
 3443TIP3    H210207   0.908   2.659   1.294
 3444TIP3   OH210208   8.772   0.351   6.635
 3444TIP3    H110209   8.775   0.267   6.682
 3444TIP3    H210210   8.787   0.417   6.703
 3445TIP3   OH210211   6.353   1.014   2.018
 3445TIP3    H110212   6.438   1.032   2.057
 3445TIP3    H210213   6.324   0.933   2.058
 3446TIP3   OH210214   4.583   0.162   0.566
 3446TIP3    H110215   4.522   0.128   0.631
 3446TIP3    H210216   4.667   0.120   0.588
 3447TIP3   OH210217   2.480   5.271   4.248
 3447TIP3    H110218   2.552   5.235   4.301
 3447TIP3    H210219   2.490   5.228   4.163
 3448TIP3   OH210220   0.672   1.844   1.990
 3448TIP3    H110221   0.702   1.929   1.957
 3448TIP3    H210222   0.692   1.782   1.920
 3449TIP3   OH210223   1.858   8.091   3.962
 3449TIP3    H110224   1.915   8.016   3.946
 3449TIP3    H210225   1.916   8.167   3.956
 3450TIP3   OH210226   8.038   5.851   7.234
 3450TIP3    H110227   8.067   5.867   7.145
 3450TIP3    H210228   8.094   5.781   7.266
 3451TIP3   OH210229   7.622   3.520   2.836
 3451TIP3    H110230   7.614   3.613   2.815
 3451TIP3    H210231   7.620   3.477   2.750
 3452TIP3   OH210232   2.854   5.892   6.979
 3452TIP3    H110233   2.895   5.979   6.978
 3452TIP3    H210234   2.766   5.907   7.014
 3453TIP3   OH210235   3.961   1.017   1.802
 3453TIP3    H110236   3.929   1.034   1.713
 3453TIP3    H210237   4.033   1.078   1.813
 3454TIP3   OH210238   1.170   8.429   4.486
 3454TIP3    H110239   1.176   8.350   4.539
 3454TIP3    H210240   1.247   8.425   4.429
 3455TIP3   OH210241   8.578   5.697   6.629
 3455TIP3    H110242   8.647   5.713   6.564
 3455TIP3    H210243   8.626   5.685   6.711
 3456TIP3   OH210244   8.315   6.196   5.973
 3456TIP3    H110245   8.248   6.134   5.944
 3456TIP3    H210246   8.336   6.247   5.894
 3457TIP3   OH210247   2.233   0.819   7.388
 3457TIP3    H110248   2.182   0.900   7.383
 3457TIP3    H210249   2.320   0.843   7.357
 3458TIP3   OH210250   3.246   5.585   6.416
 3458TIP3    H110251   3.302   5.532   6.473
 3458TIP3    H210252   3.157   5.557   6.437
 3459TIP3   OH210253   1.790   0.327   4.327
 3459TIP3    H110254   1.828   0.242   4.349
 3459TIP3    H210255   1.772   0.368   4.412
 3460TIP3   OH210256   1.249   0.822   2.175
 3460TIP3    H110257   1.183   0.886   2.202
 3460TIP3    H210258   1.204   0.767   2.111
 3461TIP3   OH210259   0.557   3.493   7.686
 3461TIP3    H110260   0.463   3.508   7.676
 3461TIP3    H210261   0.597   3.555   7.625
 3462TIP3   OH210262   3.864   7.870   2.510
 3462TIP3    H110263   3.792   7.806   2.512
 3462TIP3    H210264   3.868   7.897   2.418
 3463TIP3   OH210265   9.019   8.787   6.877
 3463TIP3    H110266   9.029   8.840   6.956
 3463TIP3    H210267   8.972   8.844   6.816
 3464TIP3   OH210268   4.476   7.873   2.501
 3464TIP3    H110269   4.455   7.918   2.583
 3464TIP3    H210270   4.448   7.934   2.433
 3465TIP3   OH210271   6.838   4.024   6.532
 3465TIP3    H110272   6.892   4.083   6.586
 3465TIP3    H210273   6.899   3.957   6.502
 3466TIP3   OH210274   0.603   6.330   4.516
 3466TIP3    H110275   0.525   6.360   4.561
 3466TIP3    H210276   0.657   6.408   4.505
 3467TIP3   OH210277   1.903   5.282   4.444
 3467TIP3    H110278   1.817   5.298   4.483
 3467TIP3    H210279   1.925   5.365   4.400
 3468TIP3   OH210280   8.267   5.857   3.396
 3468TIP3    H110281   8.353   5.881   3.431
 3468TIP3    H210282   8.240   5.934   3.345
 3469TIP3   OH210283   8.619   2.160   2.263
 3469TIP3    H110284   8.686   2.093   2.277
 3469TIP3    H210285   8.573   2.166   2.346
 3470TIP3   OH210286   3.354   3.904   6.617
 3470TIP3    H110287   3.305   3.822   6.624
 3470TIP3    H210288   3.417   3.901   6.689
 3471TIP3   OH210289   7.906   5.101   2.047
 3471TIP3    H110290   7.842   5.167   2.019
 3471TIP3    H210291   7.857   5.044   2.106
 3472TIP3   OH210292   7.865   0.643   0.883
 3472TIP3    H110293   7.920   0.721   0.876
 3472TIP3    H210294   7.788   0.672   0.931
 3473TIP3   OH210295   4.959   5.124   5.763
 3473TIP3    H110296   4.934   5.103   5.853
 3473TIP3    H210297   4.961   5.219   5.760
 3474TIP3   OH210298   8.133   0.009   1.516
 3474TIP3    H110299   8.049  -0.037   1.512
 3474TIP3    H210300   8.184  -0.028   1.444
 3475TIP3   OH210301   7.276   3.295   7.770
 3475TIP3    H110302   7.267   3.390   7.762
 3475TIP3    H210303   7.370   3.279   7.760
 3476TIP3   OH210304   4.171   0.403   6.574
 3476TIP3    H110305   4.179   0.438   6.663
 3476TIP3    H210306   4.139   0.314   6.586
 3477TIP3   OH210307   8.990   1.893   0.902
 3477TIP3    H110308   9.062   1.831   0.910
 3477TIP3    H210309   8.919   1.854   0.954
 3478TIP3   OH210310   0.943   3.329   4.599
 3478TIP3    H110311   0.998   3.393   4.644
 3478TIP3    H210312   0.916   3.268   4.668
 3479TIP3   OH210313   8.225   4.922   3.757
 3479TIP3    H110314   8.294   4.856   3.754
 3479TIP3    H210315   8.256   4.992   3.700
 3480TIP3   OH210316   4.308   5.714   0.199
 3480TIP3    H110317   4.364   5.751   0.267
 3480TIP3    H210318   4.245   5.783   0.179
 3481TIP3   OH210319   6.058   3.949   6.039
 3481TIP3    H110320   6.151   3.971   6.030
 3481TIP3    H210321   6.014   4.010   5.980
 3482TIP3   OH210322   8.337   5.945   3.116
 3482TIP3    H110323   8.368   6.032   3.091
 3482TIP3    H210324   8.252   5.936   3.073
 3483TIP3   OH210325   7.399   7.632   3.388
 3483TIP3    H110326   7.491   7.604   3.386
 3483TIP3    H210327   7.402   7.727   3.374
 3484TIP3   OH210328   5.403   5.754   0.720
 3484TIP3    H110329   5.362   5.704   0.790
 3484TIP3    H210330   5.343   5.747   0.646
 3485TIP3   OH210331   6.779   1.956   0.266
 3485TIP3    H110332   6.806   2.023   0.329
 3485TIP3    H210333   6.787   1.998   0.181
 3486TIP3   OH210334   2.350   8.766   4.284
 3486TIP3    H110335   2.261   8.751   4.315
 3486TIP3    H210336   2.374   8.686   4.238
 3487TIP3   OH210337   0.561   1.408   2.875
 3487TIP3    H110338   0.472   1.432   2.848
 3487TIP3    H210339   0.616   1.479   2.842
 3488TIP3   OH210340   5.059   1.220   5.177
 3488TIP3    H110341   4.976   1.252   5.212
 3488TIP3    H210342   5.039   1.134   5.140
 3489TIP3   OH210343   3.008   7.475   4.111
 3489TIP3    H110344   3.041   7.464   4.201
 3489TIP3    H210345   2.932   7.417   4.106
 3490TIP3   OH210346   8.230   1.632   1.745
 3490TIP3    H110347   8.257   1.689   1.673
 3490TIP3    H210348   8.139   1.656   1.762
 3491TIP3   OH210349   4.163   5.258   1.521
 3491TIP3    H110350   4.160   5.310   1.441
 3491TIP3    H210351   4.255   5.232   1.529
 3492TIP3   OH210352   0.688   2.943   1.377
 3492TIP3    H110353   0.770   2.989   1.361
 3492TIP3    H210354   0.709   2.850   1.364
 3493TIP3   OH210355   8.876   8.402   2.360
 3493TIP3    H110356   8.960   8.371   2.393
 3493TIP3    H210357   8.818   8.400   2.436
 3494TIP3   OH210358   2.876   2.090   7.512
 3494TIP3    H110359   2.854   2.125   7.598
 3494TIP3    H210360   2.813   2.132   7.453
 3495TIP3   OH210361   1.997   5.399   2.549
 3495TIP3    H110362   2.002   5.392   2.644
 3495TIP3    H210363   1.927   5.461   2.533
 3496TIP3   OH210364   4.064   6.712   4.515
 3496TIP3    H110365   4.055   6.799   4.554
 3496TIP3    H210366   4.151   6.682   4.542
 3497TIP3   OH210367   1.370   6.785   2.250
 3497TIP3    H110368   1.362   6.746   2.163
 3497TIP3    H210369   1.434   6.731   2.296
 3498TIP3   OH210370   3.041   8.686   6.162
 3498TIP3    H110371   3.044   8.766   6.110
 3498TIP3    H210372   3.028   8.716   6.252
 3499TIP3   OH210373   7.563   5.367   5.282
 3499TIP3    H110374   7.535   5.459   5.289
 3499TIP3    H210375   7.628   5.357   5.351
 3500TIP3   OH210376   1.073   2.520   2.088
 3500TIP3    H110377   1.027   2.597   2.054
 3500TIP3    H210378   1.011   2.480   2.149
 3501TIP3   OH210379   6.708   2.024   4.702
 3501TIP3    H110380   6.717   1.930   4.715
 3501TIP3    H210381   6.792   2.061   4.729
 3502TIP3   OH210382   9.082   4.451   2.572
 3502TIP3    H110383   9.064   4.469   2.480
 3502TIP3    H210384   9.154   4.388   2.570
 3503TIP3   OH210385   2.394   8.479   1.269
 3503TIP3    H110386   2.384   8.550   1.205
 3503TIP3    H210387   2.489   8.470   1.281
 3504TIP3   OH210388   3.862   2.106   4.978
 3504TIP3    H110389   3.860   2.044   4.904
 3504TIP3    H210390   3.954   2.124   4.991
 3505TIP3   OH210391   4.585   5.312   2.783
 3505TIP3    H110392   4.569   5.320   2.877
 3505TIP3    H210393   4.585   5.403   2.751
 3506TIP3   OH210394   5.122   3.469   0.397
 3506TIP3    H110395   5.184   3.522   0.347
 3506TIP3    H210396   5.171   3.443   0.475
 3507TIP3   OH210397   7.468   2.651   1.892
 3507TIP3    H110398   7.425   2.734   1.915
 3507TIP3    H210399   7.560   2.673   1.885
 3508TIP3   OH210400   1.924   6.846   1.677
 3508TIP3    H110401   2.016   6.851   1.650
 3508TIP3    H210402   1.916   6.759   1.717
 3509TIP3   OH210403   0.961   0.384   6.100
 3509TIP3    H110404   1.015   0.336   6.163
 3509TIP3    H210405   0.942   0.467   6.145
 3510TIP3   OH210406   2.902   4.932   0.422
 3510TIP3    H110407   2.824   4.929   0.367
 3510TIP3    H210408   2.869   4.947   0.510
 3511TIP3   OH210409   7.663   0.944   6.030
 3511TIP3    H110410   7.630   1.027   5.994
 3511TIP3    H210411   7.632   0.878   5.968
 3512TIP3   OH210412   5.754   6.835   5.219
 3512TIP3    H110413   5.796   6.866   5.139
 3512TIP3    H210414   5.824   6.797   5.271
 3513TIP3   OH210415   4.352   0.653   2.613
 3513TIP3    H110416   4.303   0.693   2.685
 3513TIP3    H210417   4.287   0.640   2.544
 3514TIP3   OH210418   7.584   2.711   7.262
 3514TIP3    H110419   7.635   2.716   7.343
 3514TIP3    H210420   7.647   2.732   7.193
 3515TIP3   OH210421   8.298   8.010   2.420
 3515TIP3    H110422   8.365   8.075   2.440
 3515TIP3    H210423   8.252   8.046   2.344
 3516TIP3   OH210424   1.777   7.396   2.398
 3516TIP3    H110425   1.818   7.340   2.332
 3516TIP3    H210426   1.768   7.482   2.354
 3517TIP3   OH210427   9.062   0.248   6.659
 3517TIP3    H110428   9.145   0.234   6.613
 3517TIP3    H210429   9.063   0.340   6.683
 3518TIP3   OH210430   9.369   6.682   3.689
 3518TIP3    H110431   9.284   6.727   3.700
 3518TIP3    H210432   9.349   6.590   3.701
 3519TIP3   OH210433   3.709   2.575   1.766
 3519TIP3    H110434   3.668   2.531   1.841
 3519TIP3    H210435   3.704   2.668   1.787
 3520TIP3   OH210436   8.298   1.238   6.441
 3520TIP3    H110437   8.224   1.178   6.451
 3520TIP3    H210438   8.281   1.284   6.358
 3521TIP3   OH210439   5.952   7.116   5.493
 3521TIP3    H110440   5.862   7.102   5.523
 3521TIP3    H210441   6.006   7.100   5.570
 3522TIP3   OH210442   0.950   2.575   2.632
 3522TIP3    H110443   0.953   2.550   2.539
 3522TIP3    H210444   1.027   2.630   2.645
 3523TIP3   OH210445   6.058   0.701   5.864
 3523TIP3    H110446   6.103   0.683   5.782
 3523TIP3    H210447   6.127   0.722   5.926
 3524TIP3   OH210448   8.898   7.241   5.547
 3524TIP3    H110449   8.965   7.234   5.615
 3524TIP3    H210450   8.820   7.272   5.593
 3525TIP3   OH210451   9.107   3.050   4.189
 3525TIP3    H110452   9.197   3.079   4.201
 3525TIP3    H210453   9.111   2.954   4.196
 3526TIP3   OH210454   7.511   4.848   0.509
 3526TIP3    H110455   7.508   4.754   0.525
 3526TIP3    H210456   7.534   4.856   0.417
 3527TIP3   OH210457   2.803   7.500   6.361
 3527TIP3    H110458   2.867   7.553   6.408
 3527TIP3    H210459   2.769   7.557   6.293
 3528TIP3   OH210460   2.285   4.528   3.849
 3528TIP3    H110461   2.222   4.457   3.860
 3528TIP3    H210462   2.264   4.566   3.764
 3529TIP3   OH210463   8.609   0.491   7.588
 3529TIP3    H110464   8.693   0.481   7.544
 3529TIP3    H210465   8.631   0.502   7.680
 3530TIP3   OH210466   8.563   3.986   0.122
 3530TIP3    H110467   8.557   3.971   0.028
 3530TIP3    H210468   8.473   4.007   0.148
 3531TIP3   OH210469   2.190   8.913   4.529
 3531TIP3    H110470   2.223   8.868   4.452
 3531TIP3    H210471   2.106   8.870   4.548
 3532TIP3   OH210472   9.390   3.596   0.522
 3532TIP3    H110473   9.334   3.552   0.457
 3532TIP3    H210474   9.413   3.679   0.481
 3533TIP3   OH210475   1.107   4.051   1.019
 3533TIP3    H110476   1.144   4.140   1.015
 3533TIP3    H210477   1.176   3.995   0.982
 3534TIP3   OH210478   0.743   4.239   1.020
 3534TIP3    H110479   0.650   4.260   1.014
 3534TIP3    H210480   0.786   4.324   1.034
 3535TIP3   OH210481   8.907   6.156   1.499
 3535TIP3    H110482   8.915   6.063   1.480
 3535TIP3    H210483   8.997   6.187   1.508
 3536TIP3   OH210484   7.689   4.442   5.805
 3536TIP3    H110485   7.778   4.469   5.780
 3536TIP3    H210486   7.652   4.404   5.726
 3537TIP3   OH210487   8.775   4.785   5.038
 3537TIP3    H110488   8.701   4.727   5.057
 3537TIP3    H210489   8.751   4.828   4.956
 3538TIP3   OH210490   8.378   5.804   2.014
 3538TIP3    H110491   8.471   5.784   2.014
 3538TIP3    H210492   8.372   5.892   1.977
 3539TIP3   OH210493   4.677   2.903   3.859
 3539TIP3    H110494   4.638   2.852   3.930
 3539TIP3    H210495   4.758   2.937   3.896
 3540TIP3   OH210496   0.020   5.586   1.666
 3540TIP3    H110497  -0.067   5.620   1.645
 3540TIP3    H210498   0.065   5.582   1.581
 3541TIP3   OH210499   1.260   4.832   4.104
 3541TIP3    H110500   1.194   4.896   4.076
 3541TIP3    H210501   1.225   4.796   4.186
 3542TIP3   OH210502   7.370   4.368   2.411
 3542TIP3    H110503   7.311   4.335   2.342
 3542TIP3    H210504   7.431   4.296   2.426
 3543TIP3   OH210505   3.418   6.199   6.880
 3543TIP3    H110506   3.409   6.105   6.898
 3543TIP3    H210507   3.355   6.215   6.810
 3544TIP3   OH210508   1.402   5.265   4.946
 3544TIP3    H110509   1.399   5.313   5.029
 3544TIP3    H210510   1.487   5.286   4.909
 3545TIP3   OH210511   3.269   3.121   1.420
 3545TIP3    H110512   3.204   3.178   1.462
 3545TIP3    H210513   3.337   3.182   1.389
 3546TIP3   OH210514   0.178   8.015   0.575
 3546TIP3    H110515   0.209   7.981   0.492
 3546TIP3    H210516   0.181   7.940   0.635
 3547TIP3   OH210517   7.805   3.525   3.885
 3547TIP3    H110518   7.810   3.555   3.975
 3547TIP3    H210519   7.732   3.574   3.847
 3548TIP3   OH210520   5.074   8.027   2.119
 3548TIP3    H110521   5.113   7.943   2.143
 3548TIP3    H210522   5.002   8.038   2.181
 3549TIP3   OH210523   9.395   1.773   2.325
 3549TIP3    H110524   9.399   1.866   2.302
 3549TIP3    H210525   9.308   1.761   2.362
 3550TIP3   OH210526   4.474   7.798   5.707
 3550TIP3    H110527   4.407   7.745   5.664
 3550TIP3    H210528   4.518   7.737   5.767
 3551TIP3   OH210529   6.947   2.603   1.541
 3551TIP3    H110530   6.874   2.663   1.528
 3551TIP3    H210531   7.011   2.628   1.473
 3552TIP3   OH210532   3.132   6.344   1.315
 3552TIP3    H110533   3.166   6.351   1.404
 3552TIP3    H210534   3.088   6.259   1.312
 3553TIP3   OH210535   7.219   3.330   3.533
 3553TIP3    H110536   7.246   3.336   3.441
 3553TIP3    H210537   7.297   3.356   3.582
 3554TIP3   OH210538   6.350   6.549   5.162
 3554TIP3    H110539   6.437   6.562   5.200
 3554TIP3    H210540   6.350   6.603   5.083
 3555TIP3   OH210541   5.779   5.625   7.243
 3555TIP3    H110542   5.782   5.591   7.333
 3555TIP3    H210543   5.829   5.561   7.192
 3556TIP3   OH210544   6.280   0.187   0.202
 3556TIP3    H110545   6.349   0.160   0.142
 3556TIP3    H210546   6.204   0.204   0.146
 3557TIP3   OH210547   0.668   4.542   0.588
 3557TIP3    H110548   0.635   4.585   0.509
 3557TIP3    H210549   0.760   4.567   0.592
 3558TIP3   OH210550   0.751   1.030   6.031
 3558TIP3    H110551   0.777   1.100   6.092
 3558TIP3    H210552   0.802   0.954   6.058
 3559TIP3   OH210553   4.104   7.191   3.551
 3559TIP3    H110554   4.197   7.172   3.536
 3559TIP3    H210555   4.075   7.235   3.471
 3560TIP3   OH210556   1.650   4.078   5.187
 3560TIP3    H110557   1.598   3.998   5.174
 3560TIP3    H210558   1.622   4.136   5.116
 3561TIP3   OH210559   6.054   3.236   5.961
 3561TIP3    H110560   6.011   3.305   5.911
 3561TIP3    H210561   6.122   3.281   6.011
 3562TIP3   OH210562   1.151   8.562   0.227
 3562TIP3    H110563   1.065   8.535   0.258
 3562TIP3    H210564   1.135   8.641   0.175
 3563TIP3   OH210565   4.698   0.333   7.105
 3563TIP3    H110566   4.705   0.240   7.128
 3563TIP3    H210567   4.719   0.379   7.186
 3564TIP3   OH210568   5.854   5.522   5.939
 3564TIP3    H110569   5.913   5.535   6.013
 3564TIP3    H210570   5.872   5.595   5.880
 3565TIP3   OH210571   8.000   8.857   1.654
 3565TIP3    H110572   8.013   8.949   1.631
 3565TIP3    H210573   8.069   8.811   1.607
 3566TIP3   OH210574   7.111   2.604   1.295
 3566TIP3    H110575   7.205   2.620   1.303
 3566TIP3    H210576   7.104   2.541   1.223
 3567TIP3   OH210577   6.970   8.191   3.437
 3567TIP3    H110578   7.045   8.212   3.493
 3567TIP3    H210579   6.919   8.127   3.489
 3568TIP3   OH210580   4.347   8.002   0.264
 3568TIP3    H110581   4.277   8.010   0.328
 3568TIP3    H210582   4.427   8.018   0.314
 3569TIP3   OH210583   6.365   5.312   7.530
 3569TIP3    H110584   6.280   5.338   7.494
 3569TIP3    H210585   6.369   5.357   7.614
 3570TIP3   OH210586   3.656   0.307   5.134
 3570TIP3    H110587   3.717   0.370   5.173
 3570TIP3    H210588   3.673   0.226   5.182
 3571TIP3   OH210589   9.336   6.252   3.960
 3571TIP3    H110590   9.348   6.308   4.037
 3571TIP3    H210591   9.424   6.219   3.940
 3572TIP3   OH210592   4.989   4.605   4.891
 3572TIP3    H110593   5.068   4.647   4.927
 3572TIP3    H210594   4.926   4.607   4.962
 3573TIP3   OH210595   6.150   2.721   7.787
 3573TIP3    H110596   6.155   2.740   7.880
 3573TIP3    H210597   6.217   2.777   7.747
 3574TIP3   OH210598   5.213   3.583   4.405
 3574TIP3    H110599   5.133   3.560   4.451
 3574TIP3    H210600   5.184   3.609   4.318
 3575TIP3   OH210601   6.756   7.476   3.388
 3575TIP3    H110602   6.704   7.423   3.328
 3575TIP3    H210603   6.707   7.558   3.395
 3576TIP3   OH210604   1.135   1.912   3.582
 3576TIP3    H110605   1.223   1.895   3.616
 3576TIP3    H210606   1.144   1.991   3.529
 3577TIP3   OH210607   1.213   6.053   0.160
 3577TIP3    H110608   1.178   5.965   0.175
 3577TIP3    H210609   1.304   6.039   0.134
 3578TIP3   OH210610   6.321   0.689   5.062
 3578TIP3    H110611   6.289   0.779   5.063
 3578TIP3    H210612   6.264   0.642   5.122
 3579TIP3   OH210613   6.963   8.632   2.410
 3579TIP3    H110614   6.996   8.570   2.475
 3579TIP3    H210615   6.874   8.601   2.391
 3580TIP3   OH210616   5.253   4.901   7.198
 3580TIP3    H110617   5.304   4.878   7.276
 3580TIP3    H210618   5.274   4.832   7.135
 3581TIP3   OH210619   2.120   6.558   5.588
 3581TIP3    H110620   2.171   6.482   5.561
 3581TIP3    H210621   2.062   6.525   5.657
 3582TIP3   OH210622   1.965   5.406   6.846
 3582TIP3    H110623   1.978   5.450   6.930
 3582TIP3    H210624   1.956   5.477   6.783
 3583TIP3   OH210625   0.489   0.838   3.195
 3583TIP3    H110626   0.403   0.872   3.171
 3583TIP3    H210627   0.487   0.746   3.168
 3584TIP3   OH210628   6.755   0.635   1.887
 3584TIP3    H110629   6.679   0.594   1.847
 3584TIP3    H210630   6.723   0.669   1.971
 3585TIP3   OH210631   0.569   4.417   4.527
 3585TIP3    H110632   0.632   4.450   4.463
 3585TIP3    H210633   0.500   4.484   4.529
 3586TIP3   OH210634   8.393   1.444   0.171
 3586TIP3    H110635   8.355   1.490   0.246
 3586TIP3    H210636   8.478   1.411   0.203
 3587TIP3   OH210637   2.056   8.348   3.232
 3587TIP3    H110638   2.066   8.350   3.137
 3587TIP3    H210639   2.125   8.405   3.266
 3588TIP3   OH210640   7.770   8.388   6.884
 3588TIP3    H110641   7.747   8.317   6.944
 3588TIP3    H210642   7.845   8.355   6.834
 3589TIP3   OH210643   4.262   3.408   3.478
 3589TIP3    H110644   4.223   3.438   3.560
 3589TIP3    H210645   4.280   3.315   3.492
 3590TIP3   OH210646   1.310   5.867   4.783
 3590TIP3    H110647   1.230   5.895   4.829
 3590TIP3    H210648   1.377   5.929   4.812
 3591TIP3   OH210649   9.556   8.207   7.723
 3591TIP3    H110650   9.565   8.176   7.633
 3591TIP3    H210651   9.463   8.193   7.744
 3592TIP3   OH210652   0.628   4.832   4.990
 3592TIP3    H110653   0.585   4.917   4.991
 3592TIP3    H210654   0.721   4.852   4.983
 3593TIP3   OH210655   3.722   6.074   0.881
 3593TIP3    H110656   3.726   6.168   0.902
 3593TIP3    H210657   3.656   6.039   0.941
 3594TIP3   OH210658   5.839   7.319   7.603
 3594TIP3    H110659   5.773   7.354   7.663
 3594TIP3    H210660   5.826   7.224   7.606
 3595TIP3   OH210661   0.979   1.538   3.550
 3595TIP3    H110662   0.930   1.457   3.567
 3595TIP3    H210663   0.946   1.600   3.616
 3596TIP3   OH210664   2.141   8.947   3.233
 3596TIP3    H110665   2.056   8.989   3.218
 3596TIP3    H210666   2.171   8.923   3.146
 3597TIP3   OH210667   4.328   0.280   7.020
 3597TIP3    H110668   4.246   0.241   6.991
 3597TIP3    H210669   4.372   0.307   6.939
 3598TIP3   OH210670   4.823   1.981   1.184
 3598TIP3    H110671   4.793   1.891   1.197
 3598TIP3    H210672   4.771   2.032   1.247
 3599TIP3   OH210673   5.384   2.595   1.540
 3599TIP3    H110674   5.420   2.617   1.455
 3599TIP3    H210675   5.428   2.513   1.564
 3600TIP3   OH210676   2.065   0.790   1.041
 3600TIP3    H110677   2.041   0.770   0.951
 3600TIP3    H210678   2.109   0.711   1.072
 3601TIP3   OH210679   4.404   4.591   1.944
 3601TIP3    H110680   4.336   4.591   2.011
 3601TIP3    H210681   4.387   4.511   1.894
 3602TIP3   OH210682   4.489   8.457   5.960
 3602TIP3    H110683   4.431   8.400   6.011
 3602TIP3    H210684   4.507   8.407   5.880
 3603TIP3   OH210685   1.774   7.289   5.634
 3603TIP3    H110686   1.696   7.322   5.678
 3603TIP3    H210687   1.755   7.196   5.618
 3604TIP3   OH210688   1.900   8.933   1.801
 3604TIP3    H110689   1.949   8.914   1.882
 3604TIP3    H210690   1.895   8.848   1.757
 3605TIP3   OH210691   1.770   8.597   3.539
 3605TIP3    H110692   1.812   8.680   3.564
 3605TIP3    H210693   1.772   8.598   3.443
 3606TIP3   OH210694   1.557   8.362   0.406
 3606TIP3    H110695   1.515   8.354   0.492
 3606TIP3    H210696   1.581   8.273   0.382
 3607TIP3   OH210697   5.239   1.147   7.768
 3607TIP3    H110698   5.229   1.217   7.832
 3607TIP3    H210699   5.223   1.067   7.819
 3608TIP3   OH210700   0.753   8.241   2.220
 3608TIP3    H110701   0.842   8.247   2.254
 3608TIP3    H210702   0.734   8.330   2.188
 3609TIP3   OH210703   5.940   8.519   5.547
 3609TIP3    H110704   5.910   8.598   5.593
 3609TIP3    H210705   5.954   8.547   5.457
 3610TIP3   OH210706   7.541   2.224   5.086
 3610TIP3    H110707   7.527   2.196   4.995
 3610TIP3    H210708   7.455   2.253   5.116
 3611TIP3   OH210709   8.008   7.451   2.180
 3611TIP3    H110710   7.924   7.497   2.174
 3611TIP3    H210711   7.999   7.394   2.256
 3612TIP3   OH210712   3.899   1.116   4.251
 3612TIP3    H110713   3.831   1.154   4.195
 3612TIP3    H210714   3.953   1.191   4.277
 3613TIP3   OH210715   4.449   2.506   0.228
 3613TIP3    H110716   4.536   2.541   0.247
 3613TIP3    H210717   4.430   2.449   0.303
 3614TIP3   OH210718   8.995   3.612   6.099
 3614TIP3    H110719   8.905   3.591   6.072
 3614TIP3    H210720   8.989   3.621   6.194
 3615TIP3   OH210721   7.568   1.197   5.926
 3615TIP3    H110722   7.480   1.232   5.944
 3615TIP3    H210723   7.561   1.160   5.838
 3616TIP3   OH210724   8.029   7.480   6.691
 3616TIP3    H110725   8.034   7.429   6.771
 3616TIP3    H210726   7.954   7.539   6.705
 3617TIP3   OH210727   1.924   5.127   1.401
 3617TIP3    H110728   1.968   5.064   1.343
 3617TIP3    H210729   1.834   5.130   1.368
 3618TIP3   OH210730   7.584   7.022   5.658
 3618TIP3    H110731   7.622   7.030   5.571
 3618TIP3    H210732   7.530   7.101   5.668
 3619TIP3   OH210733   8.274   6.461   0.193
 3619TIP3    H110734   8.257   6.504   0.276
 3619TIP3    H210735   8.351   6.506   0.158
 3620TIP3   OH210736   0.770   0.533   3.634
 3620TIP3    H110737   0.686   0.495   3.659
 3620TIP3    H210738   0.817   0.545   3.716
 3621TIP3   OH210739   5.978   2.154   5.800
 3621TIP3    H110740   5.920   2.089   5.841
 3621TIP3    H210741   6.038   2.101   5.747
 3622TIP3   OH210742   2.127   4.851   2.631
 3622TIP3    H110743   2.172   4.772   2.602
 3622TIP3    H210744   2.049   4.855   2.575
 3623TIP3   OH210745   7.012   7.678   4.072
 3623TIP3    H110746   7.062   7.758   4.059
 3623TIP3    H210747   6.938   7.704   4.127
 3624TIP3   OH210748   4.706   8.406   1.744
 3624TIP3    H110749   4.742   8.479   1.793
 3624TIP3    H210750   4.723   8.428   1.652
 3625TIP3   OH210751   1.254   3.296   4.736
 3625TIP3    H110752   1.175   3.281   4.788
 3625TIP3    H210753   1.231   3.368   4.677
 3626TIP3   OH210754   9.178   2.957   4.614
 3626TIP3    H110755   9.256   2.919   4.655
 3626TIP3    H210756   9.160   2.899   4.540
 3627TIP3   OH210757   6.538   1.958   6.147
 3627TIP3    H110758   6.459   1.966   6.093
 3627TIP3    H210759   6.596   2.027   6.115
 3628TIP3   OH210760   8.732   7.072   1.614
 3628TIP3    H110761   8.811   7.120   1.638
 3628TIP3    H210762   8.765   6.987   1.582
 3629TIP3   OH210763   4.089   0.845   4.555
 3629TIP3    H110764   4.105   0.772   4.614
 3629TIP3    H210765   4.050   0.805   4.477
 3630TIP3   OH210766   9.128   8.795   3.169
 3630TIP3    H110767   9.045   8.750   3.155
 3630TIP3    H210768   9.193   8.724   3.173
 3631TIP3   OH210769   4.224   1.744   0.200
 3631TIP3    H110770   4.146   1.694   0.225
 3631TIP3    H210771   4.203   1.781   0.115
 3632TIP3   OH210772   2.433   1.512   4.360
 3632TIP3    H110773   2.467   1.501   4.449
 3632TIP3    H210774   2.510   1.533   4.307
 3633TIP3   OH210775   9.236   3.297   6.244
 3633TIP3    H110776   9.180   3.271   6.171
 3633TIP3    H210777   9.259   3.388   6.225
 3634TIP3   OH210778   7.732   1.614   2.770
 3634TIP3    H110779   7.815   1.637   2.729
 3634TIP3    H210780   7.670   1.608   2.697
 3635TIP3   OH210781   7.431   1.552   6.805
 3635TIP3    H110782   7.406   1.484   6.743
 3635TIP3    H210783   7.514   1.586   6.771
 3636TIP3   OH210784   0.568   5.208   1.227
 3636TIP3    H110785   0.549   5.116   1.211
 3636TIP3    H210786   0.648   5.224   1.177
 3637TIP3   OH210787   0.006   1.301   4.275
 3637TIP3    H110788  -0.037   1.342   4.350
 3637TIP3    H210789   0.059   1.231   4.313
 3638TIP3   OH210790   7.242   7.748   4.437
 3638TIP3    H110791   7.236   7.841   4.458
 3638TIP3    H210792   7.283   7.709   4.514
 3639TIP3   OH210793   3.285   5.503   6.989
 3639TIP3    H110794   3.218   5.495   7.056
 3639TIP3    H210795   3.302   5.413   6.961
 3640TIP3   OH210796   1.694   4.678   0.340
 3640TIP3    H110797   1.730   4.692   0.428
 3640TIP3    H210798   1.600   4.693   0.350
 3641TIP3   OH210799   1.236   3.618   7.529
 3641TIP3    H110800   1.162   3.676   7.508
 3641TIP3    H210801   1.240   3.617   7.624
 3642TIP3   OH210802   8.114   2.400   3.429
 3642TIP3    H110803   8.137   2.409   3.336
 3642TIP3    H210804   8.168   2.327   3.460
 3643TIP3   OH210805   0.310   1.417   7.183
 3643TIP3    H110806   0.284   1.497   7.138
 3643TIP3    H210807   0.255   1.348   7.145
 3644TIP3   OH210808   8.027   3.149   1.346
 3644TIP3    H110809   7.990   3.061   1.335
 3644TIP3    H210810   8.116   3.142   1.310
 3645TIP3   OH210811   3.069   0.020   5.816
 3645TIP3    H110812   3.075   0.110   5.850
 3645TIP3    H210813   3.064  -0.035   5.894
 3646TIP3   OH210814   7.318   5.458   7.306
 3646TIP3    H110815   7.296   5.551   7.314
 3646TIP3    H210816   7.238   5.412   7.330
 3647TIP3   OH210817   8.350   5.658   3.190
 3647TIP3    H110818   8.422   5.699   3.140
 3647TIP3    H210819   8.310   5.731   3.238
 3648TIP3   OH210820   5.661   4.029   2.930
 3648TIP3    H110821   5.578   4.009   2.975
 3648TIP3    H210822   5.634   4.061   2.844
 3649TIP3   OH210823   2.616   7.534   3.500
 3649TIP3    H110824   2.595   7.496   3.414
 3649TIP3    H210825   2.707   7.562   3.492
 3650TIP3   OH210826   8.011   8.564   4.395
 3650TIP3    H110827   8.104   8.546   4.386
 3650TIP3    H210828   7.971   8.478   4.414
 3651TIP3   OH210829   0.246   3.246   1.987
 3651TIP3    H110830   0.305   3.241   1.912
 3651TIP3    H210831   0.302   3.227   2.062
 3652TIP3   OH210832   5.363   4.364   6.474
 3652TIP3    H110833   5.298   4.405   6.417
 3652TIP3    H210834   5.366   4.420   6.551
 3653TIP3   OH210835   8.485   1.591   7.384
 3653TIP3    H110836   8.561   1.643   7.358
 3653TIP3    H210837   8.411   1.632   7.339
 3654TIP3   OH210838   1.785   1.001   2.130
 3654TIP3    H110839   1.766   0.962   2.215
 3654TIP3    H210840   1.877   0.982   2.115
 3655TIP3   OH210841   1.001   5.456   4.287
 3655TIP3    H110842   0.954   5.373   4.281
 3655TIP3    H210843   1.048   5.464   4.204
 3656TIP3   OH210844   5.627   1.237   0.265
 3656TIP3    H110845   5.536   1.256   0.241
 3656TIP3    H210846   5.658   1.318   0.305
 3657TIP3   OH210847   1.232   7.665   6.908
 3657TIP3    H110848   1.308   7.642   6.960
 3657TIP3    H210849   1.157   7.647   6.965
 3658TIP3   OH210850   8.994   6.222   2.557
 3658TIP3    H110851   8.914   6.182   2.590
 3658TIP3    H210852   9.014   6.292   2.619
 3659TIP3   OH210853   2.349   8.680   7.510
 3659TIP3    H110854   2.361   8.590   7.477
 3659TIP3    H210855   2.424   8.728   7.476
 3660TIP3   OH210856   9.320   0.379   0.663
 3660TIP3    H110857   9.357   0.447   0.720
 3660TIP3    H210858   9.346   0.406   0.574
 3661TIP3   OH210859   1.610   8.205   4.775
 3661TIP3    H110860   1.568   8.159   4.848
 3661TIP3    H210861   1.566   8.290   4.771
 3662TIP3   OH210862   2.666   6.935   0.914
 3662TIP3    H110863   2.754   6.968   0.931
 3662TIP3    H210864   2.669   6.843   0.939
 3663TIP3   OH210865   0.927   1.427   0.647
 3663TIP3    H110866   0.857   1.364   0.629
 3663TIP3    H210867   0.902   1.467   0.731
 3664TIP3   OH210868   1.970   6.370   5.747
 3664TIP3    H110869   1.949   6.296   5.691
 3664TIP3    H210870   1.885   6.398   5.783
 3665TIP3   OH210871   4.667   6.552   0.390
 3665TIP3    H110872   4.732   6.611   0.426
 3665TIP3    H210873   4.714   6.499   0.326
 3666TIP3   OH210874   3.181   3.950   1.204
 3666TIP3    H110875   3.236   3.983   1.275
 3666TIP3    H210876   3.240   3.944   1.129
 3667TIP3   OH210877   1.386   8.121   4.950
 3667TIP3    H110878   1.458   8.058   4.949
 3667TIP3    H210879   1.332   8.094   5.025
 3668TIP3   OH210880   6.319   6.765   0.173
 3668TIP3    H110881   6.376   6.831   0.133
 3668TIP3    H210882   6.377   6.715   0.231
 3669TIP3   OH210883   2.898   4.720   7.227
 3669TIP3    H110884   2.868   4.784   7.162
 3669TIP3    H210885   2.892   4.636   7.183
 3670TIP3   OH210886   8.650   2.764   4.471
 3670TIP3    H110887   8.691   2.704   4.532
 3670TIP3    H210888   8.695   2.848   4.485
 3671TIP3   OH210889   5.929   2.559   7.108
 3671TIP3    H110890   5.894   2.519   7.188
 3671TIP3    H210891   5.963   2.485   7.057
 3672TIP3   OH210892   5.644   5.923   5.702
 3672TIP3    H110893   5.558   5.897   5.671
 3672TIP3    H210894   5.701   5.850   5.679
 3673TIP3   OH210895   2.933   5.501   2.357
 3673TIP3    H110896   2.995   5.562   2.319
 3673TIP3    H210897   2.954   5.501   2.451
 3674TIP3   OH210898   7.600   9.015   2.408
 3674TIP3    H110899   7.657   8.948   2.445
 3674TIP3    H210900   7.646   9.045   2.329
 3675TIP3   OH210901   9.074   5.564   2.132
 3675TIP3    H110902   9.027   5.517   2.201
 3675TIP3    H210903   9.093   5.496   2.067
 3676TIP3   OH210904   1.759   3.802   4.729
 3676TIP3    H110905   1.715   3.801   4.644
 3676TIP3    H210906   1.809   3.720   4.730
 3677TIP3   OH210907   8.904   8.786   6.193
 3677TIP3    H110908   8.906   8.876   6.225
 3677TIP3    H210909   8.968   8.740   6.248
 3678TIP3   OH210910   4.551   0.518   0.997
 3678TIP3    H110911   4.644   0.524   0.975
 3678TIP3    H210912   4.506   0.536   0.915
 3679TIP3   OH210913   0.344   8.192   6.135
 3679TIP3    H110914   0.329   8.273   6.087
 3679TIP3    H210915   0.258   8.168   6.169
 3680TIP3   OH210916   5.516   3.573   0.442
 3680TIP3    H110917   5.441   3.554   0.498
 3680TIP3    H210918   5.497   3.660   0.405
 3681TIP3   OH210919   5.401   5.310   1.674
 3681TIP3    H110920   5.484   5.351   1.698
 3681TIP3    H210921   5.372   5.357   1.596
 3682TIP3   OH210922   0.951   5.033   0.576
 3682TIP3    H110923   0.971   4.993   0.661
 3682TIP3    H210924   0.985   5.122   0.582
 3683TIP3   OH210925   6.263   8.864   0.532
 3683TIP3    H110926   6.229   8.944   0.572
 3683TIP3    H210927   6.262   8.882   0.438
 3684TIP3   OH210928   8.609   6.235   6.257
 3684TIP3    H110929   8.627   6.247   6.164
 3684TIP3    H210930   8.694   6.241   6.300
 3685TIP3   OH210931   2.820   0.072   1.497
 3685TIP3    H110932   2.824   0.158   1.455
 3685TIP3    H210933   2.866   0.084   1.580
 3686TIP3   OH210934   0.879   2.421   2.327
 3686TIP3    H110935   0.793   2.461   2.310
 3686TIP3    H210936   0.859   2.333   2.357
 3687TIP3   OH210937   9.200   7.593   2.457
 3687TIP3    H110938   9.237   7.591   2.545
 3687TIP3    H210939   9.148   7.513   2.450
 3688TIP3   OH210940   6.387   4.544   0.429
 3688TIP3    H110941   6.390   4.639   0.429
 3688TIP3    H210942   6.300   4.523   0.397
 3689TIP3   OH210943   4.442   5.904   0.394
 3689TIP3    H110944   4.513   5.895   0.458
 3689TIP3    H210945   4.364   5.919   0.446
 3690TIP3   OH210946   8.542   4.290   7.523
 3690TIP3    H110947   8.463   4.293   7.578
 3690TIP3    H210948   8.527   4.217   7.464
 3691TIP3   OH210949   4.508   2.761   7.173
 3691TIP3    H110950   4.593   2.778   7.213
 3691TIP3    H210951   4.445   2.804   7.230
 3692TIP3   OH210952   4.299   0.889   0.319
 3692TIP3    H110953   4.319   0.899   0.226
 3692TIP3    H210954   4.208   0.859   0.321
 3693TIP3   OH210955   4.770   7.846   0.294
 3693TIP3    H110956   4.785   7.792   0.372
 3693TIP3    H210957   4.730   7.786   0.231
 3694TIP3   OH210958   6.362   2.408   3.008
 3694TIP3    H110959   6.381   2.364   3.091
 3694TIP3    H210960   6.313   2.344   2.957
 3695TIP3   OH210961   1.130   4.563   4.481
 3695TIP3    H110962   1.061   4.500   4.503
 3695TIP3    H210963   1.174   4.579   4.565
 3696TIP3   OH210964   8.492   3.766   2.524
 3696TIP3    H110965   8.423   3.829   2.500
 3696TIP3    H210966   8.445   3.684   2.537
 3697TIP3   OH210967   0.310   7.938   3.718
 3697TIP3    H110968   0.295   7.943   3.812
 3697TIP3    H210969   0.356   7.854   3.706
 3698TIP3   OH210970   2.345   0.775   7.648
 3698TIP3    H110971   2.318   0.810   7.564
 3698TIP3    H210972   2.343   0.850   7.708
 3699TIP3   OH210973   9.176   3.960   0.625
 3699TIP3    H110974   9.121   4.038   0.630
 3699TIP3    H210975   9.168   3.920   0.711
 3700TIP3   OH210976   3.149   2.704   5.936
 3700TIP3    H110977   3.180   2.721   5.847
 3700TIP3    H210978   3.067   2.754   5.943
 3701TIP3   OH210979   6.726   8.697   1.014
 3701TIP3    H110980   6.814   8.675   0.986
 3701TIP3    H210981   6.737   8.772   1.072
 3702TIP3   OH210982   0.561   1.812   5.024
 3702TIP3    H110983   0.501   1.831   4.952
 3702TIP3    H210984   0.510   1.759   5.085
 3703TIP3   OH210985   0.257   4.674   3.072
 3703TIP3    H110986   0.285   4.684   3.163
 3703TIP3    H210987   0.294   4.589   3.045
 3704TIP3   OH210988   4.931   5.778   5.974
 3704TIP3    H110989   4.960   5.713   6.038
 3704TIP3    H210990   4.844   5.804   6.004
 3705TIP3   OH210991   6.336   7.278   7.234
 3705TIP3    H110992   6.247   7.242   7.229
 3705TIP3    H210993   6.331   7.359   7.182
 3706TIP3   OH210994   4.266   7.859   3.683
 3706TIP3    H110995   4.199   7.792   3.699
 3706TIP3    H210996   4.292   7.845   3.591
 3707TIP3   OH210997   8.440   4.165   1.252
 3707TIP3    H110998   8.349   4.179   1.278
 3707TIP3    H210999   8.489   4.229   1.303
 3708TIP3   OH211000   4.059   1.463   2.071
 3708TIP3    H111001   4.030   1.427   1.988
 3708TIP3    H211002   4.145   1.425   2.086
 3709TIP3   OH211003   9.322   6.468   2.669
 3709TIP3    H111004   9.348   6.398   2.729
 3709TIP3    H211005   9.362   6.443   2.585
 3710TIP3   OH211006   3.928   8.402   7.393
 3710TIP3    H111007   3.865   8.453   7.443
 3710TIP3    H211008   3.982   8.467   7.347
 3711TIP3   OH211009   0.419   6.488   3.548
 3711TIP3    H111010   0.398   6.406   3.503
 3711TIP3    H211011   0.445   6.461   3.636
 3712TIP3   OH211012   1.301   5.825   7.473
 3712TIP3    H111013   1.295   5.898   7.535
 3712TIP3    H211014   1.236   5.762   7.505
 3713TIP3   OH211015   6.917   3.485   2.335
 3713TIP3    H111016   7.002   3.489   2.377
 3713TIP3    H211017   6.932   3.439   2.253
 3714TIP3   OH211018   8.879   5.745   1.808
 3714TIP3    H111019   8.911   5.791   1.886
 3714TIP3    H211020   8.958   5.709   1.768
 3715TIP3   OH211021   3.221   1.865   2.816
 3715TIP3    H111022   3.295   1.879   2.756
 3715TIP3    H211023   3.237   1.926   2.888
 3716TIP3   OH211024   1.411   5.689   2.991
 3716TIP3    H111025   1.374   5.719   3.074
 3716TIP3    H211026   1.335   5.680   2.934
 3717TIP3   OH211027   3.390   4.401   2.165
 3717TIP3    H111028   3.385   4.445   2.080
 3717TIP3    H211029   3.434   4.465   2.222
 3718TIP3   OH211030   6.922   2.328   1.486
 3718TIP3    H111031   6.954   2.416   1.506
 3718TIP3    H211032   6.890   2.295   1.569
 3719TIP3   OH211033   3.955   1.805   7.674
 3719TIP3    H111034   4.004   1.880   7.639
 3719TIP3    H211035   3.918   1.837   7.756
 3720TIP3   OH211036   6.277   1.039   7.272
 3720TIP3    H111037   6.228   1.122   7.279
 3720TIP3    H211038   6.220   0.983   7.220
 3721TIP3   OH211039   6.813   1.267   0.818
 3721TIP3    H111040   6.742   1.318   0.857
 3721TIP3    H211041   6.881   1.333   0.799
 3722TIP3   OH211042   9.311   8.412   1.955
 3722TIP3    H111043   9.285   8.473   1.885
 3722TIP3    H211044   9.403   8.392   1.936
 3723TIP3   OH211045   1.427   8.259   7.474
 3723TIP3    H111046   1.484   8.187   7.450
 3723TIP3    H211047   1.473   8.338   7.444
 3724TIP3   OH211048   2.853   1.153   6.380
 3724TIP3    H111049   2.856   1.205   6.300
 3724TIP3    H211050   2.944   1.128   6.397
 3725TIP3   OH211051   9.018   5.002   1.047
 3725TIP3    H111052   8.934   4.960   1.031
 3725TIP3    H211053   9.012   5.087   1.004
 3726TIP3   OH211054   0.159   5.127   3.342
 3726TIP3    H111055   0.114   5.152   3.262
 3726TIP3    H211056   0.149   5.203   3.400
 3727TIP3   OH211057   7.168   1.173   3.523
 3727TIP3    H111058   7.224   1.186   3.600
 3727TIP3    H211059   7.165   1.259   3.481
 3728TIP3   OH211060   0.363   3.761   1.575
 3728TIP3    H111061   0.445   3.798   1.543
 3728TIP3    H211062   0.386   3.721   1.659
 3729TIP3   OH211063   3.865   4.980   2.984
 3729TIP3    H111064   3.859   4.910   3.048
 3729TIP3    H211065   3.959   4.992   2.969
 3730TIP3   OH211066   3.873   3.571   7.732
 3730TIP3    H111067   3.872   3.540   7.823
 3730TIP3    H211068   3.962   3.557   7.702
 3731TIP3   OH211069   2.777   1.702   0.980
 3731TIP3    H111070   2.777   1.762   1.054
 3731TIP3    H211071   2.685   1.684   0.963
 3732TIP3   OH211072   2.233   7.712   2.439
 3732TIP3    H111073   2.324   7.712   2.412
 3732TIP3    H211074   2.200   7.626   2.414
 3733TIP3   OH211075   1.596   2.515   6.314
 3733TIP3    H111076   1.541   2.472   6.248
 3733TIP3    H211077   1.616   2.446   6.377
 3734TIP3   OH211078   1.224   4.361   0.033
 3734TIP3    H111079   1.232   4.453   0.009
 3734TIP3    H211080   1.313   4.333   0.055
 3735TIP3   OH211081   6.688   3.322   7.687
 3735TIP3    H111082   6.743   3.252   7.723
 3735TIP3    H211083   6.619   3.275   7.639
 3736TIP3   OH211084   2.861   8.654   4.780
 3736TIP3    H111085   2.949   8.681   4.756
 3736TIP3    H211086   2.809   8.734   4.778
 3737TIP3   OH211087   8.109   4.821   6.443
 3737TIP3    H111088   8.148   4.852   6.525
 3737TIP3    H211089   8.014   4.825   6.458
 3738TIP3   OH211090   7.390   1.857   4.676
 3738TIP3    H111091   7.359   1.937   4.633
 3738TIP3    H211092   7.420   1.886   4.762
 3739TIP3   OH211093   5.553   6.546   1.200
 3739TIP3    H111094   5.542   6.617   1.264
 3739TIP3    H211095   5.641   6.561   1.164
 3740TIP3   OH211096   8.659   6.273   6.010
 3740TIP3    H111097   8.694   6.347   5.961
 3740TIP3    H211098   8.642   6.206   5.944
 3741TIP3   OH211099   9.288   0.783   6.112
 3741TIP3    H111100   9.302   0.858   6.055
 3741TIP3    H211101   9.206   0.803   6.158
 3742TIP3   OH211102   5.070   3.172   5.978
 3742TIP3    H111103   4.987   3.124   5.971
 3742TIP3    H211104   5.115   3.130   6.050
 3743TIP3   OH211105   6.950   4.148   1.112
 3743TIP3    H111106   6.967   4.240   1.131
 3743TIP3    H211107   7.029   4.117   1.068
 3744TIP3   OH211108   1.131   6.207   4.277
 3744TIP3    H111109   1.212   6.169   4.245
 3744TIP3    H211110   1.067   6.191   4.207
 3745TIP3   OH211111   6.140   5.547   5.201
 3745TIP3    H111112   6.143   5.460   5.161
 3745TIP3    H211113   6.186   5.604   5.140
 3746TIP3   OH211114   3.186   5.817   4.313
 3746TIP3    H111115   3.122   5.769   4.365
 3746TIP3    H211116   3.243   5.749   4.278
 3747TIP3   OH211117   4.764   8.987   2.639
 3747TIP3    H111118   4.714   8.996   2.558
 3747TIP3    H211119   4.841   9.043   2.626
 3748TIP3   OH211120   4.626   8.744   3.072
 3748TIP3    H111121   4.636   8.804   2.998
 3748TIP3    H211122   4.566   8.789   3.131
 3749TIP3   OH211123   5.573   8.323   0.236
 3749TIP3    H111124   5.553   8.396   0.295
 3749TIP3    H211125   5.528   8.248   0.274
 3750TIP3   OH211126   9.270   1.543   3.373
 3750TIP3    H111127   9.243   1.492   3.449
 3750TIP3    H211128   9.333   1.488   3.327
 3751TIP3   OH211129   6.041   5.608   5.650
 3751TIP3    H111130   6.122   5.558   5.646
 3751TIP3    H211131   6.047   5.657   5.732
 3752TIP3   OH211132   9.298   3.120   0.604
 3752TIP3    H111133   9.273   3.033   0.637
 3752TIP3    H211134   9.235   3.137   0.534
 3753TIP3   OH211135   4.258   7.481   7.603
 3753TIP3    H111136   4.282   7.441   7.686
 3753TIP3    H211137   4.298   7.567   7.604
 3754TIP3   OH211138   2.198   6.020   3.860
 3754TIP3    H111139   2.143   5.958   3.909
 3754TIP3    H211140   2.275   5.969   3.836
 3755TIP3   OH211141   1.075   6.630   7.046
 3755TIP3    H111142   1.150   6.614   6.989
 3755TIP3    H211143   1.106   6.692   7.112
 3756TIP3   OH211144   2.286   4.937   0.754
 3756TIP3    H111145   2.225   4.996   0.799
 3756TIP3    H211146   2.236   4.901   0.681
 3757TIP3   OH211147   6.465   1.197   3.479
 3757TIP3    H111148   6.456   1.257   3.405
 3757TIP3    H211149   6.375   1.172   3.501
 3758TIP3   OH211150   4.966   6.174   0.302
 3758TIP3    H111151   5.047   6.219   0.276
 3758TIP3    H211152   4.991   6.122   0.379
 3759TIP3   OH211153   6.113   2.322   3.853
 3759TIP3    H111154   6.163   2.247   3.884
 3759TIP3    H211155   6.122   2.320   3.758
 3760TIP3   OH211156   8.139   8.037   3.679
 3760TIP3    H111157   8.054   8.050   3.720
 3760TIP3    H211158   8.184   7.974   3.737
 3761TIP3   OH211159   7.966   2.253   6.855
 3761TIP3    H111160   7.946   2.170   6.812
 3761TIP3    H211161   8.039   2.289   6.804
 3762TIP3   OH211162   0.640   0.890   0.425
 3762TIP3    H111163   0.556   0.855   0.394
 3762TIP3    H211164   0.677   0.934   0.348
 3763TIP3   OH211165   3.849   8.156   1.716
 3763TIP3    H111166   3.754   8.158   1.721
 3763TIP3    H211167   3.868   8.160   1.622
 3764TIP3   OH211168   4.889   8.493   3.316
 3764TIP3    H111169   4.820   8.500   3.250
 3764TIP3    H211170   4.862   8.419   3.371
 3765TIP3   OH211171   7.445   1.195   0.388
 3765TIP3    H111172   7.516   1.136   0.413
 3765TIP3    H211173   7.370   1.137   0.373
 3766TIP3   OH211174   4.265   7.689   6.269
 3766TIP3    H111175   4.258   7.679   6.174
 3766TIP3    H211176   4.315   7.770   6.281
 3767TIP3   OH211177   9.171   2.055   2.738
 3767TIP3    H111178   9.212   1.975   2.771
 3767TIP3    H211179   9.096   2.024   2.687
 3768TIP3   OH211180   1.985   3.315   4.581
 3768TIP3    H111181   2.017   3.228   4.606
 3768TIP3    H211182   1.928   3.299   4.506
 3769TIP3   OH211183   5.141   5.785   1.878
 3769TIP3    H111184   5.150   5.819   1.966
 3769TIP3    H211185   5.196   5.706   1.877
 3770TIP3   OH211186   2.234   0.545   5.256
 3770TIP3    H111187   2.193   0.613   5.311
 3770TIP3    H211188   2.328   0.562   5.265
 3771TIP3   OH211189   1.642   3.404   4.449
 3771TIP3    H111190   1.699   3.345   4.399
 3771TIP3    H211191   1.662   3.384   4.540
 3772TIP3   OH211192   8.282   1.419   7.337
 3772TIP3    H111193   8.371   1.453   7.342
 3772TIP3    H211194   8.250   1.420   7.427
 3773TIP3   OH211195   6.484   8.527   7.550
 3773TIP3    H111196   6.534   8.590   7.497
 3773TIP3    H211197   6.394   8.558   7.545
 3774TIP3   OH211198   5.431   8.079   3.382
 3774TIP3    H111199   5.426   7.986   3.356
 3774TIP3    H211200   5.353   8.092   3.435
 3775TIP3   OH211201   7.077   4.000   7.216
 3775TIP3    H111202   7.127   4.069   7.259
 3775TIP3    H211203   7.141   3.929   7.203
 3776TIP3   OH211204   5.859   2.005   2.646
 3776TIP3    H111205   5.882   2.098   2.640
 3776TIP3    H211206   5.864   1.984   2.739
 3777TIP3   OH211207   4.292   1.215   4.569
 3777TIP3    H111208   4.282   1.135   4.621
 3777TIP3    H211209   4.362   1.195   4.507
 3778TIP3   OH211210   5.613   0.418   4.692
 3778TIP3    H111211   5.677   0.479   4.657
 3778TIP3    H211212   5.599   0.446   4.783
 3779TIP3   OH211213   6.082   3.735   6.596
 3779TIP3    H111214   6.054   3.643   6.592
 3779TIP3    H211215   6.148   3.737   6.665
 3780TIP3   OH211216   2.214   5.019   7.456
 3780TIP3    H111217   2.207   4.979   7.369
 3780TIP3    H211218   2.123   5.028   7.485
 3781TIP3   OH211219   6.120   0.141   3.483
 3781TIP3    H111220   6.156   0.053   3.498
 3781TIP3    H211221   6.080   0.135   3.396
 3782TIP3   OH211222   0.961   0.798   1.818
 3782TIP3    H111223   0.994   0.723   1.868
 3782TIP3    H211224   0.934   0.760   1.735
 3783TIP3   OH211225   0.652   0.727   3.846
 3783TIP3    H111226   0.742   0.699   3.864
 3783TIP3    H211227   0.601   0.688   3.917
 3784TIP3   OH211228   5.486   8.908   2.945
 3784TIP3    H111229   5.436   8.835   2.982
 3784TIP3    H211230   5.428   8.983   2.952
 3785TIP3   OH211231   9.440   6.412   7.252
 3785TIP3    H111232   9.425   6.474   7.324
 3785TIP3    H211233   9.354   6.402   7.211
 3786TIP3   OH211234   8.242   1.126   4.427
 3786TIP3    H111235   8.323   1.075   4.428
 3786TIP3    H211236   8.176   1.067   4.390
 3787TIP3   OH211237   3.862   3.207   3.184
 3787TIP3    H111238   3.876   3.300   3.168
 3787TIP3    H211239   3.909   3.163   3.113
 3788TIP3   OH211240   2.377   7.957   2.701
 3788TIP3    H111241   2.374   8.052   2.710
 3788TIP3    H211242   2.459   7.931   2.741
 3789TIP3   OH211243   0.153   0.891   7.588
 3789TIP3    H111244   0.097   0.963   7.562
 3789TIP3    H211245   0.242   0.922   7.569
 3790TIP3   OH211246   5.842   1.545   6.131
 3790TIP3    H111247   5.898   1.530   6.207
 3790TIP3    H211248   5.889   1.503   6.059
 3791TIP3   OH211249   7.683   5.162   2.631
 3791TIP3    H111250   7.720   5.248   2.652
 3791TIP3    H211251   7.638   5.175   2.548
 3792TIP3   OH211252   8.396   7.783   5.219
 3792TIP3    H111253   8.460   7.762   5.151
 3792TIP3    H211254   8.311   7.770   5.177
 3793TIP3   OH211255   1.804   4.405   1.486
 3793TIP3    H111256   1.818   4.497   1.462
 3793TIP3    H211257   1.731   4.376   1.430
 3794TIP3   OH211258   1.982   3.972   1.378
 3794TIP3    H111259   1.976   3.903   1.312
 3794TIP3    H211260   2.016   4.048   1.331
 3795TIP3   OH211261   4.195   5.806   4.766
 3795TIP3    H111262   4.128   5.870   4.789
 3795TIP3    H211263   4.274   5.836   4.811
 3796TIP3   OH211264   6.762   7.131   0.551
 3796TIP3    H111265   6.671   7.159   0.562
 3796TIP3    H211266   6.796   7.188   0.483
 3797TIP3   OH211267   0.646   3.309   2.709
 3797TIP3    H111268   0.581   3.239   2.700
 3797TIP3    H211269   0.722   3.266   2.748
 3798TIP3   OH211270   6.764   8.389   3.357
 3798TIP3    H111271   6.854   8.358   3.346
 3798TIP3    H211272   6.760   8.471   3.308
 3799TIP3   OH211273   7.380   6.253   7.555
 3799TIP3    H111274   7.357   6.331   7.504
 3799TIP3    H211275   7.338   6.181   7.508
 3800TIP3   OH211276   3.976   7.832   1.122
 3800TIP3    H111277   3.896   7.839   1.070
 3800TIP3    H211278   3.974   7.909   1.179
 3801TIP3   OH211279   8.885   5.692   4.334
 3801TIP3    H111280   8.867   5.702   4.241
 3801TIP3    H211281   8.980   5.703   4.341
 3802TIP3   OH211282   8.742   8.769   6.450
 3802TIP3    H111283   8.781   8.850   6.415
 3802TIP3    H211284   8.817   8.717   6.480
 3803TIP3   OH211285   4.085   4.018   2.596
 3803TIP3    H111286   4.131   4.065   2.525
 3803TIP3    H211287   4.040   3.947   2.551
 3804TIP3   OH211288   0.775   0.302   1.026
 3804TIP3    H111289   0.694   0.314   1.076
 3804TIP3    H211290   0.751   0.243   0.955
 3805TIP3   OH211291   7.796   7.879   5.384
 3805TIP3    H111292   7.773   7.874   5.477
 3805TIP3    H211293   7.816   7.971   5.370
 3806TIP3   OH211294   1.945   3.451   5.564
 3806TIP3    H111295   1.997   3.530   5.576
 3806TIP3    H211296   1.868   3.464   5.619
 3807TIP3   OH211297   2.264   3.051   2.424
 3807TIP3    H111298   2.242   2.989   2.493
 3807TIP3    H211299   2.208   3.026   2.351
 3808TIP3   OH211300   5.464   0.663   5.709
 3808TIP3    H111301   5.518   0.651   5.631
 3808TIP3    H211302   5.490   0.748   5.744
 3809TIP3   OH211303   8.044   1.173   6.320
 3809TIP3    H111304   8.107   1.160   6.249
 3809TIP3    H211305   7.960   1.184   6.275
 3810TIP3   OH211306   4.643   6.169   6.771
 3810TIP3    H111307   4.649   6.143   6.679
 3810TIP3    H211308   4.703   6.109   6.816
 3811TIP3   OH211309   1.126   6.924   5.007
 3811TIP3    H111310   1.108   6.850   4.949
 3811TIP3    H211311   1.050   6.928   5.065
 3812TIP3   OH211312   5.586   1.198   6.865
 3812TIP3    H111313   5.499   1.159   6.859
 3812TIP3    H211314   5.646   1.129   6.835
 3813TIP3   OH211315   0.017   5.650   0.834
 3813TIP3    H111316  -0.050   5.605   0.782
 3813TIP3    H211317  -0.024   5.734   0.857
 3814TIP3   OH211318   6.265   3.977   0.189
 3814TIP3    H111319   6.182   3.942   0.221
 3814TIP3    H211320   6.322   3.900   0.181
 3815TIP3   OH211321   8.195   5.729   1.510
 3815TIP3    H111322   8.114   5.735   1.560
 3815TIP3    H211323   8.234   5.817   1.516
 3816TIP3   OH211324   6.331   1.543   0.401
 3816TIP3    H111325   6.340   1.629   0.441
 3816TIP3    H211326   6.387   1.486   0.454
 3817TIP3   OH211327   0.281   8.022   2.391
 3817TIP3    H111328   0.281   8.075   2.470
 3817TIP3    H211329   0.202   8.047   2.344
 3818TIP3   OH211330   7.378   5.834   6.894
 3818TIP3    H111331   7.468   5.808   6.874
 3818TIP3    H211332   7.350   5.885   6.818
 3819TIP3   OH211333   7.534   8.532   4.661
 3819TIP3    H111334   7.493   8.544   4.576
 3819TIP3    H211335   7.599   8.601   4.667
 3820TIP3   OH211336   8.452   8.341   0.049
 3820TIP3    H111337   8.428   8.270   0.108
 3820TIP3    H211338   8.484   8.297  -0.030
 3821TIP3   OH211339   0.437   0.032   0.813
 3821TIP3    H111340   0.342   0.037   0.822
 3821TIP3    H211341   0.457  -0.062   0.821
 3822TIP3   OH211342   3.502   5.418   6.146
 3822TIP3    H111343   3.519   5.473   6.223
 3822TIP3    H211344   3.463   5.477   6.082
 3823TIP3   OH211345   3.805   4.840   1.501
 3823TIP3    H111346   3.748   4.916   1.486
 3823TIP3    H211347   3.884   4.860   1.452
 3824TIP3   OH211348   9.486   7.824   1.545
 3824TIP3    H111349   9.462   7.836   1.453
 3824TIP3    H211350   9.403   7.824   1.592
 3825TIP3   OH211351   4.619   3.629   3.030
 3825TIP3    H111352   4.623   3.704   3.090
 3825TIP3    H211353   4.630   3.552   3.087
 3826TIP3   OH211354   7.019   6.316   1.432
 3826TIP3    H111355   7.113   6.336   1.430
 3826TIP3    H211356   7.015   6.223   1.454
 3827TIP3   OH211357   3.394   0.389   7.700
 3827TIP3    H111358   3.460   0.417   7.636
 3827TIP3    H211359   3.317   0.366   7.648
 3828TIP3   OH211360   7.679   7.038   6.509
 3828TIP3    H111361   7.596   7.074   6.478
 3828TIP3    H211362   7.708   7.097   6.577
 3829TIP3   OH211363   8.816   5.662   2.873
 3829TIP3    H111364   8.829   5.609   2.952
 3829TIP3    H211365   8.721   5.671   2.865
 3830TIP3   OH211366   6.662   3.530   2.032
 3830TIP3    H111367   6.627   3.607   2.078
 3830TIP3    H211368   6.751   3.555   2.008
 3831TIP3   OH211369   8.527   2.181   4.831
 3831TIP3    H111370   8.485   2.251   4.781
 3831TIP3    H211371   8.478   2.102   4.807
 3832TIP3   OH211372   8.521   3.724   1.810
 3832TIP3    H111373   8.579   3.796   1.834
 3832TIP3    H211374   8.555   3.694   1.725
 3833TIP3   OH211375   4.156   1.747   0.974
 3833TIP3    H111376   4.233   1.693   0.959
 3833TIP3    H211377   4.157   1.812   0.904
 3834TIP3   OH211378   0.447   6.956   4.524
 3834TIP3    H111379   0.502   7.003   4.461
 3834TIP3    H211380   0.506   6.936   4.597
 3835TIP3   OH211381   0.267   2.955   6.218
 3835TIP3    H111382   0.219   3.035   6.196
 3835TIP3    H211383   0.265   2.903   6.137
 3836TIP3   OH211384   0.080   5.840   0.334
 3836TIP3    H111385   0.038   5.848   0.249
 3836TIP3    H211386   0.100   5.746   0.342
 3837TIP3   OH211387   3.452   8.538   0.546
 3837TIP3    H111388   3.358   8.528   0.557
 3837TIP3    H211389   3.486   8.448   0.546
 3838TIP3   OH211390   5.754   4.363   3.339
 3838TIP3    H111391   5.753   4.397   3.250
 3838TIP3    H211392   5.664   4.367   3.369
 3839TIP3   OH211393   9.494   6.816   6.991
 3839TIP3    H111394   9.455   6.729   7.000
 3839TIP3    H211395   9.581   6.800   6.956
 3840TIP3   OH211396   2.441   6.873   3.362
 3840TIP3    H111397   2.420   6.803   3.423
 3840TIP3    H211398   2.361   6.925   3.357
 3841TIP3   OH211399   4.598   4.464   5.310
 3841TIP3    H111400   4.615   4.385   5.260
 3841TIP3    H211401   4.545   4.435   5.384
 3842TIP3   OH211402   6.059   1.001   7.062
 3842TIP3    H111403   6.131   1.025   7.002
 3842TIP3    H211404   6.018   1.085   7.084
 3843TIP3   OH211405   5.638   6.469   5.595
 3843TIP3    H111406   5.696   6.394   5.586
 3843TIP3    H211407   5.686   6.542   5.556
 3844TIP3   OH211408   3.108   5.617   7.798
 3844TIP3    H111409   3.105   5.577   7.885
 3844TIP3    H211410   3.075   5.706   7.812
 3845TIP3   OH211411   2.552   6.909   7.259
 3845TIP3    H111412   2.472   6.884   7.305
 3845TIP3    H211413   2.615   6.927   7.329
 3846TIP3   OH211414   6.402   6.624   4.242
 3846TIP3    H111415   6.337   6.577   4.294
 3846TIP3    H211416   6.387   6.717   4.262
 3847TIP3   OH211417   1.960   8.576   4.112
 3847TIP3    H111418   1.970   8.544   4.023
 3847TIP3    H211419   1.996   8.664   4.111
 3848TIP3   OH211420   4.904   7.828   1.073
 3848TIP3    H111421   4.822   7.874   1.056
 3848TIP3    H211422   4.928   7.789   0.989
 3849TIP3   OH211423   2.915   5.250   5.917
 3849TIP3    H111424   2.891   5.273   5.827
 3849TIP3    H211425   2.901   5.330   5.967
 3850TIP3   OH211426   6.471   4.717   0.754
 3850TIP3    H111427   6.433   4.632   0.735
 3850TIP3    H211428   6.483   4.758   0.668
 3851TIP3   OH211429   1.482   0.336   6.463
 3851TIP3    H111430   1.527   0.384   6.532
 3851TIP3    H211431   1.495   0.390   6.385
 3852TIP3   OH211432   5.133   3.108   3.441
 3852TIP3    H111433   5.107   3.198   3.420
 3852TIP3    H211434   5.223   3.101   3.410
 3853TIP3   OH211435   5.031   3.564   6.478
 3853TIP3    H111436   4.945   3.524   6.493
 3853TIP3    H211437   5.091   3.489   6.470
 3854TIP3   OH211438   8.075   6.596   4.679
 3854TIP3    H111439   7.983   6.572   4.694
 3854TIP3    H211440   8.124   6.516   4.699
 3855TIP3   OH211441   2.631   1.404   5.170
 3855TIP3    H111442   2.719   1.420   5.205
 3855TIP3    H211443   2.595   1.491   5.157
 3856TIP3   OH211444   7.713   1.920   1.332
 3856TIP3    H111445   7.676   1.947   1.248
 3856TIP3    H211446   7.652   1.954   1.397
 3857TIP3   OH211447   3.068   7.375   7.428
 3857TIP3    H111448   3.056   7.296   7.482
 3857TIP3    H211449   2.994   7.431   7.451
 3858TIP3   OH211450   3.808   5.272   3.861
 3858TIP3    H111451   3.847   5.276   3.948
 3858TIP3    H211452   3.864   5.211   3.812
 3859TIP3   OH211453   5.783   1.063   5.337
 3859TIP3    H111454   5.692   1.070   5.365
 3859TIP3    H211455   5.778   1.053   5.242
 3860TIP3   OH211456   8.858   6.382   1.264
 3860TIP3    H111457   8.773   6.340   1.261
 3860TIP3    H211458   8.921   6.312   1.245
 3861TIP3   OH211459   4.279   2.753   2.196
 3861TIP3    H111460   4.249   2.830   2.149
 3861TIP3    H211461   4.365   2.733   2.158
 3862TIP3   OH211462   3.017   1.912   7.758
 3862TIP3    H111463   3.050   1.847   7.819
 3862TIP3    H211464   2.923   1.894   7.752
 3863TIP3   OH211465   6.762   6.497   2.062
 3863TIP3    H111466   6.798   6.477   1.975
 3863TIP3    H211467   6.770   6.414   2.110
 3864TIP3   OH211468   7.574   4.115   7.020
 3864TIP3    H111469   7.539   4.195   7.059
 3864TIP3    H211470   7.655   4.098   7.068
 3865TIP3   OH211471   1.809   1.830   5.296
 3865TIP3    H111472   1.903   1.847   5.293
 3865TIP3    H211473   1.769   1.908   5.257
 3866TIP3   OH211474   0.601   2.880   0.183
 3866TIP3    H111475   0.517   2.873   0.137
 3866TIP3    H211476   0.611   2.974   0.201
 3867TIP3   OH211477   7.819   4.941   5.235
 3867TIP3    H111478   7.821   5.034   5.211
 3867TIP3    H211479   7.745   4.933   5.295
 3868TIP3   OH211480   7.172   0.928   3.659
 3868TIP3    H111481   7.160   0.999   3.596
 3868TIP3    H211482   7.264   0.905   3.651
 3869TIP3   OH211483   7.839   6.271   4.217
 3869TIP3    H111484   7.881   6.291   4.301
 3869TIP3    H211485   7.802   6.183   4.229
 3870TIP3   OH211486   3.807   6.024   7.567
 3870TIP3    H111487   3.767   5.993   7.486
 3870TIP3    H211488   3.900   6.029   7.548
 3871TIP3   OH211489   7.474   7.446   5.279
 3871TIP3    H111490   7.512   7.530   5.253
 3871TIP3    H211491   7.519   7.382   5.224
 3872TIP3   OH211492   7.722   8.071   4.261
 3872TIP3    H111493   7.719   8.142   4.197
 3872TIP3    H211494   7.631   8.059   4.288
 3873TIP3   OH211495   6.931   5.245   5.293
 3873TIP3    H111496   7.017   5.211   5.271
 3873TIP3    H211497   6.935   5.338   5.269
 3874TIP3   OH211498   4.772   6.958   3.759
 3874TIP3    H111499   4.772   7.052   3.775
 3874TIP3    H211500   4.789   6.918   3.844
 3875TIP3   OH211501   3.172   7.995   1.768
 3875TIP3    H111502   3.107   7.964   1.832
 3875TIP3    H211503   3.228   8.054   1.818
 3876TIP3   OH211504   6.690   8.901   3.678
 3876TIP3    H111505   6.655   8.972   3.624
 3876TIP3    H211506   6.669   8.927   3.768
 3877TIP3   OH211507   2.811   2.313   0.604
 3877TIP3    H111508   2.880   2.367   0.566
 3877TIP3    H211509   2.741   2.314   0.539
 3878TIP3   OH211510   9.201   6.098   6.738
 3878TIP3    H111511   9.291   6.094   6.769
 3878TIP3    H211512   9.151   6.047   6.802
 3879TIP3   OH211513   6.851   1.990   5.509
 3879TIP3    H111514   6.839   2.036   5.592
 3879TIP3    H211515   6.790   1.916   5.513
 3880TIP3   OH211516   5.667   1.913   2.158
 3880TIP3    H111517   5.694   1.933   2.248
 3880TIP3    H211518   5.698   1.824   2.143
 3881TIP3   OH211519   8.171   3.702   5.870
 3881TIP3    H111520   8.124   3.781   5.842
 3881TIP3    H211521   8.251   3.702   5.818
 3882TIP3   OH211522   4.220   6.289   1.135
 3882TIP3    H111523   4.238   6.195   1.142
 3882TIP3    H211524   4.156   6.306   1.204
 3883TIP3   OH211525   6.616   8.923   6.192
 3883TIP3    H111526   6.545   8.911   6.255
 3883TIP3    H211527   6.636   9.016   6.195
 3884TIP3   OH211528   8.039   8.068   4.886
 3884TIP3    H111529   8.024   7.978   4.856
 3884TIP3    H211530   7.956   8.094   4.926
 3885TIP3   OH211531   8.604   8.229   1.482
 3885TIP3    H111532   8.682   8.203   1.432
 3885TIP3    H211533   8.628   8.214   1.573
 3886TIP3   OH211534   7.940   2.876   6.609
 3886TIP3    H111535   7.956   2.800   6.554
 3886TIP3    H211536   7.964   2.847   6.697
 3887TIP3   OH211537   6.236   5.008   5.835
 3887TIP3    H111538   6.152   5.053   5.846
 3887TIP3    H211539   6.212   4.917   5.816
 3888TIP3   OH211540   7.467   8.360   4.972
 3888TIP3    H111541   7.509   8.398   5.050
 3888TIP3    H211542   7.400   8.424   4.948
 3889TIP3   OH211543   4.382   3.178   6.541
 3889TIP3    H111544   4.398   3.228   6.621
 3889TIP3    H211545   4.407   3.236   6.470
 3890TIP3   OH211546   4.423   5.981   4.193
 3890TIP3    H111547   4.353   5.966   4.128
 3890TIP3    H211548   4.439   6.076   4.188
 3891TIP3   OH211549   9.492   2.474   6.991
 3891TIP3    H111550   9.568   2.490   7.047
 3891TIP3    H211551   9.522   2.495   6.903
 3892TIP3   OH211552   7.077   1.534   5.875
 3892TIP3    H111553   7.075   1.554   5.968
 3892TIP3    H211554   7.004   1.583   5.838
 3893TIP3   OH211555   5.428   3.566   7.106
 3893TIP3    H111556   5.497   3.508   7.139
 3893TIP3    H211557   5.475   3.643   7.073
 3894TIP3   OH211558   7.128   3.299   4.358
 3894TIP3    H111559   7.061   3.235   4.333
 3894TIP3    H211560   7.165   3.328   4.275
 3895TIP3   OH211561   1.396   1.544   0.959
 3895TIP3    H111562   1.343   1.494   1.021
 3895TIP3    H211563   1.482   1.549   1.001
 3896TIP3   OH211564   5.773   6.329   0.855
 3896TIP3    H111565   5.746   6.243   0.887
 3896TIP3    H211566   5.752   6.389   0.926
 3897TIP3   OH211567   2.130   1.090   4.580
 3897TIP3    H111568   2.088   1.176   4.572
 3897TIP3    H211569   2.177   1.093   4.663
 3898TIP3   OH211570   1.570   0.981   4.370
 3898TIP3    H111571   1.608   1.036   4.439
 3898TIP3    H211572   1.643   0.930   4.337
 3899TIP3   OH211573   5.975   4.398   2.909
 3899TIP3    H111574   5.885   4.373   2.889
 3899TIP3    H211575   5.986   4.377   3.001
 3900TIP3   OH211576   8.383   4.847   0.604
 3900TIP3    H111577   8.462   4.802   0.633
 3900TIP3    H211578   8.368   4.815   0.515
 3901TIP3   OH211579   0.297   0.558   6.052
 3901TIP3    H111580   0.275   0.572   6.144
 3901TIP3    H211581   0.248   0.479   6.028
 3902TIP3   OH211582   4.924   2.428   0.420
 3902TIP3    H111583   4.846   2.449   0.472
 3902TIP3    H211584   4.896   2.440   0.329
 3903TIP3   OH211585   4.385   1.516   3.975
 3903TIP3    H111586   4.476   1.508   3.947
 3903TIP3    H211587   4.340   1.445   3.928
 3904TIP3   OH211588   2.668   0.027   2.750
 3904TIP3    H111589   2.620  -0.050   2.721
 3904TIP3    H211590   2.615   0.063   2.822
 3905TIP3   OH211591   1.908   1.458   6.137
 3905TIP3    H111592   1.834   1.420   6.185
 3905TIP3    H211593   1.877   1.544   6.108
 3906TIP3   OH211594   4.103   4.142   4.768
 3906TIP3    H111595   4.057   4.171   4.690
 3906TIP3    H211596   4.034   4.126   4.833
 3907TIP3   OH211597   1.555   1.648   4.318
 3907TIP3    H111598   1.545   1.553   4.328
 3907TIP3    H211599   1.466   1.681   4.320
 3908TIP3   OH211600   2.182   7.495   5.322
 3908TIP3    H111601   2.111   7.530   5.376
 3908TIP3    H211602   2.162   7.402   5.313
 3909TIP3   OH211603   8.386   4.879   7.526
 3909TIP3    H111604   8.351   4.879   7.615
 3909TIP3    H211605   8.324   4.931   7.476
 3910TIP3   OH211606   6.108   5.128   4.310
 3910TIP3    H111607   6.159   5.055   4.274
 3910TIP3    H211608   6.172   5.180   4.360
 3911TIP3   OH211609   0.434   3.125   2.610
 3911TIP3    H111610   0.424   3.064   2.683
 3911TIP3    H211611   0.383   3.085   2.539
 3912TIP3   OH211612   9.248   8.874   1.065
 3912TIP3    H111613   9.304   8.880   0.988
 3912TIP3    H211614   9.274   8.793   1.108
 3913TIP3   OH211615   2.232   0.743   3.931
 3913TIP3    H111616   2.264   0.823   3.890
 3913TIP3    H211617   2.261   0.751   4.022
 3914TIP3   OH211618   8.604   4.453   7.308
 3914TIP3    H111619   8.601   4.413   7.396
 3914TIP3    H211620   8.566   4.540   7.320
 3915TIP3   OH211621   0.313   8.125   4.508
 3915TIP3    H111622   0.406   8.145   4.517
 3915TIP3    H211623   0.291   8.148   4.418
 3916TIP3   OH211624   2.447   0.560   2.914
 3916TIP3    H111625   2.496   0.563   2.832
 3916TIP3    H211626   2.485   0.631   2.967
 3917TIP3   OH211627   1.294   6.202   5.974
 3917TIP3    H111628   1.235   6.269   5.939
 3917TIP3    H211629   1.341   6.169   5.897
 3918TIP3   OH211630   3.546   5.022   3.125
 3918TIP3    H111631   3.529   5.033   3.218
 3918TIP3    H211632   3.591   4.938   3.119
 3919TIP3   OH211633   4.466   1.261   6.253
 3919TIP3    H111634   4.518   1.249   6.174
 3919TIP3    H211635   4.454   1.355   6.261
 3920TIP3   OH211636   9.401   4.517   6.812
 3920TIP3    H111637   9.415   4.511   6.907
 3920TIP3    H211638   9.478   4.475   6.774
 3921TIP3   OH211639   6.492   6.006   6.171
 3921TIP3    H111640   6.518   6.024   6.261
 3921TIP3    H211641   6.506   5.912   6.160
 3922TIP3   OH211642   5.076   8.860   7.542
 3922TIP3    H111643   5.155   8.858   7.597
 3922TIP3    H211644   5.100   8.811   7.464
 3923TIP3   OH211645   3.486   7.403   5.342
 3923TIP3    H111646   3.432   7.424   5.266
 3923TIP3    H211647   3.435   7.338   5.390
 3924TIP3   OH211648   4.270   3.371   6.722
 3924TIP3    H111649   4.185   3.335   6.694
 3924TIP3    H211650   4.249   3.460   6.751
 3925TIP3   OH211651   9.558   7.416   3.109
 3925TIP3    H111652   9.552   7.484   3.176
 3925TIP3    H211653   9.614   7.453   3.041
 3926TIP3   OH211654   0.697   8.580   1.391
 3926TIP3    H111655   0.775   8.540   1.353
 3926TIP3    H211656   0.624   8.544   1.341
 3927TIP3   OH211657   3.046   1.261   1.592
 3927TIP3    H111658   3.114   1.328   1.596
 3927TIP3    H211659   3.092   1.179   1.607
 3928TIP3   OH211660   0.209   3.657   5.942
 3928TIP3    H111661   0.267   3.663   5.867
 3928TIP3    H211662   0.177   3.746   5.956
 3929TIP3   OH211663   0.187   7.600   3.268
 3929TIP3    H111664   0.218   7.552   3.345
 3929TIP3    H211665   0.208   7.691   3.288
 3930TIP3   OH211666   2.608   4.439   5.495
 3930TIP3    H111667   2.587   4.479   5.410
 3930TIP3    H211668   2.588   4.346   5.483
 3931TIP3   OH211669   7.389   1.058   0.709
 3931TIP3    H111670   7.299   1.091   0.706
 3931TIP3    H211671   7.434   1.118   0.768
 3932TIP3   OH211672   4.620   3.869   2.105
 3932TIP3    H111673   4.708   3.835   2.116
 3932TIP3    H211674   4.618   3.901   2.014
 3933TIP3   OH211675   2.257   3.895   7.173
 3933TIP3    H111676   2.286   3.860   7.257
 3933TIP3    H211677   2.196   3.965   7.196
 3934TIP3   OH211678   6.232   6.927   2.298
 3934TIP3    H111679   6.191   7.009   2.325
 3934TIP3    H211680   6.167   6.860   2.318
 3935TIP3   OH211681   1.112   6.007   6.535
 3935TIP3    H111682   1.044   5.943   6.511
 3935TIP3    H211683   1.173   6.005   6.461
 3936TIP3   OH211684   3.262   1.762   2.485
 3936TIP3    H111685   3.333   1.787   2.544
 3936TIP3    H211686   3.214   1.694   2.532
 3937TIP3   OH211687   0.491   3.120   5.057
 3937TIP3    H111688   0.585   3.102   5.066
 3937TIP3    H211689   0.451   3.033   5.053
 3938TIP3   OH211690   8.725   3.087   2.359
 3938TIP3    H111691   8.756   3.097   2.449
 3938TIP3    H211692   8.701   3.175   2.332
 3939TIP3   OH211693   4.806   8.945   7.179
 3939TIP3    H111694   4.813   9.028   7.133
 3939TIP3    H211695   4.850   8.882   7.123
 3940TIP3   OH211696   0.064   7.058   1.282
 3940TIP3    H111697   0.097   6.968   1.288
 3940TIP3    H211698   0.127   7.104   1.226
 3941TIP3   OH211699   6.841   0.328   7.657
 3941TIP3    H111700   6.802   0.380   7.727
 3941TIP3    H211701   6.783   0.343   7.582
 3942TIP3   OH211702   1.917   2.210   6.291
 3942TIP3    H111703   1.839   2.206   6.236
 3942TIP3    H211704   1.965   2.287   6.260
 3943TIP3   OH211705   4.244   7.048   2.549
 3943TIP3    H111706   4.262   6.959   2.579
 3943TIP3    H211707   4.149   7.050   2.536
 3944TIP3   OH211708   5.680   2.851   1.830
 3944TIP3    H111709   5.767   2.887   1.813
 3944TIP3    H211710   5.692   2.791   1.904
 3945TIP3   OH211711   3.672   7.876   1.680
 3945TIP3    H111712   3.577   7.864   1.689
 3945TIP3    H211713   3.710   7.796   1.717
 3946TIP3   OH211714   6.178   4.354   5.492
 3946TIP3    H111715   6.185   4.310   5.407
 3946TIP3    H211716   6.088   4.337   5.520
 3947TIP3   OH211717   1.992   4.264   1.319
 3947TIP3    H111718   2.064   4.325   1.336
 3947TIP3    H211719   1.929   4.280   1.389
 3948TIP3   OH211720   5.409   7.049   0.346
 3948TIP3    H111721   5.369   7.006   0.421
 3948TIP3    H211722   5.433   7.136   0.378
 3949TIP3   OH211723   6.367   7.135   0.196
 3949TIP3    H111724   6.275   7.126   0.220
 3949TIP3    H211725   6.371   7.216   0.145
 3950TIP3   OH211726   2.918   2.941   4.618
 3950TIP3    H111727   2.932   2.859   4.664
 3950TIP3    H211728   2.840   2.926   4.564
 3951TIP3   OH211729   8.642   0.316   2.124
 3951TIP3    H111730   8.626   0.383   2.190
 3951TIP3    H211731   8.559   0.309   2.077
 3952TIP3   OH211732   1.994   8.834   7.268
 3952TIP3    H111733   2.025   8.923   7.252
 3952TIP3    H211734   2.069   8.778   7.248
 3953TIP3   OH211735   5.885   2.980   7.644
 3953TIP3    H111736   5.791   2.996   7.639
 3953TIP3    H211737   5.913   3.024   7.725
 3954TIP3   OH211738   2.057   3.610   7.787
 3954TIP3    H111739   2.064   3.701   7.759
 3954TIP3    H211740   2.123   3.563   7.735
 3955TIP3   OH211741   1.830   0.499   7.402
 3955TIP3    H111742   1.756   0.555   7.379
 3955TIP3    H211743   1.871   0.542   7.477
 3956TIP3   OH211744   2.252   8.920   6.405
 3956TIP3    H111745   2.266   9.009   6.373
 3956TIP3    H211746   2.339   8.890   6.430
 3957TIP3   OH211747   4.818   7.418   3.022
 3957TIP3    H111748   4.862   7.484   3.077
 3957TIP3    H211749   4.842   7.334   3.062
 3958TIP3   OH211750   6.243   5.322   6.493
 3958TIP3    H111751   6.182   5.283   6.556
 3958TIP3    H211752   6.187   5.369   6.431
 3959TIP3   OH211753   7.136   6.970   5.110
 3959TIP3    H111754   7.111   6.891   5.158
 3959TIP3    H211755   7.110   7.042   5.167
 3960TIP3   OH211756   1.980   4.027   4.238
 3960TIP3    H111757   2.007   4.119   4.239
 3960TIP3    H211758   2.061   3.978   4.250
 3961TIP3   OH211759   6.594   8.514   4.719
 3961TIP3    H111760   6.555   8.498   4.633
 3961TIP3    H211761   6.688   8.515   4.703
 3962TIP3   OH211762   8.542   1.331   1.783
 3962TIP3    H111763   8.488   1.256   1.805
 3962TIP3    H211764   8.490   1.381   1.721
 3963TIP3   OH211765   1.740   0.386   3.147
 3963TIP3    H111766   1.747   0.359   3.055
 3963TIP3    H211767   1.656   0.431   3.153
 3964TIP3   OH211768   9.540   7.003   6.282
 3964TIP3    H111769   9.621   7.044   6.312
 3964TIP3    H211770   9.562   6.960   6.200
 3965TIP3   OH211771   0.891   1.462   7.060
 3965TIP3    H111772   0.848   1.546   7.044
 3965TIP3    H211773   0.940   1.444   6.979
 3966TIP3   OH211774   3.163   7.308   1.428
 3966TIP3    H111775   3.143   7.295   1.521
 3966TIP3    H211776   3.181   7.401   1.420
 3967TIP3   OH211777   4.220   4.971   6.433
 3967TIP3    H111778   4.158   4.899   6.449
 3967TIP3    H211779   4.286   4.933   6.376
 3968TIP3   OH211780   7.529   0.547   5.763
 3968TIP3    H111781   7.572   0.483   5.706
 3968TIP3    H211782   7.444   0.507   5.784
 3969TIP3   OH211783   3.179   5.767   2.970
 3969TIP3    H111784   3.137   5.681   2.961
 3969TIP3    H211785   3.123   5.815   3.031
 3970TIP3   OH211786   1.889   3.559   2.372
 3970TIP3    H111787   1.961   3.575   2.311
 3970TIP3    H211788   1.894   3.632   2.435
 3971TIP3   OH211789   1.323   3.441   3.007
 3971TIP3    H111790   1.259   3.504   2.974
 3971TIP3    H211791   1.272   3.364   3.030
 3972TIP3   OH211792   0.830   1.033   1.982
 3972TIP3    H111793   0.749   1.075   1.954
 3972TIP3    H211794   0.848   0.969   1.913
 3973TIP3   OH211795   6.978   6.534   0.945
 3973TIP3    H111796   7.008   6.443   0.945
 3973TIP3    H211797   6.916   6.539   1.018
 3974TIP3   OH211798   4.039   6.668   1.613
 3974TIP3    H111799   4.113   6.618   1.579
 3974TIP3    H211800   3.964   6.610   1.603
 3975TIP3   OH211801   5.370   2.677   5.842
 3975TIP3    H111802   5.278   2.659   5.820
 3975TIP3    H211803   5.379   2.772   5.831
 3976TIP3   OH211804   8.167   6.150   3.873
 3976TIP3    H111805   8.196   6.060   3.885
 3976TIP3    H211806   8.247   6.202   3.877
 3977TIP3   OH211807   2.060   0.962   2.873
 3977TIP3    H111808   1.999   0.908   2.922
 3977TIP3    H211809   2.069   0.918   2.788
 3978TIP3   OH211810   4.188   6.103   2.698
 3978TIP3    H111811   4.138   6.066   2.771
 3978TIP3    H211812   4.279   6.084   2.720
 3979TIP3   OH211813   8.328   7.658   7.228
 3979TIP3    H111814   8.352   7.720   7.160
 3979TIP3    H211815   8.384   7.681   7.302
 3980TIP3   OH211816   2.824   7.378   4.488
 3980TIP3    H111817   2.920   7.373   4.488
 3980TIP3    H211818   2.802   7.405   4.577
 3981TIP3   OH211819   4.251   3.461   0.603
 3981TIP3    H111820   4.200   3.495   0.529
 3981TIP3    H211821   4.334   3.433   0.564
 3982TIP3   OH211822   2.453   1.430   7.389
 3982TIP3    H111823   2.530   1.448   7.334
 3982TIP3    H211824   2.382   1.480   7.347
 3983TIP3   OH211825   1.006   2.784   6.596
 3983TIP3    H111826   0.933   2.844   6.581
 3983TIP3    H211827   1.078   2.820   6.545
 3984TIP3   OH211828   6.444   1.037   1.300
 3984TIP3    H111829   6.446   1.105   1.234
 3984TIP3    H211830   6.488   1.075   1.376
 3985TIP3   OH211831   6.536   6.374   6.081
 3985TIP3    H111832   6.528   6.279   6.072
 3985TIP3    H211833   6.525   6.390   6.175
 3986TIP3   OH211834   8.377   5.229   3.937
 3986TIP3    H111835   8.401   5.258   4.026
 3986TIP3    H211836   8.455   5.248   3.885
 3987TIP3   OH211837   4.532   6.939   5.655
 3987TIP3    H111838   4.583   6.881   5.599
 3987TIP3    H211839   4.441   6.924   5.630
 3988TIP3   OH211840   5.997   8.651   3.062
 3988TIP3    H111841   6.028   8.588   2.998
 3988TIP3    H211842   6.077   8.692   3.096
 3989TIP3   OH211843   3.287   5.891   6.632
 3989TIP3    H111844   3.212   5.943   6.661
 3989TIP3    H211845   3.255   5.801   6.629
 3990TIP3   OH211846   1.040   7.594   7.091
 3990TIP3    H111847   1.056   7.579   7.184
 3990TIP3    H211848   1.060   7.510   7.050
 3991TIP3   OH211849   5.604   3.930   2.422
 3991TIP3    H111850   5.698   3.927   2.439
 3991TIP3    H211851   5.565   3.877   2.491
 3992TIP3   OH211852   7.175   4.417   1.946
 3992TIP3    H111853   7.084   4.393   1.934
 3992TIP3    H211854   7.224   4.357   1.889
 3993TIP3   OH211855   3.489   1.587   3.068
 3993TIP3    H111856   3.473   1.569   3.161
 3993TIP3    H211857   3.421   1.649   3.043
 3994TIP3   OH211858   4.490   8.525   2.451
 3994TIP3    H111859   4.482   8.581   2.529
 3994TIP3    H211860   4.573   8.553   2.411
 3995TIP3   OH211861   1.060   1.899   5.321
 3995TIP3    H111862   0.970   1.923   5.297
 3995TIP3    H211863   1.113   1.930   5.247
 3996TIP3   OH211864   4.184   7.111   6.334
 3996TIP3    H111865   4.211   7.145   6.420
 3996TIP3    H211866   4.251   7.144   6.274
 3997TIP3   OH211867   1.689   1.884   4.476
 3997TIP3    H111868   1.727   1.892   4.563
 3997TIP3    H211869   1.663   1.973   4.452
 3998TIP3   OH211870   6.410   6.122   2.475
 3998TIP3    H111871   6.492   6.076   2.458
 3998TIP3    H211872   6.363   6.065   2.536
 3999TIP3   OH211873   5.814   7.446   5.147
 3999TIP3    H111874   5.882   7.397   5.194
 3999TIP3    H211875   5.750   7.379   5.122
 4000TIP3   OH211876   1.084   4.312   5.240
 4000TIP3    H111877   1.130   4.230   5.258
 4000TIP3    H211878   1.118   4.340   5.155
 4001TIP3   OH211879   1.577   1.348   2.642
 4001TIP3    H111880   1.609   1.323   2.555
 4001TIP3    H211881   1.578   1.266   2.692
 4002TIP3   OH211882   2.342   2.972   3.846
 4002TIP3    H111883   2.369   3.003   3.760
 4002TIP3    H211884   2.361   3.046   3.905
 4003TIP3   OH211885   9.177   4.539   2.817
 4003TIP3    H111886   9.269   4.559   2.799
 4003TIP3    H211887   9.143   4.506   2.734
 4004TIP3   OH211888   0.176   8.875   7.011
 4004TIP3    H111889   0.205   8.783   7.011
 4004TIP3    H211890   0.232   8.917   6.946
 4005TIP3   OH211891   8.521   0.166   3.671
 4005TIP3    H111892   8.444   0.117   3.642
 4005TIP3    H211893   8.557   0.114   3.742
 4006TIP3   OH211894   3.055   5.544   3.727
 4006TIP3    H111895   3.043   5.548   3.822
 4006TIP3    H211896   3.127   5.605   3.709
 4007TIP3   OH211897   5.277   7.673   4.103
 4007TIP3    H111898   5.278   7.577   4.094
 4007TIP3    H211899   5.189   7.693   4.132
 4008TIP3   OH211900   5.227   0.979   5.014
 4008TIP3    H111901   5.157   0.997   5.077
 4008TIP3    H211902   5.182   0.941   4.939
 4009TIP3   OH211903   2.744   7.627   5.175
 4009TIP3    H111904   2.665   7.572   5.170
 4009TIP3    H211905   2.813   7.568   5.205
 4010TIP3   OH211906   8.987   3.343   1.563
 4010TIP3    H111907   9.042   3.420   1.549
 4010TIP3    H211908   8.913   3.376   1.614
 4011TIP3   OH211909   9.345   8.119   2.261
 4011TIP3    H111910   9.287   8.046   2.280
 4011TIP3    H211911   9.348   8.124   2.165
 4012TIP3   OH211912   8.587   4.034   6.233
 4012TIP3    H111913   8.561   4.125   6.223
 4012TIP3    H211914   8.647   4.019   6.160
 4013TIP3   OH211915   9.213   7.229   5.074
 4013TIP3    H111916   9.224   7.324   5.065
 4013TIP3    H211917   9.189   7.200   4.986
 4014TIP3   OH211918   1.857   1.756   2.294
 4014TIP3    H111919   1.924   1.747   2.226
 4014TIP3    H211920   1.884   1.693   2.362
 4015TIP3   OH211921   0.964   3.569   0.762
 4015TIP3    H111922   0.946   3.477   0.783
 4015TIP3    H211923   0.902   3.618   0.815
 4016TIP3   OH211924   5.053   3.361   3.356
 4016TIP3    H111925   5.014   3.342   3.271
 4016TIP3    H211926   4.996   3.426   3.396
 4017TIP3   OH211927   0.889   5.481   0.696
 4017TIP3    H111928   0.834   5.495   0.619
 4017TIP3    H211929   0.971   5.447   0.661
 4018TIP3   OH211930   0.654   1.310   1.395
 4018TIP3    H111931   0.629   1.354   1.314
 4018TIP3    H211932   0.699   1.231   1.366
 4019TIP3   OH211933   4.452   8.452   7.307
 4019TIP3    H111934   4.380   8.515   7.314
 4019TIP3    H211935   4.465   8.420   7.397
 4020TIP3   OH211936   2.701   5.568   0.713
 4020TIP3    H111937   2.732   5.490   0.668
 4020TIP3    H211938   2.607   5.553   0.724
 4021TIP3   OH211939   4.680   7.521   5.479
 4021TIP3    H111940   4.607   7.542   5.537
 4021TIP3    H211941   4.755   7.509   5.537
 4022TIP3   OH211942   2.774   1.828   7.415
 4022TIP3    H111943   2.796   1.895   7.480
 4022TIP3    H211944   2.829   1.849   7.340
 4023TIP3   OH211945   0.120   6.897   5.939
 4023TIP3    H111946   0.191   6.960   5.942
 4023TIP3    H211947   0.148   6.831   5.876
 4024TIP3   OH211948   0.035   7.589   4.191
 4024TIP3    H111949   0.059   7.637   4.271
 4024TIP3    H211950   0.090   7.511   4.193
 4025TIP3   OH211951   5.985   3.474   4.868
 4025TIP3    H111952   5.939   3.400   4.908
 4025TIP3    H211953   5.927   3.504   4.798
 4026TIP3   OH211954   4.652   1.593   4.662
 4026TIP3    H111955   4.727   1.629   4.615
 4026TIP3    H211956   4.657   1.633   4.749
 4027TIP3   OH211957   3.293   8.571   4.303
 4027TIP3    H111958   3.225   8.605   4.362
 4027TIP3    H211959   3.364   8.544   4.360
 4028TIP3   OH211960   0.327   1.405   1.941
 4028TIP3    H111961   0.354   1.494   1.917
 4028TIP3    H211962   0.277   1.374   1.865
 4029TIP3   OH211963   4.322   4.176   7.302
 4029TIP3    H111964   4.298   4.170   7.210
 4029TIP3    H211965   4.238   4.183   7.349
 4030TIP3   OH211966   1.587   7.358   2.638
 4030TIP3    H111967   1.632   7.380   2.557
 4030TIP3    H211968   1.552   7.441   2.670
 4031TIP3   OH211969   3.690   8.951   0.805
 4031TIP3    H111970   3.667   8.965   0.897
 4031TIP3    H211971   3.664   8.860   0.788
 4032TIP3   OH211972   5.784   7.973   3.065
 4032TIP3    H111973   5.856   7.911   3.053
 4032TIP3    H211974   5.785   8.026   2.985
 4033TIP3   OH211975   5.874   4.889   5.067
 4033TIP3    H111976   5.810   4.947   5.108
 4033TIP3    H211977   5.948   4.947   5.046
 4034TIP3   OH211978   5.423   2.108   1.912
 4034TIP3    H111979   5.359   2.179   1.914
 4034TIP3    H211980   5.384   2.039   1.965
 4035TIP3   OH211981   5.229   4.333   7.601
 4035TIP3    H111982   5.139   4.305   7.588
 4035TIP3    H211983   5.281   4.254   7.588
 4036TIP3   OH211984   3.489   0.899   1.567
 4036TIP3    H111985   3.433   0.903   1.644
 4036TIP3    H211986   3.450   0.960   1.505
 4037TIP3   OH211987   5.755   2.896   1.100
 4037TIP3    H111988   5.834   2.927   1.144
 4037TIP3    H211989   5.730   2.969   1.042
 4038TIP3   OH211990   2.731   5.380   3.373
 4038TIP3    H111991   2.704   5.443   3.306
 4038TIP3    H211992   2.660   5.317   3.377
 4039TIP3   OH211993   7.166   1.634   5.006
 4039TIP3    H111994   7.123   1.560   4.964
 4039TIP3    H211995   7.148   1.708   4.948
 4040TIP3   OH211996   6.463   0.011   0.786
 4040TIP3    H111997   6.371  -0.014   0.781
 4040TIP3    H211998   6.485   0.040   0.697
 4041TIP3   OH211999   0.625   2.679   4.453
 4041TIP3    H112000   0.678   2.731   4.513
 4041TIP3    H212001   0.536   2.714   4.462
 4042TIP3   OH212002   2.906   1.225   1.351
 4042TIP3    H112003   2.843   1.156   1.370
 4042TIP3    H212004   2.954   1.238   1.433
 4043TIP3   OH212005   0.930   8.017   2.923
 4043TIP3    H112006   0.917   8.014   3.018
 4043TIP3    H212007   0.896   7.934   2.890
 4044TIP3   OH212008   8.669   8.664   2.894
 4044TIP3    H112009   8.598   8.684   2.833
 4044TIP3    H212010   8.625   8.642   2.976
 4045TIP3   OH212011   8.517   2.006   3.443
 4045TIP3    H112012   8.560   2.079   3.488
 4045TIP3    H212013   8.430   2.039   3.421
 4046TIP3   OH212014   7.667   3.351   0.596
 4046TIP3    H112015   7.681   3.399   0.678
 4046TIP3    H212016   7.595   3.396   0.553
 4047TIP3   OH212017   5.247   8.014   4.052
 4047TIP3    H112018   5.165   7.966   4.045
 4047TIP3    H212019   5.291   7.998   3.969
 4048TIP3   OH212020   4.528   1.946   7.675
 4048TIP3    H112021   4.583   1.871   7.654
 4048TIP3    H212022   4.443   1.909   7.697
 4049TIP3   OH212023   6.077   4.963   3.174
 4049TIP3    H112024   6.122   4.917   3.245
 4049TIP3    H212025   5.987   4.930   3.177
 4050TIP3   OH212026   2.075   3.135   1.649
 4050TIP3    H112027   2.117   3.051   1.668
 4050TIP3    H212028   2.001   3.113   1.592
 4051TIP3   OH212029   5.542   0.483   3.085
 4051TIP3    H112030   5.546   0.388   3.100
 4051TIP3    H212031   5.574   0.494   2.996
 4052TIP3   OH212032   5.135   1.826   7.237
 4052TIP3    H112033   5.215   1.800   7.193
 4052TIP3    H212034   5.122   1.917   7.212
 4053TIP3   OH212035   5.729   5.396   3.455
 4053TIP3    H112036   5.654   5.436   3.499
 4053TIP3    H212037   5.734   5.439   3.370
 4054TIP3   OH212038   5.237   3.686   0.209
 4054TIP3    H112039   5.206   3.650   0.126
 4054TIP3    H212040   5.240   3.781   0.193
 4055TIP3   OH212041   8.255   2.159   3.486
 4055TIP3    H112042   8.279   2.159   3.578
 4055TIP3    H212043   8.233   2.067   3.467
 4056TIP3   OH212044   8.645   1.529   2.529
 4056TIP3    H112045   8.627   1.481   2.610
 4056TIP3    H212046   8.567   1.515   2.475
 4057TIP3   OH212047   8.050   4.865   5.059
 4057TIP3    H112048   7.957   4.884   5.070
 4057TIP3    H212049   8.094   4.945   5.085
 4058TIP3   OH212050   5.570   0.843   7.642
 4058TIP3    H112051   5.656   0.825   7.605
 4058TIP3    H212052   5.587   0.867   7.732
 4059TIP3   OH212053   4.641   7.839   4.382
 4059TIP3    H112054   4.582   7.874   4.449
 4059TIP3    H212055   4.716   7.805   4.431
 4060TIP3   OH212056   3.485   4.409   5.005
 4060TIP3    H112057   3.395   4.393   5.033
 4060TIP3    H212058   3.492   4.505   5.001
 4061TIP3   OH212059   2.736   6.889   5.465
 4061TIP3    H112060   2.798   6.874   5.536
 4061TIP3    H212061   2.700   6.803   5.445
 4062TIP3   OH212062   3.528   4.767   0.907
 4062TIP3    H112063   3.554   4.758   0.998
 4062TIP3    H212064   3.482   4.686   0.886
 4063TIP3   OH212065   9.263   3.557   6.100
 4063TIP3    H112066   9.176   3.595   6.083
 4063TIP3    H212067   9.302   3.546   6.013
 4064TIP3   OH212068   7.649   3.976   7.465
 4064TIP3    H112069   7.679   3.934   7.546
 4064TIP3    H212070   7.589   3.913   7.426
 4065TIP3   OH212071   5.979   1.825   5.268
 4065TIP3    H112072   5.970   1.913   5.303
 4065TIP3    H212073   5.952   1.767   5.339
 4066TIP3   OH212074   3.328   2.460   0.925
 4066TIP3    H112075   3.291   2.434   0.841
 4066TIP3    H212076   3.288   2.400   0.988
 4067TIP3   OH212077   6.791   1.883   3.349
 4067TIP3    H112078   6.786   1.843   3.262
 4067TIP3    H212079   6.867   1.842   3.390
 4068TIP3   OH212080   8.869   3.514   1.768
 4068TIP3    H112081   8.825   3.549   1.845
 4068TIP3    H212082   8.962   3.528   1.784
 4069TIP3   OH212083   8.898   2.358   1.479
 4069TIP3    H112084   8.882   2.301   1.554
 4069TIP3    H212085   8.816   2.357   1.430
 4070TIP3   OH212086   6.743   4.660   0.346
 4070TIP3    H112087   6.790   4.662   0.429
 4070TIP3    H212088   6.689   4.582   0.350
 4071TIP3   OH212089   4.608   3.143   5.330
 4071TIP3    H112090   4.588   3.139   5.236
 4071TIP3    H212091   4.684   3.086   5.341
 4072TIP3   OH212092   8.402   5.028   5.611
 4072TIP3    H112093   8.391   5.122   5.618
 4072TIP3    H212094   8.318   4.996   5.578
 4073TIP3   OH212095   2.487   7.986   7.730
 4073TIP3    H112096   2.580   7.962   7.728
 4073TIP3    H212097   2.456   7.970   7.641
 4074TIP3   OH212098   0.830   2.441   1.158
 4074TIP3    H112099   0.917   2.427   1.195
 4074TIP3    H212100   0.844   2.439   1.063
 4075TIP3   OH212101   7.063   8.978   5.738
 4075TIP3    H112102   7.070   9.001   5.646
 4075TIP3    H212103   7.153   8.963   5.766
 4076TIP3   OH212104   5.195   4.740   5.015
 4076TIP3    H112105   5.161   4.819   4.973
 4076TIP3    H212106   5.225   4.770   5.101
 4077TIP3   OH212107   0.036   8.803   4.806
 4077TIP3    H112108   0.115   8.785   4.856
 4077TIP3    H212109  -0.033   8.754   4.851
 4078TIP3   OH212110   1.008   2.755   3.089
 4078TIP3    H112111   1.028   2.767   3.182
 4078TIP3    H212112   0.915   2.734   3.087
 4079TIP3   OH212113   2.123   2.936   2.180
 4079TIP3    H112114   2.096   2.962   2.092
 4079TIP3    H212115   2.180   2.860   2.166
 4080TIP3   OH212116   3.330   8.461   4.968
 4080TIP3    H112117   3.325   8.365   4.974
 4080TIP3    H212118   3.239   8.490   4.964
 4081TIP3   OH212119   8.465   7.176   7.373
 4081TIP3    H112120   8.390   7.129   7.338
 4081TIP3    H212121   8.441   7.268   7.366
 4082TIP3   OH212122   0.569   1.556   2.158
 4082TIP3    H112123   0.512   1.601   2.096
 4082TIP3    H212124   0.590   1.473   2.115
 4083TIP3   OH212125   2.386   8.069   4.498
 4083TIP3    H112126   2.466   8.105   4.536
 4083TIP3    H212127   2.417   8.011   4.428
 4084TIP3   OH212128   4.598   6.530   4.286
 4084TIP3    H112129   4.602   6.594   4.357
 4084TIP3    H212130   4.628   6.578   4.209
 4085TIP3   OH212131   4.275   8.582   6.755
 4085TIP3    H112132   4.229   8.527   6.819
 4085TIP3    H212133   4.272   8.670   6.794
 4086TIP3   OH212134   8.158   7.665   7.676
 4086TIP3    H112135   8.202   7.749   7.692
 4086TIP3    H212136   8.152   7.624   7.762
 4087TIP3   OH212137   0.447   1.434   4.371
 4087TIP3    H112138   0.461   1.350   4.327
 4087TIP3    H212139   0.358   1.459   4.347
 4088TIP3   OH212140   0.210   5.776   4.710
 4088TIP3    H112141   0.195   5.865   4.679
 4088TIP3    H212142   0.149   5.722   4.659
 4089TIP3   OH212143   7.181   7.459   4.058
 4089TIP3    H112144   7.114   7.525   4.073
 4089TIP3    H212145   7.136   7.375   4.071
 4090TIP3   OH212146   6.600   4.548   2.444
 4090TIP3    H112147   6.632   4.495   2.517
 4090TIP3    H212148   6.593   4.636   2.480
 4091TIP3   OH212149   5.333   0.578   5.327
 4091TIP3    H112150   5.279   0.643   5.372
 4091TIP3    H212151   5.332   0.604   5.235
 4092TIP3   OH212152   3.886   6.378   3.791
 4092TIP3    H112153   3.934   6.431   3.727
 4092TIP3    H212154   3.915   6.412   3.876
 4093TIP3   OH212155   5.246   2.908   5.894
 4093TIP3    H112156   5.150   2.900   5.896
 4093TIP3    H212157   5.268   2.946   5.979
 4094TIP3   OH212158   9.510   0.429   2.831
 4094TIP3    H112159   9.599   0.463   2.828
 4094TIP3    H212160   9.464   0.473   2.760
 4095TIP3   OH212161   3.804   3.788   0.308
 4095TIP3    H112162   3.881   3.840   0.282
 4095TIP3    H212163   3.830   3.697   0.291
 4096TIP3   OH212164   6.310   4.532   1.695
 4096TIP3    H112165   6.366   4.588   1.641
 4096TIP3    H212166   6.247   4.494   1.633
 4097TIP3   OH212167   0.423   6.095   4.507
 4097TIP3    H112168   0.468   6.040   4.442
 4097TIP3    H212169   0.494   6.136   4.557
 4098TIP3   OH212170   3.324   7.654   0.014
 4098TIP3    H112171   3.312   7.572  -0.034
 4098TIP3    H212172   3.236   7.678   0.043
 4099TIP3   OH212173   3.542   1.446   4.444
 4099TIP3    H112174   3.457   1.464   4.405
 4099TIP3    H212175   3.558   1.521   4.502
 4100TIP3   OH212176   6.399   1.509   4.375
 4100TIP3    H112177   6.485   1.482   4.404
 4100TIP3    H212178   6.399   1.604   4.385
 4101TIP3   OH212179   7.774   0.095   6.322
 4101TIP3    H112180   7.764   0.170   6.381
 4101TIP3    H212181   7.851   0.116   6.269
 4102TIP3   OH212182   1.512   0.086   7.651
 4102TIP3    H112183   1.458   0.065   7.727
 4102TIP3    H212184   1.502   0.181   7.640
 4103TIP3   OH212185   1.096   3.411   1.557
 4103TIP3    H112186   1.164   3.439   1.619
 4103TIP3    H212187   1.048   3.343   1.604
 4104TIP3   OH212188   2.341   8.497   4.249
 4104TIP3    H112189   2.327   8.425   4.188
 4104TIP3    H212190   2.272   8.486   4.315
 4105TIP3   OH212191   8.682   7.619   1.691
 4105TIP3    H112192   8.699   7.637   1.598
 4105TIP3    H212193   8.621   7.546   1.691
 4106TIP3   OH212194   1.156   3.295   3.710
 4106TIP3    H112195   1.113   3.255   3.786
 4106TIP3    H212196   1.238   3.246   3.701
 4107TIP3   OH212197   1.696   0.509   2.529
 4107TIP3    H112198   1.753   0.575   2.569
 4107TIP3    H212199   1.612   0.519   2.575
 4108TIP3   OH212200   9.457   0.118   2.933
 4108TIP3    H112201   9.509   0.186   2.890
 4108TIP3    H212202   9.501   0.105   3.017
 4109TIP3   OH212203   2.063   0.857   5.012
 4109TIP3    H112204   1.983   0.838   4.963
 4109TIP3    H212205   2.133   0.857   4.947
 4110TIP3   OH212206   4.639   5.065   5.651
 4110TIP3    H112207   4.571   4.998   5.648
 4110TIP3    H212208   4.613   5.123   5.722
 4111TIP3   OH212209   7.651   2.735   6.609
 4111TIP3    H112210   7.738   2.698   6.624
 4111TIP3    H212211   7.657   2.778   6.524
 4112TIP3   OH212212   2.982   0.168   2.469
 4112TIP3    H112213   3.050   0.137   2.409
 4112TIP3    H212214   2.965   0.093   2.527
 4113TIP3   OH212215   7.011   2.970   0.767
 4113TIP3    H112216   6.993   3.028   0.841
 4113TIP3    H212217   7.014   2.883   0.805
 4114TIP3   OH212218   3.583   8.221   1.743
 4114TIP3    H112219   3.496   8.205   1.779
 4114TIP3    H212220   3.578   8.308   1.705
 4115TIP3   OH212221   4.264   0.894   2.768
 4115TIP3    H112222   4.208   0.955   2.817
 4115TIP3    H212223   4.256   0.922   2.677
 4116TIP3   OH212224   7.546   8.504   2.073
 4116TIP3    H112225   7.543   8.415   2.108
 4116TIP3    H212226   7.581   8.494   1.985
 4117TIP3   OH212227   3.979   7.833   5.772
 4117TIP3    H112228   4.022   7.763   5.723
 4117TIP3    H212229   3.996   7.912   5.721
 4118TIP3   OH212230   3.562   3.545   3.646
 4118TIP3    H112231   3.621   3.496   3.590
 4118TIP3    H212232   3.474   3.514   3.623
 4119TIP3   OH212233   7.888   2.263   2.046
 4119TIP3    H112234   7.862   2.328   1.981
 4119TIP3    H212235   7.805   2.229   2.081
 4120TIP3   OH212236   4.734   4.022   2.900
 4120TIP3    H112237   4.668   4.048   2.964
 4120TIP3    H212238   4.684   3.990   2.825
 4121TIP3   OH212239   2.749   6.649   6.773
 4121TIP3    H112240   2.775   6.570   6.726
 4121TIP3    H212241   2.774   6.721   6.716
 4122TIP3   OH212242   4.216   3.052   6.158
 4122TIP3    H112243   4.163   2.975   6.179
 4122TIP3    H212244   4.220   3.052   6.063
 4123TIP3   OH212245   8.120   5.129   7.240
 4123TIP3    H112246   8.119   5.099   7.331
 4123TIP3    H212247   8.045   5.085   7.200
 4124TIP3   OH212248   1.300   0.616   1.100
 4124TIP3    H112249   1.260   0.530   1.115
 4124TIP3    H212250   1.394   0.598   1.098
 4125TIP3   OH212251   7.233   2.340   3.927
 4125TIP3    H112252   7.162   2.360   3.989
 4125TIP3    H212253   7.242   2.245   3.931
 4126TIP3   OH212254   3.124   1.810   3.499
 4126TIP3    H112255   3.092   1.720   3.490
 4126TIP3    H212256   3.067   1.862   3.442
 4127TIP3   OH212257   9.097   7.147   7.687
 4127TIP3    H112258   9.074   7.065   7.644
 4127TIP3    H212259   9.072   7.215   7.624
 4128TIP3   OH212260   8.419   4.243   5.116
 4128TIP3    H112261   8.453   4.169   5.167
 4128TIP3    H212262   8.369   4.202   5.045
 4129TIP3   OH212263   8.824   2.460   5.605
 4129TIP3    H112264   8.814   2.500   5.692
 4129TIP3    H212265   8.915   2.428   5.604
 4130TIP3   OH212266   4.417   0.026   6.409
 4130TIP3    H112267   4.344   0.060   6.357
 4130TIP3    H212268   4.441   0.098   6.466
 4131TIP3   OH212269   8.378   8.152   6.197
 4131TIP3    H112270   8.458   8.104   6.174
 4131TIP3    H212271   8.307   8.097   6.164
 4132TIP3   OH212272   5.607   6.783   7.560
 4132TIP3    H112273   5.574   6.872   7.574
 4132TIP3    H212274   5.541   6.726   7.599
 4133TIP3   OH212275   7.931   8.779   4.542
 4133TIP3    H112276   7.862   8.728   4.586
 4133TIP3    H212277   7.978   8.714   4.489
 4134TIP3   OH212278   5.641   5.418   6.872
 4134TIP3    H112279   5.701   5.378   6.935
 4134TIP3    H212280   5.662   5.511   6.876
 4135TIP3   OH212281   6.472   2.731   1.653
 4135TIP3    H112282   6.473   2.823   1.680
 4135TIP3    H212283   6.548   2.692   1.697
 4136TIP3   OH212284   8.275   0.107   4.589
 4136TIP3    H112285   8.331   0.173   4.630
 4136TIP3    H212286   8.299   0.025   4.633
 4137TIP3   OH212287   9.051   2.727   6.341
 4137TIP3    H112288   9.099   2.716   6.259
 4137TIP3    H212289   9.108   2.688   6.408
 4138TIP3   OH212290   2.119   1.149   5.014
 4138TIP3    H112291   2.130   1.054   5.028
 4138TIP3    H212292   2.034   1.157   4.970
 4139TIP3   OH212293   7.548   5.226   5.045
 4139TIP3    H112294   7.556   5.283   5.122
 4139TIP3    H212295   7.621   5.164   5.053
 4140TIP3   OH212296   9.143   6.550   7.479
 4140TIP3    H112297   9.177   6.631   7.441
 4140TIP3    H212298   9.109   6.576   7.564
 4141TIP3   OH212299   2.540   1.337   6.160
 4141TIP3    H112300   2.464   1.354   6.105
 4141TIP3    H212301   2.550   1.242   6.159
 4142TIP3   OH212302   7.408   7.892   3.323
 4142TIP3    H112303   7.319   7.926   3.310
 4142TIP3    H212304   7.456   7.921   3.245
 4143TIP3   OH212305   3.735   1.762   3.545
 4143TIP3    H112306   3.662   1.805   3.499
 4143TIP3    H212307   3.700   1.742   3.631
 4144TIP3   OH212308   6.248   3.454   4.438
 4144TIP3    H112309   6.172   3.425   4.388
 4144TIP3    H212310   6.231   3.426   4.527
 4145TIP3   OH212311   1.796   8.423   7.534
 4145TIP3    H112312   1.724   8.423   7.471
 4145TIP3    H212313   1.769   8.484   7.602
 4146TIP3   OH212314   5.893   1.910   6.632
 4146TIP3    H112315   5.885   1.965   6.710
 4146TIP3    H212316   5.846   1.829   6.656
 4147TIP3   OH212317   7.768   5.809   4.450
 4147TIP3    H112318   7.815   5.779   4.372
 4147TIP3    H212319   7.786   5.742   4.517
 4148TIP3   OH212320   2.777   0.524   4.595
 4148TIP3    H112321   2.796   0.468   4.519
 4148TIP3    H212322   2.753   0.463   4.664
 4149TIP3   OH212323   2.664   6.740   0.493
 4149TIP3    H112324   2.639   6.823   0.533
 4149TIP3    H212325   2.752   6.756   0.459
 4150TIP3   OH212326   0.030   2.254   3.032
 4150TIP3    H112327   0.070   2.314   3.096
 4150TIP3    H212328  -0.060   2.243   3.063
 4151TIP3   OH212329   6.744   6.812   4.123
 4151TIP3    H112330   6.796   6.874   4.073
 4151TIP3    H212331   6.745   6.731   4.071
 4152TIP3   OH212332   6.760   4.704   6.633
 4152TIP3    H112333   6.732   4.792   6.606
 4152TIP3    H212334   6.745   4.649   6.556
 4153TIP3   OH212335   7.154   1.909   1.597
 4153TIP3    H112336   7.067   1.869   1.600
 4153TIP3    H212337   7.190   1.885   1.512
 4154TIP3   OH212338   9.212   2.210   4.545
 4154TIP3    H112339   9.192   2.300   4.520
 4154TIP3    H212340   9.162   2.195   4.625
 4155TIP3   OH212341   7.029   6.657   3.955
 4155TIP3    H112342   7.010   6.664   4.049
 4155TIP3    H212343   7.086   6.580   3.948
 4156TIP3   OH212344   0.732   2.436   5.632
 4156TIP3    H112345   0.685   2.352   5.630
 4156TIP3    H212346   0.800   2.424   5.697
 4157TIP3   OH212347   9.453   5.065   5.292
 4157TIP3    H112348   9.472   5.124   5.219
 4157TIP3    H212349   9.445   4.978   5.251
 4158TIP3   OH212350   0.950   8.964   4.686
 4158TIP3    H112351   0.958   8.983   4.592
 4158TIP3    H212352   1.040   8.951   4.716
 4159TIP3   OH212353   0.347   7.697   0.139
 4159TIP3    H112354   0.429   7.651   0.157
 4159TIP3    H212355   0.307   7.647   0.068
 4160TIP3   OH212356   5.682   8.244   0.590
 4160TIP3    H112357   5.707   8.300   0.664
 4160TIP3    H212358   5.680   8.156   0.625
 4161TIP3   OH212359   7.048   1.238   5.433
 4161TIP3    H112360   7.033   1.226   5.527
 4161TIP3    H212361   7.128   1.290   5.428
 4162TIP3   OH212362   7.336   3.663   6.189
 4162TIP3    H112363   7.425   3.683   6.162
 4162TIP3    H212364   7.307   3.740   6.237
 4163TIP3   OH212365   6.296   5.408   4.783
 4163TIP3    H112366   6.267   5.498   4.768
 4163TIP3    H212367   6.318   5.375   4.696
 4164TIP3   OH212368   1.669   8.968   2.044
 4164TIP3    H112369   1.712   9.054   2.034
 4164TIP3    H212370   1.707   8.933   2.125
 4165TIP3   OH212371   1.925   8.633   2.427
 4165TIP3    H112372   1.911   8.625   2.521
 4165TIP3    H212373   1.942   8.543   2.398
 4166TIP3   OH212374   2.890   5.259   1.423
 4166TIP3    H112375   2.798   5.286   1.416
 4166TIP3    H212376   2.902   5.197   1.351
 4167TIP3   OH212377   4.892   7.931   4.689
 4167TIP3    H112378   4.796   7.933   4.681
 4167TIP3    H212379   4.921   7.869   4.622
 4168TIP3   OH212380   6.608   1.935   5.190
 4168TIP3    H112381   6.703   1.940   5.182
 4168TIP3    H212382   6.574   1.965   5.106
 4169TIP3   OH212383   8.216   5.618   2.508
 4169TIP3    H112384   8.294   5.575   2.543
 4169TIP3    H212385   8.251   5.686   2.450
 4170TIP3   OH212386   1.326   8.863   0.533
 4170TIP3    H112387   1.304   8.775   0.500
 4170TIP3    H212388   1.390   8.847   0.602
 4171TIP3   OH212389   6.753   3.678   0.051
 4171TIP3    H112390   6.807   3.735   0.107
 4171TIP3    H212391   6.709   3.620   0.112
 4172TIP3   OH212392   1.885   7.321   2.653
 4172TIP3    H112393   1.955   7.260   2.630
 4172TIP3    H212394   1.809   7.289   2.605
 4173TIP3   OH212395   4.693   2.166   7.748
 4173TIP3    H112396   4.616   2.134   7.701
 4173TIP3    H212397   4.738   2.086   7.777
 4174TIP3   OH212398   9.423   4.217   2.169
 4174TIP3    H112399   9.365   4.177   2.234
 4174TIP3    H212400   9.494   4.154   2.159
 4175TIP3   OH212401   7.703   5.798   7.504
 4175TIP3    H112402   7.722   5.891   7.513
 4175TIP3    H212403   7.627   5.794   7.446
 4176TIP3   OH212404   5.671   2.384   0.479
 4176TIP3    H112405   5.766   2.375   0.489
 4176TIP3    H212406   5.635   2.299   0.502
 4177TIP3   OH212407   1.588   5.979   3.771
 4177TIP3    H112408   1.531   5.931   3.831
 4177TIP3    H212409   1.568   6.071   3.786
 4178TIP3   OH212410   4.216   2.226   4.690
 4178TIP3    H112411   4.201   2.201   4.781
 4178TIP3    H212412   4.252   2.147   4.648
 4179TIP3   OH212413   7.664   4.135   3.140
 4179TIP3    H112414   7.723   4.093   3.076
 4179TIP3    H212415   7.576   4.107   3.114
 4180TIP3   OH212416   7.245   6.505   4.224
 4180TIP3    H112417   7.162   6.551   4.230
 4180TIP3    H212418   7.307   6.561   4.270
 4181TIP3   OH212419   1.548   7.822   2.469
 4181TIP3    H112420   1.607   7.866   2.408
 4181TIP3    H212421   1.606   7.779   2.532
 4182TIP3   OH212422   8.804   5.329   3.280
 4182TIP3    H112423   8.749   5.288   3.213
 4182TIP3    H212424   8.757   5.314   3.362
 4183TIP3   OH212425   0.065   0.401   6.045
 4183TIP3    H112426   0.046   0.337   5.976
 4183TIP3    H212427   0.114   0.350   6.110
 4184TIP3   OH212428   7.830   4.775   7.699
 4184TIP3    H112429   7.808   4.682   7.698
 4184TIP3    H212430   7.748   4.819   7.719
 4185TIP3   OH212431   1.096   6.902   4.297
 4185TIP3    H112432   1.034   6.972   4.313
 4185TIP3    H212433   1.073   6.869   4.210
 4186TIP3   OH212434   4.082   0.322   1.161
 4186TIP3    H112435   4.101   0.387   1.093
 4186TIP3    H212436   4.100   0.368   1.243
 4187TIP3   OH212437   6.897   8.105   1.268
 4187TIP3    H112438   6.807   8.071   1.267
 4187TIP3    H212439   6.948   8.041   1.218
 4188TIP3   OH212440   5.236   0.694   7.134
 4188TIP3    H112441   5.247   0.600   7.149
 4188TIP3    H212442   5.147   0.702   7.100
 4189TIP3   OH212443   8.198   6.090   5.707
 4189TIP3    H112444   8.138   6.029   5.752
 4189TIP3    H212445   8.218   6.046   5.624
 4190TIP3   OH212446   5.495   6.892   6.434
 4190TIP3    H112447   5.477   6.977   6.473
 4190TIP3    H212448   5.409   6.850   6.428
 4191TIP3   OH212449   9.362   3.696   1.828
 4191TIP3    H112450   9.390   3.783   1.798
 4191TIP3    H212451   9.299   3.667   1.762
 4192TIP3   OH212452   0.791   5.216   1.048
 4192TIP3    H112453   0.884   5.211   1.026
 4192TIP3    H212454   0.749   5.153   0.990
 4193TIP3   OH212455   6.343   2.388   7.088
 4193TIP3    H112456   6.424   2.338   7.094
 4193TIP3    H212457   6.338   2.435   7.172
 4194TIP3   OH212458   9.083   3.877   7.804
 4194TIP3    H112459   9.056   3.785   7.807
 4194TIP3    H212460   9.135   3.884   7.725
 4195TIP3   OH212461   2.438   8.349   1.724
 4195TIP3    H112462   2.460   8.264   1.763
 4195TIP3    H212463   2.418   8.330   1.633
 4196TIP3   OH212464   2.263   2.685   5.940
 4196TIP3    H112465   2.312   2.735   6.005
 4196TIP3    H212466   2.268   2.594   5.971
 4197TIP3   OH212467   1.634   4.101   1.226
 4197TIP3    H112468   1.579   4.028   1.256
 4197TIP3    H212469   1.709   4.060   1.185
 4198TIP3   OH212470   3.188   3.816   3.378
 4198TIP3    H112471   3.250   3.748   3.350
 4198TIP3    H212472   3.244   3.891   3.400
 4199TIP3   OH212473   0.509   5.204   5.960
 4199TIP3    H112474   0.551   5.288   5.980
 4199TIP3    H212475   0.415   5.221   5.970
 4200TIP3   OH212476   2.972   4.254   6.735
 4200TIP3    H112477   3.017   4.217   6.659
 4200TIP3    H212478   2.884   4.216   6.731
 4201TIP3   OH212479   7.108   2.952   5.390
 4201TIP3    H112480   7.032   2.894   5.395
 4201TIP3    H212481   7.166   2.920   5.459
 4202TIP3   OH212482   2.539   5.694   4.310
 4202TIP3    H112483   2.477   5.767   4.306
 4202TIP3    H212484   2.494   5.623   4.264
 4203TIP3   OH212485   1.494   0.304   3.804
 4203TIP3    H112486   1.575   0.319   3.754
 4203TIP3    H212487   1.499   0.213   3.831
 4204TIP3   OH212488   8.567   7.284   0.946
 4204TIP3    H112489   8.629   7.280   0.873
 4204TIP3    H212490   8.502   7.217   0.927
 4205TIP3   OH212491   8.847   0.281   6.346
 4205TIP3    H112492   8.839   0.308   6.438
 4205TIP3    H212493   8.905   0.346   6.307
 4206TIP3   OH212494   6.632   3.893   2.974
 4206TIP3    H112495   6.603   3.804   2.954
 4206TIP3    H212496   6.580   3.919   3.050
 4207TIP3   OH212497   6.833   5.086   3.666
 4207TIP3    H112498   6.886   5.044   3.598
 4207TIP3    H212499   6.814   5.173   3.631
 4208TIP3   OH212500   7.557   1.376   1.208
 4208TIP3    H112501   7.595   1.464   1.210
 4208TIP3    H212502   7.528   1.360   1.297
 4209TIP3   OH212503   5.354   2.404   2.973
 4209TIP3    H112504   5.325   2.471   3.034
 4209TIP3    H212505   5.448   2.420   2.962
 4210TIP3   OH212506   5.827   7.797   5.623
 4210TIP3    H112507   5.752   7.848   5.652
 4210TIP3    H212508   5.819   7.713   5.669
 4211TIP3   OH212509   7.826   6.450   2.850
 4211TIP3    H112510   7.738   6.484   2.836
 4211TIP3    H212511   7.814   6.376   2.910
 4212TIP3   OH212512   7.052   6.183   6.451
 4212TIP3    H112513   7.013   6.215   6.370
 4212TIP3    H212514   7.012   6.237   6.519
 4213TIP3   OH212515   8.638   8.054   6.208
 4213TIP3    H112516   8.684   7.970   6.210
 4213TIP3    H212517   8.680   8.102   6.136
 4214TIP3   OH212518   5.685   3.897   0.794
 4214TIP3    H112519   5.683   3.806   0.821
 4214TIP3    H212520   5.595   3.927   0.803
 4215TIP3   OH212521   6.732   2.560   3.775
 4215TIP3    H112522   6.739   2.601   3.689
 4215TIP3    H212523   6.641   2.574   3.801
 4216TIP3   OH212524   9.331   3.082   5.806
 4216TIP3    H112525   9.283   3.164   5.806
 4216TIP3    H212526   9.413   3.101   5.852
 4217TIP3   OH212527   9.477   1.242   0.528
 4217TIP3    H112528   9.510   1.254   0.440
 4217TIP3    H212529   9.554   1.216   0.579
 4218TIP3   OH212530   3.159   4.226   7.668
 4218TIP3    H112531   3.176   4.230   7.574
 4218TIP3    H212532   3.064   4.227   7.675
 4219TIP3   OH212533   1.527   0.881   0.667
 4219TIP3    H112534   1.614   0.890   0.705
 4219TIP3    H212535   1.467   0.899   0.739
 4220TIP3   OH212536   5.549   2.428   6.719
 4220TIP3    H112537   5.628   2.471   6.688
 4220TIP3    H212538   5.479   2.492   6.704
 4221TIP3   OH212539   4.674   7.024   4.961
 4221TIP3    H112540   4.648   7.016   5.053
 4221TIP3    H212541   4.674   6.933   4.929
 4222TIP3   OH212542   0.024   5.967   1.146
 4222TIP3    H112543   0.059   6.029   1.082
 4222TIP3    H212544  -0.061   6.004   1.171
 4223TIP3   OH212545   0.898   6.656   3.854
 4223TIP3    H112546   0.958   6.637   3.782
 4223TIP3    H212547   0.903   6.751   3.865
 4224TIP3   OH212548   3.698   1.776   6.265
 4224TIP3    H112549   3.707   1.850   6.205
 4224TIP3    H212550   3.779   1.725   6.252
 4225TIP3   OH212551   8.295   8.985   6.501
 4225TIP3    H112552   8.251   8.906   6.534
 4225TIP3    H212553   8.251   9.003   6.418
 4226TIP3   OH212554   8.398   6.123   1.454
 4226TIP3    H112555   8.408   6.194   1.518
 4226TIP3    H212556   8.303   6.116   1.441
 4227TIP3   OH212557   5.449   7.966   7.560
 4227TIP3    H112558   5.357   7.988   7.548
 4227TIP3    H212559   5.477   8.019   7.635
 4228TIP3   OH212560   7.741   5.458   1.524
 4228TIP3    H112561   7.710   5.380   1.570
 4228TIP3    H212562   7.834   5.442   1.508
 4229TIP3   OH212563   3.477   6.005   3.078
 4229TIP3    H112564   3.388   5.984   3.106
 4229TIP3    H212565   3.520   5.920   3.068
 4230TIP3   OH212566   0.633   3.140   4.750
 4230TIP3    H112567   0.712   3.086   4.743
 4230TIP3    H212568   0.613   3.138   4.844
 4231TIP3   OH212569   1.955   1.762   1.717
 4231TIP3    H112570   1.965   1.849   1.678
 4231TIP3    H212571   2.036   1.748   1.765
 4232TIP3   OH212572   3.803   7.050   0.663
 4232TIP3    H112573   3.829   6.962   0.637
 4232TIP3    H212574   3.721   7.038   0.712
 4233TIP3   OH212575   0.504   3.138   5.435
 4233TIP3    H112576   0.489   3.044   5.441
 4233TIP3    H212577   0.468   3.175   5.516
 4234TIP3   OH212578   1.986   8.042   0.570
 4234TIP3    H112579   2.055   8.094   0.610
 4234TIP3    H212580   2.000   7.953   0.602
 4235TIP3   OH212581   3.293   2.789   5.707
 4235TIP3    H112582   3.332   2.806   5.621
 4235TIP3    H212583   3.366   2.795   5.768
 4236TIP3   OH212584   8.985   7.270   5.805
 4236TIP3    H112585   8.983   7.227   5.890
 4236TIP3    H212586   9.077   7.269   5.780
 4237TIP3   OH212587   0.901   3.473   6.125
 4237TIP3    H112588   0.905   3.381   6.098
 4237TIP3    H212589   0.986   3.509   6.100
 4238TIP3   OH212590   0.565   5.916   4.352
 4238TIP3    H112591   0.648   5.947   4.389
 4238TIP3    H212592   0.584   5.827   4.323
 4239TIP3   OH212593   8.402   5.223   4.446
 4239TIP3    H112594   8.433   5.264   4.527
 4239TIP3    H212595   8.318   5.265   4.428
 4240TIP3   OH212596   7.680   8.587   0.914
 4240TIP3    H112597   7.674   8.594   0.819
 4240TIP3    H212598   7.687   8.494   0.932
 4241TIP3   OH212599   5.196   4.844   1.402
 4241TIP3    H112600   5.240   4.807   1.326
 4241TIP3    H212601   5.262   4.841   1.472
 4242TIP3   OH212602   7.793   3.064   1.979
 4242TIP3    H112603   7.771   3.096   1.892
 4242TIP3    H212604   7.793   2.969   1.971
 4243TIP3   OH212605   0.267   4.215   6.850
 4243TIP3    H112606   0.303   4.169   6.774
 4243TIP3    H212607   0.208   4.152   6.891
 4244TIP3   OH212608   0.672   3.923   3.771
 4244TIP3    H112609   0.756   3.928   3.817
 4244TIP3    H212610   0.607   3.917   3.842
 4245TIP3   OH212611   0.899   7.283   3.155
 4245TIP3    H112612   0.928   7.355   3.211
 4245TIP3    H212613   0.870   7.216   3.216
 4246TIP3   OH212614   0.244   7.147   1.085
 4246TIP3    H112615   0.323   7.095   1.069
 4246TIP3    H212616   0.220   7.182   0.999
 4247TIP3   OH212617   3.336   8.149   1.355
 4247TIP3    H112618   3.342   8.198   1.273
 4247TIP3    H212619   3.417   8.171   1.401
 4248TIP3   OH212620   7.725   8.968   2.126
 4248TIP3    H112621   7.644   8.918   2.129
 4248TIP3    H212622   7.788   8.911   2.081
 4249TIP3   OH212623   5.078   8.658   0.916
 4249TIP3    H112624   4.984   8.652   0.901
 4249TIP3    H212625   5.117   8.617   0.838
 4250TIP3   OH212626   4.888   3.097   0.151
 4250TIP3    H112627   4.899   3.004   0.169
 4250TIP3    H212628   4.798   3.116   0.179
 4251TIP3   OH212629   9.535   5.638   6.002
 4251TIP3    H112630   9.511   5.675   6.087
 4251TIP3    H212631   9.548   5.714   5.945
 4252TIP3   OH212632   5.272   3.185   0.334
 4252TIP3    H112633   5.229   3.099   0.332
 4252TIP3    H212634   5.210   3.242   0.380
 4253TIP3   OH212635   5.047   0.433   4.238
 4253TIP3    H112636   5.002   0.459   4.318
 4253TIP3    H212637   5.067   0.515   4.194
 4254TIP3   OH212638   4.797   4.828   6.772
 4254TIP3    H112639   4.880   4.834   6.724
 4254TIP3    H212640   4.817   4.861   6.859
 4255TIP3   OH212641   1.585   5.288   4.106
 4255TIP3    H112642   1.493   5.263   4.103
 4255TIP3    H212643   1.624   5.229   4.171
 4256TIP3   OH212644   9.065   2.088   4.163
 4256TIP3    H112645   9.026   2.067   4.247
 4256TIP3    H212646   9.125   2.161   4.182
 4257TIP3   OH212647   9.007   7.119   0.210
 4257TIP3    H112648   8.970   7.202   0.238
 4257TIP3    H212649   9.099   7.123   0.237
 4258TIP3   OH212650   0.448   7.166   2.254
 4258TIP3    H112651   0.500   7.088   2.272
 4258TIP3    H212652   0.406   7.147   2.170
 4259TIP3   OH212653   4.575   2.522   6.744
 4259TIP3    H112654   4.603   2.614   6.747
 4259TIP3    H212655   4.524   2.515   6.663
 4260TIP3   OH212656   8.587   7.464   2.835
 4260TIP3    H112657   8.569   7.455   2.741
 4260TIP3    H212658   8.648   7.393   2.854
 4261TIP3   OH212659   6.195   7.754   2.148
 4261TIP3    H112660   6.121   7.777   2.205
 4261TIP3    H212661   6.258   7.825   2.160
 4262TIP3   OH212662   7.360   2.209   0.382
 4262TIP3    H112663   7.358   2.286   0.325
 4262TIP3    H212664   7.330   2.137   0.326
 4263TIP3   OH212665   4.882   0.458   3.707
 4263TIP3    H112666   4.898   0.448   3.801
 4263TIP3    H212667   4.923   0.541   3.684
 4264TIP3   OH212668   0.780   3.072   0.803
 4264TIP3    H112669   0.727   3.047   0.727
 4264TIP3    H212670   0.724   3.053   0.878
 4265TIP3   OH212671   6.415   4.590   4.464
 4265TIP3    H112672   6.332   4.614   4.506
 4265TIP3    H212673   6.432   4.501   4.493
 4266TIP3   OH212674   4.291   4.938   0.281
 4266TIP3    H112675   4.366   4.992   0.255
 4266TIP3    H212676   4.314   4.850   0.252
 4267TIP3   OH212677   1.792   6.828   4.562
 4267TIP3    H112678   1.768   6.743   4.599
 4267TIP3    H212679   1.868   6.810   4.506
 4268TIP3   OH212680   9.251   0.170   4.515
 4268TIP3    H112681   9.258   0.133   4.427
 4268TIP3    H212682   9.169   0.133   4.549
 4269TIP3   OH212683   5.430   2.520   6.398
 4269TIP3    H112684   5.413   2.602   6.352
 4269TIP3    H212685   5.521   2.527   6.427
 4270TIP3   OH212686   6.536   6.789   0.918
 4270TIP3    H112687   6.466   6.727   0.939
 4270TIP3    H212688   6.527   6.805   0.824
 4271TIP3   OH212689   3.535   2.607   7.764
 4271TIP3    H112690   3.546   2.702   7.759
 4271TIP3    H212691   3.510   2.591   7.856
 4272TIP3   OH212692   3.575   0.644   4.294
 4272TIP3    H112693   3.536   0.729   4.275
 4272TIP3    H212694   3.544   0.621   4.381
 4273TIP3   OH212695   2.711   6.333   4.492
 4273TIP3    H112696   2.630   6.384   4.498
 4273TIP3    H212697   2.778   6.396   4.466
 4274TIP3   OH212698   1.582   1.457   2.929
 4274TIP3    H112699   1.662   1.486   2.885
 4274TIP3    H212700   1.562   1.372   2.889
 4275TIP3   OH212701   1.805   2.731   4.236
 4275TIP3    H112702   1.715   2.714   4.264
 4275TIP3    H212703   1.808   2.825   4.219
 4276TIP3   OH212704   3.884   0.992   5.625
 4276TIP3    H112705   3.879   0.896   5.627
 4276TIP3    H212706   3.973   1.011   5.597
 4277TIP3   OH212707   9.217   6.238   5.797
 4277TIP3    H112708   9.215   6.274   5.709
 4277TIP3    H212709   9.207   6.144   5.785
 4278TIP3   OH212710   1.413   6.072   5.751
 4278TIP3    H112711   1.449   6.046   5.666
 4278TIP3    H212712   1.319   6.082   5.735
 4279TIP3   OH212713   8.455   3.943   4.142
 4279TIP3    H112714   8.433   3.953   4.049
 4279TIP3    H212715   8.380   3.898   4.179
 4280TIP3   OH212716   3.221   0.450   2.068
 4280TIP3    H112717   3.264   0.525   2.108
 4280TIP3    H212718   3.225   0.382   2.136
 4281TIP3   OH212719   7.198   1.483   3.530
 4281TIP3    H112720   7.197   1.443   3.443
 4281TIP3    H212721   7.244   1.420   3.585
 4282TIP3   OH212722   1.094   0.249   2.215
 4282TIP3    H112723   1.048   0.183   2.163
 4282TIP3    H212724   1.067   0.232   2.305
 4283TIP3   OH212725   1.024   5.658   1.235
 4283TIP3    H112726   1.039   5.753   1.238
 4283TIP3    H212727   1.018   5.637   1.142
 4284TIP3   OH212728   7.814   0.141   0.748
 4284TIP3    H112729   7.814   0.134   0.653
 4284TIP3    H212730   7.854   0.226   0.765
 4285TIP3   OH212731   4.236   8.065   0.791
 4285TIP3    H112732   4.253   7.989   0.846
 4285TIP3    H212733   4.191   8.127   0.849
 4286TIP3   OH212734   9.060   8.898   6.598
 4286TIP3    H112735   9.035   8.962   6.664
 4286TIP3    H212736   9.154   8.911   6.586
 4287TIP3   OH212737   7.992   2.836   2.379
 4287TIP3    H112738   7.911   2.788   2.361
 4287TIP3    H212739   8.043   2.827   2.299
 4288TIP3   OH212740   7.677   4.165   0.196
 4288TIP3    H112741   7.582   4.153   0.188
 4288TIP3    H212742   7.702   4.212   0.117
 4289TIP3   OH212743   8.404   8.061   0.770
 4289TIP3    H112744   8.352   8.094   0.843
 4289TIP3    H212745   8.495   8.078   0.795
 4290TIP3   OH212746   0.340   1.937   4.884
 4290TIP3    H112747   0.324   2.021   4.929
 4290TIP3    H212748   0.276   1.936   4.812
 4291TIP3   OH212749   7.385   1.332   6.628
 4291TIP3    H112750   7.370   1.307   6.537
 4291TIP3    H212751   7.398   1.249   6.674
 4292TIP3   OH212752   2.167   5.211   1.856
 4292TIP3    H112753   2.112   5.158   1.798
 4292TIP3    H212754   2.123   5.207   1.941
 4293TIP3   OH212755   6.187   3.095   3.664
 4293TIP3    H112756   6.154   3.050   3.587
 4293TIP3    H212757   6.261   3.043   3.693
 4294TIP3   OH212758   4.102   2.803   6.473
 4294TIP3    H112759   4.125   2.757   6.554
 4294TIP3    H212760   4.182   2.849   6.449
 4295TIP3   OH212761   5.283   7.694   3.795
 4295TIP3    H112762   5.366   7.732   3.823
 4295TIP3    H212763   5.236   7.767   3.754
 4296TIP3   OH212764   4.719   0.747   2.029
 4296TIP3    H112765   4.637   0.733   2.077
 4296TIP3    H212766   4.710   0.836   1.994
 4297TIP3   OH212767   0.602   4.345   6.728
 4297TIP3    H112768   0.664   4.272   6.732
 4297TIP3    H212769   0.658   4.423   6.730
 4298TIP3   OH212770   1.672   6.405   1.116
 4298TIP3    H112771   1.720   6.411   1.033
 4298TIP3    H212772   1.726   6.452   1.179
 4299TIP3   OH212773   6.221   8.343   5.392
 4299TIP3    H112774   6.172   8.292   5.457
 4299TIP3    H212775   6.232   8.430   5.433
 4300TIP3   OH212776   6.733   0.948   6.246
 4300TIP3    H112777   6.826   0.932   6.226
 4300TIP3    H212778   6.696   0.975   6.162
 4301TIP3   OH212779   3.022   6.445   3.424
 4301TIP3    H112780   2.988   6.467   3.511
 4301TIP3    H212781   2.992   6.516   3.368
 4302TIP3   OH212782   1.695   8.777   7.265
 4302TIP3    H112783   1.675   8.690   7.233
 4302TIP3    H212784   1.779   8.799   7.225
 4303TIP3   OH212785   1.055   8.724   7.167
 4303TIP3    H112786   0.967   8.709   7.202
 4303TIP3    H212787   1.111   8.664   7.216
 4304TIP3   OH212788   7.068   3.848   4.977
 4304TIP3    H112789   6.981   3.839   5.014
 4304TIP3    H212790   7.054   3.862   4.884
 4305TIP3   OH212791   8.444   1.649   5.925
 4305TIP3    H112792   8.374   1.676   5.985
 4305TIP3    H212793   8.406   1.660   5.838
 4306TIP3   OH212794   0.072   8.252   3.562
 4306TIP3    H112795   0.147   8.232   3.619
 4306TIP3    H212796   0.072   8.348   3.556
 4307TIP3   OH212797   2.157   8.008   1.190
 4307TIP3    H112798   2.102   8.064   1.135
 4307TIP3    H212799   2.158   8.053   1.275
 4308TIP3   OH212800   9.085   7.204   7.106
 4308TIP3    H112801   9.141   7.179   7.179
 4308TIP3    H212802   9.058   7.121   7.067
 4309TIP3   OH212803   4.643   3.430   0.310
 4309TIP3    H112804   4.701   3.401   0.240
 4309TIP3    H212805   4.688   3.505   0.350
 4310TIP3   OH212806   6.650   3.624   7.410
 4310TIP3    H112807   6.572   3.576   7.437
 4310TIP3    H212808   6.693   3.566   7.347
 4311TIP3   OH212809   0.330   3.468   5.412
 4311TIP3    H112810   0.272   3.534   5.375
 4311TIP3    H212811   0.415   3.512   5.420
 4312TIP3   OH212812   8.445   4.796   2.325
 4312TIP3    H112813   8.366   4.785   2.272
 4312TIP3    H212814   8.480   4.707   2.334
 4313TIP3   OH212815   3.363   5.325   2.617
 4313TIP3    H112816   3.451   5.297   2.592
 4313TIP3    H212817   3.307   5.251   2.592
 4314TIP3   OH212818   4.765   0.711   4.752
 4314TIP3    H112819   4.847   0.661   4.760
 4314TIP3    H212820   4.731   0.688   4.666
 4315TIP3   OH212821   8.186   2.209   5.239
 4315TIP3    H112822   8.207   2.125   5.279
 4315TIP3    H212823   8.264   2.232   5.188
 4316TIP3   OH212824   1.611   4.568   5.704
 4316TIP3    H112825   1.547   4.502   5.674
 4316TIP3    H212826   1.684   4.516   5.737
 4317TIP3   OH212827   7.025   0.514   6.212
 4317TIP3    H112828   6.935   0.502   6.243
 4317TIP3    H212829   7.070   0.555   6.286
 4318TIP3   OH212830   9.012   7.570   0.464
 4318TIP3    H112831   9.075   7.627   0.420
 4318TIP3    H212832   8.995   7.613   0.548
 4319TIP3   OH212833   6.955   0.845   0.603
 4319TIP3    H112834   6.980   0.934   0.630
 4319TIP3    H212835   7.038   0.799   0.591
 4320TIP3   OH212836   2.631   2.248   3.749
 4320TIP3    H112837   2.567   2.229   3.818
 4320TIP3    H212838   2.716   2.241   3.793
 4321TIP3   OH212839   2.198   7.084   1.729
 4321TIP3    H112840   2.255   7.133   1.789
 4321TIP3    H212841   2.195   6.996   1.765
 4322TIP3   OH212842   6.057   4.831   5.317
 4322TIP3    H112843   6.096   4.790   5.394
 4322TIP3    H212844   6.003   4.762   5.278
 4323TIP3   OH212845   8.046   3.699   4.406
 4323TIP3    H112846   7.980   3.664   4.465
 4323TIP3    H212847   7.997   3.751   4.342
 4324TIP3   OH212848   8.663   6.198   1.706
 4324TIP3    H112849   8.725   6.210   1.778
 4324TIP3    H212850   8.715   6.215   1.627
 4325TIP3   OH212851   8.099   3.017   1.025
 4325TIP3    H112852   8.004   3.010   1.022
 4325TIP3    H212853   8.129   2.930   1.054
 4326TIP3   OH212854   6.831   7.730   6.534
 4326TIP3    H112855   6.850   7.637   6.520
 4326TIP3    H212856   6.761   7.749   6.472
 4327TIP3   OH212857   4.715   1.279   7.716
 4327TIP3    H112858   4.632   1.241   7.746
 4327TIP3    H212859   4.773   1.204   7.705
 4328TIP3   OH212860   5.781   3.689   7.265
 4328TIP3    H112861   5.823   3.628   7.325
 4328TIP3    H212862   5.723   3.741   7.320
 4329TIP3   OH212863   7.285   7.647   7.118
 4329TIP3    H112864   7.368   7.672   7.077
 4329TIP3    H212865   7.301   7.558   7.150
 4330TIP3   OH212866   9.389   4.545   1.039
 4330TIP3    H112867   9.398   4.453   1.013
 4330TIP3    H212868   9.338   4.584   0.968
 4331TIP3   OH212869   0.214   2.448   3.486
 4331TIP3    H112870   0.135   2.473   3.534
 4331TIP3    H212871   0.278   2.515   3.510
 4332TIP3   OH212872   6.109   6.342   6.693
 4332TIP3    H112873   6.152   6.403   6.633
 4332TIP3    H212874   6.042   6.395   6.738
 4333TIP3   OH212875   9.162   3.818   2.039
 4333TIP3    H112876   9.236   3.764   2.010
 4333TIP3    H212877   9.151   3.795   2.131
 4334TIP3   OH212878   4.282   5.776   6.927
 4334TIP3    H112879   4.196   5.772   6.886
 4334TIP3    H212880   4.296   5.688   6.964
 4335TIP3   OH212881   1.272   4.779   6.944
 4335TIP3    H112882   1.348   4.731   6.976
 4335TIP3    H212883   1.198   4.720   6.960
 4336TIP3   OH212884   3.400   5.145   7.595
 4336TIP3    H112885   3.441   5.231   7.599
 4336TIP3    H212886   3.307   5.163   7.583
 4337TIP3   OH212887   9.301   4.037   4.837
 4337TIP3    H112888   9.354   4.096   4.783
 4337TIP3    H212889   9.279   3.965   4.778
 4338TIP3   OH212890   1.941   8.798   4.571
 4338TIP3    H112891   1.869   8.860   4.567
 4338TIP3    H212892   1.931   8.754   4.656
 4339TIP3   OH212893   1.090   4.319   6.726
 4339TIP3    H112894   1.008   4.355   6.759
 4339TIP3    H212895   1.084   4.225   6.745
 4340TIP3   OH212896   4.607   7.151   6.263
 4340TIP3    H112897   4.688   7.200   6.251
 4340TIP3    H212898   4.621   7.070   6.214
 4341TIP3   OH212899   2.399   1.796   0.682
 4341TIP3    H112900   2.306   1.776   0.686
 4341TIP3    H212901   2.403   1.892   0.682
 4342TIP3   OH212902   4.450   0.493   0.167
 4342TIP3    H112903   4.478   0.467   0.255
 4342TIP3    H212904   4.499   0.573   0.148
 4343TIP3   OH212905   9.329   7.211   4.386
 4343TIP3    H112906   9.352   7.260   4.307
 4343TIP3    H212907   9.324   7.278   4.455
 4344TIP3   OH212908   5.913   5.437   3.657
 4344TIP3    H112909   5.861   5.431   3.577
 4344TIP3    H212910   5.864   5.387   3.722
 4345TIP3   OH212911   0.744   0.119   6.127
 4345TIP3    H112912   0.813   0.120   6.061
 4345TIP3    H212913   0.780   0.069   6.200
 4346TIP3   OH212914   0.073   3.066   3.725
 4346TIP3    H112915   0.070   3.086   3.631
 4346TIP3    H212916   0.047   3.147   3.768
 4347TIP3   OH212917   1.177   0.293   7.157
 4347TIP3    H112918   1.236   0.220   7.138
 4347TIP3    H212919   1.234   0.359   7.199
 4348TIP3   OH212920   3.903   0.161   4.023
 4348TIP3    H112921   3.932   0.251   4.013
 4348TIP3    H212922   3.811   0.168   4.049
 4349TIP3   OH212923   7.154   3.537   4.838
 4349TIP3    H112924   7.178   3.445   4.844
 4349TIP3    H212925   7.144   3.553   4.744
 4350TIP3   OH212926   6.396   5.335   5.982
 4350TIP3    H112927   6.414   5.265   6.045
 4350TIP3    H212928   6.428   5.301   5.898
 4351TIP3   OH212929   8.884   3.141   4.063
 4351TIP3    H112930   8.911   3.178   3.978
 4351TIP3    H212931   8.967   3.126   4.109
 4352TIP3   OH212932   3.303   1.987   1.982
 4352TIP3    H112933   3.355   2.041   1.922
 4352TIP3    H212934   3.273   2.047   2.050
 4353TIP3   OH212935   6.469   7.960   5.146
 4353TIP3    H112936   6.512   7.874   5.142
 4353TIP3    H212937   6.446   7.979   5.055
 4354TIP3   OH212938   7.394   3.582   3.351
 4354TIP3    H112939   7.410   3.648   3.418
 4354TIP3    H212940   7.395   3.631   3.268
 4355TIP3   OH212941  -0.004   5.714   3.874
 4355TIP3    H112942   0.043   5.714   3.957
 4355TIP3    H212943   0.023   5.795   3.831
 4356TIP3   OH212944   6.322   0.852   3.251
 4356TIP3    H112945   6.233   0.817   3.237
 4356TIP3    H212946   6.371   0.824   3.174
 4357TIP3   OH212947   2.145   6.588   2.014
 4357TIP3    H112948   2.206   6.619   1.948
 4357TIP3    H212949   2.064   6.635   1.995
 4358TIP3   OH212950   1.556   6.066   2.841
 4358TIP3    H112951   1.480   6.015   2.871
 4358TIP3    H212952   1.627   6.002   2.838
 4359TIP3   OH212953   8.078   4.419   0.961
 4359TIP3    H112954   8.167   4.400   0.992
 4359TIP3    H212955   8.031   4.447   1.039
 4360TIP3   OH212956   4.850   5.156   3.485
 4360TIP3    H112957   4.821   5.239   3.522
 4360TIP3    H212958   4.923   5.129   3.541
 4361TIP3   OH212959   5.244   6.908   2.394
 4361TIP3    H112960   5.192   6.828   2.401
 4361TIP3    H212961   5.310   6.900   2.463
 4362TIP3   OH212962   7.471   8.164   6.156
 4362TIP3    H112963   7.415   8.234   6.125
 4362TIP3    H212964   7.467   8.171   6.252
 4363TIP3   OH212965   3.834   8.721   1.684
 4363TIP3    H112966   3.795   8.784   1.744
 4363TIP3    H212967   3.820   8.759   1.597
 4364TIP3   OH212968   6.602   2.394   7.360
 4364TIP3    H112969   6.664   2.460   7.330
 4364TIP3    H212970   6.617   2.388   7.454
 4365TIP3   OH212971   5.831   0.810   2.526
 4365TIP3    H112972   5.891   0.840   2.594
 4365TIP3    H212973   5.774   0.885   2.509
 4366TIP3   OH212974   3.802   7.487   5.621
 4366TIP3    H112975   3.789   7.543   5.697
 4366TIP3    H212976   3.858   7.537   5.562
 4367TIP3   OH212977   3.489   6.444   6.163
 4367TIP3    H112978   3.568   6.470   6.211
 4367TIP3    H212979   3.507   6.354   6.136
 4368TIP3   OH212980   6.335   2.580   3.675
 4368TIP3    H112981   6.353   2.671   3.650
 4368TIP3    H212982   6.339   2.580   3.771
 4369TIP3   OH212983   7.316   1.619   5.817
 4369TIP3    H112984   7.237   1.566   5.828
 4369TIP3    H212985   7.291   1.706   5.848
 4370TIP3   OH212986   7.461   0.148   6.724
 4370TIP3    H112987   7.453   0.147   6.819
 4370TIP3    H212988   7.403   0.218   6.695
 4371TIP3   OH212989   5.843   8.125   2.848
 4371TIP3    H112990   5.818   8.215   2.869
 4371TIP3    H212991   5.939   8.129   2.840
 4372TIP3   OH212992   6.759   5.791   6.005
 4372TIP3    H112993   6.842   5.803   6.052
 4372TIP3    H212994   6.781   5.735   5.931
 4373TIP3   OH212995   6.081   6.166   5.781
 4373TIP3    H112996   6.134   6.097   5.741
 4373TIP3    H212997   6.086   6.239   5.719
 4374TIP3   OH212998   0.238   7.589   4.425
 4374TIP3    H112999   0.257   7.675   4.463
 4374TIP3    H213000   0.223   7.532   4.500
 4375TIP3   OH213001   7.772   0.747   5.684
 4375TIP3    H113002   7.789   0.734   5.591
 4375TIP3    H213003   7.692   0.696   5.701
 4376TIP3   OH213004   7.950   4.555   4.403
 4376TIP3    H113005   7.894   4.567   4.480
 4376TIP3    H213006   7.977   4.644   4.381
 4377TIP3   OH213007   0.853   5.257   5.527
 4377TIP3    H113008   0.840   5.239   5.620
 4377TIP3    H213009   0.782   5.210   5.484
 4378TIP3   OH213010   4.131   0.488   5.127
 4378TIP3    H113011   4.201   0.527   5.179
 4378TIP3    H213012   4.168   0.480   5.039
 4379TIP3   OH213013   3.346   1.825   0.912
 4379TIP3    H113014   3.351   1.863   0.999
 4379TIP3    H213015   3.284   1.752   0.920
 4380TIP3   OH213016   7.638   6.758   3.200
 4380TIP3    H113017   7.632   6.821   3.128
 4380TIP3    H213018   7.724   6.718   3.189
 4381TIP3   OH213019   6.601   8.887   7.198
 4381TIP3    H113020   6.506   8.880   7.188
 4381TIP3    H213021   6.620   8.836   7.277
 4382TIP3   OH213022   5.273   3.557   4.702
 4382TIP3    H113023   5.279   3.632   4.643
 4382TIP3    H213024   5.363   3.545   4.734
 4383TIP3   OH213025   4.347   2.652   6.500
 4383TIP3    H113026   4.266   2.603   6.514
 4383TIP3    H213027   4.352   2.712   6.574
 4384TIP3   OH213028   2.532   2.460   2.261
 4384TIP3    H113029   2.571   2.396   2.201
 4384TIP3    H213030   2.540   2.544   2.214
 4385TIP3   OH213031   4.857   4.397   2.618
 4385TIP3    H113032   4.851   4.460   2.546
 4385TIP3    H213033   4.871   4.313   2.574
 4386TIP3   OH213034   0.651   0.163   3.751
 4386TIP3    H113035   0.612   0.247   3.726
 4386TIP3    H213036   0.723   0.186   3.809
 4387TIP3   OH213037   0.266   5.351   0.949
 4387TIP3    H113038   0.172   5.332   0.938
 4387TIP3    H213039   0.306   5.266   0.968
 4388TIP3   OH213040   7.757   1.745   0.648
 4388TIP3    H113041   7.718   1.703   0.571
 4388TIP3    H213042   7.709   1.827   0.658
 4389TIP3   OH213043   2.748   5.005   7.728
 4389TIP3    H113044   2.698   4.940   7.679
 4389TIP3    H213045   2.806   4.954   7.785
 4390TIP3   OH213046   7.325   4.822   7.128
 4390TIP3    H113047   7.384   4.891   7.159
 4390TIP3    H213048   7.371   4.740   7.149
 4391TIP3   OH213049   8.330   3.753   6.574
 4391TIP3    H113050   8.254   3.756   6.633
 4391TIP3    H213051   8.306   3.688   6.508
 4392TIP3   OH213052   2.066   6.615   2.285
 4392TIP3    H113053   2.131   6.650   2.345
 4392TIP3    H213054   2.115   6.599   2.204
 4393TIP3   OH213055   8.256   3.271   3.824
 4393TIP3    H113056   8.203   3.343   3.857
 4393TIP3    H213057   8.301   3.237   3.901
 4394TIP3   OH213058   3.367   1.077   7.334
 4394TIP3    H113059   3.430   1.134   7.378
 4394TIP3    H213060   3.420   1.020   7.279
 4395TIP3   OH213061   8.297   2.202   3.216
 4395TIP3    H113062   8.208   2.199   3.179
 4395TIP3    H213063   8.282   2.215   3.310
 4396TIP3   OH213064   6.489   2.507   0.245
 4396TIP3    H113065   6.539   2.583   0.273
 4396TIP3    H213066   6.398   2.531   0.261
 4397TIP3   OH213067   5.124   6.359   3.856
 4397TIP3    H113068   5.060   6.308   3.905
 4397TIP3    H213069   5.207   6.314   3.873
 4398TIP3   OH213070   1.329   7.548   4.953
 4398TIP3    H113071   1.396   7.484   4.979
 4398TIP3    H213072   1.250   7.496   4.941
 4399TIP3   OH213073   1.927   6.805   7.166
 4399TIP3    H113074   2.008   6.808   7.116
 4399TIP3    H213075   1.876   6.735   7.125
 4400TIP3   OH213076   7.110   6.252   5.452
 4400TIP3    H113077   7.085   6.161   5.470
 4400TIP3    H213078   7.037   6.304   5.487
 4401TIP3   OH213079   0.856   2.985   7.424
 4401TIP3    H113080   0.883   3.071   7.456
 4401TIP3    H213081   0.809   2.945   7.497
 4402TIP3   OH213082   2.035   3.332   3.369
 4402TIP3    H113083   2.062   3.423   3.354
 4402TIP3    H213084   1.957   3.320   3.314
 4403TIP3   OH213085   0.876   7.792   4.002
 4403TIP3    H113086   0.912   7.801   3.914
 4403TIP3    H213087   0.788   7.829   3.996
 4404TIP3   OH213088   5.444   1.784   6.792
 4404TIP3    H113089   5.411   1.847   6.728
 4404TIP3    H213090   5.421   1.698   6.757
 4405TIP3   OH213091   5.230   4.348   2.060
 4405TIP3    H113092   5.204   4.408   2.131
 4405TIP3    H213093   5.317   4.379   2.034
 4406TIP3   OH213094   8.801   7.641   3.167
 4406TIP3    H113095   8.845   7.573   3.218
 4406TIP3    H213096   8.735   7.677   3.227
 4407TIP3   OH213097   6.485   0.110   2.202
 4407TIP3    H113098   6.456   0.150   2.284
 4407TIP3    H213099   6.414   0.050   2.178
 4408TIP3   OH213100   6.675   2.499   5.478
 4408TIP3    H113101   6.633   2.432   5.532
 4408TIP3    H213102   6.603   2.557   5.452
 4409TIP3   OH213103   6.604   3.817   2.117
 4409TIP3    H113104   6.595   3.840   2.025
 4409TIP3    H213105   6.672   3.876   2.150
 4410TIP3   OH213106   8.993   7.855   3.982
 4410TIP3    H113107   8.988   7.885   4.073
 4410TIP3    H213108   8.921   7.791   3.974
 4411TIP3   OH213109   5.921   2.924   4.445
 4411TIP3    H113110   5.854   2.992   4.443
 4411TIP3    H213111   6.000   2.969   4.473
 4412TIP3   OH213112   8.688   3.530   6.609
 4412TIP3    H113113   8.725   3.462   6.553
 4412TIP3    H213114   8.762   3.587   6.631
 4413TIP3   OH213115   7.206   8.348   0.437
 4413TIP3    H113116   7.257   8.282   0.390
 4413TIP3    H213117   7.246   8.431   0.414
 4414TIP3   OH213118   4.366   1.928   3.398
 4414TIP3    H113119   4.362   1.966   3.311
 4414TIP3    H213120   4.383   2.002   3.456
 4415TIP3   OH213121   0.735   4.306   3.670
 4415TIP3    H113122   0.771   4.391   3.646
 4415TIP3    H213123   0.650   4.326   3.709
 4416TIP3   OH213124   8.400   7.531   5.496
 4416TIP3    H113125   8.318   7.544   5.449
 4416TIP3    H213126   8.378   7.548   5.588
 4417TIP3   OH213127   4.527   7.920   4.618
 4417TIP3    H113128   4.552   7.949   4.706
 4417TIP3    H213129   4.490   7.998   4.576
 4418TIP3   OH213130   8.808   3.794   5.309
 4418TIP3    H113131   8.806   3.736   5.234
 4418TIP3    H213132   8.891   3.841   5.302
 4419TIP3   OH213133   7.819   1.566   1.995
 4419TIP3    H113134   7.752   1.499   2.005
 4419TIP3    H213135   7.824   1.580   1.900
 4420TIP3   OH213136   7.991   4.986   3.331
 4420TIP3    H113137   8.018   5.026   3.248
 4420TIP3    H213138   8.069   4.937   3.359
 4421TIP3   OH213139   6.440   2.693   5.377
 4421TIP3    H113140   6.356   2.740   5.368
 4421TIP3    H213141   6.432   2.618   5.318
 4422TIP3   OH213142   7.578   4.948   6.221
 4422TIP3    H113143   7.643   4.954   6.291
 4422TIP3    H213144   7.587   4.859   6.187
 4423TIP3   OH213145   3.866   5.117   7.543
 4423TIP3    H113146   3.837   5.143   7.630
 4423TIP3    H213147   3.789   5.077   7.503
 4424TIP3   OH213148   9.186   1.480   6.606
 4424TIP3    H113149   9.192   1.386   6.587
 4424TIP3    H213150   9.207   1.522   6.523
 4425TIP3   OH213151   9.033   7.539   5.721
 4425TIP3    H113152   8.976   7.464   5.732
 4425TIP3    H213153   9.068   7.531   5.633
 4426TIP3   OH213154   5.822   4.169   6.111
 4426TIP3    H113155   5.764   4.108   6.157
 4426TIP3    H213156   5.899   4.175   6.167
 4427TIP3   OH213157   2.234   8.055   2.388
 4427TIP3    H113158   2.168   8.019   2.449
 4427TIP3    H213159   2.201   8.143   2.368
 4428TIP3   OH213160   6.608   7.982   4.398
 4428TIP3    H113161   6.697   7.967   4.367
 4428TIP3    H213162   6.563   7.899   4.384
 4429TIP3   OH213163   1.344   0.567   5.556
 4429TIP3    H113164   1.351   0.577   5.651
 4429TIP3    H213165   1.411   0.626   5.521
 4430TIP3   OH213166   9.464   8.850   4.024
 4430TIP3    H113167   9.508   8.815   4.102
 4430TIP3    H213168   9.372   8.851   4.048
 4431TIP3   OH213169   5.532   3.789   2.169
 4431TIP3    H113170   5.443   3.753   2.167
 4431TIP3    H213171   5.546   3.814   2.261
 4432TIP3   OH213172   4.489   7.885   5.280
 4432TIP3    H113173   4.558   7.920   5.336
 4432TIP3    H213174   4.415   7.945   5.293
 4433TIP3   OH213175   9.438   6.028   2.280
 4433TIP3    H113176   9.484   5.967   2.222
 4433TIP3    H213177   9.363   6.058   2.228
 4434TIP3   OH213178   0.213   6.436   3.318
 4434TIP3    H113179   0.235   6.384   3.394
 4434TIP3    H213180   0.117   6.441   3.318
 4435TIP3   OH213181   1.206   7.758   0.445
 4435TIP3    H113182   1.291   7.725   0.473
 4435TIP3    H213183   1.166   7.684   0.399
 4436TIP3   OH213184   1.750   6.335   1.983
 4436TIP3    H113185   1.734   6.353   2.076
 4436TIP3    H213186   1.690   6.392   1.936
 4437TIP3   OH213187   7.526   5.209   2.393
 4437TIP3    H113188   7.542   5.190   2.301
 4437TIP3    H213189   7.448   5.265   2.392
 4438TIP3   OH213190   8.269   1.646   4.503
 4438TIP3    H113191   8.177   1.641   4.477
 4438TIP3    H213192   8.312   1.693   4.432
 4439TIP3   OH213193   3.213   0.299   1.806
 4439TIP3    H113194   3.209   0.377   1.752
 4439TIP3    H213195   3.214   0.331   1.896
 4440TIP3   OH213196   4.702   1.063   0.416
 4440TIP3    H113197   4.667   1.009   0.345
 4440TIP3    H213198   4.758   1.127   0.372
 4441TIP3   OH213199   2.191   4.067   0.183
 4441TIP3    H113200   2.253   4.094   0.115
 4441TIP3    H213201   2.227   4.103   0.264
 4442TIP3   OH213202   2.354   1.435   0.732
 4442TIP3    H113203   2.281   1.378   0.710
 4442TIP3    H213204   2.316   1.523   0.732
 4443TIP3   OH213205   8.292   2.254   0.186
 4443TIP3    H113206   8.328   2.252   0.275
 4443TIP3    H213207   8.303   2.165   0.153
 4444TIP3   OH213208   3.235   0.590   4.380
 4444TIP3    H113209   3.290   0.592   4.457
 4444TIP3    H213210   3.259   0.667   4.330
 4445TIP3   OH213211   2.966   3.643   6.036
 4445TIP3    H113212   2.931   3.706   5.973
 4445TIP3    H213213   3.051   3.618   6.001
 4446TIP3   OH213214   1.030   6.934   6.899
 4446TIP3    H113215   0.974   6.968   6.829
 4446TIP3    H213216   0.969   6.907   6.968
 4447TIP3   OH213217   2.287   7.411   1.066
 4447TIP3    H113218   2.237   7.475   1.117
 4447TIP3    H213219   2.352   7.376   1.128
 4448TIP3   OH213220   5.348   3.320   3.104
 4448TIP3    H113221   5.299   3.380   3.048
 4448TIP3    H213222   5.330   3.350   3.193
 4449TIP3   OH213223   5.514   7.266   7.458
 4449TIP3    H113224   5.451   7.305   7.397
 4449TIP3    H213225   5.517   7.173   7.434
 4450TIP3   OH213226   0.121   8.932   2.971
 4450TIP3    H113227   0.134   9.008   2.915
 4450TIP3    H213228   0.185   8.868   2.941
 4451TIP3   OH213229   1.161   6.338   0.525
 4451TIP3    H113230   1.234   6.305   0.473
 4451TIP3    H213231   1.096   6.268   0.522
 4452TIP3   OH213232   6.418   8.699   1.466
 4452TIP3    H113233   6.327   8.724   1.449
 4452TIP3    H213234   6.443   8.648   1.389
 4453TIP3   OH213235   5.813   1.513   1.052
 4453TIP3    H113236   5.755   1.437   1.061
 4453TIP3    H213237   5.857   1.500   0.968
 4454TIP3   OH213238   2.410   4.233   6.448
 4454TIP3    H113239   2.365   4.302   6.497
 4454TIP3    H213240   2.349   4.208   6.379
 4455TIP3   OH213241   2.149   4.907   0.512
 4455TIP3    H113242   2.057   4.891   0.493
 4455TIP3    H213243   2.166   4.993   0.474
 4456TIP3   OH213244   3.739   7.729   5.011
 4456TIP3    H113245   3.763   7.789   4.940
 4456TIP3    H213246   3.653   7.759   5.039
 4457TIP3   OH213247   8.693   8.366   3.314
 4457TIP3    H113248   8.681   8.422   3.391
 4457TIP3    H213249   8.719   8.281   3.350
 4458TIP3   OH213250   1.552   2.820   0.204
 4458TIP3    H113251   1.501   2.765   0.263
 4458TIP3    H213252   1.552   2.906   0.246
 4459TIP3   OH213253   0.078   6.212   6.719
 4459TIP3    H113254   0.128   6.276   6.668
 4459TIP3    H213255   0.035   6.158   6.653
 4460TIP3   OH213256   1.403   1.686   0.280
 4460TIP3    H113257   1.414   1.764   0.335
 4460TIP3    H213258   1.378   1.617   0.342
 4461TIP3   OH213259   5.461   1.780   3.221
 4461TIP3    H113260   5.372   1.761   3.247
 4461TIP3    H213261   5.454   1.859   3.167
 4462TIP3   OH213262   1.470   5.948   7.800
 4462TIP3    H113263   1.475   5.972   7.892
 4462TIP3    H213264   1.409   5.874   7.797
 4463TIP3   OH213265   2.373   8.518   0.158
 4463TIP3    H113266   2.434   8.590   0.172
 4463TIP3    H213267   2.324   8.542   0.080
 4464TIP3   OH213268   1.030   3.906   6.305
 4464TIP3    H113269   1.042   3.915   6.400
 4464TIP3    H213270   1.054   3.815   6.287
 4465TIP3   OH213271   2.041   6.949   4.142
 4465TIP3    H113272   2.095   6.878   4.107
 4465TIP3    H213273   2.088   7.029   4.119
 4466TIP3   OH213274   7.439   1.720   5.585
 4466TIP3    H113275   7.385   1.786   5.542
 4466TIP3    H213276   7.387   1.692   5.660
 4467TIP3   OH213277   4.778   8.197   6.023
 4467TIP3    H113278   4.792   8.291   6.025
 4467TIP3    H213279   4.770   8.172   6.115
 4468TIP3   OH213280   7.712   8.889   6.265
 4468TIP3    H113281   7.749   8.836   6.336
 4468TIP3    H213282   7.762   8.971   6.268
 4469TIP3   OH213283   5.572   1.243   4.011
 4469TIP3    H113284   5.567   1.160   3.963
 4469TIP3    H213285   5.555   1.220   4.102
 4470TIP3   OH213286   8.252   7.209   4.201
 4470TIP3    H113287   8.197   7.179   4.274
 4470TIP3    H213288   8.341   7.204   4.234
 4471TIP3   OH213289   3.234   3.900   5.483
 4471TIP3    H113290   3.198   3.811   5.487
 4471TIP3    H213291   3.250   3.915   5.390
 4472TIP3   OH213292   1.458   7.980   3.802
 4472TIP3    H113293   1.458   8.020   3.715
 4472TIP3    H213294   1.513   8.038   3.855
 4473TIP3   OH213295   8.665   8.978   4.685
 4473TIP3    H113296   8.743   8.987   4.741
 4473TIP3    H213297   8.671   9.053   4.625
 4474TIP3   OH213298   5.522   1.475   1.325
 4474TIP3    H113299   5.601   1.439   1.365
 4474TIP3    H213300   5.484   1.532   1.392
 4475TIP3   OH213301   8.705   3.484   0.452
 4475TIP3    H113302   8.701   3.396   0.414
 4475TIP3    H213303   8.687   3.542   0.379
 4476TIP3   OH213304   5.528   5.036   6.514
 4476TIP3    H113305   5.606   5.047   6.460
 4476TIP3    H213306   5.517   5.121   6.558
 4477TIP3   OH213307   0.907   7.367   0.169
 4477TIP3    H113308   0.913   7.346   0.262
 4477TIP3    H213309   0.820   7.339   0.143
 4478TIP3   OH213310   6.202   1.511   6.929
 4478TIP3    H113311   6.223   1.430   6.884
 4478TIP3    H213312   6.285   1.542   6.965
 4479TIP3   OH213313   1.461   8.040   2.624
 4479TIP3    H113314   1.367   8.031   2.611
 4479TIP3    H213315   1.498   7.960   2.587
 4480TIP3   OH213316   0.609   5.759   6.830
 4480TIP3    H113317   0.563   5.721   6.754
 4480TIP3    H213318   0.594   5.853   6.823
 4481TIP3   OH213319   7.903   4.236   1.344
 4481TIP3    H113320   7.886   4.145   1.319
 4481TIP3    H213321   7.897   4.284   1.261
 4482TIP3   OH213322   8.149   4.398   1.414
 4482TIP3    H113323   8.070   4.350   1.390
 4482TIP3    H213324   8.199   4.403   1.333
 4483TIP3   OH213325   7.025   5.105   4.699
 4483TIP3    H113326   6.989   5.043   4.761
 4483TIP3    H213327   7.005   5.191   4.735
 4484TIP3   OH213328   6.321   7.610   5.065
 4484TIP3    H113329   6.229   7.633   5.080
 4484TIP3    H213330   6.345   7.661   4.987
 4485TIP3   OH213331   8.466   4.793   6.900
 4485TIP3    H113332   8.394   4.851   6.924
 4485TIP3    H213333   8.499   4.828   6.818
 4486TIP3   OH213334   2.665   4.121   7.131
 4486TIP3    H113335   2.755   4.113   7.161
 4486TIP3    H213336   2.659   4.208   7.093
 4487TIP3   OH213337   0.017   6.869   0.197
 4487TIP3    H113338  -0.016   6.935   0.257
 4487TIP3    H213339   0.031   6.792   0.252
 4488TIP3   OH213340   0.361   4.649   5.319
 4488TIP3    H113341   0.455   4.641   5.305
 4488TIP3    H213342   0.324   4.575   5.271
 4489TIP3   OH213343   0.227   4.762   2.320
 4489TIP3    H113344   0.182   4.679   2.305
 4489TIP3    H213345   0.209   4.783   2.412
 4490TIP3   OH213346   8.898   2.947   1.742
 4490TIP3    H113347   8.809   2.969   1.715
 4490TIP3    H213348   8.893   2.854   1.765
 4491TIP3   OH213349   0.292   2.994   6.506
 4491TIP3    H113350   0.298   3.086   6.533
 4491TIP3    H213351   0.286   2.998   6.410
 4492TIP3   OH213352   7.052   3.669   5.896
 4492TIP3    H113353   7.029   3.725   5.971
 4492TIP3    H213354   7.014   3.714   5.820
 4493TIP3   OH213355   4.509   0.416   5.354
 4493TIP3    H113356   4.453   0.406   5.431
 4493TIP3    H213357   4.593   0.443   5.390
 4494TIP3   OH213358   3.052   3.521   1.404
 4494TIP3    H113359   3.007   3.505   1.321
 4494TIP3    H213360   3.090   3.608   1.395
 4495TIP3   OH213361   6.993   4.622   4.250
 4495TIP3    H113362   7.064   4.631   4.314
 4495TIP3    H213363   6.914   4.640   4.300
 4496TIP3   OH213364   4.557   7.154   1.922
 4496TIP3    H113365   4.549   7.227   1.984
 4496TIP3    H213366   4.543   7.195   1.836
 4497TIP3   OH213367   2.130   8.107   4.613
 4497TIP3    H113368   2.200   8.120   4.550
 4497TIP3    H213369   2.079   8.034   4.578
 4498TIP3   OH213370   2.949   7.698   2.065
 4498TIP3    H113371   2.909   7.638   2.002
 4498TIP3    H213372   2.925   7.786   2.034
 4499TIP3   OH213373   6.248   7.809   1.538
 4499TIP3    H113374   6.229   7.806   1.632
 4499TIP3    H213375   6.329   7.759   1.528
 4500TIP3   OH213376   6.728   5.297   2.364
 4500TIP3    H113377   6.690   5.260   2.444
 4500TIP3    H213378   6.755   5.385   2.389
 4501TIP3   OH213379   0.066   2.306   6.459
 4501TIP3    H113380   0.092   2.216   6.436
 4501TIP3    H213381   0.147   2.347   6.489
 4502TIP3   OH213382   1.911   2.369   4.513
 4502TIP3    H113383   1.962   2.331   4.584
 4502TIP3    H213384   1.847   2.301   4.490
 4503TIP3   OH213385   0.370   8.446   4.353
 4503TIP3    H113386   0.443   8.459   4.413
 4503TIP3    H213387   0.398   8.488   4.271
 4504TIP3   OH213388   6.416   8.200   3.929
 4504TIP3    H113389   6.432   8.193   4.023
 4504TIP3    H213390   6.451   8.118   3.893
 4505TIP3   OH213391   2.500   5.045   4.508
 4505TIP3    H113392   2.466   5.029   4.596
 4505TIP3    H213393   2.511   5.140   4.504
 4506TIP3   OH213394   1.672   5.371   7.767
 4506TIP3    H113395   1.732   5.351   7.839
 4506TIP3    H213396   1.713   5.331   7.690
 4507TIP3   OH213397   6.261   5.608   1.490
 4507TIP3    H113398   6.285   5.529   1.440
 4507TIP3    H213399   6.188   5.580   1.545
 4508TIP3   OH213400   6.097   3.233   1.183
 4508TIP3    H113401   6.031   3.223   1.252
 4508TIP3    H213402   6.069   3.173   1.114
 4509TIP3   OH213403   8.287   5.806   7.109
 4509TIP3    H113404   8.241   5.827   7.028
 4509TIP3    H213405   8.377   5.834   7.093
 4510TIP3   OH213406   6.397   5.059   0.710
 4510TIP3    H113407   6.308   5.031   0.689
 4510TIP3    H213408   6.415   5.021   0.796
 4511TIP3   OH213409   7.045   7.534   0.280
 4511TIP3    H113410   7.071   7.479   0.206
 4511TIP3    H213411   7.127   7.575   0.308
 4512TIP3   OH213412   4.820   8.904   7.470
 4512TIP3    H113413   4.914   8.888   7.474
 4512TIP3    H213414   4.803   8.924   7.377
 4513TIP3   OH213415   8.965   8.036   7.544
 4513TIP3    H113416   8.977   8.046   7.450
 4513TIP3    H213417   8.971   7.942   7.559
 4514TIP3   OH213418   1.542   7.887   4.423
 4514TIP3    H113419   1.498   7.904   4.339
 4514TIP3    H213420   1.482   7.921   4.489
 4515TIP3   OH213421   5.572   7.328   1.206
 4515TIP3    H113422   5.608   7.407   1.245
 4515TIP3    H213423   5.547   7.273   1.281
 4516TIP3   OH213424   1.897   2.977   5.242
 4516TIP3    H113425   1.955   2.928   5.300
 4516TIP3    H213426   1.954   3.014   5.175
 4517TIP3   OH213427   6.101   2.394   5.311
 4517TIP3    H113428   6.057   2.403   5.227
 4517TIP3    H213429   6.041   2.433   5.374
 4518TIP3   OH213430   3.354   7.710   1.958
 4518TIP3    H113431   3.298   7.712   1.880
 4518TIP3    H213432   3.420   7.777   1.942
 4519TIP3   OH213433   6.715   4.812   7.211
 4519TIP3    H113434   6.655   4.820   7.285
 4519TIP3    H213435   6.662   4.772   7.142
 4520TIP3   OH213436   5.549   5.413   0.112
 4520TIP3    H113437   5.587   5.492   0.074
 4520TIP3    H213438   5.621   5.351   0.116
 4521TIP3   OH213439   8.641   8.942   5.467
 4521TIP3    H113440   8.704   8.873   5.446
 4521TIP3    H213441   8.556   8.902   5.452
 4522TIP3   OH213442   5.661   6.405   2.141
 4522TIP3    H113443   5.597   6.371   2.203
 4522TIP3    H213444   5.650   6.500   2.143
 4523TIP3   OH213445   6.490   8.146   0.648
 4523TIP3    H113446   6.578   8.157   0.685
 4523TIP3    H213447   6.506   8.105   0.562
 4524TIP3   OH213448   3.425   5.726   5.015
 4524TIP3    H113449   3.385   5.684   5.091
 4524TIP3    H213450   3.517   5.735   5.038
 4525TIP3   OH213451   3.403   1.977   6.271
 4525TIP3    H113452   3.411   2.072   6.263
 4525TIP3    H213453   3.440   1.956   6.357
 4526TIP3   OH213454   2.255   4.346   5.537
 4526TIP3    H113455   2.322   4.296   5.491
 4526TIP3    H213456   2.197   4.378   5.468
 4527TIP3   OH213457   0.048   6.492   5.260
 4527TIP3    H113458   0.124   6.435   5.253
 4527TIP3    H213459   0.010   6.492   5.172
 4528TIP3   OH213460   9.520   1.901   1.161
 4528TIP3    H113461   9.510   1.951   1.081
 4528TIP3    H213462   9.469   1.821   1.146
 4529TIP3   OH213463   0.778   7.297   3.793
 4529TIP3    H113464   0.685   7.316   3.810
 4529TIP3    H213465   0.809   7.259   3.875
 4530TIP3   OH213466   5.718   3.128   1.528
 4530TIP3    H113467   5.674   3.210   1.549
 4530TIP3    H213468   5.799   3.130   1.580
 4531TIP3   OH213469   9.447   8.801   5.049
 4531TIP3    H113470   9.356   8.828   5.062
 4531TIP3    H213471   9.443   8.707   5.036
 4532TIP3   OH213472   1.732   7.459   1.766
 4532TIP3    H113473   1.809   7.503   1.730
 4532TIP3    H213474   1.685   7.427   1.690
 4533TIP3   OH213475   7.509   3.172   4.607
 4533TIP3    H113476   7.491   3.262   4.579
 4533TIP3    H213477   7.587   3.147   4.557
 4534TIP3   OH213478   5.412   0.051   7.444
 4534TIP3    H113479   5.490   0.079   7.492
 4534TIP3    H213480   5.358   0.007   7.509
 4535TIP3   OH213481   0.308   1.319   5.182
 4535TIP3    H113482   0.267   1.396   5.221
 4535TIP3    H213483   0.280   1.321   5.090
 4536TIP3   OH213484   2.491   3.508   4.728
 4536TIP3    H113485   2.490   3.414   4.743
 4536TIP3    H213486   2.414   3.541   4.775
 4537TIP3   OH213487   6.075   3.342   3.458
 4537TIP3    H113488   6.047   3.282   3.389
 4537TIP3    H213489   6.162   3.372   3.429
 4538TIP3   OH213490   7.220   7.236   2.607
 4538TIP3    H113491   7.294   7.284   2.571
 4538TIP3    H213492   7.190   7.181   2.535
 4539TIP3   OH213493   2.107   3.920   2.613
 4539TIP3    H113494   2.126   3.949   2.702
 4539TIP3    H213495   2.030   3.865   2.622
 4540TIP3   OH213496   6.415   0.471   0.089
 4540TIP3    H113497   6.511   0.462   0.093
 4540TIP3    H213498   6.390   0.429   0.007
 4541TIP3   OH213499   8.516   5.543   1.808
 4541TIP3    H113500   8.548   5.614   1.864
 4541TIP3    H213501   8.421   5.544   1.821
 4542TIP3   OH213502   6.337   5.549   2.124
 4542TIP3    H113503   6.293   5.557   2.209
 4542TIP3    H213504   6.430   5.562   2.145
 4543TIP3   OH213505   6.321   1.600   2.277
 4543TIP3    H113506   6.349   1.515   2.242
 4543TIP3    H213507   6.259   1.577   2.347
 4544TIP3   OH213508   8.977   0.410   4.253
 4544TIP3    H113509   9.001   0.485   4.198
 4544TIP3    H213510   9.012   0.432   4.339
 4545TIP3   OH213511   5.190   1.010   0.946
 4545TIP3    H113512   5.276   0.991   0.910
 4545TIP3    H213513   5.189   0.967   1.031
 4546TIP3   OH213514   7.934   3.211   1.613
 4546TIP3    H113515   7.951   3.131   1.663
 4546TIP3    H213516   7.976   3.195   1.528
 4547TIP3   OH213517   6.191   1.472   6.030
 4547TIP3    H113518   6.162   1.418   6.104
 4547TIP3    H213519   6.125   1.457   5.963
 4548TIP3   OH213520   6.661   7.297   3.825
 4548TIP3    H113521   6.601   7.257   3.888
 4548TIP3    H213522   6.704   7.222   3.783
 4549TIP3   OH213523   3.299   3.077   0.712
 4549TIP3    H113524   3.216   3.116   0.743
 4549TIP3    H213525   3.363   3.147   0.725
 4550TIP3   OH213526   6.049   6.655   4.117
 4550TIP3    H113527   6.077   6.662   4.208
 4550TIP3    H213528   6.060   6.743   4.081
 4551TIP3   OH213529   1.779   6.983   5.212
 4551TIP3    H113530   1.837   6.998   5.287
 4551TIP3    H213531   1.691   6.999   5.246
 4552TIP3   OH213532   2.423   8.375   5.920
 4552TIP3    H113533   2.511   8.389   5.955
 4552TIP3    H213534   2.429   8.292   5.873
 4553TIP3   OH213535   7.228   7.472   6.107
 4553TIP3    H113536   7.152   7.497   6.053
 4553TIP3    H213537   7.286   7.548   6.103
 4554TIP3   OH213538   0.033   1.893   5.630
 4554TIP3    H113539   0.110   1.838   5.640
 4554TIP3    H213540   0.045   1.963   5.694
 4555TIP3   OH213541   1.402   3.958   4.009
 4555TIP3    H113542   1.338   3.963   4.081
 4555TIP3    H213543   1.478   4.007   4.041
 4556TIP3   OH213544   3.921   5.425   0.231
 4556TIP3    H113545   3.966   5.425   0.146
 4556TIP3    H213546   3.840   5.377   0.215
 4557TIP3   OH213547   7.922   7.918   0.344
 4557TIP3    H113548   7.926   7.835   0.392
 4557TIP3    H213549   7.955   7.897   0.257
 4558TIP3   OH213550   9.034   1.295   2.858
 4558TIP3    H113551   9.069   1.328   2.775
 4558TIP3    H213552   9.031   1.200   2.847
 4559TIP3   OH213553   5.688   6.068   7.081
 4559TIP3    H113554   5.673   6.038   6.992
 4559TIP3    H213555   5.750   6.005   7.118
 4560TIP3   OH213556   0.382   0.589   1.759
 4560TIP3    H113557   0.449   0.656   1.776
 4560TIP3    H213558   0.352   0.608   1.670
 4561TIP3   OH213559   4.274   4.219   6.682
 4561TIP3    H113560   4.336   4.155   6.718
 4561TIP3    H213561   4.267   4.196   6.589
 4562TIP3   OH213562   3.627   5.148   7.208
 4562TIP3    H113563   3.672   5.098   7.276
 4562TIP3    H213564   3.613   5.234   7.247
 4563TIP3   OH213565   0.200   0.524   5.086
 4563TIP3    H113566   0.212   0.435   5.054
 4563TIP3    H213567   0.133   0.562   5.028
 4564TIP3   OH213568   5.088   3.381   5.624
 4564TIP3    H113569   5.136   3.377   5.706
 4564TIP3    H213570   4.998   3.402   5.650
 4565TIP3   OH213571   1.105   2.765   1.635
 4565TIP3    H113572   1.067   2.677   1.634
 4565TIP3    H213573   1.081   2.803   1.550
 4566TIP3   OH213574   8.269   3.672   7.172
 4566TIP3    H113575   8.312   3.612   7.234
 4566TIP3    H213576   8.189   3.626   7.147
 4567TIP3   OH213577   7.237   5.438   6.490
 4567TIP3    H113578   7.309   5.488   6.527
 4567TIP3    H213579   7.199   5.390   6.564
 4568TIP3   OH213580   3.186   3.288   7.106
 4568TIP3    H113581   3.269   3.332   7.125
 4568TIP3    H213582   3.193   3.263   7.014
 4569TIP3   OH213583   7.029   5.060   6.111
 4569TIP3    H113584   7.094   5.029   6.048
 4569TIP3    H213585   6.958   5.093   6.056
 4570TIP3   OH213586   8.930   7.251   1.737
 4570TIP3    H113587   9.007   7.208   1.773
 4570TIP3    H213588   8.928   7.337   1.781
 4571TIP3   OH213589   1.849   7.970   2.594
 4571TIP3    H113590   1.799   7.893   2.619
 4571TIP3    H213591   1.941   7.944   2.606
 4572TIP3   OH213592   2.426   3.227   5.303
 4572TIP3    H113593   2.407   3.312   5.344
 4572TIP3    H213594   2.343   3.179   5.311
 4573TIP3   OH213595   5.830   3.136   0.238
 4573TIP3    H113596   5.735   3.136   0.249
 4573TIP3    H213597   5.863   3.078   0.306
 4574TIP3   OH213598   5.329   7.320   2.139
 4574TIP3    H113599   5.326   7.313   2.044
 4574TIP3    H213600   5.414   7.359   2.158
 4575TIP3   OH213601   2.149   1.506   1.599
 4575TIP3    H113602   2.220   1.472   1.545
 4575TIP3    H213603   2.081   1.531   1.537
 4576TIP3   OH213604   5.473   7.853   4.708
 4576TIP3    H113605   5.404   7.859   4.642
 4576TIP3    H213606   5.485   7.943   4.737
 4577TIP3   OH213607   3.920   6.631   1.295
 4577TIP3    H113608   3.906   6.584   1.378
 4577TIP3    H213609   3.832   6.658   1.269
 4578TIP3   OH213610   2.196   2.099   4.847
 4578TIP3    H113611   2.248   2.019   4.839
 4578TIP3    H213612   2.108   2.073   4.817
 4579TIP3   OH213613   7.667   3.321   5.126
 4579TIP3    H113614   7.667   3.237   5.079
 4579TIP3    H213615   7.577   3.353   5.119
 4580TIP3   OH213616   6.416   8.572   7.219
 4580TIP3    H113617   6.509   8.558   7.238
 4580TIP3    H213618   6.416   8.635   7.146
 4581TIP3   OH213619   3.188   8.775   1.212
 4581TIP3    H113620   3.214   8.791   1.122
 4581TIP3    H213621   3.148   8.857   1.241
 4582TIP3   OH213622   5.998   1.465   6.662
 4582TIP3    H113623   6.009   1.371   6.647
 4582TIP3    H213624   6.051   1.483   6.740
 4583TIP3   OH213625   3.185   0.948   3.409
 4583TIP3    H113626   3.137   0.937   3.492
 4583TIP3    H213627   3.261   0.892   3.418
 4584TIP3   OH213628   5.142   4.529   6.432
 4584TIP3    H113629   5.077   4.459   6.424
 4584TIP3    H213630   5.146   4.569   6.345
 4585TIP3   OH213631   8.164   3.562   3.581
 4585TIP3    H113632   8.136   3.529   3.666
 4585TIP3    H213633   8.111   3.514   3.517
 4586TIP3   OH213634   7.843   4.425   1.146
 4586TIP3    H113635   7.765   4.435   1.200
 4586TIP3    H213636   7.833   4.491   1.076
 4587TIP3   OH213637   5.957   2.855   5.211
 4587TIP3    H113638   5.958   2.950   5.225
 4587TIP3    H213639   5.898   2.842   5.138
 4588TIP3   OH213640   2.197   8.541   0.545
 4588TIP3    H113641   2.238   8.559   0.629
 4588TIP3    H213642   2.188   8.626   0.503
 4589TIP3   OH213643   9.192   2.925   6.839
 4589TIP3    H113644   9.159   2.838   6.815
 4589TIP3    H213645   9.121   2.985   6.814
 4590TIP3   OH213646   1.128   0.662   0.903
 4590TIP3    H113647   1.068   0.601   0.945
 4590TIP3    H213648   1.208   0.657   0.956
 4591TIP3   OH213649   6.419   0.429   0.579
 4591TIP3    H113650   6.363   0.355   0.605
 4591TIP3    H213651   6.405   0.436   0.484
 4592TIP3   OH213652   5.285   5.577   0.919
 4592TIP3    H113653   5.235   5.559   0.998
 4592TIP3    H213654   5.313   5.491   0.888
 4593TIP3   OH213655   8.600   3.860   7.221
 4593TIP3    H113656   8.573   3.857   7.130
 4593TIP3    H213657   8.554   3.787   7.262
 4594TIP3   OH213658   1.023   3.139   4.422
 4594TIP3    H113659   0.935   3.113   4.450
 4594TIP3    H213660   1.053   3.200   4.490
 4595TIP3   OH213661   1.839   8.374   6.937
 4595TIP3    H113662   1.799   8.310   6.996
 4595TIP3    H213663   1.932   8.367   6.954
 4596TIP3   OH213664   3.174   3.815   1.535
 4596TIP3    H113665   3.231   3.884   1.501
 4596TIP3    H213666   3.233   3.745   1.561
 4597TIP3   OH213667   8.094   4.315   6.965
 4597TIP3    H113668   8.112   4.273   6.881
 4597TIP3    H213669   8.166   4.289   7.022
 4598TIP3   OH213670   8.772   5.851   0.626
 4598TIP3    H113671   8.745   5.934   0.665
 4598TIP3    H213672   8.844   5.820   0.682
 4599TIP3   OH213673   8.008   1.151   5.943
 4599TIP3    H113674   8.070   1.085   5.975
 4599TIP3    H213675   7.957   1.174   6.020
 4600TIP3   OH213676   8.758   6.454   4.775
 4600TIP3    H113677   8.666   6.463   4.752
 4600TIP3    H213678   8.799   6.413   4.698
 4601TIP3   OH213679   4.476   8.379   4.806
 4601TIP3    H113680   4.556   8.431   4.817
 4601TIP3    H213681   4.505   8.298   4.763
 4602TIP3   OH213682   4.416   6.502   5.803
 4602TIP3    H113683   4.337   6.455   5.831
 4602TIP3    H213684   4.422   6.577   5.862
 4603TIP3   OH213685   7.482   7.119   7.159
 4603TIP3    H113686   7.501   7.138   7.251
 4603TIP3    H213687   7.471   7.023   7.157
 4604TIP3   OH213688   9.302   7.894   4.735
 4604TIP3    H113689   9.277   7.986   4.737
 4604TIP3    H213690   9.218   7.847   4.740
 4605TIP3   OH213691   2.646   5.584   3.179
 4605TIP3    H113692   2.633   5.501   3.135
 4605TIP3    H213693   2.598   5.648   3.125
 4606TIP3   OH213694   5.910   8.221   3.521
 4606TIP3    H113695   5.969   8.259   3.456
 4606TIP3    H213696   5.895   8.132   3.490
 4607TIP3   OH213697   3.089   8.949   6.999
 4607TIP3    H113698   3.163   8.893   7.022
 4607TIP3    H213699   3.061   8.988   7.082
 4608TIP3   OH213700   4.943   3.422   3.687
 4608TIP3    H113701   4.878   3.466   3.633
 4608TIP3    H213702   5.025   3.431   3.638
 4609TIP3   OH213703   7.640   7.182   2.076
 4609TIP3    H113704   7.608   7.272   2.076
 4609TIP3    H213705   7.692   7.175   2.156
 4610TIP3   OH213706   1.975   6.662   1.319
 4610TIP3    H113707   1.884   6.633   1.314
 4610TIP3    H213708   1.981   6.734   1.256
 4611TIP3   OH213709   8.728   1.869   4.268
 4611TIP3    H113710   8.672   1.813   4.321
 4611TIP3    H213711   8.681   1.952   4.261
 4612TIP3   OH213712   6.067   5.579   1.673
 4612TIP3    H113713   6.116   5.570   1.755
 4612TIP3    H213714   5.990   5.523   1.684
 4613TIP3   OH213715   2.492   1.862   1.133
 4613TIP3    H113716   2.580   1.859   1.171
 4613TIP3    H213717   2.507   1.864   1.039
 4614TIP3   OH213718   0.694   1.518   3.877
 4614TIP3    H113719   0.615   1.482   3.838
 4614TIP3    H213720   0.758   1.447   3.872
 4615TIP3   OH213721   7.211   4.835   5.412
 4615TIP3    H113722   7.276   4.902   5.391
 4615TIP3    H213723   7.167   4.867   5.490
 4616TIP3   OH213724   7.525   8.702   5.335
 4616TIP3    H113725   7.439   8.744   5.337
 4616TIP3    H213726   7.580   8.756   5.390
 4617TIP3   OH213727   6.072   7.152   2.358
 4617TIP3    H113728   6.011   7.146   2.284
 4617TIP3    H213729   6.085   7.246   2.371
 4618TIP3   OH213730   0.782   6.250   1.773
 4618TIP3    H113731   0.814   6.266   1.684
 4618TIP3    H213732   0.691   6.223   1.762
 4619TIP3   OH213733   3.753   0.603   4.945
 4619TIP3    H113734   3.776   0.533   4.883
 4619TIP3    H213735   3.837   0.645   4.966
 4620TIP3   OH213736   3.490   8.077   6.787
 4620TIP3    H113737   3.425   8.103   6.852
 4620TIP3    H213738   3.561   8.140   6.798
 4621TIP3   OH213739   8.779   1.219   7.153
 4621TIP3    H113740   8.815   1.140   7.112
 4621TIP3    H213741   8.688   1.197   7.172
 4622TIP3   OH213742   1.876   4.978   4.040
 4622TIP3    H113743   1.875   5.053   3.980
 4622TIP3    H213744   1.895   4.903   3.984
 4623TIP3   OH213745   5.163   1.709   0.015
 4623TIP3    H113746   5.218   1.639   0.051
 4623TIP3    H213747   5.098   1.726   0.083
 4624TIP3   OH213748   7.911   7.254   4.424
 4624TIP3    H113749   7.836   7.282   4.476
 4624TIP3    H213750   7.874   7.194   4.359
 4625TIP3   OH213751   4.300   8.925   5.583
 4625TIP3    H113752   4.331   8.839   5.610
 4625TIP3    H213753   4.241   8.952   5.654
 4626TIP3   OH213754   1.995   6.117   2.894
 4626TIP3    H113755   2.020   6.167   2.971
 4626TIP3    H213756   2.047   6.155   2.823
 4627TIP3   OH213757   2.130   7.862   6.918
 4627TIP3    H113758   2.169   7.792   6.970
 4627TIP3    H213759   2.200   7.927   6.910
 4628TIP3   OH213760   3.377   2.982   7.144
 4628TIP3    H113761   3.373   3.043   7.218
 4628TIP3    H213762   3.434   3.025   7.081
 4629TIP3   OH213763   4.397   4.333   4.856
 4629TIP3    H113764   4.342   4.325   4.933
 4629TIP3    H213765   4.352   4.284   4.788
 4630TIP3   OH213766   9.159   1.016   3.575
 4630TIP3    H113767   9.093   1.083   3.597
 4630TIP3    H213768   9.210   1.055   3.504
 4631TIP3   OH213769   2.130   5.206   7.739
 4631TIP3    H113770   2.147   5.296   7.768
 4631TIP3    H213771   2.039   5.207   7.708
 4632TIP3   OH213772   0.408   0.341   7.562
 4632TIP3    H113773   0.461   0.387   7.497
 4632TIP3    H213774   0.321   0.336   7.524
 4633TIP3   OH213775   2.481   7.236   0.937
 4633TIP3    H113776   2.409   7.295   0.914
 4633TIP3    H213777   2.540   7.241   0.862
 4634TIP3   OH213778   6.579   2.408   4.640
 4634TIP3    H113779   6.537   2.395   4.725
 4634TIP3    H213780   6.624   2.492   4.648
 4635TIP3   OH213781   2.348   5.158   1.635
 4635TIP3    H113782   2.282   5.179   1.702
 4635TIP3    H213783   2.431   5.167   1.681
 4636TIP3   OH213784   8.655   1.950   4.589
 4636TIP3    H113785   8.583   1.925   4.647
 4636TIP3    H213786   8.613   1.998   4.517
 4637TIP3   OH213787   1.660   6.440   3.267
 4637TIP3    H113788   1.601   6.389   3.322
 4637TIP3    H213789   1.645   6.406   3.178
 4638TIP3   OH213790   9.444   3.844   2.701
 4638TIP3    H113791   9.404   3.828   2.616
 4638TIP3    H213792   9.385   3.802   2.764
 4639TIP3   OH213793   1.593   4.910   1.261
 4639TIP3    H113794   1.560   4.844   1.200
 4639TIP3    H213795   1.515   4.943   1.305
 4640TIP3   OH213796   5.737   6.675   3.472
 4640TIP3    H113797   5.791   6.638   3.401
 4640TIP3    H213798   5.678   6.736   3.427
 4641TIP3   OH213799   9.537   1.548   6.564
 4641TIP3    H113800   9.543   1.542   6.660
 4641TIP3    H213801   9.566   1.463   6.533
 4642TIP3   OH213802   1.355   7.395   5.613
 4642TIP3    H113803   1.443   7.399   5.652
 4642TIP3    H213804   1.297   7.426   5.683
 4643TIP3   OH213805   8.419   3.084   0.086
 4643TIP3    H113806   8.428   3.059  -0.006
 4643TIP3    H213807   8.447   3.007   0.135
 4644TIP3   OH213808   0.650   4.645   0.838
 4644TIP3    H113809   0.674   4.619   0.749
 4644TIP3    H213810   0.556   4.630   0.843
 4645TIP3   OH213811   4.292   1.844   5.397
 4645TIP3    H113812   4.350   1.874   5.326
 4645TIP3    H213813   4.342   1.773   5.439
 4646TIP3   OH213814   7.947   1.095   1.844
 4646TIP3    H113815   8.029   1.128   1.881
 4646TIP3    H213816   7.975   1.028   1.781
 4647TIP3   OH213817   2.997   2.556   3.134
 4647TIP3    H113818   2.951   2.473   3.145
 4647TIP3    H213819   3.086   2.538   3.163
 4648TIP3   OH213820   2.630   2.606   3.091
 4648TIP3    H113821   2.576   2.568   3.160
 4648TIP3    H213822   2.683   2.672   3.135
 4649TIP3   OH213823   7.453   6.464   4.045
 4649TIP3    H113824   7.456   6.450   3.950
 4649TIP3    H213825   7.456   6.559   4.055
 4650TIP3   OH213826   1.527   2.130   3.323
 4650TIP3    H113827   1.484   2.215   3.331
 4650TIP3    H213828   1.519   2.107   3.231
 4651TIP3   OH213829   5.822   6.696   6.138
 4651TIP3    H113830   5.767   6.696   6.217
 4651TIP3    H213831   5.900   6.647   6.163
 4652TIP3   OH213832   4.056   0.044   0.926
 4652TIP3    H113833   4.129  -0.004   0.967
 4652TIP3    H213834   4.003   0.073   1.000
 4653TIP3   OH213835   0.445   6.010   5.425
 4653TIP3    H113836   0.462   5.917   5.434
 4653TIP3    H213837   0.378   6.029   5.491
 4654TIP3   OH213838   7.844   7.032   7.386
 4654TIP3    H113839   7.935   7.024   7.415
 4654TIP3    H213840   7.846   7.103   7.322
 4655TIP3   OH213841   2.365   0.668   2.568
 4655TIP3    H113842   2.402   0.726   2.634
 4655TIP3    H213843   2.441   0.634   2.520
 4656TIP3   OH213844   3.940   5.575   1.214
 4656TIP3    H113845   4.011   5.594   1.275
 4656TIP3    H213846   3.928   5.480   1.220
 4657TIP3   OH213847   5.535   6.659   6.733
 4657TIP3    H113848   5.558   6.613   6.814
 4657TIP3    H213849   5.595   6.733   6.730
 4658TIP3   OH213850   6.248   2.652   0.364
 4658TIP3    H113851   6.162   2.688   0.343
 4658TIP3    H213852   6.245   2.637   0.459
 4659TIP3   OH213853   0.028   0.960   0.926
 4659TIP3    H113854   0.078   0.979   1.005
 4659TIP3    H213855  -0.006   0.872   0.939
 4660TIP3   OH213856   1.818   4.247   3.439
 4660TIP3    H113857   1.837   4.160   3.475
 4660TIP3    H213858   1.733   4.270   3.476
 4661TIP3   OH213859   9.365   2.186   6.437
 4661TIP3    H113860   9.281   2.219   6.405
 4661TIP3    H213861   9.377   2.230   6.521
 4662TIP3   OH213862   6.729   8.775   2.945
 4662TIP3    H113863   6.783   8.851   2.968
 4662TIP3    H213864   6.792   8.708   2.919
 4663TIP3   OH213865   8.141   7.619   6.297
 4663TIP3    H113866   8.219   7.646   6.345
 4663TIP3    H213867   8.070   7.669   6.338
 4664TIP3   OH213868   1.791   6.688   3.298
 4664TIP3    H113869   1.772   6.612   3.353
 4664TIP3    H213870   1.886   6.698   3.304
 4665TIP3   OH213871   7.458   2.959   3.102
 4665TIP3    H113872   7.486   3.042   3.065
 4665TIP3    H213873   7.495   2.958   3.190
 4666TIP3   OH213874   4.332   4.586   4.706
 4666TIP3    H113875   4.287   4.619   4.784
 4666TIP3    H213876   4.272   4.521   4.670
 4667TIP3   OH213877   0.220   7.867   5.326
 4667TIP3    H113878   0.208   7.865   5.421
 4667TIP3    H213879   0.315   7.871   5.314
 4668TIP3   OH213880   8.105   2.056   5.663
 4668TIP3    H113881   8.038   2.066   5.730
 4668TIP3    H213882   8.072   1.989   5.604
 4669TIP3   OH213883   4.234   8.284   4.549
 4669TIP3    H113884   4.219   8.308   4.640
 4669TIP3    H213885   4.181   8.346   4.499
 4670TIP3   OH213886   7.363   6.260   5.286
 4670TIP3    H113887   7.451   6.283   5.314
 4670TIP3    H213888   7.309   6.270   5.364
 4671TIP3   OH213889   3.125   4.211   2.883
 4671TIP3    H113890   3.188   4.283   2.883
 4671TIP3    H213891   3.052   4.243   2.936
 4672TIP3   OH213892   5.952   5.080   5.841
 4672TIP3    H113893   5.883   5.015   5.855
 4672TIP3    H213894   5.913   5.143   5.780
 4673TIP3   OH213895   3.408   6.637   1.144
 4673TIP3    H113896   3.313   6.651   1.142
 4673TIP3    H213897   3.425   6.604   1.232
 4674TIP3   OH213898   4.766   5.834   0.151
 4674TIP3    H113899   4.801   5.760   0.102
 4674TIP3    H213900   4.803   5.824   0.239
 4675TIP3   OH213901   5.673   5.689   0.667
 4675TIP3    H113902   5.579   5.703   0.664
 4675TIP3    H213903   5.694   5.681   0.760
 4676TIP3   OH213904   6.272   5.130   1.114
 4676TIP3    H113905   6.201   5.082   1.071
 4676TIP3    H213906   6.255   5.119   1.207
 4677TIP3   OH213907   8.128   8.752   1.435
 4677TIP3    H113908   8.039   8.777   1.409
 4677TIP3    H213909   8.161   8.700   1.362
 4678TIP3   OH213910   1.153   6.673   7.725
 4678TIP3    H113911   1.236   6.682   7.678
 4678TIP3    H213912   1.142   6.757   7.769
 4679TIP3   OH213913   6.331   3.302   1.380
 4679TIP3    H113914   6.256   3.252   1.411
 4679TIP3    H213915   6.395   3.236   1.353
 4680TIP3   OH213916   9.067   4.384   2.265
 4680TIP3    H113917   9.118   4.332   2.327
 4680TIP3    H213918   9.128   4.405   2.194
 4681TIP3   OH213919   8.822   3.807   1.299
 4681TIP3    H113920   8.830   3.787   1.392
 4681TIP3    H213921   8.749   3.868   1.293
 4682TIP3   OH213922   4.330   5.387   4.232
 4682TIP3    H113923   4.330   5.435   4.149
 4682TIP3    H213924   4.260   5.322   4.222
 4683TIP3   OH213925   8.288   8.140   2.690
 4683TIP3    H113926   8.240   8.098   2.618
 4683TIP3    H213927   8.304   8.229   2.659
 4684TIP3   OH213928   5.507   6.686   6.066
 4684TIP3    H113929   5.523   6.619   6.132
 4684TIP3    H213930   5.510   6.639   5.982
 4685TIP3   OH213931   6.252   1.597   2.765
 4685TIP3    H113932   6.223   1.681   2.730
 4685TIP3    H213933   6.195   1.581   2.840
 4686TIP3   OH213934   3.576   8.713   3.575
 4686TIP3    H113935   3.587   8.800   3.537
 4686TIP3    H213936   3.509   8.724   3.641
 4687TIP3   OH213937   2.918   3.755   1.051
 4687TIP3    H113938   2.902   3.822   1.116
 4687TIP3    H213939   2.954   3.802   0.976
 4688TIP3   OH213940   8.553   5.089   5.203
 4688TIP3    H113941   8.581   5.160   5.260
 4688TIP3    H213942   8.543   5.129   5.117
 4689TIP3   OH213943   3.532   7.512   3.062
 4689TIP3    H113944   3.556   7.545   2.976
 4689TIP3    H213945   3.527   7.590   3.118
 4690TIP3   OH213946   5.739   7.597   1.798
 4690TIP3    H113947   5.675   7.663   1.771
 4690TIP3    H213948   5.789   7.640   1.868
 4691TIP3   OH213949   2.347   7.318   5.742
 4691TIP3    H113950   2.401   7.314   5.664
 4691TIP3    H213951   2.268   7.270   5.720
 4692TIP3   OH213952   8.443   3.218   3.185
 4692TIP3    H113953   8.474   3.297   3.141
 4692TIP3    H213954   8.363   3.246   3.230
 4693TIP3   OH213955   2.891   3.083   1.128
 4693TIP3    H113956   2.974   3.065   1.084
 4693TIP3    H213957   2.898   3.037   1.212
 4694TIP3   OH213958   4.632   3.107   0.271
 4694TIP3    H113959   4.643   3.040   0.338
 4694TIP3    H213960   4.541   3.136   0.279
 4695TIP3   OH213961   5.260   8.776   4.994
 4695TIP3    H113962   5.242   8.758   5.087
 4695TIP3    H213963   5.248   8.692   4.951
 4696TIP3   OH213964   8.269   2.915   2.059
 4696TIP3    H113965   8.251   3.001   2.096
 4696TIP3    H213966   8.184   2.872   2.056
 4697TIP3   OH213967   7.896   4.548   1.989
 4697TIP3    H113968   7.939   4.622   1.947
 4697TIP3    H213969   7.841   4.586   2.057
 4698TIP3   OH213970   7.846   0.443   5.981
 4698TIP3    H113971   7.863   0.394   5.901
 4698TIP3    H213972   7.773   0.397   6.022
 4699TIP3   OH213973   1.595   2.971   4.004
 4699TIP3    H113974   1.678   2.975   4.052
 4699TIP3    H213975   1.568   3.062   3.995
 4700TIP3   OH213976   1.165   1.566   1.699
 4700TIP3    H113977   1.249   1.609   1.715
 4700TIP3    H213978   1.112   1.590   1.775
 4701TIP3   OH213979   7.094   0.776   5.884
 4701TIP3    H113980   7.095   0.772   5.788
 4701TIP3    H213981   7.004   0.754   5.908
 4702TIP3   OH213982   7.618   2.219   4.076
 4702TIP3    H113983   7.697   2.270   4.060
 4702TIP3    H213984   7.620   2.151   4.009
 4703TIP3   OH213985   0.702   8.794   6.359
 4703TIP3    H113986   0.632   8.843   6.404
 4703TIP3    H213987   0.674   8.791   6.268
 4704TIP3   OH213988   6.621   8.753   5.040
 4704TIP3    H113989   6.709   8.722   5.061
 4704TIP3    H213990   6.578   8.679   4.997
 4705TIP3   OH213991   4.831   3.189   2.118
 4705TIP3    H113992   4.819   3.272   2.164
 4705TIP3    H213993   4.749   3.176   2.070
 4706TIP3   OH213994   9.172   1.205   6.589
 4706TIP3    H113995   9.153   1.162   6.672
 4706TIP3    H213996   9.264   1.186   6.571
 4707TIP3   OH213997   6.468   0.098   6.362
 4707TIP3    H113998   6.520   0.175   6.338
 4707TIP3    H213999   6.377   0.130   6.360
 4708TIP3   OH214000   7.377   5.170   3.240
 4708TIP3    H114001   7.302   5.112   3.239
 4708TIP3    H214002   7.420   5.153   3.323
 4709TIP3   OH214003   5.381   2.755   0.122
 4709TIP3    H114004   5.326   2.682   0.150
 4709TIP3    H214005   5.388   2.744   0.027
 4710TIP3   OH214006   9.161   3.761   6.956
 4710TIP3    H114007   9.071   3.794   6.960
 4710TIP3    H214008   9.159   3.681   7.008
 4711TIP3   OH214009   5.380   1.534   4.295
 4711TIP3    H114010   5.322   1.472   4.342
 4711TIP3    H214011   5.405   1.488   4.215
 4712TIP3   OH214012   5.180   0.221   6.211
 4712TIP3    H114013   5.193   0.272   6.131
 4712TIP3    H214014   5.183   0.286   6.282
 4713TIP3   OH214015   1.247   4.576   3.728
 4713TIP3    H114016   1.166   4.605   3.685
 4713TIP3    H214017   1.281   4.508   3.670
 4714TIP3   OH214018   9.016   2.579   3.981
 4714TIP3    H114019   9.062   2.647   3.931
 4714TIP3    H214020   8.929   2.576   3.943
 4715TIP3   OH214021   8.789   4.500   6.750
 4715TIP3    H114022   8.698   4.492   6.780
 4715TIP3    H214023   8.835   4.538   6.825
 4716TIP3   OH214024   0.951   7.230   6.339
 4716TIP3    H114025   0.861   7.225   6.306
 4716TIP3    H214026   0.961   7.321   6.365
 4717TIP3   OH214027   8.656   4.655   0.524
 4717TIP3    H114028   8.623   4.632   0.437
 4717TIP3    H214029   8.747   4.681   0.509
 4718TIP3   OH214030   1.978   1.113   5.358
 4718TIP3    H114031   1.884   1.131   5.366
 4718TIP3    H214032   2.017   1.198   5.339
 4719TIP3   OH214033   6.121   6.841   5.946
 4719TIP3    H114034   6.209   6.874   5.928
 4719TIP3    H214035   6.118   6.757   5.901
 4720TIP3   OH214036   4.558   5.595   2.736
 4720TIP3    H114037   4.521   5.660   2.678
 4720TIP3    H214038   4.572   5.641   2.819
 4721TIP3   OH214039   8.812   1.604   2.042
 4721TIP3    H114040   8.855   1.518   2.039
 4721TIP3    H214041   8.787   1.621   1.951
 4722TIP3   OH214042   3.730   2.390   2.838
 4722TIP3    H114043   3.806   2.367   2.784
 4722TIP3    H214044   3.723   2.485   2.830
 4723TIP3   OH214045   5.648   7.961   0.649
 4723TIP3    H114046   5.591   8.017   0.702
 4723TIP3    H214047   5.734   7.968   0.690
 4724TIP3   OH214048   1.874   4.744   7.554
 4724TIP3    H114049   1.838   4.825   7.590
 4724TIP3    H214050   1.802   4.681   7.558
 4725TIP3   OH214051   4.665   1.670   0.493
 4725TIP3    H114052   4.640   1.641   0.581
 4725TIP3    H214053   4.687   1.763   0.504
 4726TIP3   OH214054   8.978   1.322   1.800
 4726TIP3    H114055   8.907   1.360   1.748
 4726TIP3    H214056   9.014   1.396   1.849
 4727TIP3   OH214057   8.364   0.420   4.991
 4727TIP3    H114058   8.317   0.354   5.042
 4727TIP3    H214059   8.446   0.432   5.039
 4728TIP3   OH214060   2.659   6.507   0.235
 4728TIP3    H114061   2.612   6.511   0.152
 4728TIP3    H214062   2.622   6.578   0.287
 4729TIP3   OH214063   6.883   7.351   1.590
 4729TIP3    H114064   6.831   7.380   1.515
 4729TIP3    H214065   6.874   7.421   1.654
 4730TIP3   OH214066   8.837   8.598   1.381
 4730TIP3    H114067   8.755   8.574   1.423
 4730TIP3    H214068   8.811   8.640   1.299
 4731TIP3   OH214069   2.939   3.091   3.962
 4731TIP3    H114070   3.031   3.091   3.990
 4731TIP3    H214071   2.938   3.145   3.884
 4732TIP3   OH214072   2.172   2.675   1.343
 4732TIP3    H114073   2.231   2.603   1.319
 4732TIP3    H214074   2.153   2.660   1.436
 4733TIP3   OH214075   1.985   1.564   4.010
 4733TIP3    H114076   2.042   1.489   3.995
 4733TIP3    H214077   2.003   1.623   3.936
 4734TIP3   OH214078   1.754   6.194   1.381
 4734TIP3    H114079   1.838   6.199   1.335
 4734TIP3    H214080   1.731   6.285   1.400
 4735TIP3   OH214081   1.821   1.376   6.746
 4735TIP3    H114082   1.784   1.343   6.827
 4735TIP3    H214083   1.757   1.353   6.678
 4736TIP3   OH214084   6.085   4.321   3.153
 4736TIP3    H114085   6.097   4.298   3.245
 4736TIP3    H214086   6.079   4.237   3.107
 4737TIP3   OH214087   1.410   0.188   3.126
 4737TIP3    H114088   1.379   0.264   3.077
 4737TIP3    H214089   1.422   0.120   3.059
 4738TIP3   OH214090   5.342   0.989   6.243
 4738TIP3    H114091   5.281   1.025   6.307
 4738TIP3    H214092   5.420   1.044   6.250
 4739TIP3   OH214093   5.840   7.743   1.058
 4739TIP3    H114094   5.771   7.795   1.099
 4739TIP3    H214095   5.921   7.787   1.084
 4740TIP3   OH214096   5.867   0.334   7.271
 4740TIP3    H114097   5.851   0.374   7.185
 4740TIP3    H214098   5.829   0.396   7.333
 4741TIP3   OH214099   1.774   4.334   1.776
 4741TIP3    H114100   1.686   4.369   1.789
 4741TIP3    H214101   1.789   4.341   1.682
 4742TIP3   OH214102   7.696   7.559   0.451
 4742TIP3    H114103   7.636   7.554   0.526
 4742TIP3    H214104   7.783   7.550   0.490
 4743TIP3   OH214105   7.223   7.352   1.746
 4743TIP3    H114106   7.250   7.276   1.798
 4743TIP3    H214107   7.183   7.315   1.668
 4744TIP3   OH214108   8.788   2.808   2.365
 4744TIP3    H114109   8.724   2.789   2.434
 4744TIP3    H214110   8.784   2.903   2.355
 4745TIP3   OH214111   1.155   8.237   4.231
 4745TIP3    H114112   1.227   8.233   4.295
 4745TIP3    H214113   1.178   8.171   4.166
 4746TIP3   OH214114   2.651   2.835   6.325
 4746TIP3    H114115   2.728   2.892   6.317
 4746TIP3    H214116   2.679   2.765   6.384
 4747TIP3   OH214117   9.235   3.090   1.966
 4747TIP3    H114118   9.163   3.070   2.026
 4747TIP3    H214119   9.196   3.148   1.901
 4748TIP3   OH214120   6.944   7.746   4.612
 4748TIP3    H114121   6.975   7.720   4.525
 4748TIP3    H214122   6.999   7.820   4.636
 4749TIP3   OH214123   9.344   5.707   6.946
 4749TIP3    H114124   9.359   5.801   6.945
 4749TIP3    H214125   9.288   5.692   7.022
 4750TIP3   OH214126   2.411   0.196   1.145
 4750TIP3    H114127   2.438   0.246   1.068
 4750TIP3    H214128   2.421   0.105   1.118
 4751TIP3   OH214129   6.963   4.205   2.478
 4751TIP3    H114130   6.962   4.244   2.566
 4751TIP3    H214131   6.912   4.125   2.487
 4752TIP3   OH214132   5.366   7.870   5.195
 4752TIP3    H114133   5.292   7.914   5.237
 4752TIP3    H214134   5.347   7.876   5.102
 4753TIP3   OH214135   8.800   8.894   3.152
 4753TIP3    H114136   8.721   8.947   3.151
 4753TIP3    H214137   8.769   8.805   3.170
 4754TIP3   OH214138   5.360   5.900   7.565
 4754TIP3    H114139   5.294   5.838   7.535
 4754TIP3    H214140   5.444   5.860   7.542
 4755TIP3   OH214141   9.300   0.366   3.529
 4755TIP3    H114142   9.339   0.426   3.465
 4755TIP3    H214143   9.226   0.327   3.483
 4756TIP3   OH214144   7.692   5.421   0.374
 4756TIP3    H114145   7.634   5.356   0.415
 4756TIP3    H214146   7.731   5.469   0.447
 4757TIP3   OH214147   4.610   8.785   4.478
 4757TIP3    H114148   4.681   8.848   4.489
 4757TIP3    H214149   4.541   8.815   4.538
 4758TIP3   OH214150   3.908   3.425   4.856
 4758TIP3    H114151   3.901   3.419   4.951
 4758TIP3    H214152   3.936   3.338   4.828
 4759TIP3   OH214153   1.041   4.535   1.337
 4759TIP3    H114154   1.045   4.449   1.377
 4759TIP3    H214155   1.026   4.595   1.410
 4760TIP3   OH214156   0.882   7.125   4.563
 4760TIP3    H114157   0.912   7.200   4.615
 4760TIP3    H214158   0.898   7.049   4.619
 4761TIP3   OH214159   9.101   0.550   2.894
 4761TIP3    H114160   9.047   0.495   2.952
 4761TIP3    H214161   9.055   0.634   2.892
 4762TIP3   OH214162   1.094   6.397   3.492
 4762TIP3    H114163   1.054   6.313   3.467
 4762TIP3    H214164   1.032   6.463   3.462
 4763TIP3   OH214165   8.745   0.820   2.349
 4763TIP3    H114166   8.724   0.880   2.278
 4763TIP3    H214167   8.835   0.840   2.373
 4764TIP3   OH214168   4.301   3.222   0.762
 4764TIP3    H114169   4.324   3.281   0.690
 4764TIP3    H214170   4.207   3.232   0.772
 4765TIP3   OH214171   1.482   3.536   7.201
 4765TIP3    H114172   1.577   3.533   7.188
 4765TIP3    H214173   1.454   3.617   7.158
 4766TIP3   OH214174   8.428   5.362   0.644
 4766TIP3    H114175   8.346   5.400   0.615
 4766TIP3    H214176   8.464   5.320   0.565
 4767TIP3   OH214177   2.657   8.859   4.834
 4767TIP3    H114178   2.574   8.841   4.791
 4767TIP3    H214179   2.640   8.935   4.889
 4768TIP3   OH214180   3.035   5.705   0.667
 4768TIP3    H114181   3.079   5.790   0.674
 4768TIP3    H214182   2.950   5.719   0.711
 4769TIP3   OH214183   9.517   3.286   0.649
 4769TIP3    H114184   9.438   3.237   0.625
 4769TIP3    H214185   9.486   3.349   0.714
 4770TIP3   OH214186   9.390   1.700   5.694
 4770TIP3    H114187   9.464   1.760   5.686
 4770TIP3    H214188   9.338   1.715   5.614
 4771TIP3   OH214189   8.362   0.022   5.250
 4771TIP3    H114190   8.288   0.045   5.195
 4771TIP3    H214191   8.388   0.104   5.292
 4772TIP3   OH214192   2.091   4.269   7.805
 4772TIP3    H114193   2.158   4.334   7.823
 4772TIP3    H214194   2.010   4.319   7.795
 4773TIP3   OH214195   1.957   1.514   4.968
 4773TIP3    H114196   1.985   1.462   5.043
 4773TIP3    H214197   1.938   1.449   4.900
 4774TIP3   OH214198   4.839   2.409   6.378
 4774TIP3    H114199   4.873   2.334   6.331
 4774TIP3    H214200   4.744   2.396   6.381
 4775TIP3   OH214201   5.923   6.039   2.535
 4775TIP3    H114202   5.955   6.036   2.445
 4775TIP3    H214203   5.962   5.962   2.577
 4776TIP3   OH214204   3.512   4.956   4.452
 4776TIP3    H114205   3.485   5.045   4.475
 4776TIP3    H214206   3.439   4.901   4.479
 4777TIP3   OH214207   9.163   8.326   2.260
 4777TIP3    H114208   9.250   8.290   2.243
 4777TIP3    H214209   9.119   8.258   2.311
 4778TIP3   OH214210   4.350   7.377   7.097
 4778TIP3    H114211   4.392   7.344   7.018
 4778TIP3    H214212   4.336   7.470   7.081
 4779TIP3   OH214213   2.695   3.693   0.744
 4779TIP3    H114214   2.749   3.724   0.672
 4779TIP3    H214215   2.610   3.675   0.705
 4780TIP3   OH214216   0.451   7.704   6.880
 4780TIP3    H114217   0.527   7.686   6.936
 4780TIP3    H214218   0.462   7.796   6.855
 4781TIP3   OH214219   0.502   3.585   2.290
 4781TIP3    H114220   0.453   3.660   2.255
 4781TIP3    H214221   0.445   3.510   2.276
 4782TIP3   OH214222   1.245   4.221   5.728
 4782TIP3    H114223   1.315   4.186   5.783
 4782TIP3    H214224   1.211   4.145   5.681
 4783TIP3   OH214225   5.765   3.635   6.597
 4783TIP3    H114226   5.750   3.611   6.506
 4783TIP3    H214227   5.836   3.578   6.626
 4784TIP3   OH214228   0.400   7.539   5.337
 4784TIP3    H114229   0.417   7.465   5.279
 4784TIP3    H214230   0.312   7.524   5.370
 4785TIP3   OH214231   3.135   5.660   2.333
 4785TIP3    H114232   3.207   5.646   2.394
 4785TIP3    H214233   3.127   5.756   2.327
 4786TIP3   OH214234   5.070   2.467   7.466
 4786TIP3    H114235   5.088   2.437   7.376
 4786TIP3    H214236   5.030   2.391   7.508
 4787TIP3   OH214237   9.032   4.166   2.907
 4787TIP3    H114238   8.964   4.113   2.867
 4787TIP3    H214239   9.113   4.139   2.863
 4788TIP3   OH214240   4.022   7.178   6.641
 4788TIP3    H114241   4.074   7.253   6.613
 4788TIP3    H214242   3.985   7.206   6.725
 4789TIP3   OH214243   1.733   0.317   3.687
 4789TIP3    H114244   1.740   0.298   3.593
 4789TIP3    H214245   1.766   0.406   3.696
 4790TIP3   OH214246   3.581   6.846   0.338
 4790TIP3    H114247   3.610   6.801   0.418
 4790TIP3    H214248   3.563   6.936   0.367
 4791TIP3   OH214249   5.194   5.714   7.729
 4791TIP3    H114250   5.155   5.675   7.650
 4791TIP3    H214251   5.286   5.686   7.726
 4792TIP3   OH214252   5.456   5.487   2.819
 4792TIP3    H114253   5.393   5.434   2.868
 4792TIP3    H214254   5.516   5.520   2.886
 4793TIP3   OH214255   0.907   4.955   5.650
 4793TIP3    H114256   0.907   4.880   5.710
 4793TIP3    H214257   0.870   4.920   5.568
 4794TIP3   OH214258   3.775   6.535   5.366
 4794TIP3    H114259   3.715   6.596   5.322
 4794TIP3    H214260   3.720   6.460   5.388
 4795TIP3   OH214261   6.914   4.394   5.492
 4795TIP3    H114262   6.894   4.313   5.447
 4795TIP3    H214263   7.002   4.418   5.461
 4796TIP3   OH214264   7.425   5.599   3.555
 4796TIP3    H114265   7.504   5.652   3.539
 4796TIP3    H214266   7.447   5.514   3.518
 4797TIP3   OH214267   7.779   0.621   5.215
 4797TIP3    H114268   7.763   0.666   5.132
 4797TIP3    H214269   7.806   0.533   5.190
 4798TIP3   OH214270   0.032   7.330   7.567
 4798TIP3    H114271   0.090   7.276   7.513
 4798TIP3    H214272  -0.054   7.324   7.525
 4799TIP3   OH214273   8.669   4.146   3.260
 4799TIP3    H114274   8.725   4.123   3.334
 4799TIP3    H214275   8.588   4.179   3.301
 4800TIP3   OH214276   3.288   6.120   0.350
 4800TIP3    H114277   3.279   6.032   0.385
 4800TIP3    H214278   3.377   6.147   0.375
 4801TIP3   OH214279   0.108   9.003   0.089
 4801TIP3    H114280   0.123   8.922   0.137
 4801TIP3    H214281   0.164   8.997   0.011
 4802TIP3   OH214282   1.176   4.727   5.051
 4802TIP3    H114283   1.260   4.706   5.092
 4802TIP3    H214284   1.148   4.808   5.093
 4803TIP3   OH214285   4.896   2.810   3.514
 4803TIP3    H114286   4.802   2.801   3.528
 4803TIP3    H214287   4.927   2.858   3.591
 4804TIP3   OH214288   8.164   2.532   2.393
 4804TIP3    H114289   8.072   2.540   2.371
 4804TIP3    H214290   8.200   2.472   2.328
 4805TIP3   OH214291   7.178   5.709   4.432
 4805TIP3    H114292   7.136   5.675   4.353
 4805TIP3    H214293   7.259   5.659   4.439
 4806TIP3   OH214294   3.298   5.725   5.571
 4806TIP3    H114295   3.384   5.683   5.563
 4806TIP3    H214296   3.259   5.716   5.484
 4807TIP3   OH214297   2.654   2.646   7.483
 4807TIP3    H114298   2.601   2.690   7.549
 4807TIP3    H214299   2.682   2.716   7.424
 4808TIP3   OH214300   2.680   8.417   0.286
 4808TIP3    H114301   2.697   8.323   0.278
 4808TIP3    H214302   2.615   8.436   0.218
 4809TIP3   OH214303   8.018   3.447   0.376
 4809TIP3    H114304   8.093   3.505   0.380
 4809TIP3    H214305   8.055   3.360   0.359
 4810TIP3   OH214306   7.881   0.410   3.115
 4810TIP3    H114307   7.959   0.421   3.170
 4810TIP3    H214308   7.830   0.342   3.159
 4811TIP3   OH214309   0.712   1.412   4.467
 4811TIP3    H114310   0.729   1.457   4.384
 4811TIP3    H214311   0.619   1.426   4.483
 4812TIP3   OH214312   6.979   5.796   3.972
 4812TIP3    H114313   6.991   5.811   3.878
 4812TIP3    H214314   6.885   5.800   3.986
 4813TIP3   OH214315   8.993   5.723   6.240
 4813TIP3    H114316   9.012   5.694   6.329
 4813TIP3    H214317   8.950   5.807   6.251
 4814TIP3   OH214318   8.639   5.125   3.136
 4814TIP3    H114319   8.560   5.073   3.119
 4814TIP3    H214320   8.691   5.071   3.195
 4815TIP3   OH214321   7.301   4.412   0.995
 4815TIP3    H114322   7.372   4.454   1.043
 4815TIP3    H214323   7.269   4.480   0.935
 4816TIP3   OH214324   2.179   0.784   1.440
 4816TIP3    H114325   2.133   0.703   1.462
 4816TIP3    H214326   2.110   0.844   1.414
 4817TIP3   OH214327   4.303   4.034   2.782
 4817TIP3    H114328   4.230   4.026   2.721
 4817TIP3    H214329   4.346   4.116   2.756
 4818TIP3   OH214330   5.381   5.253   2.445
 4818TIP3    H114331   5.353   5.206   2.524
 4818TIP3    H214332   5.412   5.337   2.476
 4819TIP3   OH214333   2.351   0.842   0.982
 4819TIP3    H114334   2.334   0.909   0.917
 4819TIP3    H214335   2.268   0.796   0.991
 4820TIP3   OH214336   5.182   6.004   5.115
 4820TIP3    H114337   5.258   5.959   5.150
 4820TIP3    H214338   5.213   6.092   5.094
 4821TIP3   OH214339   0.073   2.797   1.972
 4821TIP3    H114340   0.047   2.714   1.934
 4821TIP3    H214341   0.014   2.861   1.932
 4822TIP3   OH214342   9.036   4.651   3.693
 4822TIP3    H114343   9.059   4.608   3.611
 4822TIP3    H214344   9.094   4.727   3.696
 4823TIP3   OH214345   8.105   0.676   3.176
 4823TIP3    H114346   8.070   0.602   3.225
 4823TIP3    H214347   8.132   0.739   3.244
 4824TIP3   OH214348   5.374   1.071   1.426
 4824TIP3    H114349   5.393   1.158   1.462
 4824TIP3    H214350   5.424   1.011   1.482
 4825TIP3   OH214351   9.205   4.345   3.035
 4825TIP3    H114352   9.182   4.411   2.969
 4825TIP3    H214353   9.162   4.265   3.005
 4826TIP3   OH214354   8.511   6.897   3.292
 4826TIP3    H114355   8.452   6.972   3.296
 4826TIP3    H214356   8.530   6.875   3.383
 4827TIP3   OH214357   8.019   1.524   3.159
 4827TIP3    H114358   8.087   1.523   3.092
 4827TIP3    H214359   8.017   1.435   3.193
 4828TIP3   OH214360   3.535   8.332   7.175
 4828TIP3    H114361   3.538   8.419   7.215
 4828TIP3    H214362   3.505   8.274   7.244
 4829TIP3   OH214363   5.726   0.171   4.554
 4829TIP3    H114364   5.710   0.261   4.582
 4829TIP3    H214365   5.817   0.171   4.524
 4830TIP3   OH214366   8.658   2.089   6.112
 4830TIP3    H114367   8.607   2.026   6.061
 4830TIP3    H214368   8.728   2.036   6.152
 4831TIP3   OH214369   5.992   4.110   0.126
 4831TIP3    H114370   5.994   4.017   0.104
 4831TIP3    H214371   6.062   4.121   0.191
 4832TIP3   OH214372   9.271   5.080   1.545
 4832TIP3    H114373   9.303   4.990   1.553
 4832TIP3    H214374   9.226   5.082   1.460
 4833TIP3   OH214375   0.294   2.666   0.303
 4833TIP3    H114376   0.358   2.678   0.374
 4833TIP3    H214377   0.210   2.656   0.348
 4834TIP3   OH214378   3.581   2.263   0.047
 4834TIP3    H114379   3.596   2.307  -0.037
 4834TIP3    H214380   3.658   2.287   0.099
 4835TIP3   OH214381   2.657   2.072   0.018
 4835TIP3    H114382   2.598   2.002  -0.009
 4835TIP3    H214383   2.745   2.036   0.004
 4836TIP3   OH214384   8.885   1.561   7.369
 4836TIP3    H114385   8.833   1.636   7.397
 4836TIP3    H214386   8.906   1.579   7.277
 4837TIP3   OH214387   1.221   4.208   3.279
 4837TIP3    H114388   1.171   4.253   3.211
 4837TIP3    H214389   1.157   4.154   3.325
 4838TIP3   OH214390   7.358   3.139   0.080
 4838TIP3    H114391   7.341   3.219   0.031
 4838TIP3    H214392   7.275   3.121   0.125
 4839TIP3   OH214393   4.851   1.425   1.185
 4839TIP3    H114394   4.916   1.406   1.252
 4839TIP3    H214395   4.833   1.341   1.144
 4840TIP3   OH214396   9.451   7.495   0.828
 4840TIP3    H114397   9.401   7.427   0.871
 4840TIP3    H214398   9.450   7.569   0.889
 4841TIP3   OH214399   8.946   2.331   0.263
 4841TIP3    H114400   8.980   2.241   0.267
 4841TIP3    H214401   8.976   2.365   0.179
 4842TIP3   OH214402   9.203   6.018   3.393
 4842TIP3    H114403   9.194   6.098   3.342
 4842TIP3    H214404   9.127   5.965   3.368
 4843TIP3   OH214405   9.271   8.299   1.420
 4843TIP3    H114406   9.321   8.299   1.338
 4843TIP3    H214407   9.335   8.327   1.486
 4844TIP3   OH214408   3.581   3.924   0.018
 4844TIP3    H114409   3.639   3.924  -0.058
 4844TIP3    H214410   3.591   4.012   0.055
 4845TIP3   OH214411   3.042   7.019   4.168
 4845TIP3    H114412   3.059   6.981   4.082
 4845TIP3    H214413   2.979   6.960   4.208
 4846TIP3   OH214414   2.535   4.818   1.505
 4846TIP3    H114415   2.629   4.800   1.513
 4846TIP3    H214416   2.522   4.830   1.411
 4847TIP3   OH214417   1.468   4.223   4.262
 4847TIP3    H114418   1.493   4.204   4.352
 4847TIP3    H214419   1.376   4.248   4.267
 4848TIP3   OH214420   3.121   0.994   1.616
 4848TIP3    H114421   3.121   0.898   1.610
 4848TIP3    H214422   3.053   1.014   1.680
 4849TIP3   OH214423   6.386   8.603   5.827
 4849TIP3    H114424   6.435   8.680   5.854
 4849TIP3    H214425   6.356   8.564   5.909
 4850TIP3   OH214426   1.264   4.971   3.522
 4850TIP3    H114427   1.286   4.947   3.432
 4850TIP3    H214428   1.298   4.899   3.575
 4851TIP3   OH214429   7.992   2.975   5.788
 4851TIP3    H114430   7.917   2.924   5.757
 4851TIP3    H214431   8.013   2.936   5.874
 4852TIP3   OH214432   3.436   3.561   4.578
 4852TIP3    H114433   3.464   3.484   4.528
 4852TIP3    H214434   3.420   3.527   4.666
 4853TIP3   OH214435   6.844   7.933   6.951
 4853TIP3    H114436   6.927   7.886   6.942
 4853TIP3    H214437   6.781   7.866   6.978
 4854TIP3   OH214438   6.660   4.423   4.168
 4854TIP3    H114439   6.657   4.332   4.199
 4854TIP3    H214440   6.636   4.475   4.245
 4855TIP3   OH214441   6.121   7.666   0.799
 4855TIP3    H114442   6.129   7.748   0.752
 4855TIP3    H214443   6.027   7.649   0.803
 4856TIP3   OH214444   1.619   3.883   7.311
 4856TIP3    H114445   1.695   3.904   7.365
 4856TIP3    H214446   1.568   3.822   7.363
 4857TIP3   OH214447   6.119   3.856   1.461
 4857TIP3    H114448   6.181   3.905   1.407
 4857TIP3    H214449   6.109   3.908   1.540
 4858TIP3   OH214450   2.859   3.518   5.423
 4858TIP3    H114451   2.927   3.453   5.408
 4858TIP3    H214452   2.906   3.600   5.435
 4859TIP3   OH214453   7.116   0.790   0.981
 4859TIP3    H114454   7.127   0.723   0.915
 4859TIP3    H214455   7.057   0.854   0.941
 4860TIP3   OH214456   2.404   6.536   0.898
 4860TIP3    H114457   2.375   6.456   0.854
 4860TIP3    H214458   2.353   6.606   0.859
 4861TIP3   OH214459   6.729   6.437   4.976
 4861TIP3    H114460   6.769   6.379   4.912
 4861TIP3    H214461   6.678   6.499   4.923
 4862TIP3   OH214462   2.545   4.042   6.605
 4862TIP3    H114463   2.500   4.108   6.551
 4862TIP3    H214464   2.523   3.959   6.564
 4863TIP3   OH214465   6.141   7.852   0.599
 4863TIP3    H114466   6.081   7.920   0.567
 4863TIP3    H214467   6.172   7.808   0.520
 4864TIP3   OH214468   6.351   4.848   7.725
 4864TIP3    H114469   6.370   4.846   7.819
 4864TIP3    H214470   6.352   4.941   7.703
 4865TIP3   OH214471   7.081   6.943   1.667
 4865TIP3    H114472   7.084   7.037   1.651
 4865TIP3    H214473   6.989   6.925   1.686
 4866TIP3   OH214474   4.453   0.383   3.487
 4866TIP3    H114475   4.468   0.467   3.442
 4866TIP3    H214476   4.486   0.317   3.426
 4867TIP3   OH214477   6.594   3.662   5.533
 4867TIP3    H114478   6.501   3.668   5.555
 4867TIP3    H214479   6.601   3.582   5.481
 4868TIP3   OH214480   8.393   2.352   4.655
 4868TIP3    H114481   8.476   2.367   4.610
 4868TIP3    H214482   8.364   2.439   4.682
 4869TIP3   OH214483   2.026   8.632   0.076
 4869TIP3    H114484   1.974   8.699   0.031
 4869TIP3    H214485   2.002   8.641   0.168
 4870TIP3   OH214486   2.136   7.231   6.790
 4870TIP3    H114487   2.183   7.297   6.739
 4870TIP3    H214488   2.204   7.170   6.818
 4871TIP3   OH214489   6.374   0.345   6.561
 4871TIP3    H114490   6.454   0.292   6.565
 4871TIP3    H214491   6.328   0.313   6.483
 4872TIP3   OH214492   6.292   0.967   1.003
 4872TIP3    H114493   6.214   0.987   1.055
 4872TIP3    H214494   6.264   0.899   0.942
 4873TIP3   OH214495   2.185   3.997   2.852
 4873TIP3    H114496   2.270   3.996   2.808
 4873TIP3    H214497   2.189   4.072   2.911
 4874TIP3   OH214498   8.496   5.279   7.063
 4874TIP3    H114499   8.590   5.274   7.075
 4874TIP3    H214500   8.468   5.347   7.125
 4875TIP3   OH214501   0.344   5.141   0.324
 4875TIP3    H114502   0.417   5.116   0.267
 4875TIP3    H214503   0.351   5.083   0.400
 4876TIP3   OH214504   3.539   1.467   3.636
 4876TIP3    H114505   3.553   1.386   3.587
 4876TIP3    H214506   3.452   1.458   3.674
 4877TIP3   OH214507   9.541   6.676   6.295
 4877TIP3    H114508   9.617   6.729   6.318
 4877TIP3    H214509   9.544   6.602   6.356
 4878TIP3   OH214510   8.394   0.397   3.787
 4878TIP3    H114511   8.374   0.352   3.869
 4878TIP3    H214512   8.475   0.355   3.757
 4879TIP3   OH214513   8.028   6.372   2.659
 4879TIP3    H114514   8.097   6.333   2.713
 4879TIP3    H214515   7.957   6.391   2.721
 4880TIP3   OH214516   2.097   6.095   2.121
 4880TIP3    H114517   2.174   6.041   2.135
 4880TIP3    H214518   2.025   6.044   2.159
 4881TIP3   OH214519   7.374   7.712   7.579
 4881TIP3    H114520   7.430   7.708   7.656
 4881TIP3    H214521   7.325   7.794   7.588
 4882TIP3   OH214522   9.155   5.367   1.969
 4882TIP3    H114523   9.176   5.281   1.933
 4882TIP3    H214524   9.199   5.430   1.911
 4883TIP3   OH214525   4.226   7.285   4.535
 4883TIP3    H114526   4.307   7.303   4.581
 4883TIP3    H214527   4.168   7.250   4.602
 4884TIP3   OH214528   5.499   8.357   4.195
 4884TIP3    H114529   5.562   8.395   4.257
 4884TIP3    H214530   5.435   8.311   4.250
 4885TIP3   OH214531   5.359   2.744   4.584
 4885TIP3    H114532   5.418   2.797   4.532
 4885TIP3    H214533   5.379   2.766   4.675
 4886TIP3   OH214534   5.151   2.099   7.129
 4886TIP3    H114535   5.065   2.136   7.150
 4886TIP3    H214536   5.158   2.107   7.034
 4887TIP3   OH214537   5.631   2.870   7.728
 4887TIP3    H114538   5.644   2.874   7.633
 4887TIP3    H214539   5.633   2.962   7.756
 4888TIP3   OH214540   4.464   4.906   5.968
 4888TIP3    H114541   4.554   4.937   5.978
 4888TIP3    H214542   4.472   4.813   5.947
 4889TIP3   OH214543   6.423   1.691   7.772
 4889TIP3    H114544   6.378   1.744   7.706
 4889TIP3    H214545   6.352   1.645   7.817
 4890TIP3   OH214546   6.262   6.169   2.251
 4890TIP3    H114547   6.330   6.154   2.316
 4890TIP3    H214548   6.306   6.219   2.182
 4891TIP3   OH214549   3.775   6.200   5.890
 4891TIP3    H114550   3.747   6.195   5.799
 4891TIP3    H214551   3.765   6.111   5.923
 4892TIP3   OH214552   7.094   3.794   4.135
 4892TIP3    H114553   7.122   3.858   4.201
 4892TIP3    H214554   7.115   3.835   4.051
 4893TIP3   OH214555   6.938   3.124   7.682
 4893TIP3    H114556   7.005   3.175   7.636
 4893TIP3    H214557   6.948   3.150   7.774
 4894TIP3   OH214558   3.006   6.358   0.098
 4894TIP3    H114559   3.090   6.364   0.145
 4894TIP3    H214560   3.009   6.273   0.055
 4895TIP3   OH214561   5.208   2.608   2.084
 4895TIP3    H114562   5.210   2.703   2.099
 4895TIP3    H214563   5.254   2.595   2.002
 4896TIP3   OH214564   3.035   4.028   3.877
 4896TIP3    H114565   3.092   4.032   3.954
 4896TIP3    H214566   3.016   3.935   3.867
 4897TIP3   OH214567   9.093   4.937   4.813
 4897TIP3    H114568   9.060   4.966   4.898
 4897TIP3    H214569   9.142   5.011   4.779
 4898TIP3   OH214570   0.569   5.029   1.740
 4898TIP3    H114571   0.541   4.981   1.818
 4898TIP3    H214572   0.490   5.077   1.713
 4899TIP3   OH214573   7.337   3.574   5.662
 4899TIP3    H114574   7.386   3.637   5.714
 4899TIP3    H214575   7.296   3.516   5.727
 4900TIP3   OH214576   5.085   8.978   3.267
 4900TIP3    H114577   5.167   8.940   3.298
 4900TIP3    H214578   5.021   8.907   3.273
 4901TIP3   OH214579   3.082   3.297   7.537
 4901TIP3    H114580   3.054   3.376   7.489
 4901TIP3    H214581   3.175   3.312   7.555
 4902TIP3   OH214582   7.808   8.086   5.798
 4902TIP3    H114583   7.808   8.032   5.877
 4902TIP3    H214584   7.876   8.048   5.743
 4903TIP3   OH214585   5.265   8.859   4.610
 4903TIP3    H114586   5.358   8.881   4.608
 4903TIP3    H214587   5.227   8.907   4.537
 4904TIP3   OH214588   3.232   0.150   1.046
 4904TIP3    H114589   3.235   0.218   0.979
 4904TIP3    H214590   3.140   0.142   1.069
 4905TIP3   OH214591   5.037   6.344   7.771
 4905TIP3    H114592   4.955   6.388   7.795
 4905TIP3    H214593   5.010   6.254   7.749
 4906TIP3   OH214594   8.545   6.499   4.156
 4906TIP3    H114595   8.531   6.528   4.066
 4906TIP3    H214596   8.457   6.476   4.188
 4907TIP3   OH214597   5.827   6.971   0.530
 4907TIP3    H114598   5.776   6.902   0.572
 4907TIP3    H214599   5.795   6.975   0.440
 4908TIP3   OH214600   4.367   0.751   7.661
 4908TIP3    H114601   4.391   0.790   7.746
 4908TIP3    H214602   4.450   0.746   7.614
 4909TIP3   OH214603   3.601   7.053   7.189
 4909TIP3    H114604   3.608   7.011   7.275
 4909TIP3    H214605   3.532   7.119   7.200
 4910TIP3   OH214606   6.829   6.198   4.071
 4910TIP3    H114607   6.781   6.253   4.133
 4910TIP3    H214608   6.779   6.204   3.990
 4911TIP3   OH214609   8.740   0.959   3.555
 4911TIP3    H114610   8.652   0.971   3.520
 4911TIP3    H214611   8.769   1.047   3.580
 4912TIP3   OH214612   2.491   6.271   7.589
 4912TIP3    H114613   2.569   6.280   7.534
 4912TIP3    H214614   2.518   6.210   7.658
 4913TIP3   OH214615   3.103   1.737   6.073
 4913TIP3    H114616   3.047   1.680   6.127
 4913TIP3    H214617   3.186   1.741   6.120
 4914TIP3   OH214618   2.558   2.537   0.514
 4914TIP3    H114619   2.523   2.454   0.483
 4914TIP3    H214620   2.499   2.603   0.478
 4915TIP3   OH214621   1.700   1.328   7.006
 4915TIP3    H114622   1.731   1.362   7.090
 4915TIP3    H214623   1.615   1.370   6.993
 4916TIP3   OH214624   0.110   4.810   5.005
 4916TIP3    H114625   0.137   4.844   5.091
 4916TIP3    H214626   0.189   4.769   4.970
 4917TIP3   OH214627   6.547   6.073   4.655
 4917TIP3    H114628   6.559   6.010   4.726
 4917TIP3    H214629   6.582   6.029   4.578
 4918TIP3   OH214630   7.651   0.872   4.579
 4918TIP3    H114631   7.588   0.860   4.650
 4918TIP3    H214632   7.686   0.960   4.593
 4919TIP3   OH214633   1.796   2.468   1.531
 4919TIP3    H114634   1.746   2.548   1.546
 4919TIP3    H214635   1.876   2.497   1.487
 4920TIP3   OH214636   7.487   2.945   3.793
 4920TIP3    H114637   7.513   3.032   3.825
 4920TIP3    H214638   7.459   2.960   3.703
 4921TIP3   OH214639   8.447   8.300   1.926
 4921TIP3    H114640   8.453   8.384   1.972
 4921TIP3    H214641   8.354   8.279   1.926
 4922TIP3   OH214642   2.573   7.325   2.216
 4922TIP3    H114643   2.634   7.393   2.186
 4922TIP3    H214644   2.560   7.345   2.308
 4923TIP3   OH214645   0.352   8.185   3.288
 4923TIP3    H114646   0.367   8.245   3.215
 4923TIP3    H214647   0.294   8.118   3.252
 4924TIP3   OH214648   3.472   3.370   6.082
 4924TIP3    H114649   3.391   3.420   6.088
 4924TIP3    H214650   3.477   3.344   5.989
 4925TIP3   OH214651   0.658   7.644   2.910
 4925TIP3    H114652   0.699   7.558   2.921
 4925TIP3    H214653   0.566   7.625   2.891
 4926TIP3   OH214654   7.615   7.565   1.813
 4926TIP3    H114655   7.640   7.526   1.896
 4926TIP3    H214656   7.606   7.491   1.753
 4927TIP3   OH214657   7.287   6.323   1.455
 4927TIP3    H114658   7.380   6.347   1.454
 4927TIP3    H214659   7.262   6.325   1.548
 4928TIP3   OH214660   9.080   5.923   3.986
 4928TIP3    H114661   9.085   5.838   3.942
 4928TIP3    H214662   9.095   5.987   3.916
 4929TIP3   OH214663   5.385   1.102   0.517
 4929TIP3    H114664   5.319   1.097   0.586
 4929TIP3    H214665   5.450   1.164   0.550
 4930TIP3   OH214666   5.626   3.512   3.603
 4930TIP3    H114667   5.576   3.488   3.682
 4930TIP3    H214668   5.629   3.432   3.551
 4931TIP3   OH214669   5.730   0.581   2.206
 4931TIP3    H114670   5.776   0.665   2.212
 4931TIP3    H214671   5.779   0.533   2.139
 4932TIP3   OH214672   6.781   5.634   2.400
 4932TIP3    H114673   6.815   5.723   2.395
 4932TIP3    H214674   6.730   5.631   2.481
 4933TIP3   OH214675   3.821   7.213   7.121
 4933TIP3    H114676   3.748   7.165   7.161
 4933TIP3    H214677   3.856   7.266   7.193
 4934TIP3   OH214678   9.064   5.916   1.523
 4934TIP3    H114679   9.144   5.956   1.556
 4934TIP3    H214680   9.061   5.829   1.564
 4935TIP3   OH214681   7.672   6.047   2.771
 4935TIP3    H114682   7.674   5.972   2.711
 4935TIP3    H214683   7.587   6.041   2.814
 4936TIP3   OH214684   5.508   7.442   4.760
 4936TIP3    H114685   5.489   7.461   4.669
 4936TIP3    H214686   5.600   7.417   4.761
 4937TIP3   OH214687   3.748   3.996   2.721
 4937TIP3    H114688   3.675   4.057   2.730
 4937TIP3    H214689   3.755   3.980   2.627
 4938TIP3   OH214690   8.844   6.186   2.889
 4938TIP3    H114691   8.921   6.130   2.874
 4938TIP3    H214692   8.846   6.204   2.983
 4939TIP3   OH214693   0.801   4.242   4.781
 4939TIP3    H114694   0.719   4.246   4.732
 4939TIP3    H214695   0.854   4.177   4.734
 4940TIP3   OH214696   0.311   2.238   3.222
 4940TIP3    H114697   0.219   2.262   3.224
 4940TIP3    H214698   0.358   2.322   3.223
 4941TIP3   OH214699   4.533   1.069   2.762
 4941TIP3    H114700   4.530   1.029   2.675
 4941TIP3    H214701   4.536   0.994   2.823
 4942TIP3   OH214702   4.138   8.788   6.347
 4942TIP3    H114703   4.200   8.830   6.407
 4942TIP3    H214704   4.111   8.708   6.392
 4943TIP3   OH214705   0.134   5.989   2.587
 4943TIP3    H114706   0.070   5.922   2.612
 4943TIP3    H214707   0.181   5.950   2.513
 4944TIP3   OH214708   1.658   3.977   3.036
 4944TIP3    H114709   1.627   3.897   2.994
 4944TIP3    H214710   1.749   3.959   3.060
 4945TIP3   OH214711   1.421   6.260   0.813
 4945TIP3    H114712   1.506   6.303   0.801
 4945TIP3    H214713   1.440   6.187   0.872
 4946TIP3   OH214714   8.135   4.115   4.159
 4946TIP3    H114715   8.146   4.195   4.108
 4946TIP3    H214716   8.123   4.047   4.093
 4947TIP3   OH214717   6.583   2.088   4.964
 4947TIP3    H114718   6.566   2.049   4.878
 4947TIP3    H214719   6.663   2.140   4.952
 4948TIP3   OH214720   4.722   4.842   5.387
 4948TIP3    H114721   4.753   4.927   5.422
 4948TIP3    H214722   4.667   4.865   5.313
 4949TIP3   OH214723   8.726   3.312   3.871
 4949TIP3    H114724   8.689   3.225   3.856
 4949TIP3    H214725   8.733   3.351   3.784
 4950TIP3   OH214726   3.405   0.608   7.383
 4950TIP3    H114727   3.399   0.513   7.388
 4950TIP3    H214728   3.499   0.626   7.374
 4951TIP3   OH214729   2.472   5.037   5.002
 4951TIP3    H114730   2.447   5.022   4.910
 4951TIP3    H214731   2.415   4.979   5.052
 4952TIP3   OH214732   2.751   6.140   6.061
 4952TIP3    H114733   2.793   6.193   5.993
 4952TIP3    H214734   2.659   6.137   6.035
 4953TIP3   OH214735   8.421   7.899   3.643
 4953TIP3    H114736   8.367   7.975   3.665
 4953TIP3    H214737   8.477   7.929   3.571
 4954TIP3   OH214738   7.636   6.034   1.310
 4954TIP3    H114739   7.717   6.067   1.349
 4954TIP3    H214740   7.630   5.944   1.343
 4955TIP3   OH214741   5.042   4.184   0.740
 4955TIP3    H114742   4.971   4.239   0.705
 4955TIP3    H214743   5.041   4.106   0.684
 4956TIP3   OH214744   7.097   8.367   3.883
 4956TIP3    H114745   7.192   8.367   3.867
 4956TIP3    H214746   7.074   8.459   3.891
 4957TIP3   OH214747   2.236   8.553   6.025
 4957TIP3    H114748   2.147   8.525   6.006
 4957TIP3    H214749   2.291   8.478   6.000
 4958TIP3   OH214750   0.820   2.012   2.801
 4958TIP3    H114751   0.797   1.996   2.709
 4958TIP3    H214752   0.783   2.097   2.821
 4959TIP3   OH214753   3.055   5.497   2.941
 4959TIP3    H114754   3.131   5.454   2.903
 4959TIP3    H214755   3.048   5.460   3.029
 4960TIP3   OH214756   0.493   6.291   6.707
 4960TIP3    H114757   0.477   6.306   6.614
 4960TIP3    H214758   0.575   6.336   6.726
 4961TIP3   OH214759   7.011   8.970   7.084
 4961TIP3    H114760   7.011   8.875   7.094
 4961TIP3    H214761   6.990   9.003   7.171
 4962TIP3   OH214762   2.686   5.680   5.853
 4962TIP3    H114763   2.636   5.603   5.880
 4962TIP3    H214764   2.636   5.716   5.779
 4963TIP3   OH214765   0.348   4.699   4.923
 4963TIP3    H114766   0.441   4.718   4.917
 4963TIP3    H214767   0.344   4.611   4.962
 4964TIP3   OH214768   4.180   5.760   1.209
 4964TIP3    H114769   4.133   5.823   1.154
 4964TIP3    H214770   4.252   5.729   1.154
 4965TIP3   OH214771   2.704   1.387   1.232
 4965TIP3    H114772   2.664   1.454   1.287
 4965TIP3    H214773   2.786   1.366   1.276
 4966TIP3   OH214774   5.024   6.745   2.375
 4966TIP3    H114775   4.987   6.810   2.316
 4966TIP3    H214776   4.985   6.662   2.347
 4967TIP3   OH214777   9.151   7.828   7.453
 4967TIP3    H114778   9.117   7.803   7.367
 4967TIP3    H214779   9.236   7.785   7.458
 4968TIP3   OH214780   4.033   0.669   1.292
 4968TIP3    H114781   3.990   0.706   1.369
 4968TIP3    H214782   4.084   0.596   1.326
 4969TIP3   OH214783   4.711   7.758   2.334
 4969TIP3    H114784   4.698   7.666   2.357
 4969TIP3    H214785   4.628   7.800   2.357
 4970TIP3   OH214786   2.263   3.930   4.300
 4970TIP3    H114787   2.326   3.884   4.355
 4970TIP3    H214788   2.290   4.022   4.303
 4971TIP3   OH214789   3.798   5.198   1.370
 4971TIP3    H114790   3.724   5.145   1.400
 4971TIP3    H214791   3.781   5.285   1.408
 4972TIP3   OH214792   5.387   0.036   6.784
 4972TIP3    H114793   5.360   0.115   6.738
 4972TIP3    H214794   5.329  -0.033   6.751
 4973TIP3   OH214795   5.735   5.516   6.273
 4973TIP3    H114796   5.799   5.547   6.209
 4973TIP3    H214797   5.747   5.573   6.348
 4974TIP3   OH214798   5.615   5.997   6.305
 4974TIP3    H114799   5.642   5.955   6.223
 4974TIP3    H214800   5.612   6.090   6.283
 4975TIP3   OH214801   1.373   1.503   7.758
 4975TIP3    H114802   1.439   1.508   7.826
 4975TIP3    H214803   1.390   1.419   7.715
 4976TIP3   OH214804   3.631   4.841   6.168
 4976TIP3    H114805   3.589   4.755   6.168
 4976TIP3    H214806   3.598   4.883   6.088
 4977TIP3   OH214807   0.354   4.610   5.616
 4977TIP3    H114808   0.363   4.633   5.523
 4977TIP3    H214809   0.339   4.694   5.660
 4978TIP3   OH214810   0.394   5.018   4.316
 4978TIP3    H114811   0.444   4.952   4.268
 4978TIP3    H214812   0.360   4.971   4.392
 4979TIP3   OH214813   2.096   6.331   1.073
 4979TIP3    H114814   2.020   6.383   1.047
 4979TIP3    H214815   2.132   6.376   1.149
 4980TIP3   OH214816   4.543   6.215   4.215
 4980TIP3    H114817   4.583   6.210   4.128
 4980TIP3    H214818   4.491   6.295   4.213
 4981TIP3   OH214819   0.811   3.513   2.827
 4981TIP3    H114820   0.724   3.534   2.795
 4981TIP3    H214821   0.867   3.583   2.794
 4982TIP3   OH214822   5.292   4.564   1.749
 4982TIP3    H114823   5.204   4.544   1.717
 4982TIP3    H214824   5.301   4.659   1.736
 4983TIP3   OH214825   1.894   1.729   4.249
 4983TIP3    H114826   1.886   1.792   4.178
 4983TIP3    H214827   1.957   1.664   4.217
 4984TIP3   OH214828   4.049   2.624   2.716
 4984TIP3    H114829   4.102   2.672   2.780
 4984TIP3    H214830   4.053   2.678   2.637
 4985TIP3   OH214831   8.859   1.904   5.476
 4985TIP3    H114832   8.888   1.826   5.428
 4985TIP3    H214833   8.766   1.889   5.491
 4986TIP3   OH214834   3.342   1.569   7.559
 4986TIP3    H114835   3.369   1.543   7.647
 4986TIP3    H214836   3.261   1.619   7.573
 4987TIP3   OH214837   8.002   7.799   2.812
 4987TIP3    H114838   7.924   7.853   2.798
 4987TIP3    H214839   8.053   7.810   2.732
 4988TIP3   OH214840   4.793   8.494   1.469
 4988TIP3    H114841   4.842   8.440   1.408
 4988TIP3    H214842   4.859   8.530   1.529
 4989TIP3   OH214843   8.410   5.850   0.154
 4989TIP3    H114844   8.346   5.852   0.225
 4989TIP3    H214845   8.417   5.941   0.126
 4990TIP3   OH214846   0.790   6.729   2.839
 4990TIP3    H114847   0.753   6.817   2.847
 4990TIP3    H214848   0.877   6.735   2.878
 4991TIP3   OH214849   0.361   7.517   3.492
 4991TIP3    H114850   0.412   7.436   3.501
 4991TIP3    H214851   0.417   7.574   3.439
 4992TIP3   OH214852   1.298   5.029   7.461
 4992TIP3    H114853   1.377   5.083   7.470
 4992TIP3    H214854   1.319   4.969   7.389
 4993TIP3   OH214855   8.312   2.787   3.147
 4993TIP3    H114856   8.292   2.794   3.054
 4993TIP3    H214857   8.395   2.739   3.150
 4994TIP3   OH214858   1.487   4.257   3.285
 4994TIP3    H114859   1.515   4.240   3.375
 4994TIP3    H214860   1.395   4.230   3.284
 4995TIP3   OH214861   0.881   7.381   0.427
 4995TIP3    H114862   0.874   7.472   0.455
 4995TIP3    H214863   0.820   7.334   0.483
 4996TIP3   OH214864   7.039   1.975   3.805
 4996TIP3    H114865   7.010   1.902   3.859
 4996TIP3    H214866   7.124   1.999   3.840
 4997TIP3   OH214867   9.103   1.104   0.807
 4997TIP3    H114868   9.139   1.176   0.755
 4997TIP3    H214869   9.010   1.126   0.816
 4998TIP3   OH214870   1.602   7.174   4.119
 4998TIP3    H114871   1.538   7.124   4.171
 4998TIP3    H214872   1.603   7.260   4.159
 4999TIP3   OH214873   2.863   0.114   5.634
 4999TIP3    H114874   2.920   0.088   5.706
 4999TIP3    H214875   2.888   0.058   5.561
 5000TIP3   OH214876   0.500   6.645   5.694
 5000TIP3    H114877   0.533   6.653   5.784
 5000TIP3    H214878   0.565   6.589   5.650
 5001TIP3   OH214879   2.002   1.684   5.754
 5001TIP3    H114880   1.961   1.709   5.836
 5001TIP3    H214881   1.936   1.632   5.709
 5002TIP3   OH214882   4.051   8.759   5.405
 5002TIP3    H114883   3.959   8.757   5.380
 5002TIP3    H214884   4.052   8.796   5.493
 5003TIP3   OH214885   3.347   3.674   2.949
 5003TIP3    H114886   3.276   3.720   2.905
 5003TIP3    H214887   3.409   3.743   2.975
 5004TIP3   OH214888   0.063   4.066   7.144
 5004TIP3    H114889  -0.007   4.124   7.173
 5004TIP3    H214890   0.051   4.058   7.050
 5005TIP3   OH214891   0.346   1.221   1.007
 5005TIP3    H114892   0.298   1.292   1.049
 5005TIP3    H214893   0.345   1.244   0.914
 5006TIP3   OH214894   6.829   0.987   7.255
 5006TIP3    H114895   6.736   0.985   7.232
 5006TIP3    H214896   6.832   0.962   7.347
 5007TIP3   OH214897   5.417   6.553   4.553
 5007TIP3    H114898   5.485   6.490   4.529
 5007TIP3    H214899   5.423   6.560   4.648
 5008TIP3   OH214900   8.953   4.715   6.303
 5008TIP3    H114901   8.937   4.741   6.393
 5008TIP3    H214902   8.953   4.619   6.304
 5009TIP3   OH214903   1.077   6.149   3.149
 5009TIP3    H114904   1.039   6.156   3.062
 5009TIP3    H214905   1.004   6.162   3.209
 5010TIP3   OH214906   8.975   3.747   1.013
 5010TIP3    H114907   9.058   3.772   0.972
 5010TIP3    H214908   8.982   3.653   1.024
 5011TIP3   OH214909   3.319   8.464   7.720
 5011TIP3    H114910   3.235   8.420   7.733
 5011TIP3    H214911   3.347   8.490   7.808
 5012TIP3   OH214912   0.323   0.574   6.866
 5012TIP3    H114913   0.343   0.600   6.955
 5012TIP3    H214914   0.362   0.487   6.856
 5013TIP3   OH214915   7.565   2.789   4.899
 5013TIP3    H114916   7.517   2.810   4.980
 5013TIP3    H214917   7.537   2.856   4.837
 5014TIP3   OH214918   4.678   0.254   4.649
 5014TIP3    H114919   4.721   0.264   4.564
 5014TIP3    H214920   4.749   0.233   4.709
 5015TIP3   OH214921   3.037   0.690   6.721
 5015TIP3    H114922   2.972   0.649   6.777
 5015TIP3    H214923   3.005   0.779   6.708
 5016TIP3   OH214924   7.117   4.370   6.759
 5016TIP3    H114925   7.204   4.392   6.790
 5016TIP3    H214926   7.078   4.454   6.735
 5017TIP3   OH214927   3.592   3.534   7.338
 5017TIP3    H114928   3.552   3.614   7.373
 5017TIP3    H214929   3.654   3.507   7.405
 5018TIP3   OH214930   0.486   4.902   2.896
 5018TIP3    H114931   0.401   4.941   2.918
 5018TIP3    H214932   0.549   4.973   2.911
 5019TIP3   OH214933   8.444   3.135   4.857
 5019TIP3    H114934   8.402   3.144   4.942
 5019TIP3    H214935   8.483   3.048   4.858
 5020TIP3   OH214936   3.785   2.059   6.161
 5020TIP3    H114937   3.768   2.153   6.173
 5020TIP3    H214938   3.880   2.052   6.162
 5021TIP3   OH214939   4.602   2.591   4.921
 5021TIP3    H114940   4.587   2.651   4.994
 5021TIP3    H214941   4.552   2.513   4.944
 5022TIP3   OH214942   7.935   3.154   6.569
 5022TIP3    H114943   7.854   3.164   6.519
 5022TIP3    H214944   7.946   3.059   6.578
 5023TIP3   OH214945   6.306   8.341   6.372
 5023TIP3    H114946   6.294   8.255   6.411
 5023TIP3    H214947   6.218   8.366   6.343
 5024TIP3   OH214948   7.319   7.163   4.041
 5024TIP3    H114949   7.289   7.073   4.030
 5024TIP3    H214950   7.300   7.206   3.958
 5025TIP3   OH214951   9.178   1.504   4.608
 5025TIP3    H114952   9.163   1.596   4.633
 5025TIP3    H214953   9.096   1.460   4.630
 5026TIP3   OH214954   7.132   4.646   0.498
 5026TIP3    H114955   7.129   4.571   0.438
 5026TIP3    H214956   7.043   4.651   0.534
 5027TIP3   OH214957   9.088   0.783   0.933
 5027TIP3    H114958   9.110   0.690   0.926
 5027TIP3    H214959   9.152   0.818   0.995
 5028TIP3   OH214960   3.720   8.481   5.385
 5028TIP3    H114961   3.683   8.523   5.463
 5028TIP3    H214962   3.657   8.501   5.316
 5029TIP3   OH214963   6.738   6.957   3.660
 5029TIP3    H114964   6.771   7.032   3.609
 5029TIP3    H214965   6.705   6.896   3.594
 5030TIP3   OH214966   8.537   8.522   4.593
 5030TIP3    H114967   8.574   8.606   4.618
 5030TIP3    H214968   8.485   8.495   4.669
 5031TIP3   OH214969   8.203   8.673   3.463
 5031TIP3    H114970   8.246   8.587   3.458
 5031TIP3    H214971   8.220   8.703   3.552
 5032TIP3   OH214972   3.110   2.028   6.916
 5032TIP3    H114973   3.116   2.093   6.846
 5032TIP3    H214974   3.024   1.987   6.904
 5033TIP3   OH214975   8.304   7.032   0.655
 5033TIP3    H114976   8.324   7.120   0.686
 5033TIP3    H214977   8.224   7.042   0.604
 5034TIP3   OH214978   1.351   5.379   1.683
 5034TIP3    H114979   1.410   5.385   1.607
 5034TIP3    H214980   1.368   5.460   1.732
 5035TIP3   OH214981   5.882   3.401   0.096
 5035TIP3    H114982   5.849   3.491   0.092
 5035TIP3    H214983   5.803   3.348   0.103
 5036TIP3   OH214984   2.591   5.084   2.871
 5036TIP3    H114985   2.684   5.096   2.851
 5036TIP3    H214986   2.577   4.990   2.865
 5037TIP3   OH214987   3.528   4.114   7.502
 5037TIP3    H114988   3.524   4.173   7.577
 5037TIP3    H214989   3.619   4.118   7.473
 5038TIP3   OH214990   6.129   0.781   6.571
 5038TIP3    H114991   6.184   0.859   6.572
 5038TIP3    H214992   6.190   0.708   6.580
 5039TIP3   OH214993   7.842   7.625   3.832
 5039TIP3    H114994   7.813   7.690   3.895
 5039TIP3    H214995   7.915   7.667   3.787
 5040TIP3   OH214996   0.233   4.258   4.492
 5040TIP3    H114997   0.143   4.225   4.494
 5040TIP3    H214998   0.286   4.186   4.526
 5041TIP3   OH214999   3.151   4.531   1.896
 5041TIP3    H115000   3.246   4.543   1.901
 5041TIP3    H215001   3.140   4.459   1.833
 5042TIP3   OH215002   4.812   4.669   1.927
 5042TIP3    H115003   4.721   4.679   1.899
 5042TIP3    H215004   4.861   4.661   1.845
 5043TIP3   OH215005   6.827   0.882   5.450
 5043TIP3    H115006   6.882   0.844   5.381
 5043TIP3    H215007   6.803   0.969   5.416
 5044TIP3   OH215008   6.201   2.890   2.314
 5044TIP3    H115009   6.183   2.844   2.232
 5044TIP3    H215010   6.148   2.970   2.309
 5045TIP3   OH215011   6.530   7.041   4.724
 5045TIP3    H115012   6.554   6.992   4.646
 5045TIP3    H215013   6.589   7.117   4.724
 5046TIP3   OH215014   8.601   4.847   5.350
 5046TIP3    H115015   8.604   4.777   5.286
 5046TIP3    H215016   8.565   4.922   5.303
 5047TIP3   OH215017   6.617   0.132   7.305
 5047TIP3    H115018   6.705   0.116   7.272
 5047TIP3    H215019   6.599   0.224   7.286
 5048TIP3   OH215020   7.004   2.602   3.848
 5048TIP3    H115021   7.038   2.643   3.768
 5048TIP3    H215022   6.912   2.586   3.830
 5049TIP3   OH215023   8.332   8.659   7.651
 5049TIP3    H115024   8.330   8.665   7.556
 5049TIP3    H215025   8.414   8.614   7.671
 5050TIP3   OH215026   2.957   0.322   0.681
 5050TIP3    H115027   3.017   0.359   0.617
 5050TIP3    H215028   2.872   0.359   0.658
 5051TIP3   OH215029   8.634   7.204   0.089
 5051TIP3    H115030   8.558   7.211   0.031
 5051TIP3    H215031   8.706   7.243   0.039
 5052TIP3   OH215032   1.531   7.019   1.918
 5052TIP3    H115033   1.599   7.024   1.851
 5052TIP3    H215034   1.496   7.107   1.924
 5053TIP3   OH215035   7.545   1.366   1.515
 5053TIP3    H115036   7.541   1.309   1.592
 5053TIP3    H215037   7.454   1.392   1.500
 5054TIP3   OH215038   2.588   0.319   6.022
 5054TIP3    H115039   2.682   0.303   6.029
 5054TIP3    H215040   2.558   0.258   5.955
 5055TIP3   OH215041   8.663   1.743   5.341
 5055TIP3    H115042   8.604   1.668   5.335
 5055TIP3    H215043   8.741   1.708   5.384
 5056TIP3   OH215044   2.064   5.590   1.994
 5056TIP3    H115045   2.098   5.666   1.947
 5056TIP3    H215046   1.971   5.589   1.972
 5057TIP3   OH215047   1.448   4.781   7.630
 5057TIP3    H115048   1.527   4.831   7.652
 5057TIP3    H215049   1.419   4.817   7.546
 5058TIP3   OH215050   8.569   6.748   6.792
 5058TIP3    H115051   8.479   6.731   6.764
 5058TIP3    H215052   8.577   6.843   6.786
 5059TIP3   OH215053   1.078   6.064   3.681
 5059TIP3    H115054   1.163   6.096   3.651
 5059TIP3    H215055   1.027   6.143   3.699
 5060TIP3   OH215056   9.193   2.267   1.190
 5060TIP3    H115057   9.104   2.275   1.156
 5060TIP3    H215058   9.247   2.257   1.111
 5061TIP3   OH215059   2.688   3.847   4.054
 5061TIP3    H115060   2.692   3.868   4.147
 5061TIP3    H215061   2.598   3.816   4.040
 5062TIP3   OH215062   4.346   6.446   4.186
 5062TIP3    H115063   4.436   6.474   4.199
 5062TIP3    H215064   4.298   6.527   4.166
 5063TIP3   OH215065   1.427   0.475   3.373
 5063TIP3    H115066   1.406   0.492   3.282
 5063TIP3    H215067   1.483   0.548   3.399
 5064TIP3   OH215068   5.288   7.810   4.948
 5064TIP3    H115069   5.351   7.817   4.876
 5064TIP3    H215070   5.280   7.716   4.964
 5065TIP3   OH215071   6.120   8.088   2.788
 5065TIP3    H115072   6.079   8.049   2.711
 5065TIP3    H215073   6.155   8.013   2.836
 5066TIP3   OH215074   1.341   4.692   1.983
 5066TIP3    H115075   1.419   4.691   1.927
 5066TIP3    H215076   1.351   4.614   2.038
 5067TIP3   OH215077   7.100   4.863   2.465
 5067TIP3    H115078   7.161   4.788   2.465
 5067TIP3    H215079   7.107   4.899   2.376
 5068TIP3   OH215080   0.217   3.622   1.784
 5068TIP3    H115081   0.186   3.563   1.716
 5068TIP3    H215082   0.149   3.689   1.792
 5069TIP3   OH215083   8.753   7.419   6.414
 5069TIP3    H115084   8.695   7.355   6.372
 5069TIP3    H215085   8.697   7.463   6.477
 5070TIP3   OH215086   1.592   7.588   2.857
 5070TIP3    H115087   1.594   7.495   2.878
 5070TIP3    H215088   1.611   7.631   2.940
 5071TIP3   OH215089   6.595   4.802   3.559
 5071TIP3    H115090   6.657   4.742   3.519
 5071TIP3    H215091   6.511   4.781   3.516
 5072TIP3   OH215092   5.431   0.681   3.938
 5072TIP3    H115093   5.406   0.676   4.030
 5072TIP3    H215094   5.375   0.619   3.893
 5073TIP3   OH215095   4.337   2.291   7.704
 5073TIP3    H115096   4.350   2.217   7.764
 5073TIP3    H215097   4.420   2.298   7.657
 5074TIP3   OH215098   6.194   5.869   6.957
 5074TIP3    H115099   6.200   5.945   6.899
 5074TIP3    H215100   6.283   5.834   6.959
 5075TIP3   OH215101   1.790   0.166   6.652
 5075TIP3    H115102   1.717   0.143   6.595
 5075TIP3    H215103   1.863   0.114   6.619
 5076TIP3   OH215104   9.361   2.814   3.026
 5076TIP3    H115105   9.351   2.811   2.931
 5076TIP3    H215106   9.316   2.894   3.053
 5077TIP3   OH215107   4.100   8.738   5.898
 5077TIP3    H115108   4.020   8.790   5.901
 5077TIP3    H215109   4.130   8.733   5.989
 5078TIP3   OH215110   8.202   2.558   6.067
 5078TIP3    H115111   8.235   2.475   6.033
 5078TIP3    H215112   8.278   2.600   6.107
 5079TIP3   OH215113   2.093   1.267   6.900
 5079TIP3    H115114   2.068   1.306   6.983
 5079TIP3    H215115   2.027   1.297   6.838
 5080TIP3   OH215116   7.886   6.855   4.593
 5080TIP3    H115117   7.835   6.842   4.673
 5080TIP3    H215118   7.847   6.796   4.529
 5081TIP3   OH215119   7.910   2.609   3.351
 5081TIP3    H115120   7.969   2.553   3.400
 5081TIP3    H215121   7.965   2.682   3.321
 5082TIP3   OH215122   2.819   8.887   1.272
 5082TIP3    H115123   2.828   8.981   1.290
 5082TIP3    H215124   2.827   8.845   1.357
 5083TIP3   OH215125   4.334   4.622   5.501
 5083TIP3    H115126   4.400   4.648   5.566
 5083TIP3    H215127   4.251   4.625   5.549
 5084TIP3   OH215128   2.752   7.141   3.169
 5084TIP3    H115129   2.687   7.174   3.107
 5084TIP3    H215130   2.715   7.158   3.255
 5085TIP3   OH215131   5.632   4.796   7.224
 5085TIP3    H115132   5.545   4.771   7.194
 5085TIP3    H215133   5.690   4.729   7.188
 5086TIP3   OH215134   9.214   6.879   0.124
 5086TIP3    H115135   9.123   6.911   0.125
 5086TIP3    H215136   9.216   6.816   0.052
 5087TIP3   OH215137   2.795   0.018   5.267
 5087TIP3    H115138   2.710   0.051   5.297
 5087TIP3    H215139   2.804   0.054   5.178
 5088TIP3   OH215140   8.128   7.973   7.719
 5088TIP3    H115141   8.098   7.990   7.629
 5088TIP3    H215142   8.201   8.033   7.732
 5089TIP3   OH215143   7.482   7.103   2.899
 5089TIP3    H115144   7.542   7.051   2.952
 5089TIP3    H215145   7.462   7.047   2.824
 5090TIP3   OH215146   9.464   7.157   0.698
 5090TIP3    H115147   9.457   7.236   0.646
 5090TIP3    H215148   9.529   7.103   0.652
 5091TIP3   OH215149   8.400   4.724   5.518
 5091TIP3    H115150   8.458   4.800   5.523
 5091TIP3    H215151   8.374   4.720   5.425
 5092TIP3   OH215152   6.707   6.316   4.272
 5092TIP3    H115153   6.618   6.323   4.306
 5092TIP3    H215154   6.761   6.360   4.338
 5093TIP3   OH215155   4.094   5.955   2.505
 5093TIP3    H115156   4.112   6.026   2.567
 5093TIP3    H215157   4.002   5.966   2.481
 5094TIP3   OH215158   0.272   8.991   6.782
 5094TIP3    H115159   0.204   8.933   6.746
 5094TIP3    H215160   0.349   8.974   6.727
 5095TIP3   OH215161   7.497   4.553   1.135
 5095TIP3    H115162   7.505   4.639   1.177
 5095TIP3    H215163   7.543   4.493   1.193
 5096TIP3   OH215164   8.530   0.034   6.779
 5096TIP3    H115165   8.568   0.062   6.862
 5096TIP3    H215166   8.535   0.112   6.724
 5097TIP3   OH215167   5.589   7.459   5.961
 5097TIP3    H115168   5.543   7.386   5.921
 5097TIP3    H215169   5.534   7.535   5.945
 5098TIP3   OH215170   8.525   4.585   3.617
 5098TIP3    H115171   8.488   4.516   3.671
 5098TIP3    H215172   8.603   4.546   3.578
 5099TIP3   OH215173   1.677   3.820   0.346
 5099TIP3    H115174   1.594   3.784   0.315
 5099TIP3    H215175   1.679   3.909   0.310
 5100TIP3   OH215176   8.460   8.668   6.505
 5100TIP3    H115177   8.523   8.739   6.518
 5100TIP3    H215178   8.414   8.691   6.424
 5101TIP3   OH215179   3.226   2.629   4.362
 5101TIP3    H115180   3.141   2.627   4.407
 5101TIP3    H215181   3.254   2.537   4.361
 5102TIP3   OH215182   4.957   7.744   3.116
 5102TIP3    H115183   5.028   7.797   3.152
 5102TIP3    H215184   4.999   7.662   3.089
 5103TIP3   OH215185   4.864   4.834   4.063
 5103TIP3    H115186   4.837   4.876   3.981
 5103TIP3    H215187   4.935   4.889   4.096
 5104TIP3   OH215188   5.025   8.588   2.026
 5104TIP3    H115189   5.067   8.590   1.939
 5104TIP3    H215190   4.999   8.497   2.037
 5105TIP3   OH215191   7.882   2.114   7.236
 5105TIP3    H115192   7.895   2.105   7.331
 5105TIP3    H215193   7.891   2.025   7.203
 5106TIP3   OH215194   1.685   7.439   4.275
 5106TIP3    H115195   1.648   7.468   4.358
 5106TIP3    H215196   1.616   7.453   4.211
 5107TIP3   OH215197   1.242   1.160   6.310
 5107TIP3    H115198   1.180   1.155   6.382
 5107TIP3    H215199   1.297   1.235   6.330
 5108TIP3   OH215200   8.003   0.427   5.229
 5108TIP3    H115201   7.960   0.376   5.298
 5108TIP3    H215202   8.087   0.452   5.267
 5109TIP3   OH215203   7.207   6.704   1.512
 5109TIP3    H115204   7.239   6.777   1.565
 5109TIP3    H215205   7.266   6.703   1.436
 5110TIP3   OH215206   2.368   3.484   3.919
 5110TIP3    H115207   2.420   3.535   3.857
 5110TIP3    H215208   2.296   3.541   3.944
 5111TIP3   OH215209   4.652   2.573   5.692
 5111TIP3    H115210   4.579   2.523   5.657
 5111TIP3    H215211   4.679   2.526   5.770
 5112TIP3   OH215212   8.214   7.434   6.495
 5112TIP3    H115213   8.168   7.449   6.412
 5112TIP3    H215214   8.163   7.483   6.560
 5113TIP3   OH215215   7.699   1.883   7.173
 5113TIP3    H115216   7.642   1.916   7.243
 5113TIP3    H215217   7.709   1.790   7.192
 5114TIP3   OH215218   7.836   4.963   0.218
 5114TIP3    H115219   7.745   4.993   0.215
 5114TIP3    H215220   7.882   5.032   0.267
 5115TIP3   OH215221   2.526   6.919   2.217
 5115TIP3    H115222   2.516   6.911   2.311
 5115TIP3    H215223   2.451   6.972   2.189
 5116TIP3   OH215224   8.427   8.677   4.932
 5116TIP3    H115225   8.399   8.602   4.881
 5116TIP3    H215226   8.521   8.685   4.914
 5117TIP3   OH215227   3.392   0.486   7.057
 5117TIP3    H115228   3.322   0.497   7.121
 5117TIP3    H215229   3.353   0.513   6.974
 5118TIP3   OH215230   7.876   5.894   3.576
 5118TIP3    H115231   7.961   5.866   3.608
 5118TIP3    H215232   7.877   5.990   3.583
 5119TIP3   OH215233   0.631   0.880   5.451
 5119TIP3    H115234   0.646   0.826   5.529
 5119TIP3    H215235   0.694   0.951   5.458
 5120TIP3   OH215236   9.271   0.776   7.805
 5120TIP3    H115237   9.190   0.821   7.828
 5120TIP3    H215238   9.313   0.833   7.741
 5121TIP3   OH215239   1.493   7.300   4.660
 5121TIP3    H115240   1.432   7.305   4.587
 5121TIP3    H215241   1.467   7.221   4.707
 5122TIP3   OH215242   1.001   6.093   2.520
 5122TIP3    H115243   1.020   6.016   2.467
 5122TIP3    H215244   0.921   6.129   2.483
 5123TIP3   OH215245   8.238   7.416   1.198
 5123TIP3    H115246   8.201   7.417   1.287
 5123TIP3    H215247   8.243   7.323   1.175
 5124TIP3   OH215248   6.328   8.348   3.344
 5124TIP3    H115249   6.377   8.340   3.426
 5124TIP3    H215250   6.386   8.399   3.287
 5125TIP3   OH215251   2.661   5.873   2.958
 5125TIP3    H115252   2.727   5.814   2.923
 5125TIP3    H215253   2.711   5.947   2.993
 5126TIP3   OH215254   7.273   3.254   5.164
 5126TIP3    H115255   7.348   3.295   5.208
 5126TIP3    H215256   7.286   3.275   5.072
 5127TIP3   OH215257   2.510   6.934   7.587
 5127TIP3    H115258   2.432   6.981   7.558
 5127TIP3    H215259   2.485   6.894   7.670
 5128TIP3   OH215260   5.581   4.628   3.539
 5128TIP3    H115261   5.624   4.691   3.481
 5128TIP3    H215262   5.494   4.665   3.554
 5129TIP3   OH215263   5.885   2.335   6.797
 5129TIP3    H115264   5.935   2.345   6.878
 5129TIP3    H215265   5.852   2.245   6.799
 5130TIP3   OH215266   9.103   2.746   0.213
 5130TIP3    H115267   9.080   2.713   0.299
 5130TIP3    H215268   9.122   2.668   0.161
 5131TIP3   OH215269   2.174   8.092   2.881
 5131TIP3    H115270   2.199   8.000   2.874
 5131TIP3    H215271   2.238   8.138   2.826
 5132TIP3   OH215272   5.800   3.426   4.457
 5132TIP3    H115273   5.820   3.469   4.541
 5132TIP3    H215274   5.721   3.375   4.474
 5133TIP3   OH215275   4.421   5.134   0.535
 5133TIP3    H115276   4.364   5.199   0.494
 5133TIP3    H215277   4.361   5.065   0.564
 5134TIP3   OH215278   0.418   2.132   2.114
 5134TIP3    H115279   0.440   2.040   2.132
 5134TIP3    H215280   0.389   2.166   2.198
 5135TIP3   OH215281   1.024   1.393   0.011
 5135TIP3    H115282   0.940   1.355   0.038
 5135TIP3    H215283   1.059   1.432   0.091
 5136TIP3   OH215284   2.710   6.685   3.751
 5136TIP3    H115285   2.669   6.766   3.721
 5136TIP3    H215286   2.680   6.675   3.842
 5137TIP3   OH215287   9.285   0.476   4.895
 5137TIP3    H115288   9.193   0.502   4.897
 5137TIP3    H215289   9.282   0.380   4.886
 5138TIP3   OH215290   1.315   4.990   3.240
 5138TIP3    H115291   1.283   5.079   3.253
 5138TIP3    H215292   1.385   4.999   3.175
 5139TIP3   OH215293   2.035   9.015   3.766
 5139TIP3    H115294   2.101   8.955   3.800
 5139TIP3    H215295   2.079   9.060   3.693
 5140TIP3   OH215296   5.883   1.982   5.975
 5140TIP3    H115297   5.822   1.910   5.962
 5140TIP3    H215298   5.849   2.029   6.051
 5141TIP3   OH215299   7.039   2.627   5.940
 5141TIP3    H115300   6.944   2.630   5.936
 5141TIP3    H215301   7.063   2.545   5.897
 5142TIP3   OH215302   2.648   0.494   4.171
 5142TIP3    H115303   2.681   0.435   4.240
 5142TIP3    H215304   2.628   0.575   4.218
 5143TIP3   OH215305   1.454   0.749   6.376
 5143TIP3    H115306   1.435   0.686   6.306
 5143TIP3    H215307   1.371   0.795   6.389
 5144TIP3   OH215308   5.502   6.884   5.125
 5144TIP3    H115309   5.586   6.895   5.168
 5144TIP3    H215310   5.440   6.869   5.197
 5145TIP3   OH215311   0.698   0.310   6.768
 5145TIP3    H115312   0.719   0.229   6.721
 5145TIP3    H215313   0.667   0.369   6.699
 5146TIP3   OH215314   7.275   7.075   2.180
 5146TIP3    H115315   7.346   7.046   2.238
 5146TIP3    H215316   7.303   7.160   2.147
 5147TIP3   OH215317   2.639   1.736   5.853
 5147TIP3    H115318   2.594   1.697   5.928
 5147TIP3    H215319   2.721   1.769   5.889
 5148TIP3   OH215320   8.499   3.527   1.023
 5148TIP3    H115321   8.514   3.484   0.939
 5148TIP3    H215322   8.585   3.561   1.047
 5149TIP3   OH215323   5.230   6.837   1.885
 5149TIP3    H115324   5.143   6.810   1.914
 5149TIP3    H215325   5.277   6.754   1.870
 5150TIP3   OH215326   8.799   2.781   0.996
 5150TIP3    H115327   8.868   2.846   1.007
 5150TIP3    H215328   8.783   2.748   1.084
 5151TIP3   OH215329   7.688   1.867   2.292
 5151TIP3    H115330   7.610   1.816   2.272
 5151TIP3    H215331   7.674   1.898   2.382
 5152TIP3   OH215332   0.693   6.646   1.704
 5152TIP3    H115333   0.656   6.595   1.777
 5152TIP3    H215334   0.672   6.595   1.626
 5153TIP3   OH215335   6.703   0.034   2.362
 5153TIP3    H115336   6.706   0.087   2.442
 5153TIP3    H215337   6.622   0.060   2.319
 5154TIP3   OH215338   2.256   1.377   2.323
 5154TIP3    H115339   2.329   1.323   2.295
 5154TIP3    H215340   2.264   1.457   2.270
 5155TIP3   OH215341   1.301   6.287   1.289
 5155TIP3    H115342   1.215   6.246   1.300
 5155TIP3    H215343   1.337   6.246   1.210
 5156TIP3   OH215344   3.391   6.759   5.152
 5156TIP3    H115345   3.351   6.834   5.196
 5156TIP3    H215346   3.483   6.764   5.178
 5157TIP3   OH215347   2.030   3.238   3.621
 5157TIP3    H115348   2.028   3.142   3.618
 5157TIP3    H215349   2.058   3.264   3.533
 5158TIP3   OH215350   3.713   1.753   1.876
 5158TIP3    H115351   3.720   1.667   1.917
 5158TIP3    H215352   3.652   1.741   1.804
 5159TIP3   OH215353   0.759   1.157   7.031
 5159TIP3    H115354   0.765   1.210   6.951
 5159TIP3    H215355   0.771   1.067   7.000
 5160TIP3   OH215356   1.294   5.768   5.126
 5160TIP3    H115357   1.245   5.700   5.080
 5160TIP3    H215358   1.241   5.847   5.116
 5161TIP3   OH215359   0.043   0.270   4.199
 5161TIP3    H115360   0.071   0.338   4.137
 5161TIP3    H215361   0.043   0.314   4.284
 5162TIP3   OH215362   3.337   1.232   1.916
 5162TIP3    H115363   3.311   1.308   1.864
 5162TIP3    H215364   3.388   1.268   1.988
 5163TIP3   OH215365   6.852   7.724   5.036
 5163TIP3    H115366   6.926   7.704   5.094
 5163TIP3    H215367   6.884   7.706   4.948
 5164TIP3   OH215368   3.989   7.263   2.300
 5164TIP3    H115369   4.021   7.318   2.229
 5164TIP3    H215370   3.956   7.184   2.257
 5165TIP3   OH215371   5.964   4.126   3.598
 5165TIP3    H115372   6.003   4.040   3.585
 5165TIP3    H215373   6.001   4.156   3.682
 5166TIP3   OH215374   2.793   7.244   3.680
 5166TIP3    H115375   2.877   7.288   3.691
 5166TIP3    H215376   2.729   7.305   3.718
 5167TIP3   OH215377   1.205   8.098   5.258
 5167TIP3    H115378   1.225   8.189   5.279
 5167TIP3    H215379   1.254   8.047   5.323
 5168TIP3   OH215380   4.920   8.730   4.899
 5168TIP3    H115381   4.984   8.666   4.931
 5168TIP3    H215382   4.950   8.751   4.811
 5169TIP3   OH215383   5.128   1.845   0.275
 5169TIP3    H115384   5.198   1.898   0.314
 5169TIP3    H215385   5.172   1.765   0.245
 5170TIP3   OH215386   5.301   6.406   6.930
 5170TIP3    H115387   5.279   6.472   6.863
 5170TIP3    H215388   5.352   6.340   6.882
 5171TIP3   OH215389   6.253   5.428   5.529
 5171TIP3    H115390   6.189   5.429   5.458
 5171TIP3    H215391   6.326   5.375   5.495
 5172TIP3   OH215392   2.673   2.631   5.532
 5172TIP3    H115393   2.664   2.685   5.610
 5172TIP3    H215394   2.598   2.655   5.477
 5173TIP3   OH215395   6.726   0.246   2.587
 5173TIP3    H115396   6.749   0.315   2.525
 5173TIP3    H215397   6.790   0.254   2.658
 5174TIP3   OH215398   3.967   4.095   2.863
 5174TIP3    H115399   4.038   4.086   2.799
 5174TIP3    H215400   3.889   4.064   2.817
 5175TIP3   OH215401   8.716   0.451   3.782
 5175TIP3    H115402   8.810   0.436   3.788
 5175TIP3    H215403   8.684   0.379   3.727
 5176TIP3   OH215404   0.214   5.404   5.772
 5176TIP3    H115405   0.290   5.461   5.764
 5176TIP3    H215406   0.208   5.361   5.686
 5177TIP3   OH215407   8.841   6.627   3.532
 5177TIP3    H115408   8.810   6.582   3.610
 5177TIP3    H215409   8.935   6.637   3.545
 5178TIP3   OH215410   5.866   0.870   4.787
 5178TIP3    H115411   5.877   0.887   4.693
 5178TIP3    H215412   5.940   0.916   4.828
 5179TIP3   OH215413   9.417   4.534   5.190
 5179TIP3    H115414   9.444   4.611   5.241
 5179TIP3    H215415   9.362   4.484   5.250
 5180TIP3   OH215416   5.839   5.741   5.322
 5180TIP3    H115417   5.845   5.727   5.228
 5180TIP3    H215418   5.929   5.730   5.354
 5181TIP3   OH215419   3.294   8.854   0.991
 5181TIP3    H115420   3.304   8.767   0.954
 5181TIP3    H215421   3.284   8.911   0.915
 5182TIP3   OH215422   5.166   8.099   2.836
 5182TIP3    H115423   5.215   8.029   2.794
 5182TIP3    H215424   5.075   8.082   2.814
 5183TIP3   OH215425   0.967   0.103   2.002
 5183TIP3    H115426   0.875   0.127   2.013
 5183TIP3    H215427   0.979   0.098   1.907
 5184TIP3   OH215428   8.638   1.234   1.019
 5184TIP3    H115429   8.654   1.299   1.087
 5184TIP3    H215430   8.655   1.150   1.061
 5185TIP3   OH215431   7.642   1.271   0.063
 5185TIP3    H115432   7.604   1.326   0.131
 5185TIP3    H215433   7.615   1.182   0.085
 5186TIP3   OH215434   7.386   8.012   0.963
 5186TIP3    H115435   7.478   8.023   0.936
 5186TIP3    H215436   7.383   8.047   1.052
 5187TIP3   OH215437   2.619   7.264   2.948
 5187TIP3    H115438   2.546   7.317   2.918
 5187TIP3    H215439   2.608   7.181   2.901
 5188TIP3   OH215440   7.145   2.976   4.724
 5188TIP3    H115441   7.121   2.991   4.632
 5188TIP3    H215442   7.139   2.882   4.735
 5189TIP3   OH215443   7.578   6.774   6.348
 5189TIP3    H115444   7.579   6.691   6.301
 5189TIP3    H215445   7.628   6.757   6.428
 5190TIP3   OH215446   1.932   8.038   0.884
 5190TIP3    H115447   2.027   8.030   0.891
 5190TIP3    H215448   1.908   7.983   0.809
 5191TIP3   OH215449   6.152   2.214   4.614
 5191TIP3    H115450   6.168   2.304   4.583
 5191TIP3    H215451   6.135   2.164   4.535
 5192TIP3   OH215452   0.863   4.654   3.175
 5192TIP3    H115453   0.789   4.700   3.134
 5192TIP3    H215454   0.933   4.719   3.177
 5193TIP3   OH215455   2.782   8.943   5.993
 5193TIP3    H115456   2.852   8.993   5.951
 5193TIP3    H215457   2.706   8.953   5.936
 5194TIP3   OH215458   9.314   6.988   6.904
 5194TIP3    H115459   9.308   6.979   6.809
 5194TIP3    H215460   9.392   6.937   6.928
 5195TIP3   OH215461   8.612   7.200   6.355
 5195TIP3    H115462   8.566   7.216   6.437
 5195TIP3    H215463   8.551   7.148   6.303
 5196TIP3   OH215464   9.540   0.825   3.906
 5196TIP3    H115465   9.502   0.909   3.880
 5196TIP3    H215466   9.598   0.846   3.980
 5197TIP3   OH215467   3.153   8.581   0.189
 5197TIP3    H115468   3.059   8.598   0.178
 5197TIP3    H215469   3.191   8.667   0.205
 5198TIP3   OH215470   3.743   5.685   4.548
 5198TIP3    H115471   3.747   5.645   4.462
 5198TIP3    H215472   3.834   5.691   4.577
 5199TIP3   OH215473   3.580   6.435   4.396
 5199TIP3    H115474   3.636   6.368   4.435
 5199TIP3    H215475   3.641   6.505   4.370
 5200TIP3   OH215476   1.601   2.983   6.568
 5200TIP3    H115477   1.653   2.953   6.642
 5200TIP3    H215478   1.569   3.069   6.594
 5201TIP3   OH215479   7.109   3.967   6.823
 5201TIP3    H115480   7.039   3.997   6.881
 5201TIP3    H215481   7.091   4.012   6.740
 5202TIP3   OH215482   6.141   5.664   0.788
 5202TIP3    H115483   6.091   5.717   0.727
 5202TIP3    H215484   6.142   5.715   0.869
 5203TIP3   OH215485   1.051   3.527   3.607
 5203TIP3    H115486   1.068   3.465   3.678
 5203TIP3    H215487   0.965   3.564   3.628
 5204TIP3   OH215488   5.570   8.731   0.895
 5204TIP3    H115489   5.653   8.726   0.849
 5204TIP3    H215490   5.535   8.817   0.872
 5205TIP3   OH215491   8.851   0.114   0.650
 5205TIP3    H115492   8.886   0.202   0.641
 5205TIP3    H215493   8.864   0.074   0.563
 5206TIP3   OH215494   6.525   6.373   5.381
 5206TIP3    H115495   6.470   6.304   5.417
 5206TIP3    H215496   6.497   6.452   5.427
 5207TIP3   OH215497   1.624   1.800   2.129
 5207TIP3    H115498   1.701   1.772   2.179
 5207TIP3    H215499   1.550   1.766   2.178
 5208TIP3   OH215500   8.756   1.683   1.747
 5208TIP3    H115501   8.850   1.697   1.737
 5208TIP3    H215502   8.719   1.772   1.753
 5209TIP3   OH215503   1.380   2.466   4.442
 5209TIP3    H115504   1.445   2.456   4.511
 5209TIP3    H215505   1.405   2.402   4.375
 5210TIP3   OH215506   7.537   2.129   4.809
 5210TIP3    H115507   7.552   2.061   4.743
 5210TIP3    H215508   7.618   2.181   4.808
 5211TIP3   OH215509   3.870   8.469   1.018
 5211TIP3    H115510   3.915   8.390   1.048
 5211TIP3    H215511   3.864   8.523   1.096
 5212TIP3   OH215512   0.243   1.662   7.091
 5212TIP3    H115513   0.208   1.707   7.014
 5212TIP3    H215514   0.249   1.729   7.158
 5213TIP3   OH215515   0.436   1.224   2.482
 5213TIP3    H115516   0.417   1.161   2.552
 5213TIP3    H215517   0.520   1.195   2.446
 5214TIP3   OH215518   2.457   3.568   5.830
 5214TIP3    H115519   2.401   3.644   5.812
 5214TIP3    H215520   2.475   3.573   5.924
 5215TIP3   OH215521   8.581   7.988   5.739
 5215TIP3    H115522   8.495   7.948   5.750
 5215TIP3    H215523   8.573   8.073   5.782
 5216TIP3   OH215524   8.286   8.166   6.705
 5216TIP3    H115525   8.321   8.253   6.687
 5216TIP3    H215526   8.287   8.159   6.801
 5217TIP3   OH215527   4.031   8.346   1.252
 5217TIP3    H115528   3.957   8.393   1.291
 5217TIP3    H215529   4.021   8.256   1.284
 5218TIP3   OH215530   2.823   7.310   2.598
 5218TIP3    H115531   2.853   7.291   2.686
 5218TIP3    H215532   2.762   7.383   2.609
 5219TIP3   OH215533   4.398   1.577   0.923
 5219TIP3    H115534   4.423   1.548   1.011
 5219TIP3    H215535   4.351   1.502   0.886
 5220TIP3   OH215536   5.721   3.605   1.620
 5220TIP3    H115537   5.731   3.584   1.713
 5220TIP3    H215538   5.701   3.699   1.619
 5221TIP3   OH215539   3.670   1.105   5.814
 5221TIP3    H115540   3.666   1.161   5.737
 5221TIP3    H215541   3.727   1.032   5.787
 5222TIP3   OH215542   1.421   6.197   7.742
 5222TIP3    H115543   1.502   6.248   7.737
 5222TIP3    H215544   1.449   6.106   7.734
 5223TIP3   OH215545   8.106   4.876   0.190
 5223TIP3    H115546   8.125   4.792   0.149
 5223TIP3    H215547   8.012   4.889   0.177
 5224TIP3   OH215548   0.103   3.674   5.353
 5224TIP3    H115549   0.012   3.704   5.351
 5224TIP3    H215550   0.141   3.704   5.271
 5225TIP3   OH215551   2.627   4.573   7.775
 5225TIP3    H115552   2.591   4.627   7.846
 5225TIP3    H215553   2.637   4.634   7.702
 5226TIP3   OH215554   5.475   4.435   1.959
 5226TIP3    H115555   5.396   4.459   1.909
 5226TIP3    H215556   5.546   4.483   1.916
 5227TIP3   OH215557   2.101   6.645   2.667
 5227TIP3    H115558   2.157   6.674   2.595
 5227TIP3    H215559   2.015   6.635   2.627
 5228TIP3   OH215560   7.672   0.922   5.364
 5228TIP3    H115561   7.765   0.901   5.374
 5228TIP3    H215562   7.647   0.881   5.282
 5229TIP3   OH215563   2.220   4.902   4.460
 5229TIP3    H115564   2.284   4.831   4.453
 5229TIP3    H215565   2.246   4.965   4.393
 5230TIP3   OH215566   1.578   2.941   6.097
 5230TIP3    H115567   1.642   2.870   6.103
 5230TIP3    H215568   1.628   3.020   6.115
 5231TIP3   OH215569   3.198   1.126   7.013
 5231TIP3    H115570   3.255   1.157   7.085
 5231TIP3    H215571   3.232   1.040   6.991
 5232TIP3   OH215572   6.543   1.010   7.636
 5232TIP3    H115573   6.572   0.920   7.645
 5232TIP3    H215574   6.447   1.004   7.630
 5233TIP3   OH215575   1.862   5.649   2.841
 5233TIP3    H115576   1.793   5.625   2.903
 5233TIP3    H215577   1.905   5.566   2.820
 5234TIP3   OH215578   8.568   6.840   3.024
 5234TIP3    H115579   8.497   6.855   2.962
 5234TIP3    H215580   8.539   6.884   3.104
 5235TIP3   OH215581   5.418   0.733   0.910
 5235TIP3    H115582   5.456   0.778   0.985
 5235TIP3    H215583   5.375   0.656   0.947
 5236TIP3   OH215584   5.832   8.744   1.631
 5236TIP3    H115585   5.878   8.784   1.557
 5236TIP3    H215586   5.861   8.794   1.707
 5237TIP3   OH215587   7.572   3.169   1.478
 5237TIP3    H115588   7.492   3.179   1.426
 5237TIP3    H215589   7.577   3.249   1.530
 5238TIP3   OH215590   5.078   6.863   5.037
 5238TIP3    H115591   5.075   6.953   5.068
 5238TIP3    H215592   4.986   6.835   5.035
 5239TIP3   OH215593   3.512   0.633   0.585
 5239TIP3    H115594   3.468   0.550   0.604
 5239TIP3    H215595   3.446   0.700   0.603
 5240TIP3   OH215596   8.774   3.286   5.349
 5240TIP3    H115597   8.801   3.371   5.384
 5240TIP3    H215598   8.856   3.239   5.336
 5241TIP3   OH215599   5.151   6.644   5.990
 5241TIP3    H115600   5.085   6.630   6.058
 5241TIP3    H215601   5.176   6.736   5.999
 5242TIP3   OH215602   2.402   4.812   7.787
 5242TIP3    H115603   2.405   4.905   7.810
 5242TIP3    H215604   2.356   4.771   7.860
 5243TIP3   OH215605   1.690   6.324   0.770
 5243TIP3    H115606   1.765   6.370   0.732
 5243TIP3    H215607   1.628   6.316   0.698
 5244TIP3   OH215608   3.565   6.226   6.039
 5244TIP3    H115609   3.517   6.147   6.014
 5244TIP3    H215610   3.606   6.256   5.959
 5245TIP3   OH215611   0.492   6.948   0.123
 5245TIP3    H115612   0.513   7.041   0.133
 5245TIP3    H215613   0.491   6.914   0.212
 5246TIP3   OH215614   6.380   1.491   6.673
 5246TIP3    H115615   6.464   1.471   6.716
 5246TIP3    H215616   6.328   1.412   6.687
 5247TIP3   OH215617   1.162   5.315   4.838
 5247TIP3    H115618   1.175   5.364   4.757
 5247TIP3    H215619   1.249   5.311   4.877
 5248TIP3   OH215620   0.493   0.453   7.088
 5248TIP3    H115621   0.572   0.415   7.127
 5248TIP3    H215622   0.482   0.537   7.132
 5249TIP3   OH215623   6.152   5.141   0.544
 5249TIP3    H115624   6.089   5.212   0.550
 5249TIP3    H215625   6.215   5.171   0.477
 5250TIP3   OH215626   7.792   1.545   4.567
 5250TIP3    H115627   7.738   1.603   4.621
 5250TIP3    H215628   7.729   1.496   4.514
 5251TIP3   OH215629   7.835   4.639   1.589
 5251TIP3    H115630   7.868   4.665   1.503
 5251TIP3    H215631   7.842   4.544   1.589
 5252TIP3   OH215632   6.935   7.765   7.499
 5252TIP3    H115633   6.976   7.742   7.415
 5252TIP3    H215634   6.860   7.819   7.475
 5253TIP3   OH215635   8.025   5.269   7.603
 5253TIP3    H115636   8.120   5.264   7.608
 5253TIP3    H215637   8.007   5.305   7.516
 5254TIP3   OH215638   0.018   6.554   0.649
 5254TIP3    H115639  -0.005   6.550   0.742
 5254TIP3    H215640   0.080   6.482   0.637
 5255TIP3   OH215641   5.142   8.954   3.897
 5255TIP3    H115642   5.217   9.006   3.925
 5255TIP3    H215643   5.174   8.864   3.892
 5256TIP3   OH215644   1.138   2.868   0.324
 5256TIP3    H115645   1.199   2.940   0.307
 5256TIP3    H215646   1.069   2.907   0.376
 5257TIP3   OH215647   7.319   1.290   0.127
 5257TIP3    H115648   7.242   1.238   0.104
 5257TIP3    H215649   7.334   1.269   0.219
 5258TIP3   OH215650   4.874   6.234   6.579
 5258TIP3    H115651   4.950   6.179   6.561
 5258TIP3    H215652   4.877   6.303   6.513
 5259TIP3   OH215653   5.931   3.446   5.851
 5259TIP3    H115654   5.950   3.455   5.758
 5259TIP3    H215655   5.932   3.535   5.885
 5260TIP3   OH215656   9.249   5.232   5.111
 5260TIP3    H115657   9.226   5.143   5.140
 5260TIP3    H215658   9.224   5.288   5.185
 5261TIP3   OH215659   0.808   6.302   0.398
 5261TIP3    H115660   0.765   6.346   0.472
 5261TIP3    H215661   0.883   6.256   0.437
 5262TIP3   OH215662   3.059   7.114   2.397
 5262TIP3    H115663   3.149   7.089   2.419
 5262TIP3    H215664   3.007   7.035   2.413
 5263TIP3   OH215665   6.662   4.067   2.235
 5263TIP3    H115666   6.727   4.012   2.280
 5263TIP3    H215667   6.647   4.139   2.296
 5264TIP3   OH215668   5.289   0.401   0.636
 5264TIP3    H115669   5.290   0.485   0.591
 5264TIP3    H215670   5.356   0.349   0.591
 5265TIP3   OH215671   6.770   1.736   6.824
 5265TIP3    H115672   6.815   1.748   6.907
 5265TIP3    H215673   6.789   1.646   6.799
 5266TIP3   OH215674   4.000   0.567   7.630
 5266TIP3    H115675   4.033   0.620   7.702
 5266TIP3    H215676   4.007   0.477   7.661
 5267TIP3   OH215677   3.661   8.680   0.936
 5267TIP3    H115678   3.613   8.607   0.975
 5267TIP3    H215679   3.737   8.693   0.993
 5268TIP3   OH215680   6.617   8.162   3.327
 5268TIP3    H115681   6.634   8.248   3.366
 5268TIP3    H215682   6.583   8.181   3.240
 5269TIP3   OH215683   0.821   7.033   5.753
 5269TIP3    H115684   0.865   6.950   5.736
 5269TIP3    H215685   0.771   7.019   5.833
 5270TIP3   OH215686   3.990   8.497   5.409
 5270TIP3    H115687   4.019   8.588   5.405
 5270TIP3    H215688   3.896   8.501   5.393
 5271TIP3   OH215689   8.301   0.293   6.340
 5271TIP3    H115690   8.314   0.203   6.311
 5271TIP3    H215691   8.251   0.286   6.421
 5272TIP3   OH215692   4.552   6.055   6.513
 5272TIP3    H115693   4.620   6.038   6.448
 5272TIP3    H215694   4.520   5.969   6.539
 5273TIP3   OH215695   4.121   2.763   0.125
 5273TIP3    H115696   4.152   2.771   0.034
 5273TIP3    H215697   4.201   2.769   0.177
 5274TIP3   OH215698   7.456   1.029   2.025
 5274TIP3    H115699   7.456   1.106   1.968
 5274TIP3    H215700   7.544   0.993   2.016
 5275TIP3   OH215701   4.114   1.942   5.563
 5275TIP3    H115702   4.176   1.897   5.506
 5275TIP3    H215703   4.087   2.019   5.513
 5276TIP3   OH215704   9.278   8.034   7.649
 5276TIP3    H115705   9.335   7.968   7.688
 5276TIP3    H215706   9.206   7.984   7.611
 5277TIP3   OH215707   8.822   8.013   1.902
 5277TIP3    H115708   8.771   7.933   1.901
 5277TIP3    H215709   8.762   8.080   1.870
 5278TIP3   OH215710   5.288   8.635   3.332
 5278TIP3    H115711   5.361   8.670   3.383
 5278TIP3    H215712   5.293   8.540   3.346
 5279TIP3   OH215713   3.432   0.944   0.145
 5279TIP3    H115714   3.392   0.921   0.229
 5279TIP3    H215715   3.448   1.038   0.150
 5280TIP3   OH215716   3.150   4.191   2.146
 5280TIP3    H115717   3.131   4.130   2.075
 5280TIP3    H215718   3.246   4.197   2.147
 5281TIP3   OH215719   0.740   0.152   1.733
 5281TIP3    H115720   0.676   0.097   1.687
 5281TIP3    H215721   0.713   0.148   1.825
 5282TIP3   OH215722   2.359   4.275   3.494
 5282TIP3    H115723   2.430   4.288   3.556
 5282TIP3    H215724   2.370   4.185   3.463
 5283TIP3   OH215725   1.620   0.055   7.307
 5283TIP3    H115726   1.673   0.113   7.362
 5283TIP3    H215727   1.629   0.091   7.219
 5284TIP3   OH215728   7.700   2.792   7.532
 5284TIP3    H115729   7.640   2.788   7.606
 5284TIP3    H215730   7.735   2.704   7.525
 5285TIP3   OH215731   5.192   1.088   6.439
 5285TIP3    H115732   5.116   1.118   6.488
 5285TIP3    H215733   5.267   1.118   6.491
 5286TIP3   OH215734   1.871   4.417   2.083
 5286TIP3    H115735   1.886   4.506   2.053
 5286TIP3    H215736   1.780   4.417   2.114
 5287TIP3   OH215737   1.654   5.445   3.457
 5287TIP3    H115738   1.690   5.492   3.382
 5287TIP3    H215739   1.719   5.378   3.478
 5288TIP3   OH215740   3.580   7.365   6.212
 5288TIP3    H115741   3.577   7.458   6.190
 5288TIP3    H215742   3.650   7.358   6.277
 5289TIP3   OH215743   4.347   1.464   7.128
 5289TIP3    H115744   4.293   1.389   7.104
 5289TIP3    H215745   4.287   1.539   7.127
 5290TIP3   OH215746   9.099   2.541   0.933
 5290TIP3    H115747   9.152   2.559   0.856
 5290TIP3    H215748   9.063   2.454   0.918
 5291TIP3   OH215749   0.888   0.815   7.130
 5291TIP3    H115750   0.886   0.722   7.152
 5291TIP3    H215751   0.888   0.860   7.215
 5292TIP3   OH215752   6.079   1.182   3.973
 5292TIP3    H115753   6.121   1.114   3.920
 5292TIP3    H215754   6.111   1.166   4.062
 5293TIP3   OH215755   3.764   6.530   0.331
 5293TIP3    H115756   3.838   6.591   0.337
 5293TIP3    H215757   3.718   6.541   0.414
 5294TIP3   OH215758   5.250   5.513   4.682
 5294TIP3    H115759   5.177   5.504   4.745
 5294TIP3    H215760   5.305   5.582   4.719
 5295TIP3   OH215761   8.263   4.850   7.231
 5295TIP3    H115762   8.227   4.793   7.163
 5295TIP3    H215763   8.196   4.852   7.299
 5296TIP3   OH215764   3.278   1.538   1.960
 5296TIP3    H115765   3.348   1.593   1.994
 5296TIP3    H215766   3.272   1.562   1.867
 5297TIP3   OH215767   8.924   5.375   6.744
 5297TIP3    H115768   9.010   5.335   6.728
 5297TIP3    H215769   8.939   5.434   6.817
 5298TIP3   OH215770   0.466   0.077   3.395
 5298TIP3    H115771   0.539   0.079   3.457
 5298TIP3    H215772   0.389   0.098   3.448
 5299TIP3   OH215773   6.953   2.283   3.083
 5299TIP3    H115774   6.952   2.372   3.119
 5299TIP3    H215775   6.899   2.232   3.144
 5300TIP3   OH215776   0.977   2.800   5.155
 5300TIP3    H115777   0.926   2.793   5.236
 5300TIP3    H215778   1.032   2.878   5.168
 5301TIP3   OH215779   1.687   1.049   6.962
 5301TIP3    H115780   1.714   1.021   6.874
 5301TIP3    H215781   1.718   1.139   6.969
 5302TIP3   OH215782   9.438   0.592   3.428
 5302TIP3    H115783   9.453   0.620   3.519
 5302TIP3    H215784   9.415   0.673   3.382
 5303TIP3   OH215785   1.940   2.472   5.318
 5303TIP3    H115786   2.015   2.500   5.370
 5303TIP3    H215787   1.879   2.435   5.383
 5304TIP3   OH215788   0.241   0.471   1.108
 5304TIP3    H115789   0.152   0.456   1.141
 5304TIP3    H215790   0.269   0.552   1.150
 5305TIP3   OH215791   9.493   6.882   4.204
 5305TIP3    H115792   9.526   6.930   4.128
 5305TIP3    H215793   9.527   6.931   4.279
 5306TIP3   OH215794   3.179   7.073   7.724
 5306TIP3    H115795   3.210   7.001   7.668
 5306TIP3    H215796   3.086   7.080   7.704
 5307TIP3   OH215797   9.084   7.222   2.661
 5307TIP3    H115798   9.048   7.294   2.713
 5307TIP3    H215799   9.101   7.260   2.575
 5308TIP3   OH215800   5.475   7.630   7.299
 5308TIP3    H115801   5.467   7.644   7.393
 5308TIP3    H215802   5.431   7.547   7.283
 5309TIP3   OH215803   8.913   0.833   0.714
 5309TIP3    H115804   8.883   0.752   0.673
 5309TIP3    H215805   8.965   0.805   0.790
 5310TIP3   OH215806   7.946   7.665   5.260
 5310TIP3    H115807   7.955   7.736   5.196
 5310TIP3    H215808   7.888   7.701   5.328
 5311TIP3   OH215809   2.107   0.287   7.610
 5311TIP3    H115810   2.063   0.365   7.574
 5311TIP3    H215811   2.156   0.319   7.685
 5312TIP3   OH215812   6.168   7.040   2.624
 5312TIP3    H115813   6.121   7.058   2.543
 5312TIP3    H215814   6.137   6.954   2.652
 5313TIP3   OH215815   5.210   6.638   3.261
 5313TIP3    H115816   5.245   6.669   3.177
 5313TIP3    H215817   5.282   6.588   3.299
 5314TIP3   OH215818   9.531   7.426   3.587
 5314TIP3    H115819   9.556   7.509   3.547
 5314TIP3    H215820   9.571   7.359   3.531
 5315TIP3   OH215821   4.846   0.198   7.708
 5315TIP3    H115822   4.768   0.147   7.729
 5315TIP3    H215823   4.850   0.199   7.612
 5316TIP3   OH215824   2.427   1.642   2.495
 5316TIP3    H115825   2.460   1.552   2.485
 5316TIP3    H215826   2.457   1.669   2.582
 5317TIP3   OH215827   1.660   7.639   1.265
 5317TIP3    H115828   1.598   7.566   1.263
 5317TIP3    H215829   1.702   7.632   1.351
 5318TIP3   OH215830   8.625   1.645   2.238
 5318TIP3    H115831   8.540   1.610   2.267
 5318TIP3    H215832   8.653   1.585   2.169
 5319TIP3   OH215833   8.069   2.160   3.065
 5319TIP3    H115834   8.093   2.235   3.011
 5319TIP3    H215835   8.029   2.098   3.005
 5320TIP3   OH215836   7.667   4.719   5.057
 5320TIP3    H115837   7.667   4.806   5.017
 5320TIP3    H215838   7.621   4.731   5.141
 5321TIP3   OH215839   4.339   1.711   5.034
 5321TIP3    H115840   4.340   1.807   5.044
 5321TIP3    H215841   4.249   1.686   5.053
 5322TIP3   OH215842   0.898   0.605   3.868
 5322TIP3    H115843   0.980   0.634   3.829
 5322TIP3    H215844   0.913   0.613   3.962
 5323TIP3   OH215845   3.626   1.937   5.058
 5323TIP3    H115846   3.557   1.935   4.992
 5323TIP3    H215847   3.690   2.000   5.023
 5324TIP3   OH215848   1.824   5.127   3.267
 5324TIP3    H115849   1.823   5.175   3.350
 5324TIP3    H215850   1.853   5.039   3.291
 5325TIP3   OH215851   6.148   3.705   4.818
 5325TIP3    H115852   6.111   3.622   4.848
 5325TIP3    H215853   6.214   3.727   4.884
 5326TIP3   OH215854   6.335   1.835   4.210
 5326TIP3    H115855   6.373   1.887   4.282
 5326TIP3    H215856   6.407   1.824   4.148
 5327TIP3   OH215857   7.229   4.163   0.965
 5327TIP3    H115858   7.256   4.254   0.962
 5327TIP3    H215859   7.163   4.155   0.895
 5328TIP3   OH215860   2.937   1.436   5.655
 5328TIP3    H115861   2.905   1.432   5.745
 5328TIP3    H215862   3.007   1.371   5.651
 5329TIP3   OH215863   5.589   0.437   1.159
 5329TIP3    H115864   5.628   0.472   1.238
 5329TIP3    H215865   5.611   0.344   1.160
 5330TIP3   OH215866   4.618   4.025   1.451
 5330TIP3    H115867   4.560   4.014   1.526
 5330TIP3    H215868   4.583   3.966   1.385
 5331TIP3   OH215869   0.923   5.622   4.640
 5331TIP3    H115870   0.988   5.692   4.638
 5331TIP3    H215871   0.880   5.627   4.554
 5332TIP3   OH215872   4.749   0.201   7.449
 5332TIP3    H115873   4.771   0.163   7.364
 5332TIP3    H215874   4.726   0.292   7.429
 5333TIP3   OH215875   5.142   0.677   1.096
 5333TIP3    H115876   5.214   0.627   1.134
 5333TIP3    H215877   5.098   0.716   1.172
 5334TIP3   OH215878   0.347   3.027   2.351
 5334TIP3    H115879   0.387   3.072   2.277
 5334TIP3    H215880   0.381   2.937   2.346
 5335TIP3   OH215881   0.742   1.245   4.947
 5335TIP3    H115882   0.680   1.316   4.965
 5335TIP3    H215883   0.735   1.231   4.852
 5336TIP3   OH215884   1.129   1.444   0.284
 5336TIP3    H115885   1.044   1.399   0.285
 5336TIP3    H215886   1.134   1.487   0.369
 5337TIP3   OH215887   3.371   1.325   6.736
 5337TIP3    H115888   3.422   1.297   6.660
 5337TIP3    H215889   3.283   1.338   6.702
 5338TIP3   OH215890   6.387   3.017   7.336
 5338TIP3    H115891   6.309   3.071   7.343
 5338TIP3    H215892   6.359   2.942   7.284
 5339TIP3   OH215893   1.171   5.804   6.132
 5339TIP3    H115894   1.159   5.819   6.038
 5339TIP3    H215895   1.082   5.794   6.166
 5340TIP3   OH215896   9.106   8.154   3.983
 5340TIP3    H115897   9.042   8.181   3.917
 5340TIP3    H215898   9.101   8.059   3.985
 5341TIP3   OH215899   4.382   1.150   5.628
 5341TIP3    H115900   4.378   1.113   5.540
 5341TIP3    H215901   4.331   1.232   5.621
 5342TIP3   OH215902   1.995   5.711   4.054
 5342TIP3    H115903   1.968   5.796   4.090
 5342TIP3    H215904   1.928   5.650   4.086
 5343TIP3   OH215905   1.817   5.624   3.283
 5343TIP3    H115906   1.893   5.617   3.225
 5343TIP3    H215907   1.803   5.718   3.294
 5344TIP3   OH215908   4.168   8.084   1.818
 5344TIP3    H115909   4.132   8.168   1.845
 5344TIP3    H215910   4.115   8.019   1.863
 5345TIP3   OH215911   2.397   2.163   7.453
 5345TIP3    H115912   2.331   2.136   7.388
 5345TIP3    H215913   2.379   2.108   7.529
 5346TIP3   OH215914   6.301   8.400   1.175
 5346TIP3    H115915   6.212   8.415   1.145
 5346TIP3    H215916   6.332   8.486   1.202
 5347TIP3   OH215917   8.625   1.972   6.734
 5347TIP3    H115918   8.564   2.040   6.706
 5347TIP3    H215919   8.572   1.892   6.737
 5348TIP3   OH215920   8.382   8.939   1.038
 5348TIP3    H115921   8.429   9.021   1.053
 5348TIP3    H215922   8.402   8.885   1.114
 5349TIP3   OH215923   4.690   7.096   6.896
 5349TIP3    H115924   4.690   7.171   6.955
 5349TIP3    H215925   4.600   7.092   6.863
 5350TIP3   OH215926   7.057   8.124   0.552
 5350TIP3    H115927   7.097   8.068   0.618
 5350TIP3    H215928   7.122   8.192   0.535
 5351TIP3   OH215929   3.365   3.412   2.017
 5351TIP3    H115930   3.447   3.381   2.057
 5351TIP3    H215931   3.380   3.505   2.001
 5352TIP3   OH215932   7.996   1.394   6.511
 5352TIP3    H115933   7.941   1.452   6.458
 5352TIP3    H215934   8.049   1.347   6.447
 5353TIP3   OH215935   6.199   1.709   5.803
 5353TIP3    H115936   6.180   1.731   5.894
 5353TIP3    H215937   6.293   1.722   5.794
 5354TIP3   OH215938   2.274   7.226   7.267
 5354TIP3    H115939   2.212   7.156   7.245
 5354TIP3    H215940   2.224   7.307   7.259
 5355TIP3   OH215941   5.535   7.425   0.679
 5355TIP3    H115942   5.569   7.514   0.685
 5355TIP3    H215943   5.556   7.386   0.764
 5356TIP3   OH215944   7.687   4.412   1.856
 5356TIP3    H115945   7.767   4.463   1.868
 5356TIP3    H215946   7.630   4.437   1.928
 5357TIP3   OH215947   5.462   7.997   5.965
 5357TIP3    H115948   5.397   8.056   5.929
 5357TIP3    H215949   5.530   8.055   6.000
 5358TIP3   OH215950   8.665   1.203   5.702
 5358TIP3    H115951   8.704   1.209   5.789
 5358TIP3    H215952   8.739   1.183   5.644
 5359TIP3   OH215953   3.517   2.454   4.366
 5359TIP3    H115954   3.559   2.497   4.440
 5359TIP3    H215955   3.494   2.526   4.307
 5360TIP3   OH215956   5.882   3.885   2.942
 5360TIP3    H115957   5.804   3.937   2.926
 5360TIP3    H215958   5.921   3.873   2.856
 5361TIP3   OH215959   7.175   5.794   7.336
 5361TIP3    H115960   7.142   5.863   7.395
 5361TIP3    H215961   7.141   5.818   7.250
 5362TIP3   OH215962   2.325   6.064   1.768
 5362TIP3    H115963   2.363   6.044   1.682
 5362TIP3    H215964   2.315   5.978   1.810
 5363TIP3   OH215965   6.834   8.423   2.699
 5363TIP3    H115966   6.910   8.402   2.644
 5363TIP3    H215967   6.844   8.366   2.776
 5364TIP3   OH215968   7.505   6.647   1.634
 5364TIP3    H115969   7.428   6.616   1.682
 5364TIP3    H215970   7.577   6.592   1.665
 5365TIP3   OH215971   4.111   8.695   4.726
 5365TIP3    H115972   4.111   8.787   4.698
 5365TIP3    H215973   4.028   8.660   4.695
 5366TIP3   OH215974   4.433   7.816   1.711
 5366TIP3    H115975   4.432   7.875   1.636
 5366TIP3    H215976   4.351   7.767   1.705
 5367TIP3   OH215977   0.571   8.874   1.478
 5367TIP3    H115978   0.594   8.793   1.433
 5367TIP3    H215979   0.650   8.897   1.528
 5368TIP3   OH215980   1.066   1.794   1.142
 5368TIP3    H115981   1.128   1.863   1.169
 5368TIP3    H215982   1.119   1.735   1.089
 5369TIP3   OH215983   5.285   6.293   4.694
 5369TIP3    H115984   5.308   6.254   4.609
 5369TIP3    H215985   5.369   6.319   4.732
 5370TIP3   OH215986   5.543   1.166   4.266
 5370TIP3    H115987   5.565   1.073   4.277
 5370TIP3    H215988   5.492   1.188   4.344
 5371TIP3   OH215989   1.065   8.623   2.866
 5371TIP3    H115990   1.018   8.587   2.791
 5371TIP3    H215991   1.030   8.577   2.942
 5372TIP3   OH215992   8.290   8.719   4.617
 5372TIP3    H115993   8.218   8.676   4.665
 5372TIP3    H215994   8.310   8.797   4.668
 5373TIP3   OH215995   4.826   2.991   6.738
 5373TIP3    H115996   4.876   2.966   6.660
 5373TIP3    H215997   4.872   3.068   6.772
 5374TIP3   OH215998   4.728   4.038   6.641
 5374TIP3    H115999   4.738   4.114   6.698
 5374TIP3    H216000   4.801   4.045   6.579
 5375TIP3   OH216001   4.799   6.234   7.531
 5375TIP3    H116002   4.728   6.215   7.470
 5375TIP3    H216003   4.785   6.173   7.603
 5376TIP3   OH216004   1.192   3.290   4.278
 5376TIP3    H116005   1.122   3.355   4.279
 5376TIP3    H216006   1.149   3.208   4.304
 5377TIP3   OH216007   7.443   5.244   7.473
 5377TIP3    H116008   7.424   5.326   7.428
 5377TIP3    H216009   7.411   5.256   7.562
 5378TIP3   OH216010   2.864   7.999   6.732
 5378TIP3    H116011   2.780   8.025   6.771
 5378TIP3    H216012   2.900   7.935   6.794
 5379TIP3   OH216013   7.227   4.455   0.289
 5379TIP3    H116014   7.230   4.398   0.212
 5379TIP3    H216015   7.306   4.509   0.281
 5380TIP3   OH216016   0.615   7.895   0.347
 5380TIP3    H116017   0.642   7.822   0.403
 5380TIP3    H216018   0.519   7.892   0.349
 5381TIP3   OH216019   0.562   7.727   6.083
 5381TIP3    H116020   0.524   7.815   6.086
 5381TIP3    H216021   0.657   7.742   6.085
 5382TIP3   OH216022   3.066   7.323   5.792
 5382TIP3    H116023   3.127   7.340   5.720
 5382TIP3    H216024   2.997   7.271   5.753
 5383TIP3   OH216025   1.448   1.883   5.945
 5383TIP3    H116026   1.415   1.922   6.026
 5383TIP3    H216027   1.451   1.789   5.964
 5384TIP3   OH216028   6.995   1.488   2.310
 5384TIP3    H116029   6.913   1.537   2.305
 5384TIP3    H216030   7.027   1.505   2.399
 5385TIP3   OH216031   4.760   0.249   2.317
 5385TIP3    H116032   4.835   0.192   2.299
 5385TIP3    H216033   4.791   0.337   2.296
 5386TIP3   OH216034   4.684   0.290   2.046
 5386TIP3    H116035   4.683   0.259   2.136
 5386TIP3    H216036   4.642   0.220   1.996
 5387TIP3   OH216037   5.678   7.670   0.671
 5387TIP3    H116038   5.708   7.669   0.580
 5387TIP3    H216039   5.627   7.750   0.678
 5388TIP3   OH216040   2.208   3.530   1.080
 5388TIP3    H116041   2.225   3.471   1.153
 5388TIP3    H216042   2.116   3.513   1.057
 5389TIP3   OH216043   8.737   2.685   2.071
 5389TIP3    H116044   8.659   2.739   2.084
 5389TIP3    H216045   8.800   2.719   2.135
 5390TIP3   OH216046   7.027   2.265   5.838
 5390TIP3    H116047   7.054   2.297   5.924
 5390TIP3    H216048   7.059   2.331   5.776
 5391TIP3   OH216049   3.699   6.293   7.277
 5391TIP3    H116050   3.634   6.309   7.209
 5391TIP3    H216051   3.779   6.333   7.244
 5392TIP3   OH216052   1.402   4.983   0.545
 5392TIP3    H116053   1.404   5.003   0.451
 5392TIP3    H216054   1.494   4.972   0.568
 5393TIP3   OH216055   9.174   4.511   6.640
 5393TIP3    H116056   9.166   4.421   6.606
 5393TIP3    H216057   9.266   4.519   6.665
 5394TIP3   OH216058   4.246   6.397   3.648
 5394TIP3    H116059   4.174   6.459   3.633
 5394TIP3    H216060   4.296   6.400   3.567
 5395TIP3   OH216061   5.918   0.959   5.742
 5395TIP3    H116062   6.013   0.969   5.730
 5395TIP3    H216063   5.883   1.047   5.730
 5396TIP3   OH216064   3.630   7.582   4.539
 5396TIP3    H116065   3.697   7.642   4.505
 5396TIP3    H216066   3.606   7.620   4.623
 5397TIP3   OH216067   8.643   5.200   1.569
 5397TIP3    H116068   8.738   5.206   1.585
 5397TIP3    H216069   8.615   5.128   1.626
 5398TIP3   OH216070   8.930   7.976   0.419
 5398TIP3    H116071   8.901   7.941   0.335
 5398TIP3    H216072   8.901   8.068   0.418
 5399TIP3   OH216073   9.530   8.756   3.445
 5399TIP3    H116074   9.549   8.789   3.357
 5399TIP3    H216075   9.466   8.818   3.481
 5400TIP3   OH216076   2.820   7.428   3.016
 5400TIP3    H116077   2.758   7.358   2.995
 5400TIP3    H216078   2.885   7.424   2.945
 5401TIP3   OH216079   6.459   3.905   3.184
 5401TIP3    H116080   6.411   3.984   3.209
 5401TIP3    H216081   6.399   3.833   3.205
 5402TIP3   OH216082   4.253   3.187   4.442
 5402TIP3    H116083   4.326   3.180   4.504
 5402TIP3    H216084   4.238   3.097   4.413
 5403TIP3   OH216085   2.598   8.618   4.182
 5403TIP3    H116086   2.599   8.684   4.251
 5403TIP3    H216087   2.554   8.542   4.221
 5404TIP3   OH216088   2.977   8.978   5.098
 5404TIP3    H116089   3.054   8.924   5.116
 5404TIP3    H216090   2.905   8.915   5.094
 5405TIP3   OH216091   2.405   7.692   6.810
 5405TIP3    H116092   2.437   7.602   6.814
 5405TIP3    H216093   2.349   7.701   6.887
 5406TIP3   OH216094   2.940   0.728   3.731
 5406TIP3    H116095   2.902   0.684   3.654
 5406TIP3    H216096   2.873   0.718   3.799
 5407TIP3   OH216097   7.455   2.798   1.072
 5407TIP3    H116098   7.533   2.819   1.022
 5407TIP3    H216099   7.383   2.836   1.020
 5408TIP3   OH216100   5.056   5.475   1.392
 5408TIP3    H116101   4.999   5.397   1.396
 5408TIP3    H216102   4.997   5.548   1.408
 5409TIP3   OH216103   1.663   3.957   0.868
 5409TIP3    H116104   1.713   3.922   0.795
 5409TIP3    H216105   1.661   4.052   0.853
 5410TIP3   OH216106   2.324   2.597   3.580
 5410TIP3    H116107   2.308   2.547   3.500
 5410TIP3    H216108   2.243   2.645   3.595
 5411TIP3   OH216109   0.099   3.732   7.599
 5411TIP3    H116110   0.025   3.754   7.656
 5411TIP3    H216111   0.138   3.816   7.576
 5412TIP3   OH216112   6.859   5.820   4.441
 5412TIP3    H116113   6.858   5.872   4.522
 5412TIP3    H216114   6.898   5.879   4.376
 5413TIP3   OH216115   3.159   3.321   2.193
 5413TIP3    H116116   3.079   3.365   2.164
 5413TIP3    H216117   3.220   3.333   2.120
 5414TIP3   OH216118   7.335   3.909   5.641
 5414TIP3    H116119   7.398   3.847   5.603
 5414TIP3    H216120   7.365   3.921   5.731
 5415TIP3   OH216121   0.306   4.206   1.905
 5415TIP3    H116122   0.351   4.216   1.989
 5415TIP3    H216123   0.371   4.232   1.840
 5416TIP3   OH216124   6.341   4.611   1.948
 5416TIP3    H116125   6.271   4.676   1.957
 5416TIP3    H216126   6.326   4.572   1.862
 5417TIP3   OH216127   6.267   0.625   2.714
 5417TIP3    H116128   6.336   0.690   2.728
 5417TIP3    H216129   6.307   0.561   2.655
 5418TIP3   OH216130   0.156   6.560   6.725
 5418TIP3    H116131   0.239   6.593   6.693
 5418TIP3    H216132   0.110   6.530   6.646
 5419TIP3   OH216133   4.632   0.705   3.671
 5419TIP3    H116134   4.544   0.690   3.636
 5419TIP3    H216135   4.690   0.699   3.595
 5420TIP3   OH216136   2.152   1.424   6.293
 5420TIP3    H116137   2.205   1.498   6.323
 5420TIP3    H216138   2.114   1.454   6.210
 5421TIP3   OH216139   0.082   5.259   2.472
 5421TIP3    H116140   0.032   5.193   2.423
 5421TIP3    H216141   0.025   5.336   2.472
 5422TIP3   OH216142   5.201   4.986   0.832
 5422TIP3    H116143   5.160   4.902   0.812
 5422TIP3    H216144   5.186   4.998   0.926
 5423TIP3   OH216145   5.963   7.412   6.381
 5423TIP3    H116146   5.971   7.462   6.462
 5423TIP3    H216147   5.879   7.439   6.344
 5424TIP3   OH216148   6.914   0.737   7.051
 5424TIP3    H116149   6.929   0.771   6.963
 5424TIP3    H216150   6.925   0.814   7.108
 5425TIP3   OH216151   3.232   1.316   7.438
 5425TIP3    H116152   3.273   1.250   7.494
 5425TIP3    H216153   3.248   1.399   7.483
 5426TIP3   OH216154   1.112   6.271   2.699
 5426TIP3    H116155   1.205   6.294   2.699
 5426TIP3    H216156   1.101   6.212   2.624
 5427TIP3   OH216157   5.026   7.099   5.145
 5427TIP3    H116158   4.940   7.139   5.131
 5427TIP3    H216159   5.025   7.070   5.236
 5428TIP3   OH216160   0.102   8.381   2.293
 5428TIP3    H116161   0.194   8.401   2.274
 5428TIP3    H216162   0.053   8.450   2.249
 5429TIP3   OH216163   3.730   6.343   0.904
 5429TIP3    H116164   3.782   6.418   0.876
 5429TIP3    H216165   3.695   6.368   0.989
 5430TIP3   OH216166   6.574   7.318   5.440
 5430TIP3    H116167   6.539   7.354   5.521
 5430TIP3    H216168   6.525   7.237   5.427
 5431TIP3   OH216169   6.546   2.782   3.522
 5431TIP3    H116170   6.625   2.812   3.478
 5431TIP3    H216171   6.525   2.698   3.480
 5432TIP3   OH216172   1.883   0.834   5.417
 5432TIP3    H116173   1.910   0.781   5.492
 5432TIP3    H216174   1.964   0.868   5.381
 5433TIP3   OH216175   8.255   0.345   0.733
 5433TIP3    H116176   8.279   0.300   0.653
 5433TIP3    H216177   8.260   0.278   0.801
 5434TIP3   OH216178   6.676   8.127   2.982
 5434TIP3    H116179   6.667   8.219   2.959
 5434TIP3    H216180   6.663   8.080   2.900
 5435TIP3   OH216181   7.712   8.562   7.706
 5435TIP3    H116182   7.794   8.577   7.660
 5435TIP3    H216183   7.648   8.615   7.658
 5436TIP3   OH216184   9.108   6.013   5.469
 5436TIP3    H116185   9.015   6.025   5.448
 5436TIP3    H216186   9.137   5.944   5.409
 5437TIP3   OH216187   3.940   0.652   6.707
 5437TIP3    H116188   3.973   0.741   6.715
 5437TIP3    H216189   4.016   0.596   6.724
 5438TIP3   OH216190   8.516   2.466   0.768
 5438TIP3    H116191   8.490   2.557   0.779
 5438TIP3    H216192   8.581   2.451   0.837
 5439TIP3   OH216193   8.638   5.054   4.150
 5439TIP3    H116194   8.601   4.966   4.145
 5439TIP3    H216195   8.727   5.044   4.114
 5440TIP3   OH216196   5.314   0.469   1.158
 5440TIP3    H116197   5.293   0.430   1.074
 5440TIP3    H216198   5.408   0.486   1.154
 5441TIP3   OH216199   8.656   7.721   4.059
 5441TIP3    H116200   8.636   7.630   4.079
 5441TIP3    H216201   8.619   7.736   3.972
 5442TIP3   OH216202   3.548   0.509   6.295
 5442TIP3    H116203   3.636   0.522   6.331
 5442TIP3    H216204   3.552   0.424   6.253
 5443TIP3   OH216205   7.715   5.976   0.550
 5443TIP3    H116206   7.709   6.046   0.616
 5443TIP3    H216207   7.625   5.946   0.538
 5444TIP3   OH216208   3.361   5.177   0.712
 5444TIP3    H116209   3.456   5.168   0.715
 5444TIP3    H216210   3.346   5.271   0.701
 5445TIP3   OH216211   8.723   6.522   1.784
 5445TIP3    H116212   8.755   6.434   1.769
 5445TIP3    H216213   8.802   6.575   1.794
 5446TIP3   OH216214   9.148   0.966   2.023
 5446TIP3    H116215   9.242   0.957   2.040
 5446TIP3    H216216   9.141   1.041   1.963
 5447TIP3   OH216217   1.976   0.091   5.377
 5447TIP3    H116218   1.946   0.051   5.295
 5447TIP3    H216219   2.006   0.178   5.351
 5448TIP3   OH216220   9.046   1.008   3.177
 5448TIP3    H116221   9.028   1.066   3.251
 5448TIP3    H216222   9.020   0.921   3.208
 5449TIP3   OH216223   7.852   5.890   4.772
 5449TIP3    H116224   7.912   5.952   4.730
 5449TIP3    H216225   7.853   5.814   4.714
 5450TIP3   OH216226   2.731   3.568   7.423
 5450TIP3    H116227   2.709   3.637   7.486
 5450TIP3    H216228   2.652   3.556   7.371
 5451TIP3   OH216229   4.529   2.597   1.983
 5451TIP3    H116230   4.606   2.624   1.933
 5451TIP3    H216231   4.457   2.650   1.949
 5452TIP3   OH216232   8.298   3.071   0.559
 5452TIP3    H116233   8.316   3.132   0.630
 5452TIP3    H216234   8.229   3.014   0.592
 5453TIP3   OH216235   7.724   7.346   5.703
 5453TIP3    H116236   7.632   7.323   5.695
 5453TIP3    H216237   7.771   7.270   5.668
 5454TIP3   OH216238   6.598   0.737   6.373
 5454TIP3    H116239   6.634   0.816   6.333
 5454TIP3    H216240   6.656   0.719   6.447
 5455TIP3   OH216241   3.903   5.910   7.052
 5455TIP3    H116242   3.888   5.817   7.039
 5455TIP3    H216243   3.823   5.952   7.020
 5456TIP3   OH216244   4.883   2.328   5.530
 5456TIP3    H116245   4.889   2.418   5.564
 5456TIP3    H216246   4.808   2.330   5.471
 5457TIP3   OH216247   6.995   4.902   4.428
 5457TIP3    H116248   7.035   4.819   4.456
 5457TIP3    H216249   6.951   4.935   4.506
 5458TIP3   OH216250   1.205   0.751   2.498
 5458TIP3    H116251   1.117   0.755   2.535
 5458TIP3    H216252   1.194   0.704   2.416
 5459TIP3   OH216253   1.237   0.303   4.296
 5459TIP3    H116254   1.293   0.321   4.220
 5459TIP3    H216255   1.299   0.280   4.366
 5460TIP3   OH216256   7.480   3.382   5.317
 5460TIP3    H116257   7.574   3.375   5.336
 5460TIP3    H216258   7.467   3.473   5.291
 5461TIP3   OH216259   8.259   2.930   1.448
 5461TIP3    H116260   8.280   3.017   1.413
 5461TIP3    H216261   8.332   2.875   1.421
 5462TIP3   OH216262   6.400   4.648   4.980
 5462TIP3    H116263   6.328   4.705   5.007
 5462TIP3    H216264   6.365   4.597   4.908
 5463TIP3   OH216265   1.342   4.346   0.701
 5463TIP3    H116266   1.377   4.434   0.689
 5463TIP3    H216267   1.321   4.316   0.612
 5464TIP3   OH216268   5.718   7.374   5.472
 5464TIP3    H116269   5.626   7.379   5.497
 5464TIP3    H216270   5.738   7.280   5.471
 5465TIP3   OH216271   8.288   2.276   5.986
 5465TIP3    H116272   8.215   2.218   6.009
 5465TIP3    H216273   8.276   2.293   5.892
 5466TIP3   OH216274   8.272   7.586   0.846
 5466TIP3    H116275   8.320   7.562   0.925
 5466TIP3    H216276   8.333   7.638   0.794
 5467TIP3   OH216277   4.504   5.628   0.613
 5467TIP3    H116278   4.519   5.590   0.527
 5467TIP3    H216279   4.409   5.642   0.616
 5468TIP3   OH216280   6.512   2.391   1.262
 5468TIP3    H116281   6.454   2.405   1.337
 5468TIP3    H216282   6.553   2.476   1.247
 5469TIP3   OH216283   5.095   4.316   4.995
 5469TIP3    H116284   5.146   4.391   4.966
 5469TIP3    H216285   5.036   4.353   5.062
 5470TIP3   OH216286   1.238   8.339   2.653
 5470TIP3    H116287   1.263   8.250   2.629
 5470TIP3    H216288   1.195   8.330   2.738
 5471TIP3   OH216289   9.508   1.356   4.576
 5471TIP3    H116290   9.574   1.406   4.625
 5471TIP3    H216291   9.508   1.269   4.618
 5472TIP3   OH216292   4.514   7.497   4.423
 5472TIP3    H116293   4.472   7.493   4.337
 5472TIP3    H216294   4.460   7.556   4.474
 5473TIP3   OH216295   6.719   8.776   0.547
 5473TIP3    H116296   6.719   8.681   0.555
 5473TIP3    H216297   6.792   8.805   0.603
 5474TIP3   OH216298   8.321   4.672   4.125
 5474TIP3    H116299   8.381   4.643   4.056
 5474TIP3    H216300   8.239   4.689   4.079
 5475TIP3   OH216301   7.095   6.707   2.148
 5475TIP3    H116302   7.053   6.787   2.114
 5475TIP3    H216303   7.173   6.696   2.094
 5476TIP3   OH216304   8.009   2.321   7.128
 5476TIP3    H116305   7.983   2.241   7.175
 5476TIP3    H216306   8.015   2.294   7.036
 5477TIP3   OH216307   3.374   6.280   4.724
 5477TIP3    H116308   3.286   6.276   4.762
 5477TIP3    H216309   3.428   6.229   4.783
 5478TIP3   OH216310   7.627   1.363   3.481
 5478TIP3    H116311   7.697   1.329   3.537
 5478TIP3    H216312   7.602   1.289   3.426
 5479TIP3   OH216313   1.750   6.299   4.196
 5479TIP3    H116314   1.812   6.294   4.268
 5479TIP3    H216315   1.801   6.333   4.122
 5480TIP3   OH216316   1.190   3.459   2.010
 5480TIP3    H116317   1.113   3.480   2.063
 5480TIP3    H216318   1.264   3.472   2.069
 5481TIP3   OH216319   2.759   3.432   4.705
 5481TIP3    H116320   2.685   3.493   4.701
 5481TIP3    H216321   2.729   3.363   4.763
 5482TIP3   OH216322   0.942   0.171   6.466
 5482TIP3    H116323   0.909   0.138   6.550
 5482TIP3    H216324   0.945   0.093   6.410
 5483TIP3   OH216325   8.385   8.640   7.389
 5483TIP3    H116326   8.475   8.674   7.395
 5483TIP3    H216327   8.345   8.690   7.318
 5484TIP3   OH216328   6.004   7.367   4.077
 5484TIP3    H116329   5.988   7.437   4.014
 5484TIP3    H216330   6.018   7.411   4.160
 5485TIP3   OH216331   8.768   3.010   4.505
 5485TIP3    H116332   8.831   3.057   4.560
 5485TIP3    H216333   8.752   3.068   4.431
 5486TIP3   OH216334   0.295   7.121   6.678
 5486TIP3    H116335   0.357   7.056   6.644
 5486TIP3    H216336   0.291   7.188   6.610
 5487TIP3   OH216337   7.951   5.331   6.756
 5487TIP3    H116338   7.871   5.284   6.780
 5487TIP3    H216339   7.967   5.306   6.665
 5488TIP3   OH216340   2.596   6.104   0.110
 5488TIP3    H116341   2.671   6.055   0.075
 5488TIP3    H216342   2.628   6.141   0.192
 5489TIP3   OH216343   2.444   2.263   4.319
 5489TIP3    H116344   2.483   2.253   4.232
 5489TIP3    H216345   2.372   2.325   4.306
 5490TIP3   OH216346   2.582   0.251   6.378
 5490TIP3    H116347   2.509   0.296   6.420
 5490TIP3    H216348   2.651   0.317   6.372
 5491TIP3   OH216349   6.489   2.538   0.906
 5491TIP3    H116350   6.519   2.458   0.949
 5491TIP3    H216351   6.398   2.547   0.935
 5492TIP3   OH216352   7.436   0.973   6.336
 5492TIP3    H116353   7.503   1.008   6.395
 5492TIP3    H216354   7.379   0.922   6.393
 5493TIP3   OH216355   9.484   7.130   0.984
 5493TIP3    H116356   9.571   7.160   1.008
 5493TIP3    H216357   9.481   7.139   0.889
 5494TIP3   OH216358   7.161   7.080   6.784
 5494TIP3    H116359   7.105   7.155   6.764
 5494TIP3    H216360   7.182   7.090   6.877
 5495TIP3   OH216361   5.778   6.286   3.200
 5495TIP3    H116362   5.854   6.229   3.188
 5495TIP3    H216363   5.706   6.239   3.158
 5496TIP3   OH216364   7.129   4.421   6.094
 5496TIP3    H116365   7.120   4.495   6.155
 5496TIP3    H216366   7.134   4.462   6.008
 5497TIP3   OH216367   4.498   5.424   0.104
 5497TIP3    H116368   4.571   5.379   0.062
 5497TIP3    H216369   4.462   5.359   0.165
 5498TIP3   OH216370   1.263   6.546   6.875
 5498TIP3    H116371   1.345   6.590   6.850
 5498TIP3    H216372   1.282   6.453   6.864
 5499TIP3   OH216373   5.497   3.737   2.601
 5499TIP3    H116374   5.503   3.664   2.540
 5499TIP3    H216375   5.551   3.711   2.675
 5500TIP3   OH216376   1.765   3.232   3.814
 5500TIP3    H116377   1.734   3.308   3.765
 5500TIP3    H216378   1.707   3.227   3.890
 5501TIP3   OH216379   2.621   6.088   4.418
 5501TIP3    H116380   2.660   6.171   4.444
 5501TIP3    H216381   2.583   6.105   4.332
 5502TIP3   OH216382   3.775   3.937   5.083
 5502TIP3    H116383   3.709   3.876   5.117
 5502TIP3    H216384   3.858   3.895   5.104
 5503TIP3   OH216385   8.662   6.653   1.033
 5503TIP3    H116386   8.692   6.691   1.116
 5503TIP3    H216387   8.683   6.720   0.968
 5504TIP3   OH216388   4.201   5.268   2.997
 5504TIP3    H116389   4.273   5.332   3.001
 5504TIP3    H216390   4.125   5.318   2.969
 5505TIP3   OH216391   6.718   8.526   1.254
 5505TIP3    H116392   6.772   8.538   1.177
 5505TIP3    H216393   6.684   8.437   1.246
 5506TIP3   OH216394   4.355   1.721   2.977
 5506TIP3    H116395   4.390   1.755   2.895
 5506TIP3    H216396   4.266   1.754   2.981
 5507TIP3   OH216397   5.078   6.801   2.650
 5507TIP3    H116398   5.057   6.776   2.560
 5507TIP3    H216399   4.994   6.828   2.687
 5508TIP3   OH216400   3.367   6.856   4.883
 5508TIP3    H116401   3.371   6.805   4.963
 5508TIP3    H216402   3.301   6.812   4.829
 5509TIP3   OH216403   4.772   6.435   5.874
 5509TIP3    H116404   4.694   6.380   5.860
 5509TIP3    H216405   4.846   6.376   5.860
 5510TIP3   OH216406   1.688   4.816   0.805
 5510TIP3    H116407   1.638   4.833   0.884
 5510TIP3    H216408   1.766   4.768   0.835
 5511TIP3   OH216409   8.823   2.479   4.924
 5511TIP3    H116410   8.821   2.394   4.880
 5511TIP3    H216411   8.915   2.493   4.944
 5512TIP3   OH216412   8.636   2.130   4.244
 5512TIP3    H116413   8.557   2.150   4.293
 5512TIP3    H216414   8.616   2.156   4.154
 5513TIP3   OH216415   8.149   5.478   2.280
 5513TIP3    H116416   8.215   5.507   2.217
 5513TIP3    H216417   8.165   5.532   2.357
 5514TIP3   OH216418   9.360   5.919   4.104
 5514TIP3    H116419   9.421   5.940   4.174
 5514TIP3    H216420   9.375   5.987   4.038
 5515TIP3   OH216421   0.370   4.450   1.714
 5515TIP3    H116422   0.424   4.525   1.688
 5515TIP3    H216423   0.281   4.485   1.720
 5516TIP3   OH216424   5.401   2.797   3.118
 5516TIP3    H116425   5.359   2.883   3.121
 5516TIP3    H216426   5.332   2.735   3.142
 5517TIP3   OH216427   4.759   3.542   6.227
 5517TIP3    H116428   4.809   3.622   6.245
 5517TIP3    H216429   4.825   3.477   6.205
 5518TIP3   OH216430   0.473   8.617   4.169
 5518TIP3    H116431   0.523   8.698   4.171
 5518TIP3    H216432   0.417   8.625   4.092
 5519TIP3   OH216433   7.417   3.207   2.211
 5519TIP3    H116434   7.431   3.181   2.302
 5519TIP3    H216435   7.465   3.141   2.160
 5520TIP3   OH216436   0.799   3.195   1.121
 5520TIP3    H116437   0.847   3.113   1.128
 5520TIP3    H216438   0.864   3.263   1.136
 5521TIP3   OH216439   5.463   8.488   0.715
 5521TIP3    H116440   5.467   8.487   0.810
 5521TIP3    H216441   5.548   8.520   0.687
 5522TIP3   OH216442   8.090   0.873   0.893
 5522TIP3    H116443   8.115   0.860   0.984
 5522TIP3    H216444   8.172   0.897   0.849
 5523TIP3   OH216445   1.650   5.082   1.590
 5523TIP3    H116446   1.587   5.022   1.551
 5523TIP3    H216447   1.697   5.030   1.654
 5524TIP3   OH216448   7.875   7.962   6.524
 5524TIP3    H116449   7.920   8.009   6.594
 5524TIP3    H216450   7.811   7.907   6.569
 5525TIP3   OH216451   6.340   5.898   0.556
 5525TIP3    H116452   6.399   5.940   0.618
 5525TIP3    H216453   6.387   5.821   0.525
 5526TIP3   OH216454   0.255   8.923   4.928
 5526TIP3    H116455   0.278   8.911   5.020
 5526TIP3    H216456   0.178   8.980   4.930
 5527TIP3   OH216457   7.951   7.266   2.884
 5527TIP3    H116458   8.006   7.310   2.948
 5527TIP3    H216459   7.894   7.334   2.850
 5528TIP3   OH216460   2.562   8.878   6.318
 5528TIP3    H116461   2.509   8.839   6.249
 5528TIP3    H216462   2.652   8.855   6.296
 5529TIP3   OH216463   8.833   7.868   0.197
 5529TIP3    H116464   8.778   7.901   0.125
 5529TIP3    H216465   8.779   7.802   0.239
 5530TIP3   OH216466   5.152   7.686   5.400
 5530TIP3    H116467   5.162   7.780   5.415
 5530TIP3    H216468   5.121   7.680   5.310
 5531TIP3   OH216469   4.469   1.527   1.928
 5531TIP3    H116470   4.429   1.475   1.997
 5531TIP3    H216471   4.515   1.464   1.873
 5532TIP3   OH216472   8.802   8.541   7.763
 5532TIP3    H116473   8.852   8.551   7.682
 5532TIP3    H216474   8.835   8.459   7.801
 5533TIP3   OH216475   1.294   0.977   0.872
 5533TIP3    H116476   1.198   0.980   0.861
 5533TIP3    H216477   1.308   1.000   0.964
 5534TIP3   OH216478   7.104   1.043   7.657
 5534TIP3    H116479   7.018   1.076   7.633
 5534TIP3    H216480   7.148   1.027   7.573
 5535TIP3   OH216481   0.572   0.186   0.602
 5535TIP3    H116482   0.514   0.141   0.663
 5535TIP3    H216483   0.514   0.220   0.534
 5536TIP3   OH216484   0.214   8.205   5.749
 5536TIP3    H116485   0.136   8.158   5.779
 5536TIP3    H216486   0.202   8.294   5.782
 5537TIP3   OH216487   2.562   5.612   3.694
 5537TIP3    H116488   2.587   5.633   3.784
 5537TIP3    H216489   2.603   5.681   3.641
 5538TIP3   OH216490   5.267   4.634   2.462
 5538TIP3    H116491   5.360   4.625   2.483
 5538TIP3    H216492   5.264   4.696   2.390
 5539TIP3   OH216493   8.648   3.394   5.081
 5539TIP3    H116494   8.706   3.343   5.138
 5539TIP3    H216495   8.634   3.337   5.005
 5540TIP3   OH216496   7.128   3.366   4.052
 5540TIP3    H116497   7.079   3.331   3.978
 5540TIP3    H216498   7.164   3.448   4.021
 5541TIP3   OH216499   6.176   3.180   5.711
 5541TIP3    H116500   6.150   3.089   5.691
 5541TIP3    H216501   6.142   3.195   5.799
 5542TIP3   OH216502   5.115   8.330   0.529
 5542TIP3    H116503   5.125   8.296   0.440
 5542TIP3    H216504   5.060   8.266   0.574
 5543TIP3   OH216505   1.428   7.100   6.390
 5543TIP3    H116506   1.443   7.112   6.484
 5543TIP3    H216507   1.513   7.074   6.355
 5544TIP3   OH216508   7.665   2.684   5.579
 5544TIP3    H116509   7.590   2.725   5.535
 5544TIP3    H216510   7.714   2.642   5.508
 5545TIP3   OH216511   7.560   4.616   7.177
 5545TIP3    H116512   7.595   4.699   7.145
 5545TIP3    H216513   7.553   4.628   7.271
 5546TIP3   OH216514   4.976   4.405   5.218
 5546TIP3    H116515   5.049   4.423   5.277
 5546TIP3    H216516   4.902   4.452   5.256
 5547TIP3   OH216517   4.767   6.315   3.268
 5547TIP3    H116518   4.696   6.266   3.310
 5547TIP3    H216519   4.738   6.326   3.178
 5548TIP3   OH216520   3.301   4.640   6.544
 5548TIP3    H116521   3.213   4.671   6.566
 5548TIP3    H216522   3.287   4.552   6.511
 5549TIP3   OH216523   3.553   7.740   7.769
 5549TIP3    H116524   3.559   7.674   7.700
 5549TIP3    H216525   3.476   7.715   7.820
 5550TIP3   OH216526   1.250   2.950   5.587
 5550TIP3    H116527   1.339   2.920   5.570
 5550TIP3    H216528   1.196   2.872   5.579
 5551TIP3   OH216529   0.083   5.562   3.636
 5551TIP3    H116530   0.062   5.594   3.724
 5551TIP3    H216531   0.039   5.623   3.577
 5552TIP3   OH216532   5.118   1.540   1.704
 5552TIP3    H116533   5.115   1.628   1.667
 5552TIP3    H216534   5.037   1.532   1.754
 5553TIP3   OH216535   4.369   6.384   7.646
 5553TIP3    H116536   4.437   6.445   7.619
 5553TIP3    H216537   4.386   6.368   7.738
 5554TIP3   OH216538   9.387   8.100   6.516
 5554TIP3    H116539   9.303   8.130   6.481
 5554TIP3    H216540   9.383   8.004   6.511
 5555TIP3   OH216541   7.195   7.909   7.590
 5555TIP3    H116542   7.109   7.871   7.569
 5555TIP3    H216543   7.174   7.985   7.644
 5556TIP3   OH216544   7.556   2.132   3.207
 5556TIP3    H116545   7.569   2.038   3.192
 5556TIP3    H216546   7.644   2.165   3.226
 5557TIP3   OH216547   1.812   0.822   6.275
 5557TIP3    H116548   1.871   0.770   6.220
 5557TIP3    H216549   1.866   0.894   6.307
 5558TIP3   OH216550   7.590   6.609   0.084
 5558TIP3    H116551   7.574   6.521   0.048
 5558TIP3    H216552   7.681   6.605   0.115
 5559TIP3   OH216553   0.922   3.214   2.843
 5559TIP3    H116554   0.909   3.309   2.844
 5559TIP3    H216555   0.967   3.195   2.926
 5560TIP3   OH216556   0.384   7.172   0.413
 5560TIP3    H116557   0.333   7.159   0.334
 5560TIP3    H216558   0.404   7.266   0.415
 5561TIP3   OH216559   2.307   3.781   1.049
 5561TIP3    H116560   2.399   3.769   1.026
 5561TIP3    H216561   2.277   3.693   1.073
 5562TIP3   OH216562   5.575   3.319   4.586
 5562TIP3    H116563   5.538   3.302   4.672
 5562TIP3    H216564   5.534   3.401   4.558
 5563TIP3   OH216565   8.903   0.044   0.337
 5563TIP3    H116566   8.936   0.121   0.290
 5563TIP3    H216567   8.894  -0.023   0.269
 5564TIP3   OH216568   8.355   3.749   0.890
 5564TIP3    H116569   8.393   3.690   0.955
 5564TIP3    H216570   8.269   3.712   0.871
 5565TIP3   OH216571   0.252   7.891   4.297
 5565TIP3    H116572   0.245   7.982   4.270
 5565TIP3    H216573   0.283   7.894   4.387
 5566TIP3   OH216574   1.499   6.211   4.258
 5566TIP3    H116575   1.459   6.298   4.267
 5566TIP3    H216576   1.574   6.224   4.200
 5567TIP3   OH216577   2.422   7.419   7.034
 5567TIP3    H116578   2.450   7.331   7.062
 5567TIP3    H216579   2.500   7.458   6.996
 5568TIP3   OH216580   3.577   6.852   3.103
 5568TIP3    H116581   3.619   6.798   3.169
 5568TIP3    H216582   3.649   6.885   3.049
 5569TIP3   OH216583   0.936   0.528   1.344
 5569TIP3    H116584   0.859   0.506   1.397
 5569TIP3    H216585   1.008   0.480   1.386
 5570TIP3   OH216586   3.916   6.212   1.169
 5570TIP3    H116587   3.936   6.255   1.252
 5570TIP3    H216588   3.832   6.249   1.142
 5571TIP3   OH216589   5.037   5.937   7.109
 5571TIP3    H116590   5.097   6.006   7.081
 5571TIP3    H216591   4.992   5.974   7.184
 5572TIP3   OH216592   2.825   5.097   7.189
 5572TIP3    H116593   2.830   5.023   7.128
 5572TIP3    H216594   2.874   5.069   7.265
 5573TIP3   OH216595   9.188   1.560   0.611
 5573TIP3    H116596   9.101   1.593   0.585
 5573TIP3    H216597   9.238   1.557   0.529
 5574TIP3   OH216598   4.340   6.860   1.422
 5574TIP3    H116599   4.245   6.861   1.407
 5574TIP3    H216600   4.377   6.895   1.341
 5575TIP3   OH216601   1.163   8.869   2.914
 5575TIP3    H116602   1.149   8.781   2.877
 5575TIP3    H216603   1.179   8.924   2.837
 5576TIP3   OH216604   7.707   8.712   0.238
 5576TIP3    H116605   7.647   8.745   0.305
 5576TIP3    H216606   7.794   8.736   0.269
 5577TIP3   OH216607   4.792   8.036   5.099
 5577TIP3    H116608   4.774   8.120   5.140
 5577TIP3    H216609   4.886   8.023   5.111
 5578TIP3   OH216610   3.793   6.800   5.154
 5578TIP3    H116611   3.776   6.725   5.096
 5578TIP3    H216612   3.844   6.860   5.100
 5579TIP3   OH216613   0.478   2.515   3.251
 5579TIP3    H116614   0.540   2.571   3.204
 5579TIP3    H216615   0.402   2.571   3.266
 5580TIP3   OH216616   1.015   8.723   5.321
 5580TIP3    H116617   0.935   8.771   5.344
 5580TIP3    H216618   1.035   8.670   5.398
 5581TIP3   OH216619   7.616   6.463   7.500
 5581TIP3    H116620   7.600   6.514   7.580
 5581TIP3    H216621   7.631   6.374   7.530
 5582TIP3   OH216622   1.203   8.018   2.637
 5582TIP3    H116623   1.213   7.962   2.713
 5582TIP3    H216624   1.120   7.991   2.598
 5583TIP3   OH216625   3.393   4.450   5.352
 5583TIP3    H116626   3.489   4.451   5.355
 5583TIP3    H216627   3.370   4.358   5.362
 5584TIP3   OH216628   7.801   8.622   1.440
 5584TIP3    H116629   7.801   8.714   1.413
 5584TIP3    H216630   7.762   8.576   1.366
 5585TIP3   OH216631   8.080   2.908   0.220
 5585TIP3    H116632   8.101   2.897   0.127
 5585TIP3    H216633   8.087   2.820   0.256
 5586TIP3   OH216634   3.625   2.548   3.707
 5586TIP3    H116635   3.674   2.489   3.651
 5586TIP3    H216636   3.647   2.520   3.796
 5587TIP3   OH216637   6.419   3.305   6.045
 5587TIP3    H116638   6.371   3.292   6.127
 5587TIP3    H216639   6.415   3.220   6.002
 5588TIP3   OH216640   6.842   2.355   4.582
 5588TIP3    H116641   6.747   2.339   4.577
 5588TIP3    H216642   6.849   2.442   4.621
 5589TIP3   OH216643   5.828   5.072   4.346
 5589TIP3    H116644   5.919   5.094   4.324
 5589TIP3    H216645   5.787   5.054   4.261
 5590TIP3   OH216646   5.696   7.758   4.076
 5590TIP3    H116647   5.677   7.849   4.053
 5590TIP3    H216648   5.623   7.708   4.041
 5591TIP3   OH216649   3.173   5.507   7.240
 5591TIP3    H116650   3.182   5.413   7.252
 5591TIP3    H216651   3.121   5.536   7.315
 5592TIP3   OH216652   3.855   5.037   6.675
 5592TIP3    H116653   3.789   5.105   6.689
 5592TIP3    H216654   3.867   5.036   6.580
 5593TIP3   OH216655   2.453   7.634   2.233
 5593TIP3    H116656   2.435   7.660   2.142
 5593TIP3    H216657   2.546   7.612   2.233
 5594TIP3   OH216658   3.497   5.225   4.513
 5594TIP3    H116659   3.469   5.265   4.431
 5594TIP3    H216660   3.470   5.287   4.581
 5595TIP3   OH216661   5.014   6.011   5.554
 5595TIP3    H116662   5.021   5.922   5.519
 5595TIP3    H216663   5.097   6.025   5.600
 5596TIP3   OH216664   8.571   0.766   2.626
 5596TIP3    H116665   8.642   0.767   2.562
 5596TIP3    H216666   8.597   0.699   2.689
 5597TIP3   OH216667   7.790   4.048   2.919
 5597TIP3    H116668   7.881   4.021   2.903
 5597TIP3    H216669   7.738   3.993   2.861
 5598TIP3   OH216670   1.658   4.596   3.411
 5598TIP3    H116671   1.593   4.635   3.352
 5598TIP3    H216672   1.606   4.552   3.478
 5599TIP3   OH216673   6.124   1.123   3.293
 5599TIP3    H116674   6.065   1.050   3.313
 5599TIP3    H216675   6.165   1.144   3.377
 5600TIP3   OH216676   7.844   3.465   4.983
 5600TIP3    H116677   7.925   3.462   5.035
 5600TIP3    H216678   7.775   3.441   5.045
 5601TIP3   OH216679   6.471   2.554   3.366
 5601TIP3    H116680   6.545   2.529   3.311
 5601TIP3    H216681   6.407   2.484   3.352
 5602TIP3   OH216682   9.021   8.474   7.592
 5602TIP3    H116683   9.094   8.414   7.610
 5602TIP3    H216684   9.033   8.498   7.500
 5603TIP3   OH216685   4.397   5.605   4.789
 5603TIP3    H116686   4.325   5.649   4.744
 5603TIP3    H216687   4.362   5.519   4.812
 5604TIP3   OH216688   9.048   3.946   2.672
 5604TIP3    H116689   8.988   3.925   2.743
 5604TIP3    H216690   9.106   4.012   2.708
 5605TIP3   OH216691   0.893   1.135   0.950
 5605TIP3    H116692   0.964   1.198   0.942
 5605TIP3    H216693   0.913   1.067   0.885
 5606TIP3   OH216694   1.983   3.704   1.273
 5606TIP3    H116695   1.944   3.704   1.186
 5606TIP3    H216696   1.948   3.626   1.315
 5607TIP3   OH216697   2.894   4.353   2.710
 5607TIP3    H116698   2.960   4.418   2.685
 5607TIP3    H216699   2.928   4.270   2.675
 5608TIP3   OH216700   2.348   8.845   0.120
 5608TIP3    H116701   2.329   8.934   0.091
 5608TIP3    H216702   2.262   8.803   0.124
 5609TIP3   OH216703   3.118   2.275   7.466
 5609TIP3    H116704   3.166   2.286   7.383
 5609TIP3    H216705   3.031   2.312   7.448
 5610TIP3   OH216706   6.500   7.259   6.168
 5610TIP3    H116707   6.503   7.352   6.149
 5610TIP3    H216708   6.570   7.221   6.115
 5611TIP3   OH216709   1.404   6.098   1.545
 5611TIP3    H116710   1.458   6.050   1.482
 5611TIP3    H216711   1.360   6.165   1.492
 5612TIP3   OH216712   0.650   2.781   2.933
 5612TIP3    H116713   0.686   2.850   2.879
 5612TIP3    H216714   0.555   2.788   2.922
 5613TIP3   OH216715   3.058   0.976   3.668
 5613TIP3    H116716   2.988   0.917   3.697
 5613TIP3    H216717   3.013   1.056   3.641
 5614TIP3   OH216718   7.172   1.594   7.047
 5614TIP3    H116719   7.185   1.527   6.979
 5614TIP3    H216720   7.213   1.673   7.011
 5615TIP3   OH216721   0.094   5.429   6.331
 5615TIP3    H116722   0.182   5.438   6.294
 5615TIP3    H216723   0.069   5.339   6.311
 5616TIP3   OH216724   5.249   6.380   5.977
 5616TIP3    H116725   5.212   6.466   5.996
 5616TIP3    H216726   5.343   6.396   5.973
 5617TIP3   OH216727   4.646   7.912   3.649
 5617TIP3    H116728   4.626   7.965   3.572
 5617TIP3    H216729   4.710   7.963   3.698
 5618TIP3   OH216730   1.651   7.876   6.900
 5618TIP3    H116731   1.587   7.863   6.970
 5618TIP3    H216732   1.625   7.815   6.832
 5619TIP3   OH216733   7.848   5.626   4.647
 5619TIP3    H116734   7.783   5.579   4.700
 5619TIP3    H216735   7.928   5.575   4.658
 5620TIP3   OH216736   6.953   1.596   0.233
 5620TIP3    H116737   6.965   1.503   0.214
 5620TIP3    H216738   7.007   1.642   0.169
 5621TIP3   OH216739   0.112   3.076   4.591
 5621TIP3    H116740   0.108   3.147   4.655
 5621TIP3    H216741   0.181   3.018   4.625
 5622TIP3   OH216742   8.437   7.480   4.324
 5622TIP3    H116743   8.427   7.392   4.360
 5622TIP3    H216744   8.425   7.468   4.230
 5623TIP3   OH216745   7.648   0.341   5.614
 5623TIP3    H116746   7.710   0.299   5.553
 5623TIP3    H216747   7.598   0.268   5.650
 5624TIP3   OH216748   3.828   5.434   3.348
 5624TIP3    H116749   3.828   5.355   3.294
 5624TIP3    H216750   3.748   5.427   3.401
 5625TIP3   OH216751   3.728   3.422   0.891
 5625TIP3    H116752   3.820   3.408   0.913
 5625TIP3    H216753   3.728   3.432   0.796
 5626TIP3   OH216754   3.944   3.736   2.987
 5626TIP3    H116755   3.943   3.814   3.043
 5626TIP3    H216756   3.881   3.755   2.918
 5627TIP3   OH216757   1.052   8.526   7.539
 5627TIP3    H116758   0.993   8.581   7.590
 5627TIP3    H216759   0.996   8.457   7.504
 5628TIP3   OH216760   4.970   4.544   3.363
 5628TIP3    H116761   4.967   4.535   3.268
 5628TIP3    H216762   4.942   4.634   3.380
 5629TIP3   OH216763   7.013   4.019   7.703
 5629TIP3    H116764   7.084   3.980   7.652
 5629TIP3    H216765   7.058   4.072   7.769
 5630TIP3   OH216766   6.014   4.597   3.214
 5630TIP3    H116767   6.032   4.507   3.184
 5630TIP3    H216768   6.099   4.641   3.210
 5631TIP3   OH216769   8.108   4.172   0.734
 5631TIP3    H116770   8.038   4.114   0.704
 5631TIP3    H216771   8.159   4.190   0.655
 5632TIP3   OH216772   5.096   3.226   7.177
 5632TIP3    H116773   5.140   3.290   7.234
 5632TIP3    H216774   5.154   3.150   7.177
 5633TIP3   OH216775   1.847   7.086   1.382
 5633TIP3    H116776   1.870   7.163   1.330
 5633TIP3    H216777   1.895   7.098   1.464
 5634TIP3   OH216778   5.901   6.546   3.014
 5634TIP3    H116779   5.980   6.593   2.988
 5634TIP3    H216780   5.889   6.480   2.945
 5635TIP3   OH216781   9.366   2.565   4.120
 5635TIP3    H116782   9.386   2.658   4.132
 5635TIP3    H216783   9.445   2.519   4.151
 5636TIP3   OH216784   4.529   1.475   4.455
 5636TIP3    H116785   4.569   1.538   4.514
 5636TIP3    H216786   4.435   1.485   4.469
 5637TIP3   OH216787   2.904   7.721   4.025
 5637TIP3    H116788   2.927   7.637   4.064
 5637TIP3    H216789   2.810   7.729   4.038
 5638TIP3   OH216790   8.437   9.008   0.572
 5638TIP3    H116791   8.523   8.985   0.607
 5638TIP3    H216792   8.379   9.009   0.648
 5639TIP3   OH216793   0.451   0.936   5.975
 5639TIP3    H116794   0.421   0.992   5.905
 5639TIP3    H216795   0.546   0.951   5.981
 5640TIP3   OH216796   4.261   1.390   2.473
 5640TIP3    H116797   4.300   1.331   2.536
 5640TIP3    H216798   4.200   1.335   2.423
 5641TIP3   OH216799   3.152   2.528   4.097
 5641TIP3    H116800   3.222   2.580   4.137
 5641TIP3    H216801   3.130   2.462   4.162
 5642TIP3   OH216802   3.495   7.689   0.751
 5642TIP3    H116803   3.544   7.617   0.791
 5642TIP3    H216804   3.405   7.677   0.783
 5643TIP3   OH216805   4.246   3.026   5.894
 5643TIP3    H116806   4.216   2.941   5.863
 5643TIP3    H216807   4.331   3.038   5.852
 5644TIP3   OH216808   2.405   0.172   7.699
 5644TIP3    H116809   2.360   0.256   7.707
 5644TIP3    H216810   2.416   0.159   7.605
 5645TIP3   OH216811   3.040   5.828   2.711
 5645TIP3    H116812   3.119   5.843   2.763
 5645TIP3    H216813   2.976   5.795   2.775
 5646TIP3   OH216814   9.476   0.424   7.386
 5646TIP3    H116815   9.454   0.331   7.379
 5646TIP3    H216816   9.490   0.452   7.296
 5647TIP3   OH216817   7.674   2.345   7.356
 5647TIP3    H116818   7.610   2.378   7.292
 5647TIP3    H216819   7.723   2.278   7.308
 5648TIP3   OH216820   4.644   0.877   6.853
 5648TIP3    H116821   4.550   0.880   6.869
 5648TIP3    H216822   4.674   0.797   6.898
 5649TIP3   OH216823   2.001   7.364   3.209
 5649TIP3    H116824   1.949   7.355   3.129
 5649TIP3    H216825   2.047   7.281   3.218
 5650TIP3   OH216826   7.757   2.538   4.391
 5650TIP3    H116827   7.755   2.577   4.479
 5650TIP3    H216828   7.676   2.488   4.386
 5651TIP3   OH216829   7.698   7.154   3.695
 5651TIP3    H116830   7.621   7.209   3.679
 5651TIP3    H216831   7.709   7.105   3.614
 5652TIP3   OH216832   5.709   5.825   3.065
 5652TIP3    H116833   5.804   5.820   3.074
 5652TIP3    H216834   5.677   5.841   3.154
 5653TIP3   OH216835   7.036   8.662   2.026
 5653TIP3    H116836   7.009   8.740   1.977
 5653TIP3    H216837   7.059   8.598   1.958
 5654TIP3   OH216838   7.586   7.843   6.362
 5654TIP3    H116839   7.573   7.860   6.269
 5654TIP3    H216840   7.655   7.776   6.364
 5655TIP3   OH216841   0.378   2.572   6.367
 5655TIP3    H116842   0.374   2.511   6.441
 5655TIP3    H216843   0.304   2.631   6.381
 5656TIP3   OH216844   1.246   7.894   6.678
 5656TIP3    H116845   1.187   7.967   6.697
 5656TIP3    H216846   1.235   7.835   6.753
 5657TIP3   OH216847   1.878   4.702   2.033
 5657TIP3    H116848   1.945   4.704   1.965
 5657TIP3    H216849   1.798   4.677   1.987
 5658TIP3   OH216850   3.705   5.501   4.121
 5658TIP3    H116851   3.659   5.583   4.138
 5658TIP3    H216852   3.636   5.438   4.100
 5659TIP3   OH216853   4.104   6.037   6.048
 5659TIP3    H116854   4.106   6.084   5.965
 5659TIP3    H216855   4.027   5.980   6.041
 5660TIP3   OH216856   9.485   3.681   4.803
 5660TIP3    H116857   9.525   3.655   4.886
 5660TIP3    H216858   9.534   3.758   4.774
 5661TIP3   OH216859   3.277   5.581   6.698
 5661TIP3    H116860   3.257   5.559   6.789
 5661TIP3    H216861   3.194   5.612   6.662
 5662TIP3   OH216862   2.998   7.867   0.310
 5662TIP3    H116863   2.909   7.874   0.344
 5662TIP3    H216864   3.039   7.950   0.334
 5663TIP3   OH216865   1.676   6.047   2.562
 5663TIP3    H116866   1.764   6.083   2.570
 5663TIP3    H216867   1.638   6.059   2.649
 5664TIP3   OH216868   6.671   5.087   1.325
 5664TIP3    H116869   6.631   5.128   1.249
 5664TIP3    H216870   6.624   5.004   1.335
 5665TIP3   OH216871   8.421   2.602   0.300
 5665TIP3    H116872   8.432   2.589   0.206
 5665TIP3    H216873   8.494   2.555   0.340
 5666TIP3   OH216874   2.541   4.248   3.705
 5666TIP3    H116875   2.605   4.180   3.684
 5666TIP3    H216876   2.493   4.213   3.781
 5667TIP3   OH216877   9.154   0.711   7.489
 5667TIP3    H116878   9.107   0.791   7.463
 5667TIP3    H216879   9.159   0.659   7.409
 5668TIP3   OH216880   4.262   8.570   2.807
 5668TIP3    H116881   4.338   8.556   2.863
 5668TIP3    H216882   4.237   8.483   2.777
 5669TIP3   OH216883   0.323   0.032   1.473
 5669TIP3    H116884   0.360   0.030   1.385
 5669TIP3    H216885   0.228   0.030   1.459
 5670TIP3   OH216886   2.036   4.706   5.838
 5670TIP3    H116887   2.052   4.648   5.913
 5670TIP3    H216888   2.122   4.715   5.797
 5671TIP3   OH216889   7.882   0.190   3.876
 5671TIP3    H116890   7.962   0.149   3.910
 5671TIP3    H216891   7.905   0.283   3.867
 5672TIP3   OH216892   7.086   7.978   4.644
 5672TIP3    H116893   7.161   8.003   4.590
 5672TIP3    H216894   7.074   8.052   4.703
 5673TIP3   OH216895   1.779   6.934   3.858
 5673TIP3    H116896   1.785   7.029   3.844
 5673TIP3    H216897   1.755   6.899   3.772
 5674TIP3   OH216898   5.344   8.140   1.504
 5674TIP3    H116899   5.248   8.138   1.505
 5674TIP3    H216900   5.367   8.211   1.564
 5675TIP3   OH216901   5.795   3.296   7.423
 5675TIP3    H116902   5.805   3.205   7.396
 5675TIP3    H216903   5.827   3.347   7.349
 5676TIP3   OH216904   0.243   2.778   1.471
 5676TIP3    H116905   0.330   2.757   1.507
 5676TIP3    H216906   0.252   2.765   1.377
 5677TIP3   OH216907   6.598   2.793   0.915
 5677TIP3    H116908   6.557   2.711   0.942
 5677TIP3    H216909   6.568   2.807   0.826
 5678TIP3   OH216910   1.353   2.844   7.774
 5678TIP3    H116911   1.278   2.845   7.715
 5678TIP3    H216912   1.430   2.850   7.716
 5679TIP3   OH216913   1.501   1.591   4.609
 5679TIP3    H116914   1.435   1.633   4.663
 5679TIP3    H216915   1.483   1.622   4.520
 5680TIP3   OH216916   0.769   2.467   5.124
 5680TIP3    H116917   0.835   2.498   5.062
 5680TIP3    H216918   0.738   2.384   5.086
 5681TIP3   OH216919   7.971   4.686   1.356
 5681TIP3    H116920   8.038   4.620   1.339
 5681TIP3    H216921   8.017   4.769   1.347
 5682TIP3   OH216922   0.913   2.890   0.509
 5682TIP3    H116923   0.827   2.921   0.537
 5682TIP3    H216924   0.973   2.924   0.575
 5683TIP3   OH216925   7.166   2.488   5.740
 5683TIP3    H116926   7.211   2.564   5.703
 5683TIP3    H216927   7.097   2.468   5.677
 5684TIP3   OH216928   1.093   5.293   4.009
 5684TIP3    H116929   0.998   5.294   4.016
 5684TIP3    H216930   1.118   5.384   3.998
 5685TIP3   OH216931   1.455   1.945   0.362
 5685TIP3    H116932   1.440   1.986   0.277
 5685TIP3    H216933   1.550   1.930   0.365
 5686TIP3   OH216934   9.302   0.506   5.208
 5686TIP3    H116935   9.253   0.450   5.268
 5686TIP3    H216936   9.264   0.489   5.122
 5687TIP3   OH216937   5.054   1.820   6.830
 5687TIP3    H116938   5.107   1.758   6.881
 5687TIP3    H216939   5.108   1.899   6.825
 5688TIP3   OH216940   2.747   0.579   2.217
 5688TIP3    H116941   2.683   0.522   2.175
 5688TIP3    H216942   2.827   0.528   2.219
 5689TIP3   OH216943   5.885   1.403   1.998
 5689TIP3    H116944   5.834   1.324   2.018
 5689TIP3    H216945   5.971   1.370   1.971
 5690TIP3   OH216946   1.645   8.301   6.537
 5690TIP3    H116947   1.718   8.282   6.478
 5690TIP3    H216948   1.662   8.250   6.615
 5691TIP3   OH216949   7.841   8.893   1.316
 5691TIP3    H116950   7.798   8.853   1.241
 5691TIP3    H216951   7.880   8.974   1.282
 5692TIP3   OH216952   4.363   8.304   1.594
 5692TIP3    H116953   4.400   8.283   1.679
 5692TIP3    H216954   4.348   8.398   1.597
 5693TIP3   OH216955   4.201   1.544   6.124
 5693TIP3    H116956   4.136   1.474   6.119
 5693TIP3    H216957   4.267   1.520   6.059
 5694TIP3   OH216958   6.979   3.818   6.430
 5694TIP3    H116959   6.980   3.724   6.414
 5694TIP3    H216960   7.054   3.834   6.487
 5695TIP3   OH216961   5.985   1.958   0.493
 5695TIP3    H116962   5.912   1.966   0.431
 5695TIP3    H216963   6.060   1.932   0.440
 5696TIP3   OH216964   2.862   1.000   4.765
 5696TIP3    H116965   2.852   0.933   4.696
 5696TIP3    H216966   2.851   1.083   4.719
 5697TIP3   OH216967   2.823   8.863   3.696
 5697TIP3    H116968   2.900   8.806   3.702
 5697TIP3    H216969   2.759   8.810   3.649
 5698TIP3   OH216970   1.839   3.589   5.988
 5698TIP3    H116971   1.764   3.558   6.039
 5698TIP3    H216972   1.809   3.673   5.952
 5699TIP3   OH216973   8.208   7.805   6.709
 5699TIP3    H116974   8.225   7.899   6.710
 5699TIP3    H216975   8.119   7.797   6.672
 5700TIP3   OH216976   8.616   7.765   6.385
 5700TIP3    H116977   8.650   7.781   6.296
 5700TIP3    H216978   8.694   7.749   6.438
 5701TIP3   OH216979   1.594   5.846   3.523
 5701TIP3    H116980   1.589   5.889   3.608
 5701TIP3    H216981   1.671   5.884   3.482
 5702TIP3   OH216982   4.050   8.894   1.884
 5702TIP3    H116983   4.092   8.810   1.863
 5702TIP3    H216984   4.109   8.960   1.847
 5703TIP3   OH216985   3.321   0.255   4.110
 5703TIP3    H116986   3.396   0.314   4.099
 5703TIP3    H216987   3.293   0.268   4.201
 5704TIP3   OH216988   5.754   2.552   4.138
 5704TIP3    H116989   5.799   2.634   4.120
 5704TIP3    H216990   5.718   2.525   4.054
 5705TIP3   OH216991   1.067   7.459   2.348
 5705TIP3    H116992   1.036   7.524   2.284
 5705TIP3    H216993   1.132   7.505   2.400
 5706TIP3   OH216994   3.026   4.742   2.659
 5706TIP3    H116995   2.940   4.775   2.635
 5706TIP3    H216996   3.025   4.738   2.755
 5707TIP3   OH216997   5.443   3.354   1.267
 5707TIP3    H116998   5.488   3.398   1.194
 5707TIP3    H216999   5.354   3.390   1.266
 5708TIP3   OH217000   4.348   2.595   5.825
 5708TIP3    H117001   4.415   2.663   5.826
 5708TIP3    H217002   4.369   2.540   5.901
 5709TIP3   OH217003   1.669   7.687   6.420
 5709TIP3    H117004   1.665   7.707   6.327
 5709TIP3    H217005   1.615   7.754   6.462
 5710TIP3   OH217006   1.510   2.249   1.994
 5710TIP3    H117007   1.570   2.223   2.064
 5710TIP3    H217008   1.432   2.280   2.040
 5711TIP3   OH217009   1.547   5.932   5.500
 5711TIP3    H117010   1.589   5.871   5.562
 5711TIP3    H217011   1.555   5.888   5.415
 5712TIP3   OH217012   0.831   7.479   6.137
 5712TIP3    H117013   0.887   7.534   6.191
 5712TIP3    H217014   0.764   7.447   6.197
 5713TIP3   OH217015   1.233   1.925   1.721
 5713TIP3    H117016   1.216   1.921   1.627
 5713TIP3    H217017   1.279   2.008   1.734
 5714TIP3   OH217018   4.919   7.091   0.335
 5714TIP3    H117019   4.870   7.027   0.388
 5714TIP3    H217020   4.858   7.162   0.320
 5715TIP3   OH217021   8.720   1.476   0.627
 5715TIP3    H117022   8.692   1.488   0.718
 5715TIP3    H217023   8.655   1.417   0.589
 5716TIP3   OH217024   1.109   2.068   4.891
 5716TIP3    H117025   1.133   2.082   4.799
 5716TIP3    H217026   1.051   1.992   4.889
 5717TIP3   OH217027   8.342   6.726   2.052
 5717TIP3    H117028   8.283   6.663   2.092
 5717TIP3    H217029   8.412   6.673   2.013
 5718TIP3   OH217030   7.627   4.000   5.059
 5718TIP3    H117031   7.601   4.076   5.111
 5718TIP3    H217032   7.545   3.959   5.033
 5719TIP3   OH217033   9.197   7.391   4.157
 5719TIP3    H117034   9.247   7.437   4.225
 5719TIP3    H217035   9.261   7.332   4.116
 5720TIP3   OH217036   2.596   6.356   5.787
 5720TIP3    H117037   2.642   6.411   5.723
 5720TIP3    H217038   2.557   6.286   5.734
 5721TIP3   OH217039   6.129   5.692   7.702
 5721TIP3    H117040   6.194   5.666   7.768
 5721TIP3    H217041   6.053   5.718   7.754
 5722TIP3   OH217042   6.957   8.793   0.675
 5722TIP3    H117043   6.986   8.760   0.760
 5722TIP3    H217044   6.970   8.720   0.615
 5723TIP3   OH217045   6.990   1.123   5.197
 5723TIP3    H117046   7.013   1.184   5.267
 5723TIP3    H217047   6.961   1.178   5.126
 5724TIP3   OH217048   8.418   6.169   5.403
 5724TIP3    H117049   8.442   6.165   5.311
 5724TIP3    H217050   8.408   6.078   5.430
 5725TIP3   OH217051   2.401   4.299   0.637
 5725TIP3    H117052   2.316   4.330   0.667
 5725TIP3    H217053   2.429   4.237   0.705
 5726TIP3   OH217054   0.829   4.198   7.706
 5726TIP3    H117055   0.817   4.291   7.725
 5726TIP3    H217056   0.792   4.186   7.619
 5727TIP3   OH217057   1.748   1.243   4.381
 5727TIP3    H117058   1.789   1.259   4.465
 5727TIP3    H217059   1.677   1.307   4.376
 5728TIP3   OH217060   6.536   3.938   0.834
 5728TIP3    H117061   6.565   4.027   0.813
 5728TIP3    H217062   6.578   3.919   0.918
 5729TIP3   OH217063   0.930   6.001   7.275
 5729TIP3    H117064   0.983   6.069   7.316
 5729TIP3    H217065   0.974   5.919   7.298
 5730TIP3   OH217066   3.589   4.629   4.252
 5730TIP3    H117067   3.589   4.556   4.314
 5730TIP3    H217068   3.625   4.702   4.300
 5731TIP3   OH217069   8.102   1.107   5.546
 5731TIP3    H117070   8.040   1.052   5.595
 5731TIP3    H217071   8.046   1.171   5.501
 5732TIP3   OH217072   9.511   7.143   5.884
 5732TIP3    H117073   9.547   7.136   5.795
 5732TIP3    H217074   9.555   7.074   5.933
 5733TIP3   OH217075   9.492   5.183   4.229
 5733TIP3    H117076   9.449   5.252   4.178
 5733TIP3    H217077   9.568   5.226   4.268
 5734TIP3   OH217078   9.388   3.698   1.065
 5734TIP3    H117079   9.312   3.640   1.054
 5734TIP3    H217080   9.436   3.660   1.139
 5735TIP3   OH217081   0.555   2.908   4.069
 5735TIP3    H117082   0.610   2.915   4.147
 5735TIP3    H217083   0.500   2.831   4.085
 5736TIP3   OH217084   6.932   4.718   4.814
 5736TIP3    H117085   6.943   4.694   4.906
 5736TIP3    H217086   6.896   4.639   4.774
 5737TIP3   OH217087   2.598   4.992   3.133
 5737TIP3    H117088   2.609   5.049   3.058
 5737TIP3    H217089   2.506   4.963   3.128
 5738TIP3   OH217090   2.915   1.684   5.490
 5738TIP3    H117091   2.900   1.617   5.557
 5738TIP3    H217092   2.980   1.742   5.529
 5739TIP3   OH217093   4.967   4.043   6.481
 5739TIP3    H117094   5.010   4.116   6.525
 5739TIP3    H217095   5.009   3.965   6.517
 5740TIP3   OH217096   6.979   2.409   7.212
 5740TIP3    H117097   6.995   2.315   7.225
 5740TIP3    H217098   7.047   2.437   7.151
 5741TIP3   OH217099   0.135   4.456   6.854
 5741TIP3    H117100   0.179   4.510   6.920
 5741TIP3    H217101   0.187   4.375   6.851
 5742TIP3   OH217102   5.008   5.136   5.222
 5742TIP3    H117103   5.077   5.099   5.276
 5742TIP3    H217104   4.927   5.109   5.264
 5743TIP3   OH217105   3.001   4.480   6.878
 5743TIP3    H117106   2.990   4.410   6.814
 5743TIP3    H217107   3.096   4.482   6.895
 5744TIP3   OH217108   4.609   2.056   6.291
 5744TIP3    H117109   4.683   2.036   6.349
 5744TIP3    H217110   4.647   2.110   6.222
 5745TIP3   OH217111   0.379   4.439   5.928
 5745TIP3    H117112   0.407   4.413   5.840
 5745TIP3    H217113   0.297   4.486   5.913
 5746TIP3   OH217114   7.685   0.987   3.481
 5746TIP3    H117115   7.617   0.930   3.518
 5746TIP3    H217116   7.636   1.060   3.444
 5747TIP3   OH217117   3.228   2.759   2.473
 5747TIP3    H117118   3.234   2.726   2.563
 5747TIP3    H217119   3.135   2.779   2.461
 5748TIP3   OH217120   7.386   7.468   4.411
 5748TIP3    H117121   7.361   7.507   4.495
 5748TIP3    H217122   7.337   7.386   4.407
 5749TIP3   OH217123   8.521   1.994   2.831
 5749TIP3    H117124   8.486   2.050   2.762
 5749TIP3    H217125   8.581   2.051   2.880
 5750TIP3   OH217126   5.336   8.493   5.215
 5750TIP3    H117127   5.415   8.531   5.177
 5750TIP3    H217128   5.363   8.407   5.247
 5751TIP3   OH217129   0.990   7.476   5.112
 5751TIP3    H117130   0.987   7.570   5.096
 5751TIP3    H217131   0.972   7.468   5.206
 5752TIP3   OH217132   5.384   7.142   2.353
 5752TIP3    H117133   5.364   7.187   2.271
 5752TIP3    H217134   5.335   7.060   2.349
 5753TIP3   OH217135   6.564   1.167   2.580
 5753TIP3    H117136   6.630   1.180   2.647
 5753TIP3    H217137   6.496   1.114   2.622
 5754TIP3   OH217138   0.978   9.002   4.423
 5754TIP3    H117139   0.962   8.917   4.382
 5754TIP3    H217140   1.070   9.020   4.405
 5755TIP3   OH217141   0.121   2.221   0.041
 5755TIP3    H117142   0.161   2.300   0.004
 5755TIP3    H217143   0.195   2.171   0.076
 5756TIP3   OH217144   3.422   7.274   7.189
 5756TIP3    H117145   3.386   7.258   7.277
 5756TIP3    H217146   3.407   7.367   7.174
 5757TIP3   OH217147   2.108   1.026   1.655
 5757TIP3    H117148   2.175   1.094   1.659
 5757TIP3    H217149   2.030   1.072   1.624
 5758TIP3   OH217150   6.077   8.220   6.067
 5758TIP3    H117151   6.006   8.159   6.048
 5758TIP3    H217152   6.062   8.247   6.158
 5759TIP3   OH217153   4.466   8.026   3.823
 5759TIP3    H117154   4.383   7.980   3.812
 5759TIP3    H217155   4.526   7.983   3.762
 5760TIP3   OH217156   1.772   5.911   2.845
 5760TIP3    H117157   1.784   5.819   2.822
 5760TIP3    H217158   1.857   5.952   2.825
 5761TIP3   OH217159   7.492   8.005   7.575
 5761TIP3    H117160   7.452   7.982   7.659
 5761TIP3    H217161   7.483   8.101   7.570
 5762TIP3   OH217162   7.025   5.229   3.853
 5762TIP3    H117163   6.940   5.194   3.826
 5762TIP3    H217164   7.046   5.183   3.933
 5763TIP3   OH217165   6.097   8.049   1.479
 5763TIP3    H117166   6.163   7.980   1.472
 5763TIP3    H217167   6.146   8.130   1.462
 5764TIP3   OH217168   0.210   2.850   0.673
 5764TIP3    H117169   0.207   2.768   0.723
 5764TIP3    H217170   0.291   2.892   0.701
 5765TIP3   OH217171   1.937   5.456   0.271
 5765TIP3    H117172   1.844   5.458   0.293
 5765TIP3    H217173   1.982   5.470   0.354
 5766TIP3   OH217174   0.719   7.663   7.008
 5766TIP3    H117175   0.725   7.598   6.938
 5766TIP3    H217176   0.809   7.693   7.021
 5767TIP3   OH217177   1.704   5.311   6.802
 5767TIP3    H117178   1.797   5.332   6.819
 5767TIP3    H217179   1.706   5.225   6.761
 5768TIP3   OH217180   6.186   7.268   1.996
 5768TIP3    H117181   6.224   7.280   1.909
 5768TIP3    H217182   6.244   7.205   2.039
 5769TIP3   OH217183   4.280   1.629   6.378
 5769TIP3    H117184   4.234   1.572   6.440
 5769TIP3    H217185   4.259   1.592   6.292
 5770TIP3   OH217186   9.274   4.310   1.283
 5770TIP3    H117187   9.196   4.362   1.302
 5770TIP3    H217188   9.279   4.247   1.355
 5771TIP3   OH217189   5.164   8.538   0.674
 5771TIP3    H117190   5.165   8.451   0.633
 5771TIP3    H217191   5.254   8.570   0.665
 5772TIP3   OH217192   0.924   1.224   5.152
 5772TIP3    H117193   0.869   1.238   5.076
 5772TIP3    H217194   0.880   1.155   5.202
 5773TIP3   OH217195   4.762   7.582   5.059
 5773TIP3    H117196   4.840   7.587   5.004
 5773TIP3    H217197   4.724   7.669   5.055
 5774TIP3   OH217198   6.561   1.072   7.381
 5774TIP3    H117199   6.583   1.031   7.464
 5774TIP3    H217200   6.473   1.040   7.361
 5775TIP3   OH217201   7.634   8.915   6.604
 5775TIP3    H117202   7.697   8.843   6.598
 5775TIP3    H217203   7.682   8.992   6.576
 5776TIP3   OH217204   8.933   3.590   0.556
 5776TIP3    H117205   8.871   3.538   0.505
 5776TIP3    H217206   8.884   3.618   0.632
 5777TIP3   OH217207   9.499   7.309   1.377
 5777TIP3    H117208   9.417   7.274   1.414
 5777TIP3    H217209   9.552   7.232   1.359
 5778TIP3   OH217210   7.645   7.764   1.466
 5778TIP3    H117211   7.676   7.849   1.437
 5778TIP3    H217212   7.725   7.714   1.485
 5779TIP3   OH217213   6.466   1.583   2.590
 5779TIP3    H117214   6.543   1.573   2.646
 5779TIP3    H217215   6.392   1.584   2.651
 5780TIP3   OH217216   6.859   3.122   2.162
 5780TIP3    H117217   6.876   3.127   2.068
 5780TIP3    H217218   6.802   3.197   2.180
 5781TIP3   OH217219   4.742   4.890   7.082
 5781TIP3    H117220   4.715   4.956   7.017
 5781TIP3    H217221   4.718   4.928   7.166
 5782TIP3   OH217222   8.086   1.527   2.587
 5782TIP3    H117223   8.122   1.579   2.515
 5782TIP3    H217224   8.079   1.438   2.551
 5783TIP3   OH217225   5.819   8.415   0.781
 5783TIP3    H117226   5.869   8.487   0.744
 5783TIP3    H217227   5.883   8.345   0.795
 5784TIP3   OH217228   7.990   6.730   0.610
 5784TIP3    H117229   7.926   6.745   0.679
 5784TIP3    H217230   8.066   6.694   0.656
 5785TIP3   OH217231   2.247   5.584   0.020
 5785TIP3    H117232   2.237   5.640  -0.057
 5785TIP3    H217233   2.290   5.639   0.085
 5786TIP3   OH217234   6.950   6.610   1.524
 5786TIP3    H117235   6.957   6.519   1.495
 5786TIP3    H217236   7.039   6.644   1.518
 5787TIP3   OH217237   4.045   5.432   7.683
 5787TIP3    H117238   4.052   5.526   7.665
 5787TIP3    H217239   3.963   5.423   7.731
 5788TIP3   OH217240   5.344   4.237   3.205
 5788TIP3    H117241   5.415   4.267   3.261
 5788TIP3    H217242   5.265   4.245   3.259
 5789TIP3   OH217243   5.526   2.984   2.378
 5789TIP3    H117244   5.549   3.057   2.321
 5789TIP3    H217245   5.445   3.012   2.421
 5790TIP3   OH217246   3.644   8.123   5.592
 5790TIP3    H117247   3.668   8.089   5.506
 5790TIP3    H217248   3.549   8.128   5.590
 5791TIP3   OH217249   1.593   1.766   1.317
 5791TIP3    H117250   1.616   1.843   1.369
 5791TIP3    H217251   1.499   1.775   1.301
 5792TIP3   OH217252   5.420   4.014   0.738
 5792TIP3    H117253   5.361   3.953   0.783
 5792TIP3    H217254   5.394   4.101   0.770
 5793TIP3   OH217255   1.099   6.504   4.280
 5793TIP3    H117256   1.009   6.526   4.306
 5793TIP3    H217257   1.097   6.409   4.267
 5794TIP3   OH217258   1.877   8.209   0.375
 5794TIP3    H117259   1.881   8.288   0.428
 5794TIP3    H217260   1.903   8.138   0.435
 5795TIP3   OH217261   3.967   3.451   3.670
 5795TIP3    H117262   3.903   3.466   3.601
 5795TIP3    H217263   4.023   3.528   3.668
 5796TIP3   OH217264   8.198   6.575   1.675
 5796TIP3    H117265   8.269   6.604   1.732
 5796TIP3    H217266   8.130   6.642   1.686
 5797TIP3   OH217267   7.294   6.996   0.023
 5797TIP3    H117268   7.212   7.044   0.010
 5797TIP3    H217269   7.300   6.983   0.118
 5798TIP3   OH217270   1.892   4.737   2.982
 5798TIP3    H117271   1.957   4.793   3.024
 5798TIP3    H217272   1.934   4.708   2.902
 5799TIP3   OH217273   8.863   3.504   4.762
 5799TIP3    H117274   8.926   3.553   4.710
 5799TIP3    H217275   8.914   3.432   4.799
 5800TIP3   OH217276   5.538   2.438   2.046
 5800TIP3    H117277   5.509   2.352   2.076
 5800TIP3    H217278   5.468   2.469   1.989
 5801TIP3   OH217279   5.783   0.350   3.068
 5801TIP3    H117280   5.764   0.381   2.979
 5801TIP3    H217281   5.775   0.255   3.062
 5802TIP3   OH217282   5.808   7.397   7.099
 5802TIP3    H117283   5.720   7.371   7.071
 5802TIP3    H217284   5.863   7.322   7.078
 5803TIP3   OH217285   7.146   4.638   1.165
 5803TIP3    H117286   7.076   4.588   1.123
 5803TIP3    H217287   7.181   4.578   1.231
 5804TIP3   OH217288   7.045   6.751   7.220
 5804TIP3    H117289   7.004   6.836   7.210
 5804TIP3    H217290   7.004   6.696   7.154
 5805TIP3   OH217291   2.318   5.000   3.460
 5805TIP3    H117292   2.252   5.029   3.397
 5805TIP3    H217293   2.356   4.922   3.421
 5806TIP3   OH217294   6.755   7.517   0.322
 5806TIP3    H117295   6.849   7.533   0.317
 5806TIP3    H217296   6.721   7.545   0.236
 5807TIP3   OH217297   6.047   2.259   6.046
 5807TIP3    H117298   6.013   2.215   5.968
 5807TIP3    H217299   6.142   2.264   6.032
 5808TIP3   OH217300   9.458   8.415   1.580
 5808TIP3    H117301   9.515   8.346   1.614
 5808TIP3    H217302   9.515   8.491   1.571
 5809TIP3   OH217303   0.721   2.053   5.850
 5809TIP3    H117304   0.817   2.048   5.856
 5809TIP3    H217305   0.694   2.093   5.933
 5810TIP3   OH217306   4.512   4.881   2.127
 5810TIP3    H117307   4.454   4.820   2.082
 5810TIP3    H217308   4.524   4.843   2.215
 5811TIP3   OH217309   3.008   3.805   5.093
 5811TIP3    H117310   2.995   3.806   4.998
 5811TIP3    H217311   2.925   3.774   5.128
 5812TIP3   OH217312   4.507   3.722   1.445
 5812TIP3    H117313   4.421   3.749   1.479
 5812TIP3    H217314   4.496   3.719   1.350
 5813TIP3   OH217315   7.264   0.858   2.092
 5813TIP3    H117316   7.203   0.854   2.017
 5813TIP3    H217317   7.323   0.930   2.071
 5814TIP3   OH217318   6.101   8.406   5.770
 5814TIP3    H117319   6.195   8.390   5.779
 5814TIP3    H217320   6.084   8.397   5.676
 5815TIP3   OH217321   4.715   4.224   1.974
 5815TIP3    H117322   4.774   4.156   1.942
 5815TIP3    H217323   4.738   4.234   2.066
 5816TIP3   OH217324   6.667   4.185   3.121
 5816TIP3    H117325   6.761   4.200   3.111
 5816TIP3    H217326   6.661   4.106   3.175
 5817TIP3   OH217327   4.680   3.439   3.577
 5817TIP3    H117328   4.678   3.344   3.564
 5817TIP3    H217329   4.621   3.474   3.511
 5818TIP3   OH217330   7.160   5.087   4.058
 5818TIP3    H117331   7.170   5.022   3.988
 5818TIP3    H217332   7.249   5.108   4.084
 5819TIP3   OH217333   8.203   4.124   5.963
 5819TIP3    H117334   8.221   4.046   6.016
 5819TIP3    H217335   8.217   4.197   6.023
 5820TIP3   OH217336   8.091   0.812   2.477
 5820TIP3    H117337   8.022   0.833   2.539
 5820TIP3    H217338   8.083   0.880   2.409
 5821TIP3   OH217339   0.072   0.843   6.980
 5821TIP3    H117340   0.127   0.870   7.053
 5821TIP3    H217341  -0.018   0.851   7.013
 5822TIP3   OH217342   4.426   3.010   3.441
 5822TIP3    H117343   4.424   2.922   3.479
 5822TIP3    H217344   4.358   3.058   3.487
 5823TIP3   OH217345   3.693   6.455   2.795
 5823TIP3    H117346   3.620   6.488   2.847
 5823TIP3    H217347   3.684   6.499   2.710
 5824TIP3   OH217348   6.581   3.456   5.357
 5824TIP3    H117349   6.511   3.391   5.366
 5824TIP3    H217350   6.660   3.403   5.344
 5825TIP3   OH217351   4.631   6.652   5.949
 5825TIP3    H117352   4.692   6.580   5.937
 5825TIP3    H217353   4.641   6.706   5.870
 5826TIP3   OH217354   6.517   2.124   7.211
 5826TIP3    H117355   6.534   2.163   7.124
 5826TIP3    H217356   6.542   2.193   7.273
 5827TIP3   OH217357   3.727   4.059   0.818
 5827TIP3    H117358   3.692   3.973   0.796
 5827TIP3    H217359   3.794   4.043   0.884
 5828TIP3   OH217360   0.631   6.924   0.957
 5828TIP3    H117361   0.645   6.832   0.938
 5828TIP3    H217362   0.621   6.927   1.053
 5829TIP3   OH217363   1.696   3.595   1.157
 5829TIP3    H117364   1.634   3.583   1.085
 5829TIP3    H217365   1.693   3.689   1.174
 5830TIP3   OH217366   4.302   6.826   4.709
 5830TIP3    H117367   4.207   6.813   4.698
 5830TIP3    H217368   4.342   6.770   4.643
 5831TIP3   OH217369   3.863   3.422   6.070
 5831TIP3    H117370   3.948   3.465   6.086
 5831TIP3    H217371   3.885   3.348   6.013
 5832TIP3   OH217372   4.770   3.453   6.484
 5832TIP3    H117373   4.760   3.502   6.402
 5832TIP3    H217374   4.691   3.475   6.534
 5833TIP3   OH217375   3.530   0.803   4.870
 5833TIP3    H117376   3.438   0.781   4.854
 5833TIP3    H217377   3.556   0.744   4.942
 5834TIP3   OH217378   6.895   1.229   7.608
 5834TIP3    H117379   6.938   1.264   7.530
 5834TIP3    H217380   6.802   1.229   7.585
 5835TIP3   OH217381   1.513   1.859   4.936
 5835TIP3    H117382   1.477   1.914   4.866
 5835TIP3    H217383   1.443   1.798   4.957
 5836TIP3   OH217384   3.683   0.928   4.143
 5836TIP3    H117385   3.750   0.911   4.210
 5836TIP3    H217386   3.681   0.848   4.091
 5837TIP3   OH217387   9.079   5.541   0.430
 5837TIP3    H117388   9.069   5.465   0.487
 5837TIP3    H217389   9.009   5.532   0.365
 5838TIP3   OH217390   1.145   0.481   0.348
 5838TIP3    H117391   1.230   0.526   0.354
 5838TIP3    H217392   1.084   0.543   0.388
 5839TIP3   OH217393   2.821   8.211   0.694
 5839TIP3    H117394   2.872   8.160   0.631
 5839TIP3    H217395   2.734   8.217   0.655
 5840TIP3   OH217396   5.850   7.178   1.206
 5840TIP3    H117397   5.821   7.119   1.137
 5840TIP3    H217398   5.770   7.213   1.244
 5841TIP3   OH217399   0.746   5.807   4.169
 5841TIP3    H117400   0.801   5.756   4.109
 5841TIP3    H217401   0.796   5.886   4.185
 5842TIP3   OH217402   6.604   6.414   5.802
 5842TIP3    H117403   6.591   6.396   5.895
 5842TIP3    H217404   6.693   6.449   5.797
 5843TIP3   OH217405   1.022   4.262   0.196
 5843TIP3    H117406   0.998   4.327   0.262
 5843TIP3    H217407   1.112   4.285   0.172
 5844TIP3   OH217408   4.410   1.643   3.500
 5844TIP3    H117409   4.407   1.714   3.437
 5844TIP3    H217410   4.473   1.672   3.567
 5845TIP3   OH217411   6.176   5.660   4.780
 5845TIP3    H117412   6.193   5.694   4.868
 5845TIP3    H217413   6.150   5.737   4.730
 5846TIP3   OH217414   0.982   3.952   0.745
 5846TIP3    H117415   1.018   3.997   0.821
 5846TIP3    H217416   0.924   4.016   0.704
 5847TIP3   OH217417   5.851   5.862   4.459
 5847TIP3    H117418   5.891   5.908   4.533
 5847TIP3    H217419   5.881   5.910   4.382
 5848TIP3   OH217420   6.652   8.824   6.568
 5848TIP3    H117421   6.657   8.912   6.605
 5848TIP3    H217422   6.736   8.811   6.525
 5849TIP3   OH217423   4.459   3.424   4.971
 5849TIP3    H117424   4.544   3.454   5.004
 5849TIP3    H217425   4.482   3.359   4.903
 5850TIP3   OH217426   5.995   1.263   3.063
 5850TIP3    H117427   6.053   1.243   3.136
 5850TIP3    H217428   5.913   1.219   3.085
 5851TIP3   OH217429   2.117   8.393   7.007
 5851TIP3    H117430   2.205   8.423   6.983
 5851TIP3    H217431   2.061   8.469   6.989
 5852TIP3   OH217432   6.634   5.716   3.783
 5852TIP3    H117433   6.662   5.721   3.874
 5852TIP3    H217434   6.714   5.732   3.733
 5853TIP3   OH217435   8.407   3.467   2.321
 5853TIP3    H117436   8.396   3.536   2.255
 5853TIP3    H217437   8.374   3.506   2.402
 5854TIP3   OH217438   2.264   2.333   5.855
 5854TIP3    H117439   2.301   2.366   5.937
 5854TIP3    H217440   2.339   2.324   5.797
 5855TIP3   OH217441   5.197   1.423   5.093
 5855TIP3    H117442   5.144   1.490   5.052
 5855TIP3    H217443   5.141   1.345   5.094
 5856TIP3   OH217444   4.285   4.826   3.125
 5856TIP3    H117445   4.364   4.880   3.126
 5856TIP3    H217446   4.218   4.883   3.087
 5857TIP3   OH217447   5.519   7.868   0.422
 5857TIP3    H117448   5.441   7.882   0.476
 5857TIP3    H217449   5.593   7.888   0.480
 5858TIP3   OH217450   6.501   7.984   0.416
 5858TIP3    H117451   6.571   8.041   0.383
 5858TIP3    H217452   6.432   7.989   0.350
 5859TIP3   OH217453   3.593   5.236   6.940
 5859TIP3    H117454   3.605   5.215   7.032
 5859TIP3    H217455   3.505   5.205   6.919
 5860TIP3   OH217456   4.155   2.879   4.359
 5860TIP3    H117457   4.222   2.819   4.393
 5860TIP3    H217458   4.078   2.860   4.412
 5861TIP3   OH217459   1.701   0.431   5.348
 5861TIP3    H117460   1.605   0.428   5.340
 5861TIP3    H217461   1.726   0.511   5.301
 5862TIP3   OH217462   3.885   1.101   2.500
 5862TIP3    H117463   3.811   1.041   2.507
 5862TIP3    H217464   3.871   1.165   2.570
 5863TIP3   OH217465   2.276   8.690   5.465
 5863TIP3    H117466   2.320   8.613   5.501
 5863TIP3    H217467   2.291   8.759   5.530
 5864TIP3   OH217468   4.885   7.594   2.539
 5864TIP3    H117469   4.838   7.533   2.482
 5864TIP3    H217470   4.927   7.539   2.605
 5865TIP3   OH217471   4.048   8.923   3.167
 5865TIP3    H117472   4.052   8.946   3.074
 5865TIP3    H217473   4.101   8.843   3.174
 5866TIP3   OH217474   3.995   7.746   6.817
 5866TIP3    H117475   3.900   7.746   6.822
 5866TIP3    H217476   4.023   7.706   6.899
 5867TIP3   OH217477   0.153   7.417   5.419
 5867TIP3    H117478   0.093   7.391   5.350
 5867TIP3    H217479   0.098   7.463   5.482
 5868TIP3   OH217480   9.121   2.986   7.560
 5868TIP3    H117481   9.188   3.016   7.621
 5868TIP3    H217482   9.070   3.064   7.539
 5869TIP3   OH217483   4.968   6.994   7.363
 5869TIP3    H117484   4.907   6.972   7.293
 5869TIP3    H217485   5.020   6.915   7.376
 5870TIP3   OH217486   7.944   2.322   1.624
 5870TIP3    H117487   8.012   2.384   1.598
 5870TIP3    H217488   7.892   2.369   1.690
 5871TIP3   OH217489   8.214   8.781   3.214
 5871TIP3    H117490   8.240   8.870   3.240
 5871TIP3    H217491   8.217   8.731   3.295
 5872TIP3   OH217492   0.965   7.592   1.316
 5872TIP3    H117493   0.925   7.547   1.241
 5872TIP3    H217494   0.891   7.633   1.361
 5873TIP3   OH217495   4.160   3.635   3.627
 5873TIP3    H117496   4.197   3.715   3.665
 5873TIP3    H217497   4.173   3.646   3.532
 5874TIP3   OH217498   2.459   3.384   6.903
 5874TIP3    H117499   2.394   3.442   6.863
 5874TIP3    H217500   2.528   3.442   6.933
 5875TIP3   OH217501   0.784   5.159   5.789
 5875TIP3    H117502   0.811   5.172   5.880
 5875TIP3    H217503   0.821   5.074   5.765
 5876TIP3   OH217504   9.362   0.424   4.610
 5876TIP3    H117505   9.320   0.439   4.694
 5876TIP3    H217506   9.320   0.345   4.576
 5877TIP3   OH217507   7.352   8.540   1.777
 5877TIP3    H117508   7.402   8.612   1.815
 5877TIP3    H217509   7.308   8.499   1.852
 5878TIP3   OH217510   0.729   1.728   1.083
 5878TIP3    H117511   0.705   1.669   1.011
 5878TIP3    H217512   0.807   1.774   1.051
 5879TIP3   OH217513   2.488   2.236   5.666
 5879TIP3    H117514   2.558   2.221   5.603
 5879TIP3    H217515   2.532   2.274   5.742
 5880TIP3   OH217516   0.773   1.150   4.430
 5880TIP3    H117517   0.741   1.237   4.452
 5880TIP3    H217518   0.852   1.139   4.483
 5881TIP3   OH217519   0.684   2.704   5.652
 5881TIP3    H117520   0.773   2.733   5.673
 5881TIP3    H217521   0.695   2.615   5.620
 5882TIP3   OH217522   8.067   2.332   4.923
 5882TIP3    H117523   8.043   2.248   4.963
 5882TIP3    H217524   8.162   2.338   4.933
 5883TIP3   OH217525   1.524   8.478   1.745
 5883TIP3    H117526   1.553   8.442   1.661
 5883TIP3    H217527   1.438   8.440   1.759
 5884TIP3   OH217528   1.291   1.603   1.356
 5884TIP3    H117529   1.365   1.588   1.414
 5884TIP3    H217530   1.299   1.536   1.288
 5885TIP3   OH217531   6.736   1.115   3.379
 5885TIP3    H117532   6.647   1.090   3.405
 5885TIP3    H217533   6.726   1.150   3.291
 5886TIP3   OH217534   8.928   5.238   5.230
 5886TIP3    H117535   8.940   5.167   5.167
 5886TIP3    H217536   8.999   5.226   5.293
 5887TIP3   OH217537   2.094   1.745   3.063
 5887TIP3    H117538   2.182   1.729   3.098
 5887TIP3    H217539   2.084   1.680   2.993
 5888TIP3   OH217540   4.211   6.505   0.620
 5888TIP3    H117541   4.301   6.504   0.588
 5888TIP3    H217542   4.215   6.463   0.706
 5889TIP3   OH217543   6.430   2.982   1.072
 5889TIP3    H117544   6.469   3.027   0.997
 5889TIP3    H217545   6.416   2.892   1.042
 5890TIP3   OH217546   4.324   2.901   6.625
 5890TIP3    H117547   4.369   2.983   6.604
 5890TIP3    H217548   4.238   2.928   6.658
 5891TIP3   OH217549   8.987   4.839   4.302
 5891TIP3    H117550   8.963   4.921   4.343
 5891TIP3    H217551   9.057   4.804   4.357
 5892TIP3   OH217552   2.840   0.376   5.367
 5892TIP3    H117553   2.903   0.305   5.355
 5892TIP3    H217554   2.868   0.420   5.447
 5893TIP3   OH217555   6.599   6.646   6.488
 5893TIP3    H117556   6.611   6.720   6.428
 5893TIP3    H217557   6.511   6.659   6.524
 5894TIP3   OH217558   6.624   1.850   4.221
 5894TIP3    H117559   6.632   1.913   4.150
 5894TIP3    H217560   6.617   1.765   4.177
 5895TIP3   OH217561   5.039   7.521   4.204
 5895TIP3    H117562   4.988   7.535   4.284
 5895TIP3    H217563   5.116   7.473   4.232
 5896TIP3   OH217564   7.227   1.218   4.453
 5896TIP3    H117565   7.281   1.256   4.383
 5896TIP3    H217566   7.260   1.129   4.464
 5897TIP3   OH217567   5.564   5.773   2.788
 5897TIP3    H117568   5.604   5.742   2.869
 5897TIP3    H217569   5.620   5.846   2.760
 5898TIP3   OH217570   8.174   3.644   1.854
 5898TIP3    H117571   8.131   3.565   1.822
 5898TIP3    H217572   8.189   3.697   1.775
 5899TIP3   OH217573   4.288   1.127   2.182
 5899TIP3    H117574   4.265   1.036   2.199
 5899TIP3    H217575   4.376   1.136   2.219
 5900TIP3   OH217576   5.193   8.282   4.812
 5900TIP3    H117577   5.144   8.232   4.747
 5900TIP3    H217578   5.260   8.329   4.761
 5901TIP3   OH217579   2.301   0.182   4.963
 5901TIP3    H117580   2.341   0.116   4.906
 5901TIP3    H217581   2.365   0.253   4.966
 5902TIP3   OH217582   2.277   3.533   3.562
 5902TIP3    H117583   2.329   3.459   3.530
 5902TIP3    H217584   2.322   3.560   3.642
 5903TIP3   OH217585   6.527   3.142   2.080
 5903TIP3    H117586   6.594   3.176   2.138
 5903TIP3    H217587   6.516   3.209   2.013
 5904TIP3   OH217588   1.758   4.011   1.554
 5904TIP3    H117589   1.848   4.018   1.521
 5904TIP3    H217590   1.716   3.949   1.495
 5905TIP3   OH217591   5.859   8.952   5.193
 5905TIP3    H117592   5.843   8.915   5.280
 5905TIP3    H217593   5.878   8.876   5.138
 5906TIP3   OH217594   3.840   1.814   2.601
 5906TIP3    H117595   3.805   1.726   2.617
 5906TIP3    H217596   3.821   1.862   2.682
 5907TIP3   OH217597   4.664   2.923   3.308
 5907TIP3    H117598   4.723   2.976   3.361
 5907TIP3    H217599   4.576   2.946   3.338
 5908TIP3   OH217600   7.044   7.315   0.558
 5908TIP3    H117601   6.966   7.284   0.513
 5908TIP3    H217602   7.091   7.235   0.582
 5909TIP3   OH217603   5.119   5.698   4.392
 5909TIP3    H117604   5.205   5.660   4.376
 5909TIP3    H217605   5.071   5.632   4.442
 5910TIP3   OH217606   0.560   5.151   0.792
 5910TIP3    H117607   0.485   5.092   0.804
 5910TIP3    H217608   0.520   5.236   0.772
 5911TIP3   OH217609   0.417   5.283   7.003
 5911TIP3    H117610   0.400   5.226   7.078
 5911TIP3    H217611   0.416   5.371   7.040
 5912TIP3   OH217612   5.797   0.182   1.742
 5912TIP3    H117613   5.767   0.235   1.668
 5912TIP3    H217614   5.717   0.143   1.778
 5913TIP3   OH217615   2.949   2.207   7.772
 5913TIP3    H117616   3.005   2.222   7.848
 5913TIP3    H217617   2.861   2.196   7.809
 5914TIP3   OH217618   4.556   6.269   5.862
 5914TIP3    H117619   4.495   6.339   5.839
 5914TIP3    H217620   4.531   6.242   5.950
 5915TIP3   OH217621   6.404   7.546   2.073
 5915TIP3    H117622   6.495   7.570   2.058
 5915TIP3    H217623   6.365   7.624   2.113
 5916TIP3   OH217624   7.311   7.718   0.971
 5916TIP3    H117625   7.244   7.711   1.039
 5916TIP3    H217626   7.326   7.812   0.961
 5917TIP3   OH217627   4.557   4.794   0.584
 5917TIP3    H117628   4.581   4.744   0.506
 5917TIP3    H217629   4.620   4.866   0.587
 5918TIP3   OH217630   7.781   5.549   0.624
 5918TIP3    H117631   7.702   5.538   0.678
 5918TIP3    H217632   7.809   5.639   0.641
 5919TIP3   OH217633   4.816   0.729   1.172
 5919TIP3    H117634   4.794   0.665   1.104
 5919TIP3    H217635   4.736   0.736   1.225
 5920TIP3   OH217636   2.022   2.285   5.129
 5920TIP3    H117637   2.007   2.342   5.205
 5920TIP3    H217638   1.976   2.329   5.057
 5921TIP3   OH217639   9.400   8.909   4.448
 5921TIP3    H117640   9.363   8.828   4.484
 5921TIP3    H217641   9.464   8.879   4.383
 5922TIP3   OH217642   8.320   2.941   7.690
 5922TIP3    H117643   8.368   3.023   7.701
 5922TIP3    H217644   8.292   2.918   7.779
 5923TIP3   OH217645   3.792   3.818   4.649
 5923TIP3    H117646   3.821   3.817   4.558
 5923TIP3    H217647   3.753   3.905   4.661
 5924TIP3   OH217648   7.836   3.704   4.105
 5924TIP3    H117649   7.809   3.624   4.150
 5924TIP3    H217650   7.825   3.774   4.170
 5925TIP3   OH217651   6.251   6.487   6.512
 5925TIP3    H117652   6.167   6.513   6.474
 5925TIP3    H217653   6.293   6.570   6.535
 5926TIP3   OH217654   0.882   3.461   1.384
 5926TIP3    H117655   0.964   3.447   1.431
 5926TIP3    H217656   0.823   3.499   1.449
 5927TIP3   OH217657   4.578   2.000   4.906
 5927TIP3    H117658   4.625   2.083   4.897
 5927TIP3    H217659   4.544   1.982   4.819
 5928TIP3   OH217660   5.609   8.647   2.303
 5928TIP3    H117661   5.624   8.638   2.209
 5928TIP3    H217662   5.678   8.595   2.343
 5929TIP3   OH217663   0.067   5.624   4.536
 5929TIP3    H117664   0.130   5.677   4.487
 5929TIP3    H217665  -0.015   5.634   4.488
 5930TIP3   OH217666   9.323   2.239   3.173
 5930TIP3    H117667   9.348   2.329   3.153
 5930TIP3    H217668   9.259   2.216   3.105
 5931TIP3   OH217669   0.221   7.640   5.709
 5931TIP3    H117670   0.147   7.614   5.765
 5931TIP3    H217671   0.189   7.716   5.661
 5932TIP3   OH217672   0.814   4.516   1.024
 5932TIP3    H117673   0.759   4.541   0.949
 5932TIP3    H217674   0.790   4.579   1.092
 5933TIP3   OH217675   9.377   2.935   5.296
 5933TIP3    H117676   9.332   2.973   5.372
 5933TIP3    H217677   9.365   2.999   5.226
 5934TIP3   OH217678   7.998   6.705   1.191
 5934TIP3    H117679   8.062   6.776   1.186
 5934TIP3    H217680   7.980   6.696   1.285
 5935TIP3   OH217681   4.408   6.437   4.804
 5935TIP3    H117682   4.396   6.342   4.796
 5935TIP3    H217683   4.494   6.453   4.766
 5936TIP3   OH217684   0.795   6.128   7.519
 5936TIP3    H117685   0.785   6.069   7.594
 5936TIP3    H217686   0.843   6.076   7.454
 5937TIP3   OH217687   5.689   5.486   5.100
 5937TIP3    H117688   5.657   5.461   5.187
 5937TIP3    H217689   5.749   5.415   5.076
 5938TIP3   OH217690   5.982   6.511   2.342
 5938TIP3    H117691   5.889   6.525   2.327
 5938TIP3    H217692   5.986   6.434   2.399
 5939TIP3   OH217693   1.430   3.029   5.119
 5939TIP3    H117694   1.490   3.030   5.193
 5939TIP3    H217695   1.381   3.111   5.126
 5940TIP3   OH217696   0.423   4.581   7.526
 5940TIP3    H117697   0.464   4.629   7.598
 5940TIP3    H217698   0.330   4.602   7.533
 5941TIP3   OH217699   3.440   4.732   0.149
 5941TIP3    H117700   3.489   4.748   0.068
 5941TIP3    H217701   3.350   4.756   0.128
 5942TIP3   OH217702   3.691   3.017   5.984
 5942TIP3    H117703   3.645   3.080   6.040
 5942TIP3    H217704   3.690   3.057   5.897
 5943TIP3   OH217705   8.053   3.012   0.714
 5943TIP3    H117706   7.990   3.010   0.786
 5943TIP3    H217707   8.006   3.053   0.642
 5944TIP3   OH217708   2.121   4.624   6.724
 5944TIP3    H117709   2.194   4.676   6.757
 5944TIP3    H217710   2.070   4.602   6.802
 5945TIP3   OH217711   0.336   1.595   0.736
 5945TIP3    H117712   0.397   1.627   0.802
 5945TIP3    H217713   0.392   1.564   0.665
 5946TIP3   OH217714   3.681   1.357   5.184
 5946TIP3    H117715   3.614   1.373   5.117
 5946TIP3    H217716   3.707   1.444   5.214
 5947TIP3   OH217717   0.797   4.524   2.661
 5947TIP3    H117718   0.730   4.579   2.619
 5947TIP3    H217719   0.814   4.566   2.745
 5948TIP3   OH217720   6.187   4.520   4.818
 5948TIP3    H117721   6.106   4.555   4.779
 5948TIP3    H217722   6.156   4.458   4.884
 5949TIP3   OH217723   0.809   5.805   7.560
 5949TIP3    H117724   0.768   5.770   7.481
 5949TIP3    H217725   0.758   5.768   7.632
 5950TIP3   OH217726   6.982   1.121   6.071
 5950TIP3    H117727   7.036   1.198   6.089
 5950TIP3    H217728   7.022   1.080   5.994
 5951TIP3   OH217729   3.646   0.715   4.648
 5951TIP3    H117730   3.684   0.779   4.588
 5951TIP3    H217731   3.628   0.765   4.728
 5952TIP3   OH217732   5.114   5.333   4.487
 5952TIP3    H117733   5.199   5.358   4.453
 5952TIP3    H217734   5.096   5.395   4.557
 5953TIP3   OH217735   6.302   7.409   6.305
 5953TIP3    H117736   6.358   7.344   6.263
 5953TIP3    H217737   6.265   7.365   6.381
 5954TIP3   OH217738   0.540   1.006   4.600
 5954TIP3    H117739   0.606   1.015   4.669
 5954TIP3    H217740   0.574   0.936   4.543
 5955TIP3   OH217741   1.644   1.430   6.306
 5955TIP3    H117742   1.620   1.439   6.213
 5955TIP3    H217743   1.698   1.507   6.324
 5956TIP3   OH217744   2.058   2.937   7.508
 5956TIP3    H117745   2.024   2.881   7.438
 5956TIP3    H217746   2.138   2.893   7.537
 5957TIP3   OH217747   8.073   2.408   2.930
 5957TIP3    H117748   8.114   2.408   3.017
 5957TIP3    H217749   7.981   2.392   2.947
 5958TIP3   OH217750   2.604   6.893   3.621
 5958TIP3    H117751   2.683   6.888   3.567
 5958TIP3    H217752   2.546   6.952   3.573
 5959TIP3   OH217753   8.212   7.740   2.495
 5959TIP3    H117754   8.228   7.832   2.475
 5959TIP3    H217755   8.241   7.693   2.417
 5960TIP3   OH217756   9.499   0.222   2.142
 5960TIP3    H117757   9.540   0.191   2.223
 5960TIP3    H217758   9.454   0.303   2.168
 5961TIP3   OH217759   0.738   8.109   4.994
 5961TIP3    H117760   0.829   8.085   5.011
 5961TIP3    H217761   0.741   8.160   4.913
 5962TIP3   OH217762   8.698   1.233   2.233
 5962TIP3    H117763   8.787   1.252   2.204
 5962TIP3    H217764   8.680   1.145   2.201
 5963TIP3   OH217765   2.887   1.349   5.346
 5963TIP3    H117766   2.906   1.443   5.355
 5963TIP3    H217767   2.858   1.321   5.433
 5964TIP3   OH217768   7.371   4.159   0.526
 5964TIP3    H117769   7.336   4.126   0.443
 5964TIP3    H217770   7.431   4.091   0.556
 5965TIP3   OH217771   8.798   6.155   0.604
 5965TIP3    H117772   8.841   6.220   0.659
 5965TIP3    H217773   8.723   6.202   0.566
 5966TIP3   OH217774   7.292   0.147   1.430
 5966TIP3    H117775   7.231   0.213   1.397
 5966TIP3    H217776   7.244   0.065   1.426
 5967TIP3   OH217777   1.276   6.209   5.406
 5967TIP3    H117778   1.263   6.133   5.462
 5967TIP3    H217779   1.204   6.269   5.428
 5968TIP3   OH217780   8.875   6.034   4.310
 5968TIP3    H117781   8.843   6.123   4.327
 5968TIP3    H217782   8.828   5.979   4.372
 5969TIP3   OH217783   7.204   8.868   2.975
 5969TIP3    H117784   7.144   8.857   3.049
 5969TIP3    H217785   7.234   8.780   2.955
 5970TIP3   OH217786   2.684   7.088   2.510
 5970TIP3    H117787   2.760   7.031   2.500
 5970TIP3    H217788   2.720   7.170   2.545
 5971TIP3   OH217789   3.081   3.790   1.806
 5971TIP3    H117790   3.011   3.724   1.795
 5971TIP3    H217791   3.097   3.823   1.717
 5972TIP3   OH217792   4.291   4.308   0.689
 5972TIP3    H117793   4.314   4.283   0.779
 5972TIP3    H217794   4.344   4.250   0.634
 5973TIP3   OH217795   1.681   7.061   5.501
 5973TIP3    H117796   1.689   6.967   5.488
 5973TIP3    H217797   1.607   7.071   5.560
 5974TIP3   OH217798   2.853   8.757   2.633
 5974TIP3    H117799   2.776   8.778   2.580
 5974TIP3    H217800   2.886   8.675   2.597
 5975TIP3   OH217801   0.285   7.136   5.933
 5975TIP3    H117802   0.238   7.192   5.870
 5975TIP3    H217803   0.335   7.198   5.986
 5976TIP3   OH217804   7.873   7.279   2.598
 5976TIP3    H117805   7.874   7.209   2.663
 5976TIP3    H217806   7.824   7.350   2.640
 5977TIP3   OH217807   6.920   2.818   4.946
 5977TIP3    H117808   6.952   2.907   4.964
 5977TIP3    H217809   6.977   2.786   4.876
 5978TIP3   OH217810   5.682   3.157   1.892
 5978TIP3    H117811   5.677   3.069   1.929
 5978TIP3    H217812   5.775   3.180   1.899
 5979TIP3   OH217813   6.709   2.385   3.435
 5979TIP3    H117814   6.779   2.364   3.497
 5979TIP3    H217815   6.629   2.373   3.486
 5980TIP3   OH217816   6.028   3.515   1.199
 5980TIP3    H117817   6.042   3.449   1.131
 5980TIP3    H217818   5.986   3.467   1.270
 5981TIP3   OH217819   1.382   6.840   6.296
 5981TIP3    H117820   1.433   6.783   6.354
 5981TIP3    H217821   1.373   6.921   6.346
 5982TIP3   OH217822   0.862   9.008   0.621
 5982TIP3    H117823   0.769   9.008   0.598
 5982TIP3    H217824   0.863   9.025   0.715
 5983TIP3   OH217825   9.146   3.536   7.499
 5983TIP3    H117826   9.175   3.447   7.521
 5983TIP3    H217827   9.170   3.589   7.575
 5984TIP3   OH217828   9.080   4.674   1.065
 5984TIP3    H117829   9.154   4.720   1.024
 5984TIP3    H217830   9.119   4.596   1.104
 5985TIP3   OH217831   8.608   1.564   3.552
 5985TIP3    H117832   8.689   1.566   3.501
 5985TIP3    H217833   8.558   1.639   3.520
 5986TIP3   OH217834   8.759   5.452   1.407
 5986TIP3    H117835   8.742   5.524   1.466
 5986TIP3    H217836   8.843   5.416   1.436
 5987TIP3   OH217837   9.016   3.863   3.575
 5987TIP3    H117838   9.083   3.929   3.556
 5987TIP3    H217839   9.018   3.854   3.670
 5988TIP3   OH217840   0.228   4.995   2.610
 5988TIP3    H117841   0.214   5.018   2.702
 5988TIP3    H217842   0.141   5.001   2.570
 5989TIP3   OH217843   9.105   0.687   1.750
 5989TIP3    H117844   9.198   0.676   1.768
 5989TIP3    H217845   9.061   0.651   1.827
 5990TIP3   OH217846   9.301   7.648   3.661
 5990TIP3    H117847   9.338   7.736   3.670
 5990TIP3    H217848   9.376   7.591   3.648
 5991TIP3   OH217849   6.203   3.777   5.795
 5991TIP3    H117850   6.256   3.797   5.872
 5991TIP3    H217851   6.211   3.854   5.739
 5992TIP3   OH217852   1.343   7.545   6.478
 5992TIP3    H117853   1.349   7.635   6.444
 5992TIP3    H217854   1.417   7.499   6.440
 5993TIP3   OH217855   5.991   5.686   6.245
 5993TIP3    H117856   6.004   5.771   6.287
 5993TIP3    H217857   6.071   5.670   6.196
 5994TIP3   OH217858   8.510   4.124   5.740
 5994TIP3    H117859   8.499   4.160   5.828
 5994TIP3    H217860   8.600   4.146   5.716
 5995TIP3   OH217861   8.632   8.260   5.250
 5995TIP3    H117862   8.619   8.328   5.183
 5995TIP3    H217863   8.596   8.181   5.211
 5996TIP3   OH217864   2.924   6.141   6.936
 5996TIP3    H117865   2.889   6.226   6.909
 5996TIP3    H217866   3.001   6.163   6.989
 5997TIP3   OH217867   6.375   4.910   6.262
 5997TIP3    H117868   6.414   4.890   6.347
 5997TIP3    H217869   6.348   5.002   6.269
 5998TIP3   OH217870   5.149   8.874   6.736
 5998TIP3    H117871   5.191   8.806   6.789
 5998TIP3    H217872   5.205   8.951   6.747
 5999TIP3   OH217873   3.379   6.375   2.764
 5999TIP3    H117874   3.440   6.317   2.812
 5999TIP3    H217875   3.414   6.378   2.675
 6000TIP3   OH217876   5.666   8.634   0.578
 6000TIP3    H117877   5.678   8.583   0.498
 6000TIP3    H217878   5.754   8.639   0.617
 6001TIP3   OH217879   1.794   7.307   3.540
 6001TIP3    H117880   1.837   7.221   3.547
 6001TIP3    H217881   1.867   7.368   3.532
 6002TIP3   OH217882   7.888   8.489   2.841
 6002TIP3    H117883   7.930   8.570   2.871
 6002TIP3    H217884   7.958   8.424   2.844
 6003TIP3   OH217885   8.828   7.447   7.810
 6003TIP3    H117886   8.833   7.542   7.807
 6003TIP3    H217887   8.797   7.422   7.722
 6004TIP3   OH217888   7.916   5.504   2.942
 6004TIP3    H117889   7.984   5.492   3.009
 6004TIP3    H217890   7.956   5.561   2.877
 6005TIP3   OH217891   4.898   5.755   0.697
 6005TIP3    H117892   4.987   5.720   0.710
 6005TIP3    H217893   4.892   5.828   0.757
 6006TIP3   OH217894   3.749   8.523   6.703
 6006TIP3    H117895   3.724   8.542   6.794
 6006TIP3    H217896   3.841   8.501   6.707
 6007TIP3   OH217897   5.152   5.479   2.117
 6007TIP3    H117898   5.123   5.391   2.092
 6007TIP3    H217899   5.210   5.506   2.046
 6008TIP3   OH217900   7.957   6.976   2.915
 6008TIP3    H117901   7.932   7.060   2.876
 6008TIP3    H217902   7.995   7.000   3.000
 6009TIP3   OH217903   0.848   4.536   6.154
 6009TIP3    H117904   0.756   4.517   6.166
 6009TIP3    H217905   0.852   4.587   6.073
 6010TIP3   OH217906   2.187   2.944   6.360
 6010TIP3    H117907   2.166   2.942   6.267
 6010TIP3    H217908   2.169   2.855   6.390
 6011TIP3   OH217909   3.354   3.267   4.491
 6011TIP3    H117910   3.411   3.193   4.511
 6011TIP3    H217911   3.343   3.264   4.396
 6012TIP3   OH217912   3.403   2.222   6.566
 6012TIP3    H117913   3.413   2.218   6.661
 6012TIP3    H217914   3.417   2.132   6.536
 6013TIP3   OH217915   6.851   3.112   1.875
 6013TIP3    H117916   6.782   3.175   1.893
 6013TIP3    H217917   6.849   3.099   1.780
 6014TIP3   OH217918   6.626   8.215   4.794
 6014TIP3    H117919   6.665   8.128   4.786
 6014TIP3    H217920   6.579   8.229   4.712
 6015TIP3   OH217921   4.995   8.480   2.802
 6015TIP3    H117922   5.071   8.432   2.768
 6015TIP3    H217923   4.920   8.429   2.771
 6016TIP3   OH217924   7.317   8.624   5.630
 6016TIP3    H117925   7.237   8.583   5.595
 6016TIP3    H217926   7.338   8.693   5.567
 6017TIP3   OH217927   7.310   1.892   6.284
 6017TIP3    H117928   7.256   1.821   6.318
 6017TIP3    H217929   7.390   1.850   6.255
 6018TIP3   OH217930   0.500   7.522   1.262
 6018TIP3    H117931   0.519   7.480   1.346
 6018TIP3    H217932   0.540   7.609   1.268
 6019TIP3   OH217933   7.594   1.741   7.613
 6019TIP3    H117934   7.517   1.782   7.574
 6019TIP3    H217935   7.604   1.784   7.698
 6020TIP3   OH217936   8.677   2.869   3.680
 6020TIP3    H117937   8.665   2.782   3.644
 6020TIP3    H217938   8.728   2.856   3.760
 6021TIP3   OH217939   0.673   2.514   1.611
 6021TIP3    H117940   0.765   2.534   1.593
 6021TIP3    H217941   0.671   2.419   1.624
 6022TIP3   OH217942   2.326   2.537   5.195
 6022TIP3    H117943   2.297   2.570   5.110
 6022TIP3    H217944   2.349   2.445   5.178
 6023TIP3   OH217945   5.698   7.641   7.733
 6023TIP3    H117946   5.668   7.556   7.764
 6023TIP3    H217947   5.709   7.693   7.813
 6024TIP3   OH217948   8.345   2.341   6.289
 6024TIP3    H117949   8.330   2.287   6.367
 6024TIP3    H217950   8.366   2.278   6.220
 6025TIP3   OH217951   2.327   1.152   5.819
 6025TIP3    H117952   2.289   1.065   5.831
 6025TIP3    H217953   2.292   1.182   5.735
 6026TIP3   OH217954   1.193   3.985   5.610
 6026TIP3    H117955   1.285   4.007   5.594
 6026TIP3    H217956   1.195   3.895   5.643
 6027TIP3   OH217957   0.480   7.987   5.304
 6027TIP3    H117958   0.511   7.914   5.358
 6027TIP3    H217959   0.442   8.049   5.366
 6028TIP3   OH217960   7.186   0.728   0.090
 6028TIP3    H117961   7.145   0.715   0.176
 6028TIP3    H217962   7.280   0.731   0.108
 6029TIP3   OH217963   5.531   4.148   0.501
 6029TIP3    H117964   5.592   4.219   0.516
 6029TIP3    H217965   5.513   4.113   0.588
 6030TIP3   OH217966   8.919   0.513   1.605
 6030TIP3    H117967   9.010   0.504   1.632
 6030TIP3    H217968   8.922   0.522   1.510
 6031TIP3   OH217969   0.451   7.579   5.594
 6031TIP3    H117970   0.447   7.557   5.501
 6031TIP3    H217971   0.360   7.599   5.618
 6032TIP3   OH217972   7.751   8.316   3.812
 6032TIP3    H117973   7.683   8.283   3.753
 6032TIP3    H217974   7.768   8.405   3.782
 6033TIP3   OH217975   3.772   4.694   6.991
 6033TIP3    H117976   3.751   4.751   6.917
 6033TIP3    H217977   3.720   4.729   7.063
 6034TIP3   OH217978   7.135   0.919   2.916
 6034TIP3    H117979   7.209   0.947   2.862
 6034TIP3    H217980   7.145   0.967   2.998
 6035TIP3   OH217981   1.057   2.066   6.541
 6035TIP3    H117982   0.963   2.077   6.529
 6035TIP3    H217983   1.093   2.154   6.530
 6036TIP3   OH217984   2.089   7.337   3.926
 6036TIP3    H117985   2.117   7.424   3.900
 6036TIP3    H217986   2.021   7.352   3.991
 6037TIP3   OH217987   6.985   4.289   5.083
 6037TIP3    H117988   6.946   4.222   5.026
 6037TIP3    H217989   6.964   4.372   5.040
 6038TIP3   OH217990   1.935   8.470   6.387
 6038TIP3    H117991   1.936   8.385   6.431
 6038TIP3    H217992   1.860   8.466   6.328
 6039TIP3   OH217993   2.863   1.524   7.796
 6039TIP3    H117994   2.879   1.543   7.704
 6039TIP3    H217995   2.884   1.431   7.805
 6040TIP3   OH217996   0.884   2.486   4.739
 6040TIP3    H117997   0.878   2.396   4.771
 6040TIP3    H217998   0.878   2.540   4.818
 6041TIP3   OH217999   5.871   5.615   2.218
 6041TIP3    H118000   5.899   5.524   2.229
 6041TIP3    H218001   5.827   5.616   2.132
 6042TIP3   OH218002   0.377   0.938   5.381
 6042TIP3    H118003   0.465   0.919   5.415
 6042TIP3    H218004   0.318   0.917   5.454
 6043TIP3   OH218005   2.853   3.063   5.261
 6043TIP3    H118006   2.912   3.089   5.190
 6043TIP3    H218007   2.765   3.066   5.222
 6044TIP3   OH218008   5.568   7.932   0.086
 6044TIP3    H118009   5.526   7.866   0.141
 6044TIP3    H218010   5.592   7.886   0.006
 6045TIP3   OH218011   7.501   8.605   6.102
 6045TIP3    H118012   7.518   8.694   6.071
 6045TIP3    H218013   7.440   8.569   6.038
 6046TIP3   OH218014   5.809   6.295   6.802
 6046TIP3    H118015   5.873   6.239   6.846
 6046TIP3    H218016   5.775   6.352   6.871
 6047TIP3   OH218017   3.249   8.981   3.655
 6047TIP3    H118018   3.203   9.062   3.677
 6047TIP3    H218019   3.183   8.926   3.612
 6048TIP3   OH218020   6.383   4.544   5.759
 6048TIP3    H118021   6.408   4.499   5.840
 6048TIP3    H218022   6.408   4.483   5.689
 6049TIP3   OH218023   8.496   6.569   1.646
 6049TIP3    H118024   8.577   6.560   1.695
 6049TIP3    H218025   8.461   6.655   1.672
 6050TIP3   OH218026   1.567   8.184   5.446
 6050TIP3    H118027   1.508   8.203   5.518
 6050TIP3    H218028   1.549   8.252   5.381
 6051TIP3   OH218029   9.304   6.039   2.721
 6051TIP3    H118030   9.388   6.083   2.709
 6051TIP3    H218031   9.306   5.966   2.660
 6052TIP3   OH218032   7.629   1.144   0.868
 6052TIP3    H118033   7.668   1.215   0.920
 6052TIP3    H218034   7.704   1.089   0.843
 6053TIP3   OH218035   4.167   7.108   1.261
 6053TIP3    H118036   4.263   7.107   1.265
 6053TIP3    H218037   4.142   7.016   1.273
 6054TIP3   OH218038   6.983   0.576   2.087
 6054TIP3    H118039   6.977   0.666   2.120
 6054TIP3    H218040   6.951   0.581   1.997
 6055TIP3   OH218041   6.879   8.797   7.495
 6055TIP3    H118042   6.888   8.872   7.437
 6055TIP3    H218043   6.829   8.830   7.570
 6056TIP3   OH218044   3.203   0.608   5.593
 6056TIP3    H118045   3.112   0.599   5.620
 6056TIP3    H218046   3.203   0.684   5.534
 6057TIP3   OH218047   6.644   4.022   5.675
 6057TIP3    H118048   6.646   3.935   5.714
 6057TIP3    H218049   6.736   4.044   5.659
 6058TIP3   OH218050   2.998   8.394   7.239
 6058TIP3    H118051   2.921   8.395   7.296
 6058TIP3    H218052   3.013   8.485   7.216
 6059TIP3   OH218053   6.908   7.140   1.270
 6059TIP3    H118054   6.896   7.147   1.175
 6059TIP3    H218055   6.925   7.047   1.285
 6060TIP3   OH218056   6.248   4.452   7.628
 6060TIP3    H118057   6.328   4.479   7.673
 6060TIP3    H218058   6.205   4.392   7.690
 6061TIP3   OH218059   5.588   1.219   0.629
 6061TIP3    H118060   5.651   1.212   0.558
 6061TIP3    H218061   5.607   1.304   0.669
 6062TIP3   OH218062   6.951   4.669   2.660
 6062TIP3    H118063   6.969   4.751   2.615
 6062TIP3    H218064   6.883   4.691   2.724
 6063TIP3   OH218065   5.910   7.669   7.571
 6063TIP3    H118066   5.841   7.664   7.637
 6063TIP3    H218067   5.898   7.590   7.519
 6064TIP3   OH218068   2.038   1.069   2.594
 6064TIP3    H118069   1.985   1.119   2.531
 6064TIP3    H218070   2.123   1.112   2.593
 6065TIP3   OH218071   6.298   7.004   4.895
 6065TIP3    H118072   6.356   7.033   4.825
 6065TIP3    H218073   6.326   7.054   4.972
 6066TIP3   OH218074   7.983   8.304   6.722
 6066TIP3    H118075   7.992   8.294   6.627
 6066TIP3    H218076   8.051   8.367   6.747
 6067TIP3   OH218077   2.414   4.787   3.294
 6067TIP3    H118078   2.403   4.700   3.333
 6067TIP3    H218079   2.420   4.771   3.200
 6068TIP3   OH218080   8.921   7.762   5.306
 6068TIP3    H118081   8.878   7.814   5.238
 6068TIP3    H218082   8.880   7.675   5.298
 6069TIP3   OH218083   0.730   1.157   3.100
 6069TIP3    H118084   0.700   1.230   3.154
 6069TIP3    H218085   0.804   1.192   3.051
 6070TIP3   OH218086   8.592   7.752   3.810
 6070TIP3    H118087   8.666   7.763   3.751
 6070TIP3    H218088   8.515   7.773   3.757
 6071TIP3   OH218089   7.147   1.828   6.883
 6071TIP3    H118090   7.054   1.809   6.879
 6071TIP3    H218091   7.155   1.903   6.942
 6072TIP3   OH218092   3.837   0.979   1.130
 6072TIP3    H118093   3.927   0.993   1.159
 6072TIP3    H218094   3.787   0.972   1.211
 6073TIP3   OH218095   6.951   3.797   3.757
 6073TIP3    H118096   6.947   3.881   3.805
 6073TIP3    H218097   7.032   3.803   3.706
 6074TIP3   OH218098   6.569   6.800   2.521
 6074TIP3    H118099   6.487   6.758   2.546
 6074TIP3    H218100   6.589   6.859   2.594
 6075TIP3   OH218101   1.381   8.974   1.531
 6075TIP3    H118102   1.456   9.017   1.573
 6075TIP3    H218103   1.366   9.024   1.451
 6076TIP3   OH218104   3.976   8.058   6.360
 6076TIP3    H118105   4.028   8.074   6.438
 6076TIP3    H218106   3.973   7.963   6.351
 6077TIP3   OH218107   9.124   8.573   5.321
 6077TIP3    H118108   9.120   8.496   5.377
 6077TIP3    H218109   9.186   8.632   5.365
 6078TIP3   OH218110   7.410   6.200   4.233
 6078TIP3    H118111   7.426   6.118   4.188
 6078TIP3    H218112   7.388   6.175   4.323
 6079TIP3   OH218113   5.610   4.184   4.790
 6079TIP3    H118114   5.534   4.235   4.762
 6079TIP3    H218115   5.651   4.238   4.858
 6080TIP3   OH218116   6.094   4.445   1.555
 6080TIP3    H118117   6.093   4.461   1.460
 6080TIP3    H218118   6.014   4.487   1.587
 6081TIP3   OH218119   8.749   0.620   4.538
 6081TIP3    H118120   8.841   0.641   4.553
 6081TIP3    H218121   8.736   0.636   4.445
 6082TIP3   OH218122   2.225   1.717   1.909
 6082TIP3    H118123   2.267   1.632   1.920
 6082TIP3    H218124   2.268   1.755   1.833
 6083TIP3   OH218125   7.835   2.086   2.545
 6083TIP3    H118126   7.809   2.178   2.553
 6083TIP3    H218127   7.887   2.083   2.464
 6084TIP3   OH218128   6.939   1.920   4.290
 6084TIP3    H118129   6.985   1.999   4.317
 6084TIP3    H218130   6.848   1.936   4.311
 6085TIP3   OH218131   8.800   2.556   0.344
 6085TIP3    H118132   8.757   2.540   0.428
 6085TIP3    H218133   8.852   2.478   0.328
 6086TIP3   OH218134   3.907   4.756   2.103
 6086TIP3    H118135   3.916   4.756   2.198
 6086TIP3    H218136   3.973   4.694   2.072
 6087TIP3   OH218137   3.270   5.344   2.852
 6087TIP3    H118138   3.306   5.362   2.765
 6087TIP3    H218139   3.302   5.256   2.872
 6088TIP3   OH218140   2.141   6.323   2.697
 6088TIP3    H118141   2.218   6.304   2.643
 6088TIP3    H218142   2.093   6.389   2.647
 6089TIP3   OH218143   1.807   5.606   7.707
 6089TIP3    H118144   1.781   5.697   7.693
 6089TIP3    H218145   1.729   5.555   7.687
 6090TIP3   OH218146   6.421   5.223   0.329
 6090TIP3    H118147   6.480   5.291   0.361
 6090TIP3    H218148   6.469   5.141   0.343
 6091TIP3   OH218149   2.715   7.041   2.044
 6091TIP3    H118150   2.749   7.117   2.091
 6091TIP3    H218151   2.657   6.998   2.106
 6092TIP3   OH218152   5.565   1.905   4.635
 6092TIP3    H118153   5.471   1.889   4.649
 6092TIP3    H218154   5.601   1.910   4.723
 6093TIP3   OH218155   0.795   8.658   7.627
 6093TIP3    H118156   0.779   8.696   7.541
 6093TIP3    H218157   0.755   8.571   7.622
 6094TIP3   OH218158   5.947   5.694   3.120
 6094TIP3    H118159   5.984   5.730   3.039
 6094TIP3    H218160   6.024   5.669   3.171
 6095TIP3   OH218161   3.892   1.517   3.922
 6095TIP3    H118162   3.943   1.580   3.871
 6095TIP3    H218163   3.952   1.490   3.992
 6096TIP3   OH218164   3.438   4.510   1.874
 6096TIP3    H118165   3.457   4.502   1.781
 6096TIP3    H218166   3.519   4.481   1.917
 6097TIP3   OH218167   5.369   6.981   4.914
 6097TIP3    H118168   5.427   6.966   4.839
 6097TIP3    H218169   5.421   6.953   4.990
 6098TIP3   OH218170   5.113   0.188   4.195
 6098TIP3    H118171   5.088   0.278   4.217
 6098TIP3    H218172   5.085   0.136   4.270
 6099TIP3   OH218173   5.385   8.940   5.732
 6099TIP3    H118174   5.301   8.896   5.747
 6099TIP3    H218175   5.378   9.023   5.779
 6100TIP3   OH218176   8.519   0.827   0.704
 6100TIP3    H118177   8.546   0.807   0.614
 6100TIP3    H218178   8.448   0.891   0.695
 6101TIP3   OH218179   8.457   4.251   6.345
 6101TIP3    H118180   8.491   4.312   6.410
 6101TIP3    H218181   8.438   4.171   6.394
 6102TIP3   OH218182   8.097   4.740   7.611
 6102TIP3    H118183   8.005   4.761   7.625
 6102TIP3    H218184   8.143   4.782   7.683
 6103TIP3   OH218185   8.473   5.119   6.664
 6103TIP3    H118186   8.437   5.160   6.744
 6103TIP3    H218187   8.479   5.191   6.601
 6104TIP3   OH218188   8.187   8.162   5.371
 6104TIP3    H118189   8.132   8.225   5.417
 6104TIP3    H218190   8.261   8.215   5.339
 6105TIP3   OH218191   1.793   2.326   0.531
 6105TIP3    H118192   1.819   2.336   0.439
 6105TIP3    H218193   1.850   2.386   0.579
 6106TIP3   OH218194   1.674   0.063   2.376
 6106TIP3    H118195   1.752   0.116   2.394
 6106TIP3    H218196   1.603   0.110   2.420
 6107TIP3   OH218197   7.131   1.468   7.677
 6107TIP3    H118198   7.163   1.473   7.767
 6107TIP3    H218199   7.207   1.491   7.624
 6108TIP3   OH218200   9.517   4.642   0.401
 6108TIP3    H118201   9.488   4.733   0.400
 6108TIP3    H218202   9.473   4.604   0.477
 6109TIP3   OH218203   3.738   5.028   4.700
 6109TIP3    H118204   3.702   4.993   4.782
 6109TIP3    H218205   3.669   5.013   4.635
 6110TIP3   OH218206   3.712   7.260   5.091
 6110TIP3    H118207   3.670   7.341   5.063
 6110TIP3    H218208   3.750   7.282   5.177
 6111TIP3   OH218209   7.460   5.681   4.842
 6111TIP3    H118210   7.506   5.765   4.845
 6111TIP3    H218211   7.372   5.702   4.814
 6112TIP3   OH218212   7.645   4.709   6.155
 6112TIP3    H118213   7.614   4.641   6.096
 6112TIP3    H218214   7.732   4.732   6.122
 6113TIP3   OH218215   1.627   7.200   0.464
 6113TIP3    H118216   1.617   7.293   0.447
 6113TIP3    H218217   1.716   7.179   0.437
 6114TIP3   OH218218   6.860   4.433   4.449
 6114TIP3    H118219   6.833   4.488   4.376
 6114TIP3    H218220   6.840   4.344   4.421
 6115TIP3   OH218221   3.011   6.752   0.111
 6115TIP3    H118222   2.952   6.783   0.179
 6115TIP3    H218223   3.098   6.759   0.150
 6116TIP3   OH218224   5.904   8.752   7.440
 6116TIP3    H118225   5.829   8.752   7.381
 6116TIP3    H218226   5.952   8.832   7.417
 6117TIP3   OH218227   7.657   7.125   7.571
 6117TIP3    H118228   7.628   7.059   7.635
 6117TIP3    H218229   7.721   7.079   7.517
 6118TIP3   OH218230   4.098   2.360   5.249
 6118TIP3    H118231   4.174   2.416   5.231
 6118TIP3    H218232   4.039   2.416   5.299
 6119TIP3   OH218233   1.480   3.244   4.263
 6119TIP3    H118234   1.516   3.214   4.346
 6119TIP3    H218235   1.419   3.314   4.287
 6120TIP3   OH218236   1.310   3.270   2.299
 6120TIP3    H118237   1.332   3.199   2.359
 6120TIP3    H218238   1.301   3.227   2.214
 6121TIP3   OH218239   6.754   1.152   5.374
 6121TIP3    H118240   6.842   1.189   5.380
 6121TIP3    H218241   6.709   1.206   5.310
 6122TIP3   OH218242   5.505   2.819   1.072
 6122TIP3    H118243   5.496   2.829   0.977
 6122TIP3    H218244   5.590   2.858   1.092
 6123TIP3   OH218245   0.969   6.112   2.880
 6123TIP3    H118246   0.941   6.031   2.837
 6123TIP3    H218247   1.015   6.161   2.811
 6124TIP3   OH218248   3.545   8.516   6.514
 6124TIP3    H118249   3.496   8.573   6.573
 6124TIP3    H218250   3.621   8.487   6.565
 6125TIP3   OH218251   2.588   7.133   1.620
 6125TIP3    H118252   2.594   7.074   1.694
 6125TIP3    H218253   2.565   7.217   1.658
 6126TIP3   OH218254   1.739   6.444   2.772
 6126TIP3    H118255   1.829   6.428   2.743
 6126TIP3    H218256   1.687   6.439   2.692
 6127TIP3   OH218257   5.536   8.452   5.914
 6127TIP3    H118258   5.497   8.539   5.921
 6127TIP3    H218259   5.619   8.467   5.869
 6128TIP3   OH218260   6.973   0.781   2.332
 6128TIP3    H118261   6.938   0.787   2.421
 6128TIP3    H218262   7.052   0.835   2.334
 6129TIP3   OH218263   4.281   8.676   3.987
 6129TIP3    H118264   4.264   8.730   3.910
 6129TIP3    H218265   4.373   8.649   3.977
 6130TIP3   OH218266   7.737   6.423   1.279
 6130TIP3    H118267   7.774   6.395   1.195
 6130TIP3    H218268   7.703   6.511   1.263
 6131TIP3   OH218269   0.360   7.849   2.889
 6131TIP3    H118270   0.424   7.857   2.960
 6131TIP3    H218271   0.374   7.761   2.854
 6132TIP3   OH218272   4.801   8.554   7.370
 6132TIP3    H118273   4.747   8.618   7.416
 6132TIP3    H218274   4.774   8.470   7.406
 6133TIP3   OH218275   8.349   8.940   4.963
 6133TIP3    H118276   8.400   8.864   4.933
 6133TIP3    H218277   8.340   8.995   4.885
 6134TIP3   OH218278   0.989   1.497   5.086
 6134TIP3    H118279   1.004   1.405   5.105
 6134TIP3    H218280   0.896   1.511   5.104
 6135TIP3   OH218281   3.881   3.628   3.431
 6135TIP3    H118282   3.973   3.644   3.409
 6135TIP3    H218283   3.846   3.715   3.453
 6136TIP3   OH218284   3.303   6.313   6.635
 6136TIP3    H118285   3.280   6.238   6.579
 6136TIP3    H218286   3.236   6.378   6.616
 6137TIP3   OH218287   4.341   4.651   3.353
 6137TIP3    H118288   4.291   4.689   3.281
 6137TIP3    H218289   4.298   4.567   3.370
 6138TIP3   OH218290   6.824   6.493   3.821
 6138TIP3    H118291   6.863   6.567   3.775
 6138TIP3    H218292   6.770   6.449   3.756
 6139TIP3   OH218293   4.836   3.869   0.519
 6139TIP3    H118294   4.809   3.795   0.574
 6139TIP3    H218295   4.859   3.829   0.435
 6140TIP3   OH218296   1.141   7.654   3.716
 6140TIP3    H118297   1.098   7.570   3.733
 6140TIP3    H218298   1.074   7.705   3.670
 6141TIP3   OH218299   6.652   6.171   3.885
 6141TIP3    H118300   6.608   6.231   3.825
 6141TIP3    H218301   6.595   6.094   3.889
 6142TIP3   OH218302   3.649   4.394   0.372
 6142TIP3    H118303   3.728   4.444   0.390
 6142TIP3    H218304   3.602   4.390   0.455
 6143TIP3   OH218305   8.713   4.127   4.379
 6143TIP3    H118306   8.667   4.124   4.462
 6143TIP3    H218307   8.644   4.142   4.314
 6144TIP3   OH218308   4.737   7.093   7.489
 6144TIP3    H118309   4.818   7.056   7.453
 6144TIP3    H218310   4.673   7.086   7.418
 6145TIP3   OH218311   2.805   0.872   0.036
 6145TIP3    H118312   2.852   0.898  -0.043
 6145TIP3    H218313   2.764   0.953   0.068
 6146TIP3   OH218314   7.020   0.244   7.356
 6146TIP3    H118315   6.988   0.210   7.272
 6146TIP3    H218316   6.990   0.179   7.420
 6147TIP3   OH218317   8.688   5.291   2.593
 6147TIP3    H118318   8.689   5.252   2.506
 6147TIP3    H218319   8.732   5.227   2.649
 6148TIP3   OH218320   2.570   2.439   0.767
 6148TIP3    H118321   2.546   2.500   0.697
 6148TIP3    H218322   2.648   2.394   0.735
 6149TIP3   OH218323   0.040   2.671   2.320
 6149TIP3    H118324   0.095   2.689   2.243
 6149TIP3    H218325  -0.049   2.666   2.284
 6150TIP3   OH218326   8.952   7.263   2.125
 6150TIP3    H118327   8.932   7.175   2.158
 6150TIP3    H218328   8.898   7.272   2.047
 6151TIP3   OH218329   9.484   4.938   0.831
 6151TIP3    H118330   9.405   4.992   0.841
 6151TIP3    H218331   9.500   4.904   0.919
 6152TIP3   OH218332   1.620   1.393   4.792
 6152TIP3    H118333   1.589   1.460   4.731
 6152TIP3    H218334   1.708   1.371   4.761
 6153TIP3   OH218335   9.019   1.732   2.756
 6153TIP3    H118336   9.020   1.648   2.801
 6153TIP3    H218337   9.013   1.709   2.663
 6154TIP3   OH218338   8.966   3.940   1.881
 6154TIP3    H118339   9.029   3.901   1.941
 6154TIP3    H218340   9.004   3.926   1.794
 6155TIP3   OH218341   0.801   2.131   6.533
 6155TIP3    H118342   0.782   2.061   6.470
 6155TIP3    H218343   0.730   2.125   6.597
 6156TIP3   OH218344   2.460   7.917   6.597
 6156TIP3    H118345   2.442   7.827   6.624
 6156TIP3    H218346   2.374   7.959   6.593
 6157TIP3   OH218347   3.885   5.711   6.308
 6157TIP3    H118348   3.891   5.629   6.357
 6157TIP3    H218349   3.970   5.753   6.320
 6158TIP3   OH218350   1.366   7.002   7.170
 6158TIP3    H118351   1.458   6.978   7.184
 6158TIP3    H218352   1.368   7.098   7.164
 6159TIP3   OH218353   1.649   2.006   7.579
 6159TIP3    H118354   1.599   2.077   7.539
 6159TIP3    H218355   1.695   2.047   7.652
 6160TIP3   OH218356   3.197   8.192   2.492
 6160TIP3    H118357   3.119   8.169   2.440
 6160TIP3    H218358   3.166   8.189   2.583
 6161TIP3   OH218359   3.031   5.161   5.559
 6161TIP3    H118360   3.073   5.165   5.473
 6161TIP3    H218361   3.084   5.099   5.609
 6162TIP3   OH218362   2.830   0.361   6.412
 6162TIP3    H118363   2.858   0.304   6.340
 6162TIP3    H218364   2.911   0.405   6.440
 6163TIP3   OH218365   0.516   8.402   3.165
 6163TIP3    H118366   0.476   8.470   3.111
 6163TIP3    H218367   0.567   8.450   3.230
 6164TIP3   OH218368   1.898   2.753   1.480
 6164TIP3    H118369   1.897   2.740   1.385
 6164TIP3    H218370   1.892   2.848   1.490
 6165TIP3   OH218371   5.057   3.810   7.605
 6165TIP3    H118372   5.144   3.795   7.642
 6165TIP3    H218373   5.055   3.758   7.525
 6166TIP3   OH218374   4.954   0.773   0.509
 6166TIP3    H118375   4.986   0.707   0.571
 6166TIP3    H218376   4.881   0.815   0.554
 6167TIP3   OH218377   8.203   6.580   3.684
 6167TIP3    H118378   8.287   6.582   3.638
 6167TIP3    H218379   8.151   6.648   3.641
 6168TIP3   OH218380   8.987   3.785   5.005
 6168TIP3    H118381   8.949   3.711   5.052
 6168TIP3    H218382   9.054   3.747   4.949
 6169TIP3   OH218383   4.494   5.151   0.037
 6169TIP3    H118384   4.528   5.126   0.123
 6169TIP3    H218385   4.473   5.068  -0.006
 6170TIP3   OH218386   5.738   4.707   7.495
 6170TIP3    H118387   5.682   4.783   7.506
 6170TIP3    H218388   5.797   4.709   7.571
 6171TIP3   OH218389   6.594   7.812   7.681
 6171TIP3    H118390   6.510   7.854   7.661
 6171TIP3    H218391   6.570   7.739   7.739
 6172TIP3   OH218392   2.262   7.728   7.682
 6172TIP3    H118393   2.283   7.735   7.775
 6172TIP3    H218394   2.173   7.691   7.680
 6173TIP3   OH218395   1.243   3.546   0.568
 6173TIP3    H118396   1.255   3.638   0.544
 6173TIP3    H218397   1.149   3.534   0.569
 6174TIP3   OH218398   7.563   8.754   1.599
 6174TIP3    H118399   7.594   8.665   1.582
 6174TIP3    H218400   7.550   8.758   1.694
 6175TIP3   OH218401   4.054   1.550   0.679
 6175TIP3    H118402   4.129   1.496   0.703
 6175TIP3    H218403   4.083   1.640   0.693
 6176TIP3   OH218404   8.965   3.360   0.851
 6176TIP3    H118405   9.018   3.429   0.811
 6176TIP3    H218406   9.028   3.290   0.869
 6177TIP3   OH218407   5.110   4.071   1.631
 6177TIP3    H118408   5.022   4.043   1.655
 6177TIP3    H218409   5.137   4.130   1.701
 6178TIP3   OH218410   6.497   2.700   3.079
 6178TIP3    H118411   6.524   2.611   3.101
 6178TIP3    H218412   6.406   2.705   3.107
 6179TIP3   OH218413   8.493   8.822   7.159
 6179TIP3    H118414   8.562   8.833   7.093
 6179TIP3    H218415   8.416   8.864   7.121
 6180TIP3   OH218416   2.098   8.375   2.961
 6180TIP3    H118417   2.081   8.296   2.910
 6180TIP3    H218418   2.136   8.437   2.899
 6181TIP3   OH218419   8.658   2.192   7.185
 6181TIP3    H118420   8.697   2.109   7.209
 6181TIP3    H218421   8.595   2.170   7.116
 6182TIP3   OH218422   9.561   1.267   1.789
 6182TIP3    H118423   9.583   1.265   1.883
 6182TIP3    H218424   9.473   1.304   1.786
 6183TIP3   OH218425   4.572   3.710   0.908
 6183TIP3    H118426   4.506   3.681   0.971
 6183TIP3    H218427   4.649   3.730   0.961
 6184TIP3   OH218428   2.836   8.854   3.994
 6184TIP3    H118429   2.870   8.920   3.934
 6184TIP3    H218430   2.749   8.833   3.961
 6185TIP3   OH218431   7.111   3.503   1.435
 6185TIP3    H118432   7.033   3.558   1.424
 6185TIP3    H218433   7.184   3.563   1.421
 6186TIP3   OH218434   2.115   6.409   0.751
 6186TIP3    H118435   2.151   6.339   0.805
 6186TIP3    H218436   2.185   6.431   0.690
 6187TIP3   OH218437   1.948   8.904   1.183
 6187TIP3    H118438   1.884   8.967   1.152
 6187TIP3    H218439   2.033   8.943   1.160
 6188TIP3   OH218440   2.911   8.125   4.551
 6188TIP3    H118441   2.943   8.191   4.489
 6188TIP3    H218442   2.887   8.050   4.496
 6189TIP3   OH218443   8.360   6.077   2.500
 6189TIP3    H118444   8.386   6.165   2.472
 6189TIP3    H218445   8.395   6.069   2.588
 6190TIP3   OH218446   9.228   0.087   5.734
 6190TIP3    H118447   9.141   0.086   5.775
 6190TIP3    H218448   9.257   0.178   5.740
 6191TIP3   OH218449   1.726   5.747   6.007
 6191TIP3    H118450   1.641   5.780   5.975
 6191TIP3    H218451   1.785   5.821   6.000
 6192TIP3   OH218452   3.658   8.915   1.601
 6192TIP3    H118453   3.663   8.984   1.667
 6192TIP3    H218454   3.570   8.878   1.612
 6193TIP3   OH218455   2.828   5.763   2.091
 6193TIP3    H118456   2.780   5.780   2.172
 6193TIP3    H218457   2.906   5.817   2.098
 6194TIP3   OH218458   5.205   2.347   3.243
 6194TIP3    H118459   5.215   2.310   3.155
 6194TIP3    H218460   5.217   2.441   3.231
 6195TIP3   OH218461   7.753   4.948   3.444
 6195TIP3    H118462   7.835   4.950   3.394
 6195TIP3    H218463   7.729   5.040   3.455
 6196TIP3   OH218464   9.378   1.454   1.797
 6196TIP3    H118465   9.313   1.471   1.729
 6196TIP3    H218466   9.413   1.540   1.820
 6197TIP3   OH218467   7.280   8.798   5.390
 6197TIP3    H118468   7.228   8.777   5.313
 6197TIP3    H218469   7.227   8.861   5.439
 6198TIP3   OH218470   4.350   1.457   2.921
 6198TIP3    H118471   4.308   1.446   3.006
 6198TIP3    H218472   4.371   1.551   2.917
 6199TIP3   OH218473   7.705   6.773   2.810
 6199TIP3    H118474   7.619   6.730   2.806
 6199TIP3    H218475   7.752   6.727   2.879
 6200TIP3   OH218476   3.270   6.661   5.477
 6200TIP3    H118477   3.207   6.619   5.536
 6200TIP3    H218478   3.343   6.686   5.533
 6201TIP3   OH218479   2.930   7.593   2.431
 6201TIP3    H118480   2.967   7.582   2.518
 6201TIP3    H218481   2.987   7.540   2.374
 6202TIP3   OH218482   5.095   1.408   4.740
 6202TIP3    H118483   5.080   1.502   4.731
 6202TIP3    H218484   5.021   1.377   4.792
 6203TIP3   OH218485   8.531   4.795   1.247
 6203TIP3    H118486   8.525   4.888   1.223
 6203TIP3    H218487   8.550   4.750   1.165
 6204TIP3   OH218488   9.252   6.284   0.341
 6204TIP3    H118489   9.313   6.345   0.383
 6204TIP3    H218490   9.307   6.227   0.287
 6205TIP3   OH218491   7.384   3.597   6.677
 6205TIP3    H118492   7.318   3.666   6.664
 6205TIP3    H218493   7.357   3.527   6.616
 6206TIP3   OH218494   9.275   8.193   6.733
 6206TIP3    H118495   9.279   8.145   6.816
 6206TIP3    H218496   9.335   8.146   6.675
 6207TIP3   OH218497   0.474   2.521   6.755
 6207TIP3    H118498   0.563   2.552   6.773
 6207TIP3    H218499   0.418   2.580   6.805
 6208TIP3   OH218500   2.529   6.172   3.717
 6208TIP3    H118501   2.513   6.127   3.633
 6208TIP3    H218502   2.623   6.192   3.715
 6209TIP3   OH218503   3.774   7.937   4.118
 6209TIP3    H118504   3.732   7.944   4.203
 6209TIP3    H218505   3.724   7.996   4.061
 6210TIP3   OH218506   3.214   4.618   5.017
 6210TIP3    H118507   3.253   4.627   5.103
 6210TIP3    H218508   3.192   4.525   5.010
 6211TIP3   OH218509   0.963   4.011   5.986
 6211TIP3    H118510   0.991   4.081   6.045
 6211TIP3    H218511   0.943   4.056   5.904
 6212TIP3   OH218512   6.601   7.559   3.752
 6212TIP3    H118513   6.638   7.471   3.756
 6212TIP3    H218514   6.519   7.553   3.800
 6213TIP3   OH218515   3.194   5.880   7.299
 6213TIP3    H118516   3.239   5.955   7.339
 6213TIP3    H218517   3.133   5.851   7.367
 6214TIP3   OH218518   0.376   6.969   6.317
 6214TIP3    H118519   0.456   6.989   6.267
 6214TIP3    H218520   0.311   7.031   6.285
 6215TIP3   OH218521   7.597   0.869   7.127
 6215TIP3    H118522   7.507   0.850   7.101
 6215TIP3    H218523   7.588   0.931   7.200
 6216TIP3   OH218524   9.358   0.135   1.103
 6216TIP3    H118525   9.267   0.105   1.107
 6216TIP3    H218526   9.370   0.184   1.185
 6217TIP3   OH218527   1.153   6.110   5.692
 6217TIP3    H118528   1.131   6.047   5.623
 6217TIP3    H218529   1.078   6.107   5.752
 6218TIP3   OH218530   3.278   0.616   2.276
 6218TIP3    H118531   3.334   0.693   2.270
 6218TIP3    H218532   3.270   0.598   2.370
 6219TIP3   OH218533   6.562   4.795   2.595
 6219TIP3    H118534   6.502   4.730   2.630
 6219TIP3    H218535   6.613   4.824   2.670
 6220TIP3   OH218536   5.106   3.064   6.884
 6220TIP3    H118537   5.131   3.108   6.966
 6220TIP3    H218538   5.163   3.101   6.818
 6221TIP3   OH218539   7.004   2.328   6.553
 6221TIP3    H118540   6.918   2.364   6.574
 6221TIP3    H218541   6.986   2.239   6.523
 6222TIP3   OH218542   1.061   8.053   5.039
 6222TIP3    H118543   1.096   8.074   5.126
 6222TIP3    H218544   1.081   8.130   4.986
 6223TIP3   OH218545   7.339   3.428   2.873
 6223TIP3    H118546   7.422   3.434   2.825
 6223TIP3    H218547   7.306   3.518   2.876
 6224TIP3   OH218548   2.850   4.820   6.482
 6224TIP3    H118549   2.796   4.741   6.477
 6224TIP3    H218550   2.864   4.846   6.391
 6225TIP3   OH218551   2.390   0.385   6.201
 6225TIP3    H118552   2.365   0.362   6.291
 6225TIP3    H218553   2.468   0.332   6.184
 6226TIP3   OH218554   8.520   0.543   3.206
 6226TIP3    H118555   8.507   0.583   3.291
 6226TIP3    H218556   8.521   0.616   3.144
 6227TIP3   OH218557   4.817   2.948   1.681
 6227TIP3    H118558   4.894   2.902   1.648
 6227TIP3    H218559   4.843   3.040   1.681
 6228TIP3   OH218560   8.138   8.525   6.430
 6228TIP3    H118561   8.094   8.481   6.357
 6228TIP3    H218562   8.216   8.471   6.446
 6229TIP3   OH218563   7.787   8.668   0.653
 6229TIP3    H118564   7.729   8.744   0.648
 6229TIP3    H218565   7.822   8.660   0.564
 6230TIP3   OH218566   3.550   7.560   1.682
 6230TIP3    H118567   3.493   7.636   1.666
 6230TIP3    H218568   3.551   7.550   1.777
 6231TIP3   OH218569   0.989   6.227   5.237
 6231TIP3    H118570   0.913   6.187   5.194
 6231TIP3    H218571   1.060   6.166   5.223
 6232TIP3   OH218572   8.857   5.730   7.736
 6232TIP3    H118573   8.894   5.674   7.805
 6232TIP3    H218574   8.818   5.804   7.784
 6233TIP3   OH218575   6.564   6.072   7.365
 6233TIP3    H118576   6.585   6.119   7.446
 6233TIP3    H218577   6.542   6.142   7.303
 6234TIP3   OH218578   6.624   8.733   0.254
 6234TIP3    H118579   6.632   8.764   0.163
 6234TIP3    H218580   6.533   8.704   0.261
 6235TIP3   OH218581   3.640   6.740   6.493
 6235TIP3    H118582   3.563   6.706   6.539
 6235TIP3    H218583   3.701   6.763   6.563
 6236TIP3   OH218584   8.870   6.779   7.598
 6236TIP3    H118585   8.834   6.772   7.509
 6236TIP3    H218586   8.963   6.796   7.585
 6237TIP3   OH218587   5.667   1.129   1.300
 6237TIP3    H118588   5.729   1.190   1.342
 6237TIP3    H218589   5.593   1.124   1.360
 6238TIP3   OH218590   4.701   2.629   0.276
 6238TIP3    H118591   4.761   2.703   0.270
 6238TIP3    H218592   4.689   2.615   0.370
 6239TIP3   OH218593   9.421   6.418   0.105
 6239TIP3    H118594   9.491   6.475   0.074
 6239TIP3    H218595   9.416   6.348   0.039
 6240TIP3   OH218596   1.812   2.331   0.242
 6240TIP3    H118597   1.837   2.423   0.242
 6240TIP3    H218598   1.720   2.331   0.214
 6241TIP3   OH218599   2.281   6.087   6.335
 6241TIP3    H118600   2.281   6.100   6.240
 6241TIP3    H218601   2.261   6.174   6.371
 6242TIP3   OH218602   2.452   1.805   4.368
 6242TIP3    H118603   2.467   1.711   4.379
 6242TIP3    H218604   2.421   1.814   4.278
 6243TIP3   OH218605   7.137   2.850   4.318
 6243TIP3    H118606   7.163   2.766   4.281
 6243TIP3    H218607   7.217   2.884   4.359
 6244TIP3   OH218608   3.415   3.887   1.839
 6244TIP3    H118609   3.474   3.873   1.765
 6244TIP3    H218610   3.468   3.932   1.904
 6245TIP3   OH218611   4.104   7.620   4.037
 6245TIP3    H118612   4.200   7.616   4.038
 6245TIP3    H218613   4.078   7.535   4.001
 6246TIP3   OH218614   3.432   8.183   7.393
 6246TIP3    H118615   3.480   8.251   7.441
 6246TIP3    H218616   3.441   8.105   7.447
 6247TIP3   OH218617   1.573   0.719   5.485
 6247TIP3    H118618   1.649   0.709   5.543
 6247TIP3    H218619   1.603   0.684   5.401
 6248TIP3   OH218620   2.380   7.433   4.842
 6248TIP3    H118621   2.431   7.497   4.892
 6248TIP3    H218622   2.431   7.352   4.847
 6249TIP3   OH218623   7.430   3.688   4.845
 6249TIP3    H118624   7.370   3.678   4.771
 6249TIP3    H218625   7.507   3.637   4.820
 6250TIP3   OH218626   9.057   5.523   7.637
 6250TIP3    H118627   9.077   5.542   7.545
 6250TIP3    H218628   8.963   5.538   7.645
 6251TIP3   OH218629   0.188   8.024   3.972
 6251TIP3    H118630   0.131   7.947   3.971
 6251TIP3    H218631   0.274   7.990   3.996
 6252TIP3   OH218632   7.214   5.979   5.474
 6252TIP3    H118633   7.182   5.889   5.481
 6252TIP3    H218634   7.266   5.980   5.394
 6253TIP3   OH218635   0.353   5.423   0.361
 6253TIP3    H118636   0.348   5.327   0.364
 6253TIP3    H218637   0.390   5.448   0.445
 6254TIP3   OH218638   2.256   0.822   4.573
 6254TIP3    H118639   2.207   0.757   4.523
 6254TIP3    H218640   2.217   0.906   4.548
 6255TIP3   OH218641   8.028   4.939   4.757
 6255TIP3    H118642   8.023   4.991   4.837
 6255TIP3    H218643   7.951   4.881   4.761
 6256TIP3   OH218644   6.676   8.195   6.185
 6256TIP3    H118645   6.594   8.242   6.191
 6256TIP3    H218646   6.736   8.256   6.142
 6257TIP3   OH218647   3.832   8.845   5.284
 6257TIP3    H118648   3.864   8.935   5.290
 6257TIP3    H218649   3.745   8.848   5.325
 6258TIP3   OH218650   1.498   5.881   7.042
 6258TIP3    H118651   1.449   5.889   6.961
 6258TIP3    H218652   1.468   5.955   7.096
 6259TIP3   OH218653   0.205   6.039   4.302
 6259TIP3    H118654   0.262   6.062   4.375
 6259TIP3    H218655   0.136   6.105   4.304
 6260TIP3   OH218656   0.889   6.942   5.115
 6260TIP3    H118657   0.876   7.011   5.050
 6260TIP3    H218658   0.864   6.983   5.198
 6261TIP3   OH218659   6.586   6.013   4.223
 6261TIP3    H118660   6.580   5.956   4.300
 6261TIP3    H218661   6.645   6.083   4.250
 6262TIP3   OH218662   8.866   1.334   3.960
 6262TIP3    H118663   8.949   1.375   3.980
 6262TIP3    H218664   8.841   1.371   3.875
 6263TIP3   OH218665   9.355   2.879   4.822
 6263TIP3    H118666   9.442   2.864   4.859
 6263TIP3    H218667   9.325   2.792   4.796
 6264TIP3   OH218668   6.818   3.547   3.789
 6264TIP3    H118669   6.892   3.560   3.729
 6264TIP3    H218670   6.793   3.636   3.815
 6265TIP3   OH218671   9.351   5.445   1.783
 6265TIP3    H118672   9.312   5.406   1.705
 6265TIP3    H218673   9.435   5.400   1.793
 6266TIP3   OH218674   9.363   6.421   4.175
 6266TIP3    H118675   9.374   6.513   4.152
 6266TIP3    H218676   9.307   6.423   4.253
 6267TIP3   OH218677   2.827   2.520   5.880
 6267TIP3    H118678   2.854   2.511   5.789
 6267TIP3    H218679   2.889   2.466   5.929
 6268TIP3   OH218680   5.251   7.840   7.318
 6268TIP3    H118681   5.190   7.856   7.246
 6268TIP3    H218682   5.249   7.745   7.329
 6269TIP3   OH218683   4.583   1.830   7.142
 6269TIP3    H118684   4.517   1.813   7.075
 6269TIP3    H218685   4.605   1.922   7.131
 6270TIP3   OH218686   1.784   1.028   6.719
 6270TIP3    H118687   1.844   1.078   6.663
 6270TIP3    H218688   1.780   0.941   6.679
 6271TIP3   OH218689   1.485   7.366   3.055
 6271TIP3    H118690   1.392   7.388   3.058
 6271TIP3    H218691   1.489   7.282   3.009
 6272TIP3   OH218692   6.361   6.043   3.355
 6272TIP3    H118693   6.436   6.102   3.364
 6272TIP3    H218694   6.314   6.077   3.279
 6273TIP3   OH218695   6.558   0.120   5.241
 6273TIP3    H118696   6.556   0.035   5.196
 6273TIP3    H218697   6.474   0.160   5.219
 6274TIP3   OH218698   2.024   2.189   2.048
 6274TIP3    H118699   1.996   2.163   2.136
 6274TIP3    H218700   2.075   2.115   2.016
 6275TIP3   OH218701   6.408   1.102   0.508
 6275TIP3    H118702   6.451   1.159   0.444
 6275TIP3    H218703   6.377   1.162   0.576
 6276TIP3   OH218704   5.238   5.082   2.118
 6276TIP3    H118705   5.204   5.015   2.058
 6276TIP3    H218706   5.193   5.162   2.091
 6277TIP3   OH218707   5.857   2.642   1.124
 6277TIP3    H118708   5.837   2.701   1.051
 6277TIP3    H218709   5.859   2.555   1.085
 6278TIP3   OH218710   3.780   8.415   0.497
 6278TIP3    H118711   3.818   8.482   0.555
 6278TIP3    H218712   3.729   8.359   0.556
 6279TIP3   OH218713   0.285   6.252   3.507
 6279TIP3    H118714   0.274   6.172   3.456
 6279TIP3    H218715   0.276   6.225   3.598
 6280TIP3   OH218716   8.615   8.599   1.525
 6280TIP3    H118717   8.528   8.558   1.529
 6280TIP3    H218718   8.634   8.621   1.616
 6281TIP3   OH218719   7.484   6.835   7.223
 6281TIP3    H118720   7.573   6.827   7.257
 6281TIP3    H218721   7.479   6.772   7.151
 6282TIP3   OH218722   8.448   3.575   3.505
 6282TIP3    H118723   8.355   3.552   3.496
 6282TIP3    H218724   8.478   3.524   3.581
 6283TIP3   OH218725   0.359   7.499   2.240
 6283TIP3    H118726   0.280   7.500   2.295
 6283TIP3    H218727   0.431   7.487   2.302
 6284TIP3   OH218728   7.027   0.342   4.538
 6284TIP3    H118729   6.934   0.363   4.532
 6284TIP3    H218730   7.064   0.413   4.590
 6285TIP3   OH218731   6.206   8.259   6.742
 6285TIP3    H118732   6.292   8.274   6.780
 6285TIP3    H218733   6.217   8.279   6.649
 6286TIP3   OH218734   7.112   5.713   6.624
 6286TIP3    H118735   7.023   5.680   6.636
 6286TIP3    H218736   7.168   5.650   6.668
 6287TIP3   OH218737   3.118   3.294   1.125
 6287TIP3    H118738   3.071   3.296   1.042
 6287TIP3    H218739   3.179   3.220   1.116
 6288TIP3   OH218740   7.621   0.095   1.349
 6288TIP3    H118741   7.548   0.110   1.409
 6288TIP3    H218742   7.639   0.001   1.356
 6289TIP3   OH218743   5.402   7.656   2.915
 6289TIP3    H118744   5.452   7.661   2.997
 6289TIP3    H218745   5.459   7.698   2.850
 6290TIP3   OH218746   6.022   5.784   5.907
 6290TIP3    H118747   6.116   5.798   5.922
 6290TIP3    H218748   5.981   5.868   5.931
 6291TIP3   OH218749   0.729   8.302   1.309
 6291TIP3    H118750   0.657   8.344   1.262
 6291TIP3    H218751   0.777   8.254   1.242
 6292TIP3   OH218752   5.140   0.379   3.660
 6292TIP3    H118753   5.048   0.404   3.666
 6292TIP3    H218754   5.159   0.381   3.566
 6293TIP3   OH218755   4.120   5.745   5.256
 6293TIP3    H118756   4.143   5.779   5.169
 6293TIP3    H218757   4.201   5.704   5.287
 6294TIP3   OH218758   5.970   8.593   2.183
 6294TIP3    H118759   5.892   8.644   2.162
 6294TIP3    H218760   5.953   8.507   2.145
 6295TIP3   OH218761   1.330   7.049   7.554
 6295TIP3    H118762   1.309   7.128   7.605
 6295TIP3    H218763   1.384   7.081   7.482
 6296TIP3   OH218764   8.955   1.355   2.160
 6296TIP3    H118765   8.935   1.439   2.201
 6296TIP3    H218766   9.051   1.354   2.152
 6297TIP3   OH218767   6.461   1.871   3.780
 6297TIP3    H118768   6.383   1.903   3.735
 6297TIP3    H218769   6.480   1.787   3.737
 6298TIP3   OH218770   4.881   5.392   0.859
 6298TIP3    H118771   4.963   5.439   0.839
 6298TIP3    H218772   4.812   5.453   0.834
 6299TIP3   OH218773   6.872   5.473   1.545
 6299TIP3    H118774   6.963   5.448   1.555
 6299TIP3    H218775   6.843   5.497   1.633
 6300TIP3   OH218776   1.183   2.321   7.464
 6300TIP3    H118777   1.194   2.248   7.404
 6300TIP3    H218778   1.091   2.345   7.457
 6301TIP3   OH218779   2.293   1.429   7.620
 6301TIP3    H118780   2.343   1.478   7.686
 6301TIP3    H218781   2.353   1.421   7.546
 6302TIP3   OH218782   7.995   7.718   3.598
 6302TIP3    H118783   7.997   7.643   3.538
 6302TIP3    H218784   7.974   7.793   3.543
 6303TIP3   OH218785   4.819   4.527   6.867
 6303TIP3    H118786   4.879   4.591   6.830
 6303TIP3    H218787   4.823   4.543   6.962
 6304TIP3   OH218788   1.038   5.640   3.583
 6304TIP3    H118789   1.026   5.662   3.490
 6304TIP3    H218790   1.063   5.547   3.582
 6305TIP3   OH218791   3.735   5.933   0.644
 6305TIP3    H118792   3.655   5.935   0.591
 6305TIP3    H218793   3.713   5.984   0.722
 6306TIP3   OH218794   0.423   3.074   1.164
 6306TIP3    H118795   0.337   3.084   1.206
 6306TIP3    H218796   0.485   3.105   1.229
 6307TIP3   OH218797   6.450   3.574   3.926
 6307TIP3    H118798   6.532   3.623   3.920
 6307TIP3    H218799   6.474   3.484   3.907
 6308TIP3   OH218800   5.543   3.226   3.750
 6308TIP3    H118801   5.545   3.155   3.813
 6308TIP3    H218802   5.482   3.290   3.788
 6309TIP3   OH218803   9.529   5.292   5.461
 6309TIP3    H118804   9.516   5.204   5.427
 6309TIP3    H218805   9.447   5.313   5.505
 6310TIP3   OH218806   3.730   5.123   0.772
 6310TIP3    H118807   3.738   5.102   0.679
 6310TIP3    H218808   3.753   5.215   0.778
 6311TIP3   OH218809   7.263   6.697   0.010
 6311TIP3    H118810   7.304   6.782  -0.001
 6311TIP3    H218811   7.253   6.687   0.105
 6312TIP3   OH218812   7.832   8.496   5.094
 6312TIP3    H118813   7.744   8.464   5.112
 6312TIP3    H218814   7.889   8.428   5.130
 6313TIP3   OH218815   8.213   3.023   6.647
 6313TIP3    H118816   8.302   3.044   6.617
 6313TIP3    H218817   8.156   3.075   6.590
 6314TIP3   OH218818   6.714   1.636   0.362
 6314TIP3    H118819   6.806   1.634   0.333
 6314TIP3    H218820   6.705   1.719   0.407
 6315TIP3   OH218821   2.059   4.853   4.692
 6315TIP3    H118822   2.113   4.859   4.613
 6315TIP3    H218823   2.003   4.777   4.677
 6316TIP3   OH218824   5.036   0.776   1.335
 6316TIP3    H118825   4.950   0.762   1.295
 6316TIP3    H218826   5.028   0.739   1.423
 6317TIP3   OH218827   2.197   6.816   6.403
 6317TIP3    H118828   2.220   6.882   6.469
 6317TIP3    H218829   2.148   6.865   6.336
 6318TIP3   OH218830   2.809   7.230   6.831
 6318TIP3    H118831   2.749   7.155   6.825
 6318TIP3    H218832   2.862   7.211   6.908
 6319TIP3   OH218833   8.155   0.008   0.294
 6319TIP3    H118834   8.199   0.063   0.229
 6319TIP3    H218835   8.195  -0.079   0.282
 6320TIP3   OH218836   5.635   3.842   5.940
 6320TIP3    H118837   5.677   3.811   6.021
 6320TIP3    H218838   5.542   3.847   5.961
 6321TIP3   OH218839   2.404   0.788   5.161
 6321TIP3    H118840   2.389   0.860   5.100
 6321TIP3    H218841   2.386   0.825   5.247
 6322TIP3   OH218842   6.266   3.885   7.257
 6322TIP3    H118843   6.350   3.917   7.224
 6322TIP3    H218844   6.242   3.815   7.196
 6323TIP3   OH218845   2.252   5.671   5.347
 6323TIP3    H118846   2.336   5.703   5.313
 6323TIP3    H218847   2.276   5.600   5.407
 6324TIP3   OH218848   1.666   8.997   1.595
 6324TIP3    H118849   1.647   8.921   1.651
 6324TIP3    H218850   1.700   8.959   1.514
 6325TIP3   OH218851   1.260   7.805   3.884
 6325TIP3    H118852   1.308   7.869   3.831
 6325TIP3    H218853   1.222   7.745   3.820
 6326TIP3   OH218854   1.775   8.817   4.825
 6326TIP3    H118855   1.707   8.753   4.845
 6326TIP3    H218856   1.820   8.833   4.908
 6327TIP3   OH218857   8.510   7.328   1.376
 6327TIP3    H118858   8.418   7.319   1.401
 6327TIP3    H218859   8.528   7.422   1.385
 6328TIP3   OH218860   2.551   3.926   0.296
 6328TIP3    H118861   2.604   3.987   0.244
 6328TIP3    H218862   2.586   3.839   0.273
 6329TIP3   OH218863   6.957   8.105   7.450
 6329TIP3    H118864   6.983   8.111   7.358
 6329TIP3    H218865   6.863   8.089   7.448
 6330TIP3   OH218866   3.000   0.157   4.491
 6330TIP3    H118867   2.987   0.064   4.473
 6330TIP3    H218868   2.968   0.169   4.580
 6331TIP3   OH218869   2.422   8.974   2.867
 6331TIP3    H118870   2.457   9.058   2.836
 6331TIP3    H218871   2.491   8.910   2.847
 6332TIP3   OH218872   8.156   2.776   1.645
 6332TIP3    H118873   8.237   2.749   1.688
 6332TIP3    H218874   8.185   2.822   1.566
 6333TIP3   OH218875   9.397   6.110   0.134
 6333TIP3    H118876   9.416   6.016   0.126
 6333TIP3    H218877   9.301   6.114   0.139
 6334TIP3   OH218878   7.707   5.570   0.119
 6334TIP3    H118879   7.699   5.654   0.164
 6334TIP3    H218880   7.654   5.510   0.171
 6335TIP3   OH218881   4.181   1.018   4.370
 6335TIP3    H118882   4.152   0.959   4.439
 6335TIP3    H218883   4.149   1.104   4.396
 6336TIP3   OH218884   1.769   5.992   0.198
 6336TIP3    H118885   1.781   6.020   0.289
 6336TIP3    H218886   1.786   5.898   0.200
 6337TIP3   OH218887   7.992   2.101   2.319
 6337TIP3    H118888   8.069   2.058   2.281
 6337TIP3    H218889   7.946   2.139   2.244
 6338TIP3   OH218890   1.552   2.215   2.478
 6338TIP3    H118891   1.645   2.239   2.483
 6338TIP3    H218892   1.540   2.185   2.388
 6339TIP3   OH218893   8.745   2.683   3.387
 6339TIP3    H118894   8.821   2.727   3.425
 6339TIP3    H218895   8.770   2.590   3.384
 6340TIP3   OH218896   9.242   0.386   5.717
 6340TIP3    H118897   9.248   0.437   5.797
 6340TIP3    H218898   9.291   0.437   5.652
 6341TIP3   OH218899   4.989   0.623   6.251
 6341TIP3    H118900   4.955   0.679   6.321
 6341TIP3    H218901   5.054   0.568   6.295
 6342TIP3   OH218902   7.323   2.942   3.506
 6342TIP3    H118903   7.354   2.857   3.539
 6342TIP3    H218904   7.404   2.992   3.490
 6343TIP3   OH218905   1.916   8.086   1.857
 6343TIP3    H118906   1.977   8.022   1.822
 6343TIP3    H218907   1.848   8.095   1.790
 6344TIP3   OH218908   8.077   6.466   0.015
 6344TIP3    H118909   8.022   6.405   0.064
 6344TIP3    H218910   8.160   6.468   0.062
 6345TIP3   OH218911   5.904   6.333   2.804
 6345TIP3    H118912   5.991   6.337   2.844
 6345TIP3    H218913   5.919   6.294   2.718
 6346TIP3   OH218914   7.347   2.049   5.357
 6346TIP3    H118915   7.262   2.073   5.321
 6346TIP3    H218916   7.372   2.124   5.411
 6347TIP3   OH218917   2.039   0.907   0.742
 6347TIP3    H118918   2.128   0.942   0.733
 6347TIP3    H218919   2.046   0.816   0.711
 6348TIP3   OH218920   4.201   4.361   4.537
 6348TIP3    H118921   4.263   4.311   4.484
 6348TIP3    H218922   4.135   4.296   4.563
 6349TIP3   OH218923   3.707   6.038   4.456
 6349TIP3    H118924   3.626   6.084   4.477
 6349TIP3    H218925   3.754   6.032   4.539
 6350TIP3   OH218926   4.331   8.928   1.715
 6350TIP3    H118927   4.300   8.876   1.641
 6350TIP3    H218928   4.405   8.878   1.750
 6351TIP3   OH218929   4.965   4.516   4.162
 6351TIP3    H118930   4.987   4.458   4.235
 6351TIP3    H218931   4.979   4.604   4.197
 6352TIP3   OH218932   9.425   3.798   7.441
 6352TIP3    H118933   9.438   3.712   7.481
 6352TIP3    H218934   9.489   3.802   7.371
 6353TIP3   OH218935   3.972   8.072   1.304
 6353TIP3    H118936   3.883   8.070   1.340
 6353TIP3    H218937   4.029   8.049   1.377
 6354TIP3   OH218938   0.193   6.173   6.991
 6354TIP3    H118939   0.161   6.171   6.901
 6354TIP3    H218940   0.191   6.081   7.018
 6355TIP3   OH218941   0.061   3.462   7.740
 6355TIP3    H118942   0.143   3.501   7.769
 6355TIP3    H218943   0.051   3.384   7.795
 6356TIP3   OH218944   3.880   5.001   2.463
 6356TIP3    H118945   3.929   4.922   2.441
 6356TIP3    H218946   3.794   4.987   2.425
 6357TIP3   OH218947   6.166   5.797   2.052
 6357TIP3    H118948   6.119   5.718   2.021
 6357TIP3    H218949   6.181   5.780   2.145
 6358TIP3   OH218950   8.234   6.262   2.808
 6358TIP3    H118951   8.293   6.198   2.769
 6358TIP3    H218952   8.219   6.230   2.897
 6359TIP3   OH218953   5.265   0.216   6.635
 6359TIP3    H118954   5.206   0.179   6.569
 6359TIP3    H218955   5.228   0.302   6.655
 6360TIP3   OH218956   8.856   8.908   5.939
 6360TIP3    H118957   8.892   8.853   6.009
 6360TIP3    H218958   8.779   8.949   5.979
 6361TIP3   OH218959   7.552   8.450   1.649
 6361TIP3    H118960   7.471   8.486   1.686
 6361TIP3    H218961   7.522   8.386   1.584
 6362TIP3   OH218962   7.455   4.548   5.549
 6362TIP3    H118963   7.483   4.458   5.567
 6362TIP3    H218964   7.535   4.595   5.528
 6363TIP3   OH218965   5.611   5.298   0.583
 6363TIP3    H118966   5.575   5.346   0.508
 6363TIP3    H218967   5.608   5.360   0.655
 6364TIP3   OH218968   6.753   5.371   3.937
 6364TIP3    H118969   6.775   5.289   3.982
 6364TIP3    H218970   6.698   5.418   4.000
 6365TIP3   OH218971   0.621   1.653   5.931
 6365TIP3    H118972   0.698   1.618   5.886
 6365TIP3    H218973   0.627   1.615   6.019
 6366TIP3   OH218974   0.465   6.349   0.969
 6366TIP3    H118975   0.379   6.308   0.980
 6366TIP3    H218976   0.458   6.398   0.887
 6367TIP3   OH218977   7.242   0.224   0.035
 6367TIP3    H118978   7.273   0.228   0.126
 6367TIP3    H218979   7.259   0.312   0.000
 6368TIP3   OH218980   5.386   6.078   1.890
 6368TIP3    H118981   5.321   6.087   1.820
 6368TIP3    H218982   5.370   5.991   1.926
 6369TIP3   OH218983   1.543   2.169   3.050
 6369TIP3    H118984   1.523   2.249   3.001
 6369TIP3    H218985   1.593   2.115   2.989
 6370TIP3   OH218986   9.279   2.986   5.547
 6370TIP3    H118987   9.335   3.033   5.609
 6370TIP3    H218988   9.201   2.964   5.598
 6371TIP3   OH218989   0.880   5.659   3.993
 6371TIP3    H118990   0.966   5.619   3.995
 6371TIP3    H218991   0.886   5.728   3.927
 6372TIP3   OH218992   3.954   7.438   2.773
 6372TIP3    H118993   3.968   7.460   2.865
 6372TIP3    H218994   4.037   7.459   2.730
 6373TIP3   OH218995   9.043   4.981   6.249
 6373TIP3    H118996   9.023   4.892   6.277
 6373TIP3    H218997   8.968   5.033   6.278
 6374TIP3   OH218998   6.182   6.143   7.209
 6374TIP3    H118999   6.222   6.066   7.250
 6374TIP3    H219000   6.192   6.213   7.274
 6375TIP3   OH219001   7.532   0.690   2.044
 6375TIP3    H119002   7.598   0.720   1.982
 6375TIP3    H219003   7.549   0.740   2.123
 6376TIP3   OH219004   9.463   8.457   0.476
 6376TIP3    H119005   9.492   8.446   0.386
 6376TIP3    H219006   9.370   8.435   0.474
 6377TIP3   OH219007   2.160   5.761   6.674
 6377TIP3    H119008   2.121   5.847   6.662
 6377TIP3    H219009   2.224   5.753   6.604
 6378TIP3   OH219010   9.195   6.325   2.149
 6378TIP3    H119011   9.233   6.413   2.148
 6378TIP3    H219012   9.175   6.308   2.241
 6379TIP3   OH219013   0.247   5.238   5.999
 6379TIP3    H119014   0.223   5.288   5.921
 6379TIP3    H219015   0.182   5.168   6.003
 6380TIP3   OH219016   3.901   5.240   0.440
 6380TIP3    H119017   3.809   5.227   0.419
 6380TIP3    H219018   3.931   5.306   0.377
 6381TIP3   OH219019   6.085   1.280   1.682
 6381TIP3    H119020   6.148   1.344   1.650
 6381TIP3    H219021   6.042   1.247   1.603
 6382TIP3   OH219022   8.329   2.033   5.844
 6382TIP3    H119023   8.366   2.112   5.805
 6382TIP3    H219024   8.264   2.003   5.780
 6383TIP3   OH219025   8.083   7.485   7.188
 6383TIP3    H119026   8.032   7.556   7.225
 6383TIP3    H219027   8.171   7.522   7.176
 6384TIP3   OH219028   3.323   3.115   3.147
 6384TIP3    H119029   3.294   3.204   3.163
 6384TIP3    H219030   3.412   3.125   3.112
 6385TIP3   OH219031   5.521   4.979   3.746
 6385TIP3    H119032   5.525   4.963   3.651
 6385TIP3    H219033   5.521   5.075   3.754
 6386TIP3   OH219034   7.530   7.188   6.729
 6386TIP3    H119035   7.490   7.230   6.805
 6386TIP3    H219036   7.514   7.248   6.657
 6387TIP3   OH219037   3.786   0.958   7.299
 6387TIP3    H119038   3.867   0.940   7.251
 6387TIP3    H219039   3.798   0.914   7.383
 6388TIP3   OH219040   7.718   2.921   5.772
 6388TIP3    H119041   7.663   2.987   5.730
 6388TIP3    H219042   7.728   2.853   5.706
 6389TIP3   OH219043   2.412   6.992   1.033
 6389TIP3    H119044   2.408   7.086   1.017
 6389TIP3    H219045   2.503   6.968   1.015
 6390TIP3   OH219046   2.121   0.135   6.939
 6390TIP3    H119047   2.107   0.052   6.892
 6390TIP3    H219048   2.042   0.147   6.991
 6391TIP3   OH219049   2.254   4.880   1.340
 6391TIP3    H119050   2.253   4.793   1.302
 6391TIP3    H219051   2.210   4.869   1.425
 6392TIP3   OH219052   2.740   2.426   4.084
 6392TIP3    H119053   2.791   2.498   4.048
 6392TIP3    H219054   2.649   2.452   4.069
 6393TIP3   OH219055   3.365   7.795   7.165
 6393TIP3    H119056   3.314   7.824   7.241
 6393TIP3    H219057   3.299   7.781   7.097
 6394TIP3   OH219058   7.890   2.944   7.259
 6394TIP3    H119059   7.850   2.888   7.192
 6394TIP3    H219060   7.957   2.889   7.299
 6395TIP3   OH219061   2.697   1.818   2.420
 6395TIP3    H119062   2.781   1.791   2.383
 6395TIP3    H219063   2.720   1.862   2.502
 6396TIP3   OH219064   7.322   6.698   1.967
 6396TIP3    H119065   7.281   6.784   1.957
 6396TIP3    H219066   7.413   6.711   1.940
 6397TIP3   OH219067   8.763   5.138   3.575
 6397TIP3    H119068   8.840   5.146   3.630
 6397TIP3    H219069   8.694   5.109   3.635
 6398TIP3   OH219070   0.858   2.631   3.446
 6398TIP3    H119071   0.789   2.613   3.382
 6398TIP3    H219072   0.849   2.724   3.465
 6399TIP3   OH219073   6.909   6.441   1.820
 6399TIP3    H119074   6.971   6.369   1.803
 6399TIP3    H219075   6.964   6.520   1.817
 6400TIP3   OH219076   8.987   4.804   7.532
 6400TIP3    H119077   8.939   4.834   7.609
 6400TIP3    H219078   9.068   4.856   7.533
 6401TIP3   OH219079   4.507   6.611   0.610
 6401TIP3    H119080   4.557   6.586   0.532
 6401TIP3    H219081   4.445   6.677   0.579
 6402TIP3   OH219082   3.072   0.596   0.073
 6402TIP3    H119083   3.117   0.678   0.055
 6402TIP3    H219084   3.125   0.554   0.141
 6403TIP3   OH219085   2.639   2.841   3.282
 6403TIP3    H119086   2.587   2.766   3.311
 6403TIP3    H219087   2.587   2.917   3.306
 6404TIP3   OH219088   1.218   8.558   0.921
 6404TIP3    H119089   1.283   8.525   0.859
 6404TIP3    H219090   1.256   8.541   1.007
 6405TIP3   OH219091   3.396   6.695   0.173
 6405TIP3    H119092   3.466   6.738   0.222
 6405TIP3    H219093   3.400   6.604   0.200
 6406TIP3   OH219094   6.505   0.791   1.061
 6406TIP3    H119095   6.487   0.707   1.103
 6406TIP3    H219096   6.420   0.833   1.053
 6407TIP3   OH219097   7.493   4.633   2.846
 6407TIP3    H119098   7.553   4.606   2.776
 6407TIP3    H219099   7.543   4.693   2.900
 6408TIP3   OH219100   2.828   5.127   6.635
 6408TIP3    H119101   2.735   5.148   6.643
 6408TIP3    H219102   2.829   5.033   6.618
 6409TIP3   OH219103   2.237   4.542   4.487
 6409TIP3    H119104   2.147   4.518   4.467
 6409TIP3    H219105   2.271   4.579   4.406
 6410TIP3   OH219106   4.711   5.470   7.564
 6410TIP3    H119107   4.741   5.520   7.640
 6410TIP3    H219108   4.615   5.471   7.571
 6411TIP3   OH219109   2.945   6.911   0.872
 6411TIP3    H119110   2.942   7.004   0.897
 6411TIP3    H219111   2.914   6.909   0.782
 6412TIP3   OH219112   6.711   3.072   6.246
 6412TIP3    H119113   6.665   3.076   6.330
 6412TIP3    H219114   6.790   3.021   6.265
 6413TIP3   OH219115   7.456   5.626   5.325
 6413TIP3    H119116   7.397   5.642   5.398
 6413TIP3    H219117   7.452   5.706   5.273
 6414TIP3   OH219118   5.577   1.208   1.635
 6414TIP3    H119119   5.573   1.113   1.645
 6414TIP3    H219120   5.597   1.241   1.722
 6415TIP3   OH219121   7.943   6.054   2.076
 6415TIP3    H119122   8.030   6.054   2.116
 6415TIP3    H219123   7.958   6.028   1.985
 6416TIP3   OH219124   1.104   4.713   1.856
 6416TIP3    H119125   1.102   4.803   1.889
 6416TIP3    H219126   1.185   4.676   1.891
 6417TIP3   OH219127   2.957   2.902   4.272
 6417TIP3    H119128   2.890   2.926   4.337
 6417TIP3    H219129   2.913   2.838   4.216
 6418TIP3   OH219130   5.712   1.867   3.107
 6418TIP3    H119131   5.637   1.854   3.165
 6418TIP3    H219132   5.717   1.786   3.055
 6419TIP3   OH219133   9.491   5.452   5.806
 6419TIP3    H119134   9.493   5.493   5.892
 6419TIP3    H219135   9.575   5.475   5.766
 6420TIP3   OH219136   3.765   1.459   3.131
 6420TIP3    H119137   3.727   1.547   3.126
 6420TIP3    H219138   3.858   1.473   3.146
 6421TIP3   OH219139   4.242   7.059   5.436
 6421TIP3    H119140   4.204   7.000   5.501
 6421TIP3    H219141   4.167   7.097   5.391
 6422TIP3   OH219142   7.461   1.620   2.600
 6422TIP3    H119143   7.408   1.589   2.673
 6422TIP3    H219144   7.460   1.715   2.608
 6423TIP3   OH219145   9.460   4.478   6.494
 6423TIP3    H119146   9.531   4.499   6.433
 6423TIP3    H219147   9.498   4.415   6.555
 6424TIP3   OH219148   2.518   2.971   2.129
 6424TIP3    H119149   2.514   3.029   2.205
 6424TIP3    H219150   2.535   2.884   2.166
 6425TIP3   OH219151   1.831   3.314   7.374
 6425TIP3    H119152   1.739   3.332   7.392
 6425TIP3    H219153   1.878   3.350   7.449
 6426TIP3   OH219154   0.229   6.768   6.403
 6426TIP3    H119155   0.267   6.848   6.367
 6426TIP3    H219156   0.246   6.774   6.497
 6427TIP3   OH219157   5.267   7.281   6.845
 6427TIP3    H119158   5.308   7.363   6.817
 6427TIP3    H219159   5.220   7.250   6.767
 6428TIP3   OH219160   2.614   5.791   5.602
 6428TIP3    H119161   2.654   5.736   5.535
 6428TIP3    H219162   2.626   5.880   5.571
 6429TIP3   OH219163   0.920   0.425   1.752
 6429TIP3    H119164   0.850   0.367   1.722
 6429TIP3    H219165   0.902   0.439   1.845
 6430TIP3   OH219166   6.809   8.262   0.601
 6430TIP3    H119167   6.815   8.168   0.612
 6430TIP3    H219168   6.754   8.274   0.523
 6431TIP3   OH219169   4.546   1.383   2.270
 6431TIP3    H119170   4.547   1.304   2.325
 6431TIP3    H219171   4.638   1.397   2.246
 6432TIP3   OH219172   5.376   6.443   7.193
 6432TIP3    H119173   5.401   6.352   7.174
 6432TIP3    H219174   5.332   6.472   7.113
 6433TIP3   OH219175   1.067   0.665   4.114
 6433TIP3    H119176   1.021   0.747   4.133
 6433TIP3    H219177   1.106   0.677   4.028
 6434TIP3   OH219178   9.334   5.842   7.738
 6434TIP3    H119179   9.284   5.790   7.675
 6434TIP3    H219180   9.288   5.828   7.821
 6435TIP3   OH219181   5.498   7.921   3.018
 6435TIP3    H119182   5.581   7.874   3.031
 6435TIP3    H219183   5.523   8.013   3.021
 6436TIP3   OH219184   5.770   5.677   5.592
 6436TIP3    H119185   5.741   5.703   5.505
 6436TIP3    H219186   5.864   5.691   5.592
 6437TIP3   OH219187   4.056   0.331   0.829
 6437TIP3    H119188   4.083   0.242   0.849
 6437TIP3    H219189   4.124   0.387   0.867
 6438TIP3   OH219190   6.346   0.692   2.103
 6438TIP3    H119191   6.338   0.598   2.084
 6438TIP3    H219192   6.288   0.734   2.039
 6439TIP3   OH219193   5.595   2.987   0.562
 6439TIP3    H119194   5.548   2.942   0.492
 6439TIP3    H219195   5.573   3.079   0.550
 6440TIP3   OH219196   9.327   7.420   7.146
 6440TIP3    H119197   9.324   7.338   7.194
 6440TIP3    H219198   9.298   7.398   7.057
 6441TIP3   OH219199   9.100   5.033   6.620
 6441TIP3    H119200   9.015   5.025   6.577
 6441TIP3    H219201   9.144   4.949   6.601
 6442TIP3   OH219202   4.619   7.159   5.791
 6442TIP3    H119203   4.595   7.088   5.731
 6442TIP3    H219204   4.587   7.130   5.876
 6443TIP3   OH219205   0.639   4.705   1.928
 6443TIP3    H119206   0.659   4.777   1.987
 6443TIP3    H219207   0.572   4.654   1.973
 6444TIP3   OH219208   3.124   6.654   7.313
 6444TIP3    H119209   3.146   6.697   7.231
 6444TIP3    H219210   3.208   6.630   7.351
 6445TIP3   OH219211   6.870   3.659   1.375
 6445TIP3    H119212   6.777   3.640   1.368
 6445TIP3    H219213   6.880   3.701   1.461
 6446TIP3   OH219214   5.450   2.483   7.603
 6446TIP3    H119215   5.400   2.563   7.588
 6446TIP3    H219216   5.541   2.510   7.606
 6447TIP3   OH219217   1.066   1.303   5.815
 6447TIP3    H119218   1.103   1.226   5.858
 6447TIP3    H219219   1.089   1.293   5.723
 6448TIP3   OH219220   0.704   2.173   0.099
 6448TIP3    H119221   0.718   2.197   0.191
 6448TIP3    H219222   0.730   2.250   0.049
 6449TIP3   OH219223   2.105   4.250   3.708
 6449TIP3    H119224   2.138   4.219   3.793
 6449TIP3    H219225   2.160   4.326   3.688
 6450TIP3   OH219226   6.800   6.561   5.225
 6450TIP3    H119227   6.726   6.615   5.252
 6450TIP3    H219228   6.779   6.535   5.135
 6451TIP3   OH219229   2.339   6.352   0.590
 6451TIP3    H119230   2.371   6.442   0.594
 6451TIP3    H219231   2.311   6.341   0.499
 6452TIP3   OH219232   5.833   5.680   4.652
 6452TIP3    H119233   5.806   5.755   4.705
 6452TIP3    H219234   5.862   5.718   4.569
 6453TIP3   OH219235   4.169   8.032   7.668
 6453TIP3    H119236   4.107   7.979   7.717
 6453TIP3    H219237   4.167   7.997   7.579
 6454TIP3   OH219238   9.213   4.060   3.522
 6454TIP3    H119239   9.188   4.107   3.442
 6454TIP3    H219240   9.285   4.003   3.496
 6455TIP3   OH219241   7.495   1.976   1.487
 6455TIP3    H119242   7.521   2.046   1.547
 6455TIP3    H219243   7.432   2.016   1.428
 6456TIP3   OH219244   6.315   2.323   4.861
 6456TIP3    H119245   6.264   2.311   4.781
 6456TIP3    H219246   6.372   2.247   4.864
 6457TIP3   OH219247   9.098   2.410   2.660
 6457TIP3    H119248   9.114   2.483   2.600
 6457TIP3    H219249   9.183   2.367   2.670
 6458TIP3   OH219250   5.309   6.577   4.234
 6458TIP3    H119251   5.384   6.527   4.265
 6458TIP3    H219252   5.347   6.646   4.180
 6459TIP3   OH219253   3.987   7.451   0.271
 6459TIP3    H119254   3.974   7.432   0.178
 6459TIP3    H219255   3.899   7.467   0.304
 6460TIP3   OH219256   0.341   8.739   3.160
 6460TIP3    H119257   0.359   8.697   3.244
 6460TIP3    H219258   0.427   8.763   3.126
 6461TIP3   OH219259   6.635   7.434   7.526
 6461TIP3    H119260   6.561   7.462   7.580
 6461TIP3    H219261   6.652   7.507   7.467
 6462TIP3   OH219262   9.329   0.984   0.505
 6462TIP3    H119263   9.342   0.981   0.600
 6462TIP3    H219264   9.366   1.068   0.478
 6463TIP3   OH219265   1.037   6.714   6.362
 6463TIP3    H119266   0.968   6.682   6.304
 6463TIP3    H219267   1.089   6.637   6.385
 6464TIP3   OH219268   5.880   7.660   6.142
 6464TIP3    H119269   5.912   7.583   6.096
 6464TIP3    H219270   5.803   7.629   6.190
 6465TIP3   OH219271   0.883   2.233   5.325
 6465TIP3    H119272   0.878   2.290   5.402
 6465TIP3    H219273   0.977   2.227   5.306
 6466TIP3   OH219274   1.290   7.962   7.490
 6466TIP3    H119275   1.384   7.962   7.475
 6466TIP3    H219276   1.280   7.985   7.583
 6467TIP3   OH219277   0.957   3.783   2.364
 6467TIP3    H119278   1.008   3.703   2.374
 6467TIP3    H219279   0.870   3.761   2.397
 6468TIP3   OH219280   3.096   6.970   2.836
 6468TIP3    H119281   3.066   6.968   2.926
 6468TIP3    H219282   3.165   6.904   2.831
 6469TIP3   OH219283   3.617   5.779   2.982
 6469TIP3    H119284   3.665   5.696   2.991
 6469TIP3    H219285   3.633   5.806   2.892
 6470TIP3   OH219286   8.152   3.964   6.192
 6470TIP3    H119287   8.222   3.899   6.202
 6470TIP3    H219288   8.073   3.917   6.218
 6471TIP3   OH219289   6.070   3.736   2.714
 6471TIP3    H119290   6.103   3.690   2.791
 6471TIP3    H219291   6.116   3.696   2.640
 6472TIP3   OH219292   7.540   1.840   4.946
 6472TIP3    H119293   7.507   1.757   4.981
 6472TIP3    H219294   7.560   1.893   5.023
 6473TIP3   OH219295   9.038   4.535   5.164
 6473TIP3    H119296   8.958   4.497   5.126
 6473TIP3    H219297   9.019   4.629   5.169
 6474TIP3   OH219298   1.422   6.520   3.837
 6474TIP3    H119299   1.469   6.603   3.846
 6474TIP3    H219300   1.456   6.465   3.908
 6475TIP3   OH219301   3.115   1.854   4.573
 6475TIP3    H119302   3.165   1.932   4.598
 6475TIP3    H219303   3.023   1.882   4.579
 6476TIP3   OH219304   7.872   5.490   2.062
 6476TIP3    H119305   7.938   5.434   2.105
 6476TIP3    H219306   7.843   5.438   1.987
 6477TIP3   OH219307   3.920   3.722   2.134
 6477TIP3    H119308   3.877   3.774   2.203
 6477TIP3    H219309   3.848   3.700   2.074
 6478TIP3   OH219310   5.404   3.992   3.037
 6478TIP3    H119311   5.332   3.961   2.983
 6478TIP3    H219312   5.380   4.082   3.060
 6479TIP3   OH219313   6.055   6.609   5.774
 6479TIP3    H119314   5.964   6.613   5.803
 6479TIP3    H219315   6.098   6.554   5.839
 6480TIP3   OH219316   9.246   5.359   4.110
 6480TIP3    H119317   9.281   5.445   4.085
 6480TIP3    H219318   9.155   5.361   4.080
 6481TIP3   OH219319   6.769   0.020   4.854
 6481TIP3    H119320   6.783  -0.072   4.832
 6481TIP3    H219321   6.731   0.059   4.776
 6482TIP3   OH219322   0.838   5.188   3.727
 6482TIP3    H119323   0.912   5.128   3.723
 6482TIP3    H219324   0.762   5.134   3.707
 6483TIP3   OH219325   0.972   8.231   6.263
 6483TIP3    H119326   1.059   8.203   6.236
 6483TIP3    H219327   0.985   8.315   6.307
 6484TIP3   OH219328   0.825   2.394   3.135
 6484TIP3    H119329   0.872   2.420   3.055
 6484TIP3    H219330   0.742   2.357   3.103
 6485TIP3   OH219331   1.274   6.749   7.331
 6485TIP3    H119332   1.313   6.784   7.251
 6485TIP3    H219333   1.197   6.803   7.346
 6486TIP3   OH219334   1.980   8.099   6.737
 6486TIP3    H119335   1.907   8.106   6.798
 6486TIP3    H219336   2.042   8.039   6.780
 6487TIP3   OH219337   2.342   6.806   7.383
 6487TIP3    H119338   2.337   6.717   7.348
 6487TIP3    H219339   2.263   6.849   7.350
 6488TIP3   OH219340   6.900   1.534   6.683
 6488TIP3    H119341   6.861   1.528   6.596
 6488TIP3    H219342   6.990   1.565   6.667
 6489TIP3   OH219343   4.823   6.297   0.974
 6489TIP3    H119344   4.782   6.232   1.032
 6489TIP3    H219345   4.825   6.255   0.888
 6490TIP3   OH219346   6.030   7.085   4.882
 6490TIP3    H119347   6.035   7.180   4.882
 6490TIP3    H219348   6.121   7.056   4.877
 6491TIP3   OH219349   8.463   6.609   5.214
 6491TIP3    H119350   8.503   6.692   5.189
 6491TIP3    H219351   8.392   6.596   5.151
 6492TIP3   OH219352   2.609   7.021   3.878
 6492TIP3    H119353   2.645   7.008   3.790
 6492TIP3    H219354   2.530   6.967   3.880
 6493TIP3   OH219355   6.525   0.332   6.200
 6493TIP3    H119356   6.430   0.322   6.205
 6493TIP3    H219357   6.543   0.329   6.106
 6494TIP3   OH219358   6.086   6.980   6.692
 6494TIP3    H119359   6.067   7.056   6.636
 6494TIP3    H219360   6.048   6.906   6.645
 6495TIP3   OH219361   0.581   7.575   0.162
 6495TIP3    H119362   0.599   7.498   0.216
 6495TIP3    H219363   0.659   7.630   0.171
 6496TIP3   OH219364   6.538   8.581   6.881
 6496TIP3    H119365   6.478   8.630   6.937
 6496TIP3    H219366   6.625   8.602   6.917
 6497TIP3   OH219367   9.166   0.742   5.223
 6497TIP3    H119368   9.119   0.722   5.304
 6497TIP3    H219369   9.252   0.701   5.235
 6498TIP3   OH219370   1.502   4.629   7.070
 6498TIP3    H119371   1.506   4.542   7.032
 6498TIP3    H219372   1.584   4.671   7.042
 6499TIP3   OH219373   8.226   8.097   2.943
 6499TIP3    H119374   8.222   8.005   2.966
 6499TIP3    H219375   8.251   8.098   2.851
 6500TIP3   OH219376   6.032   3.262   4.366
 6500TIP3    H119377   5.995   3.217   4.290
 6500TIP3    H219378   5.960   3.314   4.400
 6501TIP3   OH219379   0.635   7.460   1.522
 6501TIP3    H119380   0.647   7.385   1.581
 6501TIP3    H219381   0.698   7.525   1.552
 6502TIP3   OH219382   9.410   0.452   1.517
 6502TIP3    H119383   9.382   0.541   1.539
 6502TIP3    H219384   9.486   0.437   1.572
 6503TIP3   OH219385   8.030   0.657   6.637
 6503TIP3    H119386   7.940   0.632   6.616
 6503TIP3    H219387   8.038   0.639   6.731
 6504TIP3   OH219388   3.609   5.563   3.605
 6504TIP3    H119389   3.688   5.566   3.659
 6504TIP3    H219390   3.628   5.623   3.532
 6505TIP3   OH219391   5.429   6.782   4.124
 6505TIP3    H119392   5.368   6.849   4.153
 6505TIP3    H219393   5.514   6.826   4.118
 6506TIP3   OH219394   0.636   8.392   7.731
 6506TIP3    H119395   0.663   8.309   7.772
 6506TIP3    H219396   0.557   8.369   7.681
 6507TIP3   OH219397   0.847   5.232   3.442
 6507TIP3    H119398   0.881   5.289   3.374
 6507TIP3    H219399   0.840   5.289   3.519
 6508TIP3   OH219400   0.172   8.733   0.246
 6508TIP3    H119401   0.197   8.719   0.337
 6508TIP3    H219402   0.243   8.692   0.195
 6509TIP3   OH219403   1.392   8.261   0.937
 6509TIP3    H119404   1.340   8.206   0.878
 6509TIP3    H219405   1.338   8.271   1.015
 6510TIP3   OH219406   5.697   8.589   6.970
 6510TIP3    H119407   5.664   8.526   6.906
 6510TIP3    H219408   5.766   8.636   6.923
 6511TIP3   OH219409   7.688   5.185   3.016
 6511TIP3    H119410   7.649   5.270   3.039
 6511TIP3    H219411   7.614   5.129   2.994
 6512TIP3   OH219412   5.591   7.897   5.731
 6512TIP3    H119413   5.517   7.905   5.671
 6512TIP3    H219414   5.558   7.929   5.815
 6513TIP3   OH219415   3.050   1.340   5.940
 6513TIP3    H119416   2.968   1.315   5.982
 6513TIP3    H219417   3.115   1.338   6.011
 6514TIP3   OH219418   3.092   7.809   3.492
 6514TIP3    H119419   3.170   7.754   3.481
 6514TIP3    H219420   3.116   7.870   3.561
 6515TIP3   OH219421   8.794   6.254   7.397
 6515TIP3    H119422   8.766   6.308   7.471
 6515TIP3    H219423   8.881   6.288   7.374
 6516TIP3   OH219424   6.212   4.783   2.548
 6516TIP3    H119425   6.167   4.862   2.577
 6516TIP3    H219426   6.270   4.759   2.620
 6517TIP3   OH219427   7.071   6.755   3.713
 6517TIP3    H119428   7.063   6.850   3.724
 6517TIP3    H219429   7.056   6.719   3.801
 6518TIP3   OH219430   1.520   1.674   0.040
 6518TIP3    H119431   1.463   1.694   0.114
 6518TIP3    H219432   1.591   1.622   0.078
 6519TIP3   OH219433   7.447   4.658   3.587
 6519TIP3    H119434   7.508   4.719   3.629
 6519TIP3    H219435   7.498   4.579   3.572
 6520TIP3   OH219436   5.831   3.834   6.156
 6520TIP3    H119437   5.786   3.912   6.188
 6520TIP3    H219438   5.913   3.868   6.119
 6521TIP3   OH219439   7.809   0.223   6.828
 6521TIP3    H119440   7.728   0.203   6.875
 6521TIP3    H219441   7.795   0.311   6.792
 6522TIP3   OH219442   0.738   4.198   0.284
 6522TIP3    H119443   0.799   4.134   0.320
 6522TIP3    H219444   0.712   4.162   0.199
 6523TIP3   OH219445   5.288   4.093   1.224
 6523TIP3    H119446   5.232   4.106   1.148
 6523TIP3    H219447   5.229   4.063   1.293
 6524TIP3   OH219448   2.174   1.781   7.329
 6524TIP3    H119449   2.186   1.747   7.240
 6524TIP3    H219450   2.255   1.827   7.349
 6525TIP3   OH219451   0.787   2.726   7.272
 6525TIP3    H119452   0.761   2.740   7.180
 6525TIP3    H219453   0.796   2.814   7.308
 6526TIP3   OH219454   9.530   4.713   4.159
 6526TIP3    H119455   9.436   4.718   4.140
 6526TIP3    H219456   9.551   4.800   4.193
 6527TIP3   OH219457   8.975   2.752   4.716
 6527TIP3    H119458   9.056   2.802   4.728
 6527TIP3    H219459   8.958   2.713   4.802
 6528TIP3   OH219460   7.604   7.068   4.902
 6528TIP3    H119461   7.639   6.988   4.862
 6528TIP3    H219462   7.540   7.037   4.965
 6529TIP3   OH219463   4.522   2.331   2.061
 6529TIP3    H119464   4.428   2.314   2.067
 6529TIP3    H219465   4.528   2.424   2.041
 6530TIP3   OH219466   6.969   1.834   4.017
 6530TIP3    H119467   7.045   1.780   4.037
 6530TIP3    H219468   6.954   1.885   4.097
 6531TIP3   OH219469   7.477   7.901   2.871
 6531TIP3    H119470   7.391   7.860   2.882
 6531TIP3    H219471   7.495   7.893   2.777
 6532TIP3   OH219472   1.626   7.896   3.350
 6532TIP3    H119473   1.718   7.873   3.358
 6532TIP3    H219474   1.585   7.861   3.429
 6533TIP3   OH219475   7.250   2.139   5.997
 6533TIP3    H119476   7.191   2.174   6.064
 6533TIP3    H219477   7.211   2.167   5.914
 6534TIP3   OH219478   1.333   7.201   5.913
 6534TIP3    H119479   1.302   7.253   5.988
 6534TIP3    H219480   1.253   7.162   5.877
 6535TIP3   OH219481   2.172   2.907   0.070
 6535TIP3    H119482   2.175   2.840   0.138
 6535TIP3    H219483   2.100   2.964   0.097
 6536TIP3   OH219484   6.652   6.828   1.375
 6536TIP3    H119485   6.690   6.741   1.358
 6536TIP3    H219486   6.726   6.881   1.406
 6537TIP3   OH219487   8.165   9.016   4.299
 6537TIP3    H119488   8.128   9.023   4.387
 6537TIP3    H219489   8.099   8.968   4.249
 6538TIP3   OH219490   3.618   6.600   5.981
 6538TIP3    H119491   3.561   6.667   5.942
 6538TIP3    H219492   3.563   6.559   6.048
 6539TIP3   OH219493   1.043   0.976   3.115
 6539TIP3    H119494   1.018   0.896   3.162
 6539TIP3    H219495   1.039   1.045   3.181
 6540TIP3   OH219496   2.460   4.082   3.949
 6540TIP3    H119497   2.440   4.002   3.998
 6540TIP3    H219498   2.542   4.113   3.986
 6541TIP3   OH219499   2.633   7.517   2.691
 6541TIP3    H119500   2.629   7.603   2.648
 6541TIP3    H219501   2.572   7.524   2.764
 6542TIP3   OH219502   8.942   1.456   0.814
 6542TIP3    H119503   8.900   1.536   0.783
 6542TIP3    H219504   8.945   1.399   0.737
 6543TIP3   OH219505   5.520   6.330   0.965
 6543TIP3    H119506   5.540   6.274   0.890
 6543TIP3    H219507   5.521   6.272   1.040
 6544TIP3   OH219508   1.300   1.649   4.972
 6544TIP3    H119509   1.214   1.679   4.999
 6544TIP3    H219510   1.298   1.652   4.876
 6545TIP3   OH219511   2.800   7.886   4.418
 6545TIP3    H119512   2.712   7.850   4.427
 6545TIP3    H219513   2.854   7.812   4.391
 6546TIP3   OH219514   5.984   1.395   5.867
 6546TIP3    H119515   5.923   1.322   5.857
 6546TIP3    H219516   6.016   1.412   5.779
 6547TIP3   OH219517   4.978   0.021   3.413
 6547TIP3    H119518   5.045   0.080   3.446
 6547TIP3    H219519   4.954   0.058   3.328
 6548TIP3   OH219520   0.912   8.528   5.998
 6548TIP3    H119521   0.848   8.486   6.055
 6548TIP3    H219522   0.894   8.622   6.007
 6549TIP3   OH219523   7.834   0.549   2.881
 6549TIP3    H119524   7.785   0.629   2.900
 6549TIP3    H219525   7.843   0.506   2.966
 6550TIP3   OH219526   5.691   6.069   4.213
 6550TIP3    H119527   5.785   6.055   4.223
 6550TIP3    H219528   5.684   6.150   4.162
 6551TIP3   OH219529   9.369   3.416   6.858
 6551TIP3    H119530   9.408   3.497   6.826
 6551TIP3    H219531   9.443   3.362   6.884
 6552TIP3   OH219532   9.275   5.291   7.086
 6552TIP3    H119533   9.188   5.328   7.098
 6552TIP3    H219534   9.277   5.264   6.994
 6553TIP3   OH219535   6.668   5.181   4.893
 6553TIP3    H119536   6.683   5.205   4.801
 6553TIP3    H219537   6.678   5.263   4.941
 6554TIP3   OH219538   3.957   0.267   5.394
 6554TIP3    H119539   3.938   0.361   5.398
 6554TIP3    H219540   4.032   0.261   5.335
 6555TIP3   OH219541   8.007   4.444   0.653
 6555TIP3    H119542   8.010   4.539   0.661
 6555TIP3    H219543   7.967   4.429   0.567
 6556TIP3   OH219544   4.790   1.349   7.435
 6556TIP3    H119545   4.739   1.425   7.406
 6556TIP3    H219546   4.798   1.360   7.530
 6557TIP3   OH219547   8.122   4.382   5.304
 6557TIP3    H119548   8.039   4.412   5.268
 6557TIP3    H219549   8.111   4.287   5.311
 6558TIP3   OH219550   5.216   7.063   1.740
 6558TIP3    H119551   5.121   7.052   1.738
 6558TIP3    H219552   5.247   6.992   1.797
 6559TIP3   OH219553   1.592   0.950   3.302
 6559TIP3    H119554   1.505   0.953   3.261
 6559TIP3    H219555   1.626   1.039   3.290
 6560TIP3   OH219556   8.714   7.887   2.277
 6560TIP3    H119557   8.628   7.929   2.275
 6560TIP3    H219558   8.775   7.957   2.251
 6561TIP3   OH219559   7.350   2.437   6.697
 6561TIP3    H119560   7.305   2.514   6.662
 6561TIP3    H219561   7.288   2.365   6.683
 6562TIP3   OH219562   7.049   1.174   1.604
 6562TIP3    H119563   6.973   1.124   1.573
 6562TIP3    H219564   7.086   1.213   1.525
 6563TIP3   OH219565   2.762   2.707   3.567
 6563TIP3    H119566   2.717   2.654   3.633
 6563TIP3    H219567   2.718   2.792   3.570
 6564TIP3   OH219568   5.790   4.892   0.828
 6564TIP3    H119569   5.806   4.967   0.770
 6564TIP3    H219570   5.828   4.817   0.781
 6565TIP3   OH219571   5.515   3.247   0.577
 6565TIP3    H119572   5.596   3.295   0.593
 6565TIP3    H219573   5.446   3.314   0.578
 6566TIP3   OH219574   8.289   7.097   4.618
 6566TIP3    H119575   8.334   7.020   4.584
 6566TIP3    H219576   8.204   7.064   4.648
 6567TIP3   OH219577   0.582   1.587   3.165
 6567TIP3    H119578   0.575   1.493   3.181
 6567TIP3    H219579   0.662   1.614   3.211
 6568TIP3   OH219580   9.173   0.527   0.946
 6568TIP3    H119581   9.211   0.536   1.033
 6568TIP3    H219582   9.246   0.500   0.890
 6569TIP3   OH219583   2.260   6.173   3.293
 6569TIP3    H119584   2.351   6.197   3.275
 6569TIP3    H219585   2.267   6.101   3.356
 6570TIP3   OH219586   6.792   0.346   5.430
 6570TIP3    H119587   6.713   0.374   5.385
 6570TIP3    H219588   6.848   0.424   5.432
 6571TIP3   OH219589   0.602   6.921   7.068
 6571TIP3    H119590   0.676   6.862   7.085
 6571TIP3    H219591   0.568   6.892   6.983
 6572TIP3   OH219592   6.242   8.571   6.780
 6572TIP3    H119593   6.196   8.522   6.713
 6572TIP3    H219594   6.270   8.505   6.844
 6573TIP3   OH219595   0.655   1.442   3.455
 6573TIP3    H119596   0.696   1.525   3.432
 6573TIP3    H219597   0.728   1.382   3.468
 6574TIP3   OH219598   4.024   2.219   2.864
 6574TIP3    H119599   4.111   2.255   2.851
 6574TIP3    H219600   4.039   2.132   2.901
 6575TIP3   OH219601   3.778   2.820   1.191
 6575TIP3    H119602   3.807   2.733   1.216
 6575TIP3    H219603   3.713   2.843   1.258
 6576TIP3   OH219604   6.007   0.101   7.305
 6576TIP3    H119605   6.058   0.093   7.225
 6576TIP3    H219606   5.975   0.191   7.304
 6577TIP3   OH219607   7.329   1.306   3.717
 6577TIP3    H119608   7.414   1.262   3.721
 6577TIP3    H219609   7.293   1.298   3.806
 6578TIP3   OH219610   0.025   4.006   2.138
 6578TIP3    H119611   0.019   3.915   2.108
 6578TIP3    H219612   0.109   4.010   2.185
 6579TIP3   OH219613   9.146   5.554   2.667
 6579TIP3    H119614   9.068   5.611   2.669
 6579TIP3    H219615   9.135   5.501   2.588
 6580TIP3   OH219616   2.903   1.743   3.327
 6580TIP3    H119617   2.895   1.663   3.276
 6580TIP3    H219618   2.852   1.726   3.406
 6581TIP3   OH219619   2.582   2.053   6.773
 6581TIP3    H119620   2.555   2.010   6.691
 6581TIP3    H219621   2.625   2.134   6.744
 6582TIP3   OH219622   4.514   0.075   2.133
 6582TIP3    H119623   4.477   0.158   2.164
 6582TIP3    H219624   4.490   0.071   2.040
 6583TIP3   OH219625   4.757   5.828   5.606
 6583TIP3    H119626   4.718   5.885   5.672
 6583TIP3    H219627   4.834   5.789   5.649
 6584TIP3   OH219628   6.729   7.435   7.080
 6584TIP3    H119629   6.708   7.488   7.156
 6584TIP3    H219630   6.722   7.495   7.006
 6585TIP3   OH219631   7.060   3.233   5.322
 6585TIP3    H119632   7.141   3.260   5.277
 6585TIP3    H219633   7.077   3.143   5.348
 6586TIP3   OH219634   8.449   6.209   7.420
 6586TIP3    H119635   8.520   6.225   7.483
 6586TIP3    H219636   8.374   6.256   7.456
 6587TIP3   OH219637   0.010   1.661   6.278
 6587TIP3    H119638  -0.076   1.620   6.264
 6587TIP3    H219639  -0.000   1.710   6.359
 6588TIP3   OH219640   6.882   4.763   0.639
 6588TIP3    H119641   6.806   4.719   0.677
 6588TIP3    H219642   6.940   4.779   0.713
 6589TIP3   OH219643   7.753   7.980   7.687
 6589TIP3    H119644   7.747   8.028   7.769
 6589TIP3    H219645   7.669   7.994   7.644
 6590TIP3   OH219646   7.627   0.858   2.280
 6590TIP3    H119647   7.694   0.925   2.266
 6590TIP3    H219648   7.658   0.809   2.356
 6591TIP3   OH219649   0.708   2.975   2.564
 6591TIP3    H119650   0.662   2.918   2.503
 6591TIP3    H219651   0.775   3.019   2.510
 6592TIP3   OH219652   6.287   0.115   5.615
 6592TIP3    H119653   6.248   0.064   5.545
 6592TIP3    H219654   6.352   0.057   5.654
 6593TIP3   OH219655   3.511   2.795   6.337
 6593TIP3    H119656   3.535   2.824   6.426
 6593TIP3    H219657   3.448   2.724   6.352
 6594TIP3   OH219658   1.168   2.213   5.346
 6594TIP3    H119659   1.226   2.221   5.422
 6594TIP3    H219660   1.182   2.123   5.315
 6595TIP3   OH219661   1.611   3.990   6.808
 6595TIP3    H119662   1.577   3.923   6.867
 6595TIP3    H219663   1.536   4.015   6.754
 6596TIP3   OH219664   9.106   8.083   5.703
 6596TIP3    H119665   9.193   8.064   5.667
 6596TIP3    H219666   9.049   8.089   5.626
 6597TIP3   OH219667   7.020   8.897   5.090
 6597TIP3    H119668   7.005   8.823   5.148
 6597TIP3    H219669   6.939   8.904   5.039
 6598TIP3   OH219670   7.634   7.972   2.036
 6598TIP3    H119671   7.639   7.929   1.951
 6598TIP3    H219672   7.560   7.930   2.080
 6599TIP3   OH219673   5.735   1.329   6.628
 6599TIP3    H119674   5.795   1.394   6.663
 6599TIP3    H219675   5.676   1.309   6.700
 6600TIP3   OH219676   5.110   5.944   0.528
 6600TIP3    H119677   5.185   5.890   0.505
 6600TIP3    H219678   5.145   6.008   0.590
 6601TIP3   OH219679   6.475   5.110   4.492
 6601TIP3    H119680   6.543   5.174   4.511
 6601TIP3    H219681   6.411   5.157   4.439
 6602TIP3   OH219682   4.403   2.828   5.508
 6602TIP3    H119683   4.370   2.796   5.424
 6602TIP3    H219684   4.328   2.822   5.567
 6603TIP3   OH219685   0.715   2.199   2.362
 6603TIP3    H119686   0.638   2.243   2.327
 6603TIP3    H219687   0.719   2.116   2.315
 6604TIP3   OH219688   9.325   8.692   3.680
 6604TIP3    H119689   9.288   8.673   3.594
 6604TIP3    H219690   9.355   8.783   3.673
 6605TIP3   OH219691   7.158   5.472   1.572
 6605TIP3    H119692   7.178   5.481   1.479
 6605TIP3    H219693   7.147   5.378   1.586
 6606TIP3   OH219694   8.815   0.240   7.466
 6606TIP3    H119695   8.861   0.316   7.502
 6606TIP3    H219696   8.800   0.183   7.542
 6607TIP3   OH219697   0.067   5.762   2.242
 6607TIP3    H119698   0.126   5.771   2.168
 6607TIP3    H219699   0.125   5.752   2.318
 6608TIP3   OH219700   1.681   8.691   4.430
 6608TIP3    H119701   1.761   8.741   4.446
 6608TIP3    H219702   1.636   8.739   4.360
 6609TIP3   OH219703   8.647   2.923   7.281
 6609TIP3    H119704   8.665   2.830   7.263
 6609TIP3    H219705   8.606   2.922   7.367
 6610TIP3   OH219706   8.960   0.152   4.174
 6610TIP3    H119707   8.983   0.240   4.202
 6610TIP3    H219708   8.998   0.143   4.087
 6611TIP3   OH219709   2.331   7.883   1.557
 6611TIP3    H119710   2.397   7.824   1.594
 6611TIP3    H219711   2.270   7.826   1.511
 6612TIP3   OH219712   6.410   8.634   4.871
 6612TIP3    H119713   6.388   8.701   4.806
 6612TIP3    H219714   6.493   8.597   4.840
 6613TIP3   OH219715   5.293   2.680   4.028
 6613TIP3    H119716   5.364   2.692   4.092
 6613TIP3    H219717   5.314   2.742   3.958
 6614TIP3   OH219718   7.391   5.418   1.364
 6614TIP3    H119719   7.397   5.469   1.283
 6614TIP3    H219720   7.398   5.327   1.336
 6615TIP3   OH219721   1.210   8.152   6.180
 6615TIP3    H119722   1.280   8.094   6.210
 6615TIP3    H219723   1.253   8.210   6.117
 6616TIP3   OH219724   2.645   2.889   0.341
 6616TIP3    H119725   2.574   2.875   0.279
 6616TIP3    H219726   2.612   2.956   0.401
 6617TIP3   OH219727   0.583   6.608   6.577
 6617TIP3    H119728   0.669   6.642   6.601
 6617TIP3    H219729   0.596   6.514   6.567
 6618TIP3   OH219730   5.601   6.600   3.065
 6618TIP3    H119731   5.692   6.575   3.078
 6618TIP3    H219732   5.599   6.694   3.083
 6619TIP3   OH219733   7.984   8.277   1.027
 6619TIP3    H119734   7.973   8.186   1.055
 6619TIP3    H219735   8.035   8.318   1.096
 6620TIP3   OH219736   9.091   3.540   3.967
 6620TIP3    H119737   9.155   3.575   3.904
 6620TIP3    H219738   9.064   3.615   4.019
 6621TIP3   OH219739   1.056   8.975   6.089
 6621TIP3    H119740   1.036   9.035   6.161
 6621TIP3    H219741   1.149   8.986   6.073
 6622TIP3   OH219742   4.734   8.069   5.736
 6622TIP3    H119743   4.742   8.074   5.831
 6622TIP3    H219744   4.752   7.977   5.715
 6623TIP3   OH219745   4.399   0.262   0.798
 6623TIP3    H119746   4.449   0.183   0.819
 6623TIP3    H219747   4.330   0.232   0.739
 6624TIP3   OH219748   8.847   7.644   2.104
 6624TIP3    H119749   8.801   7.718   2.144
 6624TIP3    H219750   8.939   7.658   2.127
 6625TIP3   OH219751  -0.003   8.294   3.047
 6625TIP3    H119752   0.039   8.311   3.132
 6625TIP3    H219753   0.058   8.234   3.003
 6626TIP3   OH219754   3.930   2.322   2.637
 6626TIP3    H119755   4.013   2.370   2.633
 6626TIP3    H219756   3.945   2.256   2.705
 6627TIP3   OH219757   3.972   7.254   0.482
 6627TIP3    H119758   4.050   7.199   0.486
 6627TIP3    H219759   3.993   7.322   0.418
 6628TIP3   OH219760   1.998   3.596   6.418
 6628TIP3    H119761   2.021   3.588   6.511
 6628TIP3    H219762   1.915   3.643   6.418
 6629TIP3   OH219763   3.110   4.035   3.608
 6629TIP3    H119764   3.198   3.997   3.617
 6629TIP3    H219765   3.079   4.045   3.698
 6630TIP3   OH219766   3.994   6.653   3.233
 6630TIP3    H119767   4.016   6.669   3.142
 6630TIP3    H219768   4.079   6.649   3.278
 6631TIP3   OH219769   3.472   1.329   4.060
 6631TIP3    H119770   3.521   1.405   4.091
 6631TIP3    H219771   3.423   1.362   3.984
 6632TIP3   OH219772   6.319   1.217   5.732
 6632TIP3    H119773   6.362   1.184   5.812
 6632TIP3    H219774   6.249   1.154   5.716
 6633TIP3   OH219775   3.204   6.044   6.237
 6633TIP3    H119776   3.230   5.952   6.232
 6633TIP3    H219777   3.126   6.044   6.293
 6634TIP3   OH219778   6.569   3.137   3.760
 6634TIP3    H119779   6.584   3.222   3.801
 6634TIP3    H219780   6.606   3.145   3.672
 6635TIP3   OH219781   3.615   1.247   1.774
 6635TIP3    H119782   3.612   1.221   1.866
 6635TIP3    H219783   3.566   1.329   1.770
 6636TIP3   OH219784   8.184   6.973   0.002
 6636TIP3    H119785   8.105   6.968   0.056
 6636TIP3    H219786   8.171   6.906  -0.065
 6637TIP3   OH219787   4.335   1.493   0.020
 6637TIP3    H119788   4.338   1.580   0.059
 6637TIP3    H219789   4.420   1.454   0.040
 6638TIP3   OH219790   7.989   6.369   6.657
 6638TIP3    H119791   8.077   6.348   6.688
 6638TIP3    H219792   7.935   6.371   6.736
 6639TIP3   OH219793   4.433   1.582   2.561
 6639TIP3    H119794   4.376   1.511   2.531
 6639TIP3    H219795   4.450   1.634   2.482
 6640TIP3   OH219796   2.863   5.229   6.283
 6640TIP3    H119797   2.781   5.234   6.333
 6640TIP3    H219798   2.852   5.292   6.213
 6641TIP3   OH219799   9.353   6.319   2.923
 6641TIP3    H119800   9.368   6.224   2.920
 6641TIP3    H219801   9.267   6.328   2.965
 6642TIP3   OH219802   0.340   1.736   3.712
 6642TIP3    H119803   0.294   1.819   3.723
 6642TIP3    H219804   0.421   1.761   3.665
 6643TIP3   OH219805   8.063   3.329   5.146
 6643TIP3    H119806   8.109   3.410   5.170
 6643TIP3    H219807   8.127   3.281   5.094
 6644TIP3   OH219808   5.154   8.158   6.519
 6644TIP3    H119809   5.123   8.067   6.517
 6644TIP3    H219810   5.076   8.211   6.503
 6645TIP3   OH219811   6.273   2.640   2.860
 6645TIP3    H119812   6.257   2.589   2.780
 6645TIP3    H219813   6.311   2.577   2.922
 6646TIP3   OH219814   0.221   6.715   5.783
 6646TIP3    H119815   0.253   6.645   5.840
 6646TIP3    H219816   0.218   6.676   5.696
 6647TIP3   OH219817   3.350   2.039   0.288
 6647TIP3    H119818   3.340   2.112   0.348
 6647TIP3    H219819   3.260   2.011   0.269
 6648TIP3   OH219820   3.219   8.303   6.746
 6648TIP3    H119821   3.130   8.339   6.743
 6648TIP3    H219822   3.229   8.270   6.835
 6649TIP3   OH219823   5.815   7.691   3.550
 6649TIP3    H119824   5.772   7.628   3.607
 6649TIP3    H219825   5.748   7.717   3.487
 6650TIP3   OH219826   1.843   7.784   3.425
 6650TIP3    H119827   1.804   7.696   3.424
 6650TIP3    H219828   1.901   7.785   3.348
 6651TIP3   OH219829   5.810   6.592   5.866
 6651TIP3    H119830   5.791   6.629   5.952
 6651TIP3    H219831   5.790   6.499   5.875
 6652TIP3   OH219832   0.178   2.418   0.986
 6652TIP3    H119833   0.098   2.439   1.034
 6652TIP3    H219834   0.181   2.323   0.984
 6653TIP3   OH219835   4.627   0.854   5.214
 6653TIP3    H119836   4.652   0.763   5.224
 6653TIP3    H219837   4.651   0.875   5.123
 6654TIP3   OH219838   5.539   1.512   2.103
 6654TIP3    H119839   5.485   1.545   2.175
 6654TIP3    H219840   5.608   1.577   2.093
 6655TIP3   OH219841   3.398   0.309   5.183
 6655TIP3    H119842   3.493   0.310   5.171
 6655TIP3    H219843   3.365   0.262   5.106
 6656TIP3   OH219844   1.266   7.588   3.010
 6656TIP3    H119845   1.199   7.652   3.038
 6656TIP3    H219846   1.343   7.610   3.063
 6657TIP3   OH219847   1.127   1.361   4.738
 6657TIP3    H119848   1.069   1.437   4.734
 6657TIP3    H219849   1.164   1.364   4.826
 6658TIP3   OH219850   2.995   6.212   0.486
 6658TIP3    H119851   2.998   6.301   0.449
 6658TIP3    H219852   2.959   6.224   0.573
 6659TIP3   OH219853   7.650   6.724   6.931
 6659TIP3    H119854   7.721   6.732   6.995
 6659TIP3    H219855   7.648   6.810   6.888
 6660TIP3   OH219856   2.301   6.700   3.808
 6660TIP3    H119857   2.350   6.745   3.876
 6660TIP3    H219858   2.325   6.608   3.818
 6661TIP3   OH219859   2.931   8.386   2.931
 6661TIP3    H119860   2.937   8.303   2.979
 6661TIP3    H219861   3.022   8.415   2.922
 6662TIP3   OH219862   3.335   0.249   2.207
 6662TIP3    H119863   3.417   0.205   2.184
 6662TIP3    H219864   3.326   0.236   2.302
 6663TIP3   OH219865   5.159   7.500   6.149
 6663TIP3    H119866   5.199   7.414   6.136
 6663TIP3    H219867   5.226   7.552   6.192
 6664TIP3   OH219868   2.138   2.357   3.580
 6664TIP3    H119869   2.168   2.354   3.671
 6664TIP3    H219870   2.193   2.293   3.534
 6665TIP3   OH219871   7.275   7.659   0.413
 6665TIP3    H119872   7.263   7.738   0.466
 6665TIP3    H219873   7.303   7.592   0.476
 6666TIP3   OH219874   2.572   0.085   3.018
 6666TIP3    H119875   2.565   0.180   3.026
 6666TIP3    H219876   2.503   0.051   3.075
 6667TIP3   OH219877   8.356   4.438   5.543
 6667TIP3    H119878   8.290   4.421   5.611
 6667TIP3    H219879   8.361   4.533   5.538
 6668TIP3   OH219880   6.671   4.284   1.404
 6668TIP3    H119881   6.712   4.361   1.443
 6668TIP3    H219882   6.591   4.271   1.454
 6669TIP3   OH219883   8.745   7.079   0.441
 6669TIP3    H119884   8.767   6.997   0.397
 6669TIP3    H219885   8.812   7.141   0.412
 6670TIP3   OH219886   0.106   1.553   0.067
 6670TIP3    H119887   0.104   1.498  -0.011
 6670TIP3    H219888   0.180   1.612   0.054
 6671TIP3   OH219889   3.583   5.276   1.741
 6671TIP3    H119890   3.536   5.353   1.774
 6671TIP3    H219891   3.536   5.201   1.777
 6672TIP3   OH219892   1.054   6.600   1.116
 6672TIP3    H119893   1.116   6.612   1.044
 6672TIP3    H219894   1.094   6.645   1.190
 6673TIP3   OH219895   3.559   5.651   5.593
 6673TIP3    H119896   3.618   5.669   5.666
 6673TIP3    H219897   3.615   5.649   5.515
 6674TIP3   OH219898   1.673   2.827   1.093
 6674TIP3    H119899   1.739   2.767   1.129
 6674TIP3    H219900   1.671   2.899   1.156
 6675TIP3   OH219901   1.878   8.814   7.779
 6675TIP3    H119902   1.830   8.851   7.853
 6675TIP3    H219903   1.811   8.793   7.715
 6676TIP3   OH219904   5.350   8.371   3.344
 6676TIP3    H119905   5.272   8.337   3.388
 6676TIP3    H219906   5.395   8.292   3.312
 6677TIP3   OH219907   7.107   1.108   5.823
 6677TIP3    H119908   7.092   1.037   5.760
 6677TIP3    H219909   7.075   1.186   5.778
 6678TIP3   OH219910   6.169   7.561   7.381
 6678TIP3    H119911   6.109   7.633   7.366
 6678TIP3    H219912   6.229   7.563   7.307
 6679TIP3   OH219913   8.446   1.431   6.870
 6679TIP3    H119914   8.497   1.351   6.884
 6679TIP3    H219915   8.419   1.428   6.778
 6680TIP3   OH219916   2.877   8.277   1.723
 6680TIP3    H119917   2.801   8.224   1.700
 6680TIP3    H219918   2.863   8.300   1.815
 6681TIP3   OH219919   6.705   7.272   6.491
 6681TIP3    H119920   6.747   7.206   6.546
 6681TIP3    H219921   6.738   7.356   6.525
 6682TIP3   OH219922   0.051   4.379   2.801
 6682TIP3    H119923   0.005   4.311   2.850
 6682TIP3    H219924   0.109   4.420   2.865
 6683TIP3   OH219925   2.799   3.989   6.499
 6683TIP3    H119926   2.735   4.053   6.530
 6683TIP3    H219927   2.772   3.906   6.541
 6684TIP3   OH219928   8.324   8.411   2.639
 6684TIP3    H119929   8.320   8.400   2.544
 6684TIP3    H219930   8.320   8.506   2.653
 6685TIP3   OH219931   6.779   3.251   4.079
 6685TIP3    H119932   6.863   3.204   4.078
 6685TIP3    H219933   6.745   3.237   4.167
 6686TIP3   OH219934   3.986   0.428   2.527
 6686TIP3    H119935   3.897   0.430   2.562
 6686TIP3    H219936   4.038   0.476   2.592
 6687TIP3   OH219937   7.145   8.066   2.787
 6687TIP3    H119938   7.089   8.022   2.722
 6687TIP3    H219939   7.111   8.037   2.872
 6688TIP3   OH219940   1.742   7.917   2.289
 6688TIP3    H119941   1.818   7.965   2.323
 6688TIP3    H219942   1.709   7.972   2.217
 6689TIP3   OH219943   5.215   1.175   4.650
 6689TIP3    H119944   5.136   1.227   4.667
 6689TIP3    H219945   5.245   1.148   4.736
 6690TIP3   OH219946   1.438   7.903   1.977
 6690TIP3    H119947   1.424   7.903   2.072
 6690TIP3    H219948   1.393   7.982   1.947
 6691TIP3   OH219949   6.680   1.539   7.762
 6691TIP3    H119950   6.683   1.509   7.671
 6691TIP3    H219951   6.595   1.582   7.770
 6692TIP3   OH219952   2.179   5.884   5.831
 6692TIP3    H119953   2.146   5.862   5.744
 6692TIP3    H219954   2.241   5.955   5.816
 6693TIP3   OH219955   6.399   7.152   5.119
 6693TIP3    H119956   6.398   7.245   5.142
 6693TIP3    H219957   6.397   7.106   5.203
 6694TIP3   OH219958   0.012   6.041   2.027
 6694TIP3    H119959   0.049   6.090   2.100
 6694TIP3    H219960   0.088   6.018   1.973
 6695TIP3   OH219961   2.118   5.195   6.768
 6695TIP3    H119962   2.068   5.275   6.784
 6695TIP3    H219963   2.190   5.223   6.711
 6696TIP3   OH219964   1.331   0.755   4.215
 6696TIP3    H119965   1.253   0.700   4.206
 6696TIP3    H219966   1.339   0.797   4.129
 6697TIP3   OH219967   5.139   2.542   0.148
 6697TIP3    H119968   5.092   2.626   0.148
 6697TIP3    H219969   5.155   2.523   0.056
 6698TIP3   OH219970   4.354   5.132   2.015
 6698TIP3    H119971   4.384   5.141   2.105
 6698TIP3    H219972   4.422   5.174   1.963
 6699TIP3   OH219973   7.657   6.387   2.008
 6699TIP3    H119974   7.585   6.403   2.070
 6699TIP3    H219975   7.683   6.296   2.025
 6700TIP3   OH219976   5.837   4.426   5.829
 6700TIP3    H119977   5.932   4.421   5.815
 6700TIP3    H219978   5.827   4.430   5.924
 6701TIP3   OH219979   6.649   8.719   4.529
 6701TIP3    H119980   6.642   8.815   4.528
 6701TIP3    H219981   6.590   8.692   4.599
 6702TIP3   OH219982   6.936   4.696   5.370
 6702TIP3    H119983   6.983   4.775   5.344
 6702TIP3    H219984   6.907   4.712   5.459
 6703TIP3   OH219985   0.204   0.806   4.089
 6703TIP3    H119986   0.299   0.803   4.091
 6703TIP3    H219987   0.176   0.740   4.152
 6704TIP3   OH219988   8.965   2.515   6.125
 6704TIP3    H119989   9.046   2.466   6.137
 6704TIP3    H219990   8.896   2.457   6.158
 6705TIP3   OH219991   3.633   6.186   5.340
 6705TIP3    H119992   3.663   6.127   5.271
 6705TIP3    H219993   3.538   6.189   5.329
 6706TIP3   OH219994   5.340   8.140   4.279
 6706TIP3    H119995   5.304   8.100   4.201
 6706TIP3    H219996   5.266   8.148   4.339
 6707TIP3   OH219997   5.697   8.420   2.065
 6707TIP3    H119998   5.688   8.514   2.049
 6707TIP3    H219999   5.790   8.402   2.052
 6708TIP3   OH220000   0.583   1.907   0.615
 6708TIP3    H120001   0.675   1.901   0.589
 6708TIP3    H220002   0.586   1.931   0.707
 6709TIP3   OH220003   6.708   0.304   3.758
 6709TIP3    H120004   6.715   0.212   3.731
 6709TIP3    H220005   6.739   0.353   3.682
 6710TIP3   OH220006   8.417   4.651   0.061
 6710TIP3    H120007   8.437   4.562   0.032
 6710TIP3    H220008   8.322   4.651   0.073
 6711TIP3   OH220009   8.880   2.397   6.862
 6711TIP3    H120010   8.832   2.314   6.869
 6711TIP3    H220011   8.960   2.373   6.817
 6712TIP3   OH220012   6.074   6.987   1.251
 6712TIP3    H120013   6.003   7.051   1.241
 6712TIP3    H220014   6.077   6.940   1.168
 6713TIP3   OH220015   1.988   2.284   4.768
 6713TIP3    H120016   1.981   2.367   4.816
 6713TIP3    H220017   2.077   2.254   4.787
 6714TIP3   OH220018   7.236   6.662   7.745
 6714TIP3    H120019   7.250   6.756   7.759
 6714TIP3    H220020   7.270   6.646   7.657
 6715TIP3   OH220021   0.141   8.484   1.302
 6715TIP3    H120022   0.157   8.539   1.378
 6715TIP3    H220023   0.132   8.546   1.229
 6716TIP3   OH220024   6.649   1.804   2.891
 6716TIP3    H120025   6.561   1.841   2.883
 6716TIP3    H220026   6.707   1.873   2.860
 6717TIP3   OH220027   5.950   7.942   6.151
 6717TIP3    H120028   6.040   7.947   6.183
 6717TIP3    H220029   5.942   7.853   6.117
 6718TIP3   OH220030   1.779   8.764   0.117
 6718TIP3    H120031   1.746   8.715   0.192
 6718TIP3    H220032   1.729   8.730   0.043
 6719TIP3   OH220033   8.095   6.573   7.328
 6719TIP3    H120034   8.047   6.581   7.411
 6719TIP3    H220035   8.094   6.662   7.292
 6720TIP3   OH220036   3.500   1.566   5.397
 6720TIP3    H120037   3.583   1.520   5.412
 6720TIP3    H220038   3.518   1.656   5.422
 6721TIP3   OH220039   4.556   1.864   4.678
 6721TIP3    H120040   4.650   1.872   4.661
 6721TIP3    H220041   4.515   1.860   4.592
 6722TIP3   OH220042   1.959   7.576   6.250
 6722TIP3    H120043   2.003   7.572   6.165
 6722TIP3    H220044   1.877   7.529   6.237
 6723TIP3   OH220045   4.309   5.948   2.320
 6723TIP3    H120046   4.239   5.918   2.378
 6723TIP3    H220047   4.323   5.874   2.259
 6724TIP3   OH220048   1.821   3.001   3.047
 6724TIP3    H120049   1.769   3.044   2.979
 6724TIP3    H220050   1.906   2.986   3.006
 6725TIP3   OH220051   5.657   6.251   2.862
 6725TIP3    H120052   5.749   6.263   2.840
 6725TIP3    H220053   5.614   6.331   2.830
 6726TIP3   OH220054   2.342   7.854   0.627
 6726TIP3    H120055   2.373   7.932   0.582
 6726TIP3    H220056   2.272   7.820   0.571
 6727TIP3   OH220057   4.664   4.140   0.845
 6727TIP3    H120058   4.657   4.232   0.821
 6727TIP3    H220059   4.586   4.099   0.807
 6728TIP3   OH220060   9.114   0.033   7.607
 6728TIP3    H120061   9.191   0.088   7.593
 6728TIP3    H220062   9.104   0.030   7.702
 6729TIP3   OH220063   9.148   7.204   3.591
 6729TIP3    H120064   9.204   7.206   3.513
 6729TIP3    H220065   9.204   7.236   3.661
 6730TIP3   OH220066   7.554   4.022   3.639
 6730TIP3    H120067   7.464   4.053   3.640
 6730TIP3    H220068   7.549   3.935   3.600
 6731TIP3   OH220069   6.793   4.733   0.999
 6731TIP3    H120070   6.744   4.654   0.977
 6731TIP3    H220071   6.818   4.721   1.090
 6732TIP3   OH220072   4.196   0.509   0.976
 6732TIP3    H120073   4.147   0.588   0.999
 6732TIP3    H220074   4.285   0.526   1.005
 6733TIP3   OH220075   0.915   6.381   5.662
 6733TIP3    H120076   0.834   6.360   5.615
 6733TIP3    H220077   0.886   6.430   5.739
 6734TIP3   OH220078   7.667   7.739   5.845
 6734TIP3    H120079   7.619   7.793   5.908
 6734TIP3    H220080   7.708   7.671   5.897
 6735TIP3   OH220081   8.044   1.527   4.683
 6735TIP3    H120082   7.952   1.517   4.659
 6735TIP3    H220083   8.081   1.439   4.672
 6736TIP3   OH220084   0.406   6.238   2.372
 6736TIP3    H120085   0.412   6.323   2.329
 6736TIP3    H220086   0.494   6.201   2.366
 6737TIP3   OH220087   2.809   0.343   1.464
 6737TIP3    H120088   2.717   0.349   1.440
 6737TIP3    H220089   2.809   0.346   1.560
 6738TIP3   OH220090   4.054   6.105   0.816
 6738TIP3    H120091   4.099   6.153   0.747
 6738TIP3    H220092   3.965   6.094   0.783
 6739TIP3   OH220093   0.010   7.995   0.944
 6739TIP3    H120094  -0.001   8.065   0.880
 6739TIP3    H220095  -0.053   7.928   0.919
 6740TIP3   OH220096   2.220   7.014   6.575
 6740TIP3    H120097   2.220   7.107   6.552
 6740TIP3    H220098   2.294   7.005   6.634
 6741TIP3   OH220099   2.091   8.064   3.145
 6741TIP3    H120100   2.105   8.067   3.050
 6741TIP3    H220101   2.077   8.155   3.170
 6742TIP3   OH220102   0.929   5.467   7.767
 6742TIP3    H120103   0.928   5.378   7.804
 6742TIP3    H220104   1.016   5.475   7.728
 6743TIP3   OH220105   3.737   5.955   2.778
 6743TIP3    H120106   3.684   6.034   2.768
 6743TIP3    H220107   3.825   5.987   2.795
 6744TIP3   OH220108   6.581   8.892   2.731
 6744TIP3    H120109   6.636   8.871   2.806
 6744TIP3    H220110   6.641   8.927   2.666
 6745TIP3   OH220111   3.372   1.815   3.975
 6745TIP3    H120112   3.329   1.836   4.058
 6745TIP3    H220113   3.388   1.900   3.934
 6746TIP3   OH220114   3.441   1.404   5.035
 6746TIP3    H120115   3.442   1.354   4.953
 6746TIP3    H220116   3.455   1.495   5.007
 6747TIP3   OH220117   6.087   4.958   0.966
 6747TIP3    H120118   6.066   4.912   0.885
 6747TIP3    H220119   6.095   4.889   1.032
 6748TIP3   OH220120   5.324   5.969   6.132
 6748TIP3    H120121   5.311   5.884   6.174
 6748TIP3    H220122   5.397   5.956   6.073
 6749TIP3   OH220123   0.627   4.925   2.418
 6749TIP3    H120124   0.605   4.897   2.507
 6749TIP3    H220125   0.571   5.000   2.401
 6750TIP3   OH220126   8.772   7.286   2.944
 6750TIP3    H120127   8.777   7.201   2.900
 6750TIP3    H220128   8.860   7.302   2.976
 6751TIP3   OH220129   1.706   5.154   1.254
 6751TIP3    H120130   1.630   5.211   1.243
 6751TIP3    H220131   1.678   5.070   1.218
 6752TIP3   OH220132   3.700   8.863   7.206
 6752TIP3    H120133   3.698   8.883   7.112
 6752TIP3    H220134   3.792   8.878   7.231
 6753TIP3   OH220135   0.606   3.428   3.493
 6753TIP3    H120136   0.530   3.370   3.491
 6753TIP3    H220137   0.680   3.372   3.468
 6754TIP3   OH220138   3.933   8.249   5.960
 6754TIP3    H120139   3.936   8.170   6.014
 6754TIP3    H220140   3.933   8.216   5.870
 6755TIP3   OH220141   4.136   6.008   4.406
 6755TIP3    H120142   4.228   6.002   4.430
 6755TIP3    H220143   4.089   5.978   4.484
 6756TIP3   OH220144   4.477   1.785   0.770
 6756TIP3    H120145   4.560   1.820   0.804
 6756TIP3    H220146   4.462   1.706   0.821
 6757TIP3   OH220147   3.392   6.219   5.155
 6757TIP3    H120148   3.335   6.263   5.218
 6757TIP3    H220149   3.334   6.158   5.109
 6758TIP3   OH220150   0.331   4.533   4.532
 6758TIP3    H120151   0.258   4.579   4.490
 6758TIP3    H220152   0.300   4.443   4.541
 6759TIP3   OH220153   7.163   5.373   5.660
 6759TIP3    H120154   7.228   5.342   5.597
 6759TIP3    H220155   7.101   5.424   5.608
 6760TIP3   OH220156   3.060   3.464   6.846
 6760TIP3    H120157   3.101   3.378   6.844
 6760TIP3    H220158   2.966   3.447   6.842
 6761TIP3   OH220159   6.255   0.439   1.885
 6761TIP3    H120160   6.263   0.409   1.976
 6761TIP3    H220161   6.176   0.396   1.852
 6762TIP3   OH220162   6.498   5.964   3.822
 6762TIP3    H120163   6.544   5.883   3.847
 6762TIP3    H220164   6.456   5.943   3.739
 6763TIP3   OH220165   4.720   6.743   5.548
 6763TIP3    H120166   4.771   6.722   5.469
 6763TIP3    H220167   4.642   6.689   5.540
 6764TIP3   OH220168   1.282   5.000   4.503
 6764TIP3    H120169   1.370   5.003   4.466
 6764TIP3    H220170   1.296   4.985   4.597
 6765TIP3   OH220171   0.451   7.915   1.509
 6765TIP3    H120172   0.374   7.910   1.452
 6765TIP3    H220173   0.426   7.868   1.588
 6766TIP3   OH220174   3.280   7.517   4.209
 6766TIP3    H120175   3.365   7.493   4.172
 6766TIP3    H220176   3.221   7.522   4.134
 6767TIP3   OH220177   4.036   5.678   4.559
 6767TIP3    H120178   4.093   5.634   4.496
 6767TIP3    H220179   4.095   5.703   4.631
 6768TIP3   OH220180   8.013   7.183   3.495
 6768TIP3    H120181   8.068   7.166   3.418
 6768TIP3    H220182   8.066   7.155   3.569
 6769TIP3   OH220183   8.585   4.431   1.085
 6769TIP3    H120184   8.646   4.404   1.017
 6769TIP3    H220185   8.528   4.495   1.042
 6770TIP3   OH220186   3.978   8.685   7.321
 6770TIP3    H120187   4.031   8.765   7.321
 6770TIP3    H220188   3.901   8.708   7.373
 6771TIP3   OH220189   0.927   7.883   7.763
 6771TIP3    H120190   0.959   7.940   7.833
 6771TIP3    H220191   0.966   7.920   7.683
 6772TIP3   OH220192   2.264   3.997   5.965
 6772TIP3    H120193   2.174   3.970   5.985
 6772TIP3    H220194   2.277   3.969   5.874
 6773TIP3   OH220195   6.757   4.483   0.614
 6773TIP3    H120196   6.704   4.469   0.535
 6773TIP3    H220197   6.831   4.423   0.604
 6774TIP3   OH220198   3.831   3.995   2.455
 6774TIP3    H120199   3.783   3.918   2.424
 6774TIP3    H220200   3.891   4.016   2.384
 6775TIP3   OH220201   1.847   8.116   5.611
 6775TIP3    H120202   1.767   8.065   5.623
 6775TIP3    H220203   1.834   8.162   5.528
 6776TIP3   OH220204   7.254   7.001   1.131
 6776TIP3    H120205   7.222   7.069   1.072
 6776TIP3    H220206   7.214   6.920   1.099
 6777TIP3   OH220207   1.053   5.741   7.612
 6777TIP3    H120208   0.959   5.755   7.596
 6777TIP3    H220209   1.064   5.755   7.706
 6778TIP3   OH220210   3.276   0.484   0.238
 6778TIP3    H120211   3.315   0.397   0.223
 6778TIP3    H220212   3.351   0.543   0.244
 6779TIP3   OH220213   4.370   6.609   6.517
 6779TIP3    H120214   4.464   6.619   6.532
 6779TIP3    H220215   4.364   6.569   6.430
 6780TIP3   OH220216   8.499   0.158   4.277
 6780TIP3    H120217   8.574   0.144   4.218
 6780TIP3    H220218   8.537   0.199   4.354
 6781TIP3   OH220219   6.079   4.126   0.424
 6781TIP3    H120220   6.000   4.169   0.456
 6781TIP3    H220221   6.147   4.193   0.428
 6782TIP3   OH220222   3.455   3.024   1.802
 6782TIP3    H120223   3.444   2.930   1.789
 6782TIP3    H220224   3.511   3.052   1.729
 6783TIP3   OH220225   1.719   6.332   7.431
 6783TIP3    H120226   1.667   6.315   7.353
 6783TIP3    H220227   1.789   6.390   7.401
 6784TIP3   OH220228   0.863   2.816   7.013
 6784TIP3    H120229   0.849   2.900   7.056
 6784TIP3    H220230   0.775   2.778   7.005
 6785TIP3   OH220231   6.115   2.763   3.603
 6785TIP3    H120232   6.027   2.779   3.568
 6785TIP3    H220233   6.170   2.831   3.564
 6786TIP3   OH220234   0.189   2.233   3.936
 6786TIP3    H120235   0.156   2.144   3.922
 6786TIP3    H220236   0.132   2.270   4.003
 6787TIP3   OH220237   2.227   2.516   6.900
 6787TIP3    H120238   2.256   2.579   6.834
 6787TIP3    H220239   2.148   2.554   6.937
 6788TIP3   OH220240   6.230   4.416   3.612
 6788TIP3    H120241   6.192   4.378   3.533
 6788TIP3    H220242   6.194   4.504   3.616
 6789TIP3   OH220243   0.973   1.709   0.234
 6789TIP3    H120244   0.930   1.624   0.240
 6789TIP3    H220245   0.932   1.751   0.159
 6790TIP3   OH220246   8.880   4.709   3.071
 6790TIP3    H120247   8.785   4.706   3.077
 6790TIP3    H220248   8.903   4.796   3.103
 6791TIP3   OH220249   0.838   8.984   2.327
 6791TIP3    H120250   0.774   8.950   2.389
 6791TIP3    H220251   0.823   9.078   2.325
 6792TIP3   OH220252   5.843   3.442   1.416
 6792TIP3    H120253   5.790   3.416   1.491
 6792TIP3    H220254   5.903   3.508   1.451
 6793TIP3   OH220255   6.750   6.735   0.110
 6793TIP3    H120256   6.692   6.812   0.110
 6793TIP3    H220257   6.824   6.761   0.055
 6794TIP3   OH220258   6.779   8.926   2.511
 6794TIP3    H120259   6.724   8.943   2.434
 6794TIP3    H220260   6.815   8.839   2.496
 6795TIP3   OH220261   8.619   2.770   2.850
 6795TIP3    H120262   8.643   2.778   2.942
 6795TIP3    H220263   8.702   2.770   2.802
 6796TIP3   OH220264   5.893   1.804   3.726
 6796TIP3    H120265   5.832   1.845   3.787
 6796TIP3    H220266   5.837   1.755   3.666
 6797TIP3   OH220267   3.355   1.106   6.316
 6797TIP3    H120268   3.379   1.040   6.381
 6797TIP3    H220269   3.419   1.095   6.246
 6798TIP3   OH220270   0.572   4.450   2.966
 6798TIP3    H120271   0.645   4.429   2.908
 6798TIP3    H220272   0.602   4.529   3.013
 6799TIP3   OH220273   7.683   5.931   5.950
 6799TIP3    H120274   7.698   5.883   5.869
 6799TIP3    H220275   7.614   5.882   5.995
 6800TIP3   OH220276   2.652   2.943   3.592
 6800TIP3    H120277   2.558   2.928   3.578
 6800TIP3    H220278   2.682   2.986   3.512
 6801TIP3   OH220279   6.912   3.834   2.878
 6801TIP3    H120280   6.844   3.897   2.902
 6801TIP3    H220281   6.876   3.749   2.905
 6802TIP3   OH220282   6.644   5.404   2.830
 6802TIP3    H120283   6.635   5.317   2.869
 6802TIP3    H220284   6.582   5.459   2.878
 6803TIP3   OH220285   0.023   5.825   2.969
 6803TIP3    H120286  -0.067   5.832   3.001
 6803TIP3    H220287   0.039   5.908   2.924
 6804TIP3   OH220288   1.098   4.497   4.908
 6804TIP3    H120289   1.113   4.553   4.984
 6804TIP3    H220290   1.012   4.523   4.876
 6805TIP3   OH220291   5.350   4.176   2.821
 6805TIP3    H120292   5.437   4.152   2.788
 6805TIP3    H220293   5.330   4.259   2.779
 6806TIP3   OH220294   7.227   4.304   3.856
 6806TIP3    H120295   7.190   4.373   3.801
 6806TIP3    H220296   7.211   4.224   3.807
 6807TIP3   OH220297   8.533   8.875   7.427
 6807TIP3    H120298   8.482   8.954   7.442
 6807TIP3    H220299   8.548   8.875   7.332
 6808TIP3   OH220300   2.435   1.494   4.930
 6808TIP3    H120301   2.386   1.498   4.848
 6808TIP3    H220302   2.509   1.436   4.911
 6809TIP3   OH220303   7.640   6.964   0.607
 6809TIP3    H120304   7.722   6.934   0.646
 6809TIP3    H220305   7.578   6.965   0.680
 6810TIP3   OH220306   1.118   7.475   4.555
 6810TIP3    H120307   1.154   7.424   4.627
 6810TIP3    H220308   1.194   7.508   4.508
 6811TIP3   OH220309   2.315   1.222   1.711
 6811TIP3    H120310   2.398   1.190   1.674
 6811TIP3    H220311   2.334   1.312   1.737
 6812TIP3   OH220312   4.687   7.045   4.571
 6812TIP3    H120313   4.630   7.087   4.506
 6812TIP3    H220314   4.629   7.026   4.645
 6813TIP3   OH220315   5.129   6.232   2.672
 6813TIP3    H120316   5.131   6.142   2.705
 6813TIP3    H220317   5.210   6.243   2.623
 6814TIP3   OH220318   3.607   0.107   4.365
 6814TIP3    H120319   3.662   0.032   4.388
 6814TIP3    H220320   3.554   0.122   4.443
 6815TIP3   OH220321   0.622   3.340   1.534
 6815TIP3    H120322   0.662   3.425   1.552
 6815TIP3    H220323   0.528   3.356   1.538
 6816TIP3   OH220324   2.199   7.197   4.138
 6816TIP3    H120325   2.164   7.228   4.054
 6816TIP3    H220326   2.133   7.222   4.203
 6817TIP3   OH220327   3.002   4.516   4.021
 6817TIP3    H120328   2.986   4.429   3.984
 6817TIP3    H220329   3.086   4.507   4.067
 6818TIP3   OH220330   3.130   8.866   1.704
 6818TIP3    H120331   3.140   8.800   1.636
 6818TIP3    H220332   3.102   8.945   1.658
 6819TIP3   OH220333   2.419   3.293   4.477
 6819TIP3    H120334   2.367   3.258   4.405
 6819TIP3    H220335   2.438   3.217   4.532
 6820TIP3   OH220336   1.220   2.592   6.109
 6820TIP3    H120337   1.214   2.588   6.014
 6820TIP3    H220338   1.309   2.623   6.126
 6821TIP3   OH220339   4.409   7.929   6.340
 6821TIP3    H120340   4.332   7.976   6.310
 6821TIP3    H220341   4.414   7.948   6.434
 6822TIP3   OH220342   0.244   7.038   5.170
 6822TIP3    H120343   0.263   7.080   5.254
 6822TIP3    H220344   0.320   6.984   5.153
 6823TIP3   OH220345   1.771   5.616   7.238
 6823TIP3    H120346   1.750   5.582   7.151
 6823TIP3    H220347   1.736   5.705   7.239
 6824TIP3   OH220348   6.389   0.969   4.855
 6824TIP3    H120349   6.401   0.875   4.838
 6824TIP3    H220350   6.444   1.013   4.791
 6825TIP3   OH220351   7.231   3.717   2.369
 6825TIP3    H120352   7.202   3.660   2.440
 6825TIP3    H220353   7.305   3.670   2.330
 6826TIP3   OH220354   5.198   8.250   6.778
 6826TIP3    H120355   5.164   8.220   6.693
 6826TIP3    H220356   5.284   8.207   6.786
 6827TIP3   OH220357   3.191   0.463   4.756
 6827TIP3    H120358   3.209   0.466   4.850
 6827TIP3    H220359   3.106   0.505   4.746
 6828TIP3   OH220360   6.856   0.266   6.492
 6828TIP3    H120361   6.908   0.194   6.455
 6828TIP3    H220362   6.836   0.322   6.416
 6829TIP3   OH220363   4.631   4.986   1.892
 6829TIP3    H120364   4.587   4.979   1.977
 6829TIP3    H220365   4.636   4.895   1.862
 6830TIP3   OH220366   5.202   8.280   5.604
 6830TIP3    H120367   5.113   8.245   5.602
 6830TIP3    H220368   5.191   8.374   5.588
 6831TIP3   OH220369   3.028   7.557   2.759
 6831TIP3    H120370   3.090   7.548   2.831
 6831TIP3    H220371   3.053   7.488   2.697
 6832TIP3   OH220372   8.407   3.068   2.282
 6832TIP3    H120373   8.458   3.017   2.345
 6832TIP3    H220374   8.464   3.078   2.206
 6833TIP3   OH220375   1.416   8.279   4.371
 6833TIP3    H120376   1.413   8.218   4.445
 6833TIP3    H220377   1.487   8.339   4.393
 6834TIP3   OH220378   7.479   1.354   4.727
 6834TIP3    H120379   7.394   1.385   4.698
 6834TIP3    H220380   7.534   1.432   4.729
 6835TIP3   OH220381   7.090   8.120   7.697
 6835TIP3    H120382   7.056   8.161   7.617
 6835TIP3    H220383   7.016   8.070   7.732
 6836TIP3   OH220384   3.650   5.828   4.241
 6836TIP3    H120385   3.619   5.905   4.193
 6836TIP3    H220386   3.707   5.863   4.309
 6837TIP3   OH220387   4.509   3.435   7.652
 6837TIP3    H120388   4.583   3.383   7.684
 6837TIP3    H220389   4.435   3.407   7.706
 6838TIP3   OH220390   6.763   4.997   0.884
 6838TIP3    H120391   6.769   4.966   0.793
 6838TIP3    H220392   6.784   4.920   0.937
 6839TIP3   OH220393   0.236   5.022   2.969
 6839TIP3    H120394   0.190   5.102   2.946
 6839TIP3    H220395   0.170   4.953   2.960
 6840TIP3   OH220396   4.493   6.700   1.890
 6840TIP3    H120397   4.402   6.679   1.911
 6840TIP3    H220398   4.489   6.740   1.803
 6841TIP3   OH220399   3.591   3.841   3.560
 6841TIP3    H120400   3.522   3.878   3.615
 6841TIP3    H220401   3.610   3.756   3.600
 6842TIP3   OH220402   7.378   4.631   1.821
 6842TIP3    H120403   7.347   4.541   1.826
 6842TIP3    H220404   7.473   4.623   1.809
 6843TIP3   OH220405   2.384   7.230   0.543
 6843TIP3    H120406   2.332   7.170   0.596
 6843TIP3    H220407   2.407   7.179   0.465
 6844TIP3   OH220408   4.481   8.380   4.197
 6844TIP3    H120409   4.387   8.380   4.215
 6844TIP3    H220410   4.488   8.415   4.108
 6845TIP3   OH220411   9.034   8.260   2.997
 6845TIP3    H120412   9.066   8.280   3.085
 6845TIP3    H220413   9.033   8.165   2.993
 6846TIP3   OH220414   2.161   4.325   3.982
 6846TIP3    H120415   2.078   4.330   4.030
 6846TIP3    H220416   2.228   4.321   4.050
 6847TIP3   OH220417   7.474   7.931   4.274
 6847TIP3    H120418   7.511   7.843   4.273
 6847TIP3    H220419   7.440   7.944   4.186
 6848TIP3   OH220420   2.538   7.381   3.266
 6848TIP3    H120421   2.474   7.315   3.239
 6848TIP3    H220422   2.623   7.337   3.258
 6849TIP3   OH220423   5.643   8.931   7.123
 6849TIP3    H120424   5.693   8.855   7.150
 6849TIP3    H220425   5.707   8.989   7.082
 6850TIP3   OH220426   8.687   6.677   3.302
 6850TIP3    H120427   8.631   6.753   3.310
 6850TIP3    H220428   8.715   6.657   3.391
 6851TIP3   OH220429   2.323   4.508   7.588
 6851TIP3    H120430   2.320   4.518   7.683
 6851TIP3    H220431   2.317   4.597   7.554
 6852TIP3   OH220432   5.885   1.479   0.460
 6852TIP3    H120433   5.858   1.390   0.437
 6852TIP3    H220434   5.857   1.532   0.385
 6853TIP3   OH220435   0.936   6.491   0.805
 6853TIP3    H120436   0.976   6.452   0.883
 6853TIP3    H220437   0.872   6.426   0.776
 6854TIP3   OH220438   6.925   4.971   4.906
 6854TIP3    H120439   6.836   4.990   4.936
 6854TIP3    H220440   6.920   4.882   4.872
 6855TIP3   OH220441   1.625   1.729   7.398
 6855TIP3    H120442   1.605   1.800   7.460
 6855TIP3    H220443   1.710   1.696   7.426
 6856TIP3   OH220444   0.112   8.532   4.126
 6856TIP3    H120445   0.079   8.473   4.058
 6856TIP3    H220446   0.171   8.591   4.080
 6857TIP3   OH220447   3.162   7.114   4.629
 6857TIP3    H120448   3.147   7.041   4.689
 6857TIP3    H220449   3.224   7.080   4.565
 6858TIP3   OH220450   3.083   7.368   4.389
 6858TIP3    H120451   3.090   7.273   4.394
 6858TIP3    H220452   3.168   7.397   4.357
 6859TIP3   OH220453   3.669   8.070   5.318
 6859TIP3    H120454   3.614   8.141   5.283
 6859TIP3    H220455   3.640   7.992   5.272
 6860TIP3   OH220456   8.781   4.186   6.863
 6860TIP3    H120457   8.870   4.211   6.841
 6860TIP3    H220458   8.764   4.230   6.947
 6861TIP3   OH220459   5.696   1.859   3.902
 6861TIP3    H120460   5.766   1.821   3.955
 6861TIP3    H220461   5.643   1.908   3.964
 6862TIP3   OH220462   8.956   3.167   3.284
 6862TIP3    H120463   9.005   3.246   3.307
 6862TIP3    H220464   8.904   3.147   3.361
 6863TIP3   OH220465   4.385   8.378   3.251
 6863TIP3    H120466   4.328   8.366   3.175
 6863TIP3    H220467   4.356   8.310   3.312
 6864TIP3   OH220468   5.972   0.903   0.418
 6864TIP3    H120469   5.938   0.840   0.481
 6864TIP3    H220470   6.046   0.944   0.463
 6865TIP3   OH220471   4.628   6.717   3.985
 6865TIP3    H120472   4.720   6.742   3.981
 6865TIP3    H220473   4.622   6.636   3.934
 6866TIP3   OH220474   6.019   3.356   0.909
 6866TIP3    H120475   5.981   3.304   0.838
 6866TIP3    H220476   6.112   3.336   0.906
 6867TIP3   OH220477   0.071   0.344   6.746
 6867TIP3    H120478   0.031   0.297   6.819
 6867TIP3    H220479   0.162   0.317   6.747
 6868TIP3   OH220480   4.453   1.780   4.428
 6868TIP3    H120481   4.512   1.751   4.358
 6868TIP3    H220482   4.369   1.739   4.408
 6869TIP3   OH220483   3.492   1.284   3.426
 6869TIP3    H120484   3.557   1.218   3.448
 6869TIP3    H220485   3.409   1.237   3.428
 6870TIP3   OH220486   4.072   1.480   4.585
 6870TIP3    H120487   4.129   1.543   4.629
 6870TIP3    H220488   4.034   1.428   4.655
 6871TIP3   OH220489   9.450   7.564   3.951
 6871TIP3    H120490   9.364   7.530   3.975
 6871TIP3    H220491   9.490   7.589   4.035
 6872TIP3   OH220492   5.786   1.667   2.108
 6872TIP3    H120493   5.861   1.713   2.071
 6872TIP3    H220494   5.810   1.575   2.105
 6873TIP3   OH220495   8.854   6.234   4.606
 6873TIP3    H120496   8.943   6.269   4.612
 6873TIP3    H220497   8.867   6.142   4.582
 6874TIP3   OH220498   0.128   7.792   5.055
 6874TIP3    H120499   0.120   7.698   5.042
 6874TIP3    H220500   0.143   7.802   5.149
 6875TIP3   OH220501   7.304   5.422   2.365
 6875TIP3    H120502   7.234   5.428   2.430
 6875TIP3    H220503   7.260   5.429   2.281
 6876TIP3   OH220504   3.013   4.335   5.403
 6876TIP3    H120505   3.019   4.310   5.495
 6876TIP3    H220506   2.985   4.255   5.358
 6877TIP3   OH220507   5.198   6.737   1.066
 6877TIP3    H120508   5.277   6.784   1.036
 6877TIP3    H220509   5.164   6.792   1.137
 6878TIP3   OH220510   8.678   7.563   0.572
 6878TIP3    H120511   8.678   7.658   0.570
 6878TIP3    H220512   8.748   7.538   0.511
 6879TIP3   OH220513   5.841   2.002   2.919
 6879TIP3    H120514   5.930   1.973   2.938
 6879TIP3    H220515   5.787   1.962   2.988
 6880TIP3   OH220516   5.165   5.840   3.447
 6880TIP3    H120517   5.209   5.760   3.476
 6880TIP3    H220518   5.195   5.907   3.507
 6881TIP3   OH220519   0.647   8.977   2.523
 6881TIP3    H120520   0.700   8.988   2.601
 6881TIP3    H220521   0.573   8.924   2.551
 6882TIP3   OH220522   7.966   4.302   3.521
 6882TIP3    H120523   7.907   4.242   3.567
 6882TIP3    H220524   7.907   4.358   3.469
 6883TIP3   OH220525   0.686   6.294   6.445
 6883TIP3    H120526   0.728   6.257   6.367
 6883TIP3    H220527   0.759   6.312   6.504
 6884TIP3   OH220528   0.043   5.215   4.575
 6884TIP3    H120529  -0.052   5.224   4.572
 6884TIP3    H220530   0.068   5.195   4.485
 6885TIP3   OH220531   5.719   6.187   5.147
 6885TIP3    H120532   5.643   6.243   5.161
 6885TIP3    H220533   5.793   6.247   5.139
 6886TIP3   OH220534   9.041   0.498   7.291
 6886TIP3    H120535   9.037   0.522   7.198
 6886TIP3    H220536   9.106   0.429   7.295
 6887TIP3   OH220537   0.960   2.754   5.853
 6887TIP3    H120538   0.931   2.758   5.944
 6887TIP3    H220539   0.983   2.844   5.830
 6888TIP3   OH220540   9.060   1.453   0.195
 6888TIP3    H120541   9.049   1.482   0.105
 6888TIP3    H220542   8.995   1.384   0.207
 6889TIP3   OH220543   9.326   7.850   1.307
 6889TIP3    H120544   9.387   7.906   1.258
 6889TIP3    H220545   9.246   7.903   1.315
 6890TIP3   OH220546   3.677   7.488   7.010
 6890TIP3    H120547   3.588   7.476   7.044
 6890TIP3    H220548   3.724   7.409   7.037
 6891TIP3   OH220549   7.313   7.703   0.147
 6891TIP3    H120550   7.274   7.622   0.114
 6891TIP3    H220551   7.308   7.695   0.243
 6892TIP3   OH220552   6.469   3.241   5.634
 6892TIP3    H120553   6.477   3.233   5.539
 6892TIP3    H220554   6.375   3.250   5.649
 6893TIP3   OH220555   3.499   4.332   6.512
 6893TIP3    H120556   3.564   4.392   6.547
 6893TIP3    H220557   3.417   4.359   6.554
 6894TIP3   OH220558   4.954   1.119   6.590
 6894TIP3    H120559   4.909   1.089   6.669
 6894TIP3    H220560   4.897   1.094   6.518
 6895TIP3   OH220561   3.682   2.797   7.445
 6895TIP3    H120562   3.609   2.852   7.474
 6895TIP3    H220563   3.699   2.825   7.355
 6896TIP3   OH220564   4.573   7.209   4.065
 6896TIP3    H120565   4.631   7.284   4.075
 6896TIP3    H220566   4.629   7.133   4.082
 6897TIP3   OH220567   5.695   4.398   1.471
 6897TIP3    H120568   5.674   4.333   1.404
 6897TIP3    H220569   5.666   4.358   1.553
 6898TIP3   OH220570   6.993   2.210   0.189
 6898TIP3    H120571   6.949   2.181   0.109
 6898TIP3    H220572   6.965   2.300   0.200
 6899TIP3   OH220573   4.822   6.968   1.457
 6899TIP3    H120574   4.805   6.905   1.527
 6899TIP3    H220575   4.761   6.943   1.388
 6900TIP3   OH220576   7.315   8.568   5.900
 6900TIP3    H120577   7.253   8.619   5.954
 6900TIP3    H220578   7.300   8.600   5.811
 6901TIP3   OH220579   5.287   7.396   4.090
 6901TIP3    H120580   5.323   7.343   4.160
 6901TIP3    H220581   5.240   7.334   4.034
 6902TIP3   OH220582   6.968   5.033   6.546
 6902TIP3    H120583   6.934   5.000   6.462
 6902TIP3    H220584   7.063   5.035   6.534
 6903TIP3   OH220585   7.476   2.700   4.166
 6903TIP3    H120586   7.444   2.616   4.131
 6903TIP3    H220587   7.488   2.684   4.259
 6904TIP3   OH220588   7.216   3.888   7.537
 6904TIP3    H120589   7.189   3.804   7.499
 6904TIP3    H220590   7.309   3.895   7.515
 6905TIP3   OH220591   1.513   0.016   0.340
 6905TIP3    H120592   1.537   0.049   0.427
 6905TIP3    H220593   1.477   0.093   0.295
 6906TIP3   OH220594   4.926   3.705   1.712
 6906TIP3    H120595   4.858   3.734   1.651
 6906TIP3    H220596   4.892   3.623   1.749
 6907TIP3   OH220597   9.379   0.486   4.345
 6907TIP3    H120598   9.316   0.551   4.314
 6907TIP3    H220599   9.373   0.490   4.441
 6908TIP3   OH220600   2.941   5.940   6.554
 6908TIP3    H120601   2.892   5.990   6.489
 6908TIP3    H220602   2.917   5.849   6.537
 6909TIP3   OH220603   8.990   7.138   6.053
 6909TIP3    H120604   8.962   7.127   6.144
 6909TIP3    H220605   9.025   7.053   6.028
 6910TIP3   OH220606   5.398   1.921   5.899
 6910TIP3    H120607   5.483   1.960   5.919
 6910TIP3    H220608   5.385   1.855   5.967
 6911TIP3   OH220609   0.793   6.730   6.924
 6911TIP3    H120610   0.705   6.704   6.952
 6911TIP3    H220611   0.850   6.698   6.994
 6912TIP3   OH220612   4.453   3.273   2.751
 6912TIP3    H120613   4.435   3.233   2.836
 6912TIP3    H220614   4.440   3.203   2.687
 6913TIP3   OH220615   8.760   2.392   0.038
 6913TIP3    H120616   8.729   2.316   0.088
 6913TIP3    H220617   8.764   2.463   0.103
 6914TIP3   OH220618   6.096   5.241   6.733
 6914TIP3    H120619   6.003   5.219   6.726
 6914TIP3    H220620   6.135   5.162   6.771
 6915TIP3   OH220621   2.037   6.925   4.460
 6915TIP3    H120622   2.017   6.967   4.376
 6915TIP3    H220623   1.988   6.976   4.524
 6916TIP3   OH220624   4.113   5.207   4.129
 6916TIP3    H120625   4.059   5.129   4.119
 6916TIP3    H220626   4.050   5.279   4.133
 6917TIP3   OH220627   5.165   1.951   4.958
 6917TIP3    H120628   5.226   1.941   5.032
 6917TIP3    H220629   5.202   1.894   4.890
 6918TIP3   OH220630   4.096   1.283   4.381
 6918TIP3    H120631   4.101   1.339   4.458
 6918TIP3    H220632   4.186   1.279   4.349
 6919TIP3   OH220633   5.583   0.426   0.232
 6919TIP3    H120634   5.567   0.476   0.152
 6919TIP3    H220635   5.665   0.461   0.266
 6920TIP3   OH220636   1.555   4.466   1.638
 6920TIP3    H120637   1.595   4.447   1.553
 6920TIP3    H220638   1.471   4.420   1.635
 6921TIP3   OH220639   4.908   2.854   6.244
 6921TIP3    H120640   4.918   2.829   6.336
 6921TIP3    H220641   4.844   2.925   6.246
 6922TIP3   OH220642   2.218   1.675   6.424
 6922TIP3    H120643   2.238   1.761   6.388
 6922TIP3    H220644   2.287   1.658   6.488
 6923TIP3   OH220645   0.476   8.294   3.875
 6923TIP3    H120646   0.445   8.376   3.915
 6923TIP3    H220647   0.570   8.308   3.863
 6924TIP3   OH220648   9.296   5.585   3.118
 6924TIP3    H120649   9.374   5.579   3.174
 6924TIP3    H220650   9.267   5.494   3.109
 6925TIP3   OH220651   4.218   5.439   0.719
 6925TIP3    H120652   4.217   5.526   0.680
 6925TIP3    H220653   4.128   5.407   0.711
 6926TIP3   OH220654   3.050   8.527   3.150
 6926TIP3    H120655   3.002   8.468   3.093
 6926TIP3    H220656   3.114   8.569   3.092
 6927TIP3   OH220657   1.965   8.633   0.340
 6927TIP3    H120658   1.982   8.579   0.417
 6927TIP3    H220659   1.870   8.647   0.341
 6928TIP3   OH220660   5.176   3.011   5.151
 6928TIP3    H120661   5.103   2.955   5.124
 6928TIP3    H220662   5.249   2.950   5.165
 6929TIP3   OH220663   9.225   1.200   4.468
 6929TIP3    H120664   9.279   1.121   4.467
 6929TIP3    H220665   9.282   1.267   4.506
 6930TIP3   OH220666   0.133   6.794   0.816
 6930TIP3    H120667   0.144   6.870   0.758
 6930TIP3    H220668   0.101   6.725   0.758
 6931TIP3   OH220669   8.978   6.646   1.778
 6931TIP3    H120670   9.060   6.598   1.790
 6931TIP3    H220671   8.950   6.622   1.689
 6932TIP3   OH220672   0.918   8.207   4.407
 6932TIP3    H120673   0.995   8.216   4.351
 6932TIP3    H220674   0.901   8.113   4.410
 6933TIP3   OH220675   7.398   8.354   2.993
 6933TIP3    H120676   7.398   8.299   2.915
 6933TIP3    H220677   7.350   8.303   3.058
 6934TIP3   OH220678   2.375   4.435   4.181
 6934TIP3    H120679   2.424   4.448   4.100
 6934TIP3    H220680   2.415   4.496   4.244
 6935TIP3   OH220681   4.589   0.218   5.142
 6935TIP3    H120682   4.530   0.264   5.201
 6935TIP3    H220683   4.652   0.285   5.115
 6936TIP3   OH220684   6.352   7.979   7.583
 6936TIP3    H120685   6.266   8.001   7.548
 6936TIP3    H220686   6.409   8.049   7.552
 6937TIP3   OH220687   3.438   2.877   0.245
 6937TIP3    H120688   3.525   2.841   0.262
 6937TIP3    H220689   3.387   2.802   0.212
 6938TIP3   OH220690   7.718   2.786   1.642
 6938TIP3    H120691   7.724   2.880   1.660
 6938TIP3    H220692   7.738   2.745   1.726
 6939TIP3   OH220693   7.717   8.302   0.972
 6939TIP3    H120694   7.689   8.221   1.016
 6939TIP3    H220695   7.813   8.296   0.969
 6940TIP3   OH220696   2.529   5.353   2.799
 6940TIP3    H120697   2.560   5.285   2.859
 6940TIP3    H220698   2.436   5.363   2.820
 6941TIP3   OH220699   3.824   1.976   7.251
 6941TIP3    H120700   3.833   1.895   7.301
 6941TIP3    H220701   3.741   2.013   7.279
 6942TIP3   OH220702   1.473   7.630   6.056
 6942TIP3    H120703   1.377   7.627   6.051
 6942TIP3    H220704   1.499   7.538   6.062
 6943TIP3   OH220705   1.350   5.620   0.358
 6943TIP3    H120706   1.402   5.673   0.419
 6943TIP3    H220707   1.380   5.531   0.373
 6944TIP3   OH220708   0.051   0.863   5.026
 6944TIP3    H120709   0.085   0.826   5.108
 6944TIP3    H220710  -0.017   0.925   5.055
 6945TIP3   OH220711   4.030   2.074   6.940
 6945TIP3    H120712   4.048   2.160   6.903
 6945TIP3    H220713   3.952   2.086   6.994
 6946TIP3   OH220714   7.583   4.453   5.226
 6946TIP3    H120715   7.670   4.487   5.207
 6946TIP3    H220716   7.577   4.456   5.322
 6947TIP3   OH220717   8.265   7.909   5.429
 6947TIP3    H120718   8.218   7.992   5.420
 6947TIP3    H220719   8.303   7.894   5.342
 6948TIP3   OH220720   6.347   5.710   5.552
 6948TIP3    H120721   6.440   5.713   5.532
 6948TIP3    H220722   6.325   5.617   5.551
 6949TIP3   OH220723   1.287   1.707   7.306
 6949TIP3    H120724   1.245   1.714   7.221
 6949TIP3    H220725   1.256   1.624   7.342
 6950TIP3   OH220726   7.246   1.444   6.334
 6950TIP3    H120727   7.301   1.520   6.350
 6950TIP3    H220728   7.300   1.387   6.279
 6951TIP3   OH220729   3.564   1.630   6.846
 6951TIP3    H120730   3.618   1.687   6.792
 6951TIP3    H220731   3.494   1.601   6.789
 6952TIP3   OH220732   4.541   5.304   1.536
 6952TIP3    H120733   4.550   5.209   1.524
 6952TIP3    H220734   4.617   5.341   1.492
 6953TIP3   OH220735   8.529   8.820   4.305
 6953TIP3    H120736   8.450   8.790   4.351
 6953TIP3    H220737   8.497   8.887   4.245
 6954TIP3   OH220738   0.251   7.291   3.752
 6954TIP3    H120739   0.197   7.271   3.675
 6954TIP3    H220740   0.201   7.357   3.800
 6955TIP3   OH220741   6.981   1.733   4.593
 6955TIP3    H120742   6.898   1.750   4.637
 6955TIP3    H220743   7.031   1.814   4.601
 6956TIP3   OH220744   2.447   0.702   2.202
 6956TIP3    H120745   2.454   0.683   2.108
 6956TIP3    H220746   2.396   0.629   2.237
 6957TIP3   OH220747   9.126   4.235   7.726
 6957TIP3    H120748   9.046   4.184   7.713
 6957TIP3    H220749   9.162   4.204   7.809
 6958TIP3   OH220750   3.844   7.045   4.001
 6958TIP3    H120751   3.768   7.087   4.042
 6958TIP3    H220752   3.842   7.076   3.911
 6959TIP3   OH220753   5.612   4.510   0.098
 6959TIP3    H120754   5.573   4.424   0.113
 6959TIP3    H220755   5.594   4.528   0.006
 6960TIP3   OH220756   2.383   8.858   4.721
 6960TIP3    H120757   2.409   8.769   4.700
 6960TIP3    H220758   2.324   8.883   4.649
 6961TIP3   OH220759   6.976   4.777   1.933
 6961TIP3    H120760   6.966   4.777   2.029
 6961TIP3    H220761   7.069   4.788   1.919
 6962TIP3   OH220762   6.813   0.355   1.532
 6962TIP3    H120763   6.723   0.361   1.563
 6962TIP3    H220764   6.820   0.266   1.497
 6963TIP3   OH220765   8.927   5.979   6.397
 6963TIP3    H120766   8.885   6.061   6.423
 6963TIP3    H220767   9.021   6.000   6.394
 6964TIP3   OH220768   4.928   7.269   1.771
 6964TIP3    H120769   4.947   7.363   1.768
 6964TIP3    H220770   4.983   7.235   1.842
 6965TIP3   OH220771   9.335   5.246   4.626
 6965TIP3    H120772   9.336   5.193   4.705
 6965TIP3    H220773   9.242   5.252   4.603
 6966TIP3   OH220774   0.289   1.868   2.758
 6966TIP3    H120775   0.209   1.830   2.723
 6966TIP3    H220776   0.263   1.904   2.843
 6967TIP3   OH220777   4.071   4.815   1.457
 6967TIP3    H120778   4.042   4.827   1.547
 6967TIP3    H220779   4.160   4.779   1.465
 6968TIP3   OH220780   2.247   3.926   5.510
 6968TIP3    H120781   2.205   4.003   5.547
 6968TIP3    H220782   2.282   3.956   5.426
 6969TIP3   OH220783   3.642   7.058   1.856
 6969TIP3    H120784   3.554   7.070   1.893
 6969TIP3    H220785   3.688   7.138   1.879
 6970TIP3   OH220786   8.175   3.422   1.232
 6970TIP3    H120787   8.200   3.407   1.323
 6970TIP3    H220788   8.204   3.511   1.214
 6971TIP3   OH220789   7.922   1.690   7.516
 6971TIP3    H120790   7.878   1.607   7.533
 6971TIP3    H220791   8.013   1.675   7.540
 6972TIP3   OH220792   5.910   2.978   0.454
 6972TIP3    H120793   5.878   2.973   0.544
 6972TIP3    H220794   5.929   2.887   0.430
 6973TIP3   OH220795   4.619   1.059   5.762
 6973TIP3    H120796   4.634   0.965   5.756
 6973TIP3    H220797   4.541   1.075   5.710
 6974TIP3   OH220798   7.471   3.417   6.348
 6974TIP3    H120799   7.466   3.511   6.331
 6974TIP3    H220800   7.389   3.396   6.394
 6975TIP3   OH220801   4.324   7.262   2.318
 6975TIP3    H120802   4.417   7.246   2.336
 6975TIP3    H220803   4.278   7.200   2.374
 6976TIP3   OH220804   7.714   6.874   2.185
 6976TIP3    H120805   7.781   6.850   2.248
 6976TIP3    H220806   7.667   6.947   2.226
 6977TIP3   OH220807   8.367   0.222   4.030
 6977TIP3    H120808   8.297   0.157   4.043
 6977TIP3    H220809   8.418   0.218   4.111
 6978TIP3   OH220810   3.765   5.629   5.415
 6978TIP3    H120811   3.829   5.599   5.480
 6978TIP3    H220812   3.814   5.690   5.359
 6979TIP3   OH220813   8.464   7.296   1.871
 6979TIP3    H120814   8.538   7.245   1.904
 6979TIP3    H220815   8.406   7.306   1.946
 6980TIP3   OH220816   8.479   8.826   1.317
 6980TIP3    H120817   8.517   8.738   1.320
 6980TIP3    H220818   8.528   8.875   1.383
 6981TIP3   OH220819   8.462   5.942   7.663
 6981TIP3    H120820   8.461   5.866   7.722
 6981TIP3    H220821   8.554   5.958   7.645
 6982TIP3   OH220822   4.782   1.558   5.704
 6982TIP3    H120823   4.773   1.551   5.799
 6982TIP3    H220824   4.858   1.615   5.692
 6983TIP3   OH220825   1.691   2.577   6.684
 6983TIP3    H120826   1.636   2.512   6.639
 6983TIP3    H220827   1.735   2.527   6.752
 6984TIP3   OH220828   8.112   0.385   5.854
 6984TIP3    H120829   8.114   0.445   5.928
 6984TIP3    H220830   8.163   0.310   5.883
 6985TIP3   OH220831   8.539   7.172   5.935
 6985TIP3    H120832   8.600   7.098   5.930
 6985TIP3    H220833   8.536   7.194   6.028
 6986TIP3   OH220834   1.381   1.612   2.005
 6986TIP3    H120835   1.327   1.686   2.035
 6986TIP3    H220836   1.469   1.649   1.997
 6987TIP3   OH220837   0.013   3.254   1.476
 6987TIP3    H120838   0.038   3.250   1.569
 6987TIP3    H220839  -0.082   3.242   1.476
 6988TIP3   OH220840   7.497   2.042   2.883
 6988TIP3    H120841   7.577   2.083   2.850
 6988TIP3    H220842   7.526   1.957   2.917
 6989TIP3   OH220843   8.397   6.608   2.749
 6989TIP3    H120844   8.365   6.686   2.793
 6989TIP3    H220845   8.385   6.626   2.656
 6990TIP3   OH220846   0.619   7.111   5.569
 6990TIP3    H120847   0.566   7.172   5.621
 6990TIP3    H220848   0.686   7.081   5.630
 6991TIP3   OH220849   8.756   4.698   2.615
 6991TIP3    H120850   8.763   4.607   2.586
 6991TIP3    H220851   8.832   4.711   2.671
 6992TIP3   OH220852   0.160   5.503   7.001
 6992TIP3    H120853   0.121   5.416   7.008
 6992TIP3    H220854   0.094   5.563   7.036
 6993TIP3   OH220855   0.653   6.540   0.463
 6993TIP3    H120856   0.642   6.632   0.487
 6993TIP3    H220857   0.747   6.532   0.443
 6994TIP3   OH220858   2.460   4.337   4.966
 6994TIP3    H120859   2.389   4.365   4.909
 6994TIP3    H220860   2.517   4.414   4.974
 6995TIP3   OH220861   7.871   5.262   4.719
 6995TIP3    H120862   7.864   5.215   4.635
 6995TIP3    H220863   7.797   5.324   4.718
 6996TIP3   OH220864   3.272   4.322   1.251
 6996TIP3    H120865   3.218   4.284   1.321
 6996TIP3    H220866   3.350   4.354   1.296
 6997TIP3   OH220867   5.258   7.744   3.498
 6997TIP3    H120868   5.268   7.652   3.523
 6997TIP3    H220869   5.272   7.745   3.404
 6998TIP3   OH220870   0.376   2.798   2.953
 6998TIP3    H120871   0.351   2.887   2.974
 6998TIP3    H220872   0.373   2.794   2.857
 6999TIP3   OH220873   5.971   4.419   1.298
 6999TIP3    H120874   5.976   4.326   1.320
 6999TIP3    H220875   5.882   4.444   1.321
 7000TIP3   OH220876   0.839   4.758   4.236
 7000TIP3    H120877   0.913   4.793   4.284
 7000TIP3    H220878   0.770   4.823   4.246
 7001TIP3   OH220879   6.632   4.396   2.667
 7001TIP3    H120880   6.712   4.377   2.717
 7001TIP3    H220881   6.561   4.371   2.726
 7002TIP3   OH220882   0.178   1.369   2.461
 7002TIP3    H120883   0.175   1.398   2.370
 7002TIP3    H220884   0.265   1.329   2.471
 7003TIP3   OH220885   6.388   4.091   6.446
 7003TIP3    H120886   6.324   4.161   6.458
 7003TIP3    H220887   6.452   4.105   6.517
 7004TIP3   OH220888   7.220   1.554   1.258
 7004TIP3    H120889   7.280   1.527   1.188
 7004TIP3    H220890   7.208   1.648   1.244
 7005TIP3   OH220891   2.443   3.827   0.722
 7005TIP3    H120892   2.464   3.832   0.629
 7005TIP3    H220893   2.372   3.763   0.728
 7006TIP3   OH220894   8.576   4.365   4.919
 7006TIP3    H120895   8.520   4.311   4.975
 7006TIP3    H220896   8.536   4.359   4.832
 7007TIP3   OH220897   7.028   0.519   0.831
 7007TIP3    H120898   6.938   0.509   0.861
 7007TIP3    H220899   7.079   0.465   0.891
 7008TIP3   OH220900   3.016   5.458   6.484
 7008TIP3    H120901   2.990   5.372   6.451
 7008TIP3    H220902   3.036   5.444   6.576
 7009TIP3   OH220903   5.875   7.046   0.796
 7009TIP3    H120904   5.866   7.137   0.826
 7009TIP3    H220905   5.887   7.053   0.701
 7010TIP3   OH220906   2.600   0.667   3.368
 7010TIP3    H120907   2.530   0.608   3.338
 7010TIP3    H220908   2.553   0.742   3.405
 7011TIP3   OH220909   4.464   8.905   4.693
 7011TIP3    H120910   4.551   8.940   4.712
 7011TIP3    H220911   4.408   8.983   4.686
 7012TIP3   OH220912   2.553   8.815   5.323
 7012TIP3    H120913   2.637   8.814   5.370
 7012TIP3    H220914   2.488   8.831   5.391
 7013TIP3   OH220915   2.111   4.541   6.374
 7013TIP3    H120916   2.035   4.484   6.366
 7013TIP3    H220917   2.169   4.495   6.435
 7014TIP3   OH220918   8.532   4.400   1.783
 7014TIP3    H120919   8.463   4.334   1.780
 7014TIP3    H220920   8.555   4.406   1.876
 7015TIP3   OH220921   1.805   8.638   5.149
 7015TIP3    H120922   1.853   8.587   5.214
 7015TIP3    H220923   1.770   8.713   5.198
 7016TIP3   OH220924   0.632   0.733   5.710
 7016TIP3    H120925   0.548   0.722   5.755
 7016TIP3    H220926   0.697   0.723   5.779
 7017TIP3   OH220927   6.551   4.758   1.784
 7017TIP3    H120928   6.478   4.805   1.745
 7017TIP3    H220929   6.513   4.715   1.861
 7018TIP3   OH220930   2.692   3.921   5.434
 7018TIP3    H120931   2.626   3.981   5.401
 7018TIP3    H220932   2.673   3.914   5.528
 7019TIP3   OH220933   5.791   7.490   4.506
 7019TIP3    H120934   5.698   7.481   4.528
 7019TIP3    H220935   5.794   7.565   4.448
 7020TIP3   OH220936   8.501   8.114   3.845
 7020TIP3    H120937   8.554   8.035   3.834
 7020TIP3    H220938   8.533   8.174   3.778
 7021TIP3   OH220939   8.695   7.640   0.841
 7021TIP3    H120940   8.668   7.603   0.757
 7021TIP3    H220941   8.613   7.660   0.886
 7022TIP3   OH220942   2.636   4.290   2.166
 7022TIP3    H120943   2.637   4.377   2.126
 7022TIP3    H220944   2.728   4.266   2.174
 7023TIP3   OH220945   2.022   2.184   0.912
 7023TIP3    H120946   1.986   2.268   0.939
 7023TIP3    H220947   2.055   2.200   0.823
 7024TIP3   OH220948   8.275   8.802   5.853
 7024TIP3    H120949   8.317   8.740   5.913
 7024TIP3    H220950   8.301   8.888   5.886
 7025TIP3   OH220951   3.015   0.496   1.423
 7025TIP3    H120952   2.934   0.446   1.420
 7025TIP3    H220953   3.057   0.481   1.338
 7026TIP3   OH220954   9.560   8.154   0.270
 7026TIP3    H120955   9.481   8.186   0.314
 7026TIP3    H220956   9.633   8.193   0.318
 7027TIP3   OH220957   1.908   1.963   7.605
 7027TIP3    H120958   1.824   1.952   7.562
 7027TIP3    H220959   1.932   2.054   7.588
 7028TIP3   OH220960   6.492   0.620   4.394
 7028TIP3    H120961   6.491   0.555   4.465
 7028TIP3    H220962   6.405   0.614   4.355
 7029TIP3   OH220963   7.757   5.294   1.902
 7029TIP3    H120964   7.684   5.322   1.845
 7029TIP3    H220965   7.815   5.246   1.844
 7030TIP3   OH220966   8.939   7.482   3.335
 7030TIP3    H120967   8.871   7.486   3.403
 7030TIP3    H220968   8.958   7.389   3.327
 7031TIP3   OH220969   5.206   3.315   2.502
 7031TIP3    H120970   5.114   3.302   2.482
 7031TIP3    H220971   5.232   3.390   2.448
 7032TIP3   OH220972   4.627   2.220   5.259
 7032TIP3    H120973   4.615   2.145   5.317
 7032TIP3    H220974   4.590   2.294   5.307
 7033TIP3   OH220975   7.372   4.460   6.401
 7033TIP3    H120976   7.276   4.451   6.403
 7033TIP3    H220977   7.388   4.531   6.339
 7034TIP3   OH220978   9.427   4.353   4.832
 7034TIP3    H120979   9.413   4.379   4.923
 7034TIP3    H220980   9.354   4.391   4.784
 7035TIP3   OH220981   9.132   1.853   1.419
 7035TIP3    H120982   9.213   1.903   1.428
 7035TIP3    H220983   9.080   1.878   1.495
 7036TIP3   OH220984   1.605   7.495   3.703
 7036TIP3    H120985   1.680   7.447   3.669
 7036TIP3    H220986   1.529   7.442   3.679
 7037TIP3   OH220987   4.659   7.453   7.200
 7037TIP3    H120988   4.673   7.548   7.201
 7037TIP3    H220989   4.579   7.440   7.250
 7038TIP3   OH220990   1.687   8.604   7.762
 7038TIP3    H120991   1.664   8.630   7.851
 7038TIP3    H220992   1.652   8.674   7.707
 7039TIP3   OH220993   5.080   5.969   7.775
 7039TIP3    H120994   5.147   5.903   7.793
 7039TIP3    H220995   5.057   5.956   7.683
 7040TIP3   OH220996   2.814   1.204   3.350
 7040TIP3    H120997   2.772   1.147   3.286
 7040TIP3    H220998   2.793   1.293   3.322
 7041TIP3   OH220999   0.482   6.264   0.095
 7041TIP3    H121000   0.469   6.319   0.172
 7041TIP3    H221001   0.435   6.183   0.116
 7042TIP3   OH221002   1.313   3.753   5.432
 7042TIP3    H121003   1.350   3.698   5.501
 7042TIP3    H221004   1.349   3.840   5.448
 7043TIP3   OH221005   6.431   8.526   5.167
 7043TIP3    H121006   6.383   8.444   5.181
 7043TIP3    H221007   6.519   8.499   5.143
 7044TIP3   OH221008   9.309   0.327   0.020
 7044TIP3    H121009   9.381   0.333  -0.044
 7044TIP3    H221010   9.351   0.338   0.105
 7045TIP3   OH221011   3.092   2.665   7.455
 7045TIP3    H121012   3.086   2.673   7.360
 7045TIP3    H221013   3.179   2.629   7.470
 7046TIP3   OH221014   0.629   5.442   4.784
 7046TIP3    H121015   0.709   5.420   4.831
 7046TIP3    H221016   0.606   5.361   4.738
 7047TIP3   OH221017   2.273   4.232   7.552
 7047TIP3    H121018   2.312   4.226   7.465
 7047TIP3    H221019   2.250   4.325   7.561
 7048TIP3   OH221020   5.597   1.958   5.212
 7048TIP3    H121021   5.657   2.020   5.253
 7048TIP3    H221022   5.654   1.894   5.170
 7049TIP3   OH221023   4.070   5.380   3.745
 7049TIP3    H121024   4.078   5.284   3.748
 7049TIP3    H221025   4.122   5.411   3.819
 7050TIP3   OH221026   5.241   0.544   2.038
 7050TIP3    H121027   5.320   0.595   2.054
 7050TIP3    H221028   5.198   0.538   2.123
 7051TIP3   OH221029   2.601   1.945   0.843
 7051TIP3    H121030   2.553   1.993   0.775
 7051TIP3    H221031   2.617   1.859   0.804
 7052TIP3   OH221032   2.110   2.971   3.553
 7052TIP3    H121033   2.030   2.970   3.500
 7052TIP3    H221034   2.109   2.886   3.597
 7053TIP3   OH221035   6.746   5.357   3.658
 7053TIP3    H121036   6.654   5.364   3.634
 7053TIP3    H221037   6.746   5.354   3.754
 7054TIP3   OH221038   5.605   2.211   3.410
 7054TIP3    H121039   5.553   2.213   3.330
 7054TIP3    H221040   5.665   2.137   3.398
 7055TIP3   OH221041   2.820   2.044   5.275
 7055TIP3    H121042   2.798   1.957   5.240
 7055TIP3    H221043   2.876   2.026   5.350
 7056TIP3   OH221044   2.111   5.142   2.738
 7056TIP3    H121045   2.132   5.049   2.738
 7056TIP3    H221046   2.030   5.148   2.688
 7057TIP3   OH221047   7.109   7.811   1.735
 7057TIP3    H121048   7.071   7.784   1.651
 7057TIP3    H221049   7.174   7.744   1.755
 7058TIP3   OH221050   3.345   3.553   1.252
 7058TIP3    H121051   3.381   3.624   1.199
 7058TIP3    H221052   3.253   3.549   1.227
 7059TIP3   OH221053   0.477   4.391   2.395
 7059TIP3    H121054   0.411   4.422   2.457
 7059TIP3    H221055   0.521   4.320   2.442
 7060TIP3   OH221056   2.492   2.514   4.036
 7060TIP3    H121057   2.453   2.430   4.013
 7060TIP3    H221058   2.433   2.579   3.999
 7061TIP3   OH221059   6.526   2.467   4.957
 7061TIP3    H121060   6.497   2.490   5.045
 7061TIP3    H221061   6.449   2.429   4.915
 7062TIP3   OH221062   7.363   4.393   6.947
 7062TIP3    H121063   7.436   4.380   7.007
 7062TIP3    H221064   7.404   4.425   6.866
 7063TIP3   OH221065   5.503   2.233   5.610
 7063TIP3    H121066   5.490   2.321   5.647
 7063TIP3    H221067   5.524   2.178   5.686
 7064TIP3   OH221068   7.721   2.118   3.491
 7064TIP3    H121069   7.651   2.131   3.427
 7064TIP3    H221070   7.788   2.068   3.444
 7065TIP3   OH221071   1.146   2.104   3.362
 7065TIP3    H121072   1.200   2.098   3.283
 7065TIP3    H221073   1.059   2.125   3.330
 7066TIP3   OH221074   6.704   4.688   6.906
 7066TIP3    H121075   6.789   4.730   6.923
 7066TIP3    H221076   6.702   4.674   6.811
 7067TIP3   OH221077   3.754   5.875   6.648
 7067TIP3    H121078   3.770   5.782   6.662
 7067TIP3    H221079   3.837   5.909   6.614
 7068TIP3   OH221080   4.422   6.662   7.175
 7068TIP3    H121081   4.506   6.706   7.186
 7068TIP3    H221082   4.437   6.598   7.106
 7069TIP3   OH221083   4.751   1.491   4.293
 7069TIP3    H121084   4.671   1.487   4.345
 7069TIP3    H221085   4.821   1.502   4.357
 7070TIP3   OH221086   3.180   2.277   4.817
 7070TIP3    H121087   3.175   2.359   4.768
 7070TIP3    H221088   3.196   2.304   4.908
 7071TIP3   OH221089   6.179   2.995   6.724
 7071TIP3    H121090   6.189   2.985   6.818
 7071TIP3    H221091   6.236   2.928   6.686
 7072TIP3   OH221092   5.708   1.455   5.104
 7072TIP3    H121093   5.615   1.434   5.108
 7072TIP3    H221094   5.741   1.433   5.192
 7073TIP3   OH221095   4.058   3.118   3.000
 7073TIP3    H121096   4.071   3.049   2.935
 7073TIP3    H221097   4.082   3.198   2.954
 7074TIP3   OH221098   0.466   7.915   3.152
 7074TIP3    H121099   0.462   7.819   3.149
 7074TIP3    H221100   0.539   7.934   3.210
 7075TIP3   OH221101   3.413   6.327   3.878
 7075TIP3    H121102   3.418   6.369   3.964
 7075TIP3    H221103   3.503   6.329   3.846
 7076TIP3   OH221104   1.651   6.363   3.015
 7076TIP3    H121105   1.685   6.406   2.937
 7076TIP3    H221106   1.639   6.271   2.988
 7077TIP3   OH221107   9.412   0.380   0.992
 7077TIP3    H121108   9.366   0.301   1.018
 7077TIP3    H221109   9.434   0.424   1.074
 7078TIP3   OH221110   8.790   1.088   7.458
 7078TIP3    H121111   8.749   1.010   7.422
 7078TIP3    H221112   8.752   1.161   7.409
 7079TIP3   OH221113   8.485   0.247   6.642
 7079TIP3    H121114   8.391   0.256   6.654
 7079TIP3    H221115   8.520   0.333   6.664
 7080TIP3   OH221116   5.865   1.034   3.390
 7080TIP3    H121117   5.860   1.079   3.474
 7080TIP3    H221118   5.804   0.960   3.399
 7081TIP3   OH221119   9.483   3.132   3.099
 7081TIP3    H121120   9.389   3.120   3.115
 7081TIP3    H221121   9.490   3.141   3.004
 7082TIP3   OH221122   8.057   5.505   3.960
 7082TIP3    H121123   8.146   5.538   3.954
 7082TIP3    H221124   8.066   5.409   3.955
 7083TIP3   OH221125   5.513   2.661   4.192
 7083TIP3    H121126   5.476   2.586   4.238
 7083TIP3    H221127   5.594   2.627   4.153
 7084TIP3   OH221128   1.009   4.748   6.007
 7084TIP3    H121129   1.072   4.677   6.013
 7084TIP3    H221130   1.025   4.801   6.085
 7085TIP3   OH221131   1.985   6.237   7.488
 7085TIP3    H121132   1.949   6.199   7.408
 7085TIP3    H221133   2.033   6.165   7.529
 7086TIP3   OH221134   3.166   4.240   3.222
 7086TIP3    H121135   3.157   4.153   3.184
 7086TIP3    H221136   3.113   4.238   3.301
 7087TIP3   OH221137   9.077   7.108   1.000
 7087TIP3    H121138   9.090   7.050   1.075
 7087TIP3    H221139   9.047   7.190   1.038
 7088TIP3   OH221140   2.297   5.460   1.542
 7088TIP3    H121141   2.354   5.390   1.574
 7088TIP3    H221142   2.333   5.540   1.580
 7089TIP3   OH221143   3.869   5.860   3.110
 7089TIP3    H121144   3.897   5.782   3.158
 7089TIP3    H221145   3.775   5.864   3.123
 7090TIP3   OH221146   2.397   2.565   1.175
 7090TIP3    H121147   2.427   2.476   1.196
 7090TIP3    H221148   2.477   2.613   1.157
 7091TIP3   OH221149   1.104   5.145   5.595
 7091TIP3    H121150   1.040   5.203   5.553
 7091TIP3    H221151   1.051   5.074   5.633
 7092TIP3   OH221152   9.362   5.546   0.420
 7092TIP3    H121153   9.385   5.620   0.364
 7092TIP3    H221154   9.267   5.538   0.412
 7093TIP3   OH221155   3.945   7.861   2.221
 7093TIP3    H121156   3.933   7.769   2.198
 7093TIP3    H221157   4.038   7.878   2.203
 7094TIP3   OH221158   4.542   1.956   0.555
 7094TIP3    H121159   4.466   1.961   0.496
 7094TIP3    H221160   4.507   1.920   0.636
 7095TIP3   OH221161   6.781   8.346   3.962
 7095TIP3    H121162   6.828   8.350   3.879
 7095TIP3    H221163   6.755   8.254   3.971
 7096TIP3   OH221164   8.387   5.260   5.034
 7096TIP3    H121165   8.358   5.171   5.054
 7096TIP3    H221166   8.376   5.307   5.117
 7097TIP3   OH221167   2.403   3.511   2.500
 7097TIP3    H121168   2.497   3.528   2.496
 7097TIP3    H221169   2.392   3.458   2.578
 7098TIP3   OH221170   4.622   6.102   7.352
 7098TIP3    H121171   4.615   6.095   7.257
 7098TIP3    H221172   4.532   6.090   7.383
 7099TIP3   OH221173   5.817   6.230   7.545
 7099TIP3    H121174   5.773   6.269   7.620
 7099TIP3    H221175   5.834   6.140   7.571
 7100TIP3   OH221176   0.305   5.091   4.044
 7100TIP3    H121177   0.301   5.085   4.140
 7100TIP3    H221178   0.245   5.162   4.022
 7101TIP3   OH221179   2.891   7.610   3.534
 7101TIP3    H121180   2.954   7.540   3.552
 7101TIP3    H221181   2.945   7.688   3.522
 7102TIP3   OH221182   1.761   2.754   6.134
 7102TIP3    H121183   1.852   2.725   6.124
 7102TIP3    H221184   1.710   2.673   6.134
 7103TIP3   OH221185   2.302   5.839   7.585
 7103TIP3    H121186   2.337   5.883   7.662
 7103TIP3    H221187   2.209   5.861   7.585
 7104TIP3   OH221188   8.858   4.798   6.045
 7104TIP3    H121189   8.945   4.802   6.005
 7104TIP3    H221190   8.873   4.761   6.132
 7105TIP3   OH221191   6.441   3.745   1.565
 7105TIP3    H121192   6.457   3.693   1.644
 7105TIP3    H221193   6.378   3.693   1.514
 7106TIP3   OH221194   8.461   1.693   3.078
 7106TIP3    H121195   8.554   1.709   3.061
 7106TIP3    H221196   8.421   1.780   3.078
 7107TIP3   OH221197   2.223   8.362   0.314
 7107TIP3    H121198   2.275   8.415   0.254
 7107TIP3    H221199   2.232   8.406   0.399
 7108TIP3   OH221200   8.900   5.033   4.064
 7108TIP3    H121201   8.934   4.944   4.062
 7108TIP3    H221202   8.961   5.081   4.120
 7109TIP3   OH221203   6.938   0.086   7.584
 7109TIP3    H121204   6.905   0.165   7.626
 7109TIP3    H221205   7.021   0.069   7.627
 7110TIP3   OH221206   7.161   2.592   4.196
 7110TIP3    H121207   7.110   2.519   4.160
 7110TIP3    H221208   7.227   2.550   4.251
 7111TIP3   OH221209   0.417   6.274   6.450
 7111TIP3    H121210   0.511   6.282   6.433
 7111TIP3    H221211   0.377   6.274   6.362
 7112TIP3   OH221212   5.683   3.132   7.792
 7112TIP3    H121213   5.759   3.135   7.851
 7112TIP3    H221214   5.607   3.132   7.850
 7113TIP3   OH221215   8.003   8.855   7.648
 7113TIP3    H121216   8.093   8.880   7.669
 7113TIP3    H221217   7.958   8.939   7.635
 7114TIP3   OH221218   5.183   5.219   1.147
 7114TIP3    H121219   5.134   5.138   1.137
 7114TIP3    H221220   5.275   5.191   1.152
 7115TIP3   OH221221   6.905   2.080   6.447
 7115TIP3    H121222   6.877   1.990   6.464
 7115TIP3    H221223   6.846   2.110   6.378
 7116TIP3   OH221224   7.167   6.090   0.293
 7116TIP3    H121225   7.166   6.084   0.388
 7116TIP3    H221226   7.260   6.103   0.271
 7117TIP3   OH221227   6.160   3.275   3.873
 7117TIP3    H121228   6.100   3.337   3.830
 7117TIP3    H221229   6.194   3.222   3.801
 7118TIP3   OH221230   8.465   3.542   1.551
 7118TIP3    H121231   8.455   3.618   1.494
 7118TIP3    H221232   8.560   3.526   1.554
 7119TIP3   OH221233   3.780   2.580   5.978
 7119TIP3    H121234   3.865   2.622   5.994
 7119TIP3    H221235   3.716   2.647   6.001
 7120TIP3   OH221236   7.230   3.464   5.871
 7120TIP3    H121237   7.244   3.432   5.960
 7120TIP3    H221238   7.163   3.532   5.880
 7121TIP3   OH221239   5.295   2.335   1.349
 7121TIP3    H121240   5.214   2.375   1.383
 7121TIP3    H221241   5.331   2.401   1.289
 7122TIP3   OH221242   6.090   8.327   5.115
 7122TIP3    H121243   6.138   8.275   5.179
 7122TIP3    H221244   6.151   8.340   5.043
 7123TIP3   OH221245   8.155   8.741   6.641
 7123TIP3    H121246   8.106   8.683   6.700
 7123TIP3    H221247   8.158   8.694   6.558
 7124TIP3   OH221248   5.009   1.244   7.661
 7124TIP3    H121249   5.097   1.227   7.694
 7124TIP3    H221250   5.022   1.280   7.573
 7125TIP3   OH221251   1.178   7.723   0.082
 7125TIP3    H121252   1.134   7.647   0.120
 7125TIP3    H221253   1.231   7.759   0.153
 7126TIP3   OH221254   6.199   3.770   2.965
 7126TIP3    H121255   6.251   3.706   2.916
 7126TIP3    H221256   6.222   3.754   3.057
 7127TIP3   OH221257   4.821   2.581   7.362
 7127TIP3    H121258   4.843   2.494   7.396
 7127TIP3    H221259   4.753   2.613   7.422
 7128TIP3   OH221260   4.302   1.382   2.135
 7128TIP3    H121261   4.360   1.425   2.197
 7128TIP3    H221262   4.302   1.290   2.162
 7129TIP3   OH221263   6.826   1.054   1.494
 7129TIP3    H121264   6.826   0.966   1.457
 7129TIP3    H221265   6.734   1.074   1.510
 7130TIP3   OH221266   5.089   6.397   7.109
 7130TIP3    H121267   5.153   6.373   7.042
 7130TIP3    H221268   5.005   6.388   7.065
 7131TIP3   OH221269   2.716   6.893   1.212
 7131TIP3    H121270   2.745   6.942   1.289
 7131TIP3    H221271   2.660   6.955   1.165
 7132TIP3   OH221272   4.831   8.531   6.393
 7132TIP3    H121273   4.921   8.499   6.382
 7132TIP3    H221274   4.841   8.611   6.445
 7133TIP3   OH221275   2.561   3.443   4.195
 7133TIP3    H121276   2.618   3.392   4.137
 7133TIP3    H221277   2.484   3.461   4.141
 7134TIP3   OH221278   3.929   4.254   4.200
 7134TIP3    H121279   3.896   4.320   4.261
 7134TIP3    H221280   4.020   4.242   4.224
 7135TIP3   OH221281   4.580   4.025   7.785
 7135TIP3    H121282   4.641   4.074   7.840
 7135TIP3    H221283   4.627   4.012   7.702
 7136TIP3   OH221284   8.522   8.167   3.589
 7136TIP3    H121285   8.594   8.103   3.590
 7136TIP3    H221286   8.469   8.142   3.513
 7137TIP3   OH221287   5.363   7.788   0.717
 7137TIP3    H121288   5.278   7.763   0.755
 7137TIP3    H221289   5.425   7.775   0.789
 7138TIP3   OH221290   2.480   3.060   3.293
 7138TIP3    H121291   2.472   3.130   3.358
 7138TIP3    H221292   2.395   3.015   3.295
 7139TIP3   OH221293   9.030   4.073   6.088
 7139TIP3    H121294   9.097   4.136   6.061
 7139TIP3    H221295   8.960   4.127   6.124
 7140TIP3   OH221296   0.070   0.114   1.309
 7140TIP3    H121297   0.072   0.061   1.230
 7140TIP3    H221298  -0.021   0.144   1.316
 7141TIP3   OH221299   4.894   8.709   5.387
 7141TIP3    H121300   4.885   8.617   5.413
 7141TIP3    H221301   4.814   8.727   5.337
 7142TIP3   OH221302   9.102   1.915   7.539
 7142TIP3    H121303   9.174   1.941   7.596
 7142TIP3    H221304   9.145   1.872   7.465
 7143TIP3   OH221305   3.533   2.343   1.555
 7143TIP3    H121306   3.545   2.306   1.643
 7143TIP3    H221307   3.600   2.300   1.502
 7144TIP3   OH221308   4.603   5.986   7.107
 7144TIP3    H121309   4.676   5.989   7.046
 7144TIP3    H221310   4.628   5.919   7.170
 7145TIP3   OH221311   6.763   0.535   2.301
 7145TIP3    H121312   6.844   0.572   2.267
 7145TIP3    H221313   6.729   0.481   2.230
 7146TIP3   OH221314   4.370   0.846   6.816
 7146TIP3    H121315   4.282   0.810   6.824
 7146TIP3    H221316   4.382   0.860   6.722
 7147TIP3   OH221317   0.473   6.338   0.373
 7147TIP3    H121318   0.384   6.346   0.406
 7147TIP3    H221319   0.513   6.423   0.391
 7148TIP3   OH221320   0.696   2.209   5.134
 7148TIP3    H121321   0.740   2.228   5.217
 7148TIP3    H221322   0.725   2.120   5.112
 7149TIP3   OH221323   0.586   0.631   6.080
 7149TIP3    H121324   0.609   0.551   6.033
 7149TIP3    H221325   0.495   0.618   6.107
 7150TIP3   OH221326   0.021   0.258   7.016
 7150TIP3    H121327  -0.004   0.176   7.059
 7150TIP3    H221328   0.107   0.278   7.052
 7151TIP3   OH221329   6.919   4.065   5.672
 7151TIP3    H121330   6.996   4.010   5.662
 7151TIP3    H221331   6.938   4.119   5.748
 7152TIP3   OH221332   0.265   6.071   1.760
 7152TIP3    H121333   0.189   6.078   1.702
 7152TIP3    H221334   0.261   6.150   1.814
 7153TIP3   OH221335   1.082   7.641   1.899
 7153TIP3    H121336   1.114   7.705   1.962
 7153TIP3    H221337   1.020   7.587   1.948
 7154TIP3   OH221338   3.500   4.237   7.008
 7154TIP3    H121339   3.543   4.171   7.062
 7154TIP3    H221340   3.557   4.314   7.013
 7155TIP3   OH221341   9.203   6.937   0.420
 7155TIP3    H121342   9.223   6.922   0.328
 7155TIP3    H221343   9.271   6.889   0.467
 7156TIP3   OH221344   5.038   1.041   0.479
 7156TIP3    H121345   5.023   0.946   0.475
 7156TIP3    H221346   4.992   1.076   0.404
 7157TIP3   OH221347   6.795   5.293   7.799
 7157TIP3    H121348   6.850   5.287   7.877
 7157TIP3    H221349   6.730   5.360   7.821
 7158TIP3   OH221350   6.317   7.514   5.865
 7158TIP3    H121351   6.294   7.606   5.859
 7158TIP3    H221352   6.292   7.488   5.954
 7159TIP3   OH221353   2.167   6.659   7.756
 7159TIP3    H121354   2.119   6.629   7.833
 7159TIP3    H221355   2.234   6.592   7.743
 7160TIP3   OH221356   8.900   1.974   5.730
 7160TIP3    H121357   8.896   1.958   5.636
 7160TIP3    H221358   8.808   1.971   5.758
 7161TIP3   OH221359   5.297   1.756   1.750
 7161TIP3    H121360   5.315   1.813   1.825
 7161TIP3    H221361   5.234   1.805   1.697
 7162TIP3   OH221362   2.283   8.278   5.367
 7162TIP3    H121363   2.212   8.290   5.305
 7162TIP3    H221364   2.361   8.310   5.321
 7163TIP3   OH221365   1.115   2.812   0.045
 7163TIP3    H121366   1.020   2.810   0.033
 7163TIP3    H221367   1.127   2.818   0.140
 7164TIP3   OH221368   7.378   4.151   3.313
 7164TIP3    H121369   7.369   4.096   3.236
 7164TIP3    H221370   7.368   4.091   3.387
 7165TIP3   OH221371   1.024   9.004   7.083
 7165TIP3    H121372   1.043   8.912   7.101
 7165TIP3    H221373   0.930   9.013   7.093
 7166TIP3   OH221374   0.063   5.584   5.006
 7166TIP3    H121375   0.107   5.555   4.926
 7166TIP3    H221376  -0.028   5.600   4.979
 7167TIP3   OH221377   4.853   1.987   6.404
 7167TIP3    H121378   4.898   1.924   6.347
 7167TIP3    H221379   4.847   1.943   6.488
 7168TIP3   OH221380   5.591   2.281   6.949
 7168TIP3    H121381   5.567   2.348   6.885
 7168TIP3    H221382   5.530   2.294   7.022
 7169TIP3   OH221383   5.400   6.876   2.655
 7169TIP3    H121384   5.371   6.792   2.691
 7169TIP3    H221385   5.338   6.940   2.691
 7170TIP3   OH221386   8.234   5.902   1.046
 7170TIP3    H121387   8.291   5.896   1.123
 7170TIP3    H221388   8.195   5.815   1.040
 7171TIP3   OH221389   7.009   3.988   4.758
 7171TIP3    H121390   7.103   3.995   4.771
 7171TIP3    H221391   6.986   4.064   4.704
 7172TIP3   OH221392   7.590   2.928   4.108
 7172TIP3    H121393   7.556   2.839   4.121
 7172TIP3    H221394   7.552   2.957   4.026
 7173TIP3   OH221395   9.049   1.317   4.177
 7173TIP3    H121396   9.003   1.265   4.243
 7173TIP3    H221397   9.109   1.255   4.136
 7174TIP3   OH221398   4.603   8.511   2.717
 7174TIP3    H121399   4.538   8.574   2.748
 7174TIP3    H221400   4.681   8.564   2.698
 7175TIP3   OH221401   1.265   8.354   3.691
 7175TIP3    H121402   1.297   8.349   3.601
 7175TIP3    H221403   1.328   8.410   3.737
 7176TIP3   OH221404   3.731   3.163   3.654
 7176TIP3    H121405   3.711   3.070   3.650
 7176TIP3    H221406   3.719   3.194   3.565
 7177TIP3   OH221407   2.589   1.837   5.047
 7177TIP3    H121408   2.512   1.821   4.993
 7177TIP3    H221409   2.660   1.848   4.985
 7178TIP3   OH221410   3.838   5.161   5.308
 7178TIP3    H121411   3.855   5.069   5.328
 7178TIP3    H221412   3.903   5.184   5.242
 7179TIP3   OH221413   7.973   6.646   5.614
 7179TIP3    H121414   8.019   6.562   5.624
 7179TIP3    H221415   8.040   6.712   5.632
 7180TIP3   OH221416   7.770   5.978   7.162
 7180TIP3    H121417   7.839   5.926   7.204
 7180TIP3    H221418   7.816   6.054   7.126
 7181TIP3   OH221419   0.608   7.998   1.014
 7181TIP3    H121420   0.563   7.914   1.010
 7181TIP3    H221421   0.677   7.992   0.948
 7182TIP3   OH221422   0.681   3.897   5.560
 7182TIP3    H121423   0.604   3.950   5.579
 7182TIP3    H221424   0.741   3.958   5.516
 7183TIP3   OH221425   7.523   0.523   6.546
 7183TIP3    H121426   7.522   0.604   6.597
 7183TIP3    H221427   7.478   0.545   6.465
 7184TIP3   OH221428   7.815   4.048   1.040
 7184TIP3    H121429   7.754   4.029   1.112
 7184TIP3    H221430   7.790   3.987   0.971
 7185TIP3   OH221431   5.118   8.680   5.227
 7185TIP3    H121432   5.044   8.673   5.287
 7185TIP3    H221433   5.193   8.650   5.278
 7186TIP3   OH221434   2.789   0.840   7.348
 7186TIP3    H121435   2.823   0.751   7.335
 7186TIP3    H221436   2.803   0.884   7.264
 7187TIP3   OH221437   2.844   0.294   7.366
 7187TIP3    H121438   2.749   0.286   7.371
 7187TIP3    H221439   2.861   0.329   7.278
 7188TIP3   OH221440   4.201   0.506   4.156
 7188TIP3    H121441   4.279   0.510   4.100
 7188TIP3    H221442   4.198   0.592   4.198
 7189TIP3   OH221443   1.546   4.677   1.801
 7189TIP3    H121444   1.629   4.723   1.786
 7189TIP3    H221445   1.549   4.601   1.744
 7190TIP3   OH221446   1.331   6.856   6.929
 7190TIP3    H121447   1.346   6.899   7.013
 7190TIP3    H221448   1.416   6.821   6.904
 7191TIP3   OH221449   2.758   1.849   7.784
 7191TIP3    H121450   2.685   1.881   7.732
 7191TIP3    H221451   2.724   1.770   7.827
 7192TIP3   OH221452   1.476   8.619   7.454
 7192TIP3    H121453   1.438   8.599   7.539
 7192TIP3    H221454   1.401   8.630   7.396
 7193TIP3   OH221455   1.249   0.340   2.954
 7193TIP3    H121456   1.226   0.415   3.010
 7193TIP3    H221457   1.205   0.359   2.871
 7194TIP3   OH221458   0.814   0.477   7.394
 7194TIP3    H121459   0.854   0.522   7.320
 7194TIP3    H221460   0.887   0.449   7.448
 7195TIP3   OH221461   7.293   8.701   4.704
 7195TIP3    H121462   7.338   8.778   4.737
 7195TIP3    H221463   7.362   8.638   4.685
 7196TIP3   OH221464   1.555   3.403   6.058
 7196TIP3    H121465   1.635   3.408   6.111
 7196TIP3    H221466   1.490   3.362   6.115
 7197TIP3   OH221467   4.421   1.156   2.997
 7197TIP3    H121468   4.459   1.152   2.909
 7197TIP3    H221469   4.473   1.223   3.042
 7198TIP3   OH221470   4.640   2.420   7.510
 7198TIP3    H121471   4.603   2.334   7.528
 7198TIP3    H221472   4.619   2.436   7.417
 7199TIP3   OH221473   0.344   8.528   1.664
 7199TIP3    H121474   0.287   8.585   1.613
 7199TIP3    H221475   0.433   8.556   1.641
 7200TIP3   OH221476   6.940   4.373   2.250
 7200TIP3    H121477   6.943   4.340   2.340
 7200TIP3    H221478   6.913   4.464   2.259
 7201TIP3   OH221479   0.241   5.648   2.428
 7201TIP3    H121480   0.295   5.594   2.370
 7201TIP3    H221481   0.297   5.664   2.504
 7202TIP3   OH221482   1.600   7.768   7.693
 7202TIP3    H121483   1.593   7.809   7.779
 7202TIP3    H221484   1.670   7.703   7.703
 7203TIP3   OH221485   6.931   7.425   5.158
 7203TIP3    H121486   6.974   7.502   5.193
 7203TIP3    H221487   6.851   7.416   5.208
 7204TIP3   OH221488   5.100   1.268   0.964
 7204TIP3    H121489   5.119   1.177   0.944
 7204TIP3    H221490   5.010   1.267   0.996
 7205TIP3   OH221491   2.104   0.183   0.196
 7205TIP3    H121492   2.173   0.185   0.129
 7205TIP3    H221493   2.042   0.250   0.168
 7206TIP3   OH221494   0.332   2.766   1.028
 7206TIP3    H121495   0.297   2.854   1.042
 7206TIP3    H221496   0.301   2.716   1.103
 7207TIP3   OH221497   6.672   6.464   3.109
 7207TIP3    H121498   6.667   6.437   3.017
 7207TIP3    H221499   6.584   6.497   3.129
 7208TIP3   OH221500   3.787   0.514   0.577
 7208TIP3    H121501   3.719   0.581   0.576
 7208TIP3    H221502   3.745   0.436   0.541
 7209TIP3   OH221503   3.207   1.454   3.273
 7209TIP3    H121504   3.239   1.541   3.248
 7209TIP3    H221505   3.176   1.464   3.363
 7210TIP3   OH221506   6.475   0.465   2.549
 7210TIP3    H121507   6.562   0.424   2.543
 7210TIP3    H221508   6.490   0.556   2.525
 7211TIP3   OH221509   4.667   5.508   5.935
 7211TIP3    H121510   4.721   5.587   5.933
 7211TIP3    H221511   4.584   5.534   5.894
 7212TIP3   OH221512   7.456   3.487   0.178
 7212TIP3    H121513   7.502   3.532   0.248
 7212TIP3    H221514   7.416   3.411   0.220
 7213TIP3   OH221515   4.190   4.689   4.084
 7213TIP3    H121516   4.151   4.745   4.017
 7213TIP3    H221517   4.139   4.608   4.079
 7214TIP3   OH221518   6.222   0.465   4.884
 7214TIP3    H121519   6.226   0.376   4.918
 7214TIP3    H221520   6.242   0.521   4.959
 7215TIP3   OH221521   1.376   7.746   2.761
 7215TIP3    H121522   1.298   7.771   2.810
 7215TIP3    H221523   1.426   7.690   2.820
 7216TIP3   OH221524   5.214   4.688   6.214
 7216TIP3    H121525   5.239   4.722   6.128
 7216TIP3    H221526   5.297   4.679   6.261
 7217TIP3   OH221527   6.971   4.050   3.534
 7217TIP3    H121528   6.888   4.040   3.580
 7217TIP3    H221529   6.961   4.131   3.483
 7218TIP3   OH221530   4.648   1.840   5.649
 7218TIP3    H121531   4.571   1.785   5.631
 7218TIP3    H221532   4.665   1.884   5.565
 7219TIP3   OH221533   0.350   6.949   4.001
 7219TIP3    H121534   0.378   6.858   3.989
 7219TIP3    H221535   0.325   6.977   3.913
 7220TIP3   OH221536   5.226   3.312   2.756
 7220TIP3    H121537   5.308   3.340   2.797
 7220TIP3    H221538   5.233   3.341   2.666
 7221TIP3   OH221539   9.488   3.275   5.167
 7221TIP3    H121540   9.451   3.322   5.241
 7221TIP3    H221541   9.443   3.311   5.091
 7222TIP3   OH221542   0.588   4.941   6.977
 7222TIP3    H121543   0.657   4.968   7.037
 7222TIP3    H221544   0.538   5.021   6.961
 7223TIP3   OH221545   7.067   0.215   4.901
 7223TIP3    H121546   7.065   0.240   4.993
 7223TIP3    H221547   7.085   0.121   4.902
 7224TIP3   OH221548   2.691   0.181   3.538
 7224TIP3    H121549   2.643   0.115   3.587
 7224TIP3    H221550   2.634   0.259   3.541
 7225TIP3   OH221551   7.875   3.254   7.486
 7225TIP3    H121552   7.916   3.200   7.553
 7225TIP3    H221553   7.789   3.277   7.523
 7226TIP3   OH221554   2.638   2.924   1.862
 7226TIP3    H121555   2.603   2.897   1.947
 7226TIP3    H221556   2.681   3.008   1.880
 7227TIP3   OH221557   0.612   4.692   7.679
 7227TIP3    H121558   0.698   4.700   7.639
 7227TIP3    H221559   0.610   4.760   7.746
 7228TIP3   OH221560   3.501   4.075   0.463
 7228TIP3    H121561   3.551   4.094   0.384
 7228TIP3    H221562   3.410   4.072   0.433
 7229TIP3   OH221563   6.021   3.500   3.752
 7229TIP3    H121564   5.931   3.530   3.751
 7229TIP3    H221565   6.043   3.485   3.660
 7230TIP3   OH221566   8.392   8.889   1.610
 7230TIP3    H121567   8.369   8.831   1.537
 7230TIP3    H221568   8.475   8.929   1.583
 7231TIP3   OH221569   9.171   4.462   0.382
 7231TIP3    H121570   9.247   4.482   0.437
 7231TIP3    H221571   9.182   4.370   0.360
 7232TIP3   OH221572   8.329   2.523   2.037
 7232TIP3    H121573   8.353   2.491   2.124
 7232TIP3    H221574   8.266   2.458   2.004
 7233TIP3   OH221575   8.605   2.833   0.538
 7233TIP3    H121576   8.557   2.915   0.551
 7233TIP3    H221577   8.559   2.770   0.595
 7234TIP3   OH221578   3.348   3.874   2.579
 7234TIP3    H121579   3.292   3.927   2.523
 7234TIP3    H221580   3.288   3.819   2.628
 7235TIP3   OH221581   3.358   8.847   2.070
 7235TIP3    H121582   3.418   8.857   2.144
 7235TIP3    H221583   3.271   8.858   2.109
 7236TIP3   OH221584   7.286   4.802   4.173
 7236TIP3    H121585   7.258   4.867   4.238
 7236TIP3    H221586   7.206   4.754   4.152
 7237TIP3   OH221587   2.961   2.723   2.379
 7237TIP3    H121588   2.878   2.706   2.422
 7237TIP3    H221589   2.950   2.810   2.338
 7238TIP3   OH221590   8.545   3.371   6.793
 7238TIP3    H121591   8.509   3.442   6.846
 7238TIP3    H221592   8.571   3.414   6.711
 7239TIP3   OH221593   3.764   2.468   6.388
 7239TIP3    H121594   3.809   2.434   6.465
 7239TIP3    H221595   3.678   2.425   6.390
 7240TIP3   OH221596   2.021   1.938   2.498
 7240TIP3    H121597   1.967   1.859   2.494
 7240TIP3    H221598   2.106   1.911   2.462
 7241TIP3   OH221599   5.190   3.489   2.962
 7241TIP3    H121600   5.106   3.473   3.006
 7241TIP3    H221601   5.168   3.547   2.889
 7242TIP3   OH221602   3.579   2.125   4.733
 7242TIP3    H121603   3.522   2.049   4.744
 7242TIP3    H221604   3.666   2.087   4.718
 7243TIP3   OH221605   2.648   2.520   7.745
 7243TIP3    H121606   2.671   2.480   7.829
 7243TIP3    H221607   2.555   2.542   7.754
 7244TIP3   OH221608   2.499   3.795   6.146
 7244TIP3    H121609   2.529   3.704   6.140
 7244TIP3    H221610   2.569   3.841   6.193
 7245TIP3   OH221611   6.539   3.033   0.241
 7245TIP3    H121612   6.447   3.006   0.245
 7245TIP3    H221613   6.541   3.103   0.176
 7246TIP3   OH221614   2.573   2.999   3.040
 7246TIP3    H121615   2.662   2.962   3.045
 7246TIP3    H221616   2.551   3.022   3.130
 7247TIP3   OH221617   9.012   3.145   5.277
 7247TIP3    H121618   9.097   3.133   5.235
 7247TIP3    H221619   8.975   3.057   5.281
 7248TIP3   OH221620   6.455   5.169   1.587
 7248TIP3    H121621   6.522   5.147   1.651
 7248TIP3    H221622   6.476   5.258   1.560
 7249TIP3   OH221623   2.840   1.949   6.568
 7249TIP3    H121624   2.862   1.872   6.515
 7249TIP3    H221625   2.748   1.967   6.547
 7250TIP3   OH221626   0.391   2.132   3.480
 7250TIP3    H121627   0.338   2.169   3.409
 7250TIP3    H221628   0.399   2.204   3.544
 7251TIP3   OH221629   3.755   7.293   5.354
 7251TIP3    H121630   3.785   7.219   5.407
 7251TIP3    H221631   3.681   7.329   5.403
 7252TIP3   OH221632   1.696   6.199   5.951
 7252TIP3    H121633   1.750   6.188   5.873
 7252TIP3    H221634   1.634   6.126   5.948
 7253TIP3   OH221635   3.643   5.035   5.718
 7253TIP3    H121636   3.725   5.083   5.728
 7253TIP3    H221637   3.662   4.948   5.752
 7254TIP3   OH221638   1.411   3.345   7.673
 7254TIP3    H121639   1.317   3.361   7.674
 7254TIP3    H221640   1.420   3.257   7.637
 7255TIP3   OH221641   3.948   4.108   4.989
 7255TIP3    H121642   3.874   4.052   5.015
 7255TIP3    H221643   4.022   4.076   5.041
 7256TIP3   OH221644   6.319   8.767   0.948
 7256TIP3    H121645   6.227   8.793   0.940
 7256TIP3    H221646   6.358   8.792   0.864
 7257TIP3   OH221647   3.869   6.755   4.785
 7257TIP3    H121648   3.887   6.697   4.711
 7257TIP3    H221649   3.817   6.701   4.846
 7258TIP3   OH221650   9.176   0.737   0.631
 7258TIP3    H121651   9.113   0.796   0.672
 7258TIP3    H221652   9.209   0.786   0.555
 7259TIP3   OH221653   3.622   3.093   1.556
 7259TIP3    H121654   3.709   3.114   1.590
 7259TIP3    H221655   3.600   3.166   1.499
 7260TIP3   OH221656   9.494   0.166   3.211
 7260TIP3    H121657   9.404   0.132   3.206
 7260TIP3    H221658   9.540   0.104   3.267
 7261TIP3   OH221659   5.973   2.527   5.998
 7261TIP3    H121660   6.052   2.564   5.958
 7261TIP3    H221661   5.997   2.437   6.020
 7262TIP3   OH221662   8.731   3.601   1.965
 7262TIP3    H121663   8.667   3.548   2.013
 7262TIP3    H221664   8.683   3.679   1.939
 7263TIP3   OH221665   8.799   6.299   3.127
 7263TIP3    H121666   8.817   6.277   3.219
 7263TIP3    H221667   8.838   6.385   3.115
 7264TIP3   OH221668   6.162   3.703   7.041
 7264TIP3    H121669   6.207   3.753   6.973
 7264TIP3    H221670   6.076   3.745   7.049
 7265TIP3   OH221671   2.041   0.523   2.000
 7265TIP3    H121672   1.961   0.575   2.001
 7265TIP3    H221673   2.094   0.559   2.071
 7266TIP3   OH221674   4.923   4.660   4.442
 7266TIP3    H121675   4.946   4.751   4.462
 7266TIP3    H221676   4.982   4.608   4.498
 7267TIP3   OH221677   5.621   6.310   4.090
 7267TIP3    H121678   5.692   6.366   4.123
 7267TIP3    H221679   5.595   6.351   4.007
 7268TIP3   OH221680   9.454   7.386   2.192
 7268TIP3    H121681   9.446   7.447   2.266
 7268TIP3    H221682   9.545   7.358   2.193
 7269TIP3   OH221683   7.050   3.568   2.734
 7269TIP3    H121684   7.065   3.504   2.805
 7269TIP3    H221685   7.113   3.638   2.753
 7270TIP3   OH221686   0.211   0.932   3.179
 7270TIP3    H121687   0.192   1.023   3.198
 7270TIP3    H221688   0.185   0.884   3.258
 7271TIP3   OH221689   3.440   5.619   3.210
 7271TIP3    H121690   3.401   5.680   3.273
 7271TIP3    H221691   3.533   5.620   3.229
 7272TIP3   OH221692   9.204   7.435   2.074
 7272TIP3    H121693   9.142   7.363   2.090
 7272TIP3    H221694   9.276   7.417   2.134
 7273TIP3   OH221695   4.925   0.956   6.287
 7273TIP3    H121696   4.963   0.932   6.372
 7273TIP3    H221697   4.990   0.928   6.223
 7274TIP3   OH221698   0.957   3.676   6.744
 7274TIP3    H121699   0.881   3.703   6.795
 7274TIP3    H221700   0.998   3.608   6.796
 7275TIP3   OH221701   5.001   0.321   6.798
 7275TIP3    H121702   4.964   0.384   6.737
 7275TIP3    H221703   5.070   0.369   6.843
 7276TIP3   OH221704   7.170   6.265   4.039
 7276TIP3    H121705   7.090   6.255   4.089
 7276TIP3    H221706   7.141   6.285   3.950
 7277TIP3   OH221707   7.718   5.663   7.768
 7277TIP3    H121708   7.730   5.750   7.806
 7277TIP3    H221709   7.701   5.679   7.676
 7278TIP3   OH221710   4.730   5.261   0.658
 7278TIP3    H121711   4.764   5.281   0.571
 7278TIP3    H221712   4.789   5.307   0.718
 7279TIP3   OH221713   3.588   8.991   2.934
 7279TIP3    H121714   3.562   8.913   2.983
 7279TIP3    H221715   3.667   8.964   2.887
 7280TIP3   OH221716   2.663   1.827   5.581
 7280TIP3    H121717   2.636   1.808   5.671
 7280TIP3    H221718   2.737   1.769   5.566
 7281TIP3   OH221719   1.761   3.890   6.603
 7281TIP3    H121720   1.809   3.830   6.661
 7281TIP3    H221721   1.696   3.930   6.660
 7282TIP3   OH221722   0.536   6.478   2.713
 7282TIP3    H121723   0.569   6.504   2.627
 7282TIP3    H221724   0.507   6.560   2.753
 7283TIP3   OH221725   1.816   0.289   2.446
 7283TIP3    H121726   1.766   0.364   2.479
 7283TIP3    H221727   1.906   0.306   2.474
 7284TIP3   OH221728   5.097   0.239   5.531
 7284TIP3    H121729   5.138   0.181   5.595
 7284TIP3    H221730   5.085   0.322   5.577
 7285TIP3   OH221731   4.726   6.793   7.440
 7285TIP3    H121732   4.671   6.871   7.436
 7285TIP3    H221733   4.756   6.790   7.531
 7286TIP3   OH221734   0.643   5.394   5.130
 7286TIP3    H121735   0.620   5.478   5.090
 7286TIP3    H221736   0.635   5.331   5.058
 7287TIP3   OH221737   0.595   2.320   3.018
 7287TIP3    H121738   0.552   2.399   2.986
 7287TIP3    H221739   0.541   2.248   2.985
 7288TIP3   OH221740   7.590   4.313   7.684
 7288TIP3    H121741   7.663   4.292   7.742
 7288TIP3    H221742   7.532   4.237   7.690
 7289TIP3   OH221743   8.510   4.498   6.826
 7289TIP3    H121744   8.464   4.575   6.857
 7289TIP3    H221745   8.441   4.441   6.791
 7290TIP3   OH221746   7.398   0.194   1.929
 7290TIP3    H121747   7.471   0.250   1.956
 7290TIP3    H221748   7.365   0.157   2.011
 7291TIP3   OH221749   3.650   5.727   0.248
 7291TIP3    H121750   3.600   5.809   0.242
 7291TIP3    H221751   3.723   5.739   0.187
 7292TIP3   OH221752   8.334   7.153   2.093
 7292TIP3    H121753   8.362   7.071   2.134
 7292TIP3    H221754   8.242   7.139   2.072
 7293TIP3   OH221755   8.431   4.063   3.511
 7293TIP3    H121756   8.335   4.067   3.509
 7293TIP3    H221757   8.453   4.054   3.603
 7294TIP3   OH221758   8.927   2.543   3.673
 7294TIP3    H121759   8.967   2.623   3.639
 7294TIP3    H221760   8.837   2.568   3.695
 7295TIP3   OH221761   7.516   4.067   6.762
 7295TIP3    H121762   7.543   4.079   6.853
 7295TIP3    H221763   7.534   4.152   6.721
 7296TIP3   OH221764   6.723   7.955   7.429
 7296TIP3    H121765   6.647   7.968   7.373
 7296TIP3    H221766   6.688   7.913   7.508
 7297TIP3   OH221767   0.452   4.431   6.924
 7297TIP3    H121768   0.490   4.401   6.842
 7297TIP3    H221769   0.428   4.350   6.970
 7298TIP3   OH221770   7.427   5.078   4.134
 7298TIP3    H121771   7.456   5.149   4.191
 7298TIP3    H221772   7.413   5.004   4.193
 7299TIP3   OH221773   5.734   1.203   2.071
 7299TIP3    H121774   5.661   1.210   2.010
 7299TIP3    H221775   5.765   1.113   2.061
 7300TIP3   OH221776   4.540   3.200   3.936
 7300TIP3    H121777   4.459   3.166   3.898
 7300TIP3    H221778   4.608   3.139   3.907
 7301TIP3   OH221779   9.375   0.786   4.173
 7301TIP3    H121780   9.344   0.791   4.083
 7301TIP3    H221781   9.303   0.823   4.225
 7302TIP3   OH221782   9.557   3.994   6.850
 7302TIP3    H121783   9.558   4.009   6.756
 7302TIP3    H221784   9.518   3.907   6.860
 7303TIP3   OH221785   5.089   5.760   1.193
 7303TIP3    H121786   5.180   5.788   1.183
 7303TIP3    H221787   5.088   5.668   1.165
 7304TIP3   OH221788   1.445   8.753   3.602
 7304TIP3    H121789   1.535   8.722   3.589
 7304TIP3    H221790   1.406   8.689   3.660
 7305TIP3   OH221791   4.885   8.245   0.709
 7305TIP3    H121792   4.844   8.312   0.655
 7305TIP3    H221793   4.860   8.267   0.798
 7306TIP3   OH221794   2.040   3.124   4.829
 7306TIP3    H121795   1.951   3.090   4.818
 7306TIP3    H221796   2.087   3.093   4.752
 7307TIP3   OH221797   6.156   5.795   4.208
 7307TIP3    H121798   6.141   5.783   4.114
 7307TIP3    H221799   6.091   5.859   4.235
 7308TIP3   OH221800   2.491   7.141   4.482
 7308TIP3    H121801   2.431   7.098   4.421
 7308TIP3    H221802   2.569   7.160   4.430
 7309TIP3   OH221803   3.272   0.708   7.598
 7309TIP3    H121804   3.200   0.766   7.576
 7309TIP3    H221805   3.301   0.673   7.515
 7310TIP3   OH221806   2.876   6.827   3.503
 7310TIP3    H121807   2.813   6.847   3.434
 7310TIP3    H221808   2.895   6.734   3.492
 7311TIP3   OH221809   0.362   6.055   2.948
 7311TIP3    H121810   0.425   5.986   2.966
 7311TIP3    H221811   0.377   6.080   2.857
 7312TIP3   OH221812   1.072   5.036   4.090
 7312TIP3    H121813   1.060   5.045   4.184
 7312TIP3    H221814   1.072   5.125   4.056
 7313TIP3   OH221815   0.265   7.377   7.732
 7313TIP3    H121816   0.179   7.355   7.696
 7313TIP3    H221817   0.251   7.381   7.826
 7314TIP3   OH221818   7.834   5.109   3.815
 7314TIP3    H121819   7.764   5.173   3.832
 7314TIP3    H221820   7.875   5.140   3.735
 7315TIP3   OH221821   2.183   2.003   5.524
 7315TIP3    H121822   2.249   2.072   5.530
 7315TIP3    H221823   2.214   1.934   5.583
 7316TIP3   OH221824   6.219   0.910   5.158
 7316TIP3    H121825   6.270   0.931   5.236
 7316TIP3    H221826   6.181   0.994   5.131
 7317TIP3   OH221827   7.346   2.662   2.458
 7317TIP3    H121828   7.255   2.652   2.432
 7317TIP3    H221829   7.356   2.604   2.534
 7318TIP3   OH221830   1.018   6.838   2.240
 7318TIP3    H121831   1.078   6.873   2.174
 7318TIP3    H221832   0.970   6.769   2.194
 7319TIP3   OH221833   9.425   4.289   0.745
 7319TIP3    H121834   9.504   4.240   0.722
 7319TIP3    H221835   9.427   4.295   0.840
 7320TIP3   OH221836   3.489   1.190   0.539
 7320TIP3    H121837   3.583   1.187   0.552
 7320TIP3    H221838   3.452   1.175   0.626
 7321TIP3   OH221839   9.554   0.467   5.285
 7321TIP3    H121840   9.622   0.492   5.222
 7321TIP3    H221841   9.478   0.520   5.260
 7322TIP3   OH221842   1.575   4.198   3.546
 7322TIP3    H121843   1.629   4.132   3.589
 7322TIP3    H221844   1.498   4.208   3.603
 7323TIP3   OH221845   1.536   4.408   1.929
 7323TIP3    H121846   1.508   4.385   1.841
 7323TIP3    H221847   1.511   4.333   1.983
 7324TIP3   OH221848   2.643   4.669   3.866
 7324TIP3    H121849   2.617   4.586   3.906
 7324TIP3    H221850   2.579   4.683   3.796
 7325TIP3   OH221851   0.513   7.335   5.689
 7325TIP3    H121852   0.575   7.341   5.762
 7325TIP3    H221853   0.487   7.426   5.673
 7326TIP3   OH221854   8.968   3.945   0.062
 7326TIP3    H121855   8.926   3.991   0.135
 7326TIP3    H221856   8.895   3.910   0.010
 7327TIP3   OH221857   8.409   1.699   1.963
 7327TIP3    H121858   8.347   1.699   1.890
 7327TIP3    H221859   8.404   1.610   1.999
 7328TIP3   OH221860   0.909   8.658   1.770
 7328TIP3    H121861   0.966   8.598   1.722
 7328TIP3    H221862   0.821   8.625   1.754
 7329TIP3   OH221863   3.594   3.326   0.377
 7329TIP3    H121864   3.592   3.368   0.463
 7329TIP3    H221865   3.502   3.326   0.349
 7330TIP3   OH221866   1.933   0.879   5.959
 7330TIP3    H121867   1.906   0.816   5.892
 7330TIP3    H221868   1.939   0.828   6.039
 7331TIP3   OH221869   3.378   7.793   2.811
 7331TIP3    H121870   3.289   7.823   2.792
 7331TIP3    H221871   3.430   7.873   2.812
 7332TIP3   OH221872   5.659   4.278   3.095
 7332TIP3    H121873   5.671   4.276   3.000
 7332TIP3    H221874   5.664   4.187   3.122
 7333TIP3   OH221875   7.105   2.221   3.661
 7333TIP3    H121876   7.028   2.279   3.659
 7333TIP3    H221877   7.068   2.133   3.666
 7334TIP3   OH221878   9.291   4.423   7.252
 7334TIP3    H121879   9.219   4.486   7.255
 7334TIP3    H221880   9.350   4.456   7.184
 7335TIP3   OH221881   9.310   0.061   6.812
 7335TIP3    H121882   9.330   0.111   6.733
 7335TIP3    H221883   9.316  -0.031   6.785
 7336TIP3   OH221884   0.027   2.187   7.294
 7336TIP3    H121885   0.055   2.111   7.243
 7336TIP3    H221886  -0.030   2.151   7.362
 7337TIP3   OH221887   5.184   1.754   4.468
 7337TIP3    H121888   5.156   1.820   4.405
 7337TIP3    H221889   5.248   1.701   4.422
 7338TIP3   OH221890   6.010   6.134   3.971
 7338TIP3    H121891   6.034   6.224   3.949
 7338TIP3    H221892   6.090   6.084   3.960
 7339TIP3   OH221893   2.115   1.814   0.376
 7339TIP3    H121894   2.111   1.793   0.282
 7339TIP3    H221895   2.194   1.771   0.407
 7340TIP3   OH221896   7.199   8.658   2.256
 7340TIP3    H121897   7.120   8.653   2.310
 7340TIP3    H221898   7.167   8.653   2.166
 7341TIP3   OH221899   2.647   7.148   1.144
 7341TIP3    H121900   2.625   7.190   1.227
 7341TIP3    H221901   2.615   7.209   1.078
 7342TIP3   OH221902   4.107   4.421   7.254
 7342TIP3    H121903   4.124   4.362   7.180
 7342TIP3    H221904   4.092   4.363   7.328
 7343TIP3   OH221905   6.393   0.279   2.785
 7343TIP3    H121906   6.329   0.216   2.751
 7343TIP3    H221907   6.442   0.307   2.707
 7344TIP3   OH221908   8.733   0.374   7.173
 7344TIP3    H121909   8.753   0.465   7.150
 7344TIP3    H221910   8.751   0.369   7.267
 7345TIP3   OH221911   6.404   7.362   1.855
 7345TIP3    H121912   6.492   7.339   1.823
 7345TIP3    H221913   6.420   7.408   1.937
 7346TIP3   OH221914   1.148   3.021   1.012
 7346TIP3    H121915   1.152   3.108   1.051
 7346TIP3    H221916   1.238   2.999   0.991
 7347TIP3   OH221917   0.962   3.811   4.913
 7347TIP3    H121918   0.890   3.813   4.850
 7347TIP3    H221919   0.985   3.904   4.926
 7348TIP3   OH221920   0.842   3.188   6.311
 7348TIP3    H121921   0.877   3.099   6.322
 7348TIP3    H221922   0.770   3.177   6.249
 7349TIP3   OH221923   1.903   8.058   6.055
 7349TIP3    H121924   1.970   8.123   6.036
 7349TIP3    H221925   1.906   7.997   5.981
 7350TIP3   OH221926   1.468   0.141   6.241
 7350TIP3    H121927   1.490   0.213   6.299
 7350TIP3    H221928   1.543   0.081   6.246
 7351TIP3   OH221929   7.282   0.800   0.407
 7351TIP3    H121930   7.341   0.731   0.380
 7351TIP3    H221931   7.293   0.805   0.502
 7352TIP3   OH221932   8.331   1.148   0.378
 7352TIP3    H121933   8.283   1.168   0.297
 7352TIP3    H221934   8.264   1.137   0.444
 7353TIP3   OH221935   4.120   8.267   2.807
 7353TIP3    H121936   4.047   8.318   2.773
 7353TIP3    H221937   4.189   8.277   2.741
 7354TIP3   OH221938   7.516   1.078   3.718
 7354TIP3    H121939   7.478   1.006   3.669
 7354TIP3    H221940   7.587   1.038   3.768
 7355TIP3   OH221941   0.216   8.821   1.824
 7355TIP3    H121942   0.187   8.898   1.873
 7355TIP3    H221943   0.190   8.838   1.734
 7356TIP3   OH221944   0.876   4.988   7.752
 7356TIP3    H121945   0.959   5.022   7.717
 7356TIP3    H221946   0.836   5.064   7.795
 7357TIP3   OH221947   0.690   4.890   0.930
 7357TIP3    H121948   0.654   4.899   1.018
 7357TIP3    H221949   0.710   4.797   0.922
 7358TIP3   OH221950   2.550   0.408   2.112
 7358TIP3    H121951   2.496   0.329   2.110
 7358TIP3    H221952   2.511   0.466   2.047
 7359TIP3   OH221953   7.722   2.600   2.959
 7359TIP3    H121954   7.754   2.662   2.893
 7359TIP3    H221955   7.627   2.602   2.948
 7360TIP3   OH221956   8.996   6.553   4.906
 7360TIP3    H121957   8.982   6.645   4.929
 7360TIP3    H221958   8.918   6.529   4.855
 7361TIP3   OH221959   1.962   4.748   6.495
 7361TIP3    H121960   2.035   4.711   6.447
 7361TIP3    H221961   2.003   4.805   6.561
 7362TIP3   OH221962   8.645   0.984   2.130
 7362TIP3    H121963   8.584   0.911   2.137
 7362TIP3    H221964   8.707   0.957   2.063
 7363TIP3   OH221965   8.246   3.395   1.506
 7363TIP3    H121966   8.219   3.383   1.597
 7363TIP3    H221967   8.330   3.440   1.512
 7364TIP3   OH221968   0.183   0.956   7.228
 7364TIP3    H121969   0.258   0.906   7.260
 7364TIP3    H221970   0.157   1.010   7.303
 7365TIP3   OH221971   0.235   4.621   0.523
 7365TIP3    H121972   0.292   4.689   0.487
 7365TIP3    H221973   0.147   4.646   0.494
 7366TIP3   OH221974   2.311   1.827   6.039
 7366TIP3    H121975   2.265   1.894   6.089
 7366TIP3    H221976   2.376   1.875   5.988
 7367TIP3   OH221977   2.351   4.702   4.299
 7367TIP3    H121978   2.296   4.715   4.222
 7367TIP3    H221979   2.420   4.768   4.290
 7368TIP3   OH221980   1.246   1.432   7.422
 7368TIP3    H121981   1.240   1.341   7.392
 7368TIP3    H221982   1.169   1.444   7.478
 7369TIP3   OH221983   8.879   1.627   6.167
 7369TIP3    H121984   8.963   1.630   6.212
 7369TIP3    H221985   8.892   1.682   6.089
 7370TIP3   OH221986   0.055   1.114   7.429
 7370TIP3    H121987   0.053   1.210   7.420
 7370TIP3    H221988  -0.036   1.087   7.420
 7371TIP3   OH221989   2.127   1.210   2.850
 7371TIP3    H121990   2.184   1.209   2.774
 7371TIP3    H221991   2.105   1.118   2.866
 7372TIP3   OH221992   3.921   5.949   3.718
 7372TIP3    H121993   3.973   6.029   3.723
 7372TIP3    H221994   3.853   5.960   3.785
 7373TIP3   OH221995   2.911   0.581   5.001
 7373TIP3    H121996   2.821   0.607   5.021
 7373TIP3    H221997   2.917   0.587   4.906
 7374TIP3   OH221998   8.107   4.989   5.804
 7374TIP3    H121999   8.085   5.082   5.806
 7374TIP3    H222000   8.165   4.977   5.880
 7375TIP3   OH222001   6.865   0.873   2.883
 7375TIP3    H122002   6.851   0.850   2.975
 7375TIP3    H222003   6.953   0.911   2.882
 7376TIP3   OH222004   0.713   2.654   3.173
 7376TIP3    H122005   0.686   2.678   3.085
 7376TIP3    H222006   0.773   2.581   3.161
 7377TIP3   OH222007   0.011   2.065   7.718
 7377TIP3    H122008  -0.015   1.987   7.670
 7377TIP3    H222009  -0.069   2.094   7.762
 7378TIP3   OH222010   4.240   1.172   7.788
 7378TIP3    H122011   4.161   1.119   7.792
 7378TIP3    H222012   4.230   1.226   7.709
 7379TIP3   OH222013   6.971   3.866   3.260
 7379TIP3    H122014   6.921   3.944   3.238
 7379TIP3    H222015   6.969   3.861   3.355
 7380TIP3   OH222016   4.425   7.386   3.312
 7380TIP3    H122017   4.425   7.455   3.246
 7380TIP3    H222018   4.434   7.432   3.395
 7381TIP3   OH222019   0.841   2.838   0.035
 7381TIP3    H122020   0.769   2.811   0.092
 7381TIP3    H222021   0.807   2.829  -0.054
 7382TIP3   OH222022   9.529   8.325   7.345
 7382TIP3    H122023   9.620   8.298   7.347
 7382TIP3    H222024   9.481   8.251   7.384
 7383TIP3   OH222025   5.453   5.656   7.720
 7383TIP3    H122026   5.526   5.706   7.755
 7383TIP3    H222027   5.488   5.567   7.710
 7384TIP3   OH222028   5.955   4.831   3.686
 7384TIP3    H122029   5.961   4.926   3.673
 7384TIP3    H222030   5.875   4.819   3.738
 7385TIP3   OH222031   4.959   5.609   2.865
 7385TIP3    H122032   4.960   5.704   2.851
 7385TIP3    H222033   5.023   5.594   2.935
 7386TIP3   OH222034   4.721   4.130   0.468
 7386TIP3    H122035   4.757   4.050   0.504
 7386TIP3    H222036   4.750   4.199   0.528
 7387TIP3   OH222037   1.106   6.757   1.347
 7387TIP3    H122038   1.034   6.768   1.410
 7387TIP3    H222039   1.159   6.687   1.384
 7388TIP3   OH222040   0.101   2.234   6.850
 7388TIP3    H122041   0.090   2.326   6.873
 7388TIP3    H222042   0.196   2.221   6.847
 7389TIP3   OH222043   7.357   2.960   4.497
 7389TIP3    H122044   7.385   3.051   4.507
 7389TIP3    H222045   7.438   2.909   4.502
 7390TIP3   OH222046   9.434   3.528   3.931
 7390TIP3    H122047   9.378   3.593   3.975
 7390TIP3    H222048   9.507   3.579   3.896
 7391TIP3   OH222049   0.511   1.947   4.362
 7391TIP3    H122050   0.482   2.022   4.413
 7391TIP3    H222051   0.550   1.984   4.283
 7392TIP3   OH222052   3.214   5.272   0.024
 7392TIP3    H122053   3.248   5.348   0.071
 7392TIP3    H222054   3.182   5.214   0.093
 7393TIP3   OH222055   5.168   2.487   6.972
 7393TIP3    H122056   5.130   2.421   6.916
 7393TIP3    H222057   5.244   2.444   7.012
 7394TIP3   OH222058   8.800   6.965   2.421
 7394TIP3    H122059   8.765   7.040   2.469
 7394TIP3    H222060   8.854   6.919   2.485
 7395TIP3   OH222061   1.445   5.575   4.108
 7395TIP3    H122062   1.390   5.498   4.120
 7395TIP3    H222063   1.519   5.544   4.055
 7396TIP3   OH222064   0.825   0.501   0.427
 7396TIP3    H122065   0.766   0.484   0.354
 7396TIP3    H222066   0.801   0.435   0.493
 7397TIP3   OH222067   6.868   0.994   0.321
 7397TIP3    H122068   6.865   1.024   0.411
 7397TIP3    H222069   6.903   0.905   0.326
 7398TIP3   OH222070   7.242   5.050   6.445
 7398TIP3    H122071   7.250   5.019   6.355
 7398TIP3    H222072   7.332   5.068   6.473
 7399TIP3   OH222073   7.496   1.312   5.006
 7399TIP3    H122074   7.467   1.282   4.920
 7399TIP3    H222075   7.467   1.243   5.066
 7400TIP3   OH222076   8.494   3.901   1.180
 7400TIP3    H122077   8.519   3.910   1.087
 7400TIP3    H222078   8.462   3.988   1.204
 7401TIP3   OH222079   6.111   5.146   7.366
 7401TIP3    H122080   6.076   5.123   7.452
 7401TIP3    H222081   6.188   5.089   7.355
 7402TIP3   OH222082   3.341   2.091   3.602
 7402TIP3    H122083   3.253   2.124   3.621
 7402TIP3    H222084   3.374   2.062   3.687
 7403TIP3   OH222085   4.624   5.938   5.351
 7403TIP3    H122086   4.665   5.912   5.433
 7403TIP3    H222087   4.586   5.857   5.316
 7404TIP3   OH222088   2.649   2.294   2.514
 7404TIP3    H122089   2.596   2.255   2.585
 7404TIP3    H222090   2.587   2.349   2.466
 7405TIP3   OH222091   2.644   2.151   7.791
 7405TIP3    H122092   2.627   2.193   7.707
 7405TIP3    H222093   2.625   2.219   7.856
 7406TIP3   OH222094   0.844   7.337   4.728
 7406TIP3    H122095   0.836   7.407   4.793
 7406TIP3    H222096   0.760   7.337   4.681
 7407TIP3   OH222097   8.300   6.170   6.996
 7407TIP3    H122098   8.228   6.159   7.059
 7407TIP3    H222099   8.375   6.195   7.050
 7408TIP3   OH222100   1.833   2.170   3.811
 7408TIP3    H122101   1.887   2.206   3.881
 7408TIP3    H222102   1.895   2.121   3.756
 7409TIP3   OH222103   8.957   1.169   4.386
 7409TIP3    H122104   9.030   1.180   4.447
 7409TIP3    H222105   8.938   1.075   4.390
 7410TIP3   OH222106   8.315   5.243   7.633
 7410TIP3    H122107   8.396   5.200   7.660
 7410TIP3    H222108   8.302   5.312   7.699
 7411TIP3   OH222109   6.373   7.756   4.823
 7411TIP3    H122110   6.302   7.820   4.823
 7411TIP3    H222111   6.451   7.806   4.799
 7412TIP3   OH222112   3.735   3.375   2.018
 7412TIP3    H122113   3.757   3.399   1.928
 7412TIP3    H222114   3.683   3.295   2.009
 7413TIP3   OH222115   3.556   5.548   6.608
 7413TIP3    H122116   3.475   5.498   6.605
 7413TIP3    H222117   3.537   5.621   6.667
 7414TIP3   OH222118   1.907   3.869   7.371
 7414TIP3    H122119   1.963   3.792   7.376
 7414TIP3    H222120   1.883   3.876   7.279
 7415TIP3   OH222121   2.219   5.728   6.049
 7415TIP3    H122122   2.211   5.785   5.973
 7415TIP3    H222123   2.130   5.693   6.063
 7416TIP3   OH222124   0.824   6.543   5.896
 7416TIP3    H122125   0.762   6.484   5.939
 7416TIP3    H222126   0.784   6.630   5.903
 7417TIP3   OH222127   8.538   3.124   0.403
 7417TIP3    H122128   8.459   3.140   0.455
 7417TIP3    H222129   8.509   3.062   0.335
 7418TIP3   OH222130   4.470   4.019   6.814
 7418TIP3    H122131   4.486   4.081   6.885
 7418TIP3    H222132   4.557   3.995   6.782
 7419TIP3   OH222133   4.964   0.949   5.116
 7419TIP3    H122134   4.940   0.912   5.202
 7419TIP3    H222135   4.905   0.905   5.054
 7420TIP3   OH222136   0.633   6.197   3.404
 7420TIP3    H122137   0.571   6.237   3.465
 7420TIP3    H222138   0.582   6.129   3.360
 7421TIP3   OH222139   2.935   3.121   7.765
 7421TIP3    H122140   3.003   3.101   7.829
 7421TIP3    H222141   2.972   3.191   7.712
 7422TIP3   OH222142   4.425   1.145   6.695
 7422TIP3    H122143   4.385   1.074   6.646
 7422TIP3    H222144   4.351   1.187   6.740
 7423TIP3   OH222145   6.617   5.185   2.588
 7423TIP3    H122146   6.552   5.147   2.529
 7423TIP3    H222147   6.567   5.239   2.648
 7424TIP3   OH222148   5.749   6.587   1.546
 7424TIP3    H122149   5.823   6.565   1.602
 7424TIP3    H222150   5.786   6.638   1.475
 7425TIP3   OH222151   8.476   6.419   4.616
 7425TIP3    H122152   8.458   6.398   4.524
 7425TIP3    H222153   8.434   6.505   4.628
 7426TIP3   OH222154   3.471   8.095   2.516
 7426TIP3    H122155   3.376   8.100   2.516
 7426TIP3    H222156   3.495   8.074   2.426
 7427TIP3   OH222157   3.228   4.365   6.609
 7427TIP3    H122158   3.167   4.409   6.668
 7427TIP3    H222159   3.232   4.275   6.642
 7428TIP3   OH222160   0.338   5.834   0.594
 7428TIP3    H122161   0.349   5.758   0.536
 7428TIP3    H222162   0.339   5.798   0.682
 7429TIP3   OH222163   5.178   6.127   4.359
 7429TIP3    H122164   5.210   6.200   4.306
 7429TIP3    H222165   5.083   6.128   4.348
 7430TIP3   OH222166   2.761   4.538   4.274
 7430TIP3    H122167   2.754   4.462   4.216
 7430TIP3    H222168   2.765   4.501   4.362
 7431TIP3   OH222169   1.212   6.384   7.618
 7431TIP3    H122170   1.275   6.395   7.547
 7431TIP3    H222171   1.264   6.353   7.692
 7432TIP3   OH222172   7.332   6.473   1.786
 7432TIP3    H122173   7.283   6.390   1.787
 7432TIP3    H222174   7.340   6.496   1.878
 7433TIP3   OH222175   2.037   1.382   0.864
 7433TIP3    H122176   1.957   1.355   0.818
 7433TIP3    H222177   2.098   1.310   0.848
 7434TIP3   OH222178   9.390   5.867   0.818
 7434TIP3    H122179   9.338   5.946   0.805
 7434TIP3    H222180   9.348   5.801   0.763
 7435TIP3   OH222181   5.954   4.756   6.749
 7435TIP3    H122182   5.885   4.822   6.745
 7435TIP3    H222183   5.910   4.673   6.734
 7436TIP3   OH222184   3.827   1.556   5.400
 7436TIP3    H122185   3.815   1.637   5.449
 7436TIP3    H222186   3.919   1.558   5.373
 7437TIP3   OH222187   2.105   8.182   5.777
 7437TIP3    H122188   2.022   8.174   5.729
 7437TIP3    H222189   2.142   8.094   5.774
 7438TIP3   OH222190   3.474   7.281   0.647
 7438TIP3    H122191   3.391   7.240   0.621
 7438TIP3    H222192   3.482   7.263   0.740
 7439TIP3   OH222193   5.891   4.690   3.457
 7439TIP3    H122194   5.938   4.719   3.535
 7439TIP3    H222195   5.947   4.623   3.419
 7440TIP3   OH222196   4.888   6.029   7.340
 7440TIP3    H122197   4.912   6.106   7.393
 7440TIP3    H222198   4.794   6.037   7.328
 7441TIP3   OH222199   3.685   0.155   0.944
 7441TIP3    H122200   3.695   0.206   1.024
 7441TIP3    H222201   3.748   0.193   0.882
 7442TIP3   OH222202   3.004   2.303   1.783
 7442TIP3    H122203   3.086   2.253   1.792
 7442TIP3    H222204   2.994   2.346   1.868
 7443TIP3   OH222205   9.001   0.473   3.862
 7443TIP3    H122206   9.093   0.484   3.841
 7443TIP3    H222207   8.997   0.479   3.957
 7444TIP3   OH222208   5.069   7.602   6.919
 7444TIP3    H122209   5.062   7.610   7.015
 7444TIP3    H222210   5.059   7.508   6.903
 7445TIP3   OH222211   2.648   0.707   3.073
 7445TIP3    H122212   2.635   0.800   3.056
 7445TIP3    H222213   2.629   0.697   3.166
 7446TIP3   OH222214   8.691   7.188   0.692
 7446TIP3    H122215   8.771   7.163   0.738
 7446TIP3    H222216   8.697   7.142   0.608
 7447TIP3   OH222217   4.039   4.063   2.244
 7447TIP3    H122218   4.081   4.040   2.161
 7447TIP3    H222219   4.110   4.099   2.298
 7448TIP3   OH222220   2.390   3.082   3.611
 7448TIP3    H122221   2.412   3.164   3.568
 7448TIP3    H222222   2.301   3.062   3.582
 7449TIP3   OH222223   1.242   8.591   6.068
 7449TIP3    H122224   1.152   8.570   6.092
 7449TIP3    H222225   1.280   8.628   6.147
 7450TIP3   OH222226   4.764   4.664   5.072
 7450TIP3    H122227   4.770   4.627   5.160
 7450TIP3    H222228   4.695   4.614   5.029
 7451TIP3   OH222229   1.306   8.954   4.897
 7451TIP3    H122230   1.300   9.046   4.922
 7451TIP3    H222231   1.256   8.949   4.815
 7452TIP3   OH222232   7.094   2.789   1.062
 7452TIP3    H122233   7.046   2.762   1.140
 7452TIP3    H222234   7.147   2.863   1.091
 7453TIP3   OH222235   7.968   5.588   0.874
 7453TIP3    H122236   7.898   5.551   0.927
 7453TIP3    H222237   7.933   5.671   0.842
 7454TIP3   OH222238   4.648   8.950   2.892
 7454TIP3    H122239   4.590   9.023   2.916
 7454TIP3    H222240   4.693   8.980   2.813
 7455TIP3   OH222241   7.431   8.966   2.643
 7455TIP3    H122242   7.378   8.924   2.710
 7455TIP3    H222243   7.439   8.900   2.574
 7456TIP3   OH222244   8.167   5.385   7.042
 7456TIP3    H122245   8.111   5.311   7.063
 7456TIP3    H222246   8.250   5.346   7.015
 7457TIP3   OH222247   4.482   6.386   3.840
 7457TIP3    H122248   4.533   6.411   3.763
 7457TIP3    H222249   4.391   6.393   3.812
 7458TIP3   OH222250   5.522   7.617   3.936
 7458TIP3    H122251   5.534   7.694   3.881
 7458TIP3    H222252   5.433   7.625   3.970
 7459TIP3   OH222253   4.622   8.728   4.966
 7459TIP3    H122254   4.705   8.716   4.921
 7459TIP3    H222255   4.566   8.658   4.931
 7460TIP3   OH222256   6.663   3.777   3.873
 7460TIP3    H122257   6.613   3.793   3.793
 7460TIP3    H222258   6.723   3.851   3.879
 7461TIP3   OH222259   1.679   8.308   5.121
 7461TIP3    H122260   1.645   8.383   5.169
 7461TIP3    H222261   1.701   8.343   5.035
 7462TIP3   OH222262   7.753   2.329   4.845
 7462TIP3    H122263   7.786   2.359   4.760
 7462TIP3    H222264   7.706   2.405   4.880
 7463TIP3   OH222265   4.897   1.249   2.738
 7463TIP3    H122266   4.828   1.304   2.700
 7463TIP3    H222267   4.922   1.295   2.818
 7464TIP3   OH222268   9.256   2.547   2.486
 7464TIP3    H122269   9.294   2.628   2.452
 7464TIP3    H222270   9.308   2.477   2.446
 7465TIP3   OH222271   1.295   2.737   2.146
 7465TIP3    H122272   1.348   2.657   2.145
 7465TIP3    H222273   1.359   2.808   2.150
 7466TIP3   OH222274   3.718   5.977   7.295
 7466TIP3    H122275   3.683   6.066   7.286
 7466TIP3    H222276   3.755   5.957   7.209
 7467TIP3   OH222277   3.962   4.244   3.321
 7467TIP3    H122278   3.900   4.247   3.394
 7467TIP3    H222279   4.020   4.170   3.342
 7468TIP3   OH222280   9.521   7.546   1.236
 7468TIP3    H122281   9.590   7.577   1.294
 7468TIP3    H222282   9.515   7.452   1.254
 7469TIP3   OH222283   2.186   4.890   7.202
 7469TIP3    H122284   2.098   4.854   7.194
 7469TIP3    H222285   2.191   4.955   7.131
 7470TIP3   OH222286   2.031   7.345   5.529
 7470TIP3    H122287   2.054   7.262   5.487
 7470TIP3    H222288   1.937   7.340   5.544
 7471TIP3   OH222289   5.738   1.511   4.481
 7471TIP3    H122290   5.774   1.600   4.486
 7471TIP3    H222291   5.680   1.505   4.557
 7472TIP3   OH222292   9.044   4.049   4.303
 7472TIP3    H122293   8.950   4.061   4.293
 7472TIP3    H222294   9.078   4.050   4.214
 7473TIP3   OH222295   8.914   2.041   4.406
 7473TIP3    H122296   8.937   1.999   4.489
 7473TIP3    H222297   8.839   1.991   4.374
 7474TIP3   OH222298   2.707   4.168   6.159
 7474TIP3    H122299   2.684   4.079   6.188
 7474TIP3    H222300   2.642   4.188   6.092
 7475TIP3   OH222301   4.014   8.539   2.121
 7475TIP3    H122302   4.100   8.552   2.160
 7475TIP3    H222303   4.007   8.445   2.108
 7476TIP3   OH222304   3.156   2.290   1.083
 7476TIP3    H122305   3.095   2.230   1.040
 7476TIP3    H222306   3.147   2.271   1.176
 7477TIP3   OH222307   3.515   6.523   7.776
 7477TIP3    H122308   3.531   6.614   7.750
 7477TIP3    H222309   3.593   6.500   7.828
 7478TIP3   OH222310   3.190   5.828   7.026
 7478TIP3    H122311   3.150   5.774   6.958
 7478TIP3    H222312   3.154   5.794   7.108
 7479TIP3   OH222313   0.988   3.521   4.326
 7479TIP3    H122314   0.909   3.475   4.296
 7479TIP3    H222315   0.964   3.614   4.321
 7480TIP3   OH222316   0.387   2.417   1.865
 7480TIP3    H122317   0.356   2.447   1.779
 7480TIP3    H222318   0.382   2.322   1.860
 7481TIP3   OH222319   8.455   4.783   3.794
 7481TIP3    H122320   8.480   4.723   3.865
 7481TIP3    H222321   8.478   4.736   3.714
 7482TIP3   OH222322   3.541   3.872   5.929
 7482TIP3    H122323   3.498   3.930   5.991
 7482TIP3    H222324   3.501   3.786   5.945
 7483TIP3   OH222325   2.995   1.016   0.818
 7483TIP3    H122326   2.988   0.931   0.861
 7483TIP3    H222327   2.906   1.051   0.821
 7484TIP3   OH222328   2.637   6.012   2.120
 7484TIP3    H122329   2.691   5.966   2.185
 7484TIP3    H222330   2.700   6.061   2.068
 7485TIP3   OH222331   7.300   0.470   3.878
 7485TIP3    H122332   7.375   0.411   3.873
 7485TIP3    H222333   7.246   0.448   3.802
 7486TIP3   OH222334   6.541   4.354   7.136
 7486TIP3    H122335   6.613   4.366   7.198
 7486TIP3    H222336   6.568   4.403   7.058
 7487TIP3   OH222337   5.669   2.998   5.522
 7487TIP3    H122338   5.641   2.967   5.608
 7487TIP3    H222339   5.588   3.014   5.475
 7488TIP3   OH222340   6.037   5.942   6.343
 7488TIP3    H122341   6.123   5.906   6.364
 7488TIP3    H222342   6.000   5.968   6.428
 7489TIP3   OH222343   5.968   5.403   7.226
 7489TIP3    H122344   5.961   5.406   7.321
 7489TIP3    H222345   6.061   5.390   7.209
 7490TIP3   OH222346   1.228   5.205   0.340
 7490TIP3    H122347   1.145   5.170   0.306
 7490TIP3    H222348   1.295   5.150   0.299
 7491TIP3   OH222349   0.753   4.070   3.536
 7491TIP3    H122350   0.705   4.011   3.594
 7491TIP3    H222351   0.745   4.156   3.578
 7492TIP3   OH222352   3.721   5.754   3.878
 7492TIP3    H122353   3.753   5.665   3.866
 7492TIP3    H222354   3.779   5.792   3.944
 7493TIP3   OH222355   0.871   6.979   2.675
 7493TIP3    H122356   0.920   6.912   2.722
 7493TIP3    H222357   0.894   7.061   2.719
 7494TIP3   OH222358   2.778   3.735   5.216
 7494TIP3    H122359   2.778   3.648   5.257
 7494TIP3    H222360   2.731   3.790   5.277
 7495TIP3   OH222361   5.438   3.544   6.110
 7495TIP3    H122362   5.417   3.622   6.059
 7495TIP3    H222363   5.426   3.571   6.201
 7496TIP3   OH222364   1.719   8.412   5.778
 7496TIP3    H122365   1.715   8.325   5.820
 7496TIP3    H222366   1.812   8.433   5.775
 7497TIP3   OH222367   4.545   8.425   1.945
 7497TIP3    H122368   4.600   8.428   1.867
 7497TIP3    H222369   4.473   8.367   1.921
 7498TIP3   OH222370   8.875   2.407   2.264
 7498TIP3    H122371   8.785   2.400   2.297
 7498TIP3    H222372   8.929   2.370   2.334
 7499TIP3   OH222373   8.046   5.958   7.513
 7499TIP3    H122374   7.997   5.908   7.448
 7499TIP3    H222375   8.135   5.960   7.480
 7500TIP3   OH222376   9.522   8.089   5.815
 7500TIP3    H122377   9.473   8.027   5.761
 7500TIP3    H222378   9.532   8.045   5.900
 7501TIP3   OH222379   1.435   3.995   5.444
 7501TIP3    H122380   1.455   3.983   5.351
 7501TIP3    H222381   1.513   4.037   5.480
 7502TIP3   OH222382   8.693   2.955   6.870
 7502TIP3    H122383   8.738   2.878   6.835
 7502TIP3    H222384   8.733   3.029   6.826
 7503TIP3   OH222385   3.361   4.730   0.425
 7503TIP3    H122386   3.392   4.726   0.335
 7503TIP3    H222387   3.440   4.722   0.478
 7504TIP3   OH222388   6.292   2.628   1.812
 7504TIP3    H122389   6.377   2.623   1.769
 7504TIP3    H222390   6.313   2.637   1.905
 7505TIP3   OH222391   4.196   2.089   3.613
 7505TIP3    H122392   4.229   2.111   3.526
 7505TIP3    H222393   4.274   2.088   3.669
 7506TIP3   OH222394   4.325   2.816   1.078
 7506TIP3    H122395   4.383   2.792   1.006
 7506TIP3    H222396   4.252   2.754   1.072
 7507TIP3   OH222397   2.574   7.481   6.582
 7507TIP3    H122398   2.644   7.481   6.516
 7507TIP3    H222399   2.610   7.532   6.655
 7508TIP3   OH222400   8.567   1.265   0.526
 7508TIP3    H122401   8.508   1.219   0.466
 7508TIP3    H222402   8.525   1.255   0.612
 7509TIP3   OH222403   8.159   0.927   6.392
 7509TIP3    H122404   8.124   0.848   6.351
 7509TIP3    H222405   8.102   0.998   6.361
 7510TIP3   OH222406   9.517   6.597   1.156
 7510TIP3    H122407   9.566   6.678   1.141
 7510TIP3    H222408   9.425   6.624   1.153
 7511TIP3   OH222409   4.669   5.847   6.004
 7511TIP3    H122410   4.600   5.839   6.070
 7511TIP3    H222411   4.629   5.895   5.932
 7512TIP3   OH222412   0.108   6.359   0.307
 7512TIP3    H122413   0.145   6.279   0.268
 7512TIP3    H222414   0.016   6.357   0.280
 7513TIP3   OH222415   7.295   0.336   1.159
 7513TIP3    H122416   7.260   0.332   1.248
 7513TIP3    H222417   7.258   0.259   1.115
 7514TIP3   OH222418   1.034   0.301   0.157
 7514TIP3    H122419   1.118   0.288   0.113
 7514TIP3    H222420   1.053   0.360   0.229
 7515TIP3   OH222421   1.867   7.194   7.306
 7515TIP3    H122422   1.936   7.184   7.241
 7515TIP3    H222423   1.881   7.122   7.367
 7516TIP3   OH222424   6.601   4.571   3.935
 7516TIP3    H122425   6.636   4.533   4.016
 7516TIP3    H222426   6.570   4.496   3.884
 7517TIP3   OH222427   4.003   7.180   5.297
 7517TIP3    H122428   4.017   7.249   5.233
 7517TIP3    H222429   4.003   7.226   5.381
 7518TIP3   OH222430   5.444   5.039   2.282
 7518TIP3    H122431   5.431   5.091   2.361
 7518TIP3    H222432   5.379   5.073   2.220
 7519TIP3   OH222433   0.968   2.895   2.745
 7519TIP3    H122434   0.890   2.864   2.699
 7519TIP3    H222435   0.934   2.930   2.828
 7520TIP3   OH222436   2.038   4.517   6.954
 7520TIP3    H122437   2.059   4.568   7.032
 7520TIP3    H222438   1.960   4.468   6.978
 7521TIP3   OH222439   8.916   7.995   6.944
 7521TIP3    H122440   8.935   8.076   6.896
 7521TIP3    H222441   8.953   7.926   6.889
 7522TIP3   OH222442   1.478   7.562   2.356
 7522TIP3    H122443   1.457   7.554   2.263
 7522TIP3    H222444   1.513   7.651   2.365
 7523TIP3   OH222445   9.362   5.084   4.843
 7523TIP3    H122446   9.440   5.044   4.805
 7523TIP3    H222447   9.391   5.118   4.928
 7524TIP3   OH222448   9.332   1.523   6.364
 7524TIP3    H122449   9.287   1.606   6.374
 7524TIP3    H222450   9.408   1.529   6.421
 7525TIP3   OH222451   1.702   1.695   3.493
 7525TIP3    H122452   1.751   1.614   3.508
 7525TIP3    H222453   1.615   1.666   3.464
 7526TIP3   OH222454   0.875   0.224   3.310
 7526TIP3    H122455   0.947   0.199   3.253
 7526TIP3    H222456   0.843   0.141   3.346
 7527TIP3   OH222457   0.266   8.280   6.890
 7527TIP3    H122458   0.201   8.232   6.838
 7527TIP3    H222459   0.337   8.298   6.829
 7528TIP3   OH222460   8.333   1.054   0.678
 7528TIP3    H122461   8.242   1.084   0.683
 7528TIP3    H222462   8.382   1.118   0.730
 7529TIP3   OH222463   5.937   5.744   0.633
 7529TIP3    H122464   5.912   5.814   0.693
 7529TIP3    H222465   5.865   5.681   0.638
 7530TIP3   OH222466   7.232   0.184   3.268
 7530TIP3    H122467   7.149   0.231   3.257
 7530TIP3    H222468   7.208   0.091   3.261
 7531TIP3   OH222469   6.301   1.356   4.881
 7531TIP3    H122470   6.215   1.317   4.869
 7531TIP3    H222471   6.324   1.390   4.794
 7532TIP3   OH222472   7.274   3.120   6.510
 7532TIP3    H122473   7.300   3.105   6.419
 7532TIP3    H222474   7.353   3.105   6.561
 7533TIP3   OH222475   5.011   3.643   5.752
 7533TIP3    H122476   4.951   3.569   5.739
 7533TIP3    H222477   4.962   3.703   5.809
 7534TIP3   OH222478   1.063   2.343   6.478
 7534TIP3    H122479   0.972   2.369   6.493
 7534TIP3    H222480   1.111   2.383   6.551
 7535TIP3   OH222481   8.270   3.962   5.284
 7535TIP3    H122482   8.331   3.991   5.352
 7535TIP3    H222483   8.324   3.954   5.205
 7536TIP3   OH222484   6.901   7.798   3.736
 7536TIP3    H122485   6.970   7.812   3.801
 7536TIP3    H222486   6.825   7.768   3.786
 7537TIP3   OH222487   6.477   3.341   1.626
 7537TIP3    H122488   6.435   3.330   1.541
 7537TIP3    H222489   6.434   3.277   1.682
 7538TIP3   OH222490   4.600   3.392   3.174
 7538TIP3    H122491   4.594   3.440   3.257
 7538TIP3    H222492   4.539   3.318   3.184
 7539TIP3   OH222493   3.609   8.270   2.699
 7539TIP3    H122494   3.571   8.198   2.749
 7539TIP3    H222495   3.593   8.248   2.608
 7540TIP3   OH222496   4.806   0.896   0.962
 7540TIP3    H122497   4.828   0.823   1.020
 7540TIP3    H222498   4.856   0.880   0.882
 7541TIP3   OH222499   8.649   5.052   1.319
 7541TIP3    H122500   8.700   5.105   1.258
 7541TIP3    H222501   8.628   5.112   1.391
 7542TIP3   OH222502   4.701   8.681   0.121
 7542TIP3    H122503   4.791   8.697   0.149
 7542TIP3    H222504   4.660   8.638   0.196
 7543TIP3   OH222505   6.770   7.133   6.711
 7543TIP3    H122506   6.857   7.173   6.723
 7543TIP3    H222507   6.772   7.056   6.767
 7544TIP3   OH222508   9.515   6.037   5.380
 7544TIP3    H122509   9.444   6.090   5.343
 7544TIP3    H222510   9.570   6.013   5.306
 7545TIP3   OH222511   9.449   2.284   5.376
 7545TIP3    H122512   9.371   2.330   5.406
 7545TIP3    H222513   9.434   2.193   5.400
 7546TIP3   OH222514   0.231   5.192   1.278
 7546TIP3    H122515   0.308   5.183   1.333
 7546TIP3    H222516   0.242   5.127   1.209
 7547TIP3   OH222517   5.220   5.457   6.448
 7547TIP3    H122518   5.185   5.462   6.537
 7547TIP3    H222519   5.242   5.365   6.437
 7548TIP3   OH222520   2.439   4.966   3.734
 7548TIP3    H122521   2.527   5.002   3.722
 7548TIP3    H222522   2.386   5.009   3.666
 7549TIP3   OH222523   4.739   4.288   6.209
 7549TIP3    H122524   4.687   4.367   6.223
 7549TIP3    H222525   4.690   4.218   6.251
 7550TIP3   OH222526   5.225   6.108   0.749
 7550TIP3    H122527   5.199   6.056   0.825
 7550TIP3    H222528   5.320   6.105   0.749
 7551TIP3   OH222529   4.874   5.122   0.905
 7551TIP3    H122530   4.780   5.107   0.913
 7551TIP3    H222531   4.884   5.217   0.911
 7552TIP3   OH222532   5.238   5.328   0.828
 7552TIP3    H122533   5.240   5.272   0.751
 7552TIP3    H222534   5.225   5.267   0.901
 7553TIP3   OH222535   5.483   3.377   4.850
 7553TIP3    H122536   5.511   3.401   4.939
 7553TIP3    H222537   5.397   3.336   4.863
 7554TIP3   OH222538   1.600   4.463   4.103
 7554TIP3    H122539   1.572   4.398   4.168
 7554TIP3    H222540   1.518   4.497   4.066
 7555TIP3   OH222541   2.997   3.937   4.821
 7555TIP3    H122542   3.093   3.944   4.825
 7555TIP3    H222543   2.966   4.014   4.869
 7556TIP3   OH222544   0.074   8.549   5.275
 7556TIP3    H122545   0.020   8.546   5.196
 7556TIP3    H222546   0.140   8.481   5.261
 7557TIP3   OH222547   1.858   3.739   3.224
 7557TIP3    H122548   1.904   3.675   3.278
 7557TIP3    H222549   1.765   3.720   3.239
 7558TIP3   OH222550   8.315   1.848   7.031
 7558TIP3    H122551   8.278   1.761   7.016
 7558TIP3    H222552   8.389   1.832   7.090
 7559TIP3   OH222553   2.193   2.737   4.198
 7559TIP3    H122554   2.145   2.788   4.264
 7559TIP3    H222555   2.153   2.650   4.201
 7560TIP3   OH222556   5.192   6.066   1.693
 7560TIP3    H122557   5.182   6.066   1.598
 7560TIP3    H222558   5.105   6.045   1.727
 7561TIP3   OH222559   9.153   1.358   5.328
 7561TIP3    H122560   9.185   1.392   5.411
 7561TIP3    H222561   9.105   1.278   5.352
 7562TIP3   OH222562   2.530   4.545   5.240
 7562TIP3    H122563   2.489   4.628   5.262
 7562TIP3    H222564   2.576   4.561   5.158
 7563TIP3   OH222565   2.785   6.479   2.599
 7563TIP3    H122566   2.755   6.567   2.618
 7563TIP3    H222567   2.766   6.429   2.679
 7564TIP3   OH222568   4.861   1.288   1.661
 7564TIP3    H122569   4.852   1.203   1.703
 7564TIP3    H222570   4.950   1.288   1.626
 7565TIP3   OH222571   6.400   0.348   4.247
 7565TIP3    H122572   6.377   0.364   4.156
 7565TIP3    H222573   6.346   0.410   4.296
 7566TIP3   OH222574   4.000   5.959   6.579
 7566TIP3    H122575   4.064   5.903   6.534
 7566TIP3    H222576   4.026   5.956   6.671
 7567TIP3   OH222577   2.362   6.928   3.958
 7567TIP3    H122578   2.309   6.966   3.888
 7567TIP3    H222579   2.301   6.913   4.030
 7568TIP3   OH222580   2.325   4.363   5.242
 7568TIP3    H122581   2.386   4.430   5.211
 7568TIP3    H222582   2.380   4.304   5.294
 7569TIP3   OH222583   5.113   8.105   4.651
 7569TIP3    H122584   5.034   8.050   4.652
 7569TIP3    H222585   5.178   8.052   4.605
 7570TIP3   OH222586   6.168   6.428   1.904
 7570TIP3    H122587   6.180   6.457   1.994
 7570TIP3    H222588   6.079   6.390   1.903
 7571TIP3   OH222589   3.436   5.621   7.185
 7571TIP3    H122590   3.423   5.607   7.091
 7571TIP3    H222591   3.349   5.614   7.223
 7572TIP3   OH222592   3.165   3.322   1.562
 7572TIP3    H122593   3.180   3.375   1.641
 7572TIP3    H222594   3.121   3.382   1.501
 7573TIP3   OH222595   7.083   1.280   2.891
 7573TIP3    H122596   7.098   1.195   2.931
 7573TIP3    H222597   7.170   1.321   2.888
 7574TIP3   OH222598   6.058   4.233   3.821
 7574TIP3    H122599   6.040   4.191   3.905
 7574TIP3    H222600   6.028   4.323   3.832
 7575TIP3   OH222601   3.189   4.886   6.900
 7575TIP3    H122602   3.255   4.817   6.906
 7575TIP3    H222603   3.209   4.932   6.819
 7576TIP3   OH222604   4.067   6.720   2.965
 7576TIP3    H122605   4.151   6.681   2.986
 7576TIP3    H222606   4.022   6.654   2.912
 7577TIP3   OH222607   4.171   8.160   5.190
 7577TIP3    H122608   4.201   8.243   5.227
 7577TIP3    H222609   4.177   8.097   5.262
 7578TIP3   OH222610   4.347   8.630   5.153
 7578TIP3    H122611   4.352   8.697   5.221
 7578TIP3    H222612   4.328   8.678   5.073
 7579TIP3   OH222613   5.187   6.744   6.425
 7579TIP3    H122614   5.209   6.678   6.358
 7579TIP3    H222615   5.093   6.755   6.417
 7580TIP3   OH222616   4.039   1.055   7.622
 7580TIP3    H122617   4.027   1.145   7.592
 7580TIP3    H222618   3.954   1.013   7.606
 7581TIP3   OH222619   3.060   3.234   0.810
 7581TIP3    H122620   2.985   3.293   0.814
 7581TIP3    H222621   3.023   3.149   0.788
 7582TIP3   OH222622   0.138   1.144   0.261
 7582TIP3    H122623   0.167   1.166   0.173
 7582TIP3    H222624   0.100   1.226   0.294
 7583TIP3   OH222625   2.956   6.842   1.654
 7583TIP3    H122626   2.960   6.746   1.645
 7583TIP3    H222627   2.871   6.858   1.697
 7584TIP3   OH222628   6.138   0.276   2.544
 7584TIP3    H122629   6.099   0.248   2.627
 7584TIP3    H222630   6.087   0.353   2.518
 7585TIP3   OH222631   3.256   6.492   4.967
 7585TIP3    H122632   3.224   6.549   4.896
 7585TIP3    H222633   3.193   6.505   5.038
 7586TIP3   OH222634   3.223   5.394   4.532
 7586TIP3    H122635   3.266   5.475   4.504
 7586TIP3    H222636   3.252   5.383   4.623
 7587TIP3   OH222637   7.793   3.477   4.240
 7587TIP3    H122638   7.706   3.439   4.253
 7587TIP3    H222639   7.850   3.426   4.298
 7588TIP3   OH222640   6.331   2.908   7.575
 7588TIP3    H122641   6.408   2.881   7.626
 7588TIP3    H222642   6.366   2.929   7.489
 7589TIP3   OH222643   1.067   8.408   1.908
 7589TIP3    H122644   1.080   8.448   1.994
 7589TIP3    H222645   0.976   8.377   1.909
 7590TIP3   OH222646   1.666   4.999   7.702
 7590TIP3    H122647   1.650   4.981   7.794
 7590TIP3    H222648   1.733   5.067   7.702
 7591TIP3   OH222649   6.968   0.220   3.987
 7591TIP3    H122650   6.948   0.301   3.941
 7591TIP3    H222651   6.946   0.151   3.925
 7592TIP3   OH222652   6.766   5.447   1.134
 7592TIP3    H122653   6.810   5.363   1.146
 7592TIP3    H222654   6.674   5.430   1.155
 7593TIP3   OH222655   0.085   4.062   2.847
 7593TIP3    H122656   0.031   4.126   2.893
 7593TIP3    H222657   0.025   3.991   2.826
 7594TIP3   OH222658   9.389   3.827   4.237
 7594TIP3    H122659   9.476   3.814   4.197
 7594TIP3    H222660   9.404   3.892   4.305
 7595TIP3   OH222661   7.019   4.726   3.240
 7595TIP3    H122662   7.001   4.700   3.150
 7595TIP3    H222663   7.106   4.689   3.259
 7596TIP3   OH222664   8.417   7.716   4.832
 7596TIP3    H122665   8.383   7.806   4.828
 7596TIP3    H222666   8.372   7.671   4.760
 7597TIP3   OH222667   5.008   1.547   2.415
 7597TIP3    H122668   5.081   1.486   2.427
 7597TIP3    H222669   5.050   1.630   2.391
 7598TIP3   OH222670   2.821   7.587   0.426
 7598TIP3    H122671   2.771   7.526   0.371
 7598TIP3    H222672   2.755   7.628   0.482
 7599TIP3   OH222673   2.227   6.340   1.817
 7599TIP3    H122674   2.270   6.257   1.796
 7599TIP3    H222675   2.135   6.316   1.832
 7600TIP3   OH222676   0.939   7.890   0.395
 7600TIP3    H122677   0.938   7.936   0.311
 7600TIP3    H222678   1.032   7.878   0.415
 7601TIP3   OH222679   3.417   0.598   4.580
 7601TIP3    H122680   3.509   0.615   4.603
 7601TIP3    H222681   3.387   0.538   4.648
 7602TIP3   OH222682   8.172   0.607   4.996
 7602TIP3    H122683   8.247   0.548   4.996
 7602TIP3    H222684   8.097   0.552   4.975
 7603TIP3   OH222685   1.823   2.868   5.561
 7603TIP3    H122686   1.916   2.880   5.544
 7603TIP3    H222687   1.819   2.809   5.635
 7604TIP3   OH222688   2.777   5.792   6.100
 7604TIP3    H122689   2.746   5.731   6.033
 7604TIP3    H222690   2.700   5.845   6.121
 7605TIP3   OH222691   9.547   3.289   6.295
 7605TIP3    H122692   9.606   3.223   6.259
 7605TIP3    H222693   9.589   3.373   6.276
 7606TIP3   OH222694   1.676   5.673   4.566
 7606TIP3    H122695   1.703   5.757   4.605
 7606TIP3    H222696   1.616   5.697   4.496
 7607TIP3   OH222697   7.535   8.742   3.655
 7607TIP3    H122698   7.588   8.819   3.680
 7607TIP3    H222699   7.527   8.748   3.560
 7608TIP3   OH222700   2.396   0.985   3.841
 7608TIP3    H122701   2.407   1.070   3.883
 7608TIP3    H222702   2.465   0.982   3.774
 7609TIP3   OH222703   8.647   5.751   2.035
 7609TIP3    H122704   8.681   5.735   2.123
 7609TIP3    H222705   8.725   5.777   1.985
 7610TIP3   OH222706   8.794   5.072   7.811
 7610TIP3    H122707   8.784   4.982   7.780
 7610TIP3    H222708   8.749   5.125   7.745
 7611TIP3   OH222709   3.061   2.829   1.846
 7611TIP3    H122710   3.099   2.860   1.763
 7611TIP3    H222711   3.113   2.872   1.913
 7612TIP3   OH222712   3.530   6.368   7.069
 7612TIP3    H122713   3.511   6.305   6.999
 7612TIP3    H222714   3.559   6.447   7.023
 7613TIP3   OH222715   7.002   7.596   1.206
 7613TIP3    H122716   7.032   7.561   1.122
 7613TIP3    H222717   6.930   7.537   1.232
 7614TIP3   OH222718   6.635   8.958   3.936
 7614TIP3    H122719   6.691   8.958   4.014
 7614TIP3    H222720   6.554   8.916   3.966
 7615TIP3   OH222721   7.360   6.519   6.761
 7615TIP3    H122722   7.451   6.549   6.763
 7615TIP3    H222723   7.365   6.425   6.778
 7616TIP3   OH222724   1.462   5.988   0.076
 7616TIP3    H122725   1.528   5.968   0.142
 7616TIP3    H222726   1.510   5.992  -0.006
 7617TIP3   OH222727   5.421   4.648   0.421
 7617TIP3    H122728   5.409   4.683   0.333
 7617TIP3    H222729   5.352   4.689   0.473
 7618TIP3   OH222730   6.519   6.899   6.600
 7618TIP3    H122731   6.555   6.957   6.668
 7618TIP3    H222732   6.526   6.950   6.520
 7619TIP3   OH222733   1.405   7.394   4.194
 7619TIP3    H122734   1.348   7.470   4.176
 7619TIP3    H222735   1.402   7.342   4.114
 7620TIP3   OH222736   4.489   9.002   4.027
 7620TIP3    H122737   4.454   8.962   4.107
 7620TIP3    H222738   4.425   9.069   4.003
 7621TIP3   OH222739   8.856   3.384   5.831
 7621TIP3    H122740   8.773   3.374   5.785
 7621TIP3    H222741   8.905   3.447   5.778
 7622TIP3   OH222742   2.919   6.819   5.644
 7622TIP3    H122743   2.961   6.743   5.603
 7622TIP3    H222744   2.949   6.817   5.735
 7623TIP3   OH222745   7.307   2.461   7.458
 7623TIP3    H122746   7.298   2.383   7.403
 7623TIP3    H222747   7.375   2.437   7.522
 7624TIP3   OH222748   1.196   5.606   5.394
 7624TIP3    H122749   1.273   5.587   5.447
 7624TIP3    H222750   1.226   5.672   5.331
 7625TIP3   OH222751   9.530   5.771   2.656
 7625TIP3    H122752   9.450   5.814   2.625
 7625TIP3    H222753   9.502   5.720   2.732
 7626TIP3   OH222754   0.055   0.648   4.257
 7626TIP3    H122755   0.051   0.607   4.343
 7626TIP3    H222756  -0.027   0.698   4.251
 7627TIP3   OH222757   1.172   0.925   7.426
 7627TIP3    H122758   1.095   0.884   7.387
 7627TIP3    H222759   1.176   0.889   7.514
 7628TIP3   OH222760   9.195   4.966   7.598
 7628TIP3    H122761   9.185   5.059   7.619
 7628TIP3    H222762   9.289   4.948   7.611
 7629TIP3   OH222763   6.454   3.438   2.561
 7629TIP3    H122764   6.483   3.513   2.510
 7629TIP3    H222765   6.376   3.406   2.515
 7630TIP3   OH222766   5.286   8.867   7.709
 7630TIP3    H122767   5.374   8.828   7.708
 7630TIP3    H222768   5.236   8.812   7.770
 7631TIP3   OH222769   7.960   1.121   7.432
 7631TIP3    H122770   7.912   1.041   7.409
 7631TIP3    H222771   8.050   1.104   7.407
 7632TIP3   OH222772   2.693   8.309   4.293
 7632TIP3    H122773   2.753   8.265   4.353
 7632TIP3    H222774   2.625   8.346   4.349
 7633TIP3   OH222775   4.870   8.432   5.455
 7633TIP3    H122776   4.877   8.374   5.531
 7633TIP3    H222777   4.926   8.392   5.389
 7634TIP3   OH222778   5.095   2.835   3.308
 7634TIP3    H122779   5.141   2.918   3.326
 7634TIP3    H222780   5.016   2.840   3.362
 7635TIP3   OH222781   0.177   4.185   4.161
 7635TIP3    H122782   0.121   4.218   4.090
 7635TIP3    H222783   0.217   4.264   4.198
 7636TIP3   OH222784   5.822   2.398   2.036
 7636TIP3    H122785   5.851   2.469   1.978
 7636TIP3    H222786   5.726   2.405   2.035
 7637TIP3   OH222787   4.963   5.577   4.844
 7637TIP3    H122788   4.983   5.661   4.887
 7637TIP3    H222789   4.994   5.511   4.906
 7638TIP3   OH222790   9.513   1.210   2.131
 7638TIP3    H122791   9.462   1.267   2.188
 7638TIP3    H222792   9.591   1.188   2.182
 7639TIP3   OH222793   5.484   1.811   1.952
 7639TIP3    H122794   5.563   1.865   1.950
 7639TIP3    H222795   5.453   1.818   2.042
 7640TIP3   OH222796   2.643   5.828   1.876
 7640TIP3    H122797   2.663   5.802   1.966
 7640TIP3    H222798   2.548   5.842   1.875
 7641TIP3   OH222799   5.605   0.206   6.614
 7641TIP3    H122800   5.531   0.146   6.626
 7641TIP3    H222801   5.648   0.209   6.700
 7642TIP3   OH222802   7.172   3.056   1.590
 7642TIP3    H122803   7.146   2.992   1.656
 7642TIP3    H222804   7.111   3.129   1.602
 7643TIP3   OH222805   3.350   0.051   1.932
 7643TIP3    H122806   3.309   0.076   2.015
 7643TIP3    H222807   3.346   0.131   1.878
 7644TIP3   OH222808   8.168   7.327   4.519
 7644TIP3    H122809   8.075   7.306   4.517
 7644TIP3    H222810   8.211   7.244   4.538
 7645TIP3   OH222811   8.671   1.463   6.119
 7645TIP3    H122812   8.611   1.538   6.120
 7645TIP3    H222813   8.751   1.496   6.160
 7646TIP3   OH222814   4.175   3.636   2.761
 7646TIP3    H122815   4.143   3.721   2.730
 7646TIP3    H222816   4.264   3.629   2.725
 7647TIP3   OH222817   5.175   3.347   1.069
 7647TIP3    H122818   5.085   3.326   1.093
 7647TIP3    H222819   5.220   3.262   1.068
 7648TIP3   OH222820   1.198   0.973   1.880
 7648TIP3    H122821   1.106   0.965   1.906
 7648TIP3    H222822   1.239   0.893   1.912
 7649TIP3   OH222823   1.057   4.781   2.498
 7649TIP3    H122824   0.993   4.780   2.428
 7649TIP3    H222825   1.070   4.688   2.520
 7650TIP3   OH222826   6.290   7.986   0.282
 7650TIP3    H122827   6.271   8.077   0.303
 7650TIP3    H222828   6.226   7.964   0.213
 7651TIP3   OH222829   9.087   5.471   5.813
 7651TIP3    H122830   9.023   5.420   5.862
 7651TIP3    H222831   9.108   5.545   5.870
 7652TIP3   OH222832   0.937   7.083   7.530
 7652TIP3    H122833   0.853   7.040   7.512
 7652TIP3    H222834   0.921   7.176   7.511
 7653TIP3   OH222835   3.416   1.471   6.062
 7653TIP3    H122836   3.510   1.469   6.082
 7653TIP3    H222837   3.390   1.561   6.078
 7654TIP3   OH222838   7.525   4.695   6.468
 7654TIP3    H122839   7.452   4.749   6.436
 7654TIP3    H222840   7.574   4.672   6.390
 7655TIP3   OH222841   9.273   6.580   4.617
 7655TIP3    H122842   9.230   6.603   4.534
 7655TIP3    H222843   9.294   6.487   4.608
 7656TIP3   OH222844   0.770   1.196   1.781
 7656TIP3    H122845   0.793   1.248   1.858
 7656TIP3    H222846   0.854   1.177   1.738
 7657TIP3   OH222847   8.966   7.414   0.929
 7657TIP3    H122848   8.880   7.415   0.970
 7657TIP3    H222849   9.020   7.470   0.984
 7658TIP3   OH222850   9.048   5.338   1.457
 7658TIP3    H122851   9.143   5.327   1.458
 7658TIP3    H222852   9.016   5.271   1.517
 7659TIP3   OH222853   2.592   0.247   7.365
 7659TIP3    H122854   2.549   0.298   7.297
 7659TIP3    H222855   2.534   0.172   7.380
 7660TIP3   OH222856   0.798   0.463   6.494
 7660TIP3    H122857   0.842   0.379   6.511
 7660TIP3    H222858   0.759   0.452   6.408
 7661TIP3   OH222859   8.889   3.088   5.854
 7661TIP3    H122860   8.809   3.047   5.820
 7661TIP3    H222861   8.877   3.181   5.836
 7662TIP3   OH222862   2.586   3.875   3.056
 7662TIP3    H122863   2.551   3.916   2.977
 7662TIP3    H222864   2.586   3.781   3.037
 7663TIP3   OH222865   9.178   3.279   5.459
 7663TIP3    H122866   9.116   3.247   5.394
 7663TIP3    H222867   9.198   3.202   5.512
 7664TIP3   OH222868   1.599   6.668   4.145
 7664TIP3    H122869   1.575   6.691   4.235
 7664TIP3    H222870   1.657   6.738   4.117
 7665TIP3   OH222871   6.751   4.964   5.502
 7665TIP3    H122872   6.712   5.015   5.573
 7665TIP3    H222873   6.836   5.005   5.486
 7666TIP3   OH222874   8.036   1.136   7.703
 7666TIP3    H122875   8.127   1.142   7.673
 7666TIP3    H222876   7.986   1.116   7.624
 7667TIP3   OH222877   0.985   0.294   7.699
 7667TIP3    H122878   1.003   0.204   7.671
 7667TIP3    H222879   0.923   0.285   7.772
 7668TIP3   OH222880   2.347   0.365   6.479
 7668TIP3    H122881   2.322   0.345   6.570
 7668TIP3    H222882   2.352   0.460   6.476
 7669TIP3   OH222883   3.905   6.293   6.996
 7669TIP3    H122884   3.852   6.225   7.039
 7669TIP3    H222885   3.872   6.295   6.906
 7670TIP3   OH222886   2.049   7.713   2.104
 7670TIP3    H122887   2.106   7.784   2.133
 7670TIP3    H222888   2.096   7.673   2.030
 7671TIP3   OH222889   0.931   8.446   1.058
 7671TIP3    H122890   1.017   8.487   1.073
 7671TIP3    H222891   0.896   8.492   0.982
 7672TIP3   OH222892   1.767   4.647   6.957
 7672TIP3    H122893   1.782   4.629   6.865
 7672TIP3    H222894   1.784   4.564   7.001
 7673TIP3   OH222895   1.686   0.727   3.191
 7673TIP3    H122896   1.610   0.716   3.134
 7673TIP3    H222897   1.665   0.803   3.245
 7674TIP3   OH222898   2.305   2.149   3.440
 7674TIP3    H122899   2.243   2.084   3.407
 7674TIP3    H222900   2.364   2.099   3.497
 7675TIP3   OH222901   7.907   4.944   4.025
 7675TIP3    H122902   7.845   4.965   4.095
 7675TIP3    H222903   7.879   4.997   3.951
 7676TIP3   OH222904   8.955   7.550   4.129
 7676TIP3    H122905   8.976   7.582   4.218
 7676TIP3    H222906   9.028   7.493   4.107
 7677TIP3   OH222907   3.757   8.827   7.469
 7677TIP3    H122908   3.760   8.902   7.528
 7677TIP3    H222909   3.682   8.843   7.412
 7678TIP3   OH222910   0.893   7.806   2.354
 7678TIP3    H122911   0.919   7.867   2.424
 7678TIP3    H222912   0.824   7.753   2.393
 7679TIP3   OH222913   5.656   6.679   6.376
 7679TIP3    H122914   5.591   6.747   6.395
 7679TIP3    H222915   5.712   6.678   6.454
 7680TIP3   OH222916   5.881   5.845   1.433
 7680TIP3    H122917   5.869   5.772   1.372
 7680TIP3    H222918   5.975   5.859   1.435
 7681TIP3   OH222919   2.521   7.721   1.658
 7681TIP3    H122920   2.508   7.626   1.665
 7681TIP3    H222921   2.616   7.733   1.666
 7682TIP3   OH222922   8.208   5.929   4.864
 7682TIP3    H122923   8.246   6.017   4.871
 7682TIP3    H222924   8.141   5.938   4.796
 7683TIP3   OH222925   7.034   0.538   4.942
 7683TIP3    H122926   7.062   0.625   4.915
 7683TIP3    H222927   7.070   0.479   4.875
 7684TIP3   OH222928   5.809   1.024   3.900
 7684TIP3    H122929   5.837   1.048   3.988
 7684TIP3    H222930   5.853   0.941   3.883
 7685TIP3   OH222931   2.616   8.512   0.948
 7685TIP3    H122932   2.583   8.558   1.025
 7685TIP3    H222933   2.702   8.551   0.931
 7686TIP3   OH222934   3.095   8.040   1.345
 7686TIP3    H122935   3.052   8.033   1.430
 7686TIP3    H222936   3.184   8.067   1.366
 7687TIP3   OH222937   2.368   8.234   7.192
 7687TIP3    H122938   2.274   8.217   7.190
 7687TIP3    H222939   2.384   8.292   7.116
 7688TIP3   OH222940   3.118   0.856   4.807
 7688TIP3    H122941   3.149   0.839   4.896
 7688TIP3    H222942   3.048   0.921   4.818
 7689TIP3   OH222943   2.335   4.256   0.347
 7689TIP3    H122944   2.370   4.265   0.436
 7689TIP3    H222945   2.397   4.303   0.292
 7690TIP3   OH222946   8.364   8.673   0.261
 7690TIP3    H122947   8.366   8.768   0.274
 7690TIP3    H222948   8.275   8.647   0.284
 7691TIP3   OH222949   7.074   6.595   0.675
 7691TIP3    H122950   7.040   6.578   0.763
 7691TIP3    H222951   7.129   6.520   0.655
 7692TIP3   OH222952   7.843   8.154   1.754
 7692TIP3    H122953   7.841   8.059   1.755
 7692TIP3    H222954   7.751   8.180   1.742
 7693TIP3   OH222955   8.660   1.782   3.369
 7693TIP3    H122956   8.632   1.772   3.279
 7693TIP3    H222957   8.615   1.860   3.401
 7694TIP3   OH222958   2.990   2.713   1.105
 7694TIP3    H122959   2.926   2.741   1.039
 7694TIP3    H222960   3.075   2.730   1.064
 7695TIP3   OH222961   6.761   0.535   2.575
 7695TIP3    H122962   6.854   0.529   2.594
 7695TIP3    H222963   6.755   0.522   2.480
 7696TIP3   OH222964   1.713   1.730   3.197
 7696TIP3    H122965   1.705   1.734   3.293
 7696TIP3    H222966   1.736   1.639   3.179
 7697TIP3   OH222967   7.807   4.913   5.852
 7697TIP3    H122968   7.892   4.954   5.869
 7697TIP3    H222969   7.821   4.820   5.872
 7698TIP3   OH222970   6.770   6.295   2.227
 7698TIP3    H122971   6.778   6.241   2.306
 7698TIP3    H222972   6.676   6.294   2.208
 7699TIP3   OH222973   3.446   8.770   7.494
 7699TIP3    H122974   3.459   8.783   7.588
 7699TIP3    H222975   3.351   8.775   7.482
 7700TIP3   OH222976   1.705   0.506   4.551
 7700TIP3    H122977   1.644   0.577   4.568
 7700TIP3    H222978   1.791   0.547   4.549
 7701TIP3   OH222979   3.084   7.821   0.888
 7701TIP3    H122980   3.125   7.876   0.955
 7701TIP3    H222981   3.144   7.747   0.877
 7702TIP3   OH222982   5.913   2.052   1.356
 7702TIP3    H122983   5.882   2.142   1.364
 7702TIP3    H222984   5.834   1.999   1.369
 7703TIP3   OH222985   3.509   6.797   3.632
 7703TIP3    H122986   3.598   6.807   3.599
 7703TIP3    H222987   3.477   6.886   3.643
 7704TIP3   OH222988   5.653   0.185   5.243
 7704TIP3    H122989   5.651   0.225   5.330
 7704TIP3    H222990   5.585   0.118   5.246
 7705TIP3   OH222991   9.360   6.366   3.725
 7705TIP3    H122992   9.319   6.329   3.803
 7705TIP3    H222993   9.454   6.355   3.740
 7706TIP3   OH222994   6.352   6.777   5.770
 7706TIP3    H122995   6.372   6.716   5.841
 7706TIP3    H222996   6.396   6.858   5.796
 7707TIP3   OH222997   0.273   6.014   5.905
 7707TIP3    H122998   0.190   6.006   5.951
 7707TIP3    H222999   0.255   6.075   5.833
 7708TIP3   OH223000   1.478   1.366   4.344
 7708TIP3    H123001   1.400   1.359   4.289
 7708TIP3    H223002   1.472   1.292   4.405
 7709TIP3   OH223003   0.265   6.843   1.730
 7709TIP3    H123004   0.300   6.918   1.681
 7709TIP3    H223005   0.329   6.830   1.800
 7710TIP3   OH223006   4.754   0.850   4.977
 7710TIP3    H123007   4.764   0.788   4.905
 7710TIP3    H223008   4.729   0.932   4.935
 7711TIP3   OH223009   0.516   4.400   5.660
 7711TIP3    H123010   0.463   4.477   5.644
 7711TIP3    H223011   0.605   4.433   5.670
 7712TIP3   OH223012   2.693   0.625   7.011
 7712TIP3    H123013   2.716   0.703   7.060
 7712TIP3    H223014   2.645   0.657   6.934
 7713TIP3   OH223015   2.586   1.254   5.854
 7713TIP3    H123016   2.619   1.199   5.925
 7713TIP3    H223017   2.494   1.229   5.847
 7714TIP3   OH223018   4.242   1.113   7.359
 7714TIP3    H123019   4.177   1.054   7.397
 7714TIP3    H223020   4.324   1.064   7.360
 7715TIP3   OH223021   0.958   0.908   4.046
 7715TIP3    H123022   0.866   0.906   4.020
 7715TIP3    H223023   0.965   0.985   4.104
 7716TIP3   OH223024   4.874   0.577   5.825
 7716TIP3    H123025   4.786   0.558   5.794
 7716TIP3    H223026   4.893   0.664   5.790
 7717TIP3   OH223027   1.196   1.933   5.802
 7717TIP3    H123028   1.200   1.975   5.716
 7717TIP3    H223029   1.287   1.912   5.823
 7718TIP3   OH223030   8.803   6.873   1.217
 7718TIP3    H123031   8.769   6.963   1.214
 7718TIP3    H223032   8.889   6.881   1.258
 7719TIP3   OH223033   6.482   7.782   6.137
 7719TIP3    H123034   6.418   7.810   6.072
 7719TIP3    H223035   6.561   7.832   6.117
 7720TIP3   OH223036   4.172   5.106   3.253
 7720TIP3    H123037   4.257   5.071   3.226
 7720TIP3    H223038   4.160   5.183   3.197
 7721TIP3   OH223039   1.388   0.681   3.676
 7721TIP3    H123040   1.435   0.651   3.754
 7721TIP3    H223041   1.454   0.687   3.608
 7722TIP3   OH223042   1.927   8.599   2.718
 7722TIP3    H123043   1.875   8.645   2.784
 7722TIP3    H223044   1.916   8.507   2.739
 7723TIP3   OH223045   3.015   3.831   6.270
 7723TIP3    H123046   3.097   3.815   6.222
 7723TIP3    H223047   2.990   3.745   6.304
 7724TIP3   OH223048   8.024   7.119   4.987
 7724TIP3    H123049   8.062   7.204   5.008
 7724TIP3    H223050   8.011   7.121   4.893
 7725TIP3   OH223051   3.159   1.033   2.768
 7725TIP3    H123052   3.067   1.013   2.756
 7725TIP3    H223053   3.176   1.016   2.861
 7726TIP3   OH223054   4.923   5.765   3.697
 7726TIP3    H123055   4.946   5.672   3.699
 7726TIP3    H223056   4.899   5.781   3.606
 7727TIP3   OH223057   8.177   1.979   0.543
 7727TIP3    H123058   8.131   2.031   0.478
 7727TIP3    H223059   8.202   2.042   0.611
 7728TIP3   OH223060   1.549   0.479   1.135
 7728TIP3    H123061   1.603   0.535   1.080
 7728TIP3    H223062   1.558   0.392   1.096
 7729TIP3   OH223063   2.009   7.516   7.615
 7729TIP3    H123064   1.952   7.506   7.538
 7729TIP3    H223065   2.077   7.449   7.602
 7730TIP3   OH223066   3.719   6.817   1.739
 7730TIP3    H123067   3.709   6.831   1.645
 7730TIP3    H223068   3.702   6.902   1.779
 7731TIP3   OH223069   7.914   1.616   5.808
 7731TIP3    H123070   8.001   1.588   5.780
 7731TIP3    H223071   7.868   1.534   5.828
 7732TIP3   OH223072   6.876   2.727   0.886
 7732TIP3    H123073   6.788   2.745   0.917
 7732TIP3    H223074   6.931   2.732   0.964
 7733TIP3   OH223075   7.564   8.528   5.663
 7733TIP3    H123076   7.602   8.587   5.728
 7733TIP3    H223077   7.488   8.575   5.630
 7734TIP3   OH223078   6.483   3.572   1.792
 7734TIP3    H123079   6.505   3.503   1.729
 7734TIP3    H223080   6.566   3.615   1.811
 7735TIP3   OH223081   4.230   1.969   1.383
 7735TIP3    H123082   4.231   2.021   1.463
 7735TIP3    H223083   4.136   1.960   1.363
 7736TIP3   OH223084   4.675   3.147   6.461
 7736TIP3    H123085   4.636   3.062   6.481
 7736TIP3    H223086   4.662   3.198   6.541
 7737TIP3   OH223087   5.075   0.053   5.995
 7737TIP3    H123088   4.981   0.034   5.999
 7737TIP3    H223089   5.096   0.088   6.082
 7738TIP3   OH223090   9.095   2.492   4.913
 7738TIP3    H123091   9.140   2.543   4.845
 7738TIP3    H223092   9.135   2.522   4.995
 7739TIP3   OH223093   0.245   1.651   4.971
 7739TIP3    H123094   0.215   1.741   4.986
 7739TIP3    H223095   0.317   1.639   5.033
 7740TIP3   OH223096   3.458   2.151   5.733
 7740TIP3    H123097   3.461   2.142   5.828
 7740TIP3    H223098   3.544   2.122   5.703
 7741TIP3   OH223099   1.849   3.752   6.821
 7741TIP3    H123100   1.776   3.771   6.880
 7741TIP3    H223101   1.896   3.680   6.863
 7742TIP3   OH223102   0.696   4.921   4.647
 7742TIP3    H123103   0.745   4.840   4.644
 7742TIP3    H223104   0.604   4.894   4.649
 7743TIP3   OH223105   3.894   2.371   1.488
 7743TIP3    H123106   3.901   2.398   1.579
 7743TIP3    H223107   3.849   2.286   1.492
 7744TIP3   OH223108   5.278   5.197   0.407
 7744TIP3    H123109   5.204   5.229   0.458
 7744TIP3    H223110   5.345   5.264   0.417
 7745TIP3   OH223111   4.197   7.875   2.057
 7745TIP3    H123112   4.119   7.889   2.003
 7745TIP3    H223113   4.201   7.953   2.113
 7746TIP3   OH223114   6.267   6.951   1.744
 7746TIP3    H123115   6.361   6.952   1.727
 7746TIP3    H223116   6.257   6.996   1.828
 7747TIP3   OH223117   7.695   4.309   4.055
 7747TIP3    H123118   7.640   4.378   4.019
 7747TIP3    H223119   7.779   4.319   4.010
 7748TIP3   OH223120   0.422   8.367   0.003
 7748TIP3    H123121   0.457   8.278  -0.009
 7748TIP3    H223122   0.492   8.425  -0.026
 7749TIP3   OH223123   1.083   2.937   1.861
 7749TIP3    H123124   1.094   2.887   1.779
 7749TIP3    H223125   1.164   2.987   1.869
 7750TIP3   OH223126   5.403   3.529   1.694
 7750TIP3    H123127   5.453   3.609   1.680
 7750TIP3    H223128   5.426   3.502   1.783
 7751TIP3   OH223129   7.956   5.740   1.657
 7751TIP3    H123130   7.931   5.762   1.747
 7751TIP3    H223131   7.873   5.716   1.615
 7752TIP3   OH223132   2.265   0.651   6.171
 7752TIP3    H123133   2.284   0.557   6.170
 7752TIP3    H223134   2.330   0.688   6.111
 7753TIP3   OH223135   2.639   5.378   5.847
 7753TIP3    H123136   2.698   5.337   5.909
 7753TIP3    H223137   2.554   5.379   5.892
 7754TIP3   OH223138   3.396   6.690   4.256
 7754TIP3    H123139   3.377   6.668   4.165
 7754TIP3    H223140   3.419   6.606   4.297
 7755TIP3   OH223141   9.172   1.981   7.153
 7755TIP3    H123142   9.214   2.062   7.124
 7755TIP3    H223143   9.147   1.937   7.072
 7756TIP3   OH223144   0.548   6.700   3.664
 7756TIP3    H123145   0.481   6.651   3.617
 7756TIP3    H223146   0.514   6.708   3.753
 7757TIP3   OH223147   6.983   1.258   4.330
 7757TIP3    H123148   7.077   1.247   4.343
 7757TIP3    H223149   6.944   1.176   4.359
 7758TIP3   OH223150   8.236   5.600   7.516
 7758TIP3    H123151   8.155   5.647   7.495
 7758TIP3    H223152   8.259   5.555   7.435
 7759TIP3   OH223153   4.515   5.058   2.682
 7759TIP3    H123154   4.507   5.142   2.729
 7759TIP3    H223155   4.594   5.068   2.630
 7760TIP3   OH223156   6.738   1.366   2.941
 7760TIP3    H123157   6.688   1.431   2.893
 7760TIP3    H223158   6.796   1.326   2.876
 7761TIP3   OH223159   7.021   5.970   6.793
 7761TIP3    H123160   6.926   5.977   6.791
 7761TIP3    H223161   7.039   5.876   6.803
 7762TIP3   OH223162   2.104   3.691   5.510
 7762TIP3    H123163   2.148   3.697   5.595
 7762TIP3    H223164   2.067   3.778   5.495
 7763TIP3   OH223165   6.029   2.407   1.809
 7763TIP3    H123166   5.944   2.419   1.767
 7763TIP3    H223167   6.021   2.451   1.894
 7764TIP3   OH223168   8.328   5.033   0.181
 7764TIP3    H123169   8.391   4.987   0.126
 7764TIP3    H223170   8.255   4.972   0.190
 7765TIP3   OH223171   0.780   3.912   6.180
 7765TIP3    H123172   0.854   3.894   6.238
 7765TIP3    H223173   0.820   3.941   6.099
 7766TIP3   OH223174   5.354   1.138   3.752
 7766TIP3    H123175   5.415   1.071   3.782
 7766TIP3    H223176   5.351   1.127   3.657
 7767TIP3   OH223177   1.538   3.490   0.613
 7767TIP3    H123178   1.551   3.560   0.676
 7767TIP3    H223179   1.448   3.501   0.582
 7768TIP3   OH223180   6.401   2.743   5.900
 7768TIP3    H123181   6.455   2.747   5.821
 7768TIP3    H223182   6.311   2.740   5.868
 7769TIP3   OH223183   5.530   7.983   4.379
 7769TIP3    H123184   5.598   8.032   4.425
 7769TIP3    H223185   5.478   8.050   4.334
 7770TIP3   OH223186   6.000   0.048   0.616
 7770TIP3    H123187   5.930  -0.017   0.623
 7770TIP3    H223188   5.962   0.127   0.654
 7771TIP3   OH223189   4.409   0.400   7.241
 7771TIP3    H123190   4.354   0.477   7.225
 7771TIP3    H223191   4.395   0.343   7.166
 7772TIP3   OH223192   4.048   8.741   0.853
 7772TIP3    H123193   4.143   8.730   0.861
 7772TIP3    H223194   4.027   8.706   0.766
 7773TIP3   OH223195   8.530   4.744   7.241
 7773TIP3    H123196   8.592   4.794   7.188
 7773TIP3    H223197   8.445   4.785   7.223
 7774TIP3   OH223198   1.061   1.916   1.479
 7774TIP3    H123199   1.064   1.837   1.424
 7774TIP3    H223200   1.030   1.985   1.421
 7775TIP3   OH223201   3.080   7.595   0.328
 7775TIP3    H123202   3.063   7.678   0.285
 7775TIP3    H223203   3.010   7.587   0.393
 7776TIP3   OH223204   6.984   5.648   6.945
 7776TIP3    H123205   7.053   5.597   6.903
 7776TIP3    H223206   7.030   5.716   6.994
 7777TIP3   OH223207   1.981   8.500   5.726
 7777TIP3    H123208   1.993   8.570   5.662
 7777TIP3    H223209   2.026   8.425   5.688
 7778TIP3   OH223210   5.411   8.082   0.786
 7778TIP3    H123211   5.401   8.047   0.697
 7778TIP3    H223212   5.327   8.124   0.805
 7779TIP3   OH223213   0.558   8.516   1.952
 7779TIP3    H123214   0.581   8.559   1.870
 7779TIP3    H223215   0.500   8.444   1.927
 7780TIP3   OH223216   7.230   4.203   7.281
 7780TIP3    H123217   7.314   4.200   7.326
 7780TIP3    H223218   7.226   4.290   7.241
 7781TIP3   OH223219   9.128   4.674   1.485
 7781TIP3    H123220   9.079   4.596   1.511
 7781TIP3    H223221   9.173   4.701   1.565
 7782TIP3   OH223222   7.450   5.996   1.948
 7782TIP3    H123223   7.487   5.920   1.902
 7782TIP3    H223224   7.526   6.047   1.975
 7783TIP3   OH223225   8.351   2.520   6.748
 7783TIP3    H123226   8.288   2.493   6.682
 7783TIP3    H223227   8.327   2.609   6.771
 7784TIP3   OH223228   0.271   5.918   2.015
 7784TIP3    H123229   0.300   5.946   1.928
 7784TIP3    H223230   0.328   5.965   2.076
 7785TIP3   OH223231   9.394   8.825   0.502
 7785TIP3    H123232   9.410   8.800   0.411
 7785TIP3    H223233   9.471   8.796   0.550
 7786TIP3   OH223234   6.245   8.846   0.170
 7786TIP3    H123235   6.227   8.940   0.175
 7786TIP3    H223236   6.207   8.820   0.086
 7787TIP3   OH223237   5.129   8.218   5.081
 7787TIP3    H123238   5.079   8.158   5.027
 7787TIP3    H223239   5.210   8.234   5.032
 7788TIP3   OH223240   5.292   0.925   1.198
 7788TIP3    H123241   5.292   1.006   1.248
 7788TIP3    H223242   5.218   0.875   1.232
 7789TIP3   OH223243   7.100   0.287   2.560
 7789TIP3    H123244   7.070   0.324   2.477
 7789TIP3    H223245   7.195   0.296   2.557
 7790TIP3   OH223246   7.961   0.446   4.954
 7790TIP3    H123247   7.946   0.442   5.048
 7790TIP3    H223248   7.891   0.393   4.916
 7791TIP3   OH223249   4.762   4.972   0.449
 7791TIP3    H123250   4.820   4.927   0.388
 7791TIP3    H223251   4.820   5.011   0.514
 7792TIP3   OH223252   5.189   0.845   2.012
 7792TIP3    H123253   5.130   0.795   2.068
 7792TIP3    H223254   5.269   0.793   2.008
 7793TIP3   OH223255   7.770   6.837   1.054
 7793TIP3    H123256   7.699   6.775   1.070
 7793TIP3    H223257   7.836   6.817   1.121
 7794TIP3   OH223258   4.429   0.620   3.356
 7794TIP3    H123259   4.373   0.630   3.279
 7794TIP3    H223260   4.460   0.709   3.375
 7795TIP3   OH223261   0.397   1.962   1.488
 7795TIP3    H123262   0.450   1.882   1.484
 7795TIP3    H223263   0.339   1.956   1.413
 7796TIP3   OH223264   8.834   1.247   6.768
 7796TIP3    H123265   8.885   1.325   6.791
 7796TIP3    H223266   8.802   1.264   6.680
 7797TIP3   OH223267   2.102   4.391   4.729
 7797TIP3    H123268   2.148   4.443   4.795
 7797TIP3    H223269   2.160   4.317   4.712
 7798TIP3   OH223270   4.042   1.440   6.717
 7798TIP3    H123271   3.949   1.433   6.695
 7798TIP3    H223272   4.062   1.533   6.710
 7799TIP3   OH223273   2.494   7.981   2.353
 7799TIP3    H123274   2.400   7.984   2.370
 7799TIP3    H223275   2.529   8.059   2.397
 7800TIP3   OH223276   4.990   5.085   4.380
 7800TIP3    H123277   5.061   5.039   4.334
 7800TIP3    H223278   5.034   5.155   4.428
 7801TIP3   OH223279   8.538   7.312   3.414
 7801TIP3    H123280   8.612   7.356   3.455
 7801TIP3    H223281   8.541   7.340   3.322
 7802TIP3   OH223282   4.577   2.673   3.273
 7802TIP3    H123283   4.550   2.675   3.181
 7802TIP3    H223284   4.635   2.749   3.283
 7803TIP3   OH223285   7.600   2.469   6.529
 7803TIP3    H123286   7.558   2.384   6.537
 7803TIP3    H223287   7.542   2.530   6.574
 7804TIP3   OH223288   2.523   3.055   6.986
 7804TIP3    H123289   2.605   3.036   7.032
 7804TIP3    H223290   2.550   3.074   6.896
 7805TIP3   OH223291   2.341   3.561   2.867
 7805TIP3    H123292   2.364   3.477   2.825
 7805TIP3    H223293   2.421   3.587   2.913
 7806TIP3   OH223294   2.513   3.056   4.623
 7806TIP3    H123295   2.513   2.961   4.633
 7806TIP3    H223296   2.585   3.074   4.564
 7807TIP3   OH223297   7.652   5.480   3.279
 7807TIP3    H123298   7.721   5.547   3.284
 7807TIP3    H223299   7.640   5.464   3.186
 7808TIP3   OH223300   8.149   1.818   2.745
 7808TIP3    H123301   8.205   1.757   2.699
 7808TIP3    H223302   8.167   1.903   2.704
 7809TIP3   OH223303   0.728   8.802   4.125
 7809TIP3    H123304   0.791   8.848   4.070
 7809TIP3    H223305   0.775   8.788   4.208
 7810TIP3   OH223306   0.094   8.077   6.212
 7810TIP3    H123307   0.096   8.002   6.153
 7810TIP3    H223308   0.004   8.079   6.245
 7811TIP3   OH223309   9.121   3.410   6.708
 7811TIP3    H123310   9.203   3.402   6.757
 7811TIP3    H223311   9.145   3.459   6.629
 7812TIP3   OH223312   4.486   7.484   0.199
 7812TIP3    H123313   4.508   7.440   0.117
 7812TIP3    H223314   4.391   7.493   0.197
 7813TIP3   OH223315   7.635   5.759   3.544
 7813TIP3    H123316   7.677   5.673   3.549
 7813TIP3    H223317   7.706   5.820   3.527
 7814TIP3   OH223318   1.346   7.748   5.716
 7814TIP3    H123319   1.306   7.666   5.743
 7814TIP3    H223320   1.351   7.800   5.797
 7815TIP3   OH223321   0.819   6.919   6.455
 7815TIP3    H123322   0.899   6.869   6.436
 7815TIP3    H223323   0.840   6.968   6.535
 7816TIP3   OH223324   0.808   2.711   2.324
 7816TIP3    H123325   0.902   2.692   2.325
 7816TIP3    H223326   0.774   2.657   2.253
 7817TIP3   OH223327   4.423   6.107   5.285
 7817TIP3    H123328   4.487   6.052   5.329
 7817TIP3    H223329   4.458   6.118   5.196
 7818TIP3   OH223330   3.470   5.615   4.501
 7818TIP3    H123331   3.531   5.671   4.550
 7818TIP3    H223332   3.484   5.640   4.410
 7819TIP3   OH223333   3.672   3.458   0.610
 7819TIP3    H123334   3.615   3.530   0.583
 7819TIP3    H223335   3.754   3.473   0.564
 7820TIP3   OH223336   8.285   3.539   0.416
 7820TIP3    H123337   8.335   3.485   0.478
 7820TIP3    H223338   8.288   3.627   0.453
 7821TIP3   OH223339   7.529   6.578   7.766
 7821TIP3    H123340   7.520   6.613   7.854
 7821TIP3    H223341   7.444   6.541   7.745
 7822TIP3   OH223342   9.491   0.215   5.191
 7822TIP3    H123343   9.509   0.296   5.238
 7822TIP3    H223344   9.407   0.185   5.227
 7823TIP3   OH223345   4.301   4.806   1.235
 7823TIP3    H123346   4.277   4.758   1.156
 7823TIP3    H223347   4.238   4.878   1.239
 7824TIP3   OH223348   2.798   8.979   1.018
 7824TIP3    H123349   2.867   9.021   1.070
 7824TIP3    H223350   2.740   8.939   1.083
 7825TIP3   OH223351   1.162   1.213   2.840
 7825TIP3    H123352   1.189   1.230   2.930
 7825TIP3    H223353   1.230   1.253   2.786
 7826TIP3   OH223354   1.947   5.958   4.119
 7826TIP3    H123355   1.874   5.954   4.180
 7826TIP3    H223356   1.919   6.020   4.052
 7827TIP3   OH223357   4.898   5.929   2.048
 7827TIP3    H123358   4.946   5.981   1.985
 7827TIP3    H223359   4.909   5.976   2.131
 7828TIP3   OH223360   0.737   5.586   2.161
 7828TIP3    H123361   0.734   5.533   2.081
 7828TIP3    H223362   0.770   5.671   2.133
 7829TIP3   OH223363   0.029   1.951   2.442
 7829TIP3    H123364  -0.036   2.021   2.442
 7829TIP3    H223365  -0.015   1.876   2.402
 7830TIP3   OH223366   5.311   1.901   4.001
 7830TIP3    H123367   5.310   1.913   3.906
 7830TIP3    H223368   5.292   1.808   4.013
 7831TIP3   OH223369   1.152   2.601   4.375
 7831TIP3    H123370   1.138   2.547   4.298
 7831TIP3    H223371   1.238   2.576   4.408
 7832TIP3   OH223372   5.671   0.300   5.518
 7832TIP3    H123373   5.610   0.262   5.582
 7832TIP3    H223374   5.667   0.394   5.534
 7833TIP3   OH223375   4.489   3.733   6.412
 7833TIP3    H123376   4.444   3.699   6.335
 7833TIP3    H223377   4.557   3.791   6.377
 7834TIP3   OH223378   6.460   6.287   1.533
 7834TIP3    H123379   6.531   6.345   1.561
 7834TIP3    H223380   6.461   6.293   1.437
 7835TIP3   OH223381   1.471   2.438   6.087
 7835TIP3    H123382   1.422   2.448   6.005
 7835TIP3    H223383   1.410   2.393   6.146
 7836TIP3   OH223384   0.849   4.571   3.741
 7836TIP3    H123385   0.817   4.660   3.757
 7836TIP3    H223386   0.860   4.534   3.829
 7837TIP3   OH223387   3.764   1.520   1.979
 7837TIP3    H123388   3.816   1.445   1.951
 7837TIP3    H223389   3.767   1.516   2.075
 7838TIP3   OH223390   6.015   2.601   3.365
 7838TIP3    H123391   5.984   2.667   3.303
 7838TIP3    H223392   5.981   2.518   3.330
 7839TIP3   OH223393   1.497   7.026   1.522
 7839TIP3    H123394   1.426   7.081   1.488
 7839TIP3    H223395   1.469   6.937   1.506
 7840TIP3   OH223396   2.592   5.882   7.103
 7840TIP3    H123397   2.591   5.977   7.114
 7840TIP3    H223398   2.501   5.859   7.084
 7841TIP3   OH223399   3.769   9.014   3.805
 7841TIP3    H123400   3.786   8.927   3.841
 7841TIP3    H223401   3.686   9.005   3.758
 7842TIP3   OH223402   1.898   6.371   7.712
 7842TIP3    H123403   1.940   6.346   7.629
 7842TIP3    H223404   1.880   6.465   7.702
 7843TIP3   OH223405   4.052   6.314   1.842
 7843TIP3    H123406   4.089   6.402   1.831
 7843TIP3    H223407   4.081   6.287   1.929
 7844TIP3   OH223408   0.536   6.193   4.793
 7844TIP3    H123409   0.524   6.101   4.817
 7844TIP3    H223410   0.631   6.205   4.789
 7845TIP3   OH223411   6.030   3.595   1.635
 7845TIP3    H123412   5.941   3.629   1.625
 7845TIP3    H223413   6.086   3.659   1.592
 7846TIP3   OH223414   2.614   7.885   4.875
 7846TIP3    H123415   2.604   7.976   4.904
 7846TIP3    H223416   2.546   7.874   4.808
 7847TIP3   OH223417   8.550   6.861   2.562
 7847TIP3    H123418   8.631   6.813   2.544
 7847TIP3    H223419   8.480   6.803   2.533
 7848TIP3   OH223420   2.484   7.620   4.623
 7848TIP3    H123421   2.448   7.687   4.681
 7848TIP3    H223422   2.417   7.551   4.621
 7849TIP3   OH223423   0.858   4.028   5.349
 7849TIP3    H123424   0.792   4.037   5.281
 7849TIP3    H223425   0.920   3.963   5.314
 7850TIP3   OH223426   7.201   9.008   7.411
 7850TIP3    H123427   7.235   9.059   7.337
 7850TIP3    H223428   7.217   8.917   7.386
 7851TIP3   OH223429   2.396   0.958   1.483
 7851TIP3    H123430   2.319   0.902   1.480
 7851TIP3    H223431   2.440   0.944   1.399
 7852TIP3   OH223432   3.140   0.590   3.895
 7852TIP3    H123433   3.094   0.656   3.844
 7852TIP3    H223434   3.079   0.516   3.900
 7853TIP3   OH223435   8.591   0.465   5.437
 7853TIP3    H123436   8.527   0.443   5.505
 7853TIP3    H223437   8.672   0.480   5.484
 7854TIP3   OH223438   2.572   8.765   2.802
 7854TIP3    H123439   2.634   8.694   2.817
 7854TIP3    H223440   2.584   8.788   2.710
 7855TIP3   OH223441   3.507   7.964   0.922
 7855TIP3    H123442   3.457   8.035   0.962
 7855TIP3    H223443   3.466   7.950   0.837
 7856TIP3   OH223444   1.212   5.350   1.959
 7856TIP3    H123445   1.304   5.337   1.935
 7856TIP3    H223446   1.215   5.394   2.044
 7857TIP3   OH223447   7.939   6.131   0.435
 7857TIP3    H123448   7.870   6.079   0.474
 7857TIP3    H223449   7.990   6.068   0.383
 7858TIP3   OH223450   1.284   2.336   2.135
 7858TIP3    H123451   1.208   2.392   2.124
 7858TIP3    H223452   1.265   2.284   2.213
 7859TIP3   OH223453   9.427   6.588   2.319
 7859TIP3    H123454   9.369   6.594   2.244
 7859TIP3    H223455   9.480   6.509   2.302
 7860TIP3   OH223456   8.932   3.151   1.363
 7860TIP3    H123457   8.961   3.221   1.421
 7860TIP3    H223458   8.848   3.123   1.399
 7861TIP3   OH223459   6.412   3.939   4.962
 7861TIP3    H123460   6.326   3.900   4.981
 7861TIP3    H223461   6.467   3.864   4.939
 7862TIP3   OH223462   8.738   5.944   7.805
 7862TIP3    H123463   8.752   6.029   7.846
 7862TIP3    H223464   8.768   5.956   7.714
 7863TIP3   OH223465   2.817   0.304   2.968
 7863TIP3    H123466   2.836   0.293   3.061
 7863TIP3    H223467   2.731   0.346   2.966
 7864TIP3   OH223468   9.557   8.081   2.447
 7864TIP3    H123469   9.518   8.151   2.394
 7864TIP3    H223470   9.483   8.044   2.496
 7865TIP3   OH223471   7.810   2.332   2.972
 7865TIP3    H123472   7.757   2.272   2.920
 7865TIP3    H223473   7.783   2.419   2.942
 7866TIP3   OH223474   2.390   6.418   3.761
 7866TIP3    H123475   2.377   6.392   3.670
 7866TIP3    H223476   2.466   6.367   3.790
 7867TIP3   OH223477   7.950   3.241   6.823
 7867TIP3    H123478   8.027   3.298   6.818
 7867TIP3    H223479   7.939   3.208   6.734
 7868TIP3   OH223480   1.377   4.399   5.173
 7868TIP3    H123481   1.315   4.385   5.246
 7868TIP3    H223482   1.400   4.492   5.178
 7869TIP3   OH223483   4.215   8.726   4.428
 7869TIP3    H123484   4.310   8.710   4.424
 7869TIP3    H223485   4.203   8.776   4.509
 7870TIP3   OH223486   4.919   1.582   4.474
 7870TIP3    H123487   4.998   1.634   4.462
 7870TIP3    H223488   4.923   1.553   4.565
 7871TIP3   OH223489   1.336   3.756   7.763
 7871TIP3    H123490   1.318   3.846   7.792
 7871TIP3    H223491   1.262   3.706   7.797
 7872TIP3   OH223492   3.252   1.854   5.100
 7872TIP3    H123493   3.268   1.774   5.150
 7872TIP3    H223494   3.324   1.858   5.038
 7873TIP3   OH223495   5.416   8.198   5.110
 7873TIP3    H123496   5.392   8.195   5.203
 7873TIP3    H223497   5.511   8.190   5.110
 7874TIP3   OH223498   0.596   4.299   5.404
 7874TIP3    H123499   0.685   4.324   5.379
 7874TIP3    H223500   0.591   4.322   5.497
 7875TIP3   OH223501   6.682   1.045   5.657
 7875TIP3    H123502   6.704   1.076   5.569
 7875TIP3    H223503   6.758   0.992   5.683
 7876TIP3   OH223504   7.384   6.648   7.056
 7876TIP3    H123505   7.441   6.622   6.983
 7876TIP3    H223506   7.324   6.574   7.067
 7877TIP3   OH223507   3.379   1.315   5.768
 7877TIP3    H123508   3.449   1.378   5.751
 7877TIP3    H223509   3.372   1.312   5.864
 7878TIP3   OH223510   2.987   3.511   5.132
 7878TIP3    H123511   3.004   3.499   5.039
 7878TIP3    H223512   2.984   3.605   5.144
 7879TIP3   OH223513   0.235   4.891   5.271
 7879TIP3    H123514   0.274   4.941   5.343
 7879TIP3    H223515   0.274   4.804   5.278
 7880TIP3   OH223516   6.914   7.382   7.467
 7880TIP3    H123517   6.824   7.401   7.493
 7880TIP3    H223518   6.968   7.419   7.537
 7881TIP3   OH223519   3.358   2.864   3.044
 7881TIP3    H123520   3.348   2.953   3.076
 7881TIP3    H223521   3.273   2.840   3.008
 7882TIP3   OH223522   6.514   5.573   3.372
 7882TIP3    H123523   6.540   5.664   3.386
 7882TIP3    H223524   6.439   5.579   3.312
 7883TIP3   OH223525   6.983   3.229   5.613
 7883TIP3    H123526   6.966   3.277   5.532
 7883TIP3    H223527   6.917   3.262   5.674
 7884TIP3   OH223528   3.298   7.047   5.219
 7884TIP3    H123529   3.222   7.079   5.170
 7884TIP3    H223530   3.269   7.043   5.310
 7885TIP3   OH223531   8.792   0.047   3.485
 7885TIP3    H123532   8.761   0.121   3.538
 7885TIP3    H223533   8.798  -0.026   3.547
 7886TIP3   OH223534   7.059   3.174   2.399
 7886TIP3    H123535   7.105   3.244   2.353
 7886TIP3    H223536   6.978   3.162   2.351
 7887TIP3   OH223537   8.859   0.799   4.022
 7887TIP3    H123538   8.843   0.795   3.928
 7887TIP3    H223539   8.862   0.892   4.043
 7888TIP3   OH223540   8.428   3.184   6.242
 7888TIP3    H123541   8.408   3.242   6.168
 7888TIP3    H223542   8.493   3.122   6.207
 7889TIP3   OH223543   0.751   3.627   5.629
 7889TIP3    H123544   0.738   3.710   5.583
 7889TIP3    H223545   0.833   3.639   5.677
 7890TIP3   OH223546   6.259   2.734   2.546
 7890TIP3    H123547   6.250   2.788   2.468
 7890TIP3    H223548   6.350   2.745   2.574
 7891TIP3   OH223549   0.627   4.247   1.829
 7891TIP3    H123550   0.650   4.277   1.741
 7891TIP3    H223551   0.598   4.157   1.817
 7892TIP3   OH223552   1.186   3.794   4.629
 7892TIP3    H123553   1.111   3.803   4.571
 7892TIP3    H223554   1.212   3.885   4.648
 7893TIP3   OH223555   4.528   5.462   6.899
 7893TIP3    H123556   4.538   5.543   6.949
 7893TIP3    H223557   4.500   5.397   6.963
 7894TIP3   OH223558   3.616   0.375   0.240
 7894TIP3    H123559   3.661   0.352   0.159
 7894TIP3    H223560   3.587   0.465   0.227
 7895TIP3   OH223561   3.837   5.708   0.978
 7895TIP3    H123562   3.780   5.779   1.010
 7895TIP3    H223563   3.876   5.672   1.058
 7896TIP3   OH223564   6.222   5.721   2.336
 7896TIP3    H123565   6.150   5.770   2.377
 7896TIP3    H223566   6.283   5.705   2.408
 7897TIP3   OH223567   6.888   3.462   6.138
 7897TIP3    H123568   6.858   3.522   6.068
 7897TIP3    H223569   6.960   3.413   6.098
 7898TIP3   OH223570   0.168   6.666   3.989
 7898TIP3    H123571   0.166   6.653   4.084
 7898TIP3    H223572   0.123   6.749   3.976
 7899TIP3   OH223573   2.894   1.585   6.123
 7899TIP3    H123574   2.860   1.576   6.034
 7899TIP3    H223575   2.834   1.646   6.166
 7900TIP3   OH223576   5.077   1.702   7.683
 7900TIP3    H123577   5.081   1.798   7.675
 7900TIP3    H223578   5.102   1.685   7.773
 7901TIP3   OH223579   8.840   6.099   5.266
 7901TIP3    H123580   8.796   6.048   5.335
 7901TIP3    H223581   8.770   6.152   5.228
 7902TIP3   OH223582   2.869   4.958   1.512
 7902TIP3    H123583   2.844   5.023   1.578
 7902TIP3    H223584   2.875   5.008   1.430
 7903TIP3   OH223585   4.668   1.424   3.911
 7903TIP3    H123586   4.633   1.392   3.828
 7903TIP3    H223587   4.754   1.382   3.919
 7904TIP3   OH223588   9.461   2.249   3.642
 7904TIP3    H123589   9.392   2.311   3.617
 7904TIP3    H223590   9.437   2.222   3.731
 7905TIP3   OH223591   1.495   4.214   5.022
 7905TIP3    H123592   1.466   4.290   5.073
 7905TIP3    H223593   1.419   4.157   5.019
 7906TIP3   OH223594   4.472   6.945   6.442
 7906TIP3    H123595   4.517   6.884   6.500
 7906TIP3    H223596   4.525   6.947   6.362
 7907TIP3   OH223597   9.423   7.900   5.075
 7907TIP3    H123598   9.348   7.842   5.073
 7907TIP3    H223599   9.496   7.845   5.103
 7908TIP3   OH223600   4.060   2.676   4.092
 7908TIP3    H123601   4.040   2.654   4.182
 7908TIP3    H223602   3.974   2.694   4.053
 7909TIP3   OH223603   4.936   2.268   2.431
 7909TIP3    H123604   4.978   2.342   2.387
 7909TIP3    H223605   4.862   2.246   2.375
 7910TIP3   OH223606   4.586   4.680   5.603
 7910TIP3    H123607   4.616   4.728   5.526
 7910TIP3    H223608   4.643   4.711   5.674
 7911TIP3   OH223609   2.067   3.816   0.308
 7911TIP3    H123610   1.994   3.784   0.254
 7911TIP3    H223611   2.088   3.901   0.270
 7912TIP3   OH223612   2.084   3.653   7.086
 7912TIP3    H123613   2.170   3.667   7.047
 7912TIP3    H223614   2.044   3.740   7.089
 7913TIP3   OH223615   8.431   4.714   2.742
 7913TIP3    H123616   8.478   4.794   2.718
 7913TIP3    H223617   8.354   4.744   2.790
 7914TIP3   OH223618   3.557   7.060   4.651
 7914TIP3    H123619   3.610   7.020   4.582
 7914TIP3    H223620   3.600   7.144   4.669
 7915TIP3   OH223621   7.483   8.267   4.393
 7915TIP3    H123622   7.440   8.283   4.477
 7915TIP3    H223623   7.412   8.265   4.329
 7916TIP3   OH223624   4.450   6.938   4.308
 7916TIP3    H123625   4.431   7.024   4.345
 7916TIP3    H223626   4.519   6.903   4.364
 7917TIP3   OH223627   9.104   7.541   7.418
 7917TIP3    H123628   9.055   7.623   7.425
 7917TIP3    H223629   9.089   7.512   7.328
 7918TIP3   OH223630   0.383   8.761   2.299
 7918TIP3    H123631   0.463   8.752   2.247
 7918TIP3    H223632   0.409   8.817   2.372
 7919TIP3   OH223633   2.487   7.184   4.955
 7919TIP3    H123634   2.560   7.148   5.005
 7919TIP3    H223635   2.409   7.159   5.005
 7920TIP3   OH223636   2.696   8.174   7.044
 7920TIP3    H123637   2.679   8.114   6.972
 7920TIP3    H223638   2.791   8.175   7.053
 7921TIP3   OH223639   5.389   1.761   0.973
 7921TIP3    H123640   5.422   1.783   0.885
 7921TIP3    H223641   5.467   1.764   1.029
 7922TIP3   OH223642   1.914   5.130   5.749
 7922TIP3    H123643   1.954   5.115   5.663
 7922TIP3    H223644   1.897   5.041   5.782
 7923TIP3   OH223645   7.201   6.462   6.219
 7923TIP3    H123646   7.110   6.441   6.239
 7923TIP3    H223647   7.223   6.532   6.280
 7924TIP3   OH223648   2.707   6.358   7.472
 7924TIP3    H123649   2.795   6.368   7.435
 7924TIP3    H223650   2.659   6.434   7.439
 7925TIP3   OH223651   9.248   4.912   4.162
 7925TIP3    H123652   9.302   4.890   4.238
 7925TIP3    H223653   9.256   4.837   4.104
 7926TIP3   OH223654   2.613   1.707   0.241
 7926TIP3    H123655   2.525   1.687   0.210
 7926TIP3    H223656   2.613   1.677   0.332
 7927TIP3   OH223657   5.705   6.775   0.682
 7927TIP3    H123658   5.686   6.692   0.638
 7927TIP3    H223659   5.619   6.814   0.699
 7928TIP3   OH223660   2.042   7.206   4.360
 7928TIP3    H123661   2.074   7.189   4.449
 7928TIP3    H223662   1.948   7.219   4.372
 7929TIP3   OH223663   5.637   6.495   4.323
 7929TIP3    H123664   5.650   6.587   4.349
 7929TIP3    H223665   5.702   6.480   4.255
 7930TIP3   OH223666   3.835   5.521   3.764
 7930TIP3    H123667   3.930   5.531   3.761
 7930TIP3    H223668   3.821   5.433   3.799
 7931TIP3   OH223669   0.576   8.237   6.268
 7931TIP3    H123670   0.607   8.322   6.239
 7931TIP3    H223671   0.486   8.232   6.237
 7932TIP3   OH223672   2.260   0.077   4.427
 7932TIP3    H123673   2.213   0.155   4.397
 7932TIP3    H223674   2.216   0.004   4.383
 7933TIP3   OH223675   6.351   5.719   4.375
 7933TIP3    H123676   6.404   5.667   4.315
 7933TIP3    H223677   6.274   5.745   4.324
 7934TIP3   OH223678   5.593   2.114   5.928
 7934TIP3    H123679   5.642   2.101   5.846
 7934TIP3    H223680   5.649   2.172   5.980
 7935TIP3   OH223681   8.664   7.568   4.453
 7935TIP3    H123682   8.708   7.530   4.530
 7935TIP3    H223683   8.582   7.519   4.446
 7936TIP3   OH223684   4.875   5.810   4.213
 7936TIP3    H123685   4.934   5.834   4.142
 7936TIP3    H223686   4.931   5.758   4.272
 7937TIP3   OH223687   6.910   1.811   5.093
 7937TIP3    H123688   6.899   1.895   5.139
 7937TIP3    H223689   6.891   1.745   5.160
 7938TIP3   OH223690   0.490   5.436   5.688
 7938TIP3    H123691   0.473   5.343   5.672
 7938TIP3    H223692   0.534   5.437   5.773
 7939TIP3   OH223693   4.361   3.170   2.992
 7939TIP3    H123694   4.395   3.193   3.078
 7939TIP3    H223695   4.280   3.123   3.009
 7940TIP3   OH223696   8.141   8.370   2.870
 7940TIP3    H123697   8.184   8.293   2.908
 7940TIP3    H223698   8.185   8.383   2.786
 7941TIP3   OH223699   1.406   8.459   0.683
 7941TIP3    H123700   1.349   8.497   0.616
 7941TIP3    H223701   1.420   8.369   0.656
 7942TIP3   OH223702   1.056   5.017   1.667
 7942TIP3    H123703   1.117   5.073   1.620
 7942TIP3    H223704   1.103   4.993   1.747
 7943TIP3   OH223705   2.912   5.786   7.261
 7943TIP3    H123706   2.883   5.695   7.258
 7943TIP3    H223707   2.927   5.810   7.170
 7944TIP3   OH223708   7.973   3.922   4.903
 7944TIP3    H123709   8.057   3.878   4.890
 7944TIP3    H223710   7.997   4.013   4.922
 7945TIP3   OH223711   6.933   1.534   3.696
 7945TIP3    H123712   6.870   1.486   3.642
 7945TIP3    H223713   6.988   1.466   3.736
 7946TIP3   OH223714   6.266   6.033   3.927
 7946TIP3    H123715   6.349   6.045   3.881
 7946TIP3    H223716   6.280   6.073   4.012
 7947TIP3   OH223717   0.519   8.713   2.615
 7947TIP3    H123718   0.521   8.720   2.710
 7947TIP3    H223719   0.445   8.656   2.596
 7948TIP3   OH223720   4.419   3.199   3.270
 7948TIP3    H123721   4.347   3.144   3.242
 7948TIP3    H223722   4.469   3.145   3.331
 7949TIP3   OH223723   8.984   7.312   7.478
 7949TIP3    H123724   9.023   7.387   7.433
 7949TIP3    H223725   8.897   7.342   7.504
 7950TIP3   OH223726   0.259   2.066   6.498
 7950TIP3    H123727   0.246   2.003   6.427
 7950TIP3    H223728   0.211   2.029   6.572
 7951TIP3   OH223729   4.720   7.387   1.338
 7951TIP3    H123730   4.735   7.323   1.407
 7951TIP3    H223731   4.739   7.471   1.379
 7952TIP3   OH223732   1.116   0.774   1.202
 7952TIP3    H123733   1.045   0.731   1.154
 7952TIP3    H223734   1.195   0.726   1.176
 7953TIP3   OH223735   1.848   6.747   4.965
 7953TIP3    H123736   1.759   6.778   4.952
 7953TIP3    H223737   1.888   6.814   5.022
 7954TIP3   OH223738   4.786   6.807   1.687
 7954TIP3    H123739   4.746   6.869   1.748
 7954TIP3    H223740   4.726   6.732   1.687
 7955TIP3   OH223741   6.093   3.916   6.381
 7955TIP3    H123742   6.105   3.852   6.311
 7955TIP3    H223743   6.083   3.862   6.460
 7956TIP3   OH223744   7.215   0.875   3.957
 7956TIP3    H123745   7.310   0.867   3.947
 7956TIP3    H223746   7.202   0.902   4.048
 7957TIP3   OH223747   1.307   8.274   7.722
 7957TIP3    H123748   1.319   8.184   7.752
 7957TIP3    H223749   1.354   8.278   7.639
 7958TIP3   OH223750   6.023   1.560   3.717
 7958TIP3    H123751   5.962   1.578   3.646
 7958TIP3    H223752   6.010   1.632   3.779
 7959TIP3   OH223753   2.765   7.997   6.212
 7959TIP3    H123754   2.690   7.937   6.220
 7959TIP3    H223755   2.800   8.004   6.301
 7960TIP3   OH223756   8.260   8.216   6.978
 7960TIP3    H123757   8.199   8.161   7.028
 7960TIP3    H223758   8.338   8.222   7.033
 7961TIP3   OH223759   6.872   1.808   7.380
 7961TIP3    H123760   6.959   1.845   7.363
 7961TIP3    H223761   6.882   1.760   7.462
 7962TIP3   OH223762   7.415   1.125   5.382
 7962TIP3    H123763   7.392   1.124   5.289
 7962TIP3    H223764   7.486   1.061   5.389
 7963TIP3   OH223765   7.956   8.817   5.607
 7963TIP3    H123766   7.981   8.906   5.630
 7963TIP3    H223767   7.977   8.765   5.685
 7964TIP3   OH223768   2.580   4.011   7.533
 7964TIP3    H123769   2.532   4.048   7.459
 7964TIP3    H223770   2.582   4.082   7.597
 7965TIP3   OH223771   0.024   6.547   6.950
 7965TIP3    H123772   0.070   6.546   6.866
 7965TIP3    H223773  -0.031   6.468   6.948
 7966TIP3   OH223774   5.393   1.552   4.896
 7966TIP3    H123775   5.362   1.559   4.806
 7966TIP3    H223776   5.347   1.476   4.931
 7967TIP3   OH223777   6.179   7.014   6.941
 7967TIP3    H123778   6.150   7.000   6.851
 7967TIP3    H223779   6.221   7.100   6.941
 7968TIP3   OH223780   9.250   1.874   4.897
 7968TIP3    H123781   9.216   1.790   4.928
 7968TIP3    H223782   9.201   1.939   4.947
 7969TIP3   OH223783   0.354   6.746   6.641
 7969TIP3    H123784   0.444   6.715   6.628
 7969TIP3    H223785   0.357   6.794   6.723
 7970TIP3   OH223786   1.482   4.274   0.072
 7970TIP3    H123787   1.513   4.185   0.081
 7970TIP3    H223788   1.513   4.319   0.151
 7971TIP3   OH223789   7.999   1.489   3.537
 7971TIP3    H123790   7.938   1.424   3.502
 7971TIP3    H223791   8.082   1.442   3.544
 7972TIP3   OH223792   8.413   0.341   2.395
 7972TIP3    H123793   8.325   0.370   2.418
 7972TIP3    H223794   8.451   0.415   2.346
 7973TIP3   OH223795   7.893   8.890   6.501
 7973TIP3    H123796   7.953   8.899   6.428
 7973TIP3    H223797   7.912   8.966   6.557
 7974TIP3   OH223798   3.504   2.955   6.568
 7974TIP3    H123799   3.553   3.035   6.549
 7974TIP3    H223800   3.558   2.909   6.632
 7975TIP3   OH223801   0.085   3.242   4.811
 7975TIP3    H123802   0.059   3.324   4.769
 7975TIP3    H223803   0.003   3.206   4.846
 7976TIP3   OH223804   1.126   6.101   2.225
 7976TIP3    H123805   1.080   6.029   2.268
 7976TIP3    H223806   1.073   6.121   2.148
 7977TIP3   OH223807   5.127   2.122   2.782
 7977TIP3    H123808   5.190   2.071   2.731
 7977TIP3    H223809   5.042   2.099   2.744
 7978TIP3   OH223810   4.873   6.782   5.800
 7978TIP3    H123811   4.944   6.722   5.779
 7978TIP3    H223812   4.822   6.788   5.719
 7979TIP3   OH223813   8.669   3.560   7.506
 7979TIP3    H123814   8.693   3.629   7.568
 7979TIP3    H223815   8.620   3.497   7.558
 7980TIP3   OH223816   5.199   2.471   0.534
 7980TIP3    H123817   5.293   2.473   0.553
 7980TIP3    H223818   5.158   2.506   0.614
 7981TIP3   OH223819   4.609   8.251   3.835
 7981TIP3    H123820   4.569   8.165   3.844
 7981TIP3    H223821   4.540   8.305   3.796
 7982TIP3   OH223822   3.436   2.596   1.508
 7982TIP3    H123823   3.466   2.508   1.529
 7982TIP3    H223824   3.365   2.583   1.445
 7983TIP3   OH223825   8.747   1.371   1.605
 7983TIP3    H123826   8.685   1.362   1.678
 7983TIP3    H223827   8.691   1.384   1.528
 7984TIP3   OH223828   5.073   4.569   2.194
 7984TIP3    H123829   5.141   4.622   2.152
 7984TIP3    H223830   5.045   4.621   2.269
 7985TIP3   OH223831   8.695   8.995   5.177
 7985TIP3    H123832   8.683   9.051   5.101
 7985TIP3    H223833   8.610   8.995   5.221
 7986TIP3   OH223834   3.333   3.624   5.143
 7986TIP3    H123835   3.269   3.598   5.077
 7986TIP3    H223836   3.312   3.715   5.162
 7987TIP3   OH223837   2.408   8.711   1.136
 7987TIP3    H123838   2.456   8.786   1.172
 7987TIP3    H223839   2.347   8.749   1.073
 7988TIP3   OH223840   7.700   7.246   0.739
 7988TIP3    H123841   7.793   7.265   0.729
 7988TIP3    H223842   7.697   7.183   0.811
 7989TIP3   OH223843   6.065   0.787   3.209
 7989TIP3    H123844   6.039   0.699   3.182
 7989TIP3    H223845   6.005   0.845   3.161
 7990TIP3   OH223846   5.104   0.108   0.173
 7990TIP3    H123847   5.044   0.083   0.103
 7990TIP3    H223848   5.190   0.115   0.130
 7991TIP3   OH223849   6.044   2.114   1.933
 7991TIP3    H123850   5.950   2.124   1.949
 7991TIP3    H223851   6.061   2.170   1.857
 7992TIP3   OH223852   0.778   1.801   7.569
 7992TIP3    H123853   0.697   1.757   7.595
 7992TIP3    H223854   0.785   1.876   7.627
 7993TIP3   OH223855   8.165   7.569   1.622
 7993TIP3    H123856   8.145   7.522   1.703
 7993TIP3    H223857   8.168   7.500   1.555
 7994TIP3   OH223858   0.123   2.938   5.539
 7994TIP3    H123859   0.045   2.890   5.568
 7994TIP3    H223860   0.107   3.029   5.565
 7995TIP3   OH223861   6.971   6.302   5.922
 7995TIP3    H123862   6.904   6.359   5.885
 7995TIP3    H223863   7.050   6.320   5.871
 7996TIP3   OH223864   9.259   6.143   1.553
 7996TIP3    H123865   9.254   6.177   1.463
 7996TIP3    H223866   9.302   6.212   1.603
 7997TIP3   OH223867   8.341   0.604   6.989
 7997TIP3    H123868   8.356   0.670   7.057
 7997TIP3    H223869   8.415   0.543   6.998
 7998TIP3   OH223870   1.109   0.973   2.714
 7998TIP3    H123871   1.083   0.919   2.788
 7998TIP3    H223872   1.122   1.060   2.751
 7999TIP3   OH223873   2.013   4.508   7.536
 7999TIP3    H123874   1.980   4.590   7.499
 7999TIP3    H223875   1.976   4.507   7.625
 8000TIP3   OH223876   8.276   0.175   0.932
 8000TIP3    H123877   8.294   0.086   0.902
 8000TIP3    H223878   8.213   0.164   1.003
 8001TIP3   OH223879   0.767   6.287   0.124
 8001TIP3    H123880   0.673   6.270   0.126
 8001TIP3    H223881   0.786   6.327   0.209
 8002TIP3   OH223882   8.469   1.001   4.400
 8002TIP3    H123883   8.543   0.976   4.343
 8002TIP3    H223884   8.458   0.925   4.458
 8003TIP3   OH223885   4.918   6.189   3.974
 8003TIP3    H123886   4.823   6.192   3.973
 8003TIP3    H223887   4.939   6.096   3.960
 8004TIP3   OH223888   8.148   2.773   5.386
 8004TIP3    H123889   8.062   2.774   5.345
 8004TIP3    H223890   8.199   2.712   5.333
 8005TIP3   OH223891   4.666   5.020   6.594
 8005TIP3    H123892   4.710   4.959   6.654
 8005TIP3    H223893   4.581   4.979   6.576
 8006TIP3   OH223894   9.007   1.318   6.235
 8006TIP3    H123895   9.017   1.358   6.321
 8006TIP3    H223896   8.957   1.382   6.184
 8007TIP3   OH223897   0.289   0.842   1.147
 8007TIP3    H123898   0.299   0.816   1.056
 8007TIP3    H223899   0.232   0.919   1.145
 8008TIP3   OH223900   4.345   4.887   5.414
 8008TIP3    H123901   4.360   4.928   5.499
 8008TIP3    H223902   4.331   4.794   5.434
 8009TIP3   OH223903   6.276   0.135   1.882
 8009TIP3    H123904   6.208   0.070   1.864
 8009TIP3    H223905   6.320   0.103   1.961
 8010TIP3   OH223906   1.372   1.102   6.946
 8010TIP3    H123907   1.387   1.182   6.895
 8010TIP3    H223908   1.458   1.080   6.982
 8011TIP3   OH223909   8.568   4.638   4.844
 8011TIP3    H123910   8.562   4.569   4.910
 8011TIP3    H223911   8.652   4.621   4.800
 8012TIP3   OH223912   4.245   4.195   1.777
 8012TIP3    H123913   4.205   4.258   1.837
 8012TIP3    H223914   4.244   4.239   1.692
 8013TIP3   OH223915   2.515   5.170   5.278
 8013TIP3    H123916   2.575   5.108   5.320
 8013TIP3    H223917   2.522   5.151   5.185
 8014TIP3   OH223918   0.524   0.811   7.707
 8014TIP3    H123919   0.567   0.895   7.692
 8014TIP3    H223920   0.539   0.762   7.626
 8015TIP3   OH223921   5.213   7.235   5.000
 8015TIP3    H123922   5.285   7.172   4.991
 8015TIP3    H223923   5.145   7.188   5.047
 8016TIP3   OH223924   8.472   2.802   6.290
 8016TIP3    H123925   8.501   2.729   6.234
 8016TIP3    H223926   8.505   2.880   6.246
 8017TIP3   OH223927   4.814   0.458   4.417
 8017TIP3    H123928   4.831   0.542   4.460
 8017TIP3    H223929   4.749   0.478   4.350
 8018TIP3   OH223930   3.924   4.768   7.292
 8018TIP3    H123931   3.992   4.731   7.236
 8018TIP3    H223932   3.972   4.821   7.356
 8019TIP3   OH223933   8.955   3.426   4.334
 8019TIP3    H123934   8.971   3.346   4.384
 8019TIP3    H223935   8.874   3.409   4.286
 8020TIP3   OH223936   8.087   0.056   6.297
 8020TIP3    H123937   8.165   0.012   6.265
 8020TIP3    H223938   8.078   0.026   6.388
 8021TIP3   OH223939   3.116   0.993   7.357
 8021TIP3    H123940   3.208   1.020   7.361
 8021TIP3    H223941   3.084   1.000   7.447
 8022TIP3   OH223942   2.274   5.195   5.384
 8022TIP3    H123943   2.297   5.286   5.404
 8022TIP3    H223944   2.348   5.162   5.333
 8023TIP3   OH223945   9.335   3.851   6.572
 8023TIP3    H123946   9.274   3.886   6.508
 8023TIP3    H223947   9.381   3.781   6.526
 8024TIP3   OH223948   3.638   3.498   1.159
 8024TIP3    H123949   3.641   3.568   1.224
 8024TIP3    H223950   3.716   3.512   1.105
 8025TIP3   OH223951   8.003   5.449   5.172
 8025TIP3    H123952   8.046   5.366   5.194
 8025TIP3    H223953   8.073   5.502   5.134
 8026TIP3   OH223954   0.419   7.686   1.921
 8026TIP3    H123955   0.494   7.716   1.869
 8026TIP3    H223956   0.347   7.744   1.893
 8027TIP3   OH223957   3.587   1.497   5.688
 8027TIP3    H123958   3.662   1.448   5.653
 8027TIP3    H223959   3.626   1.559   5.750
 8028TIP3   OH223960   7.133   3.687   0.217
 8028TIP3    H123961   7.113   3.654   0.130
 8028TIP3    H223962   7.224   3.714   0.212
 8029TIP3   OH223963   5.242   1.059   4.381
 8029TIP3    H123964   5.248   1.090   4.471
 8029TIP3    H223965   5.154   1.020   4.375
 8030TIP3   OH223966   7.392   3.776   0.068
 8030TIP3    H123967   7.480   3.784   0.030
 8030TIP3    H223968   7.404   3.801   0.160
 8031TIP3   OH223969   9.237   6.153   3.144
 8031TIP3    H123970   9.296   6.082   3.120
 8031TIP3    H223971   9.152   6.126   3.112
 8032TIP3   OH223972   4.882   2.472   3.125
 8032TIP3    H123973   4.856   2.501   3.213
 8032TIP3    H223974   4.889   2.377   3.132
 8033TIP3   OH223975   2.010   3.363   2.657
 8033TIP3    H123976   1.928   3.413   2.659
 8033TIP3    H223977   2.023   3.342   2.565
 8034TIP3   OH223978   9.196   3.849   4.656
 8034TIP3    H123979   9.231   3.803   4.580
 8034TIP3    H223980   9.132   3.911   4.620
 8035TIP3   OH223981   6.731   6.521   2.801
 8035TIP3    H123982   6.786   6.463   2.855
 8035TIP3    H223983   6.686   6.461   2.740
 8036TIP3   OH223984   7.623   6.071   5.495
 8036TIP3    H123985   7.580   6.151   5.524
 8036TIP3    H223986   7.616   6.011   5.569
 8037TIP3   OH223987   4.895   7.387   7.348
 8037TIP3    H123988   4.826   7.453   7.333
 8037TIP3    H223989   4.864   7.337   7.423
 8038TIP3   OH223990   3.888   0.869   4.326
 8038TIP3    H123991   3.925   0.954   4.300
 8038TIP3    H223992   3.853   0.883   4.413
 8039TIP3   OH223993   9.245   2.073   3.714
 8039TIP3    H123994   9.196   2.092   3.635
 8039TIP3    H223995   9.336   2.063   3.684
 8040TIP3   OH223996   5.865   0.870   0.851
 8040TIP3    H123997   5.797   0.810   0.820
 8040TIP3    H223998   5.819   0.927   0.913
 8041TIP3   OH223999   0.581   4.748   0.416
 8041TIP3    H124000   0.557   4.776   0.504
 8041TIP3    H224001   0.658   4.800   0.394
 8042TIP3   OH224002   3.858   0.407   6.050
 8042TIP3    H124003   3.852   0.501   6.068
 8042TIP3    H224004   3.944   0.396   6.010
 8043TIP3   OH224005   0.535   3.033   1.843
 8043TIP3    H124006   0.591   3.110   1.834
 8043TIP3    H224007   0.469   3.044   1.774
 8044TIP3   OH224008   0.287   6.224   6.205
 8044TIP3    H124009   0.268   6.130   6.205
 8044TIP3    H224010   0.205   6.266   6.227
 8045TIP3   OH224011   2.709   6.454   7.108
 8045TIP3    H124012   2.732   6.483   7.196
 8045TIP3    H224013   2.642   6.515   7.078
 8046TIP3   OH224014   5.535   8.788   1.612
 8046TIP3    H124015   5.522   8.811   1.703
 8046TIP3    H224016   5.618   8.740   1.611
 8047TIP3   OH224017   4.765   4.343   4.989
 8047TIP3    H124018   4.830   4.343   4.919
 8047TIP3    H224019   4.719   4.425   4.979
 8048TIP3   OH224020   8.334   5.092   0.742
 8048TIP3    H124021   8.388   5.162   0.705
 8048TIP3    H224022   8.367   5.012   0.700
 8049TIP3   OH224023   8.631   1.288   3.265
 8049TIP3    H124024   8.614   1.254   3.353
 8049TIP3    H224025   8.594   1.223   3.206
 8050TIP3   OH224026   0.531   7.204   1.335
 8050TIP3    H124027   0.603   7.265   1.349
 8050TIP3    H224028   0.452   7.256   1.345
 8051TIP3   OH224029   4.172   3.768   1.847
 8051TIP3    H124030   4.251   3.714   1.849
 8051TIP3    H224031   4.170   3.810   1.933
 8052TIP3   OH224032   0.573   1.918   3.518
 8052TIP3    H124033   0.503   1.980   3.539
 8052TIP3    H224034   0.622   1.909   3.600
 8053TIP3   OH224035   5.221   4.904   6.876
 8053TIP3    H124036   5.165   4.849   6.931
 8053TIP3    H224037   5.194   4.994   6.895
 8054TIP3   OH224038   8.947   4.690   1.909
 8054TIP3    H124039   8.907   4.702   1.994
 8054TIP3    H224040   8.873   4.688   1.847
 8055TIP3   OH224041   4.067   0.094   4.970
 8055TIP3    H124042   4.032   0.139   4.893
 8055TIP3    H224043   4.092   0.007   4.937
 8056TIP3   OH224044   5.608   3.106   7.075
 8056TIP3    H124045   5.582   3.044   7.144
 8056TIP3    H224046   5.541   3.174   7.077
 8057TIP3   OH224047   8.540   0.952   0.064
 8057TIP3    H124048   8.595   0.962   0.142
 8057TIP3    H224049   8.574   1.016   0.002
 8058TIP3   OH224050   4.274   3.151   3.597
 8058TIP3    H124051   4.320   3.131   3.679
 8058TIP3    H224052   4.181   3.150   3.620
 8059TIP3   OH224053   8.362   7.337   0.066
 8059TIP3    H124054   8.278   7.345   0.110
 8059TIP3    H224055   8.363   7.407   0.001
 8060TIP3   OH224056   0.610   2.935   0.993
 8060TIP3    H124057   0.624   2.842   1.011
 8060TIP3    H224058   0.536   2.959   1.048
 8061TIP3   OH224059   9.161   3.476   0.379
 8061TIP3    H124060   9.104   3.549   0.403
 8061TIP3    H224061   9.102   3.407   0.350
 8062TIP3   OH224062   7.262   7.588   5.380
 8062TIP3    H124063   7.295   7.603   5.469
 8062TIP3    H224064   7.332   7.538   5.337
 8063TIP3   OH224065   5.289   7.996   3.712
 8063TIP3    H124066   5.350   8.056   3.756
 8063TIP3    H224067   5.242   8.051   3.649
 8064TIP3   OH224068   8.410   7.640   1.975
 8064TIP3    H124069   8.459   7.560   1.994
 8064TIP3    H224070   8.318   7.616   1.987
 8065TIP3   OH224071   0.049   1.201   0.786
 8065TIP3    H124072  -0.044   1.179   0.794
 8065TIP3    H224073   0.095   1.132   0.835
 8066TIP3   OH224074   1.361   4.728   1.540
 8066TIP3    H124075   1.346   4.725   1.634
 8066TIP3    H224076   1.454   4.708   1.529
 8067TIP3   OH224077   4.887   8.970   3.034
 8067TIP3    H124078   4.902   9.037   3.100
 8067TIP3    H224079   4.796   8.982   3.007
 8068TIP3   OH224080   4.082   5.660   5.913
 8068TIP3    H124081   4.119   5.692   5.995
 8068TIP3    H224082   4.012   5.600   5.940
 8069TIP3   OH224083   5.079   7.312   2.316
 8069TIP3    H124084   5.112   7.360   2.392
 8069TIP3    H224085   5.157   7.269   2.280
 8070TIP3   OH224086   8.067   3.031   2.533
 8070TIP3    H124087   8.120   3.090   2.479
 8070TIP3    H224088   8.054   2.954   2.479
 8071TIP3   OH224089   6.161   1.810   6.271
 8071TIP3    H124090   6.079   1.849   6.300
 8071TIP3    H224091   6.145   1.716   6.277
 8072TIP3   OH224092   8.787   0.161   3.050
 8072TIP3    H124093   8.709   0.183   3.101
 8072TIP3    H224094   8.783   0.066   3.041
 8073TIP3   OH224095   4.206   0.957   7.098
 8073TIP3    H124096   4.300   0.954   7.116
 8073TIP3    H224097   4.191   1.045   7.064
 8074TIP3   OH224098   0.239   7.829   4.571
 8074TIP3    H124099   0.163   7.822   4.629
 8074TIP3    H224100   0.260   7.922   4.569
 8075TIP3   OH224101   6.624   7.373   4.566
 8075TIP3    H124102   6.672   7.412   4.493
 8075TIP3    H224103   6.564   7.310   4.524
 8076TIP3   OH224104   7.914   8.285   6.447
 8076TIP3    H124105   7.818   8.286   6.440
 8076TIP3    H224106   7.944   8.335   6.371
 8077TIP3   OH224107   1.322   5.098   6.745
 8077TIP3    H124108   1.332   5.182   6.700
 8077TIP3    H224109   1.342   5.032   6.679
 8078TIP3   OH224110   5.718   2.918   6.205
 8078TIP3    H124111   5.749   2.844   6.152
 8078TIP3    H224112   5.754   2.995   6.161
 8079TIP3   OH224113   7.117   5.377   2.568
 8079TIP3    H124114   7.066   5.361   2.648
 8079TIP3    H224115   7.076   5.321   2.502
 8080TIP3   OH224116   5.246   7.796   2.162
 8080TIP3    H124117   5.195   7.716   2.157
 8080TIP3    H224118   5.317   7.783   2.099
 8081TIP3   OH224119   5.053   7.501   3.274
 8081TIP3    H124120   4.970   7.544   3.294
 8081TIP3    H224121   5.055   7.424   3.331
 8082TIP3   OH224122   8.577   3.816   3.542
 8082TIP3    H124123   8.524   3.746   3.505
 8082TIP3    H224124   8.557   3.893   3.489
 8083TIP3   OH224125   2.509   5.474   1.024
 8083TIP3    H124126   2.584   5.529   1.001
 8083TIP3    H224127   2.486   5.500   1.114
 8084TIP3   OH224128   3.146   6.134   7.096
 8084TIP3    H124129   3.170   6.043   7.078
 8084TIP3    H224130   3.198   6.158   7.172
 8085TIP3   OH224131   6.764   7.896   5.619
 8085TIP3    H124132   6.808   7.968   5.665
 8085TIP3    H224133   6.834   7.855   5.568
 8086TIP3   OH224134   2.241   7.448   7.443
 8086TIP3    H124135   2.326   7.440   7.399
 8086TIP3    H224136   2.260   7.431   7.535
 8087TIP3   OH224137   1.355   7.733   0.769
 8087TIP3    H124138   1.330   7.746   0.860
 8087TIP3    H224139   1.439   7.687   0.774
 8088TIP3   OH224140   7.605   7.344   3.512
 8088TIP3    H124141   7.573   7.296   3.435
 8088TIP3    H224142   7.700   7.328   3.513
 8089TIP3   OH224143   1.382   4.241   6.192
 8089TIP3    H124144   1.468   4.200   6.178
 8089TIP3    H224145   1.350   4.259   6.103
 8090TIP3   OH224146   5.008   2.253   6.217
 8090TIP3    H124147   5.010   2.261   6.121
 8090TIP3    H224148   5.098   2.269   6.244
 8091TIP3   OH224149   9.132   3.446   4.816
 8091TIP3    H124150   9.187   3.522   4.830
 8091TIP3    H224151   9.183   3.390   4.758
 8092TIP3   OH224152   7.962   5.624   7.489
 8092TIP3    H124153   7.953   5.534   7.458
 8092TIP3    H224154   7.874   5.661   7.479
 8093TIP3   OH224155   1.730   0.370   0.531
 8093TIP3    H124156   1.723   0.276   0.513
 8093TIP3    H224157   1.702   0.412   0.450
 8094TIP3   OH224158   2.046   8.096   5.003
 8094TIP3    H124159   2.025   8.186   5.027
 8094TIP3    H224160   1.989   8.042   5.059
 8095TIP3   OH224161   1.735   0.870   2.370
 8095TIP3    H124162   1.766   0.795   2.319
 8095TIP3    H224163   1.648   0.844   2.400
 8096TIP3   OH224164   5.379   4.884   2.845
 8096TIP3    H124165   5.453   4.929   2.804
 8096TIP3    H224166   5.415   4.802   2.877
 8097TIP3   OH224167   2.655   8.611   6.213
 8097TIP3    H124168   2.739   8.567   6.229
 8097TIP3    H224169   2.593   8.540   6.198
 8098TIP3   OH224170   9.451   6.429   5.032
 8098TIP3    H124171   9.418   6.482   4.960
 8098TIP3    H224172   9.490   6.352   4.990
 8099TIP3   OH224173   9.533   2.007   0.890
 8099TIP3    H124174   9.502   2.062   0.818
 8099TIP3    H224175   9.515   1.917   0.861
 8100TIP3   OH224176   6.713   2.613   1.768
 8100TIP3    H124177   6.730   2.519   1.773
 8100TIP3    H224178   6.773   2.645   1.701
 8101TIP3   OH224179   8.570   0.208   0.862
 8101TIP3    H124180   8.490   0.214   0.915
 8101TIP3    H224181   8.542   0.235   0.774
 8102TIP3   OH224182   5.422   8.095   4.852
 8102TIP3    H124183   5.412   8.123   4.943
 8102TIP3    H224184   5.395   8.171   4.800
 8103TIP3   OH224185   8.490   8.783   3.590
 8103TIP3    H124186   8.441   8.864   3.575
 8103TIP3    H224187   8.497   8.777   3.685
 8104TIP3   OH224188   8.173   2.658   4.312
 8104TIP3    H124189   8.258   2.659   4.357
 8104TIP3    H224190   8.187   2.601   4.237
 8105TIP3   OH224191   1.555   7.722   0.090
 8105TIP3    H124192   1.518   7.802   0.052
 8105TIP3    H224193   1.649   7.736   0.089
 8106TIP3   OH224194   4.065   1.716   5.104
 8106TIP3    H124195   4.002   1.657   5.064
 8106TIP3    H224196   4.068   1.690   5.196
 8107TIP3   OH224197   2.475   3.458   2.024
 8107TIP3    H124198   2.485   3.513   1.946
 8107TIP3    H224199   2.390   3.414   2.011
 8108TIP3   OH224200   4.127   3.519   7.223
 8108TIP3    H124201   4.108   3.434   7.264
 8108TIP3    H224202   4.151   3.497   7.133
 8109TIP3   OH224203   9.124   4.163   1.533
 8109TIP3    H124204   9.122   4.077   1.573
 8109TIP3    H224205   9.035   4.175   1.498
 8110TIP3   OH224206   5.528   7.864   6.894
 8110TIP3    H124207   5.440   7.870   6.857
 8110TIP3    H224208   5.515   7.867   6.989
 8111TIP3   OH224209   2.414   6.265   6.573
 8111TIP3    H124210   2.331   6.278   6.527
 8111TIP3    H224211   2.396   6.296   6.662
 8112TIP3   OH224212   5.993   4.745   1.857
 8112TIP3    H124213   5.985   4.822   1.802
 8112TIP3    H224214   6.054   4.771   1.926
 8113TIP3   OH224215   7.295   0.070   5.433
 8113TIP3    H124216   7.338   0.009   5.492
 8113TIP3    H224217   7.365   0.127   5.402
 8114TIP3   OH224218   4.125   8.110   2.196
 8114TIP3    H124219   4.141   8.205   2.199
 8114TIP3    H224220   4.033   8.101   2.220
 8115TIP3   OH224221   1.807   7.350   7.011
 8115TIP3    H124222   1.773   7.319   6.927
 8115TIP3    H224223   1.786   7.443   7.013
 8116TIP3   OH224224   5.468   4.765   2.198
 8116TIP3    H124225   5.461   4.857   2.225
 8116TIP3    H224226   5.562   4.747   2.203
 8117TIP3   OH224227   0.827   8.206   0.056
 8117TIP3    H124228   0.857   8.179  -0.030
 8117TIP3    H224229   0.766   8.138   0.083
 8118TIP3   OH224230   8.078   4.147   7.228
 8118TIP3    H124231   8.144   4.078   7.228
 8118TIP3    H224232   8.114   4.216   7.283
 8119TIP3   OH224233   6.474   2.987   2.289
 8119TIP3    H124234   6.395   2.943   2.258
 8119TIP3    H224235   6.486   3.060   2.227
 8120TIP3   OH224236   6.331   3.384   1.102
 8120TIP3    H124237   6.317   3.341   1.018
 8120TIP3    H224238   6.272   3.339   1.162
 8121TIP3   OH224239   6.749   3.798   5.297
 8121TIP3    H124240   6.701   3.770   5.375
 8121TIP3    H224241   6.725   3.890   5.284
 8122TIP3   OH224242   8.977   2.876   3.335
 8122TIP3    H124243   8.991   2.960   3.291
 8122TIP3    H224244   9.054   2.824   3.313
 8123TIP3   OH224245   5.001   1.368   0.029
 8123TIP3    H124246   5.056   1.445   0.044
 8123TIP3    H224247   4.927   1.402  -0.023
 8124TIP3   OH224248   3.774   6.852   6.697
 8124TIP3    H124249   3.716   6.885   6.766
 8124TIP3    H224250   3.862   6.870   6.728
 8125TIP3   OH224251   5.068   4.899   5.555
 8125TIP3    H124252   5.130   4.962   5.521
 8125TIP3    H224253   4.985   4.946   5.559
 8126TIP3   OH224254   6.043   7.287   6.768
 8126TIP3    H124255   6.051   7.240   6.685
 8126TIP3    H224256   6.133   7.312   6.790
 8127TIP3   OH224257   2.218   7.071   3.308
 8127TIP3    H124258   2.137   7.062   3.258
 8127TIP3    H224259   2.197   7.133   3.378
 8128TIP3   OH224260   5.558   6.515   3.610
 8128TIP3    H124261   5.593   6.518   3.699
 8128TIP3    H224262   5.627   6.554   3.556
 8129TIP3   OH224263   0.319   0.701   0.523
 8129TIP3    H124264   0.297   0.619   0.479
 8129TIP3    H224265   0.350   0.674   0.610
 8130TIP3   OH224266   1.501   5.256   2.941
 8130TIP3    H124267   1.568   5.219   2.998
 8130TIP3    H224268   1.516   5.350   2.944
 8131TIP3   OH224269   3.121   8.779   4.764
 8131TIP3    H124270   3.136   8.757   4.856
 8131TIP3    H224271   3.132   8.874   4.759
 8132TIP3   OH224272   3.271   8.525   1.240
 8132TIP3    H124273   3.248   8.617   1.228
 8132TIP3    H224274   3.342   8.510   1.179
 8133TIP3   OH224275   4.119   5.933   0.448
 8133TIP3    H124276   4.041   5.877   0.455
 8133TIP3    H224277   4.095   5.998   0.381
 8134TIP3   OH224278   6.795   6.216   5.538
 8134TIP3    H124279   6.818   6.131   5.577
 8134TIP3    H224280   6.700   6.222   5.549
 8135TIP3   OH224281   9.368   6.315   1.749
 8135TIP3    H124282   9.459   6.342   1.755
 8135TIP3    H224283   9.358   6.249   1.817
 8136TIP3   OH224284   7.768   4.527   7.619
 8136TIP3    H124285   7.809   4.513   7.533
 8136TIP3    H224286   7.698   4.462   7.622
 8137TIP3   OH224287   7.912   0.248   1.992
 8137TIP3    H124288   7.845   0.216   2.052
 8137TIP3    H224289   7.988   0.192   2.008
 8138TIP3   OH224290   0.271   4.856   2.050
 8138TIP3    H124291   0.360   4.886   2.031
 8138TIP3    H224292   0.257   4.878   2.142
 8139TIP3   OH224293   5.857   8.492   1.045
 8139TIP3    H124294   5.876   8.581   1.016
 8139TIP3    H224295   5.815   8.451   0.969
 8140TIP3   OH224296   1.317   8.394   5.127
 8140TIP3    H124297   1.355   8.426   5.209
 8140TIP3    H224298   1.388   8.399   5.063
 8141TIP3   OH224299   8.288   5.603   5.103
 8141TIP3    H124300   8.372   5.575   5.140
 8141TIP3    H224301   8.290   5.571   5.013
 8142TIP3   OH224302   5.080   2.615   2.952
 8142TIP3    H124303   5.089   2.588   2.860
 8142TIP3    H224304   5.005   2.566   2.984
 8143TIP3   OH224305   0.927   0.178   1.525
 8143TIP3    H124306   0.879   0.131   1.593
 8143TIP3    H224307   0.976   0.110   1.479
 8144TIP3   OH224308   5.170   5.447   6.735
 8144TIP3    H124309   5.194   5.365   6.777
 8144TIP3    H224310   5.247   5.503   6.747
 8145TIP3   OH224311   5.311   4.833   1.699
 8145TIP3    H124312   5.387   4.821   1.642
 8145TIP3    H224313   5.305   4.928   1.709
 8146TIP3   OH224314   7.281   3.167   7.097
 8146TIP3    H124315   7.303   3.075   7.080
 8146TIP3    H224316   7.363   3.207   7.123
 8147TIP3   OH224317   3.135   2.749   2.954
 8147TIP3    H124318   3.068   2.759   2.886
 8147TIP3    H224319   3.092   2.697   3.022
 8148TIP3   OH224320   1.206   4.328   4.306
 8148TIP3    H124321   1.216   4.409   4.357
 8148TIP3    H224322   1.167   4.356   4.224
 8149TIP3   OH224323   3.933   0.181   4.724
 8149TIP3    H124324   3.878   0.113   4.687
 8149TIP3    H224325   3.966   0.229   4.647
 8150TIP3   OH224326   8.704   3.407   7.195
 8150TIP3    H124327   8.719   3.421   7.102
 8150TIP3    H224328   8.656   3.325   7.200
 8151TIP3   OH224329   3.703   5.524   3.026
 8151TIP3    H124330   3.710   5.434   3.057
 8151TIP3    H224331   3.620   5.525   2.977
 8152TIP3   OH224332   0.796   0.338   3.962
 8152TIP3    H124333   0.866   0.274   3.953
 8152TIP3    H224334   0.836   0.422   3.940
 8153TIP3   OH224335   1.417   2.910   1.001
 8153TIP3    H124336   1.499   2.861   1.008
 8153TIP3    H224337   1.432   2.972   0.930
 8154TIP3   OH224338   7.533   3.595   6.898
 8154TIP3    H124339   7.615   3.552   6.873
 8154TIP3    H224340   7.475   3.581   6.823
 8155TIP3   OH224341   4.859   1.920   7.511
 8155TIP3    H124342   4.852   1.826   7.496
 8155TIP3    H224343   4.922   1.929   7.583
 8156TIP3   OH224344   2.493   4.924   4.258
 8156TIP3    H124345   2.473   4.987   4.328
 8156TIP3    H224346   2.438   4.952   4.185
 8157TIP3   OH224347   1.745   5.885   3.146
 8157TIP3    H124348   1.691   5.964   3.153
 8157TIP3    H224349   1.741   5.861   3.054
 8158TIP3   OH224350   1.050   7.079   6.134
 8158TIP3    H124351   1.045   7.165   6.092
 8158TIP3    H224352   1.015   7.093   6.222
 8159TIP3   OH224353   6.706   0.041   3.684
 8159TIP3    H124354   6.611   0.032   3.687
 8159TIP3    H224355   6.728   0.033   3.592
 8160TIP3   OH224356   1.848   5.390   4.035
 8160TIP3    H124357   1.769   5.351   4.071
 8160TIP3    H224358   1.818   5.450   3.968
 8161TIP3   OH224359   9.278   7.495   4.952
 8161TIP3    H124360   9.366   7.457   4.961
 8161TIP3    H224361   9.279   7.535   4.865
 8162TIP3   OH224362   1.484   5.813   5.858
 8162TIP3    H124363   1.398   5.770   5.861
 8162TIP3    H224364   1.468   5.894   5.810
 8163TIP3   OH224365   9.298   7.429   3.428
 8163TIP3    H124366   9.374   7.444   3.485
 8163TIP3    H224367   9.252   7.513   3.427
 8164TIP3   OH224368   2.925   1.668   4.093
 8164TIP3    H124369   2.952   1.759   4.110
 8164TIP3    H224370   3.002   1.628   4.054
 8165TIP3   OH224371   1.409   6.570   4.764
 8165TIP3    H124372   1.445   6.558   4.852
 8165TIP3    H224373   1.433   6.491   4.716
 8166TIP3   OH224374   1.721   4.113   0.299
 8166TIP3    H124375   1.686   4.120   0.388
 8166TIP3    H224376   1.731   4.203   0.270
 8167TIP3   OH224377   5.880   0.546   5.684
 8167TIP3    H124378   5.931   0.620   5.715
 8167TIP3    H224379   5.939   0.499   5.625
 8168TIP3   OH224380   9.469   8.730   0.252
 8168TIP3    H124381   9.562   8.755   0.246
 8168TIP3    H224382   9.469   8.635   0.235
 8169TIP3   OH224383   2.721   3.250   4.477
 8169TIP3    H124384   2.640   3.300   4.461
 8169TIP3    H224385   2.769   3.302   4.541
 8170TIP3   OH224386   4.276   3.133   3.888
 8170TIP3    H124387   4.209   3.065   3.895
 8170TIP3    H224388   4.232   3.212   3.918
 8171TIP3   OH224389   4.086   0.425   1.695
 8171TIP3    H124390   4.144   0.471   1.756
 8171TIP3    H224391   4.033   0.368   1.750
 8172TIP3   OH224392   4.321   0.636   7.077
 8172TIP3    H124393   4.300   0.696   7.148
 8172TIP3    H224394   4.414   0.650   7.060
 8173TIP3   OH224395   0.531   2.845   3.675
 8173TIP3    H124396   0.480   2.926   3.682
 8173TIP3    H224397   0.616   2.874   3.643
 8174TIP3   OH224398   4.661   8.519   5.325
 8174TIP3    H124399   4.605   8.469   5.265
 8174TIP3    H224400   4.715   8.452   5.368
 8175TIP3   OH224401   6.623   3.770   4.357
 8175TIP3    H124402   6.614   3.699   4.292
 8175TIP3    H224403   6.535   3.807   4.364
 8176TIP3   OH224404   6.819   0.511   4.550
 8176TIP3    H124405   6.793   0.585   4.604
 8176TIP3    H224406   6.830   0.547   4.463
 8177TIP3   OH224407   1.057   3.257   0.498
 8177TIP3    H124408   1.016   3.344   0.491
 8177TIP3    H224409   1.151   3.275   0.499
 8178TIP3   OH224410   5.105   1.684   2.851
 8178TIP3    H124411   5.188   1.718   2.885
 8178TIP3    H224412   5.127   1.654   2.762
 8179TIP3   OH224413   2.539   6.951   1.820
 8179TIP3    H124414   2.583   6.867   1.821
 8179TIP3    H224415   2.577   7.000   1.892
 8180TIP3   OH224416   5.339   1.245   0.301
 8180TIP3    H124417   5.257   1.289   0.324
 8180TIP3    H224418   5.358   1.188   0.376
 8181TIP3   OH224419   2.358   3.964   0.469
 8181TIP3    H124420   2.417   3.969   0.394
 8181TIP3    H224421   2.316   4.050   0.473
 8182TIP3   OH224422   7.296   5.249   0.614
 8182TIP3    H124423   7.372   5.273   0.560
 8182TIP3    H224424   7.328   5.178   0.670
 8183TIP3   OH224425   5.917   3.757   5.581
 8183TIP3    H124426   5.899   3.752   5.675
 8183TIP3    H224427   6.012   3.766   5.575
 8184TIP3   OH224428   2.333   5.067   4.741
 8184TIP3    H124429   2.243   5.062   4.710
 8184TIP3    H224430   2.345   5.159   4.765
 8185TIP3   OH224431   3.746   0.386   2.668
 8185TIP3    H124432   3.705   0.301   2.653
 8185TIP3    H224433   3.713   0.415   2.753
 8186TIP3   OH224434   3.958   2.353   6.533
 8186TIP3    H124435   4.017   2.289   6.492
 8186TIP3    H224436   3.918   2.304   6.605
 8187TIP3   OH224437   2.685   6.724   2.688
 8187TIP3    H124438   2.675   6.726   2.783
 8187TIP3    H224439   2.596   6.730   2.654
 8188TIP3   OH224440   4.660   3.210   6.028
 8188TIP3    H124441   4.669   3.131   5.976
 8188TIP3    H224442   4.680   3.281   5.967
 8189TIP3   OH224443   7.999   0.699   7.237
 8189TIP3    H124444   7.961   0.620   7.276
 8189TIP3    H224445   7.966   0.770   7.292
 8190TIP3   OH224446   6.733   7.155   7.253
 8190TIP3    H124447   6.644   7.133   7.226
 8190TIP3    H224448   6.752   7.237   7.209
 8191TIP3   OH224449   5.330   4.874   6.608
 8191TIP3    H124450   5.329   4.899   6.700
 8191TIP3    H224451   5.405   4.921   6.572
 8192TIP3   OH224452   2.141   3.640   2.702
 8192TIP3    H124453   2.055   3.640   2.745
 8192TIP3    H224454   2.198   3.593   2.763
 8193TIP3   OH224455   4.776   4.893   7.367
 8193TIP3    H124456   4.808   4.851   7.447
 8193TIP3    H224457   4.777   4.987   7.387
 8194TIP3   OH224458   2.699   7.961   1.796
 8194TIP3    H124459   2.697   7.983   1.702
 8194TIP3    H224460   2.622   8.005   1.833
 8195TIP3   OH224461   7.135   3.282   2.741
 8195TIP3    H124462   7.107   3.204   2.789
 8195TIP3    H224463   7.204   3.320   2.796
 8196TIP3   OH224464   1.994   3.985   3.249
 8196TIP3    H124465   1.995   4.019   3.338
 8196TIP3    H224466   1.936   3.909   3.252
 8197TIP3   OH224467   2.267   8.247   4.092
 8197TIP3    H124468   2.254   8.177   4.156
 8197TIP3    H224469   2.362   8.260   4.090
 8198TIP3   OH224470   2.557   0.678   1.133
 8198TIP3    H124471   2.476   0.704   1.089
 8198TIP3    H224472   2.554   0.725   1.217
 8199TIP3   OH224473   4.769   1.688   1.325
 8199TIP3    H124474   4.783   1.683   1.419
 8199TIP3    H224475   4.802   1.605   1.291
 8200TIP3   OH224476   5.225   3.054   3.724
 8200TIP3    H124477   5.197   3.039   3.633
 8200TIP3    H224478   5.203   3.145   3.741
 8201TIP3   OH224479   4.677   0.468   6.659
 8201TIP3    H124480   4.616   0.510   6.597
 8201TIP3    H224481   4.760   0.466   6.612
 8202TIP3   OH224482   6.848   8.792   4.777
 8202TIP3    H124483   6.888   8.814   4.693
 8202TIP3    H224484   6.844   8.876   4.823
 8203TIP3   OH224485   9.009   3.845   3.856
 8203TIP3    H124486   8.925   3.865   3.815
 8203TIP3    H224487   8.986   3.800   3.938
 8204TIP3   OH224488   4.859   0.514   2.313
 8204TIP3    H124489   4.872   0.494   2.405
 8204TIP3    H224490   4.765   0.531   2.305
 8205TIP3   OH224491   4.008   1.983   6.055
 8205TIP3    H124492   4.063   1.950   5.984
 8205TIP3    H224493   3.969   1.904   6.092
 8206TIP3   OH224494   4.327   5.127   5.155
 8206TIP3    H124495   4.391   5.126   5.084
 8206TIP3    H224496   4.379   5.115   5.234
 8207TIP3   OH224497   2.590   2.794   1.158
 8207TIP3    H124498   2.633   2.722   1.112
 8207TIP3    H224499   2.645   2.810   1.235
 8208TIP3   OH224500   7.547   3.063   2.779
 8208TIP3    H124501   7.612   3.052   2.711
 8208TIP3    H224502   7.464   3.041   2.737
 8209TIP3   OH224503   5.609   3.878   5.666
 8209TIP3    H124504   5.545   3.949   5.674
 8209TIP3    H224505   5.632   3.856   5.756
 8210TIP3   OH224506   8.903   3.243   7.277
 8210TIP3    H124507   8.953   3.225   7.198
 8210TIP3    H224508   8.848   3.318   7.254
 8211TIP3   OH224509   8.434   8.655   2.732
 8211TIP3    H124510   8.454   8.665   2.639
 8211TIP3    H224511   8.426   8.744   2.765
 8212TIP3   OH224512   5.282   4.486   4.883
 8212TIP3    H124513   5.279   4.557   4.947
 8212TIP3    H224514   5.347   4.515   4.819
 8213TIP3   OH224515   6.978   1.309   1.825
 8213TIP3    H124516   6.882   1.307   1.824
 8213TIP3    H224517   7.004   1.283   1.737
 8214TIP3   OH224518   2.300   6.011   1.232
 8214TIP3    H124519   2.222   6.067   1.241
 8214TIP3    H224520   2.371   6.072   1.213
 8215TIP3   OH224521   4.759   3.673   0.703
 8215TIP3    H124522   4.766   3.584   0.669
 8215TIP3    H224523   4.683   3.670   0.762
 8216TIP3   OH224524   4.817   6.200   5.637
 8216TIP3    H124525   4.865   6.132   5.589
 8216TIP3    H224526   4.883   6.242   5.692
 8217TIP3   OH224527   8.647   1.495   1.154
 8217TIP3    H124528   8.567   1.475   1.203
 8217TIP3    H224529   8.703   1.539   1.217
 8218TIP3   OH224530   5.346   6.253   5.008
 8218TIP3    H124531   5.295   6.329   4.978
 8218TIP3    H224532   5.435   6.287   5.019
 8219TIP3   OH224533   3.840   8.259   6.225
 8219TIP3    H124534   3.859   8.314   6.302
 8219TIP3    H224535   3.885   8.177   6.242
 8220TIP3   OH224536   4.345   4.427   1.281
 8220TIP3    H124537   4.370   4.425   1.188
 8220TIP3    H224538   4.263   4.379   1.285
 8221TIP3   OH224539   6.261   3.161   6.224
 8221TIP3    H124540   6.194   3.180   6.290
 8221TIP3    H224541   6.301   3.079   6.253
 8222TIP3   OH224542   0.592   2.941   6.790
 8222TIP3    H124543   0.668   2.960   6.735
 8222TIP3    H224544   0.585   2.845   6.790
 8223TIP3   OH224545   0.839   5.651   1.567
 8223TIP3    H124546   0.843   5.716   1.497
 8223TIP3    H224547   0.805   5.699   1.642
 8224TIP3   OH224548   1.521   2.669   4.215
 8224TIP3    H124549   1.485   2.581   4.223
 8224TIP3    H224550   1.507   2.693   4.124
 8225TIP3   OH224551   6.736   8.222   7.058
 8225TIP3    H124552   6.729   8.241   6.964
 8225TIP3    H224553   6.785   8.140   7.062
 8226TIP3   OH224554   3.102   1.913   3.753
 8226TIP3    H124555   3.133   1.869   3.674
 8226TIP3    H224556   3.107   2.007   3.732
 8227TIP3   OH224557   4.395   7.239   7.329
 8227TIP3    H124558   4.381   7.291   7.250
 8227TIP3    H224559   4.338   7.280   7.395
 8228TIP3   OH224560   3.893   5.460   6.443
 8228TIP3    H124561   3.892   5.491   6.533
 8228TIP3    H224562   3.900   5.365   6.450
 8229TIP3   OH224563   1.170   8.694   4.534
 8229TIP3    H124564   1.142   8.710   4.624
 8229TIP3    H224565   1.172   8.599   4.526
 8230TIP3   OH224566   8.178   3.116   2.752
 8230TIP3    H124567   8.137   3.075   2.676
 8230TIP3    H224568   8.265   3.075   2.757
 8231TIP3   OH224569   0.371   8.928   5.205
 8231TIP3    H124570   0.426   9.003   5.224
 8231TIP3    H224571   0.404   8.858   5.261
 8232TIP3   OH224572   9.136   6.167   3.794
 8232TIP3    H124573   9.195   6.195   3.864
 8232TIP3    H224574   9.156   6.226   3.721
 8233TIP3   OH224575   1.443   8.848   5.848
 8233TIP3    H124576   1.525   8.811   5.816
 8233TIP3    H224577   1.429   8.926   5.793
 8234TIP3   OH224578   7.392   9.003   3.612
 8234TIP3    H124579   7.365   9.080   3.563
 8234TIP3    H224580   7.419   9.037   3.697
 8235TIP3   OH224581   7.615   5.114   6.002
 8235TIP3    H124582   7.661   5.049   5.949
 8235TIP3    H224583   7.584   5.065   6.078
 8236TIP3   OH224584   8.471   5.824   5.127
 8236TIP3    H124585   8.378   5.844   5.118
 8236TIP3    H224586   8.511   5.864   5.050
 8237TIP3   OH224587   1.790   5.604   1.933
 8237TIP3    H124588   1.699   5.573   1.936
 8237TIP3    H224589   1.795   5.654   1.851
 8238TIP3   OH224590   6.544   2.945   6.834
 8238TIP3    H124591   6.573   2.917   6.747
 8238TIP3    H224592   6.604   3.017   6.857
 8239TIP3   OH224593   7.246   4.374   4.764
 8239TIP3    H124594   7.157   4.352   4.735
 8239TIP3    H224595   7.289   4.408   4.686
 8240TIP3   OH224596   8.066   8.221   7.270
 8240TIP3    H124597   7.973   8.236   7.289
 8240TIP3    H224598   8.074   8.242   7.177
 8241TIP3   OH224599   5.474   1.788   2.514
 8241TIP3    H124600   5.499   1.876   2.488
 8241TIP3    H224601   5.550   1.734   2.493
 8242TIP3   OH224602   3.649   4.333   7.272
 8242TIP3    H124603   3.665   4.343   7.366
 8242TIP3    H224604   3.688   4.248   7.250
 8243TIP3   OH224605   5.937   1.192   0.078
 8243TIP3    H124606   5.873   1.255   0.044
 8243TIP3    H224607   5.886   1.113   0.095
 8244TIP3   OH224608   2.505   2.758   1.671
 8244TIP3    H124609   2.559   2.836   1.662
 8244TIP3    H224610   2.528   2.722   1.757
 8245TIP3   OH224611   0.278   0.267   1.639
 8245TIP3    H124612   0.229   0.216   1.704
 8245TIP3    H224613   0.276   0.213   1.560
 8246TIP3   OH224614   8.363   8.806   1.879
 8246TIP3    H124615   8.413   8.876   1.920
 8246TIP3    H224616   8.378   8.817   1.785
 8247TIP3   OH224617   1.265   4.598   6.080
 8247TIP3    H124618   1.228   4.535   6.141
 8247TIP3    H224619   1.328   4.648   6.131
 8248TIP3   OH224620   7.496   3.291   7.269
 8248TIP3    H124621   7.533   3.361   7.323
 8248TIP3    H224622   7.507   3.212   7.321
 8249TIP3   OH224623   8.731   3.778   7.663
 8249TIP3    H124624   8.772   3.845   7.608
 8249TIP3    H224625   8.663   3.825   7.712
 8250TIP3   OH224626   2.507   4.850   0.941
 8250TIP3    H124627   2.550   4.832   0.858
 8250TIP3    H224628   2.461   4.933   0.927
 8251TIP3   OH224629   8.262   4.959   4.650
 8251TIP3    H124630   8.255   4.880   4.596
 8251TIP3    H224631   8.176   4.966   4.693
 8252TIP3   OH224632   5.291   0.581   0.058
 8252TIP3    H124633   5.340   0.660   0.036
 8252TIP3    H224634   5.293   0.576   0.153
 8253TIP3   OH224635   6.562   3.996   7.073
 8253TIP3    H124636   6.627   4.012   7.142
 8253TIP3    H224637   6.612   4.003   6.991
 8254TIP3   OH224638   1.096   0.273   4.750
 8254TIP3    H124639   1.189   0.294   4.760
 8254TIP3    H224640   1.066   0.257   4.839
 8255TIP3   OH224641   9.311   7.092   2.730
 8255TIP3    H124642   9.338   7.054   2.647
 8255TIP3    H224643   9.231   7.140   2.709
 8256TIP3   OH224644   7.887   2.751   5.998
 8256TIP3    H124645   7.824   2.804   5.951
 8256TIP3    H224646   7.949   2.813   6.034
 8257TIP3   OH224647   4.206   5.736   0.697
 8257TIP3    H124648   4.123   5.774   0.725
 8257TIP3    H224649   4.192   5.715   0.604
 8258TIP3   OH224650   1.815   4.789   0.091
 8258TIP3    H124651   1.808   4.730   0.016
 8258TIP3    H224652   1.765   4.746   0.160
 8259TIP3   OH224653   2.446   4.008   6.987
 8259TIP3    H124654   2.527   4.021   7.037
 8259TIP3    H224655   2.377   4.004   7.053
 8260TIP3   OH224656   1.814   2.970   3.726
 8260TIP3    H124657   1.806   3.063   3.745
 8260TIP3    H224658   1.808   2.927   3.811
 8261TIP3   OH224659   7.971   2.914   3.784
 8261TIP3    H124660   7.940   2.927   3.873
 8261TIP3    H224661   7.901   2.865   3.741
 8262TIP3   OH224662   2.718   2.139   4.165
 8262TIP3    H124663   2.766   2.220   4.183
 8262TIP3    H224664   2.652   2.164   4.101
 8263TIP3   OH224665   7.363   1.229   6.221
 8263TIP3    H124666   7.348   1.150   6.274
 8263TIP3    H224667   7.337   1.202   6.133
 8264TIP3   OH224668   4.614   7.224   2.388
 8264TIP3    H124669   4.622   7.146   2.443
 8264TIP3    H224670   4.672   7.207   2.314
 8265TIP3   OH224671   8.617   1.882   5.890
 8265TIP3    H124672   8.596   1.862   5.799
 8265TIP3    H224673   8.536   1.865   5.938
 8266TIP3   OH224674   1.698   0.555   5.696
 8266TIP3    H124675   1.613   0.537   5.734
 8266TIP3    H224676   1.724   0.472   5.656
 8267TIP3   OH224677   9.259   8.734   1.742
 8267TIP3    H124678   9.252   8.760   1.651
 8267TIP3    H224679   9.222   8.646   1.745
 8268TIP3   OH224680   6.898   3.718   7.255
 8268TIP3    H124681   6.831   3.776   7.291
 8268TIP3    H224682   6.979   3.770   7.256
 8269TIP3   OH224683   5.301   8.483   0.095
 8269TIP3    H124684   5.396   8.475   0.106
 8269TIP3    H224685   5.287   8.577   0.083
 8270TIP3   OH224686   3.382   3.697   2.069
 8270TIP3    H124687   3.347   3.718   2.156
 8270TIP3    H224688   3.328   3.749   2.009
 8271TIP3   OH224689   7.639   8.361   2.613
 8271TIP3    H124690   7.725   8.386   2.580
 8271TIP3    H224691   7.657   8.312   2.693
 8272TIP3   OH224692   7.204   3.104   3.680
 8272TIP3    H124693   7.245   3.158   3.613
 8272TIP3    H224694   7.199   3.017   3.641
 8273TIP3   OH224695   1.924   3.380   2.004
 8273TIP3    H124696   1.843   3.417   1.970
 8273TIP3    H224697   1.990   3.448   1.989
 8274TIP3   OH224698   0.762   1.450   2.489
 8274TIP3    H124699   0.718   1.424   2.570
 8274TIP3    H224700   0.735   1.541   2.475
 8275TIP3   OH224701   3.488   8.892   1.195
 8275TIP3    H124702   3.436   8.965   1.227
 8275TIP3    H224703   3.425   8.834   1.153
 8276TIP3   OH224704   2.688   0.302   4.730
 8276TIP3    H124705   2.651   0.256   4.805
 8276TIP3    H224706   2.780   0.274   4.728
 8277TIP3   OH224707   4.753   8.263   3.458
 8277TIP3    H124708   4.792   8.311   3.531
 8277TIP3    H224709   4.673   8.311   3.437
 8278TIP3   OH224710   0.000   2.943   0.508
 8278TIP3    H124711  -0.019   2.850   0.499
 8278TIP3    H224712   0.073   2.946   0.570
 8279TIP3   OH224713   8.955   5.854   2.059
 8279TIP3    H124714   8.977   5.931   2.111
 8279TIP3    H224715   9.004   5.783   2.100
 8280TIP3   OH224716   6.795   0.941   6.575
 8280TIP3    H124717   6.812   0.890   6.496
 8280TIP3    H224718   6.881   0.966   6.607
 8281TIP3   OH224719   0.822   6.757   7.733
 8281TIP3    H124720   0.749   6.758   7.671
 8281TIP3    H224721   0.827   6.847   7.766
 8282TIP3   OH224722   4.068   8.747   2.708
 8282TIP3    H124723   4.137   8.689   2.741
 8282TIP3    H224724   4.059   8.723   2.616
 8283TIP3   OH224725   1.433   4.663   7.350
 8283TIP3    H124726   1.373   4.591   7.370
 8283TIP3    H224727   1.420   4.680   7.256
 8284TIP3   OH224728   6.058   8.667   6.169
 8284TIP3    H124729   5.982   8.638   6.220
 8284TIP3    H224730   6.029   8.661   6.078
 8285TIP3   OH224731   4.594   4.576   3.158
 8285TIP3    H124732   4.587   4.505   3.222
 8285TIP3    H224733   4.519   4.633   3.178
 8286TIP3   OH224734   4.330   1.247   2.708
 8286TIP3    H124735   4.403   1.187   2.720
 8286TIP3    H224736   4.337   1.309   2.780
 8287TIP3   OH224737   4.370   4.573   0.546
 8287TIP3    H124738   4.440   4.612   0.494
 8287TIP3    H224739   4.414   4.534   0.621
 8288TIP3   OH224740   0.231   2.376   0.606
 8288TIP3    H124741   0.136   2.367   0.614
 8288TIP3    H224742   0.252   2.456   0.654
 8289TIP3   OH224743   0.276   4.939   1.161
 8289TIP3    H124744   0.364   4.902   1.155
 8289TIP3    H224745   0.245   4.913   1.248
 8290TIP3   OH224746   6.316   3.170   1.790
 8290TIP3    H124747   6.270   3.251   1.810
 8290TIP3    H224748   6.250   3.113   1.751
 8291TIP3   OH224749   7.826   3.961   6.595
 8291TIP3    H124750   7.749   3.910   6.621
 8291TIP3    H224751   7.900   3.909   6.625
 8292TIP3   OH224752   3.604   4.777   1.183
 8292TIP3    H124753   3.572   4.734   1.262
 8292TIP3    H224754   3.641   4.860   1.214
 8293TIP3   OH224755   6.117   6.717   6.321
 8293TIP3    H124756   6.075   6.633   6.338
 8293TIP3    H224757   6.157   6.741   6.405
 8294TIP3   OH224758   9.174   4.309   4.678
 8294TIP3    H124759   9.170   4.216   4.658
 8294TIP3    H224760   9.104   4.323   4.742
 8295TIP3   OH224761   1.177   2.970   5.242
 8295TIP3    H124762   1.226   3.033   5.188
 8295TIP3    H224763   1.181   3.007   5.330
 8296TIP3   OH224764   4.312   2.667   4.816
 8296TIP3    H124765   4.232   2.616   4.832
 8296TIP3    H224766   4.383   2.603   4.827
 8297TIP3   OH224767   4.857   3.920   0.855
 8297TIP3    H124768   4.846   3.873   0.773
 8297TIP3    H224769   4.813   4.004   0.842
 8298TIP3   OH224770   6.469   5.756   1.592
 8298TIP3    H124771   6.420   5.787   1.669
 8298TIP3    H224772   6.422   5.679   1.562
 8299TIP3   OH224773   9.145   5.778   4.337
 8299TIP3    H124774   9.204   5.742   4.403
 8299TIP3    H224775   9.163   5.871   4.336
 8300TIP3   OH224776   4.914   5.228   1.338
 8300TIP3    H124777   4.997   5.194   1.373
 8300TIP3    H224778   4.853   5.155   1.347
 8301TIP3   OH224779   0.466   3.586   7.096
 8301TIP3    H124780   0.526   3.518   7.067
 8301TIP3    H224781   0.435   3.627   7.016
 8302TIP3   OH224782   7.520   8.857   5.716
 8302TIP3    H124783   7.541   8.804   5.793
 8302TIP3    H224784   7.592   8.841   5.655
 8303TIP3   OH224785   8.928   8.362   2.710
 8303TIP3    H124786   8.887   8.283   2.745
 8303TIP3    H224787   8.864   8.398   2.649
 8304TIP3   OH224788   1.342   5.604   1.011
 8304TIP3    H124789   1.416   5.578   1.066
 8304TIP3    H224790   1.288   5.524   1.005
 8305TIP3   OH224791   8.025   5.784   5.437
 8305TIP3    H124792   7.988   5.705   5.477
 8305TIP3    H224793   7.950   5.828   5.397
 8306TIP3   OH224794   3.458   5.917   7.115
 8306TIP3    H124795   3.419   5.930   7.202
 8306TIP3    H224796   3.406   5.846   7.077
 8307TIP3   OH224797   8.466   8.343   7.080
 8307TIP3    H124798   8.523   8.311   7.010
 8307TIP3    H224799   8.513   8.419   7.116
 8308TIP3   OH224800   4.007   0.202   3.508
 8308TIP3    H124801   3.973   0.182   3.595
 8308TIP3    H224802   4.098   0.228   3.522
 8309TIP3   OH224803   3.869   3.408   1.775
 8309TIP3    H124804   3.855   3.333   1.717
 8309TIP3    H224805   3.915   3.473   1.722
 8310TIP3   OH224806   1.893   2.033   5.017
 8310TIP3    H124807   1.824   2.095   4.992
 8310TIP3    H224808   1.937   2.075   5.091
 8311TIP3   OH224809   0.665   0.321   6.304
 8311TIP3    H124810   0.694   0.260   6.236
 8311TIP3    H224811   0.585   0.281   6.340
 8312TIP3   OH224812   5.439   0.842   5.146
 8312TIP3    H124813   5.365   0.889   5.107
 8312TIP3    H224814   5.425   0.849   5.240
 8313TIP3   OH224815   3.092   2.204   6.692
 8313TIP3    H124816   3.001   2.236   6.694
 8313TIP3    H224817   3.132   2.253   6.620
 8314TIP3   OH224818   3.668   6.079   7.007
 8314TIP3    H124819   3.596   6.029   7.046
 8314TIP3    H224820   3.628   6.125   6.934
 8315TIP3   OH224821   3.825   8.032   6.671
 8315TIP3    H124822   3.741   7.987   6.659
 8315TIP3    H224823   3.889   7.974   6.629
 8316TIP3   OH224824   8.959   1.964   7.788
 8316TIP3    H124825   8.901   1.893   7.760
 8316TIP3    H224826   9.010   1.985   7.709
 8317TIP3   OH224827   6.557   4.928   6.743
 8317TIP3    H124828   6.552   4.905   6.650
 8317TIP3    H224829   6.648   4.954   6.757
 8318TIP3   OH224830   7.517   5.746   1.325
 8318TIP3    H124831   7.474   5.668   1.290
 8318TIP3    H224832   7.446   5.794   1.368
 8319TIP3   OH224833   5.446   6.138   5.364
 8319TIP3    H124834   5.538   6.126   5.389
 8319TIP3    H224835   5.430   6.068   5.301
 8320TIP3   OH224836   2.383   0.190   2.247
 8320TIP3    H124837   2.365   0.106   2.203
 8320TIP3    H224838   2.300   0.214   2.287
 8321TIP3   OH224839   8.226   6.400   5.456
 8321TIP3    H124840   8.151   6.379   5.401
 8321TIP3    H224841   8.299   6.352   5.416
 8322TIP3   OH224842   8.921   1.272   5.519
 8322TIP3    H124843   8.902   1.352   5.567
 8322TIP3    H224844   8.999   1.237   5.561
 8323TIP3   OH224845   6.248   6.509   4.425
 8323TIP3    H124846   6.286   6.438   4.478
 8323TIP3    H224847   6.156   6.483   4.414
 8324TIP3   OH224848   0.567   3.925   4.764
 8324TIP3    H124849   0.583   3.998   4.704
 8324TIP3    H224850   0.619   3.946   4.841
 8325TIP3   OH224851   2.387   1.729   4.663
 8325TIP3    H124852   2.466   1.675   4.662
 8325TIP3    H224853   2.387   1.773   4.578
 8326TIP3   OH224854   8.991   2.467   7.511
 8326TIP3    H124855   8.998   2.552   7.469
 8326TIP3    H224856   8.928   2.419   7.458
 8327TIP3   OH224857   0.421   7.316   5.021
 8327TIP3    H124858   0.513   7.336   5.040
 8327TIP3    H224859   0.421   7.226   4.990
 8328TIP3   OH224860   9.051   3.219   6.515
 8328TIP3    H124861   9.107   3.243   6.441
 8328TIP3    H224862   9.096   3.256   6.592
 8329TIP3   OH224863   4.965   0.113   4.702
 8329TIP3    H124864   4.939   0.112   4.794
 8329TIP3    H224865   5.059   0.131   4.704
 8330TIP3   OH224866   1.628   3.052   5.315
 8330TIP3    H124867   1.721   3.042   5.333
 8330TIP3    H224868   1.605   3.138   5.351
 8331TIP3   OH224869   0.472   6.980   1.211
 8331TIP3    H124870   0.517   7.058   1.244
 8331TIP3    H224871   0.456   6.927   1.289
 8332TIP3   OH224872   2.703   3.497   6.985
 8332TIP3    H124873   2.776   3.436   6.972
 8332TIP3    H224874   2.721   3.569   6.925
 8333TIP3   OH224875   6.730   4.625   1.309
 8333TIP3    H124876   6.692   4.585   1.387
 8333TIP3    H224877   6.799   4.682   1.343
 8334TIP3   OH224878   1.474   5.612   3.604
 8334TIP3    H124879   1.548   5.554   3.587
 8334TIP3    H224880   1.491   5.689   3.549
 8335TIP3   OH224881   3.399   0.827   2.142
 8335TIP3    H124882   3.382   0.838   2.048
 8335TIP3    H224883   3.338   0.888   2.184
 8336TIP3   OH224884   4.087   5.428   5.088
 8336TIP3    H124885   4.014   5.478   5.053
 8336TIP3    H224886   4.086   5.446   5.182
 8337TIP3   OH224887   3.062   7.415   3.625
 8337TIP3    H124888   3.072   7.343   3.687
 8337TIP3    H224889   3.127   7.479   3.652
 8338TIP3   OH224890   1.425   1.538   3.756
 8338TIP3    H124891   1.518   1.552   3.737
 8338TIP3    H224892   1.423   1.458   3.809
 8339TIP3   OH224893   2.143   8.208   6.348
 8339TIP3    H124894   2.149   8.113   6.343
 8339TIP3    H224895   2.105   8.234   6.264
 8340TIP3   OH224896   5.135   0.279   5.059
 8340TIP3    H124897   5.084   0.271   5.140
 8340TIP3    H224898   5.155   0.189   5.034
 8341TIP3   OH224899   8.084   0.064   2.034
 8341TIP3    H124900   8.123   0.070   1.947
 8341TIP3    H224901   8.099  -0.027   2.061
 8342TIP3   OH224902   5.974   3.783   1.212
 8342TIP3    H124903   6.029   3.781   1.290
 8342TIP3    H224904   5.986   3.697   1.171
 8343TIP3   OH224905   5.941   7.510   5.472
 8343TIP3    H124906   5.849   7.484   5.482
 8343TIP3    H224907   5.978   7.446   5.411
 8344TIP3   OH224908   3.649   5.327   5.817
 8344TIP3    H124909   3.633   5.233   5.825
 8344TIP3    H224910   3.573   5.360   5.768
 8345TIP3   OH224911   0.987   1.247   2.466
 8345TIP3    H124912   1.013   1.268   2.556
 8345TIP3    H224913   1.048   1.177   2.440
 8346TIP3   OH224914   6.041   0.832   1.425
 8346TIP3    H124915   5.990   0.752   1.412
 8346TIP3    H224916   6.127   0.812   1.387
 8347TIP3   OH224917   9.471   3.579   5.917
 8347TIP3    H124918   9.471   3.670   5.887
 8347TIP3    H224919   9.563   3.558   5.929
 8348TIP3   OH224920   1.436   4.805   3.685
 8348TIP3    H124921   1.459   4.818   3.777
 8348TIP3    H224922   1.385   4.723   3.685
 8349TIP3   OH224923   1.421   1.758   2.297
 8349TIP3    H124924   1.436   1.851   2.317
 8349TIP3    H224925   1.404   1.718   2.382
 8350TIP3   OH224926   0.722   6.084   2.592
 8350TIP3    H124927   0.705   6.155   2.653
 8350TIP3    H224928   0.671   6.010   2.626
 8351TIP3   OH224929   5.971   6.532   6.435
 8351TIP3    H124930   5.907   6.569   6.496
 8351TIP3    H224931   5.929   6.454   6.400
 8352TIP3   OH224932   6.511   0.974   4.270
 8352TIP3    H124933   6.553   0.937   4.348
 8352TIP3    H224934   6.573   1.038   4.237
 8353TIP3   OH224935   1.307   4.909   1.072
 8353TIP3    H124936   1.323   4.871   0.986
 8353TIP3    H224937   1.301   4.835   1.132
 8354TIP3   OH224938   4.825   5.302   0.413
 8354TIP3    H124939   4.795   5.387   0.380
 8354TIP3    H224940   4.838   5.250   0.334
 8355TIP3   OH224941   3.660   3.038   0.488
 8355TIP3    H124942   3.606   3.099   0.438
 8355TIP3    H224943   3.743   3.035   0.441
 8356TIP3   OH224944   5.357   6.289   6.477
 8356TIP3    H124945   5.333   6.295   6.385
 8356TIP3    H224946   5.338   6.377   6.512
 8357TIP3   OH224947   7.124   1.856   1.924
 8357TIP3    H124948   7.216   1.848   1.947
 8357TIP3    H224949   7.102   1.774   1.880
 8358TIP3   OH224950   4.678   2.466   5.931
 8358TIP3    H124951   4.603   2.470   5.990
 8358TIP3    H224952   4.725   2.387   5.958
 8359TIP3   OH224953   4.063   6.727   1.887
 8359TIP3    H124954   4.132   6.664   1.910
 8359TIP3    H224955   4.051   6.716   1.793
 8360TIP3   OH224956   1.947   5.907   1.489
 8360TIP3    H124957   1.978   5.944   1.571
 8360TIP3    H224958   1.923   5.983   1.436
 8361TIP3   OH224959   4.763   5.091   2.205
 8361TIP3    H124960   4.772   4.996   2.210
 8361TIP3    H224961   4.670   5.108   2.215
 8362TIP3   OH224962   2.641   3.312   3.973
 8362TIP3    H124963   2.649   3.227   3.929
 8362TIP3    H224964   2.647   3.376   3.902
 8363TIP3   OH224965   3.733   0.063   5.645
 8363TIP3    H124966   3.826   0.085   5.631
 8363TIP3    H224967   3.698   0.136   5.696
 8364TIP3   OH224968   5.747   8.046   6.825
 8364TIP3    H124969   5.698   7.967   6.845
 8364TIP3    H224970   5.807   8.020   6.756
 8365TIP3   OH224971   3.880   3.498   3.086
 8365TIP3    H124972   3.898   3.582   3.044
 8365TIP3    H224973   3.966   3.464   3.110
 8366TIP3   OH224974   1.941   6.132   2.582
 8366TIP3    H124975   2.034   6.113   2.577
 8366TIP3    H224976   1.936   6.220   2.619
 8367TIP3   OH224977   8.521   8.764   5.714
 8367TIP3    H124978   8.535   8.847   5.667
 8367TIP3    H224979   8.431   8.768   5.745
 8368TIP3   OH224980   8.807   4.296   7.533
 8368TIP3    H124981   8.859   4.218   7.550
 8368TIP3    H224982   8.717   4.270   7.555
 8369TIP3   OH224983   2.006   2.526   4.244
 8369TIP3    H124984   1.944   2.599   4.245
 8369TIP3    H224985   1.959   2.454   4.287
 8370TIP3   OH224986   7.302   3.120   4.116
 8370TIP3    H124987   7.208   3.108   4.126
 8370TIP3    H224988   7.340   3.036   4.142
 8371TIP3   OH224989   2.372   5.763   1.093
 8371TIP3    H124990   2.314   5.705   1.142
 8371TIP3    H224991   2.354   5.850   1.129
 8372TIP3   OH224992   0.842   2.264   3.785
 8372TIP3    H124993   0.769   2.316   3.817
 8372TIP3    H224994   0.842   2.186   3.840
 8373TIP3   OH224995   4.924   5.906   2.835
 8373TIP3    H124996   4.889   5.897   2.924
 8373TIP3    H224997   4.885   5.987   2.802
 8374TIP3   OH224998   6.538   3.444   4.470
 8374TIP3    H124999   6.583   3.483   4.396
 8374TIP3    H225000   6.447   3.434   4.441
 8375TIP3   OH225001   4.245   3.441   6.098
 8375TIP3    H125002   4.203   3.398   6.172
 8375TIP3    H225003   4.332   3.402   6.093
 8376TIP3   OH225004   5.594   1.588   6.220
 8376TIP3    H125005   5.680   1.582   6.180
 8376TIP3    H225006   5.534   1.552   6.154
 8377TIP3   OH225007   6.705   6.384   3.586
 8377TIP3    H125008   6.769   6.349   3.524
 8377TIP3    H225009   6.647   6.438   3.532
 8378TIP3   OH225010   1.577   5.950   1.405
 8378TIP3    H125011   1.629   5.892   1.349
 8378TIP3    H225012   1.636   6.021   1.427
 8379TIP3   OH225013   4.210   3.523   1.512
 8379TIP3    H125014   4.203   3.429   1.493
 8379TIP3    H225015   4.301   3.536   1.537
 8380TIP3   OH225016   5.846   0.826   2.171
 8380TIP3    H125017   5.788   0.888   2.216
 8380TIP3    H225018   5.857   0.863   2.084
 8381TIP3   OH225019   5.766   5.122   1.112
 8381TIP3    H125020   5.855   5.157   1.111
 8381TIP3    H225021   5.726   5.154   1.032
 8382TIP3   OH225022   0.834   5.881   1.434
 8382TIP3    H125023   0.739   5.880   1.449
 8382TIP3    H225024   0.843   5.912   1.344
 8383TIP3   OH225025   8.963   1.641   4.360
 8383TIP3    H125026   8.926   1.553   4.352
 8383TIP3    H225027   8.896   1.699   4.325
 8384TIP3   OH225028   3.265   0.043   5.565
 8384TIP3    H125029   3.262   0.138   5.553
 8384TIP3    H225030   3.192   0.024   5.625
 8385TIP3   OH225031   1.048   0.078   4.233
 8385TIP3    H125032   1.086   0.143   4.292
 8385TIP3    H225033   1.044  -0.002   4.285
 8386TIP3   OH225034   5.221   0.243   3.065
 8386TIP3    H125035   5.200   0.199   2.983
 8386TIP3    H225036   5.312   0.218   3.083
 8387TIP3   OH225037   3.718   6.543   6.786
 8387TIP3    H125038   3.785   6.476   6.768
 8387TIP3    H225039   3.768   6.620   6.810
 8388TIP3   OH225040   6.966   5.596   1.316
 8388TIP3    H125041   6.918   5.590   1.233
 8388TIP3    H225042   6.932   5.524   1.368
 8389TIP3   OH225043   1.984   8.088   2.160
 8389TIP3    H125044   1.949   8.092   2.071
 8389TIP3    H225045   2.075   8.060   2.149
 8390TIP3   OH225046   4.323   8.937   0.650
 8390TIP3    H125047   4.390   8.870   0.637
 8390TIP3    H225048   4.309   8.939   0.744
 8391TIP3   OH225049   2.737   5.515   5.502
 8391TIP3    H125050   2.700   5.562   5.428
 8391TIP3    H225051   2.672   5.448   5.523
 8392TIP3   OH225052   7.570   1.652   4.714
 8392TIP3    H125053   7.558   1.695   4.629
 8392TIP3    H225054   7.532   1.713   4.777
 8393TIP3   OH225055   3.516   1.306   1.308
 8393TIP3    H125056   3.569   1.264   1.375
 8393TIP3    H225057   3.573   1.312   1.232
 8394TIP3   OH225058   1.051   1.543   6.153
 8394TIP3    H125059   1.116   1.514   6.217
 8394TIP3    H225060   0.967   1.523   6.194
 8395TIP3   OH225061   5.536   1.821   7.730
 8395TIP3    H125062   5.624   1.834   7.764
 8395TIP3    H225063   5.525   1.889   7.664
 8396TIP3   OH225064   4.099   3.255   7.680
 8396TIP3    H125065   4.099   3.237   7.774
 8396TIP3    H225066   4.078   3.170   7.639
 8397TIP3   OH225067   4.160   0.497   6.838
 8397TIP3    H125068   4.180   0.540   6.921
 8397TIP3    H225069   4.150   0.405   6.860
 8398TIP3   OH225070   8.850   6.479   4.462
 8398TIP3    H125071   8.774   6.527   4.432
 8398TIP3    H225072   8.820   6.388   4.469
 8399TIP3   OH225073   9.315   4.782   1.285
 8399TIP3    H125074   9.404   4.801   1.313
 8399TIP3    H225075   9.274   4.739   1.360
 8400TIP3   OH225076   7.855   2.386   2.647
 8400TIP3    H125077   7.864   2.454   2.579
 8400TIP3    H225078   7.945   2.360   2.667
 8401TIP3   OH225079   7.348   1.110   7.781
 8401TIP3    H125080   7.270   1.097   7.728
 8401TIP3    H225081   7.317   1.104   7.871
 8402TIP3   OH225082   7.812   4.537   4.648
 8402TIP3    H125083   7.738   4.477   4.638
 8402TIP3    H225084   7.874   4.489   4.703
 8403TIP3   OH225085   5.378   8.510   7.458
 8403TIP3    H125086   5.314   8.579   7.440
 8403TIP3    H225087   5.414   8.487   7.372
 8404TIP3   OH225088   3.196   1.892   6.489
 8404TIP3    H125089   3.210   1.925   6.400
 8404TIP3    H225090   3.103   1.871   6.493
 8405TIP3   OH225091   8.210   1.568   6.946
 8405TIP3    H125092   8.163   1.497   6.992
 8405TIP3    H225093   8.295   1.530   6.925
 8406TIP3   OH225094   5.008   4.531   3.823
 8406TIP3    H125095   4.973   4.598   3.765
 8406TIP3    H225096   4.999   4.569   3.911
 8407TIP3   OH225097   2.775   7.324   7.112
 8407TIP3    H125098   2.761   7.416   7.130
 8407TIP3    H225099   2.687   7.288   7.097
 8408TIP3   OH225100   1.932   1.965   5.577
 8408TIP3    H125101   1.876   2.009   5.513
 8408TIP3    H225102   2.021   1.982   5.548
 8409TIP3   OH225103   3.255   4.375   5.963
 8409TIP3    H125104   3.263   4.317   6.038
 8409TIP3    H225105   3.161   4.386   5.950
 8410TIP3   OH225106   0.945   3.768   4.181
 8410TIP3    H125107   0.960   3.714   4.103
 8410TIP3    H225108   0.920   3.854   4.145
 8411TIP3   OH225109   1.139   5.578   4.030
 8411TIP3    H125110   1.187   5.593   3.949
 8411TIP3    H225111   1.182   5.634   4.095
 8412TIP3   OH225112   7.478   4.652   7.493
 8412TIP3    H125113   7.508   4.741   7.473
 8412TIP3    H225114   7.543   4.618   7.555
 8413TIP3   OH225115   0.637   1.844   5.705
 8413TIP3    H125116   0.627   1.776   5.772
 8413TIP3    H225117   0.679   1.916   5.751
 8414TIP3   OH225118   0.635   6.008   2.974
 8414TIP3    H125119   0.600   5.948   2.908
 8414TIP3    H225120   0.659   6.086   2.924
 8415TIP3   OH225121   4.026   4.000   1.392
 8415TIP3    H125122   4.076   3.946   1.330
 8415TIP3    H225123   4.047   3.963   1.478
 8416TIP3   OH225124   5.662   8.412   7.646
 8416TIP3    H125125   5.740   8.361   7.666
 8416TIP3    H225126   5.633   8.379   7.561
 8417TIP3   OH225127   5.246   3.927   0.082
 8417TIP3    H125128   5.234   4.015   0.116
 8417TIP3    H225129   5.276   3.940  -0.008
 8418TIP3   OH225130   1.076   5.352   3.643
 8418TIP3    H125131   1.159   5.319   3.676
 8418TIP3    H225132   1.014   5.340   3.715
 8419TIP3   OH225133   8.913   5.119   5.589
 8419TIP3    H125134   8.823   5.087   5.582
 8419TIP3    H225135   8.904   5.211   5.613
 8420TIP3   OH225136   8.757   2.765   1.304
 8420TIP3    H125137   8.788   2.698   1.364
 8420TIP3    H225138   8.828   2.828   1.299
 8421TIP3   OH225139   0.468   4.850   3.990
 8421TIP3    H125140   0.496   4.814   3.906
 8421TIP3    H225141   0.408   4.921   3.967
 8422TIP3   OH225142   0.943   5.173   2.804
 8422TIP3    H125143   1.030   5.142   2.827
 8422TIP3    H225144   0.958   5.237   2.734
 8423TIP3   OH225145   3.549   4.877   4.848
 8423TIP3    H125146   3.496   4.805   4.814
 8423TIP3    H225147   3.539   4.872   4.943
 8424TIP3   OH225148   1.358   6.976   3.063
 8424TIP3    H125149   1.311   7.037   3.121
 8424TIP3    H225150   1.335   7.004   2.975
 8425TIP3   OH225151   6.555   6.156   5.735
 8425TIP3    H125152   6.567   6.250   5.731
 8425TIP3    H225153   6.574   6.133   5.826
 8426TIP3   OH225154   6.333   4.808   3.585
 8426TIP3    H125155   6.357   4.889   3.630
 8426TIP3    H225156   6.248   4.784   3.621
 8427TIP3   OH225157   4.439   1.652   5.499
 8427TIP3    H125158   4.381   1.591   5.544
 8427TIP3    H225159   4.519   1.602   5.484
 8428TIP3   OH225160   2.186   5.094   6.999
 8428TIP3    H125161   2.139   5.109   6.917
 8428TIP3    H225162   2.246   5.168   7.006
 8429TIP3   OH225163   5.840   7.032   7.493
 8429TIP3    H125164   5.836   6.961   7.558
 8429TIP3    H225165   5.918   7.012   7.441
 8430TIP3   OH225166   0.977   3.425   5.088
 8430TIP3    H125167   0.891   3.467   5.093
 8430TIP3    H225168   1.024   3.457   5.165
 8431TIP3   OH225169   9.515   3.283   3.808
 8431TIP3    H125170   9.510   3.365   3.758
 8431TIP3    H225171   9.450   3.295   3.878
 8432TIP3   OH225172   2.920   0.155   6.241
 8432TIP3    H125173   2.890   0.067   6.266
 8432TIP3    H225174   3.003   0.166   6.287
 8433TIP3   OH225175   9.272   7.883   1.700
 8433TIP3    H125176   9.249   7.970   1.733
 8433TIP3    H225177   9.218   7.823   1.753
 8434TIP3   OH225178   0.978   1.062   0.190
 8434TIP3    H125179   0.990   0.975   0.150
 8434TIP3    H225180   0.884   1.078   0.184
 8435TIP3   OH225181   7.416   8.878   2.106
 8435TIP3    H125182   7.388   8.962   2.070
 8435TIP3    H225183   7.339   8.848   2.156
 8436TIP3   OH225184   2.937   1.258   7.730
 8436TIP3    H125185   2.938   1.257   7.635
 8436TIP3    H225186   3.009   1.202   7.756
 8437TIP3   OH225187   7.551   3.337   4.202
 8437TIP3    H125188   7.464   3.297   4.203
 8437TIP3    H225189   7.548   3.402   4.133
 8438TIP3   OH225190   8.649   6.336   7.630
 8438TIP3    H125191   8.605   6.369   7.709
 8438TIP3    H225192   8.736   6.309   7.660
 8439TIP3   OH225193   7.443   1.747   7.055
 8439TIP3    H125194   7.448   1.661   7.012
 8439TIP3    H225195   7.443   1.726   7.148
 8440TIP3   OH225196   1.051   0.324   5.451
 8440TIP3    H125197   1.035   0.232   5.471
 8440TIP3    H225198   1.098   0.322   5.368
 8441TIP3   OH225199   1.126   3.456   6.854
 8441TIP3    H125200   1.159   3.374   6.892
 8441TIP3    H225201   1.149   3.523   6.918
 8442TIP3   OH225202   8.000   1.424   7.661
 8442TIP3    H125203   7.974   1.334   7.679
 8442TIP3    H225204   8.095   1.423   7.663
 8443TIP3   OH225205   8.564   8.341   0.978
 8443TIP3    H125206   8.484   8.290   0.995
 8443TIP3    H225207   8.581   8.329   0.885
 8444TIP3   OH225208   2.402   1.149   4.068
 8444TIP3    H125209   2.387   1.157   4.163
 8444TIP3    H225210   2.363   1.229   4.031
 8445TIP3   OH225211   2.346   3.699   7.013
 8445TIP3    H125212   2.372   3.730   6.926
 8445TIP3    H225213   2.325   3.779   7.062
 8446TIP3   OH225214   2.090   2.904   3.015
 8446TIP3    H125215   2.136   2.844   2.957
 8446TIP3    H225216   2.150   2.917   3.089
 8447TIP3   OH225217   5.097   1.819   0.558
 8447TIP3    H125218   5.019   1.848   0.605
 8447TIP3    H225219   5.065   1.792   0.472
 8448TIP3   OH225220   8.781   4.706   5.764
 8448TIP3    H125221   8.768   4.717   5.859
 8448TIP3    H225222   8.777   4.796   5.730
 8449TIP3   OH225223   3.276   3.871   5.215
 8449TIP3    H125224   3.308   3.942   5.160
 8449TIP3    H225225   3.193   3.845   5.176
 8450TIP3   OH225226   2.943   2.894   5.917
 8450TIP3    H125227   2.981   2.927   5.998
 8450TIP3    H225228   2.889   2.966   5.885
 8451TIP3   OH225229   6.409   7.382   4.186
 8451TIP3    H125230   6.459   7.458   4.156
 8451TIP3    H225231   6.415   7.320   4.113
 8452TIP3   OH225232   4.705   4.639   4.747
 8452TIP3    H125233   4.697   4.727   4.710
 8452TIP3    H225234   4.798   4.621   4.745
 8453TIP3   OH225235   2.610   3.744   1.832
 8453TIP3    H125236   2.595   3.667   1.778
 8453TIP3    H225237   2.538   3.804   1.810
 8454TIP3   OH225238   8.796   2.680   5.192
 8454TIP3    H125239   8.726   2.664   5.129
 8454TIP3    H225240   8.822   2.592   5.222
 8455TIP3   OH225241   1.478   6.454   6.591
 8455TIP3    H125242   1.540   6.520   6.560
 8455TIP3    H225243   1.428   6.430   6.513
 8456TIP3   OH225244   7.530   6.435   7.240
 8456TIP3    H125245   7.550   6.430   7.334
 8456TIP3    H225246   7.457   6.496   7.235
 8457TIP3   OH225247   9.332   4.143   5.855
 8457TIP3    H125248   9.279   4.115   5.780
 8457TIP3    H225249   9.283   4.217   5.892
 8458TIP3   OH225250   3.186   6.631   4.739
 8458TIP3    H125251   3.212   6.602   4.652
 8458TIP3    H225252   3.111   6.688   4.725
 8459TIP3   OH225253   6.140   7.814   7.296
 8459TIP3    H125254   6.147   7.832   7.202
 8459TIP3    H225255   6.136   7.901   7.337
 8460TIP3   OH225256   8.822   5.279   1.190
 8460TIP3    H125257   8.902   5.320   1.159
 8460TIP3    H225258   8.800   5.327   1.270
 8461TIP3   OH225259   1.083   1.347   4.053
 8461TIP3    H125260   1.177   1.353   4.071
 8461TIP3    H225261   1.069   1.405   3.979
 8462TIP3   OH225262   1.364   7.066   3.375
 8462TIP3    H125263   1.431   7.093   3.438
 8462TIP3    H225264   1.332   7.148   3.337
 8463TIP3   OH225265   7.690   8.846   5.505
 8463TIP3    H125266   7.780   8.813   5.511
 8463TIP3    H225267   7.700   8.940   5.493
 8464TIP3   OH225268   6.703   8.401   2.987
 8464TIP3    H125269   6.690   8.459   3.062
 8464TIP3    H225270   6.653   8.442   2.917
 8465TIP3   OH225271   3.053   1.608   3.781
 8465TIP3    H125272   3.015   1.685   3.739
 8465TIP3    H225273   3.147   1.626   3.784
 8466TIP3   OH225274   7.337   8.131   4.982
 8466TIP3    H125275   7.303   8.147   5.071
 8466TIP3    H225276   7.407   8.195   4.971
 8467TIP3   OH225277   1.941   4.307   0.505
 8467TIP3    H125278   1.958   4.322   0.413
 8467TIP3    H225279   1.967   4.216   0.520
 8468TIP3   OH225280   2.028   1.987   3.427
 8468TIP3    H125281   2.039   2.011   3.519
 8468TIP3    H225282   1.944   2.024   3.401
 8469TIP3   OH225283   7.487   5.754   5.973
 8469TIP3    H125284   7.434   5.798   6.040
 8469TIP3    H225285   7.425   5.733   5.903
 8470TIP3   OH225286   2.250   2.831   1.886
 8470TIP3    H125287   2.177   2.770   1.879
 8470TIP3    H225288   2.318   2.781   1.931
 8471TIP3   OH225289   3.806   4.032   1.229
 8471TIP3    H125290   3.842   4.071   1.308
 8471TIP3    H225291   3.754   3.958   1.259
 8472TIP3   OH225292   1.931   1.140   4.217
 8472TIP3    H125293   1.863   1.171   4.277
 8472TIP3    H225294   1.894   1.153   4.130
 8473TIP3   OH225295   2.810   7.678   4.907
 8473TIP3    H125296   2.803   7.644   4.996
 8473TIP3    H225297   2.740   7.742   4.899
 8474TIP3   OH225298   7.761   5.416   2.637
 8474TIP3    H125299   7.823   5.465   2.583
 8474TIP3    H225300   7.694   5.480   2.660
 8475TIP3   OH225301   3.902   8.980   2.497
 8475TIP3    H125302   3.986   8.986   2.450
 8475TIP3    H225303   3.873   9.071   2.507
 8476TIP3   OH225304   8.454   7.221   4.453
 8476TIP3    H125305   8.537   7.175   4.439
 8476TIP3    H225306   8.412   7.175   4.525
 8477TIP3   OH225307   4.594   6.562   1.454
 8477TIP3    H125308   4.650   6.544   1.379
 8477TIP3    H225309   4.505   6.551   1.420
 8478TIP3   OH225310   0.034   3.684   0.012
 8478TIP3    H125311   0.075   3.619  -0.046
 8478TIP3    H225312  -0.038   3.719  -0.040
 8479TIP3   OH225313   3.385   4.519   7.216
 8479TIP3    H125314   3.477   4.543   7.229
 8479TIP3    H225315   3.340   4.603   7.204
 8480TIP3   OH225316   5.526   7.513   2.157
 8480TIP3    H125317   5.477   7.549   2.083
 8480TIP3    H225318   5.572   7.589   2.194
 8481TIP3   OH225319   8.633   7.248   2.385
 8481TIP3    H125320   8.684   7.256   2.466
 8481TIP3    H225321   8.656   7.327   2.335
 8482TIP3   OH225322   0.213   5.519   1.165
 8482TIP3    H125323   0.278   5.461   1.205
 8482TIP3    H225324   0.202   5.486   1.076
 8483TIP3   OH225325   8.451   4.674   0.999
 8483TIP3    H125326   8.483   4.636   0.917
 8483TIP3    H225327   8.404   4.753   0.973
 8484TIP3   OH225328   7.810   1.023   1.395
 8484TIP3    H125329   7.904   1.030   1.383
 8484TIP3    H225330   7.787   0.939   1.355
 8485TIP3   OH225331   8.363   8.552   2.000
 8485TIP3    H125332   8.269   8.537   1.992
 8485TIP3    H225333   8.384   8.615   1.931
 8486TIP3   OH225334   0.932   3.800   1.968
 8486TIP3    H125335   0.904   3.822   2.057
 8486TIP3    H225336   0.860   3.831   1.912
 8487TIP3   OH225337   9.155   1.362   3.581
 8487TIP3    H125338   9.244   1.355   3.614
 8487TIP3    H225339   9.116   1.434   3.630
 8488TIP3   OH225340   2.219   8.724   1.687
 8488TIP3    H125341   2.124   8.716   1.691
 8488TIP3    H225342   2.243   8.683   1.604
 8489TIP3   OH225343   8.207   3.376   2.825
 8489TIP3    H125344   8.197   3.281   2.811
 8489TIP3    H225345   8.295   3.385   2.861
 8490TIP3   OH225346   8.409   6.187   5.117
 8490TIP3    H125347   8.485   6.241   5.136
 8490TIP3    H225348   8.420   6.161   5.025
 8491TIP3   OH225349   2.518   4.268   7.701
 8491TIP3    H125350   2.515   4.282   7.795
 8491TIP3    H225351   2.426   4.265   7.674
 8492TIP3   OH225352   1.728   2.070   1.144
 8492TIP3    H125353   1.677   1.995   1.115
 8492TIP3    H225354   1.744   2.054   1.237
 8493TIP3   OH225355   5.646   1.704   1.164
 8493TIP3    H125356   5.709   1.664   1.104
 8493TIP3    H225357   5.607   1.631   1.211
 8494TIP3   OH225358   5.939   2.891   6.398
 8494TIP3    H125359   5.940   2.805   6.357
 8494TIP3    H225360   5.850   2.923   6.385
 8495TIP3   OH225361   4.270   6.276   5.538
 8495TIP3    H125362   4.240   6.310   5.622
 8495TIP3    H225363   4.338   6.338   5.511
 8496TIP3   OH225364   6.340   8.959   2.650
 8496TIP3    H125365   6.310   9.008   2.727
 8496TIP3    H225366   6.428   8.932   2.673
 8497TIP3   OH225367   3.385   4.107   6.406
 8497TIP3    H125368   3.351   4.042   6.468
 8497TIP3    H225369   3.413   4.180   6.462
 8498TIP3   OH225370   9.351   6.823   5.442
 8498TIP3    H125371   9.378   6.804   5.532
 8498TIP3    H225372   9.413   6.891   5.413
 8499TIP3   OH225373   4.339   5.922   6.026
 8499TIP3    H125374   4.387   6.005   6.032
 8499TIP3    H225375   4.246   5.948   6.032
 8500TIP3   OH225376   7.295   4.132   5.500
 8500TIP3    H125377   7.259   4.103   5.416
 8500TIP3    H225378   7.304   4.051   5.551
 8501TIP3   OH225379   3.640   0.271   4.813
 8501TIP3    H125380   3.604   0.255   4.900
 8501TIP3    H225381   3.732   0.246   4.819
 8502TIP3   OH225382   7.810   1.919   4.845
 8502TIP3    H125383   7.820   1.959   4.758
 8502TIP3    H225384   7.716   1.902   4.852
 8503TIP3   OH225385   2.428   7.865   5.952
 8503TIP3    H125386   2.522   7.860   5.933
 8503TIP3    H225387   2.421   7.837   6.044
 8504TIP3   OH225388   6.542   3.422   3.591
 8504TIP3    H125389   6.596   3.374   3.653
 8504TIP3    H225390   6.469   3.363   3.572
 8505TIP3   OH225391   4.764   4.240   5.635
 8505TIP3    H125392   4.753   4.196   5.719
 8505TIP3    H225393   4.682   4.287   5.622
 8506TIP3   OH225394   6.835   2.717   0.625
 8506TIP3    H125395   6.840   2.749   0.715
 8506TIP3    H225396   6.905   2.764   0.579
 8507TIP3   OH225397   6.504   6.304   2.142
 8507TIP3    H125398   6.534   6.309   2.052
 8507TIP3    H225399   6.470   6.391   2.161
 8508TIP3   OH225400   8.856   1.838   2.237
 8508TIP3    H125401   8.922   1.801   2.296
 8508TIP3    H225402   8.800   1.763   2.214
 8509TIP3   OH225403   5.537   6.065   3.004
 8509TIP3    H125404   5.588   5.987   3.029
 8509TIP3    H225405   5.599   6.119   2.955
 8510TIP3   OH225406   5.436   2.007   3.079
 8510TIP3    H125407   5.353   2.053   3.066
 8510TIP3    H225408   5.501   2.077   3.091
 8511TIP3   OH225409   1.888   0.527   5.018
 8511TIP3    H125410   1.856   0.615   4.998
 8511TIP3    H225411   1.981   0.530   4.996
 8512TIP3   OH225412   1.813   8.842   1.422
 8512TIP3    H125413   1.781   8.751   1.421
 8512TIP3    H225414   1.840   8.859   1.332
 8513TIP3   OH225415   5.971   5.745   2.457
 8513TIP3    H125416   5.929   5.708   2.380
 8513TIP3    H225417   5.927   5.704   2.531
 8514TIP3   OH225418   5.163   1.097   7.327
 8514TIP3    H125419   5.176   1.190   7.348
 8514TIP3    H225420   5.069   1.088   7.311
 8515TIP3   OH225421   3.441   8.442   0.065
 8515TIP3    H125422   3.358   8.450   0.017
 8515TIP3    H225423   3.441   8.517   0.124
 8516TIP3   OH225424   0.066   1.689   3.420
 8516TIP3    H125425  -0.019   1.725   3.443
 8516TIP3    H225426   0.101   1.750   3.355
 8517TIP3   OH225427   6.667   6.367   2.593
 8517TIP3    H125428   6.650   6.273   2.600
 8517TIP3    H225429   6.762   6.373   2.581
 8518TIP3   OH225430   6.701   7.644   4.553
 8518TIP3    H125431   6.677   7.595   4.632
 8518TIP3    H225432   6.777   7.697   4.580
 8519TIP3   OH225433   0.693   0.051   4.279
 8519TIP3    H125434   0.783   0.065   4.308
 8519TIP3    H225435   0.701  -0.009   4.204
 8520TIP3   OH225436   8.224   1.230   5.798
 8520TIP3    H125437   8.151   1.207   5.856
 8520TIP3    H225438   8.196   1.200   5.712
 8521TIP3   OH225439   0.780   5.291   6.292
 8521TIP3    H125440   0.868   5.328   6.286
 8521TIP3    H225441   0.785   5.209   6.242
 8522TIP3   OH225442   6.230   4.057   3.267
 8522TIP3    H125443   6.174   4.009   3.328
 8522TIP3    H225444   6.178   4.067   3.188
 8523TIP3   OH225445   8.807   4.870   1.453
 8523TIP3    H125446   8.748   4.938   1.423
 8523TIP3    H225447   8.888   4.885   1.403
 8524TIP3   OH225448   1.852   6.598   5.290
 8524TIP3    H125449   1.832   6.531   5.225
 8524TIP3    H225450   1.932   6.640   5.258
 8525TIP3   OH225451   3.117   5.085   4.570
 8525TIP3    H125452   3.123   5.174   4.536
 8525TIP3    H225453   3.198   5.072   4.618
 8526TIP3   OH225454   3.098   1.682   7.562
 8526TIP3    H125455   3.103   1.771   7.597
 8526TIP3    H225456   3.004   1.663   7.557
 8527TIP3   OH225457   4.823   0.491   3.392
 8527TIP3    H125458   4.843   0.465   3.481
 8527TIP3    H225459   4.789   0.580   3.399
 8528TIP3   OH225460   8.544   4.588   1.593
 8528TIP3    H125461   8.462   4.603   1.546
 8528TIP3    H225462   8.521   4.528   1.664
 8529TIP3   OH225463   2.063   6.007   6.537
 8529TIP3    H125464   2.046   6.056   6.618
 8529TIP3    H225465   2.143   6.044   6.502
 8530TIP3   OH225466   1.814   0.187   7.504
 8530TIP3    H125467   1.819   0.098   7.539
 8530TIP3    H225468   1.828   0.244   7.580
 8531TIP3   OH225469   1.671   4.279   2.225
 8531TIP3    H125470   1.708   4.230   2.152
 8531TIP3    H225471   1.719   4.247   2.302
 8532TIP3   OH225472   9.338   7.158   3.337
 8532TIP3    H125473   9.362   7.133   3.426
 8532TIP3    H225474   9.302   7.246   3.346
 8533TIP3   OH225475   2.058   4.929   6.680
 8533TIP3    H125476   2.065   5.024   6.692
 8533TIP3    H225477   2.005   4.899   6.753
 8534TIP3   OH225478   5.050   2.232   0.025
 8534TIP3    H125479   4.994   2.279  -0.037
 8534TIP3    H225480   5.037   2.139   0.004
 8535TIP3   OH225481   1.628   8.241   6.227
 8535TIP3    H125482   1.601   8.271   6.313
 8535TIP3    H225483   1.683   8.311   6.192
 8536TIP3   OH225484   1.014   5.299   2.580
 8536TIP3    H125485   1.084   5.261   2.527
 8536TIP3    H225486   0.949   5.329   2.516
 8537TIP3   OH225487   9.171   2.525   0.010
 8537TIP3    H125488   9.130   2.569  -0.064
 8537TIP3    H225489   9.237   2.468  -0.029
 8538TIP3   OH225490   7.690   4.638   0.644
 8538TIP3    H125491   7.627   4.614   0.713
 8538TIP3    H225492   7.734   4.716   0.678
 8539TIP3   OH225493   6.350   3.251   3.110
 8539TIP3    H125494   6.364   3.156   3.112
 8539TIP3    H225495   6.330   3.270   3.018
 8540TIP3   OH225496   0.485   8.778   0.704
 8540TIP3    H125497   0.442   8.860   0.682
 8540TIP3    H225498   0.541   8.799   0.779
 8541TIP3   OH225499   5.225   0.471   6.363
 8541TIP3    H125500   5.234   0.481   6.458
 8541TIP3    H225501   5.298   0.521   6.327
 8542TIP3   OH225502   7.263   8.814   3.729
 8542TIP3    H125503   7.341   8.770   3.763
 8542TIP3    H225504   7.296   8.871   3.660
 8543TIP3   OH225505   2.420   6.637   2.206
 8543TIP3    H125506   2.405   6.599   2.120
 8543TIP3    H225507   2.467   6.719   2.188
 8544TIP3   OH225508   2.591   5.980   0.402
 8544TIP3    H125509   2.625   6.070   0.397
 8544TIP3    H225510   2.645   5.931   0.340
 8545TIP3   OH225511   0.793   8.600   3.588
 8545TIP3    H125512   0.887   8.595   3.573
 8545TIP3    H225513   0.782   8.677   3.644
 8546TIP3   OH225514   5.008   0.656   2.739
 8546TIP3    H125515   4.935   0.652   2.677
 8546TIP3    H225516   5.019   0.565   2.768
 8547TIP3   OH225517   4.667   1.112   4.890
 8547TIP3    H125518   4.625   1.126   4.975
 8547TIP3    H225519   4.620   1.170   4.830
 8548TIP3   OH225520   0.446   6.019   0.833
 8548TIP3    H125521   0.519   6.018   0.895
 8548TIP3    H225522   0.458   5.941   0.780
 8549TIP3   OH225523   2.339   8.067   6.847
 8549TIP3    H125524   2.307   8.067   6.757
 8549TIP3    H225525   2.295   8.142   6.888
 8550TIP3   OH225526   3.373   1.169   7.638
 8550TIP3    H125527   3.411   1.120   7.710
 8550TIP3    H225528   3.433   1.243   7.625
 8551TIP3   OH225529   3.310   0.255   6.170
 8551TIP3    H125530   3.305   0.296   6.084
 8551TIP3    H225531   3.270   0.169   6.158
 8552TIP3   OH225532   5.209   1.670   1.148
 8552TIP3    H125533   5.286   1.680   1.093
 8552TIP3    H225534   5.137   1.655   1.086
 8553TIP3   OH225535   2.999   0.788   0.941
 8553TIP3    H125536   2.959   0.777   1.027
 8553TIP3    H225537   3.068   0.722   0.937
 8554TIP3   OH225538   4.271   4.318   5.116
 8554TIP3    H125539   4.236   4.355   5.197
 8554TIP3    H225540   4.282   4.224   5.134
 8555TIP3   OH225541   4.121   6.258   6.233
 8555TIP3    H125542   4.116   6.337   6.179
 8555TIP3    H225543   4.114   6.186   6.170
 8556TIP3   OH225544   2.226   5.413   4.470
 8556TIP3    H125545   2.193   5.328   4.500
 8556TIP3    H225546   2.313   5.394   4.434
 8557TIP3   OH225547   5.298   1.959   2.664
 8557TIP3    H125548   5.382   1.980   2.624
 8557TIP3    H225549   5.311   1.874   2.706
 8558TIP3   OH225550   0.082   3.889   1.714
 8558TIP3    H125551   0.108   3.861   1.626
 8558TIP3    H225552  -0.004   3.928   1.702
 8559TIP3   OH225553   1.438   1.438   6.927
 8559TIP3    H125554   1.463   1.526   6.899
 8559TIP3    H225555   1.413   1.449   7.019
 8560TIP3   OH225556   4.679   5.927   3.815
 8560TIP3    H125557   4.653   5.835   3.819
 8560TIP3    H225558   4.772   5.924   3.793
 8561TIP3   OH225559   7.949   6.062   2.742
 8561TIP3    H125560   7.915   5.976   2.719
 8561TIP3    H225561   7.870   6.114   2.760
 8562TIP3   OH225562   9.065   7.554   6.000
 8562TIP3    H125563   9.060   7.548   5.905
 8562TIP3    H225564   8.995   7.497   6.032
 8563TIP3   OH225565   3.811   8.959   2.776
 8563TIP3    H125566   3.890   8.951   2.830
 8563TIP3    H225567   3.844   8.955   2.686
 8564TIP3   OH225568   8.654   3.785   2.796
 8564TIP3    H125569   8.648   3.862   2.739
 8564TIP3    H225570   8.576   3.789   2.850
 8565TIP3   OH225571   6.090   5.265   4.588
 8565TIP3    H125572   6.059   5.339   4.641
 8565TIP3    H225573   6.039   5.190   4.618
 8566TIP3   OH225574   2.911   6.025   0.324
 8566TIP3    H125575   2.976   5.955   0.327
 8566TIP3    H225576   2.938   6.086   0.393
 8567TIP3   OH225577   7.340   2.131   1.304
 8567TIP3    H125578   7.360   2.132   1.211
 8567TIP3    H225579   7.245   2.140   1.309
 8568TIP3   OH225580   9.490   3.962   3.856
 8568TIP3    H125581   9.498   3.896   3.788
 8568TIP3    H225582   9.418   4.019   3.827
 8569TIP3   OH225583   9.326   7.247   6.061
 8569TIP3    H125584   9.382   7.186   6.013
 8569TIP3    H225585   9.239   7.234   6.024
 8570TIP3   OH225586   4.770   7.435   1.019
 8570TIP3    H125587   4.701   7.386   1.063
 8570TIP3    H225588   4.827   7.464   1.090
 8571TIP3   OH225589   8.172   7.589   2.932
 8571TIP3    H125590   8.226   7.579   2.854
 8571TIP3    H225591   8.090   7.625   2.899
 8572TIP3   OH225592   7.017   7.126   7.739
 8572TIP3    H125593   7.003   7.221   7.744
 8572TIP3    H225594   6.988   7.103   7.651
 8573TIP3   OH225595   3.256   8.612   0.864
 8573TIP3    H125596   3.309   8.537   0.836
 8573TIP3    H225597   3.192   8.574   0.925
 8574TIP3   OH225598   9.519   2.461   1.116
 8574TIP3    H125599   9.459   2.491   1.185
 8574TIP3    H225600   9.462   2.442   1.042
 8575TIP3   OH225601   4.457   1.517   6.764
 8575TIP3    H125602   4.488   1.440   6.812
 8575TIP3    H225603   4.492   1.506   6.675
 8576TIP3   OH225604   6.973   5.599   4.614
 8576TIP3    H125605   7.038   5.622   4.547
 8576TIP3    H225606   6.900   5.658   4.597
 8577TIP3   OH225607   4.232   7.415   6.341
 8577TIP3    H125608   4.233   7.510   6.326
 8577TIP3    H225609   4.307   7.383   6.290
 8578TIP3   OH225610   2.528   8.921   1.273
 8578TIP3    H125611   2.483   8.965   1.345
 8578TIP3    H225612   2.618   8.912   1.303
 8579TIP3   OH225613   1.621   6.888   2.361
 8579TIP3    H125614   1.554   6.904   2.428
 8579TIP3    H225615   1.602   6.953   2.293
 8580TIP3   OH225616   8.619   0.488   4.735
 8580TIP3    H125617   8.629   0.536   4.817
 8580TIP3    H225618   8.681   0.529   4.675
 8581TIP3   OH225619   6.196   3.803   5.084
 8581TIP3    H125620   6.114   3.841   5.114
 8581TIP3    H225621   6.259   3.826   5.152
 8582TIP3   OH225622   3.676   1.574   0.242
 8582TIP3    H125623   3.674   1.497   0.186
 8582TIP3    H225624   3.751   1.625   0.211
 8583TIP3   OH225625   5.120   2.972   0.324
 8583TIP3    H125626   5.107   2.903   0.389
 8583TIP3    H225627   5.053   2.955   0.257
 8584TIP3   OH225628   6.545   7.807   3.580
 8584TIP3    H125629   6.613   7.869   3.606
 8584TIP3    H225630   6.542   7.743   3.651
 8585TIP3   OH225631   2.275   0.369   1.340
 8585TIP3    H125632   2.308   0.306   1.275
 8585TIP3    H225633   2.219   0.316   1.397
 8586TIP3   OH225634   6.795   3.621   1.046
 8586TIP3    H125635   6.768   3.712   1.051
 8586TIP3    H225636   6.714   3.571   1.057
 8587TIP3   OH225637   7.211   7.947   6.591
 8587TIP3    H125638   7.224   7.873   6.651
 8587TIP3    H225639   7.255   7.921   6.511
 8588TIP3   OH225640   6.574   4.731   5.169
 8588TIP3    H125641   6.502   4.703   5.112
 8588TIP3    H225642   6.604   4.813   5.131
 8589TIP3   OH225643   3.828   3.549   2.735
 8589TIP3    H125644   3.918   3.577   2.751
 8589TIP3    H225645   3.775   3.608   2.788
 8590TIP3   OH225646   9.502   7.314   4.942
 8590TIP3    H125647   9.538   7.227   4.927
 8590TIP3    H225648   9.528   7.365   4.866
 8591TIP3   OH225649   0.855   4.607   7.401
 8591TIP3    H125650   0.949   4.601   7.418
 8591TIP3    H225651   0.831   4.696   7.427
 8592TIP3   OH225652   7.681   7.160   0.421
 8592TIP3    H125653   7.675   7.165   0.517
 8592TIP3    H225654   7.658   7.069   0.401
 8593TIP3   OH225655   5.794   7.007   5.006
 8593TIP3    H125656   5.778   6.994   4.912
 8593TIP3    H225657   5.875   7.057   5.010
 8594TIP3   OH225658   6.980   6.781   5.221
 8594TIP3    H125659   6.927   6.839   5.167
 8594TIP3    H225660   6.928   6.701   5.229
 8595TIP3   OH225661   5.357   7.814   3.230
 8595TIP3    H125662   5.387   7.858   3.150
 8595TIP3    H225663   5.322   7.730   3.200
 8596TIP3   OH225664   5.693   2.693   2.051
 8596TIP3    H125665   5.617   2.637   2.040
 8596TIP3    H225666   5.747   2.648   2.116
 8597TIP3   OH225667   0.759   0.862   3.222
 8597TIP3    H125668   0.664   0.864   3.207
 8597TIP3    H225669   0.792   0.937   3.172
 8598TIP3   OH225670   3.854   6.484   6.514
 8598TIP3    H125671   3.935   6.481   6.462
 8598TIP3    H225672   3.824   6.574   6.506
 8599TIP3   OH225673   2.176   4.600   2.496
 8599TIP3    H125674   2.248   4.537   2.488
 8599TIP3    H225675   2.161   4.631   2.406
 8600TIP3   OH225676   2.445   3.685   3.738
 8600TIP3    H125677   2.396   3.750   3.688
 8600TIP3    H225678   2.533   3.721   3.746
 8601TIP3   OH225679   9.009   3.364   7.790
 8601TIP3    H125680   9.019   3.307   7.714
 8601TIP3    H225681   9.050   3.316   7.861
 8602TIP3   OH225682   4.394   4.304   0.111
 8602TIP3    H125683   4.371   4.348   0.193
 8602TIP3    H225684   4.481   4.268   0.126
 8603TIP3   OH225685   9.272   8.695   0.815
 8603TIP3    H125686   9.365   8.714   0.812
 8603TIP3    H225687   9.267   8.607   0.853
 8604TIP3   OH225688   9.061   0.275   0.234
 8604TIP3    H125689   9.127   0.311   0.175
 8604TIP3    H225690   9.010   0.352   0.263
 8605TIP3   OH225691   0.381   4.072   3.019
 8605TIP3    H125692   0.376   4.009   3.092
 8605TIP3    H225693   0.327   4.033   2.951
 8606TIP3   OH225694   7.961   4.012   3.889
 8606TIP3    H125695   7.971   3.956   3.812
 8606TIP3    H225696   7.889   4.071   3.867
 8607TIP3   OH225697   8.958   8.223   1.645
 8607TIP3    H125698   8.879   8.276   1.653
 8607TIP3    H225699   8.943   8.168   1.569
 8608TIP3   OH225700   0.547   6.990   6.516
 8608TIP3    H125701   0.482   6.972   6.448
 8608TIP3    H225702   0.631   6.970   6.474
 8609TIP3   OH225703   8.586   1.169   4.984
 8609TIP3    H125704   8.582   1.196   4.892
 8609TIP3    H225705   8.608   1.075   4.980
 8610TIP3   OH225706   5.259   1.091   3.229
 8610TIP3    H125707   5.188   1.133   3.277
 8610TIP3    H225708   5.286   1.018   3.284
 8611TIP3   OH225709   9.509   6.464   0.911
 8611TIP3    H125710   9.484   6.478   1.002
 8611TIP3    H225711   9.430   6.431   0.868
 8612TIP3   OH225712   8.221   6.869   3.495
 8612TIP3    H125713   8.236   6.873   3.401
 8612TIP3    H225714   8.260   6.949   3.530
 8613TIP3   OH225715   4.019   0.748   7.153
 8613TIP3    H125716   4.072   0.695   7.214
 8613TIP3    H225717   4.060   0.834   7.154
 8614TIP3   OH225718   8.011   1.236   3.066
 8614TIP3    H125719   8.056   1.161   3.028
 8614TIP3    H225720   8.020   1.305   3.000
 8615TIP3   OH225721   1.825   5.603   0.878
 8615TIP3    H125722   1.815   5.541   0.805
 8615TIP3    H225723   1.794   5.686   0.843
 8616TIP3   OH225724   3.530   4.619   6.082
 8616TIP3    H125725   3.550   4.532   6.116
 8616TIP3    H225726   3.454   4.605   6.025
 8617TIP3   OH225727   2.007   3.256   5.088
 8617TIP3    H125728   2.075   3.323   5.078
 8617TIP3    H225729   1.970   3.246   5.000
 8618TIP3   OH225730   5.947   0.421   2.101
 8618TIP3    H125731   6.037   0.406   2.130
 8618TIP3    H225732   5.896   0.354   2.148
 8619TIP3   OH225733   1.899   5.351   5.913
 8619TIP3    H125734   1.871   5.325   6.001
 8619TIP3    H225735   1.891   5.271   5.861
 8620TIP3   OH225736   1.997   8.645   6.888
 8620TIP3    H125737   1.903   8.649   6.870
 8620TIP3    H225738   2.037   8.689   6.813
 8621TIP3   OH225739   7.648   2.070   6.985
 8621TIP3    H125740   7.686   2.001   7.040
 8621TIP3    H225741   7.659   2.150   7.037
 8622TIP3   OH225742   6.977   8.370   0.800
 8622TIP3    H125743   6.928   8.314   0.739
 8622TIP3    H225744   6.952   8.338   0.887
 8623TIP3   OH225745   1.621   5.025   0.097
 8623TIP3    H125746   1.690   4.966   0.127
 8623TIP3    H225747   1.666   5.108   0.080
 8624TIP3   OH225748   7.793   3.239   6.231
 8624TIP3    H125749   7.818   3.163   6.179
 8624TIP3    H225750   7.735   3.204   6.299
 8625TIP3   OH225751   8.322   8.166   7.731
 8625TIP3    H125752   8.285   8.225   7.665
 8625TIP3    H225753   8.407   8.140   7.695
 8626TIP3   OH225754   6.027   0.716   5.326
 8626TIP3    H125755   6.077   0.774   5.383
 8626TIP3    H225756   6.008   0.768   5.248
 8627TIP3   OH225757   8.217   3.212   4.728
 8627TIP3    H125758   8.213   3.127   4.686
 8627TIP3    H225759   8.291   3.206   4.789
 8628TIP3   OH225760   5.376   1.497   1.729
 8628TIP3    H125761   5.296   1.472   1.682
 8628TIP3    H225762   5.362   1.588   1.755
 8629TIP3   OH225763   6.301   4.248   0.128
 8629TIP3    H125764   6.297   4.158   0.160
 8629TIP3    H225765   6.269   4.243   0.038
 8630TIP3   OH225766   3.954   2.314   2.056
 8630TIP3    H125767   3.928   2.230   2.094
 8630TIP3    H225768   3.966   2.372   2.132
 8631TIP3   OH225769   2.581   0.978   6.698
 8631TIP3    H125770   2.596   1.063   6.739
 8631TIP3    H225771   2.585   0.996   6.604
 8632TIP3   OH225772   0.216   8.663   2.789
 8632TIP3    H125773   0.134   8.679   2.743
 8632TIP3    H225774   0.267   8.609   2.728
 8633TIP3   OH225775   4.739   4.038   7.263
 8633TIP3    H125776   4.799   4.104   7.299
 8633TIP3    H225777   4.790   3.957   7.260
 8634TIP3   OH225778   6.491   3.907   3.657
 8634TIP3    H125779   6.574   3.944   3.626
 8634TIP3    H225780   6.427   3.976   3.641
 8635TIP3   OH225781   5.330   8.748   6.460
 8635TIP3    H125782   5.407   8.796   6.493
 8635TIP3    H225783   5.271   8.743   6.535
 8636TIP3   OH225784   2.858   5.480   2.081
 8636TIP3    H125785   2.860   5.573   2.058
 8636TIP3    H225786   2.832   5.479   2.173
 8637TIP3   OH225787   7.116   1.467   4.735
 8637TIP3    H125788   7.051   1.424   4.678
 8637TIP3    H225789   7.154   1.535   4.680
 8638TIP3   OH225790   5.157   1.147   2.220
 8638TIP3    H125791   5.213   1.086   2.269
 8638TIP3    H225792   5.214   1.182   2.152
 8639TIP3   OH225793   7.953   4.746   6.823
 8639TIP3    H125794   7.913   4.686   6.760
 8639TIP3    H225795   7.901   4.826   6.817
 8640TIP3   OH225796   0.618   4.847   3.746
 8640TIP3    H125797   0.673   4.869   3.821
 8640TIP3    H225798   0.643   4.911   3.679
 8641TIP3   OH225799   8.271   1.780   0.885
 8641TIP3    H125800   8.291   1.793   0.977
 8641TIP3    H225801   8.181   1.810   0.875
 8642TIP3   OH225802   5.539   0.728   1.818
 8642TIP3    H125803   5.585   0.650   1.787
 8642TIP3    H225804   5.536   0.718   1.913
 8643TIP3   OH225805   3.649   3.186   6.586
 8643TIP3    H125806   3.669   3.211   6.495
 8643TIP3    H225807   3.723   3.130   6.612
 8644TIP3   OH225808   2.542   2.070   1.819
 8644TIP3    H125809   2.536   2.117   1.736
 8644TIP3    H225810   2.626   2.024   1.815
 8645TIP3   OH225811   5.371   8.248   5.829
 8645TIP3    H125812   5.305   8.291   5.775
 8645TIP3    H225813   5.424   8.320   5.864
 8646TIP3   OH225814   8.101   0.285   7.304
 8646TIP3    H125815   8.011   0.315   7.315
 8646TIP3    H225816   8.117   0.290   7.210
 8647TIP3   OH225817   4.955   3.348   6.146
 8647TIP3    H125818   5.026   3.308   6.096
 8647TIP3    H225819   4.916   3.275   6.195
 8648TIP3   OH225820   9.168   8.665   6.267
 8648TIP3    H125821   9.212   8.607   6.329
 8648TIP3    H225822   9.132   8.606   6.201
 8649TIP3   OH225823   1.593   1.497   1.392
 8649TIP3    H125824   1.629   1.585   1.406
 8649TIP3    H225825   1.575   1.464   1.479
 8650TIP3   OH225826   8.270   2.267   7.309
 8650TIP3    H125827   8.242   2.231   7.225
 8650TIP3    H225828   8.263   2.362   7.298
 8651TIP3   OH225829   7.012   7.997   3.023
 8651TIP3    H125830   6.928   7.993   3.068
 8651TIP3    H225831   7.076   7.975   3.091
 8652TIP3   OH225832   3.517   8.563   4.474
 8652TIP3    H125833   3.530   8.494   4.538
 8652TIP3    H225834   3.564   8.638   4.510
 8653TIP3   OH225835   3.451   7.473   2.358
 8653TIP3    H125836   3.373   7.509   2.315
 8653TIP3    H225837   3.442   7.500   2.449
 8654TIP3   OH225838   3.163   7.720   5.293
 8654TIP3    H125839   3.234   7.762   5.341
 8654TIP3    H225840   3.155   7.773   5.213
 8655TIP3   OH225841   2.782   1.199   0.121
 8655TIP3    H125842   2.795   1.208   0.216
 8655TIP3    H225843   2.699   1.154   0.112
 8656TIP3   OH225844   1.398   8.879   7.297
 8656TIP3    H125845   1.447   8.815   7.245
 8656TIP3    H225846   1.404   8.961   7.247
 8657TIP3   OH225847   7.241   8.342   6.178
 8657TIP3    H125848   7.173   8.275   6.191
 8657TIP3    H225849   7.213   8.389   6.099
 8658TIP3   OH225850   8.772   4.861   2.118
 8658TIP3    H125851   8.784   4.821   2.204
 8658TIP3    H225852   8.703   4.809   2.077
 8659TIP3   OH225853   3.077   5.403   1.904
 8659TIP3    H125854   3.056   5.456   1.827
 8659TIP3    H225855   3.017   5.435   1.972
 8660TIP3   OH225856   8.733   3.129   5.594
 8660TIP3    H125857   8.732   3.151   5.501
 8660TIP3    H225858   8.655   3.172   5.629
 8661TIP3   OH225859   7.206   1.790   2.849
 8661TIP3    H125860   7.173   1.787   2.759
 8661TIP3    H225861   7.243   1.703   2.864
 8662TIP3   OH225862   1.804   7.444   7.417
 8662TIP3    H125863   1.819   7.360   7.374
 8662TIP3    H225864   1.708   7.455   7.416
 8663TIP3   OH225865   6.240   6.626   5.525
 8663TIP3    H125866   6.206   6.649   5.612
 8663TIP3    H225867   6.183   6.555   5.496
 8664TIP3   OH225868   5.487   7.756   2.019
 8664TIP3    H125869   5.550   7.822   2.049
 8664TIP3    H225870   5.511   7.740   1.928
 8665TIP3   OH225871   6.980   3.794   6.131
 8665TIP3    H125872   6.884   3.796   6.129
 8665TIP3    H225873   7.002   3.807   6.223
 8666TIP3   OH225874   3.322   0.234   2.502
 8666TIP3    H125875   3.328   0.326   2.529
 8666TIP3    H225876   3.316   0.185   2.584
 8667TIP3   OH225877   6.869   8.927   0.379
 8667TIP3    H125878   6.952   8.879   0.373
 8667TIP3    H225879   6.804   8.860   0.401
 8668TIP3   OH225880   0.425   1.913   5.955
 8668TIP3    H125881   0.426   1.967   6.034
 8668TIP3    H225882   0.481   1.838   5.976
 8669TIP3   OH225883   9.534   5.374   0.222
 8669TIP3    H125884   9.513   5.373   0.129
 8669TIP3    H225885   9.449   5.371   0.266
 8670TIP3   OH225886   4.654   7.041   2.602
 8670TIP3    H125887   4.701   7.123   2.615
 8670TIP3    H225888   4.595   7.035   2.677
 8671TIP3   OH225889   2.775   0.182   0.089
 8671TIP3    H125890   2.796   0.091   0.108
 8671TIP3    H225891   2.714   0.178   0.015
 8672TIP3   OH225892   9.485   1.923   3.659
 8672TIP3    H125893   9.518   1.862   3.725
 8672TIP3    H225894   9.461   1.867   3.585
 8673TIP3   OH225895   3.155   4.609   4.639
 8673TIP3    H125896   3.200   4.533   4.603
 8673TIP3    H225897   3.066   4.580   4.656
 8674TIP3   OH225898   1.663   3.774   7.048
 8674TIP3    H125899   1.649   3.834   7.122
 8674TIP3    H225900   1.693   3.693   7.088
 8675TIP3   OH225901   9.299   1.596   2.635
 8675TIP3    H125902   9.257   1.634   2.558
 8675TIP3    H225903   9.392   1.592   2.612
 8676TIP3   OH225904   8.839   0.911   1.956
 8676TIP3    H125905   8.915   0.959   1.991
 8676TIP3    H225906   8.856   0.820   1.979
 8677TIP3   OH225907   2.535   5.428   0.430
 8677TIP3    H125908   2.620   5.410   0.469
 8677TIP3    H225909   2.479   5.450   0.504
 8678TIP3   OH225910   6.622   7.754   6.944
 8678TIP3    H125911   6.553   7.816   6.920
 8678TIP3    H225912   6.576   7.683   6.987
 8679TIP3   OH225913   5.096   2.527   4.178
 8679TIP3    H125914   5.100   2.528   4.274
 8679TIP3    H225915   5.100   2.434   4.155
 8680TIP3   OH225916   0.697   1.498   5.081
 8680TIP3    H125917   0.626   1.534   5.027
 8680TIP3    H225918   0.652   1.450   5.150
 8681TIP3   OH225919   2.979   5.887   1.581
 8681TIP3    H125920   3.057   5.905   1.529
 8681TIP3    H225921   2.949   5.801   1.550
 8682TIP3   OH225922   7.053   3.057   4.002
 8682TIP3    H125923   7.025   2.966   4.004
 8682TIP3    H225924   7.064   3.077   3.909
 8683TIP3   OH225925   5.879   4.490   6.715
 8683TIP3    H125926   5.870   4.452   6.802
 8683TIP3    H225927   5.864   4.417   6.655
 8684TIP3   OH225928   9.523   6.508   1.406
 8684TIP3    H125929   9.521   6.520   1.311
 8684TIP3    H225930   9.596   6.448   1.421
 8685TIP3   OH225931   1.455   5.269   2.247
 8685TIP3    H125932   1.432   5.243   2.158
 8685TIP3    H225933   1.550   5.280   2.245
 8686TIP3   OH225934   6.621   6.781   5.975
 8686TIP3    H125935   6.702   6.740   6.005
 8686TIP3    H225936   6.558   6.709   5.973
 8687TIP3   OH225937   7.361   2.913   2.572
 8687TIP3    H125938   7.356   2.861   2.492
 8687TIP3    H225939   7.378   2.849   2.642
 8688TIP3   OH225940   3.252   4.216   6.177
 8688TIP3    H125941   3.169   4.169   6.177
 8688TIP3    H225942   3.305   4.170   6.242
 8689TIP3   OH225943   4.548   5.065   0.297
 8689TIP3    H125944   4.506   5.110   0.370
 8689TIP3    H225945   4.625   5.023   0.336
 8690TIP3   OH225946   5.482   7.285   6.328
 8690TIP3    H125947   5.390   7.267   6.346
 8690TIP3    H225948   5.518   7.201   6.299
 8691TIP3   OH225949   8.215   0.368   1.775
 8691TIP3    H125950   8.265   0.416   1.709
 8691TIP3    H225951   8.199   0.432   1.844
 8692TIP3   OH225952   1.162   6.893   2.003
 8692TIP3    H125953   1.177   6.960   1.936
 8692TIP3    H225954   1.134   6.816   1.953
 8693TIP3   OH225955   0.673   3.618   7.284
 8693TIP3    H125956   0.720   3.695   7.253
 8693TIP3    H225957   0.590   3.619   7.236
 8694TIP3   OH225958   7.168   1.521   2.522
 8694TIP3    H125959   7.150   1.599   2.575
 8694TIP3    H225960   7.233   1.472   2.573
 8695TIP3   OH225961   2.124   4.802   1.819
 8695TIP3    H125962   2.178   4.837   1.748
 8695TIP3    H225963   2.034   4.824   1.794
 8696TIP3   OH225964   9.054   7.030   6.801
 8696TIP3    H125965   9.130   7.020   6.859
 8696TIP3    H225966   9.046   6.945   6.758
 8697TIP3   OH225967   5.110   0.191   0.635
 8697TIP3    H125968   5.065   0.229   0.559
 8697TIP3    H225969   5.170   0.259   0.664
 8698TIP3   OH225970   7.641   5.796   1.838
 8698TIP3    H125971   7.729   5.775   1.869
 8698TIP3    H225972   7.636   5.756   1.751
 8699TIP3   OH225973   1.674   3.382   0.254
 8699TIP3    H125974   1.707   3.470   0.238
 8699TIP3    H225975   1.742   3.341   0.309
 8700TIP3   OH225976   0.455   3.504   3.725
 8700TIP3    H125977   0.386   3.483   3.662
 8700TIP3    H225978   0.533   3.517   3.672
 8701TIP3   OH225979   0.963   3.069   0.150
 8701TIP3    H125980   0.920   3.082   0.234
 8701TIP3    H225981   0.909   3.004   0.105
 8702TIP3   OH225982   3.682   2.792   6.131
 8702TIP3    H125983   3.675   2.878   6.089
 8702TIP3    H225984   3.610   2.791   6.194
 8703TIP3   OH225985   7.519   6.879   1.196
 8703TIP3    H125986   7.574   6.958   1.193
 8703TIP3    H225987   7.432   6.909   1.173
 8704TIP3   OH225988   7.724   3.017   5.410
 8704TIP3    H125989   7.816   3.034   5.388
 8704TIP3    H225990   7.676   3.042   5.331
 8705TIP3   OH225991   2.499   6.448   3.163
 8705TIP3    H125992   2.543   6.453   3.248
 8705TIP3    H225993   2.407   6.465   3.183
 8706TIP3   OH225994   7.056   4.573   7.365
 8706TIP3    H125995   7.037   4.664   7.344
 8706TIP3    H225996   7.104   4.540   7.289
 8707TIP3   OH225997   2.907   2.334   5.318
 8707TIP3    H125998   2.920   2.239   5.319
 8707TIP3    H225999   2.812   2.344   5.312
 8708TIP3   OH226000   8.249   0.663   2.205
 8708TIP3    H126001   8.263   0.669   2.299
 8708TIP3    H226002   8.158   0.689   2.192
 8709TIP3   OH226003   2.301   6.467   5.353
 8709TIP3    H126004   2.376   6.409   5.347
 8709TIP3    H226005   2.332   6.551   5.321
 8710TIP3   OH226006   0.344   8.463   5.516
 8710TIP3    H126007   0.354   8.520   5.440
 8710TIP3    H226008   0.414   8.488   5.575
 8711TIP3   OH226009   1.982   3.652   0.020
 8711TIP3    H126010   2.075   3.666   0.003
 8711TIP3    H226011   1.954   3.594  -0.052
 8712TIP3   OH226012   6.804   8.303   6.807
 8712TIP3    H126013   6.760   8.289   6.723
 8712TIP3    H226014   6.848   8.388   6.797
 8713TIP3   OH226015   1.077   3.002   7.141
 8713TIP3    H126016   1.033   3.058   7.206
 8713TIP3    H226017   1.094   3.060   7.067
 8714TIP3   OH226018   4.351   1.791   2.701
 8714TIP3    H126019   4.412   1.854   2.664
 8714TIP3    H226020   4.370   1.709   2.655
 8715TIP3   OH226021   2.322   2.662   0.444
 8715TIP3    H126022   2.287   2.655   0.356
 8715TIP3    H226023   2.361   2.750   0.447
 8716TIP3   OH226024   3.785   8.486   3.419
 8716TIP3    H126025   3.838   8.408   3.436
 8716TIP3    H226026   3.833   8.557   3.462
 8717TIP3   OH226027   3.416   1.507   0.342
 8717TIP3    H126028   3.399   1.539   0.430
 8717TIP3    H226029   3.496   1.553   0.315
 8718TIP3   OH226030   2.255   2.518   6.577
 8718TIP3    H126031   2.211   2.432   6.576
 8718TIP3    H226032   2.192   2.577   6.536
 8719TIP3   OH226033   3.016   2.330   5.968
 8719TIP3    H126034   3.054   2.243   5.954
 8719TIP3    H226035   3.085   2.381   6.010
 8720TIP3   OH226036   1.514   6.419   0.286
 8720TIP3    H126037   1.426   6.455   0.278
 8720TIP3    H226038   1.553   6.433   0.199
 8721TIP3   OH226039   3.581   8.189   3.082
 8721TIP3    H126040   3.670   8.162   3.105
 8721TIP3    H226041   3.529   8.166   3.160
 8722TIP3   OH226042   5.218   7.415   4.718
 8722TIP3    H126043   5.183   7.459   4.795
 8722TIP3    H226044   5.284   7.356   4.751
 8723TIP3   OH226045   2.378   3.083   1.931
 8723TIP3    H126046   2.308   3.023   1.908
 8723TIP3    H226047   2.423   3.040   2.004
 8724TIP3   OH226048   0.101   4.171   0.650
 8724TIP3    H126049   0.165   4.180   0.720
 8724TIP3    H226050   0.133   4.227   0.580
 8725TIP3   OH226051   0.971   0.775   0.122
 8725TIP3    H126052   0.894   0.732   0.087
 8725TIP3    H226053   1.042   0.748   0.063
 8726TIP3   OH226054   4.145   2.560   6.672
 8726TIP3    H126055   4.090   2.597   6.742
 8726TIP3    H226056   4.089   2.497   6.628
 8727TIP3   OH226057   1.273   1.309   6.746
 8727TIP3    H126058   1.345   1.365   6.773
 8727TIP3    H226059   1.194   1.357   6.771
 8728TIP3   OH226060   4.773   3.683   1.480
 8728TIP3    H126061   4.797   3.747   1.413
 8728TIP3    H226062   4.677   3.690   1.486
 8729TIP3   OH226063   8.135   6.561   4.335
 8729TIP3    H126064   8.058   6.510   4.359
 8729TIP3    H226065   8.149   6.541   4.242
 8730TIP3   OH226066   7.915   4.707   6.097
 8730TIP3    H126067   7.998   4.728   6.139
 8730TIP3    H226068   7.940   4.676   6.010
 8731TIP3   OH226069   7.331   8.597   0.362
 8731TIP3    H126070   7.368   8.588   0.450
 8731TIP3    H226071   7.400   8.642   0.312
 8732TIP3   OH226072   8.199   0.096   1.762
 8732TIP3    H126073   8.187   0.190   1.769
 8732TIP3    H226074   8.201   0.078   1.668
 8733TIP3   OH226075   7.694   5.114   7.478
 8733TIP3    H126076   7.603   5.137   7.459
 8733TIP3    H226077   7.727   5.189   7.527
 8734TIP3   OH226078   2.422   4.783   5.329
 8734TIP3    H126079   2.478   4.852   5.364
 8734TIP3    H226080   2.383   4.821   5.251
 8735TIP3   OH226081   3.698   3.005   4.819
 8735TIP3    H126082   3.720   3.075   4.758
 8735TIP3    H226083   3.673   3.050   4.899
 8736TIP3   OH226084   6.062   3.275   3.168
 8736TIP3    H126085   6.157   3.288   3.163
 8736TIP3    H226086   6.040   3.229   3.087
 8737TIP3   OH226087   6.985   6.272   0.991
 8737TIP3    H126088   7.048   6.204   0.969
 8737TIP3    H226089   7.010   6.300   1.079
 8738TIP3   OH226090   5.254   1.362   3.630
 8738TIP3    H126091   5.183   1.367   3.695
 8738TIP3    H226092   5.326   1.321   3.677
 8739TIP3   OH226093   5.239   5.334   6.170
 8739TIP3    H126094   5.178   5.359   6.101
 8739TIP3    H226095   5.197   5.361   6.251
 8740TIP3   OH226096   6.360   1.313   4.608
 8740TIP3    H126097   6.413   1.235   4.625
 8740TIP3    H226098   6.421   1.377   4.572
 8741TIP3   OH226099   5.986   1.846   3.449
 8741TIP3    H126100   6.014   1.840   3.540
 8741TIP3    H226101   6.001   1.759   3.413
 8742TIP3   OH226102   7.014   5.763   3.352
 8742TIP3    H126103   6.942   5.742   3.292
 8742TIP3    H226104   7.014   5.691   3.415
 8743TIP3   OH226105   5.891   1.487   0.025
 8743TIP3    H126106   5.963   1.517   0.079
 8743TIP3    H226107   5.813   1.497   0.081
 8744TIP3   OH226108   2.295   1.846   5.160
 8744TIP3    H126109   2.382   1.872   5.189
 8744TIP3    H226110   2.300   1.848   5.064
 8745TIP3   OH226111   6.617   6.255   5.135
 8745TIP3    H126112   6.612   6.294   5.222
 8745TIP3    H226113   6.663   6.321   5.082
 8746TIP3   OH226114   3.719   1.989   5.755
 8746TIP3    H126115   3.728   2.042   5.835
 8746TIP3    H226116   3.667   1.913   5.782
 8747TIP3   OH226117   3.289   6.638   3.657
 8747TIP3    H126118   3.282   6.694   3.735
 8747TIP3    H226119   3.351   6.684   3.600
 8748TIP3   OH226120   2.191   4.666   0.073
 8748TIP3    H126121   2.152   4.627   0.151
 8748TIP3    H226122   2.232   4.747   0.105
 8749TIP3   OH226123   0.343   1.712   0.007
 8749TIP3    H126124   0.338   1.776  -0.064
 8749TIP3    H226125   0.426   1.732   0.051
 8750TIP3   OH226126   6.710   5.985   7.136
 8750TIP3    H126127   6.635   6.006   7.191
 8750TIP3    H226128   6.749   5.908   7.177
 8751TIP3   OH226129   6.261   4.309   6.675
 8751TIP3    H126130   6.230   4.379   6.732
 8751TIP3    H226131   6.246   4.342   6.586
 8752TIP3   OH226132   7.403   8.692   0.092
 8752TIP3    H126133   7.414   8.786   0.080
 8752TIP3    H226134   7.441   8.653   0.014
 8753TIP3   OH226135   3.735   1.629   7.723
 8753TIP3    H126136   3.809   1.678   7.688
 8753TIP3    H226137   3.658   1.681   7.700
 8754TIP3   OH226138   5.718   0.065   7.383
 8754TIP3    H126139   5.786   0.089   7.320
 8754TIP3    H226140   5.717  -0.030   7.381
 8755TIP3   OH226141   8.907   8.975   1.454
 8755TIP3    H126142   8.945   8.940   1.373
 8755TIP3    H226143   8.909   8.902   1.515
 8756TIP3   OH226144   6.173   5.324   2.348
 8756TIP3    H126145   6.111   5.336   2.420
 8756TIP3    H226146   6.125   5.350   2.270
 8757TIP3   OH226147   6.709   5.840   4.030
 8757TIP3    H126148   6.669   5.758   4.057
 8757TIP3    H226149   6.671   5.905   4.090
 8758TIP3   OH226150   0.016   8.310   6.056
 8758TIP3    H126151   0.007   8.304   6.151
 8758TIP3    H226152  -0.020   8.227   6.023
 8759TIP3   OH226153   2.720   4.372   0.972
 8759TIP3    H126154   2.634   4.346   1.005
 8759TIP3    H226155   2.782   4.335   1.035
 8760TIP3   OH226156   4.431   8.104   7.521
 8760TIP3    H126157   4.360   8.128   7.581
 8760TIP3    H226158   4.398   8.028   7.473
 8761TIP3   OH226159   2.223   3.772   1.378
 8761TIP3    H126160   2.268   3.844   1.334
 8761TIP3    H226161   2.146   3.754   1.323
 8762TIP3   OH226162   0.704   5.159   7.430
 8762TIP3    H126163   0.798   5.142   7.435
 8762TIP3    H226164   0.695   5.254   7.437
 8763TIP3   OH226165   3.582   0.365   1.741
 8763TIP3    H126166   3.609   0.393   1.653
 8763TIP3    H226167   3.509   0.422   1.762
 8764TIP3   OH226168   0.824   0.752   1.218
 8764TIP3    H126169   0.873   0.685   1.266
 8764TIP3    H226170   0.830   0.830   1.274
 8765TIP3   OH226171   3.648   7.872   7.412
 8765TIP3    H126172   3.626   7.922   7.491
 8765TIP3    H226173   3.724   7.918   7.375
 8766TIP3   OH226174   3.105   4.054   4.495
 8766TIP3    H126175   3.027   4.020   4.539
 8766TIP3    H226176   3.144   4.115   4.558
 8767TIP3   OH226177   6.372   1.036   6.333
 8767TIP3    H126178   6.420   1.100   6.385
 8767TIP3    H226179   6.409   1.042   6.246
 8768TIP3   OH226180   7.404   8.542   0.620
 8768TIP3    H126181   7.356   8.496   0.689
 8768TIP3    H226182   7.490   8.501   0.620
 8769TIP3   OH226183   1.043   2.989   0.728
 8769TIP3    H126184   0.959   3.022   0.759
 8769TIP3    H226185   1.101   2.998   0.804
 8770TIP3   OH226186   4.903   1.634   1.826
 8770TIP3    H126187   4.815   1.670   1.834
 8770TIP3    H226188   4.948   1.662   1.905
 8771TIP3   OH226189   8.203   5.214   1.362
 8771TIP3    H126190   8.263   5.158   1.313
 8771TIP3    H226191   8.246   5.300   1.363
 8772TIP3   OH226192   0.683   8.345   6.530
 8772TIP3    H126193   0.761   8.344   6.585
 8772TIP3    H226194   0.693   8.269   6.472
 8773TIP3   OH226195   8.227   2.285   4.352
 8773TIP3    H126196   8.150   2.275   4.296
 8773TIP3    H226197   8.192   2.320   4.434
 8774TIP3   OH226198   0.625   5.130   5.435
 8774TIP3    H126199   0.568   5.138   5.512
 8774TIP3    H226200   0.579   5.068   5.378
 8775TIP3   OH226201   1.657   7.851   1.772
 8775TIP3    H126202   1.623   7.790   1.837
 8775TIP3    H226203   1.659   7.935   1.817
 8776TIP3   OH226204   6.709   1.250   1.804
 8776TIP3    H126205   6.676   1.174   1.852
 8776TIP3    H226206   6.670   1.243   1.717
 8777TIP3   OH226207   9.164   3.602   7.793
 8777TIP3    H126208   9.241   3.599   7.850
 8777TIP3    H226209   9.109   3.530   7.823
 8778TIP3   OH226210   8.354   6.885   2.802
 8778TIP3    H126211   8.322   6.926   2.882
 8778TIP3    H226212   8.439   6.925   2.787
 8779TIP3   OH226213   8.626   4.479   2.876
 8779TIP3    H126214   8.559   4.411   2.885
 8779TIP3    H226215   8.625   4.502   2.784
 8780TIP3   OH226216   4.528   7.563   3.023
 8780TIP3    H126217   4.608   7.511   3.032
 8780TIP3    H226218   4.551   7.633   2.962
 8781TIP3   OH226219   0.067   4.560   6.278
 8781TIP3    H126220   0.158   4.550   6.305
 8781TIP3    H226221   0.072   4.601   6.192
 8782TIP3   OH226222   9.097   5.125   4.232
 8782TIP3    H126223   9.134   5.187   4.170
 8782TIP3    H226224   9.146   5.044   4.218
 8783TIP3   OH226225   8.121   5.314   6.354
 8783TIP3    H126226   8.077   5.332   6.271
 8783TIP3    H226227   8.104   5.391   6.407
 8784TIP3   OH226228   3.114   6.163   6.494
 8784TIP3    H126229   3.100   6.083   6.545
 8784TIP3    H226230   3.033   6.174   6.444
 8785TIP3   OH226231   3.335   1.061   4.948
 8785TIP3    H126232   3.320   1.114   4.869
 8785TIP3    H226233   3.430   1.049   4.951
 8786TIP3   OH226234   4.288   3.303   2.032
 8786TIP3    H126235   4.230   3.340   2.099
 8786TIP3    H226236   4.228   3.265   1.967
 8787TIP3   OH226237   2.910   4.735   5.227
 8787TIP3    H126238   2.984   4.675   5.233
 8787TIP3    H226239   2.869   4.729   5.314
 8788TIP3   OH226240   0.766   8.544   4.033
 8788TIP3    H126241   0.727   8.491   4.102
 8788TIP3    H226242   0.744   8.634   4.058
 8789TIP3   OH226243   3.557   5.821   5.300
 8789TIP3    H126244   3.559   5.916   5.312
 8789TIP3    H226245   3.642   5.800   5.262
 8790TIP3   OH226246   7.819   3.135   3.208
 8790TIP3    H126247   7.746   3.196   3.216
 8790TIP3    H226248   7.806   3.092   3.124
 8791TIP3   OH226249   8.203   1.897   6.682
 8791TIP3    H126250   8.142   1.931   6.617
 8791TIP3    H226251   8.147   1.861   6.751
 8792TIP3   OH226252   8.841   2.828   3.898
 8792TIP3    H126253   8.927   2.862   3.876
 8792TIP3    H226254   8.843   2.817   3.994
 8793TIP3   OH226255   6.696   3.070   5.983
 8793TIP3    H126256   6.610   3.067   5.942
 8793TIP3    H226257   6.678   3.076   6.077
 8794TIP3   OH226258   9.145   7.011   1.517
 8794TIP3    H126259   9.223   7.063   1.539
 8794TIP3    H226260   9.134   6.952   1.592
 8795TIP3   OH226261   4.558   1.607   0.246
 8795TIP3    H126262   4.616   1.621   0.322
 8795TIP3    H226263   4.470   1.605   0.283
 8796TIP3   OH226264   1.446   8.432   4.751
 8796TIP3    H126265   1.445   8.479   4.668
 8796TIP3    H226266   1.362   8.454   4.792
 8797TIP3   OH226267   8.407   6.594   3.493
 8797TIP3    H126268   8.439   6.683   3.511
 8797TIP3    H226269   8.387   6.594   3.399
 8798TIP3   OH226270   2.747   4.661   1.761
 8798TIP3    H126271   2.667   4.713   1.765
 8798TIP3    H226272   2.814   4.723   1.730
 8799TIP3   OH226273   1.229   6.152   1.940
 8799TIP3    H126274   1.241   6.120   2.030
 8799TIP3    H226275   1.232   6.074   1.886
 8800TIP3   OH226276   0.377   8.941   1.081
 8800TIP3    H126277   0.307   8.979   1.136
 8800TIP3    H226278   0.426   9.017   1.049
 8801TIP3   OH226279   1.248   1.977   5.128
 8801TIP3    H126280   1.339   2.001   5.114
 8801TIP3    H226281   1.205   1.996   5.044
 8802TIP3   OH226282   5.555   7.836   3.766
 8802TIP3    H126283   5.628   7.896   3.753
 8802TIP3    H226284   5.484   7.872   3.712
 8803TIP3   OH226285   6.468   4.246   1.568
 8803TIP3    H126286   6.487   4.157   1.598
 8803TIP3    H226287   6.377   4.261   1.595
 8804TIP3   OH226288   8.658   3.068   4.181
 8804TIP3    H126289   8.729   3.082   4.119
 8804TIP3    H226290   8.645   2.973   4.183
 8805TIP3   OH226291   2.441   6.300   2.827
 8805TIP3    H126292   2.402   6.371   2.877
 8805TIP3    H226293   2.446   6.334   2.737
 8806TIP3   OH226294   2.058   3.733   4.282
 8806TIP3    H126295   2.084   3.645   4.311
 8806TIP3    H226296   2.140   3.779   4.265
 8807TIP3   OH226297   6.275   7.253   6.918
 8807TIP3    H126298   6.266   7.328   6.976
 8807TIP3    H226299   6.367   7.254   6.891
 8808TIP3   OH226300   6.651   4.501   0.956
 8808TIP3    H126301   6.611   4.466   0.876
 8808TIP3    H226302   6.590   4.476   1.025
 8809TIP3   OH226303   4.661   2.322   4.544
 8809TIP3    H126304   4.711   2.279   4.613
 8809TIP3    H226305   4.651   2.255   4.476
 8810TIP3   OH226306   3.039   5.431   2.610
 8810TIP3    H126307   3.134   5.415   2.617
 8810TIP3    H226308   3.013   5.459   2.697
 8811TIP3   OH226309   2.249   3.315   1.951
 8811TIP3    H126310   2.180   3.308   1.886
 8811TIP3    H226311   2.300   3.235   1.941
 8812TIP3   OH226312   8.052   0.448   3.321
 8812TIP3    H126313   7.994   0.429   3.396
 8812TIP3    H226314   8.139   0.424   3.352
 8813TIP3   OH226315   3.562   7.448   0.054
 8813TIP3    H126316   3.532   7.376   0.109
 8813TIP3    H226317   3.487   7.507   0.047
 8814TIP3   OH226318   5.193   0.845   0.677
 8814TIP3    H126319   5.143   0.870   0.600
 8814TIP3    H226320   5.264   0.790   0.643
 8815TIP3   OH226321   4.022   7.929   3.988
 8815TIP3    H126322   3.962   7.922   4.062
 8815TIP3    H226323   4.028   7.839   3.954
 8816TIP3   OH226324   2.024   7.409   2.192
 8816TIP3    H126325   1.968   7.466   2.141
 8816TIP3    H226326   1.973   7.328   2.204
 8817TIP3   OH226327   7.553   4.688   6.908
 8817TIP3    H126328   7.622   4.628   6.880
 8817TIP3    H226329   7.530   4.659   6.996
 8818TIP3   OH226330   7.118   2.961   3.217
 8818TIP3    H126331   7.081   2.893   3.274
 8818TIP3    H226332   7.212   2.961   3.237
 8819TIP3   OH226333   1.591   5.567   5.763
 8819TIP3    H126334   1.570   5.543   5.854
 8819TIP3    H226335   1.647   5.645   5.772
 8820TIP3   OH226336   1.779   7.274   5.344
 8820TIP3    H126337   1.732   7.193   5.364
 8820TIP3    H226338   1.753   7.334   5.413
 8821TIP3   OH226339   5.584   3.433   7.749
 8821TIP3    H126340   5.653   3.468   7.693
 8821TIP3    H226341   5.533   3.377   7.691
 8822TIP3   OH226342   6.876   6.685   5.990
 8822TIP3    H126343   6.929   6.751   6.035
 8822TIP3    H226344   6.925   6.667   5.909
 8823TIP3   OH226345   2.226   8.878   4.949
 8823TIP3    H126346   2.279   8.882   4.869
 8823TIP3    H226347   2.241   8.789   4.983
 8824TIP3   OH226348   7.860   0.058   5.924
 8824TIP3    H126349   7.844  -0.032   5.952
 8824TIP3    H226350   7.887   0.104   6.004
 8825TIP3   OH226351   3.515   8.359   4.655
 8825TIP3    H126352   3.457   8.425   4.692
 8825TIP3    H226353   3.476   8.275   4.681
 8826TIP3   OH226354   5.454   8.493   0.406
 8826TIP3    H126355   5.460   8.499   0.501
 8826TIP3    H226356   5.362   8.510   0.386
 8827TIP3   OH226357   3.743   7.522   2.605
 8827TIP3    H126358   3.739   7.501   2.512
 8827TIP3    H226359   3.832   7.501   2.631
 8828TIP3   OH226360   1.516   5.136   5.992
 8828TIP3    H126361   1.505   5.178   6.077
 8828TIP3    H226362   1.467   5.190   5.931
 8829TIP3   OH226363   1.539   2.362   3.711
 8829TIP3    H126364   1.613   2.414   3.741
 8829TIP3    H226365   1.525   2.390   3.620
 8830TIP3   OH226366   1.869   6.600   1.791
 8830TIP3    H126367   1.886   6.513   1.756
 8830TIP3    H226368   1.792   6.589   1.846
 8831TIP3   OH226369   6.194   4.813   5.068
 8831TIP3    H126370   6.162   4.883   5.012
 8831TIP3    H226371   6.159   4.833   5.155
 8832TIP3   OH226372   3.350   6.168   0.005
 8832TIP3    H126373   3.357   6.134   0.094
 8832TIP3    H226374   3.265   6.135  -0.027
 8833TIP3   OH226375   6.689   0.595   4.927
 8833TIP3    H126376   6.724   0.634   5.007
 8833TIP3    H226377   6.765   0.580   4.872
 8834TIP3   OH226378   8.156   3.830   3.088
 8834TIP3    H126379   8.234   3.778   3.066
 8834TIP3    H226380   8.188   3.894   3.152
 8835TIP3   OH226381   7.583   4.912   7.716
 8835TIP3    H126382   7.601   4.979   7.650
 8835TIP3    H226383   7.569   4.961   7.797
 8836TIP3   OH226384   5.099   7.987   4.319
 8836TIP3    H126385   5.055   8.071   4.328
 8836TIP3    H226386   5.069   7.954   4.234
 8837TIP3   OH226387   8.850   1.971   0.169
 8837TIP3    H126388   8.903   1.896   0.142
 8837TIP3    H226389   8.840   1.959   0.264
 8838TIP3   OH226390   4.047   6.801   3.488
 8838TIP3    H126391   3.954   6.807   3.469
 8838TIP3    H226392   4.085   6.879   3.447
 8839TIP3   OH226393   5.555   1.069   3.551
 8839TIP3    H126394   5.638   1.101   3.588
 8839TIP3    H226395   5.579   0.989   3.504
 8840TIP3   OH226396   6.421   1.999   1.065
 8840TIP3    H126397   6.351   1.989   1.129
 8840TIP3    H226398   6.410   1.925   1.005
 8841TIP3   OH226399   7.525   0.480   1.063
 8841TIP3    H126400   7.443   0.440   1.090
 8841TIP3    H226401   7.565   0.415   1.005
 8842TIP3   OH226402   7.016   6.622   6.912
 8842TIP3    H126403   7.037   6.621   6.819
 8842TIP3    H226404   7.056   6.703   6.945
 8843TIP3   OH226405   5.552   4.998   0.188
 8843TIP3    H126406   5.587   5.087   0.201
 8843TIP3    H226407   5.574   4.977   0.097
 8844TIP3   OH226408   2.253   1.506   7.191
 8844TIP3    H126409   2.278   1.560   7.116
 8844TIP3    H226410   2.157   1.501   7.186
 8845TIP3   OH226411   9.369   0.292   0.327
 8845TIP3    H126412   9.438   0.344   0.368
 8845TIP3    H226413   9.288   0.339   0.349
 8846TIP3   OH226414   5.121   2.587   0.786
 8846TIP3    H126415   5.154   2.676   0.791
 8846TIP3    H226416   5.155   2.544   0.865
 8847TIP3   OH226417   1.865   6.218   0.090
 8847TIP3    H126418   1.947   6.185   0.052
 8847TIP3    H226419   1.813   6.139   0.105
 8848TIP3   OH226420   3.888   3.262   1.287
 8848TIP3    H126421   3.819   3.253   1.220
 8848TIP3    H226422   3.945   3.187   1.273
 8849TIP3   OH226423   6.844   4.463   5.764
 8849TIP3    H126424   6.825   4.459   5.670
 8849TIP3    H226425   6.793   4.392   5.802
 8850TIP3   OH226426   1.086   2.849   4.186
 8850TIP3    H126427   1.132   2.774   4.222
 8850TIP3    H226428   1.134   2.925   4.219
 8851TIP3   OH226429   7.799   6.265   3.626
 8851TIP3    H126430   7.796   6.249   3.720
 8851TIP3    H226431   7.892   6.254   3.603
 8852TIP3   OH226432   4.451   0.283   6.483
 8852TIP3    H126433   4.451   0.310   6.391
 8852TIP3    H226434   4.371   0.321   6.520
 8853TIP3   OH226435   4.079   8.177   7.453
 8853TIP3    H126436   4.095   8.167   7.547
 8853TIP3    H226437   4.035   8.262   7.446
 8854TIP3   OH226438   9.484   2.808   4.150
 8854TIP3    H126439   9.437   2.881   4.110
 8854TIP3    H226440   9.519   2.844   4.231
 8855TIP3   OH226441   3.496   3.907   3.310
 8855TIP3    H126442   3.482   3.991   3.353
 8855TIP3    H226443   3.553   3.858   3.369
 8856TIP3   OH226444   3.239   3.435   0.781
 8856TIP3    H126445   3.174   3.365   0.790
 8856TIP3    H226446   3.191   3.515   0.803
 8857TIP3   OH226447   9.487   1.519   5.108
 8857TIP3    H126448   9.450   1.533   5.021
 8857TIP3    H226449   9.429   1.453   5.148
 8858TIP3   OH226450   1.236   1.851   0.124
 8858TIP3    H126451   1.303   1.788   0.149
 8858TIP3    H226452   1.161   1.831   0.180
 8859TIP3   OH226453   0.199   5.316   1.569
 8859TIP3    H126454   0.119   5.312   1.621
 8859TIP3    H226455   0.198   5.403   1.529
 8860TIP3   OH226456   0.826   0.654   1.633
 8860TIP3    H126457   0.871   0.571   1.647
 8860TIP3    H226458   0.758   0.634   1.569
 8861TIP3   OH226459   9.412   8.820   6.162
 8861TIP3    H126460   9.463   8.782   6.090
 8861TIP3    H226461   9.336   8.763   6.170
 8862TIP3   OH226462   5.858   3.264   7.135
 8862TIP3    H126463   5.832   3.207   7.062
 8862TIP3    H226464   5.953   3.264   7.131
 8863TIP3   OH226465   4.292   4.699   0.160
 8863TIP3    H126466   4.288   4.622   0.217
 8863TIP3    H226467   4.325   4.665   0.077
 8864TIP3   OH226468   3.205   0.862   5.489
 8864TIP3    H126469   3.238   0.902   5.408
 8864TIP3    H226470   3.120   0.904   5.504
 8865TIP3   OH226471   8.994   4.123   2.463
 8865TIP3    H126472   8.908   4.129   2.422
 8865TIP3    H226473   8.985   4.053   2.528
 8866TIP3   OH226474   1.432   7.071   0.886
 8866TIP3    H126475   1.380   7.150   0.870
 8866TIP3    H226476   1.396   7.034   0.966
 8867TIP3   OH226477   3.752   1.513   2.271
 8867TIP3    H126478   3.688   1.577   2.303
 8867TIP3    H226479   3.702   1.433   2.261
 8868TIP3   OH226480   5.477   2.552   0.607
 8868TIP3    H126481   5.548   2.582   0.665
 8868TIP3    H226482   5.511   2.472   0.567
 8869TIP3   OH226483   4.907   3.780   3.711
 8869TIP3    H126484   4.874   3.774   3.801
 8869TIP3    H226485   4.997   3.747   3.717
 8870TIP3   OH226486   7.187   4.985   3.220
 8870TIP3    H126487   7.180   5.014   3.128
 8870TIP3    H226488   7.206   4.891   3.214
 8871TIP3   OH226489   4.913   5.616   2.116
 8871TIP3    H126490   4.888   5.617   2.208
 8871TIP3    H226491   4.992   5.563   2.113
 8872TIP3   OH226492   3.599   2.029   4.360
 8872TIP3    H126493   3.633   2.057   4.275
 8872TIP3    H226494   3.521   2.084   4.373
 8873TIP3   OH226495   1.331   8.260   1.232
 8873TIP3    H126496   1.368   8.172   1.243
 8873TIP3    H226497   1.242   8.252   1.266
 8874TIP3   OH226498   0.158   0.402   0.183
 8874TIP3    H126499   0.089   0.467   0.173
 8874TIP3    H226500   0.113   0.318   0.181
 8875TIP3   OH226501   3.004   0.710   0.670
 8875TIP3    H126502   3.001   0.692   0.764
 8875TIP3    H226503   2.919   0.749   0.650
 8876TIP3   OH226504   7.655   3.992   6.050
 8876TIP3    H126505   7.569   4.009   6.014
 8876TIP3    H226506   7.712   4.058   6.010
 8877TIP3   OH226507   1.359   1.283   0.208
 8877TIP3    H126508   1.279   1.331   0.228
 8877TIP3    H226509   1.420   1.307   0.278
 8878TIP3   OH226510   8.028   7.892   4.295
 8878TIP3    H126511   8.080   7.815   4.319
 8878TIP3    H226512   8.071   7.926   4.216
 8879TIP3   OH226513   5.632   2.194   1.742
 8879TIP3    H126514   5.579   2.150   1.808
 8879TIP3    H226515   5.719   2.155   1.749
 8880TIP3   OH226516   4.361   8.664   5.658
 8880TIP3    H126517   4.432   8.614   5.618
 8880TIP3    H226518   4.307   8.597   5.701
 8881TIP3   OH226519   6.278   1.661   7.416
 8881TIP3    H126520   6.194   1.654   7.461
 8881TIP3    H226521   6.255   1.669   7.323
 8882TIP3   OH226522   5.199   0.712   5.741
 8882TIP3    H126523   5.274   0.709   5.682
 8882TIP3    H226524   5.235   0.742   5.824
 8883TIP3   OH226525   4.623   5.689   4.260
 8883TIP3    H126526   4.718   5.699   4.265
 8883TIP3    H226527   4.589   5.779   4.264
 8884TIP3   OH226528   0.479   0.770   4.129
 8884TIP3    H126529   0.527   0.689   4.144
 8884TIP3    H226530   0.540   0.840   4.152
 8885TIP3   OH226531   9.370   0.221   1.381
 8885TIP3    H126532   9.377   0.306   1.425
 8885TIP3    H226533   9.276   0.205   1.376
 8886TIP3   OH226534   4.460   8.753   2.645
 8886TIP3    H126535   4.533   8.769   2.586
 8886TIP3    H226536   4.415   8.837   2.651
 8887TIP3   OH226537   8.533   2.725   0.811
 8887TIP3    H126538   8.590   2.750   0.883
 8887TIP3    H226539   8.452   2.772   0.827
 8888TIP3   OH226540   1.082   1.799   3.315
 8888TIP3    H126541   1.076   1.827   3.407
 8888TIP3    H226542   1.170   1.762   3.307
 8889TIP3   OH226543   5.128   6.100   6.504
 8889TIP3    H126544   5.127   6.079   6.598
 8889TIP3    H226545   5.190   6.172   6.496
 8890TIP3   OH226546   7.052   6.733   2.960
 8890TIP3    H126547   7.060   6.741   3.055
 8890TIP3    H226548   7.131   6.686   2.934
 8891TIP3   OH226549   7.162   5.835   7.055
 8891TIP3    H126550   7.173   5.930   7.062
 8891TIP3    H226551   7.237   5.805   7.004
 8892TIP3   OH226552   6.051   3.940   1.696
 8892TIP3    H126553   5.960   3.963   1.712
 8892TIP3    H226554   6.092   3.940   1.782
 8893TIP3   OH226555   0.804   7.382   7.171
 8893TIP3    H126556   0.794   7.469   7.131
 8893TIP3    H226557   0.730   7.331   7.137
 8894TIP3   OH226558   1.500   5.647   4.367
 8894TIP3    H126559   1.450   5.639   4.286
 8894TIP3    H226560   1.462   5.581   4.425
 8895TIP3   OH226561   9.088   1.068   6.810
 8895TIP3    H126562   8.996   1.077   6.832
 8895TIP3    H226563   9.098   0.975   6.789
 8896TIP3   OH226564   0.731   5.511   1.379
 8896TIP3    H126565   0.787   5.525   1.455
 8896TIP3    H226566   0.783   5.542   1.305
 8897TIP3   OH226567   1.083   0.657   5.498
 8897TIP3    H126568   1.170   0.623   5.515
 8897TIP3    H226569   1.069   0.723   5.566
 8898TIP3   OH226570   7.412   8.036   3.080
 8898TIP3    H126571   7.459   7.991   3.010
 8898TIP3    H226572   7.323   8.001   3.075
 8899TIP3   OH226573   4.895   2.758   2.094
 8899TIP3    H126574   4.938   2.743   2.178
 8899TIP3    H226575   4.930   2.841   2.063
 8900TIP3   OH226576   7.621   4.515   2.408
 8900TIP3    H126577   7.661   4.536   2.493
 8900TIP3    H226578   7.533   4.486   2.430
 8901TIP3   OH226579   4.589   6.420   0.812
 8901TIP3    H126580   4.564   6.486   0.747
 8901TIP3    H226581   4.563   6.337   0.774
 8902TIP3   OH226582   2.652   7.751   4.139
 8902TIP3    H126583   2.610   7.828   4.176
 8902TIP3    H226584   2.651   7.687   4.211
 8903TIP3   OH226585   0.295   4.194   0.872
 8903TIP3    H126586   0.228   4.197   0.941
 8903TIP3    H226587   0.363   4.255   0.902
 8904TIP3   OH226588   7.519   7.724   2.258
 8904TIP3    H126589   7.480   7.641   2.230
 8904TIP3    H226590   7.445   7.776   2.289
 8905TIP3   OH226591   5.044   7.501   1.493
 8905TIP3    H126592   5.081   7.422   1.534
 8905TIP3    H226593   5.120   7.548   1.459
 8906TIP3   OH226594   4.049   1.306   1.507
 8906TIP3    H126595   4.061   1.391   1.548
 8906TIP3    H226596   4.118   1.301   1.441
 8907TIP3   OH226597   8.745   4.224   2.375
 8907TIP3    H126598   8.750   4.310   2.333
 8907TIP3    H226599   8.669   4.182   2.334
 8908TIP3   OH226600   0.792   8.479   5.062
 8908TIP3    H126601   0.857   8.413   5.087
 8908TIP3    H226602   0.713   8.453   5.109
 8909TIP3   OH226603   0.628   0.629   2.415
 8909TIP3    H126604   0.673   0.634   2.500
 8909TIP3    H226605   0.672   0.695   2.361
 8910TIP3   OH226606   6.617   7.953   6.446
 8910TIP3    H126607   6.533   7.996   6.460
 8910TIP3    H226608   6.630   7.900   6.524
 8911TIP3   OH226609   3.119   6.883   6.348
 8911TIP3    H126610   3.038   6.835   6.330
 8911TIP3    H226611   3.091   6.960   6.396
 8912TIP3   OH226612   4.542   4.106   7.464
 8912TIP3    H126613   4.455   4.132   7.434
 8912TIP3    H226614   4.572   4.044   7.398
 8913TIP3   OH226615   7.125   0.892   5.120
 8913TIP3    H126616   7.087   0.972   5.154
 8913TIP3    H226617   7.096   0.824   5.180
 8914TIP3   OH226618   5.962   1.460   5.015
 8914TIP3    H126619   5.877   1.439   5.053
 8914TIP3    H226620   5.943   1.527   4.950
 8915TIP3   OH226621   3.924   0.878   3.255
 8915TIP3    H126622   3.858   0.941   3.226
 8915TIP3    H226623   3.958   0.840   3.174
 8916TIP3   OH226624   0.512   4.086   0.558
 8916TIP3    H126625   0.514   4.134   0.476
 8916TIP3    H226626   0.532   4.151   0.625
 8917TIP3   OH226627   6.999   7.940   0.235
 8917TIP3    H126628   7.087   7.960   0.265
 8917TIP3    H226629   6.943   8.004   0.278
 8918TIP3   OH226630   6.402   3.557   5.132
 8918TIP3    H126631   6.453   3.564   5.212
 8918TIP3    H226632   6.354   3.639   5.126
 8919TIP3   OH226633   1.271   7.636   2.534
 8919TIP3    H126634   1.309   7.683   2.608
 8919TIP3    H226635   1.346   7.604   2.484
 8920TIP3   OH226636   6.332   7.681   6.486
 8920TIP3    H126637   6.261   7.680   6.421
 8920TIP3    H226638   6.310   7.610   6.547
 8921TIP3   OH226639   0.401   4.723   3.292
 8921TIP3    H126640   0.388   4.812   3.325
 8921TIP3    H226641   0.442   4.677   3.364
 8922TIP3   OH226642   2.981   8.090   2.299
 8922TIP3    H126643   2.949   8.005   2.332
 8922TIP3    H226644   2.903   8.146   2.300
 8923TIP3   OH226645   7.312   2.288   3.499
 8923TIP3    H126646   7.257   2.279   3.577
 8923TIP3    H226647   7.279   2.221   3.439
 8924TIP3   OH226648   4.783   1.884   2.471
 8924TIP3    H126649   4.841   1.841   2.534
 8924TIP3    H226650   4.707   1.910   2.523
 8925TIP3   OH226651   1.075   5.494   1.576
 8925TIP3    H126652   1.076   5.458   1.665
 8925TIP3    H226653   0.990   5.537   1.568
 8926TIP3   OH226654   9.257   4.079   3.070
 8926TIP3    H126655   9.228   3.989   3.053
 8926TIP3    H226656   9.200   4.110   3.141
 8927TIP3   OH226657   6.422   1.345   7.171
 8927TIP3    H126658   6.420   1.437   7.145
 8927TIP3    H226659   6.342   1.334   7.223
 8928TIP3   OH226660   9.045   2.084   0.399
 8928TIP3    H126661   9.098   2.031   0.339
 8928TIP3    H226662   9.027   2.026   0.473
 8929TIP3   OH226663   8.003   7.269   0.724
 8929TIP3    H126664   8.033   7.210   0.793
 8929TIP3    H226665   8.059   7.249   0.649
 8930TIP3   OH226666   8.719   8.945   0.986
 8930TIP3    H126667   8.806   8.962   0.950
 8930TIP3    H226668   8.658   8.973   0.918
 8931TIP3   OH226669   4.816   3.114   3.455
 8931TIP3    H126670   4.800   3.123   3.549
 8931TIP3    H226671   4.911   3.123   3.446
 8932TIP3   OH226672   2.539   3.875   2.786
 8932TIP3    H126673   2.465   3.839   2.737
 8932TIP3    H226674   2.537   3.969   2.766
 8933TIP3   OH226675   3.390   7.189   7.464
 8933TIP3    H126676   3.462   7.246   7.492
 8933TIP3    H226677   3.383   7.123   7.532
 8934TIP3   OH226678   2.534   7.745   2.536
 8934TIP3    H126679   2.499   7.834   2.543
 8934TIP3    H226680   2.558   7.735   2.444
 8935TIP3   OH226681   3.099   7.429   2.303
 8935TIP3    H126682   3.168   7.479   2.260
 8935TIP3    H226683   3.081   7.356   2.244
 8936TIP3   OH226684   1.976   6.299   2.321
 8936TIP3    H126685   2.044   6.363   2.304
 8936TIP3    H226686   2.001   6.222   2.270
 8937TIP3   OH226687   5.665   8.338   3.498
 8937TIP3    H126688   5.687   8.430   3.483
 8937TIP3    H226689   5.750   8.294   3.505
 8938TIP3   OH226690   3.861   0.876   6.224
 8938TIP3    H126691   3.884   0.941   6.158
 8938TIP3    H226692   3.766   0.870   6.220
 8939TIP3   OH226693   8.005   1.716   4.435
 8939TIP3    H126694   8.026   1.775   4.508
 8939TIP3    H226695   7.982   1.633   4.477
 8940TIP3   OH226696   4.183   8.355   6.066
 8940TIP3    H126697   4.124   8.299   6.016
 8940TIP3    H226698   4.126   8.422   6.105
 8941TIP3   OH226699   5.997   7.832   3.981
 8941TIP3    H126700   5.995   7.923   3.952
 8941TIP3    H226701   6.003   7.837   4.076
 8942TIP3   OH226702   2.553   3.101   5.537
 8942TIP3    H126703   2.478   3.137   5.584
 8942TIP3    H226704   2.531   3.112   5.445
 8943TIP3   OH226705   0.161   8.483   4.523
 8943TIP3    H126706   0.244   8.477   4.476
 8943TIP3    H226707   0.145   8.577   4.532
 8944TIP3   OH226708   7.034   6.700   5.741
 8944TIP3    H126709   7.119   6.734   5.769
 8944TIP3    H226710   7.009   6.756   5.667
 8945TIP3   OH226711   2.565   8.958   4.186
 8945TIP3    H126712   2.567   8.928   4.095
 8945TIP3    H226713   2.490   8.914   4.224
 8946TIP3   OH226714   6.009   0.015   1.874
 8946TIP3    H126715   5.965  -0.056   1.921
 8946TIP3    H226716   5.947   0.088   1.878
 8947TIP3   OH226717   6.106   7.971   1.812
 8947TIP3    H126718   6.181   7.979   1.871
 8947TIP3    H226719   6.082   7.879   1.814
 8948TIP3   OH226720   7.430   1.251   4.229
 8948TIP3    H126721   7.421   1.179   4.166
 8948TIP3    H226722   7.427   1.330   4.176
 8949TIP3   OH226723   1.934   5.092   7.139
 8949TIP3    H126724   2.001   5.145   7.096
 8949TIP3    H226725   1.890   5.046   7.067
 8950TIP3   OH226726   4.215   3.448   0.022
 8950TIP3    H126727   4.149   3.384   0.049
 8950TIP3    H226728   4.264   3.468   0.102
 8951TIP3   OH226729   1.938   0.362   0.069
 8951TIP3    H126730   1.860   0.416   0.057
 8951TIP3    H226731   1.927   0.290   0.007
 8952TIP3   OH226732   0.739   5.632   3.658
 8952TIP3    H126733   0.829   5.600   3.671
 8952TIP3    H226734   0.688   5.553   3.643
 8953TIP3   OH226735   2.271   1.831   2.383
 8953TIP3    H126736   2.319   1.755   2.415
 8953TIP3    H226737   2.338   1.886   2.342
 8954TIP3   OH226738   4.336   3.482   2.985
 8954TIP3    H126739   4.314   3.479   2.892
 8954TIP3    H226740   4.431   3.473   2.988
 8955TIP3   OH226741   5.453   1.698   1.473
 8955TIP3    H126742   5.508   1.693   1.551
 8955TIP3    H226743   5.387   1.763   1.494
 8956TIP3   OH226744   0.764   6.450   3.114
 8956TIP3    H126745   0.682   6.403   3.131
 8956TIP3    H226746   0.749   6.493   3.029
 8957TIP3   OH226747   6.693   7.371   3.138
 8957TIP3    H126748   6.663   7.287   3.104
 8957TIP3    H226749   6.633   7.435   3.101
 8958TIP3   OH226750   7.928   6.345   7.254
 8958TIP3    H126751   7.853   6.391   7.216
 8958TIP3    H226752   7.987   6.415   7.283
 8959TIP3   OH226753   0.979   8.779   6.334
 8959TIP3    H126754   0.886   8.799   6.342
 8959TIP3    H226755   1.014   8.849   6.277
 8960TIP3   OH226756   0.974   6.259   4.494
 8960TIP3    H126757   1.001   6.192   4.557
 8960TIP3    H226758   1.041   6.256   4.426
 8961TIP3   OH226759   5.705   1.016   5.018
 8961TIP3    H126760   5.760   0.944   5.049
 8961TIP3    H226761   5.732   1.029   4.927
 8962TIP3   OH226762   6.267   4.651   6.519
 8962TIP3    H126763   6.280   4.641   6.424
 8962TIP3    H226764   6.353   4.631   6.557
 8963TIP3   OH226765   1.514   7.388   1.312
 8963TIP3    H126766   1.493   7.296   1.297
 8963TIP3    H226767   1.430   7.433   1.304
 8964TIP3   OH226768   1.116   1.324   0.937
 8964TIP3    H126769   1.086   1.405   0.895
 8964TIP3    H226770   1.173   1.353   1.008
 8965TIP3   OH226771   5.527   4.363   3.768
 8965TIP3    H126772   5.461   4.377   3.700
 8965TIP3    H226773   5.607   4.340   3.721
 8966TIP3   OH226774   7.552   3.936   1.203
 8966TIP3    H126775   7.533   3.867   1.139
 8966TIP3    H226776   7.538   3.894   1.288
 8967TIP3   OH226777   5.999   3.198   6.690
 8967TIP3    H126778   6.063   3.127   6.687
 8967TIP3    H226779   6.003   3.229   6.781
 8968TIP3   OH226780   6.673   1.296   7.254
 8968TIP3    H126781   6.589   1.322   7.218
 8968TIP3    H226782   6.654   1.215   7.302
 8969TIP3   OH226783   8.939   0.813   5.032
 8969TIP3    H126784   8.909   0.904   5.022
 8969TIP3    H226785   8.950   0.802   5.126
 8970TIP3   OH226786   5.813   3.601   4.689
 8970TIP3    H126787   5.722   3.607   4.717
 8970TIP3    H226788   5.837   3.692   4.671
 8971TIP3   OH226789   0.878   0.599   5.286
 8971TIP3    H126790   0.836   0.517   5.311
 8971TIP3    H226791   0.814   0.643   5.229
 8972TIP3   OH226792   2.577   1.497   4.606
 8972TIP3    H126793   2.659   1.538   4.634
 8972TIP3    H226794   2.581   1.409   4.645
 8973TIP3   OH226795   8.694   5.276   5.366
 8973TIP3    H126796   8.701   5.300   5.459
 8973TIP3    H226797   8.785   5.260   5.339
 8974TIP3   OH226798   2.697   5.889   3.714
 8974TIP3    H126799   2.764   5.949   3.682
 8974TIP3    H226800   2.695   5.903   3.809
 8975TIP3   OH226801   4.172   4.565   3.109
 8975TIP3    H126802   4.231   4.508   3.061
 8975TIP3    H226803   4.209   4.653   3.097
 8976TIP3   OH226804   5.082   6.328   0.633
 8976TIP3    H126805   5.137   6.278   0.693
 8976TIP3    H226806   5.144   6.387   0.589
 8977TIP3   OH226807   5.492   8.816   1.894
 8977TIP3    H126808   5.482   8.911   1.902
 8977TIP3    H226809   5.404   8.781   1.910
 8978TIP3   OH226810   6.228   5.328   3.931
 8978TIP3    H126811   6.312   5.282   3.924
 8978TIP3    H226812   6.165   5.259   3.953
 8979TIP3   OH226813   1.167   8.138   1.590
 8979TIP3    H126814   1.134   8.052   1.616
 8979TIP3    H226815   1.164   8.189   1.671
 8980TIP3   OH226816   5.727   6.653   7.339
 8980TIP3    H126817   5.671   6.638   7.263
 8980TIP3    H226818   5.673   6.704   7.399
 8981TIP3   OH226819   0.876   4.554   2.129
 8981TIP3    H126820   0.804   4.600   2.171
 8981TIP3    H226821   0.939   4.539   2.199
 8982TIP3   OH226822   8.742   3.502   6.086
 8982TIP3    H126823   8.796   3.439   6.037
 8982TIP3    H226824   8.701   3.449   6.154
 8983TIP3   OH226825   2.647   3.867   3.780
 8983TIP3    H126826   2.682   3.949   3.746
 8983TIP3    H226827   2.680   3.862   3.870
 8984TIP3   OH226828   3.923   3.156   6.195
 8984TIP3    H126829   3.944   3.063   6.201
 8984TIP3    H226830   3.928   3.176   6.101
 8985TIP3   OH226831   1.685   8.616   0.324
 8985TIP3    H126832   1.675   8.521   0.316
 8985TIP3    H226833   1.684   8.632   0.418
 8986TIP3   OH226834   5.136   5.500   4.186
 8986TIP3    H126835   5.208   5.451   4.227
 8986TIP3    H226836   5.083   5.432   4.143
 8987TIP3   OH226837   0.300   2.749   6.857
 8987TIP3    H126838   0.271   2.743   6.948
 8987TIP3    H226839   0.272   2.836   6.828
 8988TIP3   OH226840   2.077   4.344   0.240
 8988TIP3    H126841   2.166   4.333   0.272
 8988TIP3    H226842   2.068   4.280   0.170
 8989TIP3   OH226843   2.671   0.090   6.777
 8989TIP3    H126844   2.749   0.048   6.814
 8989TIP3    H226845   2.703   0.172   6.741
 8990TIP3   OH226846   6.869   8.872   3.243
 8990TIP3    H126847   6.869   8.911   3.156
 8990TIP3    H226848   6.842   8.943   3.301
 8991TIP3   OH226849   3.917   6.075   2.150
 8991TIP3    H126850   3.935   6.044   2.239
 8991TIP3    H226851   3.962   6.159   2.145
 8992TIP3   OH226852   1.277   7.273   0.755
 8992TIP3    H126853   1.259   7.303   0.665
 8992TIP3    H226854   1.192   7.243   0.787
 8993TIP3   OH226855   2.868   4.339   4.977
 8993TIP3    H126856   2.951   4.370   5.014
 8993TIP3    H226857   2.869   4.244   4.993
 8994TIP3   OH226858   4.387   0.860   0.616
 8994TIP3    H126859   4.349   0.866   0.529
 8994TIP3    H226860   4.362   0.772   0.646
 8995TIP3   OH226861   4.875   0.863   5.697
 8995TIP3    H126862   4.860   0.913   5.617
 8995TIP3    H226863   4.904   0.928   5.761
 8996TIP3   OH226864   7.591   0.028   0.408
 8996TIP3    H126865   7.541  -0.010   0.480
 8996TIP3    H226866   7.679  -0.007   0.418
 8997TIP3   OH226867   4.166   7.788   0.934
 8997TIP3    H126868   4.093   7.797   0.996
 8997TIP3    H226869   4.124   7.787   0.848
 8998TIP3   OH226870   2.928   1.793   4.915
 8998TIP3    H126871   2.973   1.803   4.999
 8998TIP3    H226872   2.935   1.879   4.874
 8999TIP3   OH226873   3.467   2.152   0.691
 8999TIP3    H126874   3.534   2.203   0.735
 8999TIP3    H226875   3.499   2.062   0.694
 9000TIP3   OH226876   6.681   2.970   2.471
 9000TIP3    H126877   6.677   3.046   2.530
 9000TIP3    H226878   6.602   2.977   2.417
 9001TIP3   OH226879   3.394   8.058   3.601
 9001TIP3    H126880   3.340   8.006   3.661
 9001TIP3    H226881   3.379   8.149   3.627
 9002TIP3   OH226882   5.269   7.890   2.682
 9002TIP3    H126883   5.295   7.838   2.758
 9002TIP3    H226884   5.201   7.839   2.639
 9003TIP3   OH226885   6.031   1.224   2.399
 9003TIP3    H126886   6.066   1.145   2.440
 9003TIP3    H226887   6.045   1.209   2.305
 9004TIP3   OH226888   9.481   5.445   2.130
 9004TIP3    H126889   9.530   5.463   2.050
 9004TIP3    H226890   9.532   5.486   2.199
 9005TIP3   OH226891   2.448   4.176   7.309
 9005TIP3    H126892   2.510   4.120   7.263
 9005TIP3    H226893   2.443   4.255   7.256
 9006TIP3   OH226894   1.388   5.603   6.175
 9006TIP3    H126895   1.337   5.534   6.133
 9006TIP3    H226896   1.328   5.678   6.178
 9007TIP3   OH226897   2.178   8.080   3.440
 9007TIP3    H126898   2.175   8.026   3.362
 9007TIP3    H226899   2.121   8.035   3.502
 9008TIP3   OH226900   2.618   0.970   1.901
 9008TIP3    H126901   2.656   0.889   1.935
 9008TIP3    H226902   2.530   0.945   1.872
 9009TIP3   OH226903   5.622   2.029   6.399
 9009TIP3    H126904   5.602   1.938   6.420
 9009TIP3    H226905   5.554   2.055   6.337
 9010TIP3   OH226906   1.301   6.352   3.191
 9010TIP3    H126907   1.228   6.296   3.166
 9010TIP3    H226908   1.342   6.376   3.108
 9011TIP3   OH226909   4.919   3.610   7.798
 9011TIP3    H126910   4.827   3.633   7.809
 9011TIP3    H226911   4.938   3.631   7.706
 9012TIP3   OH226912   0.883   1.364   0.302
 9012TIP3    H126913   0.862   1.306   0.375
 9012TIP3    H226914   0.806   1.360   0.245
 9013TIP3   OH226915   5.398   3.244   6.972
 9013TIP3    H126916   5.331   3.312   6.982
 9013TIP3    H226917   5.453   3.274   6.900
 9014TIP3   OH226918   8.609   3.051   2.095
 9014TIP3    H126919   8.673   3.034   2.164
 9014TIP3    H226920   8.636   3.136   2.058
 9015TIP3   OH226921   3.425   5.510   1.744
 9015TIP3    H126922   3.431   5.498   1.649
 9015TIP3    H226923   3.341   5.554   1.757
 9016TIP3   OH226924   3.292   2.773   4.723
 9016TIP3    H126925   3.276   2.863   4.694
 9016TIP3    H226926   3.388   2.765   4.726
 9017TIP3   OH226927   1.400   3.033   0.413
 9017TIP3    H126928   1.450   3.100   0.459
 9017TIP3    H226929   1.354   3.081   0.344
 9018TIP3   OH226930   4.222   4.397   1.609
 9018TIP3    H126931   4.154   4.345   1.565
 9018TIP3    H226932   4.173   4.466   1.654
 9019TIP3   OH226933   4.931   2.285   7.582
 9019TIP3    H126934   4.923   2.191   7.597
 9019TIP3    H226935   4.840   2.317   7.581
 9020TIP3   OH226936   6.688   3.227   4.343
 9020TIP3    H126937   6.745   3.212   4.418
 9020TIP3    H226938   6.636   3.303   4.367
 9021TIP3   OH226939   8.921   2.076   2.115
 9021TIP3    H126940   8.891   1.994   2.154
 9021TIP3    H226941   8.882   2.144   2.171
 9022TIP3   OH226942   8.552   0.921   4.849
 9022TIP3    H126943   8.596   0.933   4.764
 9022TIP3    H226944   8.592   0.842   4.885
 9023TIP3   OH226945   1.473   7.746   5.482
 9023TIP3    H126946   1.438   7.767   5.569
 9023TIP3    H226947   1.397   7.749   5.424
 9024TIP3   OH226948   4.017   8.795   7.583
 9024TIP3    H126949   4.029   8.826   7.673
 9024TIP3    H226950   3.922   8.799   7.569
 9025TIP3   OH226951   5.350   0.835   6.895
 9025TIP3    H126952   5.289   0.807   6.964
 9025TIP3    H226953   5.382   0.754   6.857
 9026TIP3   OH226954   2.309   7.406   4.559
 9026TIP3    H126955   2.358   7.340   4.509
 9026TIP3    H226956   2.296   7.366   4.645
 9027TIP3   OH226957   8.692   1.576   4.036
 9027TIP3    H126958   8.785   1.574   4.058
 9027TIP3    H226959   8.680   1.662   3.994
 9028TIP3   OH226960   5.449   6.501   0.332
 9028TIP3    H126961   5.408   6.578   0.293
 9028TIP3    H226962   5.510   6.469   0.265
 9029TIP3   OH226963   7.057   0.387   5.728
 9029TIP3    H126964   7.094   0.415   5.812
 9029TIP3    H226965   6.964   0.374   5.746
 9030TIP3   OH226966   4.382   8.729   7.599
 9030TIP3    H126967   4.460   8.755   7.550
 9030TIP3    H226968   4.373   8.797   7.666
 9031TIP3   OH226969   5.265   5.190   6.812
 9031TIP3    H126970   5.346   5.186   6.762
 9031TIP3    H226971   5.293   5.196   6.904
 9032TIP3   OH226972   2.114   2.941   7.201
 9032TIP3    H126973   2.040   2.967   7.147
 9032TIP3    H226974   2.077   2.880   7.265
 9033TIP3   OH226975   0.697   7.784   1.492
 9033TIP3    H126976   0.603   7.791   1.509
 9033TIP3    H226977   0.709   7.827   1.407
 9034TIP3   OH226978   4.037   0.793   4.033
 9034TIP3    H126979   4.071   0.788   4.122
 9034TIP3    H226980   4.115   0.787   3.977
 9035TIP3   OH226981   0.484   6.912   0.407
 9035TIP3    H126982   0.486   7.006   0.424
 9035TIP3    H226983   0.572   6.881   0.429
 9036TIP3   OH226984   9.485   2.683   0.156
 9036TIP3    H126985   9.474   2.773   0.126
 9036TIP3    H226986   9.536   2.641   0.087
 9037TIP3   OH226987   0.659   5.237   3.202
 9037TIP3    H126988   0.696   5.246   3.290
 9037TIP3    H226989   0.573   5.197   3.215
 9038TIP3   OH226990   1.472   7.694   6.748
 9038TIP3    H126991   1.477   7.763   6.681
 9038TIP3    H226992   1.381   7.693   6.775
 9039TIP3   OH226993   4.002   1.819   6.842
 9039TIP3    H126994   4.011   1.912   6.861
 9039TIP3    H226995   3.913   1.797   6.868
 9040TIP3   OH226996   1.651   3.784   1.417
 9040TIP3    H126997   1.626   3.715   1.480
 9040TIP3    H226998   1.567   3.819   1.386
 9041TIP3   OH226999   4.730   8.678   0.970
 9041TIP3    H127000   4.773   8.639   0.894
 9041TIP3    H227001   4.686   8.755   0.935
 9042TIP3   OH227002   0.530   5.952   2.160
 9042TIP3    H127003   0.614   5.922   2.125
 9042TIP3    H227004   0.547   6.040   2.192
 9043TIP3   OH227005   2.311   2.096   0.992
 9043TIP3    H127006   2.358   2.101   0.909
 9043TIP3    H227007   2.374   2.127   1.057
 9044TIP3   OH227008   9.233   4.502   5.805
 9044TIP3    H127009   9.242   4.597   5.805
 9044TIP3    H227010   9.289   4.473   5.733
 9045TIP3   OH227011   3.621   0.285   6.139
 9045TIP3    H127012   3.622   0.253   6.229
 9045TIP3    H227013   3.714   0.299   6.117
 9046TIP3   OH227014   6.429   0.123   4.521
 9046TIP3    H127015   6.425   0.164   4.435
 9046TIP3    H227016   6.474   0.040   4.507
 9047TIP3   OH227017   4.720   4.079   1.125
 9047TIP3    H127018   4.648   4.032   1.166
 9047TIP3    H227019   4.687   4.103   1.038
 9048TIP3   OH227020   2.805   4.952   1.949
 9048TIP3    H127021   2.861   4.875   1.957
 9048TIP3    H227022   2.718   4.921   1.977
 9049TIP3   OH227023   8.798   4.771   3.615
 9049TIP3    H127024   8.769   4.758   3.705
 9049TIP3    H227025   8.888   4.738   3.614
 9050TIP3   OH227026   3.406   0.849   7.795
 9050TIP3    H127027   3.325   0.848   7.845
 9050TIP3    H227028   3.395   0.782   7.728
 9051TIP3   OH227029   7.533   4.694   0.276
 9051TIP3    H127030   7.625   4.670   0.269
 9051TIP3    H227031   7.498   4.638   0.345
 9052TIP3   OH227032   3.260   2.516   3.214
 9052TIP3    H127033   3.278   2.564   3.294
 9052TIP3    H227034   3.321   2.443   3.216
 9053TIP3   OH227035   3.678   0.278   1.200
 9053TIP3    H127036   3.585   0.261   1.218
 9053TIP3    H227037   3.692   0.368   1.229
 9054TIP3   OH227038   9.233   6.570   1.831
 9054TIP3    H127039   9.259   6.480   1.808
 9054TIP3    H227040   9.313   6.621   1.819
 9055TIP3   OH227041   6.423   6.740   7.645
 9055TIP3    H127042   6.430   6.775   7.734
 9055TIP3    H227043   6.489   6.671   7.641
 9056TIP3   OH227044   6.111   1.062   6.272
 9056TIP3    H127045   6.203   1.044   6.293
 9056TIP3    H227046   6.101   1.029   6.183
 9057TIP3   OH227047   2.929   1.131   7.223
 9057TIP3    H127048   2.968   1.151   7.138
 9057TIP3    H227049   2.991   1.071   7.264
 9058TIP3   OH227050   1.955   3.627   1.670
 9058TIP3    H127051   2.026   3.563   1.670
 9058TIP3    H227052   1.997   3.711   1.657
 9059TIP3   OH227053   0.459   8.008   0.658
 9059TIP3    H127054   0.504   8.078   0.705
 9059TIP3    H227055   0.375   7.998   0.703
 9060TIP3   OH227056   1.486   1.979   7.812
 9060TIP3    H127057   1.403   2.024   7.793
 9060TIP3    H227058   1.522   1.958   7.726
 9061TIP3   OH227059   0.879   3.445   4.017
 9061TIP3    H127060   0.866   3.350   4.014
 9061TIP3    H227061   0.815   3.476   4.081
 9062TIP3   OH227062   2.647   6.916   0.115
 9062TIP3    H127063   2.684   6.867   0.041
 9062TIP3    H227064   2.617   6.998   0.075
 9063TIP3   OH227065   1.312   8.962   3.754
 9063TIP3    H127066   1.383   8.914   3.712
 9063TIP3    H227067   1.356   9.036   3.797
 9064TIP3   OH227068   3.295   4.759   4.470
 9064TIP3    H127069   3.226   4.727   4.529
 9064TIP3    H227070   3.309   4.687   4.408
 9065TIP3   OH227071   3.319   8.193   1.877
 9065TIP3    H127072   3.242   8.177   1.930
 9065TIP3    H227073   3.314   8.285   1.853
 9066TIP3   OH227074   5.447   4.733   6.344
 9066TIP3    H127075   5.512   4.678   6.389
 9066TIP3    H227076   5.497   4.803   6.304
 9067TIP3   OH227077   8.341   8.538   4.375
 9067TIP3    H127078   8.388   8.544   4.458
 9067TIP3    H227079   8.345   8.445   4.351
 9068TIP3   OH227080   5.759   2.114   0.561
 9068TIP3    H127081   5.723   2.099   0.648
 9068TIP3    H227082   5.835   2.056   0.556
 9069TIP3   OH227083   8.792   4.171   0.617
 9069TIP3    H127084   8.723   4.143   0.677
 9069TIP3    H227085   8.749   4.180   0.532
 9070TIP3   OH227086   3.697   0.793   0.258
 9070TIP3    H127087   3.712   0.886   0.277
 9070TIP3    H227088   3.761   0.748   0.312
 9071TIP3   OH227089   6.584   3.123   6.499
 9071TIP3    H127090   6.492   3.149   6.494
 9071TIP3    H227091   6.581   3.029   6.516
 9072TIP3   OH227092   0.322   5.775   1.171
 9072TIP3    H127093   0.372   5.717   1.113
 9072TIP3    H227094   0.255   5.719   1.209
 9073TIP3   OH227095   5.881   3.419   7.746
 9073TIP3    H127096   5.908   3.412   7.654
 9073TIP3    H227097   5.818   3.348   7.759
 9074TIP3   OH227098   6.974   7.089   2.685
 9074TIP3    H127099   6.923   7.137   2.621
 9074TIP3    H227100   7.065   7.112   2.666
 9075TIP3   OH227101   1.585   4.914   6.530
 9075TIP3    H127102   1.555   4.852   6.595
 9075TIP3    H227103   1.505   4.947   6.489
 9076TIP3   OH227104   5.413   5.640   5.396
 9076TIP3    H127105   5.356   5.616   5.323
 9076TIP3    H227106   5.373   5.598   5.472
 9077TIP3   OH227107   8.974   5.343   4.065
 9077TIP3    H127108   8.911   5.346   4.136
 9077TIP3    H227109   8.923   5.312   3.989
 9078TIP3   OH227110   6.913   6.524   6.237
 9078TIP3    H127111   6.917   6.554   6.146
 9078TIP3    H227112   6.904   6.604   6.288
 9079TIP3   OH227113   4.942   3.608   5.471
 9079TIP3    H127114   5.010   3.557   5.514
 9079TIP3    H227115   4.946   3.694   5.513
 9080TIP3   OH227116   2.382   3.690   2.227
 9080TIP3    H127117   2.326   3.682   2.304
 9080TIP3    H227118   2.376   3.604   2.184
 9081TIP3   OH227119   8.787   4.780   0.258
 9081TIP3    H127120   8.873   4.739   0.253
 9081TIP3    H227121   8.744   4.758   0.175
 9082TIP3   OH227122   4.007   4.639   0.250
 9082TIP3    H127123   4.086   4.670   0.294
 9082TIP3    H227124   3.961   4.718   0.223
 9083TIP3   OH227125   5.485   7.284   1.499
 9083TIP3    H127126   5.560   7.339   1.520
 9083TIP3    H227127   5.521   7.195   1.492
 9084TIP3   OH227128   6.053   4.076   3.056
 9084TIP3    H127129   6.089   4.068   2.967
 9084TIP3    H227130   5.980   4.015   3.058
 9085TIP3   OH227131   8.850   8.634   0.516
 9085TIP3    H127132   8.839   8.729   0.523
 9085TIP3    H227133   8.790   8.608   0.446
 9086TIP3   OH227134   5.705   7.771   4.827
 9086TIP3    H127135   5.625   7.788   4.778
 9086TIP3    H227136   5.681   7.702   4.889
 9087TIP3   OH227137   5.801   4.997   7.139
 9087TIP3    H127138   5.731   4.936   7.163
 9087TIP3    H227139   5.881   4.957   7.171
 9088TIP3   OH227140   8.034   1.205   3.769
 9088TIP3    H127141   8.064   1.280   3.820
 9088TIP3    H227142   8.032   1.133   3.832
 9089TIP3   OH227143   5.463   6.280   3.519
 9089TIP3    H127144   5.408   6.305   3.445
 9089TIP3    H227145   5.500   6.362   3.550
 9090TIP3   OH227146   6.556   4.121   7.524
 9090TIP3    H127147   6.600   4.182   7.583
 9090TIP3    H227148   6.627   4.068   7.488
 9091TIP3   OH227149   0.527   7.375   4.395
 9091TIP3    H127150   0.530   7.366   4.490
 9091TIP3    H227151   0.602   7.429   4.373
 9092TIP3   OH227152   5.518   2.227   5.319
 9092TIP3    H127153   5.481   2.139   5.323
 9092TIP3    H227154   5.532   2.251   5.411
 9093TIP3   OH227155   6.389   8.286   0.098
 9093TIP3    H127156   6.330   8.297   0.024
 9093TIP3    H227157   6.477   8.292   0.061
 9094TIP3   OH227158   5.316   0.967   2.343
 9094TIP3    H127159   5.309   0.968   2.438
 9094TIP3    H227160   5.322   0.875   2.320
 9095TIP3   OH227161   7.044   8.384   5.955
 9095TIP3    H127162   7.009   8.312   5.903
 9095TIP3    H227163   7.072   8.449   5.891
 9096TIP3   OH227164   6.034   5.946   2.955
 9096TIP3    H127165   6.057   6.013   2.891
 9096TIP3    H227166   6.023   5.867   2.903
 9097TIP3   OH227167   1.924   6.437   4.031
 9097TIP3    H127168   1.894   6.485   3.954
 9097TIP3    H227169   2.017   6.421   4.014
 9098TIP3   OH227170   3.352   6.875   7.600
 9098TIP3    H127171   3.431   6.823   7.583
 9098TIP3    H227172   3.305   6.875   7.517
 9099TIP3   OH227173   2.994   1.075   5.479
 9099TIP3    H127174   3.051   1.146   5.510
 9099TIP3    H227175   2.926   1.068   5.545
 9100TIP3   OH227176   4.072   5.700   3.782
 9100TIP3    H127177   4.011   5.774   3.777
 9100TIP3    H227178   4.097   5.696   3.875
 9101TIP3   OH227179   4.432   5.521   7.584
 9101TIP3    H127180   4.380   5.440   7.585
 9101TIP3    H227181   4.411   5.562   7.500
 9102TIP3   OH227182   0.949   2.396   0.912
 9102TIP3    H127183   1.034   2.431   0.939
 9102TIP3    H227184   0.923   2.451   0.838
 9103TIP3   OH227185   3.753   4.061   6.720
 9103TIP3    H127186   3.687   4.128   6.706
 9103TIP3    H227187   3.744   4.003   6.644
 9104TIP3   OH227188   5.921   2.626   6.282
 9104TIP3    H127189   5.914   2.530   6.281
 9104TIP3    H227190   5.857   2.655   6.217
 9105TIP3   OH227191   9.404   8.059   6.071
 9105TIP3    H127192   9.385   7.966   6.085
 9105TIP3    H227193   9.333   8.105   6.114
 9106TIP3   OH227194   5.452   8.336   2.151
 9106TIP3    H127195   5.444   8.341   2.246
 9106TIP3    H227196   5.543   8.360   2.134
 9107TIP3   OH227197   1.228   5.707   7.160
 9107TIP3    H127198   1.156   5.725   7.221
 9107TIP3    H227199   1.303   5.753   7.197
 9108TIP3   OH227200   8.867   2.314   4.228
 9108TIP3    H127201   8.788   2.267   4.254
 9108TIP3    H227202   8.938   2.251   4.238
 9109TIP3   OH227203   7.565   5.331   6.672
 9109TIP3    H127204   7.565   5.426   6.678
 9109TIP3    H227205   7.626   5.302   6.740
 9110TIP3   OH227206   3.573   7.643   5.981
 9110TIP3    H127207   3.623   7.638   5.900
 9110TIP3    H227208   3.499   7.699   5.960
 9111TIP3   OH227209   8.014   3.270   7.248
 9111TIP3    H127210   7.963   3.265   7.329
 9111TIP3    H227211   7.953   3.246   7.179
 9112TIP3   OH227212   0.042   7.794   3.844
 9112TIP3    H127213  -0.042   7.759   3.874
 9112TIP3    H227214   0.108   7.748   3.895
 9113TIP3   OH227215   1.454   8.117   1.477
 9113TIP3    H127216   1.458   8.057   1.403
 9113TIP3    H227217   1.368   8.101   1.515
 9114TIP3   OH227218   4.825   0.065   7.233
 9114TIP3    H127219   4.838  -0.027   7.258
 9114TIP3    H227220   4.875   0.075   7.152
 9115TIP3   OH227221   2.029   0.800   1.791
 9115TIP3    H127222   1.936   0.800   1.815
 9115TIP3    H227223   2.046   0.889   1.761
 9116TIP3   OH227224   8.458   5.059   7.267
 9116TIP3    H127225   8.385   5.006   7.234
 9116TIP3    H227226   8.439   5.148   7.238
 9117TIP3   OH227227   1.357   1.002   6.123
 9117TIP3    H127228   1.320   1.050   6.197
 9117TIP3    H227229   1.445   1.038   6.112
 9118TIP3   OH227230   0.843   8.888   1.866
 9118TIP3    H127231   0.892   8.824   1.815
 9118TIP3    H227232   0.908   8.927   1.925
 9119TIP3   OH227233   5.425   3.807   1.083
 9119TIP3    H127234   5.335   3.782   1.107
 9119TIP3    H227235   5.474   3.798   1.164
 9120TIP3   OH227236   4.022   3.149   5.653
 9120TIP3    H127237   3.986   3.179   5.570
 9120TIP3    H227238   4.113   3.125   5.632
 9121TIP3   OH227239   6.202   2.622   0.732
 9121TIP3    H127240   6.108   2.625   0.717
 9121TIP3    H227241   6.212   2.634   0.826
 9122TIP3   OH227242   4.030   1.178   0.398
 9122TIP3    H127243   4.038   1.131   0.481
 9122TIP3    H227244   3.999   1.265   0.423
 9123TIP3   OH227245   9.483   2.724   1.710
 9123TIP3    H127246   9.444   2.802   1.750
 9123TIP3    H227247   9.495   2.663   1.782
 9124TIP3   OH227248   1.488   0.246   4.428
 9124TIP3    H127249   1.562   0.254   4.368
 9124TIP3    H227250   1.459   0.155   4.419
 9125TIP3   OH227251   9.056   3.167   3.613
 9125TIP3    H127252   9.049   3.186   3.707
 9125TIP3    H227253   8.977   3.118   3.592
 9126TIP3   OH227254   5.930   3.837   4.700
 9126TIP3    H127255   5.919   3.891   4.778
 9126TIP3    H227256   5.997   3.774   4.724
 9127TIP3   OH227257   0.214   3.052   4.136
 9127TIP3    H127258   0.228   3.137   4.094
 9127TIP3    H227259   0.285   2.997   4.104
 9128TIP3   OH227260   6.305   3.519   7.198
 9128TIP3    H127261   6.252   3.581   7.147
 9128TIP3    H227262   6.389   3.564   7.211
 9129TIP3   OH227263   6.588   4.676   6.011
 9129TIP3    H127264   6.561   4.754   5.964
 9129TIP3    H227265   6.612   4.708   6.099
 9130TIP3   OH227266   9.547   0.599   4.903
 9130TIP3    H127267   9.458   0.566   4.892
 9130TIP3    H227268   9.536   0.691   4.926
 9131TIP3   OH227269   7.867   6.148   4.926
 9131TIP3    H127270   7.929   6.083   4.959
 9131TIP3    H227271   7.782   6.117   4.956
 9132TIP3   OH227272   5.225   6.046   3.616
 9132TIP3    H127273   5.131   6.061   3.628
 9132TIP3    H227274   5.266   6.128   3.644
 9133TIP3   OH227275   7.046   7.174   4.695
 9133TIP3    H127276   7.084   7.094   4.730
 9133TIP3    H227277   7.039   7.232   4.771
 9134TIP3   OH227278   6.093   6.313   6.230
 9134TIP3    H127279   6.003   6.310   6.263
 9134TIP3    H227280   6.110   6.224   6.201
 9135TIP3   OH227281   6.628   5.863   3.259
 9135TIP3    H127282   6.657   5.901   3.343
 9135TIP3    H227283   6.654   5.928   3.194
 9136TIP3   OH227284   2.710   2.714   2.475
 9136TIP3    H127285   2.716   2.634   2.527
 9136TIP3    H227286   2.636   2.761   2.512
 9137TIP3   OH227287   6.312   7.705   6.888
 9137TIP3    H127288   6.262   7.768   6.941
 9137TIP3    H227289   6.345   7.756   6.814
 9138TIP3   OH227290   1.346   4.227   2.579
 9138TIP3    H127291   1.258   4.190   2.574
 9138TIP3    H227292   1.338   4.300   2.640
 9139TIP3   OH227293   7.267   0.502   5.132
 9139TIP3    H127294   7.191   0.466   5.087
 9139TIP3    H227295   7.235   0.581   5.175
 9140TIP3   OH227296   4.798   8.348   4.012
 9140TIP3    H127297   4.727   8.335   3.950
 9140TIP3    H227298   4.765   8.311   4.094
 9141TIP3   OH227299   2.233   6.169   7.082
 9141TIP3    H127300   2.206   6.124   7.162
 9141TIP3    H227301   2.276   6.101   7.029
 9142TIP3   OH227302   8.518   0.604   0.860
 9142TIP3    H127303   8.504   0.667   0.790
 9142TIP3    H227304   8.445   0.542   0.853
 9143TIP3   OH227305   4.087   8.446   1.543
 9143TIP3    H127306   4.118   8.413   1.627
 9143TIP3    H227307   4.135   8.528   1.530
 9144TIP3   OH227308   4.188   2.151   0.457
 9144TIP3    H127309   4.125   2.166   0.387
 9144TIP3    H227310   4.252   2.222   0.447
 9145TIP3   OH227311   2.998   4.431   6.006
 9145TIP3    H127312   3.004   4.439   6.101
 9145TIP3    H227313   2.927   4.490   5.981
 9146TIP3   OH227314   3.331   2.583   5.299
 9146TIP3    H127315   3.270   2.609   5.230
 9146TIP3    H227316   3.282   2.522   5.353
 9147TIP3   OH227317   8.475   2.814   1.309
 9147TIP3    H127318   8.541   2.784   1.246
 9147TIP3    H227319   8.526   2.839   1.387
 9148TIP3   OH227320   6.697   4.135   3.614
 9148TIP3    H127321   6.769   4.186   3.652
 9148TIP3    H227322   6.630   4.200   3.593
 9149TIP3   OH227323   0.146   8.041   3.170
 9149TIP3    H127324   0.053   8.021   3.163
 9149TIP3    H227325   0.166   8.091   3.091
 9150TIP3   OH227326   7.816   3.971   1.305
 9150TIP3    H127327   7.833   3.877   1.316
 9150TIP3    H227328   7.725   3.976   1.278
 9151TIP3   OH227329   9.355   8.607   4.511
 9151TIP3    H127330   9.278   8.585   4.459
 9151TIP3    H227331   9.429   8.577   4.460
 9152TIP3   OH227332   7.948   6.684   6.798
 9152TIP3    H127333   7.995   6.609   6.835
 9152TIP3    H227334   7.921   6.735   6.874
 9153TIP3   OH227335   1.224   8.353   5.385
 9153TIP3    H127336   1.142   8.399   5.367
 9153TIP3    H227337   1.274   8.414   5.439
 9154TIP3   OH227338   8.989   8.895   4.004
 9154TIP3    H127339   9.021   8.917   3.917
 9154TIP3    H227340   9.067   8.867   4.052
 9155TIP3   OH227341   2.812   3.965   7.746
 9155TIP3    H127342   2.816   3.962   7.650
 9155TIP3    H227343   2.719   3.954   7.766
 9156TIP3   OH227344   6.534   0.845   0.620
 9156TIP3    H127345   6.477   0.918   0.647
 9156TIP3    H227346   6.601   0.840   0.688
 9157TIP3   OH227347   3.461   1.832   2.684
 9157TIP3    H127348   3.498   1.916   2.658
 9157TIP3    H227349   3.521   1.798   2.750
 9158TIP3   OH227350   0.191   1.741   1.795
 9158TIP3    H127351   0.187   1.702   1.708
 9158TIP3    H227352   0.138   1.821   1.788
 9159TIP3   OH227353   3.995   3.792   6.997
 9159TIP3    H127354   3.992   3.790   7.093
 9159TIP3    H227355   4.063   3.856   6.977
 9160TIP3   OH227356   1.253   1.153   2.427
 9160TIP3    H127357   1.299   1.083   2.474
 9160TIP3    H227358   1.292   1.152   2.339
 9161TIP3   OH227359   3.145   8.124   4.727
 9161TIP3    H127360   3.143   8.191   4.658
 9161TIP3    H227361   3.080   8.059   4.700
 9162TIP3   OH227362   2.042   2.778   3.305
 9162TIP3    H127363   1.996   2.706   3.346
 9162TIP3    H227364   1.996   2.857   3.335
 9163TIP3   OH227365   1.615   6.477   6.826
 9163TIP3    H127366   1.564   6.439   6.755
 9163TIP3    H227367   1.675   6.407   6.853
 9164TIP3   OH227368   6.989   3.249   1.530
 9164TIP3    H127369   7.025   3.333   1.500
 9164TIP3    H227370   6.984   3.196   1.450
 9165TIP3   OH227371   0.937   0.982   6.666
 9165TIP3    H127372   0.859   0.992   6.612
 9165TIP3    H227373   0.906   0.993   6.755
 9166TIP3   OH227374   1.773   6.899   4.123
 9166TIP3    H127375   1.773   6.905   4.027
 9166TIP3    H227376   1.864   6.916   4.148
 9167TIP3   OH227377   1.291   1.239   3.080
 9167TIP3    H127378   1.335   1.315   3.117
 9167TIP3    H227379   1.236   1.207   3.152
 9168TIP3   OH227380   8.876   3.233   5.030
 9168TIP3    H127381   8.938   3.172   4.989
 9168TIP3    H227382   8.829   3.179   5.095
 9169TIP3   OH227383   8.670   8.826   3.875
 9169TIP3    H127384   8.668   8.806   3.969
 9169TIP3    H227385   8.615   8.904   3.867
 9170TIP3   OH227386   1.809   6.803   7.693
 9170TIP3    H127387   1.893   6.814   7.737
 9170TIP3    H227388   1.768   6.729   7.737
 9171TIP3   OH227389   3.320   1.643   3.769
 9171TIP3    H127390   3.343   1.688   3.850
 9171TIP3    H227391   3.357   1.697   3.700
 9172TIP3   OH227392   0.628   4.939   1.188
 9172TIP3    H127393   0.671   4.978   1.264
 9172TIP3    H227394   0.670   4.854   1.177
 9173TIP3   OH227395   5.011   6.321   6.335
 9173TIP3    H127396   4.977   6.234   6.315
 9173TIP3    H227397   5.106   6.312   6.324
 9174TIP3   OH227398   3.393   6.531   4.554
 9174TIP3    H127399   3.353   6.461   4.604
 9174TIP3    H227400   3.446   6.485   4.488
 9175TIP3   OH227401   7.578   6.464   6.308
 9175TIP3    H127402   7.566   6.370   6.303
 9175TIP3    H227403   7.560   6.486   6.400
 9176TIP3   OH227404   7.148   1.100   3.117
 9176TIP3    H127405   7.090   1.081   3.191
 9176TIP3    H227406   7.235   1.108   3.157
 9177TIP3   OH227407   0.834   4.787   2.326
 9177TIP3    H127408   0.800   4.707   2.365
 9177TIP3    H227409   0.771   4.855   2.350
 9178TIP3   OH227410   6.435   3.462   6.394
 9178TIP3    H127411   6.470   3.542   6.357
 9178TIP3    H227412   6.498   3.394   6.369
 9179TIP3   OH227413   6.646   8.305   5.188
 9179TIP3    H127414   6.646   8.314   5.284
 9179TIP3    H227415   6.576   8.242   5.170
 9180TIP3   OH227416   8.141   7.594   1.985
 9180TIP3    H127417   8.112   7.537   2.056
 9180TIP3    H227418   8.118   7.547   1.905
 9181TIP3   OH227419   6.717   2.785   6.065
 9181TIP3    H127420   6.776   2.785   6.140
 9181TIP3    H227421   6.695   2.877   6.051
 9182TIP3   OH227422   2.844   7.686   6.133
 9182TIP3    H127423   2.891   7.705   6.214
 9182TIP3    H227424   2.909   7.693   6.064
 9183TIP3   OH227425   6.253   1.984   7.267
 9183TIP3    H127426   6.245   2.018   7.356
 9183TIP3    H227427   6.346   1.996   7.245
 9184TIP3   OH227428   1.751   7.703   1.528
 9184TIP3    H127429   1.711   7.751   1.601
 9184TIP3    H227430   1.835   7.673   1.563
 9185TIP3   OH227431   1.062   2.915   2.386
 9185TIP3    H127432   1.059   2.821   2.368
 9185TIP3    H227433   1.155   2.937   2.390
 9186TIP3   OH227434   8.168   6.494   6.303
 9186TIP3    H127435   8.119   6.505   6.222
 9186TIP3    H227436   8.252   6.457   6.276
 9187TIP3   OH227437   8.423   1.641   6.424
 9187TIP3    H127438   8.488   1.645   6.354
 9187TIP3    H227439   8.339   1.646   6.378
 9188TIP3   OH227440   0.939   8.664   2.075
 9188TIP3    H127441   0.966   8.660   1.983
 9188TIP3    H227442   0.948   8.757   2.098
 9189TIP3   OH227443   5.044   7.243   2.016
 9189TIP3    H127444   5.107   7.174   2.035
 9189TIP3    H227445   5.047   7.300   2.093
 9190TIP3   OH227446   5.074   1.697   3.794
 9190TIP3    H127447   5.116   1.667   3.874
 9190TIP3    H227448   5.096   1.631   3.728
 9191TIP3   OH227449   8.486   2.875   4.976
 9191TIP3    H127450   8.392   2.858   4.981
 9191TIP3    H227451   8.527   2.790   4.991
 9192TIP3   OH227452   8.859   0.735   5.415
 9192TIP3    H127453   8.866   0.821   5.374
 9192TIP3    H227454   8.765   0.721   5.424
 9193TIP3   OH227455   3.301   1.283   0.006
 9193TIP3    H127456   3.380   1.337   0.006
 9193TIP3    H227457   3.257   1.305   0.089
 9194TIP3   OH227458   1.834   8.486   4.619
 9194TIP3    H127459   1.761   8.524   4.668
 9194TIP3    H227460   1.907   8.545   4.636
 9195TIP3   OH227461   5.661   8.122   0.898
 9195TIP3    H127462   5.568   8.130   0.876
 9195TIP3    H227463   5.673   8.181   0.972
 9196TIP3   OH227464   8.892   4.425   5.884
 9196TIP3    H127465   8.859   4.495   5.827
 9196TIP3    H227466   8.842   4.348   5.859
 9197TIP3   OH227467   1.709  -0.001   3.943
 9197TIP3    H127468   1.621   0.002   3.904
 9197TIP3    H227469   1.701   0.051   4.023
 9198TIP3   OH227470   9.191   0.311   2.735
 9198TIP3    H127471   9.163   0.399   2.761
 9198TIP3    H227472   9.287   0.317   2.729
 9199TIP3   OH227473   7.214   3.419   6.477
 9199TIP3    H127474   7.186   3.328   6.470
 9199TIP3    H227475   7.133   3.468   6.493
 9200TIP3   OH227476   3.483   8.485   1.016
 9200TIP3    H127477   3.411   8.453   0.961
 9200TIP3    H227478   3.531   8.406   1.040
 9201TIP3   OH227479   1.973   6.634   4.359
 9201TIP3    H127480   1.987   6.559   4.300
 9201TIP3    H227481   1.990   6.711   4.305
 9202TIP3   OH227482   6.454   4.629   7.323
 9202TIP3    H127483   6.368   4.589   7.335
 9202TIP3    H227484   6.477   4.610   7.232
 9203TIP3   OH227485   8.702   3.172   1.680
 9203TIP3    H127486   8.623   3.219   1.707
 9203TIP3    H227487   8.691   3.158   1.586
 9204TIP3   OH227488   5.225   0.013   2.895
 9204TIP3    H127489   5.254  -0.077   2.880
 9204TIP3    H227490   5.174   0.036   2.818
 9205TIP3   OH227491   4.952   1.424   4.080
 9205TIP3    H127492   4.872   1.437   4.130
 9205TIP3    H227493   5.014   1.385   4.141
 9206TIP3   OH227494   5.196   7.243   6.380
 9206TIP3    H127495   5.133   7.314   6.388
 9206TIP3    H227496   5.178   7.186   6.455
 9207TIP3   OH227497   8.915   8.733   5.680
 9207TIP3    H127498   8.964   8.809   5.648
 9207TIP3    H227499   8.864   8.767   5.754
 9208TIP3   OH227500   1.930   0.122   1.247
 9208TIP3    H127501   1.874   0.082   1.181
 9208TIP3    H227502   2.004   0.157   1.198
 9209TIP3   OH227503   0.038   4.221   1.025
 9209TIP3    H127504  -0.058   4.227   1.020
 9209TIP3    H227505   0.055   4.129   1.043
 9210TIP3   OH227506   8.123   7.417   0.179
 9210TIP3    H127507   8.089   7.370   0.256
 9210TIP3    H227508   8.056   7.406   0.112
 9211TIP3   OH227509   5.332   0.869   3.373
 9211TIP3    H127510   5.372   0.796   3.326
 9211TIP3    H227511   5.346   0.849   3.466
 9212TIP3   OH227512   4.317   0.001   0.394
 9212TIP3    H127513   4.289   0.050   0.471
 9212TIP3    H227514   4.401  -0.036   0.419
 9213TIP3   OH227515   0.676   2.227   0.644
 9213TIP3    H127516   0.671   2.269   0.559
 9213TIP3    H227517   0.593   2.179   0.652
 9214TIP3   OH227518   8.728   3.858   4.908
 9214TIP3    H127519   8.768   3.855   4.821
 9214TIP3    H227520   8.789   3.811   4.964
 9215TIP3   OH227521   1.664   4.312   7.507
 9215TIP3    H127522   1.600   4.288   7.439
 9215TIP3    H227523   1.697   4.228   7.539
 9216TIP3   OH227524   0.214   7.887   5.589
 9216TIP3    H127525   0.174   7.974   5.581
 9216TIP3    H227526   0.290   7.901   5.645
 9217TIP3   OH227527   5.491   6.824   5.527
 9217TIP3    H127528   5.434   6.834   5.451
 9217TIP3    H227529   5.433   6.797   5.598
 9218TIP3   OH227530   9.404   1.699   4.053
 9218TIP3    H127531   9.326   1.752   4.037
 9218TIP3    H227532   9.370   1.612   4.074
 9219TIP3   OH227533   1.733   3.727   1.970
 9219TIP3    H127534   1.714   3.710   2.062
 9219TIP3    H227535   1.708   3.647   1.924
 9220TIP3   OH227536   0.222   6.845   1.400
 9220TIP3    H127537   0.278   6.916   1.431
 9220TIP3    H227538   0.213   6.787   1.476
 9221TIP3   OH227539   1.489   8.704   0.742
 9221TIP3    H127540   1.471   8.614   0.715
 9221TIP3    H227541   1.515   8.697   0.834
 9222TIP3   OH227542   6.803   5.714   7.260
 9222TIP3    H127543   6.738   5.646   7.245
 9222TIP3    H227544   6.887   5.671   7.240
 9223TIP3   OH227545   7.847   2.136   0.841
 9223TIP3    H127546   7.881   2.047   0.847
 9223TIP3    H227547   7.835   2.151   0.747
 9224TIP3   OH227548   0.703   1.851   3.035
 9224TIP3    H127549   0.650   1.772   3.031
 9224TIP3    H227550   0.665   1.902   3.107
 9225TIP3   OH227551   2.293   4.086   1.042
 9225TIP3    H127552   2.286   3.991   1.048
 9225TIP3    H227553   2.357   4.102   0.972
 9226TIP3   OH227554   1.570   5.787   5.287
 9226TIP3    H127555   1.653   5.752   5.256
 9226TIP3    H227556   1.507   5.716   5.273
 9227TIP3   OH227557   7.666   2.404   5.495
 9227TIP3    H127558   7.618   2.396   5.577
 9227TIP3    H227559   7.747   2.355   5.509
 9228TIP3   OH227560   3.078   8.381   3.567
 9228TIP3    H127561   3.163   8.365   3.609
 9228TIP3    H227562   3.049   8.465   3.604
 9229TIP3   OH227563   3.141   0.156   6.843
 9229TIP3    H127564   3.235   0.174   6.833
 9229TIP3    H227565   3.125   0.169   6.937
 9230TIP3   OH227566   8.825   5.749   6.515
 9230TIP3    H127567   8.900   5.693   6.537
 9230TIP3    H227568   8.865   5.830   6.481
 9231TIP3   OH227569   2.761   1.626   2.697
 9231TIP3    H127570   2.726   1.567   2.630
 9231TIP3    H227571   2.821   1.571   2.748
 9232TIP3   OH227572   4.601   4.089   6.405
 9232TIP3    H127573   4.643   4.020   6.353
 9232TIP3    H227574   4.644   4.083   6.491
 9233TIP3   OH227575   3.562   0.952   5.140
 9233TIP3    H127576   3.567   0.856   5.135
 9233TIP3    H227577   3.494   0.969   5.205
 9234TIP3   OH227578   8.409   5.580   0.393
 9234TIP3    H127579   8.493   5.608   0.429
 9234TIP3    H227580   8.362   5.661   0.373
 9235TIP3   OH227581   4.992   0.192   0.895
 9235TIP3    H127582   4.941   0.261   0.853
 9235TIP3    H227583   5.036   0.147   0.823
 9236TIP3   OH227584   3.387   7.445   2.625
 9236TIP3    H127585   3.302   7.403   2.618
 9236TIP3    H227586   3.381   7.499   2.704
 9237TIP3   OH227587   2.210   4.203   3.015
 9237TIP3    H127588   2.124   4.243   3.027
 9237TIP3    H227589   2.272   4.274   3.033
 9238TIP3   OH227590   5.326   6.743   7.694
 9238TIP3    H127591   5.329   6.655   7.656
 9238TIP3    H227592   5.241   6.746   7.738
 9239TIP3   OH227593   2.045   1.249   2.201
 9239TIP3    H127594   2.088   1.260   2.117
 9239TIP3    H227595   2.109   1.278   2.265
 9240TIP3   OH227596   7.469   6.948   2.681
 9240TIP3    H127597   7.406   6.937   2.609
 9240TIP3    H227598   7.478   6.860   2.718
 9241TIP3   OH227599   4.863   3.730   2.111
 9241TIP3    H127600   4.892   3.669   2.043
 9241TIP3    H227601   4.921   3.713   2.185
 9242TIP3   OH227602   8.276   2.140   2.196
 9242TIP3    H127603   8.359   2.183   2.214
 9242TIP3    H227604   8.289   2.095   2.113
 9243TIP3   OH227605   7.987   8.436   3.595
 9243TIP3    H127606   8.039   8.517   3.593
 9243TIP3    H227607   7.901   8.463   3.627
 9244TIP3   OH227608   5.329   1.939   3.727
 9244TIP3    H127609   5.255   1.975   3.678
 9244TIP3    H227610   5.357   1.864   3.674
 9245TIP3   OH227611   7.750   3.683   3.519
 9245TIP3    H127612   7.800   3.608   3.489
 9245TIP3    H227613   7.701   3.651   3.595
 9246TIP3   OH227614   6.668   7.195   5.739
 9246TIP3    H127615   6.706   7.164   5.657
 9246TIP3    H227616   6.594   7.250   5.712
 9247TIP3   OH227617   8.817   8.751   5.179
 9247TIP3    H127618   8.776   8.837   5.173
 9247TIP3    H227619   8.827   8.735   5.273
 9248TIP3   OH227620   2.311   2.364   1.889
 9248TIP3    H127621   2.326   2.285   1.941
 9248TIP3    H227622   2.222   2.352   1.854
 9249TIP3   OH227623   8.226   3.048   5.369
 9249TIP3    H127624   8.290   3.061   5.439
 9249TIP3    H227625   8.213   2.953   5.366
 9250TIP3   OH227626   2.124   7.811   0.441
 9250TIP3    H127627   2.141   7.899   0.406
 9250TIP3    H227628   2.072   7.768   0.373
 9251TIP3   OH227629   2.443   4.194   5.730
 9251TIP3    H127630   2.479   4.165   5.646
 9251TIP3    H227631   2.359   4.234   5.707
 9252TIP3   OH227632   3.680   0.481   4.490
 9252TIP3    H127633   3.757   0.425   4.498
 9252TIP3    H227634   3.699   0.554   4.549
 9253TIP3   OH227635   7.803   6.516   4.682
 9253TIP3    H127636   7.715   6.519   4.719
 9253TIP3    H227637   7.801   6.444   4.619
 9254TIP3   OH227638   8.103   1.164   0.588
 9254TIP3    H127639   8.063   1.246   0.617
 9254TIP3    H227640   8.078   1.156   0.496
 9255TIP3   OH227641   3.705   0.572   7.366
 9255TIP3    H127642   3.758   0.493   7.382
 9255TIP3    H227643   3.714   0.589   7.273
 9256TIP3   OH227644   3.372   2.164   2.602
 9256TIP3    H127645   3.386   2.237   2.662
 9256TIP3    H227646   3.457   2.122   2.594
 9257TIP3   OH227647   7.487   6.288   3.020
 9257TIP3    H127648   7.396   6.260   3.012
 9257TIP3    H227649   7.482   6.381   3.042
 9258TIP3   OH227650   0.675   3.934   2.553
 9258TIP3    H127651   0.627   3.913   2.634
 9258TIP3    H227652   0.689   3.849   2.511
 9259TIP3   OH227653   1.142   7.337   4.797
 9259TIP3    H127654   1.172   7.249   4.819
 9259TIP3    H227655   1.048   7.336   4.815
 9260TIP3   OH227656   1.187   3.769   1.304
 9260TIP3    H127657   1.173   3.753   1.398
 9260TIP3    H227658   1.226   3.687   1.272
 9261TIP3   OH227659   7.622   6.945   6.752
 9261TIP3    H127660   7.630   6.959   6.658
 9261TIP3    H227661   7.581   7.025   6.785
 9262TIP3   OH227662   0.590   8.446   4.641
 9262TIP3    H127663   0.545   8.531   4.642
 9262TIP3    H227664   0.563   8.404   4.722
 9263TIP3   OH227665   0.271   3.275   6.526
 9263TIP3    H127666   0.358   3.269   6.488
 9263TIP3    H227667   0.256   3.368   6.539
 9264TIP3   OH227668   3.911   1.359   6.940
 9264TIP3    H127669   3.904   1.442   6.988
 9264TIP3    H227670   3.978   1.376   6.874
 9265TIP3   OH227671   9.060   3.152   4.466
 9265TIP3    H127672   9.079   3.129   4.375
 9265TIP3    H227673   9.088   3.076   4.516
 9266TIP3   OH227674   4.058   3.000   7.757
 9266TIP3    H127675   3.985   2.951   7.793
 9266TIP3    H227676   4.113   2.933   7.714
 9267TIP3   OH227677   6.357   7.361   0.009
 9267TIP3    H127678   6.420   7.392  -0.056
 9267TIP3    H227679   6.349   7.435   0.071
 9268TIP3   OH227680   5.798   6.354   4.778
 9268TIP3    H127681   5.829   6.441   4.805
 9268TIP3    H227682   5.820   6.349   4.685
 9269TIP3   OH227683   1.390   1.857   3.709
 9269TIP3    H127684   1.387   1.763   3.728
 9269TIP3    H227685   1.462   1.890   3.762
 9270TIP3   OH227686   2.789   7.849   3.267
 9270TIP3    H127687   2.810   7.756   3.263
 9270TIP3    H227688   2.705   7.856   3.222
 9271TIP3   OH227689   5.585   6.099   1.629
 9271TIP3    H127690   5.598   6.107   1.534
 9271TIP3    H227691   5.503   6.050   1.637
 9272TIP3   OH227692   6.117   6.888   0.328
 9272TIP3    H127693   6.053   6.817   0.333
 9272TIP3    H227694   6.196   6.848   0.292
 9273TIP3   OH227695   1.401   1.345   3.972
 9273TIP3    H127696   1.465   1.408   4.006
 9273TIP3    H227697   1.395   1.277   4.039
 9274TIP3   OH227698   6.303   4.959   7.391
 9274TIP3    H127699   6.357   5.001   7.458
 9274TIP3    H227700   6.305   4.866   7.414
 9275TIP3   OH227701   6.404   2.318   4.445
 9275TIP3    H127702   6.331   2.380   4.450
 9275TIP3    H227703   6.465   2.347   4.512
 9276TIP3   OH227704   5.115   4.119   1.019
 9276TIP3    H127705   5.040   4.065   0.994
 9276TIP3    H227706   5.128   4.178   0.944
 9277TIP3   OH227707   8.850   7.482   1.873
 9277TIP3    H127708   8.841   7.514   1.962
 9277TIP3    H227709   8.800   7.544   1.819
 9278TIP3   OH227710   1.779   1.784   2.896
 9278TIP3    H127711   1.791   1.699   2.855
 9278TIP3    H227712   1.747   1.764   2.984
 9279TIP3   OH227713   5.651   5.803   7.504
 9279TIP3    H127714   5.737   5.828   7.472
 9279TIP3    H227715   5.655   5.707   7.512
 9280TIP3   OH227716   2.303   8.045   0.370
 9280TIP3    H127717   2.333   7.986   0.301
 9280TIP3    H227718   2.305   8.132   0.330
 9281TIP3   OH227719   6.538   7.476   4.920
 9281TIP3    H127720   6.497   7.513   4.998
 9281TIP3    H227721   6.593   7.405   4.952
 9282TIP3   OH227722   7.733   3.341   5.414
 9282TIP3    H127723   7.771   3.323   5.328
 9282TIP3    H227724   7.806   3.331   5.475
 9283TIP3   OH227725   0.219   1.283   3.499
 9283TIP3    H127726   0.205   1.296   3.593
 9283TIP3    H227727   0.174   1.355   3.457
 9284TIP3   OH227728   0.432   2.247   1.568
 9284TIP3    H127729   0.451   2.204   1.651
 9284TIP3    H227730   0.415   2.175   1.507
 9285TIP3   OH227731   9.291   4.681   0.797
 9285TIP3    H127732   9.358   4.747   0.818
 9285TIP3    H227733   9.222   4.731   0.754
 9286TIP3   OH227734   9.442   0.141   4.733
 9286TIP3    H127735   9.407   0.204   4.796
 9286TIP3    H227736   9.380   0.143   4.660
 9287TIP3   OH227737   0.253   3.784   3.818
 9287TIP3    H127738   0.318   3.806   3.752
 9287TIP3    H227739   0.209   3.867   3.836
 9288TIP3   OH227740   1.393   5.329   7.489
 9288TIP3    H127741   1.478   5.371   7.501
 9288TIP3    H227742   1.384   5.320   7.394
 9289TIP3   OH227743   9.418   7.497   7.733
 9289TIP3    H127744   9.325   7.512   7.753
 9289TIP3    H227745   9.418   7.470   7.641
 9290TIP3   OH227746   8.000   6.689   4.082
 9290TIP3    H127747   8.093   6.707   4.066
 9290TIP3    H227748   7.965   6.773   4.111
 9291TIP3   OH227749   1.282   4.038   0.626
 9291TIP3    H127750   1.263   4.030   0.720
 9291TIP3    H227751   1.205   4.081   0.590
 9292TIP3   OH227752   4.085   8.981   6.159
 9292TIP3    H127753   4.101   8.903   6.214
 9292TIP3    H227754   4.170   9.024   6.154
 9293TIP3   OH227755   5.210   1.638   4.022
 9293TIP3    H127756   5.280   1.574   4.010
 9293TIP3    H227757   5.143   1.592   4.073
 9294TIP3   OH227758   8.818   0.845   5.794
 9294TIP3    H127759   8.782   0.885   5.715
 9294TIP3    H227760   8.870   0.772   5.761
 9295TIP3   OH227761   4.239   4.742   2.865
 9295TIP3    H127762   4.262   4.782   2.949
 9295TIP3    H227763   4.321   4.743   2.814
 9296TIP3   OH227764   5.058   7.982   5.636
 9296TIP3    H127765   5.023   8.010   5.721
 9296TIP3    H227766   4.983   7.989   5.577
 9297TIP3   OH227767   4.417   3.375   0.978
 9297TIP3    H127768   4.365   3.359   1.056
 9297TIP3    H227769   4.427   3.289   0.937
 9298TIP3   OH227770   7.011   4.969   3.502
 9298TIP3    H127771   7.030   4.882   3.467
 9298TIP3    H227772   7.030   5.028   3.429
 9299TIP3   OH227773   0.731   0.204   5.218
 9299TIP3    H127774   0.735   0.256   5.298
 9299TIP3    H227775   0.770   0.261   5.151
 9300TIP3   OH227776   0.645   5.057   4.099
 9300TIP3    H127777   0.599   4.979   4.067
 9300TIP3    H227778   0.672   5.034   4.188
 9301TIP3   OH227779   4.491   6.789   5.368
 9301TIP3    H127780   4.397   6.801   5.376
 9301TIP3    H227781   4.510   6.707   5.413
 9302TIP3   OH227782   7.767   7.654   2.220
 9302TIP3    H127783   7.689   7.705   2.243
 9302TIP3    H227784   7.840   7.713   2.234
 9303TIP3   OH227785   6.097   7.069   5.260
 9303TIP3    H127786   6.109   6.976   5.242
 9303TIP3    H227787   6.035   7.073   5.332
 9304TIP3   OH227788   4.490   0.493   4.674
 9304TIP3    H127789   4.483   0.399   4.657
 9304TIP3    H227790   4.510   0.499   4.767
 9305TIP3   OH227791   1.561   2.720   2.807
 9305TIP3    H127792   1.566   2.668   2.887
 9305TIP3    H227793   1.516   2.801   2.833
 9306TIP3   OH227794   1.034   1.546   3.880
 9306TIP3    H127795   1.008   1.613   3.817
 9306TIP3    H227796   0.987   1.569   3.960
 9307TIP3   OH227797   2.720   7.495   4.720
 9307TIP3    H127798   2.647   7.539   4.675
 9307TIP3    H227799   2.758   7.563   4.776
 9308TIP3   OH227800   5.818   3.678   2.612
 9308TIP3    H127801   5.766   3.638   2.681
 9308TIP3    H227802   5.897   3.708   2.656
 9309TIP3   OH227803   5.362   2.890   3.885
 9309TIP3    H127804   5.441   2.938   3.912
 9309TIP3    H227805   5.314   2.953   3.831
 9310TIP3   OH227806   2.836   8.709   7.474
 9310TIP3    H127807   2.902   8.762   7.517
 9310TIP3    H227808   2.883   8.662   7.405
 9311TIP3   OH227809   7.345   8.824   7.765
 9311TIP3    H127810   7.431   8.815   7.805
 9311TIP3    H227811   7.307   8.736   7.767
 9312TIP3   OH227812   0.316   5.688   0.835
 9312TIP3    H127813   0.220   5.691   0.824
 9312TIP3    H227814   0.329   5.637   0.915
 9313TIP3   OH227815   8.375   2.798   4.480
 9313TIP3    H127816   8.464   2.763   4.478
 9313TIP3    H227817   8.370   2.856   4.404
 9314TIP3   OH227818   1.524   8.091   3.556
 9314TIP3    H127819   1.537   8.149   3.481
 9314TIP3    H227820   1.559   8.139   3.630
 9315TIP3   OH227821   0.544   8.069   2.179
 9315TIP3    H127822   0.621   8.125   2.186
 9315TIP3    H227823   0.476   8.127   2.143
 9316TIP3   OH227824   8.803   1.034   2.983
 9316TIP3    H127825   8.882   1.016   3.035
 9316TIP3    H227826   8.735   0.982   3.026
 9317TIP3   OH227827   1.883   1.517   5.350
 9317TIP3    H127828   1.912   1.607   5.362
 9317TIP3    H227829   1.964   1.469   5.329
 9318TIP3   OH227830   1.669   0.497   0.267
 9318TIP3    H127831   1.694   0.589   0.263
 9318TIP3    H227832   1.673   0.467   0.176
 9319TIP3   OH227833   2.023   1.553   7.785
 9319TIP3    H127834   1.932   1.579   7.777
 9319TIP3    H227835   2.070   1.609   7.724
 9320TIP3   OH227836   6.510   7.951   3.873
 9320TIP3    H127837   6.426   7.939   3.829
 9320TIP3    H227838   6.571   7.974   3.802
 9321TIP3   OH227839   7.690   5.724   1.563
 9321TIP3    H127840   7.603   5.744   1.527
 9321TIP3    H227841   7.692   5.628   1.569
 9322TIP3   OH227842   0.840   1.277   3.583
 9322TIP3    H127843   0.830   1.286   3.677
 9322TIP3    H227844   0.812   1.187   3.564
 9323TIP3   OH227845   4.138   5.064   1.252
 9323TIP3    H127846   4.091   5.137   1.212
 9323TIP3    H227847   4.086   4.987   1.228
 9324TIP3   OH227848   1.503   2.751   1.901
 9324TIP3    H127849   1.466   2.665   1.882
 9324TIP3    H227850   1.550   2.740   1.983
 9325TIP3   OH227851   2.657   2.823   7.249
 9325TIP3    H127852   2.692   2.904   7.211
 9325TIP3    H227853   2.565   2.844   7.269
 9326TIP3   OH227854   4.899   5.273   7.642
 9326TIP3    H127855   4.940   5.226   7.570
 9326TIP3    H227856   4.843   5.338   7.600
 9327TIP3   OH227857   4.341   7.570   1.065
 9327TIP3    H127858   4.255   7.556   1.106
 9327TIP3    H227859   4.401   7.515   1.115
 9328TIP3   OH227860   7.454   2.276   3.008
 9328TIP3    H127861   7.471   2.245   3.097
 9328TIP3    H227862   7.451   2.197   2.955
 9329TIP3   OH227863   1.513   7.794   3.586
 9329TIP3    H127864   1.562   7.742   3.650
 9329TIP3    H227865   1.489   7.874   3.634
 9330TIP3   OH227866   7.039   5.296   0.691
 9330TIP3    H127867   6.998   5.373   0.652
 9330TIP3    H227868   7.121   5.285   0.642
 9331TIP3   OH227869   0.062   3.482   2.119
 9331TIP3    H127870   0.036   3.447   2.204
 9331TIP3    H227871   0.093   3.406   2.070
 9332TIP3   OH227872   0.225   6.503   0.933
 9332TIP3    H127873   0.233   6.553   1.014
 9332TIP3    H227874   0.134   6.471   0.933
 9333TIP3   OH227875   6.084   0.379   0.499
 9333TIP3    H127876   6.139   0.301   0.485
 9333TIP3    H227877   6.113   0.441   0.433
 9334TIP3   OH227878   4.138   3.087   3.249
 9334TIP3    H127879   4.067   3.145   3.275
 9334TIP3    H227880   4.119   3.065   3.158
 9335TIP3   OH227881   0.987   8.933   2.099
 9335TIP3    H127882   1.071   8.970   2.124
 9335TIP3    H227883   0.934   8.937   2.178
 9336TIP3   OH227884   6.612   4.778   7.499
 9336TIP3    H127885   6.539   4.733   7.456
 9336TIP3    H227886   6.570   4.850   7.546
 9337TIP3   OH227887   0.041   7.396   0.137
 9337TIP3    H127888   0.047   7.480   0.182
 9337TIP3    H227889  -0.051   7.370   0.145
 9338TIP3   OH227890   7.023   8.160   6.744
 9338TIP3    H127891   6.935   8.194   6.758
 9338TIP3    H227892   7.011   8.067   6.728
 9339TIP3   OH227893   4.158   2.533   2.001
 9339TIP3    H127894   4.199   2.611   1.964
 9339TIP3    H227895   4.123   2.562   2.085
 9340TIP3   OH227896   3.951   6.463   2.873
 9340TIP3    H127897   3.940   6.388   2.931
 9340TIP3    H227898   3.863   6.481   2.841
 9341TIP3   OH227899   2.080   3.099   6.822
 9341TIP3    H127900   2.104   3.098   6.914
 9341TIP3    H227901   2.010   3.164   6.816
 9342TIP3   OH227902   0.191   4.422   1.141
 9342TIP3    H127903   0.153   4.423   1.229
 9342TIP3    H227904   0.120   4.393   1.084
 9343TIP3   OH227905   1.357   2.909   7.403
 9343TIP3    H127906   1.326   2.990   7.362
 9343TIP3    H227907   1.291   2.844   7.380
 9344TIP3   OH227908   4.326   8.694   4.877
 9344TIP3    H127909   4.256   8.659   4.823
 9344TIP3    H227910   4.368   8.761   4.823
 9345TIP3   OH227911   6.615   5.622   2.635
 9345TIP3    H127912   6.637   5.547   2.690
 9345TIP3    H227913   6.617   5.697   2.693
 9346TIP3   OH227914   3.773   2.209   5.544
 9346TIP3    H127915   3.790   2.303   5.534
 9346TIP3    H227916   3.804   2.188   5.632
 9347TIP3   OH227917   2.129   0.742   2.670
 9347TIP3    H127918   2.127   0.686   2.748
 9347TIP3    H227919   2.208   0.716   2.624
 9348TIP3   OH227920   2.498   8.331   3.005
 9348TIP3    H127921   2.585   8.289   3.011
 9348TIP3    H227922   2.437   8.257   3.005
 9349TIP3   OH227923   6.399   4.391   4.680
 9349TIP3    H127924   6.465   4.362   4.743
 9349TIP3    H227925   6.332   4.434   4.734
 9350TIP3   OH227926   2.794   7.258   0.038
 9350TIP3    H127927   2.860   7.327   0.040
 9350TIP3    H227928   2.844   7.176   0.043
 9351TIP3   OH227929   1.610   1.075   6.020
 9351TIP3    H127930   1.659   1.098   6.098
 9351TIP3    H227931   1.607   1.155   5.968
 9352TIP3   OH227932   1.180   6.021   5.171
 9352TIP3    H127933   1.181   6.010   5.266
 9352TIP3    H227934   1.264   6.064   5.151
 9353TIP3   OH227935   8.726   8.285   7.038
 9353TIP3    H127936   8.693   8.256   7.123
 9353TIP3    H227937   8.800   8.228   7.021
 9354TIP3   OH227938   0.436   6.922   2.716
 9354TIP3    H127939   0.494   6.995   2.695
 9354TIP3    H227940   0.377   6.916   2.641
 9355TIP3   OH227941   4.384   6.068   3.263
 9355TIP3    H127942   4.330   6.141   3.232
 9355TIP3    H227943   4.321   6.001   3.289
 9356TIP3   OH227944   6.141   6.047   1.946
 9356TIP3    H127945   6.048   6.068   1.931
 9356TIP3    H227946   6.140   5.959   1.982
 9357TIP3   OH227947   1.340   5.386   3.362
 9357TIP3    H127948   1.435   5.392   3.351
 9357TIP3    H227949   1.328   5.325   3.435
 9358TIP3   OH227950   6.417   0.645   6.593
 9358TIP3    H127951   6.469   0.651   6.513
 9358TIP3    H227952   6.411   0.551   6.611
 9359TIP3   OH227953   2.486   3.790   6.775
 9359TIP3    H127954   2.466   3.827   6.689
 9359TIP3    H227955   2.495   3.866   6.832
 9360TIP3   OH227956   2.257   6.932   1.296
 9360TIP3    H127957   2.291   6.960   1.210
 9360TIP3    H227958   2.333   6.935   1.354
 9361TIP3   OH227959   2.396   8.752   6.099
 9361TIP3    H127960   2.329   8.692   6.067
 9361TIP3    H227961   2.476   8.726   6.053
 9362TIP3   OH227962   8.232   0.756   5.753
 9362TIP3    H127963   8.205   0.751   5.845
 9362TIP3    H227964   8.176   0.823   5.715
 9363TIP3   OH227965   0.141   3.810   3.350
 9363TIP3    H127966   0.101   3.738   3.398
 9363TIP3    H227967   0.182   3.864   3.417
 9364TIP3   OH227968   3.691   4.468   4.788
 9364TIP3    H127969   3.773   4.440   4.829
 9364TIP3    H227970   3.625   4.409   4.825
 9365TIP3   OH227971   0.727   1.624   0.071
 9365TIP3    H127972   0.743   1.587  -0.016
 9365TIP3    H227973   0.705   1.549   0.126
 9366TIP3   OH227974   6.639   5.464   7.434
 9366TIP3    H127975   6.587   5.519   7.492
 9366TIP3    H227976   6.577   5.433   7.368
 9367TIP3   OH227977   8.426   7.370   4.684
 9367TIP3    H127978   8.452   7.312   4.613
 9367TIP3    H227979   8.372   7.437   4.642
 9368TIP3   OH227980   0.246   4.669   1.014
 9368TIP3    H127981   0.234   4.601   1.080
 9368TIP3    H227982   0.170   4.725   1.023
 9369TIP3   OH227983   5.756   2.503   2.461
 9369TIP3    H127984   5.811   2.541   2.393
 9369TIP3    H227985   5.678   2.559   2.463
 9370TIP3   OH227986   0.927   4.607   0.664
 9370TIP3    H127987   0.943   4.696   0.694
 9370TIP3    H227988   0.972   4.552   0.728
 9371TIP3   OH227989   1.566   0.196   4.134
 9371TIP3    H127990   1.521   0.274   4.101
 9371TIP3    H227991   1.499   0.127   4.133
 9372TIP3   OH227992   7.007   8.661   0.905
 9372TIP3    H127993   7.012   8.584   0.848
 9372TIP3    H227994   7.085   8.654   0.961
 9373TIP3   OH227995   9.132   2.609   5.873
 9373TIP3    H127996   9.060   2.612   5.936
 9373TIP3    H227997   9.142   2.700   5.844
 9374TIP3   OH227998   8.697   6.342   5.660
 9374TIP3    H127999   8.637   6.272   5.685
 9374TIP3    H228000   8.647   6.396   5.600
 9375TIP3   OH228001   0.304   2.051   5.464
 9375TIP3    H128002   0.319   1.982   5.528
 9375TIP3    H228003   0.391   2.083   5.442
 9376TIP3   OH228004   1.774   3.092   5.882
 9376TIP3    H128005   1.869   3.081   5.870
 9376TIP3    H228006   1.764   3.109   5.976
 9377TIP3   OH228007   8.604   5.001   2.432
 9377TIP3    H128008   8.565   4.962   2.510
 9377TIP3    H228009   8.570   4.949   2.359
 9378TIP3   OH228010   3.166   6.598   5.221
 9378TIP3    H128011   3.241   6.635   5.175
 9378TIP3    H228012   3.186   6.612   5.314
 9379TIP3   OH228013   0.378   5.280   3.688
 9379TIP3    H128014   0.362   5.234   3.770
 9379TIP3    H228015   0.291   5.290   3.649
 9380TIP3   OH228016   2.877   2.833   6.668
 9380TIP3    H128017   2.878   2.861   6.759
 9380TIP3    H228018   2.831   2.903   6.622
 9381TIP3   OH228019   9.490   8.786   7.090
 9381TIP3    H128020   9.567   8.843   7.082
 9381TIP3    H228021   9.446   8.817   7.169
 9382TIP3   OH228022   2.364   5.324   4.811
 9382TIP3    H128023   2.436   5.362   4.860
 9382TIP3    H228024   2.300   5.395   4.803
 9383TIP3   OH228025   4.321   0.908   1.742
 9383TIP3    H128026   4.337   0.981   1.803
 9383TIP3    H228027   4.386   0.920   1.673
 9384TIP3   OH228028   6.990   7.197   3.109
 9384TIP3    H128029   6.958   7.164   3.025
 9384TIP3    H228030   6.919   7.254   3.141
 9385TIP3   OH228031   8.398   3.967   6.439
 9385TIP3    H128032   8.466   3.960   6.372
 9385TIP3    H228033   8.382   3.877   6.467
 9386TIP3   OH228034   8.373   5.227   6.370
 9386TIP3    H128035   8.401   5.276   6.447
 9386TIP3    H228036   8.279   5.246   6.362
 9387TIP3   OH228037   7.419   2.570   2.992
 9387TIP3    H128038   7.406   2.589   3.085
 9387TIP3    H228039   7.418   2.475   2.986
 9388TIP3   OH228040   0.062   8.273   4.010
 9388TIP3    H128041  -0.008   8.297   3.950
 9388TIP3    H228042   0.100   8.194   3.972
 9389TIP3   OH228043   2.526   6.088   2.649
 9389TIP3    H128044   2.516   5.997   2.675
 9389TIP3    H228045   2.473   6.137   2.712
 9390TIP3   OH228046   2.823   4.105   4.313
 9390TIP3    H128047   2.757   4.149   4.260
 9390TIP3    H228048   2.782   4.022   4.337
 9391TIP3   OH228049   6.723   4.901   2.826
 9391TIP3    H128050   6.789   4.967   2.802
 9391TIP3    H228051   6.661   4.949   2.880
 9392TIP3   OH228052   0.876   6.828   7.260
 9392TIP3    H128053   0.934   6.893   7.220
 9392TIP3    H228054   0.931   6.785   7.326
 9393TIP3   OH228055   0.699   3.689   2.446
 9393TIP3    H128056   0.664   3.646   2.368
 9393TIP3    H228057   0.642   3.659   2.518
 9394TIP3   OH228058   8.319   3.379   6.044
 9394TIP3    H128059   8.360   3.435   5.979
 9394TIP3    H228060   8.256   3.326   5.994
 9395TIP3   OH228061   9.089   4.557   3.441
 9395TIP3    H128062   9.162   4.507   3.407
 9395TIP3    H228063   9.027   4.563   3.368
 9396TIP3   OH228064   8.313   5.828   6.022
 9396TIP3    H128065   8.251   5.868   5.960
 9396TIP3    H228066   8.371   5.900   6.047
 9397TIP3   OH228067   3.539   7.714   4.758
 9397TIP3    H128068   3.596   7.773   4.709
 9397TIP3    H228069   3.466   7.769   4.787
 9398TIP3   OH228070   0.939   5.166   4.563
 9398TIP3    H128071   0.911   5.119   4.642
 9398TIP3    H228072   0.863   5.220   4.540
 9399TIP3   OH228073   3.311   0.935   0.920
 9399TIP3    H128074   3.299   0.901   1.009
 9399TIP3    H228075   3.235   0.992   0.906
 9400TIP3   OH228076   5.522   8.174   3.734
 9400TIP3    H128077   5.573   8.216   3.803
 9400TIP3    H228078   5.568   8.196   3.653
 9401TIP3   OH228079   5.936   7.903   5.058
 9401TIP3    H128080   5.889   7.971   5.010
 9401TIP3    H228081   5.978   7.948   5.131
 9402TIP3   OH228082   2.673   7.176   3.448
 9402TIP3    H128083   2.732   7.223   3.508
 9402TIP3    H228084   2.605   7.140   3.505
 9403TIP3   OH228085   7.189   5.930   2.135
 9403TIP3    H128086   7.280   5.914   2.111
 9403TIP3    H228087   7.185   6.023   2.154
 9404TIP3   OH228088   7.157   3.601   7.397
 9404TIP3    H128089   7.141   3.663   7.326
 9404TIP3    H228090   7.110   3.521   7.370
 9405TIP3   OH228091   8.442   7.033   6.221
 9405TIP3    H128092   8.418   6.956   6.273
 9405TIP3    H228093   8.359   7.080   6.209
 9406TIP3   OH228094   0.580   4.947   6.308
 9406TIP3    H128095   0.501   4.898   6.332
 9406TIP3    H228096   0.637   4.939   6.383
 9407TIP3   OH228097   1.490   6.777   3.776
 9407TIP3    H128098   1.413   6.766   3.720
 9407TIP3    H228099   1.563   6.787   3.715
 9408TIP3   OH228100   4.582   3.231   5.590
 9408TIP3    H128101   4.574   3.159   5.653
 9408TIP3    H228102   4.619   3.191   5.512
 9409TIP3   OH228103   9.547   4.793   1.053
 9409TIP3    H128104   9.484   4.721   1.050
 9409TIP3    H228105   9.549   4.820   1.145
 9410TIP3   OH228106   8.673   8.914   2.394
 9410TIP3    H128107   8.691   8.822   2.371
 9410TIP3    H228108   8.582   8.928   2.367
 9411TIP3   OH228109   5.971   7.215   6.167
 9411TIP3    H128110   5.973   7.266   6.248
 9411TIP3    H228111   5.946   7.127   6.195
 9412TIP3   OH228112   4.311   4.900   7.634
 9412TIP3    H128113   4.343   4.928   7.720
 9412TIP3    H228114   4.385   4.917   7.575
 9413TIP3   OH228115   0.454   1.676   2.845
 9413TIP3    H128116   0.396   1.603   2.865
 9413TIP3    H228117   0.395   1.748   2.822
 9414TIP3   OH228118   9.468   0.977   6.810
 9414TIP3    H128119   9.548   0.924   6.814
 9414TIP3    H228120   9.406   0.931   6.866
 9415TIP3   OH228121   3.792   3.187   7.028
 9415TIP3    H128122   3.759   3.184   7.118
 9415TIP3    H228123   3.869   3.244   7.033
 9416TIP3   OH228124   2.877   6.431   6.252
 9416TIP3    H128125   2.858   6.343   6.283
 9416TIP3    H228126   2.809   6.450   6.188
 9417TIP3   OH228127   1.593   0.011   3.203
 9417TIP3    H128128   1.531   0.083   3.193
 9417TIP3    H228129   1.544  -0.066   3.175
 9418TIP3   OH228130   3.072   5.427   5.274
 9418TIP3    H128131   2.992   5.375   5.271
 9418TIP3    H228132   3.049   5.503   5.328
 9419TIP3   OH228133   9.301   0.011   2.202
 9419TIP3    H128134   9.365  -0.029   2.142
 9419TIP3    H228135   9.354   0.050   2.271
 9420TIP3   OH228136   9.283   0.107   6.490
 9420TIP3    H128137   9.238   0.030   6.456
 9420TIP3    H228138   9.273   0.173   6.422
 9421TIP3   OH228139   4.871   3.314   0.567
 9421TIP3    H128140   4.935   3.253   0.529
 9421TIP3    H228141   4.866   3.386   0.504
 9422TIP3   OH228142   8.106   2.375   6.641
 9422TIP3    H128143   8.021   2.334   6.627
 9422TIP3    H228144   8.147   2.376   6.554
 9423TIP3   OH228145   9.389   1.804   3.424
 9423TIP3    H128146   9.413   1.863   3.352
 9423TIP3    H228147   9.325   1.744   3.385
 9424TIP3   OH228148   3.381   1.002   5.333
 9424TIP3    H128149   3.431   1.072   5.374
 9424TIP3    H228150   3.422   0.921   5.364
 9425TIP3   OH228151   1.627   6.611   6.414
 9425TIP3    H128152   1.659   6.665   6.342
 9425TIP3    H228153   1.569   6.547   6.373
 9426TIP3   OH228154   1.336   7.807   1.411
 9426TIP3    H128155   1.301   7.800   1.500
 9426TIP3    H228156   1.313   7.723   1.370
 9427TIP3   OH228157   6.184   0.065   2.793
 9427TIP3    H128158   6.166   0.009   2.868
 9427TIP3    H228159   6.202   0.004   2.721
 9428TIP3   OH228160   2.050   6.013   1.720
 9428TIP3    H128161   2.006   6.087   1.763
 9428TIP3    H228162   2.143   6.026   1.739
 9429TIP3   OH228163   2.018   5.623   3.090
 9429TIP3    H128164   2.058   5.710   3.092
 9429TIP3    H228165   1.971   5.620   3.007
 9430TIP3   OH228166   6.857   8.524   0.281
 9430TIP3    H128167   6.808   8.486   0.354
 9430TIP3    H228168   6.792   8.569   0.228
 9431TIP3   OH228169   9.017   4.858   1.297
 9431TIP3    H128170   9.069   4.789   1.339
 9431TIP3    H228171   9.041   4.852   1.204
 9432TIP3   OH228172   4.109   6.008   1.075
 9432TIP3    H128173   4.040   6.063   1.111
 9432TIP3    H228174   4.106   6.026   0.981
 9433TIP3   OH228175   0.474   0.013   4.873
 9433TIP3    H128176   0.484   0.107   4.861
 9433TIP3    H228177   0.381   0.000   4.893
 9434TIP3   OH228178   0.742   8.642   0.684
 9434TIP3    H128179   0.700   8.710   0.736
 9434TIP3    H228180   0.747   8.567   0.742
 9435TIP3   OH228181   1.528   4.939   6.999
 9435TIP3    H128182   1.447   4.982   7.024
 9435TIP3    H228183   1.568   4.912   7.082
 9436TIP3   OH228184   3.333   3.958   7.133
 9436TIP3    H128185   3.416   3.911   7.122
 9436TIP3    H228186   3.352   4.024   7.200
 9437TIP3   OH228187   3.193   8.190   7.239
 9437TIP3    H128188   3.262   8.194   7.305
 9437TIP3    H228189   3.137   8.266   7.258
 9438TIP3   OH228190   2.814   7.207   0.511
 9438TIP3    H128191   2.909   7.203   0.508
 9438TIP3    H228192   2.788   7.230   0.421
 9439TIP3   OH228193   2.173   4.349   0.751
 9439TIP3    H128194   2.148   4.312   0.835
 9439TIP3    H228195   2.094   4.393   0.719
 9440TIP3   OH228196   6.854   1.969   1.833
 9440TIP3    H128197   6.935   1.959   1.883
 9440TIP3    H228198   6.878   1.941   1.744
 9441TIP3   OH228199   6.056   2.319   3.196
 9441TIP3    H128200   6.075   2.229   3.222
 9441TIP3    H228201   6.035   2.313   3.103
 9442TIP3   OH228202   4.816   1.446   2.239
 9442TIP3    H128203   4.792   1.534   2.212
 9442TIP3    H228204   4.892   1.457   2.296
 9443TIP3   OH228205   5.266   4.451   1.019
 9443TIP3    H128206   5.327   4.522   0.998
 9443TIP3    H228207   5.314   4.396   1.081
 9444TIP3   OH228208   4.107   7.744   4.700
 9444TIP3    H128209   4.193   7.745   4.658
 9444TIP3    H228210   4.125   7.768   4.791
 9445TIP3   OH228211   4.161   2.064   2.349
 9445TIP3    H128212   4.109   1.993   2.386
 9445TIP3    H228213   4.239   2.021   2.313
 9446TIP3   OH228214   0.588   9.002   1.911
 9446TIP3    H128215   0.561   8.956   1.832
 9446TIP3    H228216   0.670   8.959   1.938
 9447TIP3   OH228217   3.825   2.946   6.664
 9447TIP3    H128218   3.918   2.968   6.657
 9447TIP3    H228219   3.818   2.857   6.630
 9448TIP3   OH228220   9.175   3.052   1.281
 9448TIP3    H128221   9.220   3.133   1.300
 9448TIP3    H228222   9.090   3.060   1.326
 9449TIP3   OH228223   4.394   7.820   3.462
 9449TIP3    H128224   4.353   7.851   3.381
 9449TIP3    H228225   4.485   7.848   3.455
 9450TIP3   OH228226   2.285   8.324   0.836
 9450TIP3    H128227   2.356   8.363   0.785
 9450TIP3    H228228   2.237   8.399   0.871
 9451TIP3   OH228229   6.194   8.863   5.400
 9451TIP3    H128230   6.131   8.792   5.388
 9451TIP3    H228231   6.266   8.842   5.339
 9452TIP3   OH228232   9.320   1.763   5.941
 9452TIP3    H128233   9.365   1.847   5.940
 9452TIP3    H228234   9.332   1.727   5.853
 9453TIP3   OH228235   4.483   0.466   1.265
 9453TIP3    H128236   4.505   0.496   1.177
 9453TIP3    H228237   4.560   0.417   1.294
 9454TIP3   OH228238   2.668   3.742   2.252
 9454TIP3    H128239   2.573   3.736   2.251
 9454TIP3    H228240   2.688   3.809   2.317
 9455TIP3   OH228241   1.479   8.804   4.670
 9455TIP3    H128242   1.506   8.843   4.587
 9455TIP3    H228243   1.469   8.878   4.729
 9456TIP3   OH228244   1.428   3.235   3.686
 9456TIP3    H128245   1.494   3.230   3.618
 9456TIP3    H228246   1.410   3.328   3.696
 9457TIP3   OH228247   8.040   1.097   1.128
 9457TIP3    H128248   7.959   1.060   1.095
 9457TIP3    H228249   8.038   1.078   1.222
 9458TIP3   OH228250   5.981   7.993   4.520
 9458TIP3    H128251   5.970   8.065   4.582
 9458TIP3    H228252   5.930   7.921   4.557
 9459TIP3   OH228253   2.148   0.550   0.117
 9459TIP3    H128254   2.070   0.495   0.106
 9459TIP3    H228255   2.221   0.494   0.089
 9460TIP3   OH228256   5.036   2.717   0.445
 9460TIP3    H128257   5.091   2.640   0.457
 9460TIP3    H228258   5.038   2.733   0.350
 9461TIP3   OH228259   6.853   0.212   2.184
 9461TIP3    H128260   6.818   0.143   2.241
 9461TIP3    H228261   6.897   0.165   2.114
 9462TIP3   OH228262   6.083   9.003   1.764
 9462TIP3    H128263   6.077   8.923   1.816
 9462TIP3    H228264   5.994   9.037   1.762
 9463TIP3   OH228265   9.444   5.121   1.999
 9463TIP3    H128266   9.441   5.206   2.042
 9463TIP3    H228267   9.386   5.066   2.052
 9464TIP3   OH228268   5.934   1.681   5.779
 9464TIP3    H128269   6.029   1.671   5.766
 9464TIP3    H228270   5.926   1.758   5.835
 9465TIP3   OH228271   0.637   3.229   2.432
 9465TIP3    H128272   0.596   3.279   2.502
 9465TIP3    H228273   0.615   3.138   2.451
 9466TIP3   OH228274   2.020   1.924   2.876
 9466TIP3    H128275   2.044   1.881   2.958
 9466TIP3    H228276   1.930   1.897   2.860
 9467TIP3   OH228277   8.788   3.815   1.613
 9467TIP3    H128278   8.840   3.830   1.692
 9467TIP3    H228279   8.713   3.874   1.621
 9468TIP3   OH228280   1.694   4.223   2.519
 9468TIP3    H128281   1.682   4.314   2.547
 9468TIP3    H228282   1.672   4.172   2.597
 9469TIP3   OH228283   1.411   8.465   0.196
 9469TIP3    H128284   1.450   8.455   0.283
 9469TIP3    H228285   1.325   8.501   0.212
 9470TIP3   OH228286   9.532   6.091   2.966
 9470TIP3    H128287   9.590   6.139   3.025
 9470TIP3    H228288   9.539   6.138   2.882
 9471TIP3   OH228289   7.208   0.161   2.144
 9471TIP3    H128290   7.198   0.246   2.102
 9471TIP3    H228291   7.153   0.102   2.093
 9472TIP3   OH228292   4.572   2.740   4.056
 9472TIP3    H128293   4.637   2.690   4.105
 9472TIP3    H228294   4.493   2.735   4.110
 9473TIP3   OH228295   3.163   4.879   1.765
 9473TIP3    H128296   3.151   4.828   1.685
 9473TIP3    H228297   3.092   4.851   1.822
 9474TIP3   OH228298   2.260   6.308   5.562
 9474TIP3    H128299   2.273   6.351   5.477
 9474TIP3    H228300   2.339   6.255   5.575
 9475TIP3   OH228301   2.877   3.865   0.123
 9475TIP3    H128302   2.813   3.817   0.070
 9475TIP3    H228303   2.833   3.946   0.146
 9476TIP3   OH228304   3.287   7.289   4.787
 9476TIP3    H128305   3.353   7.324   4.727
 9476TIP3    H228306   3.236   7.228   4.734
 9477TIP3   OH228307   7.477   1.582   5.050
 9477TIP3    H128308   7.511   1.493   5.041
 9477TIP3    H228309   7.382   1.571   5.050
 9478TIP3   OH228310   2.825   0.687   1.186
 9478TIP3    H128311   2.846   0.593   1.185
 9478TIP3    H228312   2.729   0.690   1.185
 9479TIP3   OH228313   6.508   0.252   5.520
 9479TIP3    H128314   6.471   0.188   5.580
 9479TIP3    H228315   6.485   0.220   5.433
 9480TIP3   OH228316   7.992   1.877   0.873
 9480TIP3    H128317   7.926   1.829   0.924
 9480TIP3    H228318   7.989   1.838   0.786
 9481TIP3   OH228319   0.491   1.668   6.955
 9481TIP3    H128320   0.489   1.763   6.969
 9481TIP3    H228321   0.406   1.637   6.985
 9482TIP3   OH228322   4.876   1.565   0.947
 9482TIP3    H128323   4.955   1.536   0.900
 9482TIP3    H228324   4.889   1.534   1.036
 9483TIP3   OH228325   2.350   6.631   0.630
 9483TIP3    H128326   2.348   6.674   0.715
 9483TIP3    H228327   2.432   6.659   0.590
 9484TIP3   OH228328   8.560   5.808   3.053
 9484TIP3    H128329   8.473   5.845   3.068
 9484TIP3    H228330   8.572   5.813   2.958
 9485TIP3   OH228331   4.270   8.714   2.010
 9485TIP3    H128332   4.363   8.722   1.987
 9485TIP3    H228333   4.229   8.681   1.931
 9486TIP3   OH228334   9.482   8.428   4.301
 9486TIP3    H128335   9.551   8.475   4.256
 9486TIP3    H228336   9.432   8.385   4.230
 9487TIP3   OH228337   4.294   5.589   7.370
 9487TIP3    H128338   4.225   5.523   7.370
 9487TIP3    H228339   4.249   5.671   7.348
 9488TIP3   OH228340   3.063   0.404   4.261
 9488TIP3    H128341   3.089   0.329   4.315
 9488TIP3    H228342   3.131   0.469   4.275
 9489TIP3   OH228343   7.217   1.143   2.242
 9489TIP3    H128344   7.154   1.199   2.197
 9489TIP3    H228345   7.229   1.069   2.183
 9490TIP3   OH228346   1.737   4.630   6.351
 9490TIP3    H128347   1.801   4.564   6.326
 9490TIP3    H228348   1.789   4.698   6.396
 9491TIP3   OH228349   3.273   5.441   5.097
 9491TIP3    H128350   3.351   5.469   5.146
 9491TIP3    H228351   3.201   5.453   5.158
 9492TIP3   OH228352   4.823   0.087   4.005
 9492TIP3    H128353   4.911   0.123   3.993
 9492TIP3    H228354   4.833  -0.007   3.993
 9493TIP3   OH228355   0.385   7.643   0.758
 9493TIP3    H128356   0.392   7.580   0.830
 9493TIP3    H228357   0.360   7.725   0.800
 9494TIP3   OH228358   1.137   0.040   0.314
 9494TIP3    H128359   1.095   0.116   0.274
 9494TIP3    H228360   1.228   0.066   0.327
 9495TIP3   OH228361   8.795   3.221   0.414
 9495TIP3    H128362   8.722   3.161   0.399
 9495TIP3    H228363   8.794   3.236   0.509
 9496TIP3   OH228364   2.712   1.889   1.655
 9496TIP3    H128365   2.773   1.950   1.696
 9496TIP3    H228366   2.738   1.803   1.687
 9497TIP3   OH228367   7.580   3.696   6.093
 9497TIP3    H128368   7.621   3.624   6.141
 9497TIP3    H228369   7.645   3.767   6.096
 9498TIP3   OH228370   2.486   8.124   1.861
 9498TIP3    H128371   2.473   8.099   1.953
 9498TIP3    H228372   2.400   8.110   1.821
 9499TIP3   OH228373   6.489   7.189   0.507
 9499TIP3    H128374   6.460   7.272   0.468
 9499TIP3    H228375   6.413   7.132   0.500
 9500TIP3   OH228376   2.771   2.002   3.650
 9500TIP3    H128377   2.781   2.086   3.607
 9500TIP3    H228378   2.806   2.016   3.738
 9501TIP3   OH228379   3.505   0.554   6.629
 9501TIP3    H128380   3.563   0.620   6.668
 9501TIP3    H228381   3.544   0.535   6.544
 9502TIP3   OH228382   8.336   2.028   5.033
 9502TIP3    H128383   8.387   1.948   5.023
 9502TIP3    H228384   8.312   2.030   5.126
 9503TIP3   OH228385   1.474   8.552   3.190
 9503TIP3    H128386   1.564   8.523   3.176
 9503TIP3    H228387   1.431   8.540   3.106
 9504TIP3   OH228388   7.642   8.028   1.398
 9504TIP3    H128389   7.597   8.111   1.414
 9504TIP3    H228390   7.731   8.053   1.373
 9505TIP3   OH228391   3.447   2.351   2.804
 9505TIP3    H128392   3.534   2.342   2.843
 9505TIP3    H228393   3.416   2.437   2.835
 9506TIP3   OH228394   1.845   7.771   0.074
 9506TIP3    H128395   1.843   7.845   0.135
 9506TIP3    H228396   1.905   7.800   0.005
 9507TIP3   OH228397   6.833   8.138   6.406
 9507TIP3    H128398   6.763   8.147   6.340
 9507TIP3    H228399   6.805   8.064   6.459
 9508TIP3   OH228400   5.478   0.872   4.312
 9508TIP3    H128401   5.438   0.793   4.276
 9508TIP3    H228402   5.405   0.934   4.319
 9509TIP3   OH228403   0.689   5.069   2.951
 9509TIP3    H128404   0.766   5.109   2.909
 9509TIP3    H228405   0.699   5.089   3.044
 9510TIP3   OH228406   5.445   4.720   0.149
 9510TIP3    H128407   5.493   4.796   0.182
 9510TIP3    H228408   5.512   4.654   0.131
 9511TIP3   OH228409   1.194   4.915   7.187
 9511TIP3    H128410   1.208   5.003   7.150
 9511TIP3    H228411   1.214   4.855   7.115
 9512TIP3   OH228412   2.375   5.326   7.035
 9512TIP3    H128413   2.340   5.414   7.051
 9512TIP3    H228414   2.449   5.319   7.095
 9513TIP3   OH228415   9.274   8.479   6.440
 9513TIP3    H128416   9.363   8.500   6.467
 9513TIP3    H228417   9.223   8.485   6.520
 9514TIP3   OH228418   3.285   7.566   3.351
 9514TIP3    H128419   3.276   7.480   3.391
 9514TIP3    H228420   3.239   7.559   3.268
 9515TIP3   OH228421   0.788   1.337   6.502
 9515TIP3    H128422   0.829   1.277   6.564
 9515TIP3    H228423   0.695   1.315   6.504
 9516TIP3   OH228424   3.263   4.876   2.851
 9516TIP3    H128425   3.282   4.969   2.865
 9516TIP3    H228426   3.210   4.850   2.926
 9517TIP3   OH228427   0.935   2.652   4.945
 9517TIP3    H128428   0.948   2.709   5.022
 9517TIP3    H228429   1.021   2.614   4.929
 9518TIP3   OH228430   3.555   1.999   5.962
 9518TIP3    H128431   3.462   1.974   5.967
 9518TIP3    H228432   3.575   2.035   6.048
 9519TIP3   OH228433   5.335   3.491   0.623
 9519TIP3    H128434   5.293   3.575   0.642
 9519TIP3    H228435   5.343   3.449   0.709
 9520TIP3   OH228436   1.801   7.035   2.529
 9520TIP3    H128437   1.715   7.038   2.487
 9520TIP3    H228438   1.860   7.004   2.461
 9521TIP3   OH228439   6.782   0.076   0.327
 9521TIP3    H128440   6.788   0.163   0.367
 9521TIP3    H228441   6.823   0.017   0.390
 9522TIP3   OH228442   1.767   5.766   5.649
 9522TIP3    H128443   1.812   5.684   5.670
 9522TIP3    H228444   1.837   5.828   5.630
 9523TIP3   OH228445   0.915   5.495   2.832
 9523TIP3    H128446   1.007   5.467   2.828
 9523TIP3    H228447   0.867   5.415   2.855
 9524TIP3   OH228448   4.936   7.945   6.530
 9524TIP3    H128449   4.849   7.916   6.501
 9524TIP3    H228450   4.954   7.895   6.608
 9525TIP3   OH228451   7.448   5.504   0.703
 9525TIP3    H128452   7.490   5.561   0.768
 9525TIP3    H228453   7.499   5.423   0.706
 9526TIP3   OH228454   7.846   7.745   6.307
 9526TIP3    H128455   7.864   7.803   6.234
 9526TIP3    H228456   7.860   7.799   6.385
 9527TIP3   OH228457   3.247   1.451   4.680
 9527TIP3    H128458   3.205   1.439   4.595
 9527TIP3    H228459   3.213   1.535   4.712
 9528TIP3   OH228460   0.316   4.143   5.873
 9528TIP3    H128461   0.331   4.212   5.937
 9528TIP3    H228462   0.220   4.137   5.865
 9529TIP3   OH228463   3.202   1.533   5.794
 9529TIP3    H128464   3.133   1.511   5.856
 9529TIP3    H228465   3.251   1.452   5.782
 9530TIP3   OH228466   6.488   7.663   2.791
 9530TIP3    H128467   6.453   7.601   2.855
 9530TIP3    H228468   6.582   7.664   2.807
 9531TIP3   OH228469   4.434   2.070   3.066
 9531TIP3    H128470   4.480   2.123   3.001
 9531TIP3    H228471   4.496   2.000   3.088
 9532TIP3   OH228472   2.478   5.946   5.838
 9532TIP3    H128473   2.513   5.880   5.778
 9532TIP3    H228474   2.471   5.900   5.922
 9533TIP3   OH228475   0.129   6.880   5.527
 9533TIP3    H128476   0.225   6.882   5.526
 9533TIP3    H228477   0.105   6.863   5.436
 9534TIP3   OH228478   8.912   6.409   6.268
 9534TIP3    H128479   8.865   6.483   6.229
 9534TIP3    H228480   8.849   6.369   6.328
 9535TIP3   OH228481   9.411   1.991   7.451
 9535TIP3    H128482   9.484   1.944   7.491
 9535TIP3    H228483   9.382   1.934   7.380
 9536TIP3   OH228484   9.007   6.845   3.170
 9536TIP3    H128485   9.044   6.757   3.177
 9536TIP3    H228486   9.053   6.896   3.238
 9537TIP3   OH228487   7.329   2.581   4.410
 9537TIP3    H128488   7.357   2.641   4.479
 9537TIP3    H228489   7.240   2.556   4.434
 9538TIP3   OH228490   6.678   4.926   6.441
 9538TIP3    H128491   6.763   4.939   6.400
 9538TIP3    H228492   6.636   5.012   6.440
 9539TIP3   OH228493   9.047   8.525   5.039
 9539TIP3    H128494   9.072   8.539   5.130
 9539TIP3    H228495   9.073   8.435   5.021
 9540TIP3   OH228496   8.270   0.146   5.699
 9540TIP3    H128497   8.265   0.211   5.629
 9540TIP3    H228498   8.211   0.076   5.671
 9541TIP3   OH228499   4.989   2.243   5.936
 9541TIP3    H128500   5.008   2.150   5.943
 9541TIP3    H228501   5.024   2.269   5.851
 9542TIP3   OH228502   4.760   0.180   6.068
 9542TIP3    H128503   4.777   0.272   6.047
 9542TIP3    H228504   4.773   0.174   6.163
 9543TIP3   OH228505   6.532   6.524   3.436
 9543TIP3    H128506   6.476   6.591   3.475
 9543TIP3    H228507   6.488   6.499   3.355
 9544TIP3   OH228508   6.965   3.062   4.261
 9544TIP3    H128509   7.000   2.979   4.292
 9544TIP3    H228510   6.977   3.059   4.166
 9545TIP3   OH228511   5.249   5.580   5.939
 9545TIP3    H128512   5.219   5.631   6.014
 9545TIP3    H228513   5.338   5.553   5.962
 9546TIP3   OH228514   4.270   2.215   0.174
 9546TIP3    H128515   4.260   2.300   0.216
 9546TIP3    H228516   4.180   2.187   0.156
 9547TIP3   OH228517   6.473   8.459   0.621
 9547TIP3    H128518   6.434   8.383   0.664
 9547TIP3    H228519   6.544   8.485   0.679
 9548TIP3   OH228520   0.645   1.362   6.002
 9548TIP3    H128521   0.713   1.420   5.969
 9548TIP3    H228522   0.622   1.306   5.928
 9549TIP3   OH228523   6.295   3.595   1.384
 9549TIP3    H128524   6.320   3.503   1.390
 9549TIP3    H228525   6.227   3.597   1.316
 9550TIP3   OH228526   7.220   0.118   3.776
 9550TIP3    H128527   7.127   0.095   3.780
 9550TIP3    H228528   7.223   0.200   3.727
 9551TIP3   OH228529   3.611   7.480   4.919
 9551TIP3    H128530   3.648   7.567   4.938
 9551TIP3    H228531   3.529   7.499   4.873
 9552TIP3   OH228532   1.502   6.750   0.088
 9552TIP3    H128533   1.595   6.771   0.094
 9552TIP3    H228534   1.497   6.681   0.022
 9553TIP3   OH228535   6.954   8.102   2.449
 9553TIP3    H128536   6.950   8.013   2.483
 9553TIP3    H228537   7.023   8.099   2.383
 9554TIP3   OH228538   3.287   3.409   4.238
 9554TIP3    H128539   3.342   3.398   4.160
 9554TIP3    H228540   3.311   3.495   4.272
 9555TIP3   OH228541   0.777   6.020   0.694
 9555TIP3    H128542   0.818   5.944   0.736
 9555TIP3    H228543   0.686   5.992   0.679
 9556TIP3   OH228544   1.957   7.648   2.853
 9556TIP3    H128545   1.906   7.727   2.870
 9556TIP3    H228546   1.954   7.636   2.758
 9557TIP3   OH228547   7.327   7.223   3.762
 9557TIP3    H128548   7.381   7.150   3.730
 9557TIP3    H228549   7.280   7.253   3.684
 9558TIP3   OH228550   0.411   6.497   2.278
 9558TIP3    H128551   0.335   6.546   2.308
 9558TIP3    H228552   0.426   6.527   2.189
 9559TIP3   OH228553   7.677   1.476   7.570
 9559TIP3    H128554   7.611   1.426   7.618
 9559TIP3    H228555   7.644   1.566   7.571
 9560TIP3   OH228556   4.809   8.554   3.027
 9560TIP3    H128557   4.777   8.464   3.026
 9560TIP3    H228558   4.731   8.607   3.043
 9561TIP3   OH228559   5.198   0.697   4.822
 9561TIP3    H128560   5.130   0.765   4.817
 9561TIP3    H228561   5.256   0.716   4.749
 9562TIP3   OH228562   3.178   4.046   2.418
 9562TIP3    H128563   3.117   3.972   2.430
 9562TIP3    H228564   3.152   4.084   2.334
 9563TIP3   OH228565   0.032   6.948   7.675
 9563TIP3    H128566   0.088   6.969   7.600
 9563TIP3    H228567   0.085   6.969   7.752
 9564TIP3   OH228568   6.183   8.692   7.535
 9564TIP3    H128569   6.145   8.748   7.603
 9564TIP3    H228570   6.116   8.625   7.520
 9565TIP3   OH228571   7.214   1.831   5.454
 9565TIP3    H128572   7.169   1.804   5.375
 9565TIP3    H228573   7.255   1.915   5.432
 9566TIP3   OH228574   1.854   3.888   0.036
 9566TIP3    H128575   1.854   3.935  -0.047
 9566TIP3    H228576   1.897   3.805   0.016
 9567TIP3   OH228577   2.105   7.803   1.371
 9567TIP3    H128578   2.025   7.852   1.391
 9567TIP3    H228579   2.151   7.857   1.306
 9568TIP3   OH228580   6.904   0.738   6.444
 9568TIP3    H128581   6.934   0.776   6.361
 9568TIP3    H228582   6.973   0.677   6.469
 9569TIP3   OH228583   4.049   6.506   5.317
 9569TIP3    H128584   4.083   6.421   5.344
 9569TIP3    H228585   3.955   6.501   5.333
 9570TIP3   OH228586   1.480   2.220   6.332
 9570TIP3    H128587   1.465   2.127   6.318
 9570TIP3    H228588   1.399   2.263   6.307
 9571TIP3   OH228589   1.004   5.829   4.316
 9571TIP3    H128590   0.940   5.889   4.356
 9571TIP3    H228591   1.043   5.783   4.391
 9572TIP3   OH228592   6.928   8.408   7.591
 9572TIP3    H128593   6.998   8.461   7.552
 9572TIP3    H228594   6.893   8.357   7.518
 9573TIP3   OH228595   3.967   0.432   4.833
 9573TIP3    H128596   3.951   0.338   4.829
 9573TIP3    H228597   4.062   0.441   4.840
 9574TIP3   OH228598   2.457   5.311   1.874
 9574TIP3    H128599   2.362   5.307   1.860
 9574TIP3    H228600   2.466   5.332   1.967
 9575TIP3   OH228601   1.472   0.114   0.622
 9575TIP3    H128602   1.459   0.186   0.684
 9575TIP3    H228603   1.407   0.130   0.553
 9576TIP3   OH228604   6.780   2.191   3.989
 9576TIP3    H128605   6.791   2.149   3.904
 9576TIP3    H228606   6.687   2.180   4.009
 9577TIP3   OH228607   0.496   6.876   1.882
 9577TIP3    H128608   0.565   6.918   1.830
 9577TIP3    H228609   0.526   6.786   1.894
 9578TIP3   OH228610   4.928   3.758   6.279
 9578TIP3    H128611   4.983   3.704   6.337
 9578TIP3    H228612   4.985   3.829   6.251
 9579TIP3   OH228613   7.585   0.135   6.995
 9579TIP3    H128614   7.539   0.173   7.070
 9579TIP3    H228615   7.636   0.063   7.032
 9580TIP3   OH228616   6.249   2.208   1.488
 9580TIP3    H128617   6.316   2.177   1.549
 9580TIP3    H228618   6.230   2.297   1.516
 9581TIP3   OH228619   1.192   3.540   5.279
 9581TIP3    H128620   1.171   3.500   5.364
 9581TIP3    H228621   1.248   3.614   5.301
 9582TIP3   OH228622   0.033   3.662   2.848
 9582TIP3    H128623   0.042   3.733   2.911
 9582TIP3    H228624   0.004   3.705   2.767
 9583TIP3   OH228625   4.529   6.106   5.016
 9583TIP3    H128626   4.612   6.061   5.029
 9583TIP3    H228627   4.554   6.193   4.983
 9584TIP3   OH228628   8.923   1.076   6.493
 9584TIP3    H128629   9.013   1.106   6.507
 9584TIP3    H228630   8.887   1.139   6.431
 9585TIP3   OH228631   7.238   4.574   7.591
 9585TIP3    H128632   7.179   4.556   7.518
 9585TIP3    H228633   7.313   4.619   7.551
 9586TIP3   OH228634   5.106   1.307   1.901
 9586TIP3    H128635   5.115   1.369   1.829
 9586TIP3    H228636   5.196   1.284   1.925
 9587TIP3   OH228637   6.113   3.074   7.475
 9587TIP3    H128638   6.171   3.011   7.517
 9587TIP3    H228639   6.039   3.082   7.535
 9588TIP3   OH228640   3.537   1.594   4.068
 9588TIP3    H128641   3.582   1.625   3.990
 9588TIP3    H228642   3.488   1.670   4.100
 9589TIP3   OH228643   1.172   3.671   7.021
 9589TIP3    H128644   1.209   3.752   6.984
 9589TIP3    H228645   1.184   3.680   7.115
 9590TIP3   OH228646   8.911   0.356   5.994
 9590TIP3    H128647   8.952   0.430   6.038
 9590TIP3    H228648   8.829   0.342   6.042
 9591TIP3   OH228649   8.984   6.971   5.568
 9591TIP3    H128650   9.022   7.028   5.501
 9591TIP3    H228651   8.889   6.981   5.557
 9592TIP3   OH228652   3.797   4.546   7.429
 9592TIP3    H128653   3.828   4.615   7.371
 9592TIP3    H228654   3.875   4.518   7.478
 9593TIP3   OH228655   5.623   8.204   5.618
 9593TIP3    H128656   5.635   8.171   5.707
 9593TIP3    H228657   5.662   8.292   5.620
 9594TIP3   OH228658   6.560   2.734   4.522
 9594TIP3    H128659   6.643   2.780   4.532
 9594TIP3    H228660   6.574   2.672   4.451
 9595TIP3   OH228661   4.247   7.560   5.859
 9595TIP3    H128662   4.311   7.526   5.921
 9595TIP3    H228663   4.162   7.538   5.897
 9596TIP3   OH228664   1.031   2.567   5.344
 9596TIP3    H128665   0.964   2.566   5.275
 9596TIP3    H228666   1.112   2.589   5.297
 9597TIP3   OH228667   3.885   3.424   0.463
 9597TIP3    H128668   3.861   3.421   0.370
 9597TIP3    H228669   3.970   3.469   0.464
 9598TIP3   OH228670   3.150   7.598   3.885
 9598TIP3    H128671   3.102   7.565   3.961
 9598TIP3    H228672   3.226   7.540   3.877
 9599TIP3   OH228673   2.276   5.352   2.671
 9599TIP3    H128674   2.237   5.440   2.672
 9599TIP3    H228675   2.209   5.295   2.709
 9600TIP3   OH228676   3.390   8.818   2.485
 9600TIP3    H128677   3.443   8.749   2.524
 9600TIP3    H228678   3.454   8.883   2.455
 9601TIP3   OH228679   3.632   4.535   3.197
 9601TIP3    H128680   3.670   4.488   3.271
 9601TIP3    H228681   3.541   4.507   3.194
 9602TIP3   OH228682   9.015   7.517   6.456
 9602TIP3    H128683   8.933   7.472   6.437
 9602TIP3    H228684   9.012   7.535   6.550
 9603TIP3   OH228685   8.407   3.676   3.104
 9603TIP3    H128686   8.371   3.653   3.189
 9603TIP3    H228687   8.498   3.701   3.123
 9604TIP3   OH228688   3.546   7.760   3.147
 9604TIP3    H128689   3.465   7.781   3.194
 9604TIP3    H228690   3.545   7.819   3.071
 9605TIP3   OH228691   7.443   2.427   4.095
 9605TIP3    H128692   7.513   2.363   4.097
 9605TIP3    H228693   7.394   2.406   4.015
 9606TIP3   OH228694   1.098   7.718   5.085
 9606TIP3    H128695   1.082   7.805   5.048
 9606TIP3    H228696   1.184   7.694   5.051
 9607TIP3   OH228697   7.941   6.766   5.902
 9607TIP3    H128698   7.874   6.741   5.839
 9607TIP3    H228699   7.905   6.843   5.946
 9608TIP3   OH228700   4.911   6.738   0.576
 9608TIP3    H128701   4.940   6.742   0.667
 9608TIP3    H228702   4.857   6.816   0.565
 9609TIP3   OH228703   6.190   7.232   7.806
 9609TIP3    H128704   6.158   7.144   7.790
 9609TIP3    H228705   6.146   7.286   7.739
 9610TIP3   OH228706   6.648   7.960   1.291
 9610TIP3    H128707   6.578   7.928   1.234
 9610TIP3    H228708   6.685   7.881   1.329
 9611TIP3   OH228709   8.301   8.430   3.478
 9611TIP3    H128710   8.312   8.336   3.465
 9611TIP3    H228711   8.332   8.446   3.568
 9612TIP3   OH228712   8.563   3.086   5.140
 9612TIP3    H128713   8.551   3.005   5.092
 9612TIP3    H228714   8.595   3.059   5.226
 9613TIP3   OH228715   5.346   1.101   6.957
 9613TIP3    H128716   5.370   1.015   6.922
 9613TIP3    H228717   5.253   1.093   6.979
 9614TIP3   OH228718   0.770   4.200   2.355
 9614TIP3    H128719   0.756   4.256   2.279
 9614TIP3    H228720   0.837   4.138   2.327
 9615TIP3   OH228721   4.903   2.555   6.121
 9615TIP3    H128722   4.910   2.606   6.201
 9615TIP3    H228723   4.809   2.549   6.105
 9616TIP3   OH228724   4.186   4.818   2.119
 9616TIP3    H128725   4.140   4.884   2.066
 9616TIP3    H228726   4.228   4.869   2.188
 9617TIP3   OH228727   9.290   4.851   6.874
 9617TIP3    H128728   9.240   4.770   6.869
 9617TIP3    H228729   9.282   4.890   6.788
 9618TIP3   OH228730   1.666   8.307   0.894
 9618TIP3    H128731   1.572   8.320   0.882
 9618TIP3    H228732   1.682   8.334   0.985
 9619TIP3   OH228733   9.209   5.239   0.472
 9619TIP3    H128734   9.191   5.240   0.566
 9619TIP3    H228735   9.138   5.292   0.434
 9620TIP3   OH228736   2.611   7.887   2.842
 9620TIP3    H128737   2.664   7.939   2.783
 9620TIP3    H228738   2.663   7.808   2.858
 9621TIP3   OH228739   8.923   6.288   6.669
 9621TIP3    H128740   8.940   6.217   6.730
 9621TIP3    H228741   8.984   6.357   6.695
 9622TIP3   OH228742   9.043   5.243   0.908
 9622TIP3    H128743   9.021   5.328   0.946
 9622TIP3    H228744   8.973   5.226   0.845
 9623TIP3   OH228745   3.713   8.446   4.261
 9623TIP3    H128746   3.641   8.385   4.245
 9623TIP3    H228747   3.676   8.532   4.240
 9624TIP3   OH228748   5.828   3.421   3.021
 9624TIP3    H128749   5.910   3.391   3.059
 9624TIP3    H228750   5.771   3.344   3.023
 9625TIP3   OH228751   5.634   1.970   1.109
 9625TIP3    H128752   5.582   2.018   1.174
 9625TIP3    H228753   5.634   1.880   1.140
 9626TIP3   OH228754   5.493   5.808   5.927
 9626TIP3    H128755   5.460   5.822   5.838
 9626TIP3    H228756   5.499   5.713   5.936
 9627TIP3   OH228757   6.209   7.069   4.517
 9627TIP3    H128758   6.134   7.102   4.469
 9627TIP3    H228759   6.277   7.134   4.504
 9628TIP3   OH228760   0.571   3.235   0.968
 9628TIP3    H128761   0.514   3.157   0.967
 9628TIP3    H228762   0.645   3.210   1.023
 9629TIP3   OH228763   5.822   7.855   2.727
 9629TIP3    H128764   5.906   7.825   2.693
 9629TIP3    H228765   5.823   7.950   2.715
 9630TIP3   OH228766   0.288   3.026   6.850
 9630TIP3    H128767   0.351   3.031   6.779
 9630TIP3    H228768   0.324   3.084   6.918
 9631TIP3   OH228769   8.393   1.055   1.158
 9631TIP3    H128770   8.369   0.964   1.139
 9631TIP3    H228771   8.488   1.056   1.154
 9632TIP3   OH228772   1.502   5.308   0.925
 9632TIP3    H128773   1.559   5.377   0.958
 9632TIP3    H228774   1.430   5.304   0.987
 9633TIP3   OH228775   4.779   6.201   1.540
 9633TIP3    H128776   4.707   6.165   1.488
 9633TIP3    H228777   4.841   6.235   1.475
 9634TIP3   OH228778   0.931   8.734   4.311
 9634TIP3    H128779   0.880   8.674   4.366
 9634TIP3    H228780   0.989   8.678   4.260
 9635TIP3   OH228781   5.168   7.437   3.798
 9635TIP3    H128782   5.182   7.518   3.847
 9635TIP3    H228783   5.191   7.459   3.708
 9636TIP3   OH228784   2.973   3.562   1.832
 9636TIP3    H128785   2.923   3.503   1.775
 9636TIP3    H228786   3.064   3.537   1.817
 9637TIP3   OH228787   2.097   2.730   0.632
 9637TIP3    H128788   2.118   2.746   0.724
 9637TIP3    H228789   2.182   2.716   0.591
 9638TIP3   OH228790   1.295   8.361   6.435
 9638TIP3    H128791   1.378   8.394   6.400
 9638TIP3    H228792   1.237   8.356   6.358
 9639TIP3   OH228793   6.424   4.128   2.078
 9639TIP3    H128794   6.423   4.220   2.051
 9639TIP3    H228795   6.517   4.107   2.087
 9640TIP3   OH228796   0.810   0.123   0.249
 9640TIP3    H128797   0.805   0.134   0.344
 9640TIP3    H228798   0.886   0.176   0.223
 9641TIP3   OH228799   6.394   7.952   1.914
 9641TIP3    H128800   6.456   7.928   1.983
 9641TIP3    H228801   6.445   7.947   1.833
 9642TIP3   OH228802   8.707   6.825   0.810
 9642TIP3    H128803   8.791   6.851   0.771
 9642TIP3    H228804   8.644   6.832   0.738
 9643TIP3   OH228805   4.059   8.416   2.412
 9643TIP3    H128806   4.010   8.352   2.463
 9643TIP3    H228807   4.013   8.499   2.428
 9644TIP3   OH228808   3.679   4.959   7.405
 9644TIP3    H128809   3.589   4.926   7.395
 9644TIP3    H228810   3.732   4.902   7.349
 9645TIP3   OH228811   2.646   0.422   5.174
 9645TIP3    H128812   2.729   0.416   5.221
 9645TIP3    H228813   2.579   0.418   5.242
 9646TIP3   OH228814   2.679   8.496   6.742
 9646TIP3    H128815   2.682   8.550   6.663
 9646TIP3    H228816   2.618   8.426   6.721
 9647TIP3   OH228817   1.865   7.245   1.843
 9647TIP3    H128818   1.815   7.179   1.795
 9647TIP3    H228819   1.823   7.328   1.820
 9648TIP3   OH228820   8.167   7.431   3.536
 9648TIP3    H128821   8.187   7.344   3.500
 9648TIP3    H228822   8.076   7.447   3.511
 9649TIP3   OH228823   7.507   7.241   3.273
 9649TIP3    H128824   7.590   7.244   3.226
 9649TIP3    H228825   7.441   7.249   3.204
 9650TIP3   OH228826   7.804   7.097   4.232
 9650TIP3    H128827   7.716   7.132   4.221
 9650TIP3    H228828   7.804   7.016   4.181
 9651TIP3   OH228829   1.418   2.332   1.120
 9651TIP3    H128830   1.455   2.308   1.204
 9651TIP3    H228831   1.463   2.413   1.096
 9652TIP3   OH228832   2.457   6.353   6.950
 9652TIP3    H128833   2.503   6.294   7.010
 9652TIP3    H228834   2.370   6.362   6.987
 9653TIP3   OH228835   8.819   8.414   1.893
 9653TIP3    H128836   8.911   8.438   1.897
 9653TIP3    H228837   8.795   8.396   1.984
 9654TIP3   OH228838   9.299   9.006   6.843
 9654TIP3    H128839   9.365   9.074   6.834
 9654TIP3    H228840   9.294   8.990   6.938
 9655TIP3   OH228841   4.843   1.538   1.566
 9655TIP3    H128842   4.836   1.443   1.565
 9655TIP3    H228843   4.855   1.560   1.659
 9656TIP3   OH228844   8.651   2.279   5.904
 9656TIP3    H128845   8.591   2.281   5.829
 9656TIP3    H228846   8.612   2.217   5.965
 9657TIP3   OH228847   5.681   0.695   6.584
 9657TIP3    H128848   5.715   0.693   6.494
 9657TIP3    H228849   5.746   0.646   6.635
 9658TIP3   OH228850   7.421   1.334   3.119
 9658TIP3    H128851   7.378   1.384   3.049
 9658TIP3    H228852   7.476   1.271   3.073
 9659TIP3   OH228853   6.509   5.961   0.754
 9659TIP3    H128854   6.588   6.007   0.726
 9659TIP3    H228855   6.462   6.024   0.808
 9660TIP3   OH228856   3.865   6.285   5.104
 9660TIP3    H128857   3.847   6.299   5.198
 9660TIP3    H228858   3.958   6.264   5.101
 9661TIP3   OH228859   7.015   6.775   4.520
 9661TIP3    H128860   6.937   6.816   4.483
 9661TIP3    H228861   6.983   6.726   4.596
 9662TIP3   OH228862   2.161   4.573   3.624
 9662TIP3    H128863   2.174   4.555   3.531
 9662TIP3    H228864   2.067   4.562   3.638
 9663TIP3   OH228865   4.374   4.753   4.336
 9663TIP3    H128866   4.388   4.793   4.422
 9663TIP3    H228867   4.460   4.756   4.294
 9664TIP3   OH228868   0.730   1.009   1.486
 9664TIP3    H128869   0.775   1.035   1.406
 9664TIP3    H228870   0.794   1.025   1.556
 9665TIP3   OH228871   0.883   3.111   3.639
 9665TIP3    H128872   0.801   3.160   3.645
 9665TIP3    H228873   0.924   3.143   3.559
 9666TIP3   OH228874   1.184   6.414   5.817
 9666TIP3    H128875   1.134   6.480   5.867
 9666TIP3    H228876   1.139   6.409   5.733
 9667TIP3   OH228877   0.636   3.797   6.377
 9667TIP3    H128878   0.682   3.837   6.303
 9667TIP3    H228879   0.557   3.758   6.339
 9668TIP3   OH228880   0.314   3.381   2.292
 9668TIP3    H128881   0.297   3.387   2.198
 9668TIP3    H228882   0.289   3.291   2.315
 9669TIP3   OH228883   2.025   3.975   4.988
 9669TIP3    H128884   2.068   3.901   4.945
 9669TIP3    H228885   1.959   4.005   4.926
 9670TIP3   OH228886   3.115   5.370   7.687
 9670TIP3    H128887   3.144   5.460   7.696
 9670TIP3    H228888   3.019   5.374   7.691
 9671TIP3   OH228889   0.987   5.503   6.973
 9671TIP3    H128890   0.985   5.580   7.030
 9671TIP3    H228891   0.918   5.519   6.909
 9672TIP3   OH228892   6.743   1.806   2.507
 9672TIP3    H128893   6.724   1.887   2.555
 9672TIP3    H228894   6.752   1.740   2.576
 9673TIP3   OH228895   4.443   0.917   4.580
 9673TIP3    H128896   4.409   0.834   4.546
 9673TIP3    H228897   4.530   0.925   4.541
 9674TIP3   OH228898   3.473   8.217   0.329
 9674TIP3    H128899   3.382   8.247   0.327
 9674TIP3    H228900   3.510   8.248   0.246
 9675TIP3   OH228901   1.760   2.023   0.501
 9675TIP3    H128902   1.738   2.026   0.594
 9675TIP3    H228903   1.731   2.107   0.467
 9676TIP3   OH228904   3.371   1.065   2.472
 9676TIP3    H128905   3.325   0.994   2.428
 9676TIP3    H228906   3.328   1.145   2.439
 9677TIP3   OH228907   0.806   6.907   1.206
 9677TIP3    H128908   0.876   6.896   1.141
 9677TIP3    H228909   0.820   6.995   1.241
 9678TIP3   OH228910   6.562   0.377   7.176
 9678TIP3    H128911   6.486   0.361   7.119
 9678TIP3    H228912   6.609   0.448   7.133
 9679TIP3   OH228913   5.106   7.040   0.520
 9679TIP3    H128914   5.110   7.092   0.600
 9679TIP3    H228915   5.039   7.082   0.466
 9680TIP3   OH228916   1.088   0.580   4.854
 9680TIP3    H128917   1.163   0.640   4.858
 9680TIP3    H228918   1.067   0.574   4.761
 9681TIP3   OH228919   2.700   5.525   2.684
 9681TIP3    H128920   2.629   5.469   2.718
 9681TIP3    H228921   2.748   5.468   2.624
 9682TIP3   OH228922   5.912   3.158   2.506
 9682TIP3    H128923   5.862   3.098   2.561
 9682TIP3    H228924   5.950   3.102   2.438
 9683TIP3   OH228925   0.390   2.933   5.637
 9683TIP3    H128926   0.414   2.843   5.660
 9683TIP3    H228927   0.312   2.924   5.582
 9684TIP3   OH228928   8.444   0.891   0.421
 9684TIP3    H128929   8.395   0.973   0.416
 9684TIP3    H228930   8.515   0.902   0.358
 9685TIP3   OH228931   8.174   1.135   4.117
 9685TIP3    H128932   8.150   1.061   4.172
 9685TIP3    H228933   8.095   1.151   4.064
 9686TIP3   OH228934   3.185   6.001   0.639
 9686TIP3    H128935   3.202   6.078   0.693
 9686TIP3    H228936   3.136   6.034   0.564
 9687TIP3   OH228937   6.792   3.532   3.382
 9687TIP3    H128938   6.716   3.549   3.438
 9687TIP3    H228939   6.867   3.535   3.442
 9688TIP3   OH228940   5.077   1.401   6.853
 9688TIP3    H128941   5.022   1.387   6.930
 9688TIP3    H228942   5.093   1.496   6.852
 9689TIP3   OH228943   7.402   8.943   4.770
 9689TIP3    H128944   7.484   8.931   4.817
 9689TIP3    H228945   7.337   8.962   4.838
 9690TIP3   OH228946   6.438   4.694   4.189
 9690TIP3    H128947   6.423   4.667   4.280
 9690TIP3    H228948   6.490   4.774   4.197
 9691TIP3   OH228949   3.886   3.057   2.009
 9691TIP3    H128950   3.885   2.967   2.040
 9691TIP3    H228951   3.796   3.075   1.981
 9692TIP3   OH228952   5.110   7.208   7.469
 9692TIP3    H128953   5.089   7.301   7.465
 9692TIP3    H228954   5.050   7.166   7.408
 9693TIP3   OH228955   8.968   0.443   7.618
 9693TIP3    H128956   8.997   0.369   7.671
 9693TIP3    H228957   9.043   0.464   7.563
 9694TIP3   OH228958   6.700   4.969   5.059
 9694TIP3    H128959   6.751   5.015   5.125
 9694TIP3    H228960   6.663   5.038   5.005
 9695TIP3   OH228961   9.423   1.055   1.700
 9695TIP3    H128962   9.466   1.122   1.752
 9695TIP3    H228963   9.337   1.044   1.741
 9696TIP3   OH228964   5.266   0.467   3.876
 9696TIP3    H128965   5.274   0.386   3.926
 9696TIP3    H228966   5.219   0.442   3.796
 9697TIP3   OH228967   3.604   1.890   2.239
 9697TIP3    H128968   3.585   1.960   2.177
 9697TIP3    H228969   3.699   1.895   2.252
 9698TIP3   OH228970   0.181   7.171   6.308
 9698TIP3    H128971   0.205   7.223   6.385
 9698TIP3    H228972   0.176   7.234   6.236
 9699TIP3   OH228973   7.951   0.313   4.631
 9699TIP3    H128974   8.020   0.377   4.614
 9699TIP3    H228975   7.993   0.244   4.682
 9700TIP3   OH228976   4.302   8.981   2.591
 9700TIP3    H128977   4.251   8.962   2.670
 9700TIP3    H228978   4.238   8.982   2.521
 9701TIP3   OH228979   2.221   5.758   1.343
 9701TIP3    H128980   2.163   5.770   1.418
 9701TIP3    H228981   2.227   5.845   1.303
 9702TIP3   OH228982   6.397   8.992   1.590
 9702TIP3    H128983   6.311   8.991   1.632
 9702TIP3    H228984   6.378   9.007   1.497
 9703TIP3   OH228985   1.044   6.802   2.932
 9703TIP3    H128986   1.106   6.828   2.863
 9703TIP3    H228987   1.100   6.787   3.009
 9704TIP3   OH228988   4.922   7.271   5.424
 9704TIP3    H128989   5.008   7.313   5.421
 9704TIP3    H228990   4.864   7.332   5.378
 9705TIP3   OH228991   0.458   7.753   1.033
 9705TIP3    H128992   0.531   7.740   1.093
 9705TIP3    H228993   0.401   7.678   1.049
 9706TIP3   OH228994   5.486   4.816   3.292
 9706TIP3    H128995   5.409   4.772   3.256
 9706TIP3    H228996   5.560   4.766   3.258
 9707TIP3   OH228997   5.759   0.058   3.851
 9707TIP3    H128998   5.768  -0.038   3.848
 9707TIP3    H228999   5.665   0.073   3.840
 9708TIP3   OH229000   3.938   8.465   5.062
 9708TIP3    H129001   3.965   8.385   5.107
 9708TIP3    H229002   3.877   8.435   4.995
 9709TIP3   OH229003   0.962   7.428   4.016
 9709TIP3    H129004   1.017   7.441   4.094
 9709TIP3    H229005   1.024   7.431   3.943
 9710TIP3   OH229006   0.102   5.921   6.283
 9710TIP3    H129007   0.032   5.962   6.232
 9710TIP3    H229008   0.177   5.921   6.223
 9711TIP3   OH229009   7.676   8.918   3.163
 9711TIP3    H129010   7.696   8.824   3.159
 9711TIP3    H229011   7.732   8.957   3.096
 9712TIP3   OH229012   3.036   7.562   1.145
 9712TIP3    H129013   2.983   7.589   1.220
 9712TIP3    H229014   3.108   7.625   1.143
 9713TIP3   OH229015   6.846   7.986   7.778
 9713TIP3    H129016   6.770   8.029   7.817
 9713TIP3    H229017   6.811   7.905   7.741
 9714TIP3   OH229018   5.258   7.467   0.759
 9714TIP3    H129019   5.294   7.492   0.844
 9714TIP3    H229020   5.336   7.444   0.707
 9715TIP3   OH229021   6.618   0.487   5.755
 9715TIP3    H129022   6.552   0.455   5.817
 9715TIP3    H229023   6.675   0.411   5.740
 9716TIP3   OH229024   6.749   1.657   3.119
 9716TIP3    H129025   6.797   1.588   3.072
 9716TIP3    H229026   6.709   1.710   3.050
 9717TIP3   OH229027   8.687   5.160   2.866
 9717TIP3    H129028   8.778   5.138   2.845
 9717TIP3    H229029   8.687   5.176   2.960
 9718TIP3   OH229030   1.950   4.183   0.022
 9718TIP3    H129031   1.874   4.141   0.063
 9718TIP3    H229032   1.989   4.115  -0.033
 9719TIP3   OH229033   4.469   3.838   0.441
 9719TIP3    H129034   4.473   3.812   0.533
 9719TIP3    H229035   4.430   3.926   0.443
 9720TIP3   OH229036   8.122   7.288   3.913
 9720TIP3    H129037   8.096   7.372   3.952
 9720TIP3    H229038   8.107   7.224   3.982
 9721TIP3   OH229039   3.948   5.510   5.596
 9721TIP3    H129040   3.880   5.539   5.657
 9721TIP3    H229041   4.031   5.532   5.640
 9722TIP3   OH229042   5.134   7.660   0.209
 9722TIP3    H129043   5.066   7.601   0.178
 9722TIP3    H229044   5.119   7.666   0.304
 9723TIP3   OH229045   3.485   6.173   1.206
 9723TIP3    H129046   3.421   6.186   1.136
 9723TIP3    H229047   3.545   6.107   1.172
 9724TIP3   OH229048   2.595   1.386   0.600
 9724TIP3    H129049   2.611   1.298   0.565
 9724TIP3    H229050   2.525   1.375   0.663
 9725TIP3   OH229051   8.676   0.836   7.713
 9725TIP3    H129052   8.588   0.815   7.682
 9725TIP3    H229053   8.677   0.931   7.724
 9726TIP3   OH229054   7.692   3.878   4.264
 9726TIP3    H129055   7.781   3.895   4.294
 9726TIP3    H229056   7.667   3.957   4.218
 9727TIP3   OH229057   2.179   7.312   3.427
 9727TIP3    H129058   2.107   7.374   3.418
 9727TIP3    H229059   2.235   7.350   3.495
 9728TIP3   OH229060   2.726   3.661   3.611
 9728TIP3    H129061   2.720   3.748   3.650
 9728TIP3    H229062   2.795   3.669   3.544
 9729TIP3   OH229063   6.098   2.358   0.109
 9729TIP3    H129064   6.003   2.367   0.101
 9729TIP3    H229065   6.123   2.297   0.040
 9730TIP3   OH229066   6.485   0.076   0.023
 9730TIP3    H129067   6.476   0.049  -0.068
 9730TIP3    H229068   6.579   0.065   0.042
 9731TIP3   OH229069   6.058   4.453   2.578
 9731TIP3    H129070   6.151   4.456   2.602
 9731TIP3    H229071   6.058   4.443   2.483
 9732TIP3   OH229072   4.607   7.183   3.289
 9732TIP3    H129073   4.572   7.271   3.284
 9732TIP3    H229074   4.686   7.191   3.342
 9733TIP3   OH229075   2.019   2.136   1.186
 9733TIP3    H129076   1.927   2.110   1.179
 9733TIP3    H229077   2.042   2.119   1.277
 9734TIP3   OH229078   9.296   4.096   5.318
 9734TIP3    H129079   9.233   4.168   5.310
 9734TIP3    H229080   9.381   4.139   5.327
 9735TIP3   OH229081   8.639   6.388   0.616
 9735TIP3    H129082   8.565   6.449   0.623
 9735TIP3    H229083   8.668   6.374   0.706
 9736TIP3   OH229084   7.095   2.166   1.711
 9736TIP3    H129085   7.112   2.079   1.675
 9736TIP3    H229086   7.011   2.192   1.672
 9737TIP3   OH229087   4.821   7.990   2.243
 9737TIP3    H129088   4.803   7.986   2.149
 9737TIP3    H229089   4.824   7.898   2.270
 9738TIP3   OH229090   2.829   1.325   0.370
 9738TIP3    H129091   2.871   1.404   0.405
 9738TIP3    H229092   2.738   1.350   0.356
 9739TIP3   OH229093   3.428   0.102   0.863
 9739TIP3    H129094   3.521   0.105   0.888
 9739TIP3    H229095   3.381   0.121   0.944
 9740TIP3   OH229096   5.035   3.132   6.393
 9740TIP3    H129097   5.072   3.077   6.324
 9740TIP3    H229098   4.940   3.125   6.381
 9741TIP3   OH229099   3.805   7.553   3.676
 9741TIP3    H129100   3.777   7.640   3.648
 9741TIP3    H229101   3.750   7.534   3.752
 9742TIP3   OH229102   2.979   8.266   0.138
 9742TIP3    H129103   3.051   8.300   0.085
 9742TIP3    H229104   2.906   8.327   0.120
 9743TIP3   OH229105   2.190   0.299   3.367
 9743TIP3    H129106   2.123   0.298   3.435
 9743TIP3    H229107   2.141   0.313   3.286
 9744TIP3   OH229108   2.458   4.688   3.668
 9744TIP3    H129109   2.454   4.779   3.699
 9744TIP3    H229110   2.369   4.668   3.640
 9745TIP3   OH229111   7.698   7.068   3.436
 9745TIP3    H129112   7.627   7.010   3.411
 9745TIP3    H229113   7.699   7.136   3.369
 9746TIP3   OH229114   6.958   4.833   0.273
 9746TIP3    H129115   6.999   4.867   0.353
 9746TIP3    H229116   7.017   4.862   0.203
 9747TIP3   OH229117   1.036   6.790   7.504
 9747TIP3    H129118   1.060   6.882   7.508
 9747TIP3    H229119   1.045   6.759   7.594
 9748TIP3   OH229120   6.633   2.903   7.320
 9748TIP3    H129121   6.638   2.865   7.408
 9748TIP3    H229122   6.553   2.956   7.322
 9749TIP3   OH229123   9.355   3.058   7.655
 9749TIP3    H129124   9.402   2.976   7.641
 9749TIP3    H229125   9.359   3.072   7.750
 9750TIP3   OH229126   0.869   8.815   5.994
 9750TIP3    H129127   0.950   8.865   6.007
 9750TIP3    H229128   0.801   8.869   6.035
 9751TIP3   OH229129   6.249   8.002   1.010
 9751TIP3    H129130   6.279   8.089   1.034
 9751TIP3    H229131   6.222   8.010   0.918
 9752TIP3   OH229132   5.480   2.342   4.738
 9752TIP3    H129133   5.493   2.434   4.762
 9752TIP3    H229134   5.562   2.299   4.765
 9753TIP3   OH229135   3.058   4.585   5.639
 9753TIP3    H129136   3.023   4.502   5.671
 9753TIP3    H229137   3.153   4.576   5.647
 9754TIP3   OH229138   7.925   0.199   6.131
 9754TIP3    H129139   8.005   0.152   6.150
 9754TIP3    H229140   7.951   0.291   6.129
 9755TIP3   OH229141   1.255   1.174   7.370
 9755TIP3    H129142   1.220   1.087   7.389
 9755TIP3    H229143   1.217   1.197   7.285
 9756TIP3   OH229144   2.378   1.613   5.620
 9756TIP3    H129145   2.451   1.604   5.681
 9756TIP3    H229146   2.330   1.690   5.651
 9757TIP3   OH229147   6.971   1.367   3.157
 9757TIP3    H129148   6.882   1.359   3.191
 9757TIP3    H229149   6.972   1.311   3.079
 9758TIP3   OH229150   8.137   7.874   0.777
 9758TIP3    H129151   8.232   7.882   0.770
 9758TIP3    H229152   8.119   7.869   0.871
 9759TIP3   OH229153   0.198   2.465   4.571
 9759TIP3    H129154   0.255   2.423   4.507
 9759TIP3    H229155   0.214   2.418   4.653
 9760TIP3   OH229156   5.750   5.280   2.550
 9760TIP3    H129157   5.670   5.333   2.549
 9760TIP3    H229158   5.752   5.238   2.464
 9761TIP3   OH229159   7.484   1.245   2.809
 9761TIP3    H129160   7.517   1.251   2.719
 9761TIP3    H229161   7.442   1.329   2.826
 9762TIP3   OH229162   2.606   2.619   6.038
 9762TIP3    H129163   2.658   2.582   5.965
 9762TIP3    H229164   2.672   2.652   6.099
 9763TIP3   OH229165   3.502   7.024   5.559
 9763TIP3    H129166   3.432   7.090   5.556
 9763TIP3    H229167   3.582   7.075   5.572
 9764TIP3   OH229168   1.182   7.171   3.159
 9764TIP3    H129169   1.098   7.164   3.113
 9764TIP3    H229170   1.177   7.255   3.205
 9765TIP3   OH229171   5.773   4.085   4.305
 9765TIP3    H129172   5.826   4.041   4.371
 9765TIP3    H229173   5.741   4.015   4.249
 9766TIP3   OH229174   9.166   7.935   6.157
 9766TIP3    H129175   9.124   7.956   6.073
 9766TIP3    H229176   9.134   7.848   6.178
 9767TIP3   OH229177   2.053   2.799   4.456
 9767TIP3    H129178   1.978   2.856   4.474
 9767TIP3    H229179   2.028   2.714   4.492
 9768TIP3   OH229180   4.815   6.212   0.710
 9768TIP3    H129181   4.902   6.236   0.679
 9768TIP3    H229182   4.757   6.228   0.635
 9769TIP3   OH229183   0.580   7.270   1.730
 9769TIP3    H129184   0.505   7.214   1.708
 9769TIP3    H229185   0.558   7.307   1.815
 9770TIP3   OH229186   1.028   0.918   0.833
 9770TIP3    H129187   0.988   0.918   0.746
 9770TIP3    H229188   1.025   0.826   0.861
 9771TIP3   OH229189   5.786   5.622   1.244
 9771TIP3    H129190   5.855   5.582   1.191
 9771TIP3    H229191   5.714   5.637   1.183
 9772TIP3   OH229192   0.368   5.091   7.216
 9772TIP3    H129193   0.451   5.046   7.231
 9772TIP3    H229194   0.329   5.097   7.303
 9773TIP3   OH229195   4.259   6.016   1.338
 9773TIP3    H129196   4.293   5.956   1.404
 9773TIP3    H229197   4.243   5.961   1.261
 9774TIP3   OH229198   3.405   8.694   1.848
 9774TIP3    H129199   3.375   8.730   1.764
 9774TIP3    H229200   3.389   8.764   1.911
 9775TIP3   OH229201   1.613   8.431   7.324
 9775TIP3    H129202   1.640   8.451   7.234
 9775TIP3    H229203   1.583   8.515   7.359
 9776TIP3   OH229204   8.617   7.401   5.421
 9776TIP3    H129205   8.563   7.328   5.391
 9776TIP3    H229206   8.554   7.468   5.446
 9777TIP3   OH229207   7.559   1.152   3.296
 9777TIP3    H129208   7.629   1.199   3.251
 9777TIP3    H229209   7.479   1.199   3.272
 9778TIP3   OH229210   0.595   2.378   6.535
 9778TIP3    H129211   0.550   2.414   6.612
 9778TIP3    H229212   0.675   2.430   6.528
 9779TIP3   OH229213   1.803   1.928   4.735
 9779TIP3    H129214   1.896   1.907   4.740
 9779TIP3    H229215   1.760   1.862   4.790
 9780TIP3   OH229216   3.187   5.129   0.244
 9780TIP3    H129217   3.154   5.045   0.212
 9780TIP3    H229218   3.157   5.134   0.335
 9781TIP3   OH229219   8.524   0.426   6.160
 9781TIP3    H129220   8.450   0.408   6.219
 9781TIP3    H229221   8.484   0.436   6.074
 9782TIP3   OH229222   0.739   3.044   7.147
 9782TIP3    H129223   0.651   3.076   7.165
 9782TIP3    H229224   0.785   3.050   7.231
 9783TIP3   OH229225   8.407   5.399   0.929
 9783TIP3    H129226   8.384   5.409   0.837
 9783TIP3    H229227   8.484   5.342   0.928
 9784TIP3   OH229228   8.485   2.481   2.937
 9784TIP3    H129229   8.467   2.467   3.030
 9784TIP3    H229230   8.577   2.505   2.933
 9785TIP3   OH229231   8.028   3.377   0.647
 9785TIP3    H129232   7.995   3.414   0.565
 9785TIP3    H229233   8.018   3.282   0.636
 9786TIP3   OH229234   2.529   1.623   1.437
 9786TIP3    H129235   2.498   1.708   1.407
 9786TIP3    H229236   2.455   1.564   1.425
 9787TIP3   OH229237   0.120   8.454   7.735
 9787TIP3    H129238   0.091   8.506   7.660
 9787TIP3    H229239   0.065   8.376   7.733
 9788TIP3   OH229240   7.781   8.530   2.429
 9788TIP3    H129241   7.724   8.483   2.368
 9788TIP3    H229242   7.729   8.605   2.457
 9789TIP3   OH229243   6.789   4.583   7.485
 9789TIP3    H129244   6.732   4.657   7.505
 9789TIP3    H229245   6.851   4.616   7.420
 9790TIP3   OH229246   0.198   4.342   7.455
 9790TIP3    H129247   0.158   4.256   7.469
 9790TIP3    H229248   0.208   4.379   7.543
 9791TIP3   OH229249   3.228   2.917   3.360
 9791TIP3    H129250   3.137   2.929   3.389
 9791TIP3    H229251   3.227   2.947   3.269
 9792TIP3   OH229252   3.595   7.241   6.803
 9792TIP3    H129253   3.516   7.253   6.854
 9792TIP3    H229254   3.596   7.148   6.780
 9793TIP3   OH229255   7.430   6.523   0.290
 9793TIP3    H129256   7.355   6.580   0.274
 9793TIP3    H229257   7.502   6.564   0.242
 9794TIP3   OH229258   7.402   8.428   7.447
 9794TIP3    H129259   7.429   8.441   7.356
 9794TIP3    H229260   7.354   8.345   7.446
 9795TIP3   OH229261   8.980   3.464   3.060
 9795TIP3    H129262   8.905   3.420   3.099
 9795TIP3    H229263   8.959   3.469   2.967
 9796TIP3   OH229264   7.562   6.296   2.746
 9796TIP3    H129265   7.643   6.247   2.737
 9796TIP3    H229266   7.531   6.275   2.834
 9797TIP3   OH229267   1.083   6.412   5.443
 9797TIP3    H129268   1.037   6.360   5.377
 9797TIP3    H229269   1.028   6.407   5.521
 9798TIP3   OH229270   3.981   2.118   0.951
 9798TIP3    H129271   4.058   2.092   0.899
 9798TIP3    H229272   3.912   2.058   0.924
 9799TIP3   OH229273   0.322   0.760   0.047
 9799TIP3    H129274   0.291   0.819  -0.021
 9799TIP3    H229275   0.290   0.674   0.021
 9800TIP3   OH229276   7.822   6.596   0.253
 9800TIP3    H129277   7.907   6.615   0.294
 9800TIP3    H229278   7.825   6.502   0.234
 9801TIP3   OH229279   7.193   0.734   7.258
 9801TIP3    H129280   7.161   0.822   7.237
 9801TIP3    H229281   7.249   0.747   7.335
 9802TIP3   OH229282   0.135   2.217   5.613
 9802TIP3    H129283   0.131   2.180   5.701
 9802TIP3    H229284   0.184   2.152   5.562
 9803TIP3   OH229285   6.048   5.108   3.979
 9803TIP3    H129286   5.975   5.047   3.976
 9803TIP3    H229287   6.119   5.060   4.021
 9804TIP3   OH229288   6.989   4.061   0.500
 9804TIP3    H129289   6.910   4.085   0.549
 9804TIP3    H229290   6.978   3.968   0.480
 9805TIP3   OH229291   4.320   4.135   6.385
 9805TIP3    H129292   4.312   4.048   6.424
 9805TIP3    H229293   4.414   4.149   6.377
 9806TIP3   OH229294   3.324   6.981   6.147
 9806TIP3    H129295   3.409   6.969   6.189
 9806TIP3    H229296   3.264   6.928   6.200
 9807TIP3   OH229297   3.008   0.886   5.252
 9807TIP3    H129298   2.947   0.927   5.191
 9807TIP3    H229299   3.024   0.954   5.319
 9808TIP3   OH229300   0.597   5.037   0.198
 9808TIP3    H129301   0.625   4.947   0.215
 9808TIP3    H229302   0.622   5.053   0.107
 9809TIP3   OH229303   9.128   7.691   0.111
 9809TIP3    H129304   9.161   7.776   0.082
 9809TIP3    H229305   9.177   7.672   0.191
 9810TIP3   OH229306   9.204   2.513   6.442
 9810TIP3    H129307   9.273   2.562   6.487
 9810TIP3    H229308   9.237   2.500   6.353
 9811TIP3   OH229309   1.775   0.603   6.761
 9811TIP3    H129310   1.686   0.601   6.724
 9811TIP3    H229311   1.798   0.511   6.773
 9812TIP3   OH229312   1.250   1.508   3.510
 9812TIP3    H129313   1.157   1.524   3.530
 9812TIP3    H229314   1.294   1.515   3.595
 9813TIP3   OH229315   6.771   7.203   3.517
 9813TIP3    H129316   6.794   7.293   3.540
 9813TIP3    H229317   6.692   7.212   3.464
 9814TIP3   OH229318   5.657   5.668   4.391
 9814TIP3    H129319   5.703   5.744   4.427
 9814TIP3    H229320   5.578   5.704   4.351
 9815TIP3   OH229321   4.734   8.894   6.820
 9815TIP3    H129322   4.707   8.802   6.819
 9815TIP3    H229323   4.821   8.893   6.862
 9816TIP3   OH229324   8.059   4.411   6.652
 9816TIP3    H129325   8.001   4.336   6.637
 9816TIP3    H229326   8.071   4.449   6.564
 9817TIP3   OH229327   9.508   7.425   4.684
 9817TIP3    H129328   9.598   7.456   4.674
 9817TIP3    H229329   9.457   7.482   4.626
 9818TIP3   OH229330   5.436   3.658   7.411
 9818TIP3    H129331   5.434   3.744   7.369
 9818TIP3    H229332   5.528   3.645   7.435
 9819TIP3   OH229333   0.105   8.117   5.445
 9819TIP3    H129334   0.088   8.200   5.488
 9819TIP3    H229335   0.111   8.139   5.352
 9820TIP3   OH229336   0.062   5.380   5.215
 9820TIP3    H129337   0.044   5.465   5.176
 9820TIP3    H229338   0.018   5.381   5.299
 9821TIP3   OH229339   8.607   0.357   1.475
 9821TIP3    H129340   8.647   0.293   1.416
 9821TIP3    H229341   8.587   0.308   1.555
 9822TIP3   OH229342   5.994   5.001   6.098
 9822TIP3    H129343   5.993   5.034   6.008
 9822TIP3    H229344   5.956   4.913   6.092
 9823TIP3   OH229345   4.476   5.150   7.314
 9823TIP3    H129346   4.382   5.147   7.334
 9823TIP3    H229347   4.496   5.062   7.280
 9824TIP3   OH229348   4.687   4.132   4.732
 9824TIP3    H129349   4.699   4.225   4.753
 9824TIP3    H229350   4.621   4.102   4.795
 9825TIP3   OH229351   7.389   0.669   1.526
 9825TIP3    H129352   7.476   0.701   1.548
 9825TIP3    H229353   7.378   0.693   1.434
 9826TIP3   OH229354   1.542   1.348   2.130
 9826TIP3    H129355   1.627   1.311   2.107
 9826TIP3    H229356   1.486   1.328   2.055
 9827TIP3   OH229357   5.695   8.488   0.019
 9827TIP3    H129358   5.742   8.566   0.050
 9827TIP3    H229359   5.691   8.431   0.095
 9828TIP3   OH229360   5.485   6.996   7.394
 9828TIP3    H129361   5.418   6.951   7.344
 9828TIP3    H229362   5.567   6.951   7.373
 9829TIP3   OH229363   4.307   8.935   6.502
 9829TIP3    H129364   4.392   8.893   6.489
 9829TIP3    H229365   4.321   8.996   6.575
 9830TIP3   OH229366   8.717   3.733   3.189
 9830TIP3    H129367   8.687   3.822   3.172
 9830TIP3    H229368   8.789   3.743   3.251
 9831TIP3   OH229369   3.479   6.414   1.315
 9831TIP3    H129370   3.469   6.321   1.295
 9831TIP3    H229371   3.438   6.425   1.400
 9832TIP3   OH229372   6.832   0.980   4.824
 9832TIP3    H129373   6.868   1.063   4.795
 9832TIP3    H229374   6.797   0.998   4.911
 9833TIP3   OH229375   8.839   4.955   3.189
 9833TIP3    H129376   8.799   4.901   3.257
 9833TIP3    H229377   8.890   5.021   3.237
 9834TIP3   OH229378   9.047   0.230   5.131
 9834TIP3    H129379   9.009   0.153   5.173
 9834TIP3    H229380   9.087   0.279   5.203
 9835TIP3   OH229381   0.808   4.386   0.032
 9835TIP3    H129382   0.724   4.371   0.074
 9835TIP3    H229383   0.873   4.366   0.100
 9836TIP3   OH229384   7.909   2.680   4.213
 9836TIP3    H129385   7.863   2.626   4.278
 9836TIP3    H229386   8.001   2.677   4.240
 9837TIP3   OH229387   7.614   6.143   6.339
 9837TIP3    H129388   7.692   6.169   6.387
 9837TIP3    H229389   7.543   6.149   6.403
 9838TIP3   OH229390   7.175   1.269   4.923
 9838TIP3    H129391   7.092   1.225   4.902
 9838TIP3    H229392   7.178   1.344   4.864
 9839TIP3   OH229393   0.976   2.432   0.475
 9839TIP3    H129394   0.984   2.343   0.440
 9839TIP3    H229395   0.998   2.488   0.401
 9840TIP3   OH229396   2.826   0.307   1.752
 9840TIP3    H129397   2.836   0.388   1.801
 9840TIP3    H229398   2.749   0.265   1.791
 9841TIP3   OH229399   7.885   6.329   5.434
 9841TIP3    H129400   7.927   6.243   5.437
 9841TIP3    H229401   7.902   6.367   5.520
 9842TIP3   OH229402   1.930   1.051   3.890
 9842TIP3    H129403   2.001   0.988   3.900
 9842TIP3    H229404   1.860   1.000   3.848
 9843TIP3   OH229405   1.538   3.477   6.806
 9843TIP3    H129406   1.468   3.421   6.838
 9843TIP3    H229407   1.587   3.502   6.884
 9844TIP3   OH229408   9.453   8.663   5.715
 9844TIP3    H129409   9.382   8.692   5.773
 9844TIP3    H229410   9.425   8.687   5.627
 9845TIP3   OH229411   5.598   7.485   6.515
 9845TIP3    H129412   5.645   7.440   6.585
 9845TIP3    H229413   5.547   7.415   6.473
 9846TIP3   OH229414   4.841   5.441   1.160
 9846TIP3    H129415   4.870   5.376   1.223
 9846TIP3    H229416   4.920   5.464   1.111
 9847TIP3   OH229417   4.148   2.924   2.036
 9847TIP3    H129418   4.078   2.898   1.975
 9847TIP3    H229419   4.103   2.971   2.105
 9848TIP3   OH229420   8.700   6.208   2.658
 9848TIP3    H129421   8.677   6.300   2.669
 9848TIP3    H229422   8.758   6.189   2.731
 9849TIP3   OH229423   3.084   7.979   5.504
 9849TIP3    H129424   3.153   7.918   5.477
 9849TIP3    H229425   3.082   7.973   5.599
 9850TIP3   OH229426   3.349   1.935   7.492
 9850TIP3    H129427   3.263   1.899   7.471
 9850TIP3    H229428   3.331   2.000   7.560
 9851TIP3   OH229429   2.788   7.317   4.024
 9851TIP3    H129430   2.698   7.286   4.038
 9851TIP3    H229431   2.810   7.284   3.937
 9852TIP3   OH229432   5.991   6.940   6.200
 9852TIP3    H129433   6.018   6.925   6.109
 9852TIP3    H229434   6.040   6.874   6.250
 9853TIP3   OH229435   0.569   1.338   5.278
 9853TIP3    H129436   0.593   1.247   5.297
 9853TIP3    H229437   0.478   1.334   5.250
 9854TIP3   OH229438   1.778   8.594   0.928
 9854TIP3    H129439   1.786   8.521   0.867
 9854TIP3    H229440   1.846   8.579   0.993
 9855TIP3   OH229441   0.096   3.971   6.542
 9855TIP3    H129442   0.042   3.969   6.463
 9855TIP3    H229443   0.134   3.883   6.546
 9856TIP3   OH229444   6.366   1.159   1.762
 9856TIP3    H129445   6.311   1.128   1.689
 9856TIP3    H229446   6.340   1.105   1.836
 9857TIP3   OH229447   3.449   8.359   4.238
 9857TIP3    H129448   3.436   8.293   4.305
 9857TIP3    H229449   3.372   8.416   4.244
 9858TIP3   OH229450   5.805   4.966   4.595
 9858TIP3    H129451   5.803   5.002   4.506
 9858TIP3    H229452   5.738   5.016   4.642
 9859TIP3   OH229453   3.346   2.974   5.049
 9859TIP3    H129454   3.302   3.049   5.090
 9859TIP3    H229455   3.335   2.988   4.955
 9860TIP3   OH229456   6.064   1.173   0.721
 9860TIP3    H129457   6.094   1.221   0.644
 9860TIP3    H229458   6.087   1.082   0.704
 9861TIP3   OH229459   6.573   2.241   0.378
 9861TIP3    H129460   6.585   2.211   0.468
 9861TIP3    H229461   6.484   2.275   0.375
 9862TIP3   OH229462   6.332   7.857   3.209
 9862TIP3    H129463   6.294   7.894   3.288
 9862TIP3    H229464   6.387   7.926   3.173
 9863TIP3   OH229465   1.213   3.466   2.656
 9863TIP3    H129466   1.240   3.377   2.637
 9863TIP3    H229467   1.122   3.471   2.626
 9864TIP3   OH229468   2.407   7.885   0.108
 9864TIP3    H129469   2.342   7.955   0.094
 9864TIP3    H229470   2.474   7.901   0.042
 9865TIP3   OH229471   3.498   6.856   5.847
 9865TIP3    H129472   3.420   6.816   5.808
 9865TIP3    H229473   3.502   6.944   5.808
 9866TIP3   OH229474   0.943   2.991   1.178
 9866TIP3    H129475   0.999   2.996   1.101
 9866TIP3    H229476   0.890   2.913   1.164
 9867TIP3   OH229477   6.506   7.387   2.877
 9867TIP3    H129478   6.497   7.366   2.784
 9867TIP3    H229479   6.518   7.301   2.919
 9868TIP3   OH229480   3.923   0.644   0.327
 9868TIP3    H129481   3.913   0.578   0.258
 9868TIP3    H229482   3.970   0.716   0.285
 9869TIP3   OH229483   6.868   1.129   2.227
 9869TIP3    H129484   6.923   1.197   2.265
 9869TIP3    H229485   6.828   1.084   2.302
 9870TIP3   OH229486   1.104   8.723   2.431
 9870TIP3    H129487   1.142   8.750   2.347
 9870TIP3    H229488   1.081   8.806   2.474
 9871TIP3   OH229489   5.995   8.487   7.461
 9871TIP3    H129490   5.953   8.570   7.438
 9871TIP3    H229491   5.974   8.429   7.387
 9872TIP3   OH229492   1.642   0.270   2.168
 9872TIP3    H129493   1.638   0.218   2.249
 9872TIP3    H229494   1.569   0.238   2.116
 9873TIP3   OH229495   2.036   1.931   4.554
 9873TIP3    H129496   2.115   1.964   4.512
 9873TIP3    H229497   1.965   1.956   4.495
 9874TIP3   OH229498   2.976   0.624   4.748
 9874TIP3    H129499   2.906   0.625   4.683
 9874TIP3    H229500   3.023   0.706   4.734
 9875TIP3   OH229501   3.439   2.057   2.932
 9875TIP3    H129502   3.527   2.021   2.920
 9875TIP3    H229503   3.420   2.101   2.849
 9876TIP3   OH229504   8.075   5.678   2.789
 9876TIP3    H129505   8.103   5.769   2.798
 9876TIP3    H229506   8.052   5.668   2.697
 9877TIP3   OH229507   6.371   1.177   6.636
 9877TIP3    H129508   6.465   1.187   6.623
 9877TIP3    H229509   6.358   1.082   6.645
 9878TIP3   OH229510   5.793   2.768   3.883
 9878TIP3    H129511   5.846   2.848   3.878
 9878TIP3    H229512   5.856   2.698   3.898
 9879TIP3   OH229513   1.272   8.529   1.189
 9879TIP3    H129514   1.241   8.544   1.278
 9879TIP3    H229515   1.291   8.435   1.185
 9880TIP3   OH229516   6.505   5.562   5.258
 9880TIP3    H129517   6.524   5.521   5.173
 9880TIP3    H229518   6.497   5.655   5.238
 9881TIP3   OH229519   1.631   7.390   0.201
 9881TIP3    H129520   1.567   7.432   0.144
 9881TIP3    H229521   1.606   7.417   0.289
 9882TIP3   OH229522   2.858   5.949   0.062
 9882TIP3    H129523   2.891   5.865   0.028
 9882TIP3    H229524   2.880   5.947   0.155
 9883TIP3   OH229525   1.205   0.125   3.769
 9883TIP3    H129526   1.225   0.162   3.683
 9883TIP3    H229527   1.275   0.155   3.826
 9884TIP3   OH229528   1.672   4.077   1.983
 9884TIP3    H129529   1.577   4.072   1.994
 9884TIP3    H229530   1.705   3.994   2.017
 9885TIP3   OH229531   6.909   6.038   1.315
 9885TIP3    H129532   6.875   5.955   1.283
 9885TIP3    H229533   7.004   6.031   1.301
 9886TIP3   OH229534   3.938   6.694   6.888
 9886TIP3    H129535   3.888   6.754   6.942
 9886TIP3    H229536   4.003   6.749   6.845
 9887TIP3   OH229537   5.979   0.425   5.907
 9887TIP3    H129538   5.944   0.368   5.839
 9887TIP3    H229539   5.964   0.514   5.874
 9888TIP3   OH229540   6.783   4.447   3.508
 9888TIP3    H129541   6.699   4.411   3.481
 9888TIP3    H229542   6.767   4.486   3.594
 9889TIP3   OH229543   7.636   3.128   4.922
 9889TIP3    H129544   7.683   3.154   4.843
 9889TIP3    H229545   7.574   3.061   4.892
 9890TIP3   OH229546   6.006   7.762   0.208
 9890TIP3    H129547   5.941   7.719   0.153
 9890TIP3    H229548   6.070   7.798   0.147
 9891TIP3   OH229549   5.563   5.068   2.754
 9891TIP3    H129550   5.506   5.135   2.715
 9891TIP3    H229551   5.628   5.049   2.686
 9892TIP3   OH229552   2.461   4.952   2.123
 9892TIP3    H129553   2.471   5.017   2.193
 9892TIP3    H229554   2.369   4.960   2.096
 9893TIP3   OH229555   9.483   2.932   2.201
 9893TIP3    H129556   9.392   2.912   2.180
 9893TIP3    H229557   9.534   2.885   2.135
 9894TIP3   OH229558   6.564   2.698   6.300
 9894TIP3    H129559   6.518   2.642   6.237
 9894TIP3    H229560   6.647   2.719   6.259
 9895TIP3   OH229561   3.493   5.932   1.869
 9895TIP3    H129562   3.405   5.961   1.894
 9895TIP3    H229563   3.552   5.989   1.918
 9896TIP3   OH229564   2.615   2.128   5.076
 9896TIP3    H129565   2.603   2.033   5.085
 9896TIP3    H229566   2.650   2.156   5.160
 9897TIP3   OH229567   2.295   7.034   2.182
 9897TIP3    H129568   2.295   7.118   2.227
 9897TIP3    H229569   2.210   7.029   2.139
 9898TIP3   OH229570   3.653   2.122   3.298
 9898TIP3    H129571   3.647   2.033   3.263
 9898TIP3    H229572   3.682   2.175   3.223
 9899TIP3   OH229573   3.466   6.002   0.637
 9899TIP3    H129574   3.376   5.976   0.616
 9899TIP3    H229575   3.475   6.091   0.603
 9900TIP3   OH229576   3.384   8.951   4.176
 9900TIP3    H129577   3.405   9.034   4.218
 9900TIP3    H229578   3.299   8.926   4.213
 9901TIP3   OH229579   0.566   8.952   3.576
 9901TIP3    H129580   0.617   9.010   3.632
 9901TIP3    H229581   0.623   8.934   3.501
 9902TIP3   OH229582   9.027   2.129   5.425
 9902TIP3    H129583   9.093   2.082   5.477
 9902TIP3    H229584   8.955   2.067   5.416
 9903TIP3   OH229585   4.029   2.092   3.218
 9903TIP3    H129586   3.990   2.057   3.299
 9903TIP3    H229587   4.083   2.020   3.185
 9904TIP3   OH229588   1.140   4.074   2.680
 9904TIP3    H129589   1.057   4.079   2.632
 9904TIP3    H229590   1.188   4.004   2.637
 9905TIP3   OH229591   3.565   6.080   2.578
 9905TIP3    H129592   3.526   6.127   2.652
 9905TIP3    H229593   3.603   6.149   2.524
 9906TIP3   OH229594   9.142   8.914   3.768
 9906TIP3    H129595   9.184   8.830   3.750
 9906TIP3    H229596   9.213   8.978   3.759
 9907TIP3   OH229597   3.268   1.828   4.245
 9907TIP3    H129598   3.229   1.740   4.247
 9907TIP3    H229599   3.339   1.823   4.309
 9908TIP3   OH229600   1.924   6.434   3.255
 9908TIP3    H129601   1.834   6.465   3.263
 9908TIP3    H229602   1.959   6.482   3.180
 9909TIP3   OH229603   1.979   8.734   5.521
 9909TIP3    H129604   2.065   8.720   5.482
 9909TIP3    H229605   1.944   8.810   5.474
 9910TIP3   OH229606   8.850   2.094   6.826
 9910TIP3    H129607   8.912   2.078   6.755
 9910TIP3    H229608   8.779   2.031   6.811
 9911TIP3   OH229609   9.249   8.371   0.037
 9911TIP3    H129610   9.207   8.414   0.111
 9911TIP3    H229611   9.236   8.277   0.053
 9912TIP3   OH229612   8.742   1.887   1.411
 9912TIP3    H129613   8.798   1.889   1.489
 9912TIP3    H229614   8.655   1.869   1.446
 9913TIP3   OH229615   8.307   4.983   5.056
 9913TIP3    H129616   8.321   4.941   5.141
 9913TIP3    H229617   8.364   4.935   4.996
 9914TIP3   OH229618   9.235   8.105   0.694
 9914TIP3    H129619   9.197   8.029   0.649
 9914TIP3    H229620   9.174   8.177   0.675
 9915TIP3   OH229621   5.581   4.970   5.575
 9915TIP3    H129622   5.551   5.059   5.589
 9915TIP3    H229623   5.645   4.977   5.504
 9916TIP3   OH229624   2.074   2.981   3.975
 9916TIP3    H129625   2.150   2.946   3.929
 9916TIP3    H229626   2.079   3.076   3.961
 9917TIP3   OH229627   2.231   5.269   0.727
 9917TIP3    H129628   2.200   5.202   0.788
 9917TIP3    H229629   2.267   5.337   0.784
 9918TIP3   OH229630   6.253   7.958   4.510
 9918TIP3    H129631   6.162   7.979   4.491
 9918TIP3    H229632   6.257   7.862   4.506
 9919TIP3   OH229633   8.257   5.572   1.087
 9919TIP3    H129634   8.308   5.527   1.019
 9919TIP3    H229635   8.309   5.560   1.167
 9920TIP3   OH229636   4.628   5.234   1.125
 9920TIP3    H129637   4.572   5.215   1.200
 9920TIP3    H229638   4.668   5.319   1.146
 9921TIP3   OH229639   8.553   7.356   3.137
 9921TIP3    H129640   8.539   7.427   3.074
 9921TIP3    H229641   8.635   7.316   3.108
 9922TIP3   OH229642   9.063   1.306   7.236
 9922TIP3    H129643   8.969   1.293   7.229
 9922TIP3    H229644   9.081   1.305   7.330
 9923TIP3   OH229645   7.745   2.781   0.983
 9923TIP3    H129646   7.708   2.692   0.986
 9923TIP3    H229647   7.786   2.793   1.068
 9924TIP3   OH229648   7.590   5.817   3.800
 9924TIP3    H129649   7.672   5.863   3.817
 9924TIP3    H229650   7.597   5.786   3.710
 9925TIP3   OH229651   8.318   4.783   6.279
 9925TIP3    H129652   8.377   4.814   6.347
 9925TIP3    H229653   8.232   4.779   6.322
 9926TIP3   OH229654   9.190   1.781   4.630
 9926TIP3    H129655   9.161   1.835   4.556
 9926TIP3    H229656   9.182   1.838   4.706
 9927TIP3   OH229657   8.198   3.158   6.395
 9927TIP3    H129658   8.276   3.168   6.340
 9927TIP3    H229659   8.140   3.229   6.369
 9928TIP3   OH229660   6.238   8.035   2.224
 9928TIP3    H129661   6.329   8.024   2.197
 9928TIP3    H229662   6.209   8.114   2.178
 9929TIP3   OH229663   3.166   3.666   2.610
 9929TIP3    H129664   3.164   3.587   2.557
 9929TIP3    H229665   3.081   3.707   2.596
 9930TIP3   OH229666   7.640   2.545   2.152
 9930TIP3    H129667   7.694   2.591   2.087
 9930TIP3    H229668   7.585   2.487   2.100
 9931TIP3   OH229669   7.055   5.890   5.093
 9931TIP3    H129670   7.140   5.846   5.086
 9931TIP3    H229671   6.993   5.819   5.111
 9932TIP3   OH229672   4.986   5.341   3.980
 9932TIP3    H129673   4.922   5.358   3.911
 9932TIP3    H229674   4.934   5.304   4.052
 9933TIP3   OH229675   4.213   1.965   7.108
 9933TIP3    H129676   4.150   1.992   7.042
 9933TIP3    H229677   4.160   1.936   7.182
 9934TIP3   OH229678   9.566   3.650   6.997
 9934TIP3    H129679   9.520   3.603   7.067
 9934TIP3    H229680   9.499   3.665   6.930
 9935TIP3   OH229681   3.222   3.724   2.309
 9935TIP3    H129682   3.216   3.633   2.338
 9935TIP3    H229683   3.155   3.732   2.241
 9936TIP3   OH229684   4.205   2.628   0.680
 9936TIP3    H129685   4.237   2.589   0.762
 9936TIP3    H229686   4.142   2.695   0.708
 9937TIP3   OH229687   6.020   6.087   6.591
 9937TIP3    H129688   6.032   6.179   6.613
 9937TIP3    H229689   5.925   6.074   6.593
 9938TIP3   OH229690   8.613   4.180   0.367
 9938TIP3    H129691   8.531   4.158   0.324
 9938TIP3    H229692   8.674   4.112   0.337
 9939TIP3   OH229693   6.775   4.720   5.660
 9939TIP3    H129694   6.687   4.749   5.636
 9939TIP3    H229695   6.763   4.632   5.696
 9940TIP3   OH229696   7.409   6.690   2.787
 9940TIP3    H129697   7.417   6.629   2.713
 9940TIP3    H229698   7.346   6.648   2.845
 9941TIP3   OH229699   5.488   4.647   2.911
 9941TIP3    H129700   5.560   4.586   2.921
 9941TIP3    H229701   5.428   4.626   2.983
 9942TIP3   OH229702   5.478   2.916   6.314
 9942TIP3    H129703   5.498   2.952   6.400
 9942TIP3    H229704   5.560   2.926   6.264
 9943TIP3   OH229705   6.709   0.157   1.898
 9943TIP3    H129706   6.633   0.103   1.920
 9943TIP3    H229707   6.675   0.221   1.835
 9944TIP3   OH229708   6.820   6.312   7.339
 9944TIP3    H129709   6.909   6.286   7.317
 9944TIP3    H229710   6.772   6.308   7.257
 9945TIP3   OH229711   4.919   1.204   4.575
 9945TIP3    H129712   4.894   1.286   4.618
 9945TIP3    H229713   4.860   1.139   4.611
 9946TIP3   OH229714   7.583   5.792   0.212
 9946TIP3    H129715   7.624   5.869   0.173
 9946TIP3    H229716   7.531   5.754   0.140
 9947TIP3   OH229717   6.563   1.303   5.239
 9947TIP3    H129718   6.497   1.270   5.178
 9947TIP3    H229719   6.536   1.267   5.324
 9948TIP3   OH229720   1.172   6.246   4.935
 9948TIP3    H129721   1.116   6.321   4.912
 9948TIP3    H229722   1.182   6.252   5.030
 9949TIP3   OH229723   2.680   7.628   7.199
 9949TIP3    H129724   2.674   7.688   7.124
 9949TIP3    H229725   2.753   7.662   7.251
 9950TIP3   OH229726   6.982   7.340   5.712
 9950TIP3    H129727   6.962   7.273   5.779
 9950TIP3    H229728   6.921   7.411   5.731
 9951TIP3   OH229729   2.415   0.737   5.931
 9951TIP3    H129730   2.415   0.665   5.869
 9951TIP3    H229731   2.333   0.783   5.914
 9952TIP3   OH229732   3.960   4.768   4.672
 9952TIP3    H129733   4.037   4.729   4.712
 9952TIP3    H229734   3.893   4.764   4.740
 9953TIP3   OH229735   7.456   3.657   2.598
 9953TIP3    H129736   7.438   3.564   2.612
 9953TIP3    H229737   7.519   3.658   2.525
 9954TIP3   OH229738   8.467   1.160   5.489
 9954TIP3    H129739   8.445   1.244   5.527
 9954TIP3    H229740   8.450   1.096   5.559
 9955TIP3   OH229741   2.271   5.466   0.899
 9955TIP3    H129742   2.195   5.471   0.957
 9955TIP3    H229743   2.346   5.473   0.958
 9956TIP3   OH229744   6.240   5.503   1.871
 9956TIP3    H129745   6.261   5.539   1.958
 9956TIP3    H229746   6.289   5.421   1.867
 9957TIP3   OH229747   8.316   2.648   5.183
 9957TIP3    H129748   8.370   2.628   5.106
 9957TIP3    H229749   8.226   2.636   5.153
 9958TIP3   OH229750   5.709   3.542   1.887
 9958TIP3    H129751   5.634   3.483   1.895
 9958TIP3    H229752   5.682   3.622   1.933
 9959TIP3   OH229753   3.989   3.500   1.243
 9959TIP3    H129754   3.966   3.413   1.277
 9959TIP3    H229755   3.969   3.495   1.150
 9960TIP3   OH229756   1.278   7.380   0.472
 9960TIP3    H129757   1.368   7.411   0.463
 9960TIP3    H229758   1.263   7.328   0.393
 9961TIP3   OH229759   4.906   8.323   4.878
 9961TIP3    H129760   4.968   8.385   4.916
 9961TIP3    H229761   4.961   8.255   4.839
 9962TIP3   OH229762   3.198   8.394   2.862
 9962TIP3    H129763   3.207   8.484   2.828
 9962TIP3    H229764   3.289   8.365   2.874
 9963TIP3   OH229765   4.725   8.138   6.651
 9963TIP3    H129766   4.706   8.212   6.594
 9963TIP3    H229767   4.812   8.109   6.624
 9964TIP3   OH229768   3.573   2.052   7.380
 9964TIP3    H129769   3.502   2.003   7.420
 9964TIP3    H229770   3.558   2.143   7.406
 9965TIP3   OH229771   0.641   6.306   5.198
 9965TIP3    H129772   0.580   6.324   5.270
 9965TIP3    H229773   0.621   6.372   5.132
 9966TIP3   OH229774   7.534   0.492   1.712
 9966TIP3    H129775   7.555   0.480   1.805
 9966TIP3    H229776   7.584   0.424   1.667
 9967TIP3   OH229777   6.987   5.733   2.997
 9967TIP3    H129778   6.924   5.682   3.049
 9967TIP3    H229779   7.055   5.670   2.974
 9968TIP3   OH229780   0.732   2.372   4.135
 9968TIP3    H129781   0.745   2.399   4.044
 9968TIP3    H229782   0.725   2.454   4.184
 9969TIP3   OH229783   4.374   7.640   2.133
 9969TIP3    H129784   4.381   7.615   2.225
 9969TIP3    H229785   4.306   7.708   2.132
 9970TIP3   OH229786   6.440   2.906   4.088
 9970TIP3    H129787   6.525   2.940   4.060
 9970TIP3    H229788   6.416   2.960   4.163
 9971TIP3   OH229789   4.590   0.891   3.939
 9971TIP3    H129790   4.613   0.984   3.936
 9971TIP3    H229791   4.499   0.890   3.969
 9972TIP3   OH229792   8.877   8.995   6.380
 9972TIP3    H129793   8.967   8.980   6.408
 9972TIP3    H229794   8.871   9.089   6.366
 9973TIP3   OH229795   7.324   1.031   2.762
 9973TIP3    H129796   7.284   1.061   2.681
 9973TIP3    H229797   7.394   1.093   2.780
 9974TIP3   OH229798   5.506   3.367   1.898
 9974TIP3    H129799   5.567   3.294   1.896
 9974TIP3    H229800   5.432   3.334   1.950
 9975TIP3   OH229801   7.400   5.002   0.729
 9975TIP3    H129802   7.447   4.951   0.664
 9975TIP3    H229803   7.438   4.977   0.812
 9976TIP3   OH229804   8.601   2.310   2.529
 9976TIP3    H129805   8.623   2.225   2.569
 9976TIP3    H229806   8.673   2.368   2.554
 9977TIP3   OH229807   3.787   6.566   4.999
 9977TIP3    H129808   3.733   6.506   4.947
 9977TIP3    H229809   3.818   6.512   5.072
 9978TIP3   OH229810   0.529   1.321   0.414
 9978TIP3    H129811   0.603   1.280   0.457
 9978TIP3    H229812   0.500   1.257   0.349
 9979TIP3   OH229813   9.272   1.996   5.217
 9979TIP3    H129814   9.351   1.944   5.202
 9979TIP3    H229815   9.284   2.031   5.305
 9980TIP3   OH229816   2.793   7.017   5.980
 9980TIP3    H129817   2.887   7.021   5.994
 9980TIP3    H229818   2.762   7.107   5.995
 9981TIP3   OH229819   5.128   7.508   1.148
 9981TIP3    H129820   5.125   7.604   1.155
 9981TIP3    H229821   5.193   7.481   1.214
 9982TIP3   OH229822   6.964   0.554   5.511
 9982TIP3    H129823   6.980   0.645   5.537
 9982TIP3    H229824   7.009   0.501   5.576
 9983TIP3   OH229825   2.495   2.278   0.484
 9983TIP3    H129826   2.540   2.199   0.515
 9983TIP3    H229827   2.421   2.245   0.434
 9984TIP3   OH229828   3.261   2.701   0.998
 9984TIP3    H129829   3.348   2.733   1.021
 9984TIP3    H229830   3.277   2.628   0.938
 9985TIP3   OH229831   3.493   7.562   0.473
 9985TIP3    H129832   3.426   7.498   0.449
 9985TIP3    H229833   3.492   7.564   0.568
 9986TIP3   OH229834   8.747   7.171   4.470
 9986TIP3    H129835   8.758   7.118   4.549
 9986TIP3    H229836   8.778   7.258   4.496
 9987TIP3   OH229837   0.026   8.593   3.845
 9987TIP3    H129838  -0.048   8.558   3.795
 9987TIP3    H229839  -0.004   8.678   3.876
 9988TIP3   OH229840   6.278   4.964   4.620
 9988TIP3    H129841   6.357   4.982   4.568
 9988TIP3    H229842   6.216   5.033   4.594
 9989TIP3   OH229843   3.006   8.812   1.948
 9989TIP3    H129844   3.063   8.834   1.874
 9989TIP3    H229845   2.918   8.814   1.911
 9990TIP3   OH229846   0.050   4.149   3.427
 9990TIP3    H129847   0.101   4.223   3.393
 9990TIP3    H229848   0.058   4.156   3.522
 9991TIP3   OH229849   8.305   4.605   4.767
 9991TIP3    H129850   8.390   4.633   4.799
 9991TIP3    H229851   8.243   4.637   4.833
 9992TIP3   OH229852   2.270   3.347   1.301
 9992TIP3    H129853   2.296   3.259   1.276
 9992TIP3    H229854   2.316   3.364   1.384
 9993TIP3   OH229855   4.216   8.732   2.302
 9993TIP3    H129856   4.282   8.737   2.371
 9993TIP3    H229857   4.266   8.727   2.221
 9994TIP3   OH229858   0.719   6.143   6.927
 9994TIP3    H129859   0.770   6.218   6.898
 9994TIP3    H229860   0.649   6.135   6.861
 9995TIP3   OH229861   1.159   3.505   2.355
 9995TIP3    H129862   1.075   3.461   2.343
 9995TIP3    H229863   1.223   3.433   2.359
 9996TIP3   OH229864   6.789   8.167   5.503
 9996TIP3    H129865   6.725   8.237   5.508
 9996TIP3    H229866   6.738   8.088   5.483
 9997TIP3   OH229867   2.606   4.230   3.205
 9997TIP3    H129868   2.681   4.289   3.200
 9997TIP3    H229869   2.636   4.159   3.262
 9998TIP3   OH229870   2.834   4.713   1.165
 9998TIP3    H129871   2.828   4.635   1.220
 9998TIP3    H229872   2.927   4.736   1.167
 9999TIP3   OH229873   2.104   1.748   0.106
 9999TIP3    H129874   2.038   1.801   0.062
 9999TIP3    H229875   2.154   1.708   0.035
10000TIP3   OH229876   1.239   1.159   7.768
10000TIP3    H129877   1.275   1.089   7.823
10000TIP3    H229878   1.187   1.212   7.828
10001TIP3   OH229879   3.633   2.325   3.481
10001TIP3    H129880   3.646   2.401   3.424
10001TIP3    H229881   3.645   2.249   3.424
10002TIP3   OH229882   0.457   2.910   0.751
10002TIP3    H129883   0.446   3.002   0.728
10002TIP3    H229884   0.493   2.912   0.839
10003TIP3   OH229885   4.906   8.765   6.495
10003TIP3    H129886   4.980   8.764   6.556
10003TIP3    H229887   4.871   8.854   6.501
10004TIP3   OH229888   3.987   2.365   3.306
10004TIP3    H129889   4.032   2.285   3.333
10004TIP3    H229890   4.036   2.396   3.230
10005TIP3   OH229891   2.036   2.332   1.835
10005TIP3    H129892   2.043   2.281   1.916
10005TIP3    H229893   1.942   2.340   1.820
10006TIP3   OH229894   8.776   5.901   0.990
10006TIP3    H129895   8.771   5.828   1.051
10006TIP3    H229896   8.696   5.896   0.939
10007TIP3   OH229897   9.424   8.078   3.907
10007TIP3    H129898   9.479   8.015   3.955
10007TIP3    H229899   9.340   8.033   3.897
10008TIP3   OH229900   3.766   2.639   4.971
10008TIP3    H129901   3.739   2.553   4.941
10008TIP3    H229902   3.791   2.627   5.063
10009TIP3   OH229903   1.413   3.906   1.320
10009TIP3    H129904   1.374   3.844   1.258
10009TIP3    H229905   1.340   3.934   1.375
10010TIP3   OH229906   8.570   7.973   5.014
10010TIP3    H129907   8.621   7.958   4.935
10010TIP3    H229908   8.486   7.929   4.998
10011TIP3   OH229909   1.044   1.021   2.171
10011TIP3    H129910   1.057   1.116   2.169
10011TIP3    H229911   0.985   1.003   2.098
10012TIP3   OH229912   7.500   8.839   5.039
10012TIP3    H129913   7.455   8.861   5.120
10012TIP3    H229914   7.584   8.802   5.067
10013TIP3   OH229915   0.598   8.291   5.139
10013TIP3    H129916   0.521   8.245   5.175
10013TIP3    H229917   0.659   8.222   5.116
10014TIP3   OH229918   5.985   5.145   2.443
10014TIP3    H129919   5.902   5.109   2.411
10014TIP3    H229920   5.963   5.188   2.525
10015TIP3   OH229921   8.878   5.017   0.395
10015TIP3    H129922   8.849   4.931   0.427
10015TIP3    H229923   8.965   5.002   0.360
10016TIP3   OH229924   6.762   8.674   2.129
10016TIP3    H129925   6.758   8.609   2.198
10016TIP3    H229926   6.850   8.667   2.094
10017TIP3   OH229927   8.129   8.255   7.535
10017TIP3    H129928   8.043   8.217   7.555
10017TIP3    H229929   8.133   8.257   7.440
10018TIP3   OH229930   5.689   8.046   3.970
10018TIP3    H129931   5.678   8.141   3.975
10018TIP3    H229932   5.715   8.029   3.880
10019TIP3   OH229933   3.309   7.774   3.692
10019TIP3    H129934   3.398   7.740   3.704
10019TIP3    H229935   3.264   7.752   3.774
10020TIP3   OH229936   9.095   0.077   1.070
10020TIP3    H129937   9.025   0.139   1.089
10020TIP3    H229938   9.066   0.031   0.991
10021TIP3   OH229939   5.325   7.114   1.274
10021TIP3    H129940   5.329   7.045   1.340
10021TIP3    H229941   5.237   7.150   1.281
10022TIP3   OH229942   5.641   3.718   3.871
10022TIP3    H129943   5.725   3.695   3.912
10022TIP3    H229944   5.601   3.634   3.850
10023TIP3   OH229945   1.726   1.920   6.488
10023TIP3    H129946   1.780   1.862   6.540
10023TIP3    H229947   1.720   1.877   6.402
10024TIP3   OH229948   8.594   1.738   6.207
10024TIP3    H129949   8.537   1.770   6.137
10024TIP3    H229950   8.673   1.790   6.200
10025TIP3   OH229951   0.012   2.401   7.688
10025TIP3    H129952  -0.002   2.316   7.729
10025TIP3    H229953  -0.060   2.409   7.625
10026TIP3   OH229954   5.253   3.346   5.813
10026TIP3    H129955   5.303   3.426   5.799
10026TIP3    H229956   5.251   3.335   5.908
10027TIP3   OH229957   6.773   5.869   1.152
10027TIP3    H129958   6.796   5.824   1.071
10027TIP3    H229959   6.750   5.958   1.125
10028TIP3   OH229960   6.189   8.395   3.884
10028TIP3    H129961   6.134   8.324   3.916
10028TIP3    H229962   6.275   8.355   3.873
10029TIP3   OH229963   7.365   5.354   7.059
10029TIP3    H129964   7.338   5.383   7.146
10029TIP3    H229965   7.286   5.314   7.021
10030TIP3   OH229966   4.282   0.386   5.596
10030TIP3    H129967   4.276   0.308   5.540
10030TIP3    H229968   4.223   0.368   5.669
10031TIP3   OH229969   8.689   5.312   5.631
10031TIP3    H129970   8.678   5.401   5.663
10031TIP3    H229971   8.645   5.257   5.696
10032TIP3   OH229972   1.713   2.767   5.302
10032TIP3    H129973   1.749   2.762   5.391
10032TIP3    H229974   1.751   2.846   5.265
10033TIP3   OH229975   3.199   6.958   1.089
10033TIP3    H129976   3.140   6.984   1.019
10033TIP3    H229977   3.153   6.982   1.170
10034TIP3   OH229978   7.314   3.772   1.945
10034TIP3    H129979   7.261   3.842   1.908
10034TIP3    H229980   7.404   3.792   1.920
10035TIP3   OH229981   3.071   8.214   2.716
10035TIP3    H129982   3.121   8.280   2.764
10035TIP3    H229983   3.022   8.167   2.783
10036TIP3   OH229984   4.393   6.763   0.197
10036TIP3    H129985   4.340   6.815   0.138
10036TIP3    H229986   4.484   6.782   0.173
10037TIP3   OH229987   7.586   6.237   4.819
10037TIP3    H129988   7.595   6.166   4.881
10037TIP3    H229989   7.618   6.314   4.865
10038TIP3   OH229990   2.534   4.869   6.982
10038TIP3    H129991   2.628   4.874   6.966
10038TIP3    H229992   2.525   4.852   7.076
10039TIP3   OH229993   3.884   2.530   0.536
10039TIP3    H129994   3.929   2.526   0.452
10039TIP3    H229995   3.932   2.469   0.592
10040TIP3   OH229996   1.224   8.951   4.077
10040TIP3    H129997   1.221   8.871   4.128
10040TIP3    H229998   1.218   8.921   3.986
10041TIP3   OH229999   2.873   7.921   1.218
10041TIP3    H130000   2.953   7.959   1.254
10041TIP3    H230001   2.863   7.962   1.132
10042TIP3   OH230002   6.939   5.669   0.200
10042TIP3    H130003   6.855   5.706   0.228
10042TIP3    H230004   6.916   5.582   0.166
10043TIP3   OH230005   1.827   2.715   2.018
10043TIP3    H130006   1.825   2.764   1.936
10043TIP3    H230007   1.747   2.740   2.064
10044TIP3   OH230008   5.715   6.594   2.397
10044TIP3    H130009   5.716   6.658   2.469
10044TIP3    H230010   5.657   6.633   2.331
10045TIP3   OH230011   7.254   6.817   5.845
10045TIP3    H130012   7.264   6.833   5.939
10045TIP3    H230013   7.343   6.807   5.812
10046TIP3   OH230014   6.440   1.839   5.723
10046TIP3    H130015   6.440   1.906   5.791
10046TIP3    H230016   6.395   1.880   5.649
10047TIP3   OH230017   7.794   2.544   7.514
10047TIP3    H130018   7.877   2.506   7.543
10047TIP3    H230019   7.749   2.472   7.471
10048TIP3   OH230020   4.029   3.327   4.557
10048TIP3    H130021   4.083   3.262   4.513
10048TIP3    H230022   3.997   3.384   4.487
10049TIP3   OH230023   9.315   1.721   5.421
10049TIP3    H130024   9.238   1.775   5.407
10049TIP3    H230025   9.367   1.731   5.341
10050TIP3   OH230026   2.967   8.998   7.525
10050TIP3    H130027   2.915   9.029   7.451
10050TIP3    H230028   2.969   9.072   7.586
10051TIP3   OH230029   5.484   8.523   4.876
10051TIP3    H130030   5.477   8.458   4.806
10051TIP3    H230031   5.485   8.607   4.831
10052TIP3   OH230032   6.476   7.687   1.563
10052TIP3    H130033   6.494   7.599   1.596
10052TIP3    H230034   6.561   7.730   1.561
10053TIP3   OH230035   5.137   1.867   1.581
10053TIP3    H130036   5.141   1.892   1.488
10053TIP3    H230037   5.048   1.891   1.608
10054TIP3   OH230038   4.977   7.959   4.021
10054TIP3    H130039   4.942   8.010   4.094
10054TIP3    H230040   4.932   7.875   4.027
10055TIP3   OH230041   8.678   4.992   6.228
10055TIP3    H130042   8.723   4.943   6.158
10055TIP3    H230043   8.654   5.075   6.187
10056TIP3   OH230044   9.508   8.128   0.723
10056TIP3    H130045   9.417   8.127   0.692
10056TIP3    H230046   9.554   8.071   0.662
10057TIP3   OH230047   6.388   4.153   4.177
10057TIP3    H130048   6.394   4.081   4.113
10057TIP3    H230049   6.298   4.150   4.208
10058TIP3   OH230050   6.824   2.612   4.633
10058TIP3    H130051   6.792   2.647   4.716
10058TIP3    H230052   6.843   2.689   4.580
10059TIP3   OH230053   1.621   8.970   6.799
10059TIP3    H130054   1.566   8.894   6.819
10059TIP3    H230055   1.654   8.998   6.884
10060TIP3   OH230056   0.372   4.746   6.358
10060TIP3    H130057   0.319   4.758   6.279
10060TIP3    H230058   0.381   4.651   6.367
10061TIP3   OH230059   9.221   8.276   7.596
10061TIP3    H130060   9.231   8.186   7.627
10061TIP3    H230061   9.202   8.268   7.503
10062TIP3   OH230062   2.691   1.123   4.955
10062TIP3    H130063   2.728   1.064   4.890
10062TIP3    H230064   2.760   1.130   5.022
10063TIP3   OH230065   0.490   6.380   0.694
10063TIP3    H130066   0.498   6.474   0.680
10063TIP3    H230067   0.422   6.352   0.632
10064TIP3   OH230068   4.643   6.922   0.224
10064TIP3    H130069   4.591   6.980   0.167
10064TIP3    H230070   4.644   6.968   0.309
10065TIP3   OH230071   0.697   3.492   4.224
10065TIP3    H130072   0.661   3.410   4.256
10065TIP3    H230073   0.633   3.524   4.160
10066TIP3   OH230074   9.323   6.298   5.262
10066TIP3    H130075   9.390   6.324   5.198
10066TIP3    H230076   9.245   6.348   5.237
10067TIP3   OH230077   5.560   6.724   4.896
10067TIP3    H130078   5.566   6.803   4.843
10067TIP3    H230079   5.571   6.755   4.986
10068TIP3   OH230080   8.209   8.846   2.106
10068TIP3    H130081   8.254   8.818   2.027
10068TIP3    H230082   8.156   8.921   2.079
10069TIP3   OH230083   8.862   0.071   6.653
10069TIP3    H130084   8.936   0.126   6.678
10069TIP3    H230085   8.887  -0.017   6.680
10070TIP3   OH230086   8.579   3.724   6.070
10070TIP3    H130087   8.586   3.757   6.160
10070TIP3    H230088   8.651   3.661   6.062
10071TIP3   OH230089   0.904   0.199   5.901
10071TIP3    H130090   0.914   0.243   5.816
10071TIP3    H230091   0.933   0.264   5.965
10072TIP3   OH230092   0.207   0.053   4.378
10072TIP3    H130093   0.160   0.120   4.328
10072TIP3    H230094   0.277   0.101   4.422
10073TIP3   OH230095   6.506   8.122   7.199
10073TIP3    H130096   6.573   8.175   7.158
10073TIP3    H230097   6.499   8.156   7.289
10074TIP3   OH230098   2.001   6.911   1.224
10074TIP3    H130099   2.087   6.922   1.265
10074TIP3    H230100   1.943   6.967   1.275
10075TIP3   OH230101   5.323   5.185   2.710
10075TIP3    H130102   5.253   5.248   2.726
10075TIP3    H230103   5.358   5.164   2.796
10076TIP3   OH230104   5.585   2.212   7.319
10076TIP3    H130105   5.558   2.234   7.229
10076TIP3    H230106   5.523   2.144   7.346
10077TIP3   OH230107   2.940   5.645   5.730
10077TIP3    H130108   2.929   5.551   5.719
10077TIP3    H230109   2.854   5.675   5.760
10078TIP3   OH230110   1.110   8.109   6.911
10078TIP3    H130111   1.132   8.102   7.004
10078TIP3    H230112   1.184   8.157   6.873
10079TIP3   OH230113   5.577   0.512   4.981
10079TIP3    H130114   5.599   0.586   5.038
10079TIP3    H230115   5.482   0.514   4.975
10080TIP3   OH230116   2.413   0.661   5.477
10080TIP3    H130117   2.401   0.755   5.468
10080TIP3    H230118   2.470   0.651   5.553
10081TIP3   OH230119   6.890   6.957   7.165
10081TIP3    H130120   6.808   6.993   7.197
10081TIP3    H230121   6.926   7.025   7.109
10082TIP3   OH230122   0.239   3.752   0.404
10082TIP3    H130123   0.250   3.721   0.494
10082TIP3    H230124   0.155   3.798   0.405
10083TIP3   OH230125   7.272   8.223   6.662
10083TIP3    H130126   7.233   8.136   6.669
10083TIP3    H230127   7.297   8.231   6.570
10084TIP3   OH230128   4.500   3.781   5.460
10084TIP3    H130129   4.446   3.703   5.471
10084TIP3    H230130   4.522   3.783   5.367
10085TIP3   OH230131   1.862   4.761   4.315
10085TIP3    H130132   1.783   4.763   4.261
10085TIP3    H230133   1.921   4.823   4.274
10086TIP3   OH230134   1.075   1.118   6.921
10086TIP3    H130135   1.159   1.146   6.958
10086TIP3    H230136   1.092   1.030   6.887
10087TIP3   OH230137   5.694   6.183   2.341
10087TIP3    H130138   5.667   6.266   2.381
10087TIP3    H230139   5.756   6.146   2.402
10088TIP3   OH230140   2.190   2.257   3.815
10088TIP3    H130141   2.160   2.323   3.877
10088TIP3    H230142   2.283   2.246   3.835
10089TIP3   OH230143   8.144   4.626   7.045
10089TIP3    H130144   8.186   4.659   6.965
10089TIP3    H230145   8.142   4.531   7.033
10090TIP3   OH230146   0.695   1.238   2.724
10090TIP3    H130147   0.647   1.296   2.783
10090TIP3    H230148   0.787   1.263   2.737
10091TIP3   OH230149   0.440   7.025   2.984
10091TIP3    H130150   0.424   6.994   2.895
10091TIP3    H230151   0.363   6.997   3.034
10092TIP3   OH230152   8.784   7.591   5.078
10092TIP3    H130153   8.842   7.658   5.041
10092TIP3    H230154   8.735   7.559   5.002
10093TIP3   OH230155   8.890   6.893   1.892
10093TIP3    H130156   8.910   6.802   1.867
10093TIP3    H230157   8.910   6.896   1.986
10094TIP3   OH230158   0.432   5.113   2.411
10094TIP3    H130159   0.369   5.049   2.444
10094TIP3    H230160   0.406   5.129   2.321
10095TIP3   OH230161   1.523   1.204   2.896
10095TIP3    H130162   1.506   1.117   2.860
10095TIP3    H230163   1.524   1.191   2.991
10096TIP3   OH230164   5.138   4.199   2.279
10096TIP3    H130165   5.210   4.140   2.300
10096TIP3    H230166   5.154   4.226   2.188
10097TIP3   OH230167   0.343   2.502   2.235
10097TIP3    H130168   0.279   2.505   2.306
10097TIP3    H230169   0.299   2.454   2.165
10098TIP3   OH230170   2.524   4.355   1.783
10098TIP3    H130171   2.553   4.416   1.851
10098TIP3    H230172   2.459   4.300   1.827
10099TIP3   OH230173   6.633   6.040   4.950
10099TIP3    H130174   6.612   6.095   5.025
10099TIP3    H230175   6.729   6.045   4.942
10100TIP3   OH230176   1.364   5.327   2.673
10100TIP3    H130177   1.436   5.306   2.731
10100TIP3    H230178   1.287   5.288   2.715
10101TIP3   OH230179   5.530   6.041   6.571
10101TIP3    H130180   5.570   5.994   6.498
10101TIP3    H230181   5.498   6.123   6.533
10102TIP3   OH230182   2.045   4.311   4.247
10102TIP3    H130183   2.035   4.342   4.337
10102TIP3    H230184   1.971   4.349   4.200
10103TIP3   OH230185   1.626   6.975   3.126
10103TIP3    H130186   1.645   6.893   3.079
10103TIP3    H230187   1.533   6.991   3.109
10104TIP3   OH230188   5.673   8.875   7.683
10104TIP3    H130189   5.633   8.958   7.659
10104TIP3    H230190   5.665   8.820   7.605
10105TIP3   OH230191   4.642   8.454   7.098
10105TIP3    H130192   4.568   8.472   7.155
10105TIP3    H230193   4.697   8.393   7.148
10106TIP3   OH230194   2.789   5.884   2.327
10106TIP3    H130195   2.754   5.960   2.374
10106TIP3    H230196   2.882   5.883   2.351
10107TIP3   OH230197   3.233   5.722   1.674
10107TIP3    H130198   3.170   5.681   1.615
10107TIP3    H230199   3.182   5.743   1.752
10108TIP3   OH230200   8.860   1.001   6.991
10108TIP3    H130201   8.939   0.950   7.008
10108TIP3    H230202   8.790   0.952   7.035
10109TIP3   OH230203   9.429   6.847   2.630
10109TIP3    H130204   9.491   6.774   2.640
10109TIP3    H230205   9.432   6.868   2.537
10110TIP3   OH230206   0.257   0.417   3.695
10110TIP3    H130207   0.278   0.371   3.776
10110TIP3    H230208   0.161   0.414   3.690
10111TIP3   OH230209   5.161   5.396   2.769
10111TIP3    H130210   5.096   5.345   2.818
10111TIP3    H230211   5.224   5.424   2.835
10112TIP3   OH230212   0.975   3.255   5.973
10112TIP3    H130213   1.058   3.252   5.925
10112TIP3    H230214   0.983   3.186   6.039
10113TIP3   OH230215   3.650   1.640   7.112
10113TIP3    H130216   3.591   1.696   7.163
10113TIP3    H230217   3.609   1.635   7.026
10114TIP3   OH230218   2.114   4.171   6.616
10114TIP3    H130219   2.049   4.211   6.674
10114TIP3    H230220   2.173   4.243   6.593
10115TIP3   OH230221   5.927   6.064   3.209
10115TIP3    H130222   5.988   6.039   3.140
10115TIP3    H230223   5.944   6.002   3.281
10116TIP3   OH230224   1.047   3.104   5.492
10116TIP3    H130225   0.975   3.043   5.477
10116TIP3    H230226   1.101   3.062   5.559
10117TIP3   OH230227   1.627   0.897   7.177
10117TIP3    H130228   1.627   0.927   7.086
10117TIP3    H230229   1.720   0.879   7.195
10118TIP3   OH230230   6.735   7.744   1.461
10118TIP3    H130231   6.739   7.823   1.514
10118TIP3    H230232   6.820   7.702   1.472
10119TIP3   OH230233   1.399   8.335   6.052
10119TIP3    H130234   1.348   8.404   6.009
10119TIP3    H230235   1.440   8.379   6.127
10120TIP3   OH230236   5.220   0.199   4.681
10120TIP3    H130237   5.224   0.157   4.766
10120TIP3    H230238   5.294   0.163   4.632
10121TIP3   OH230239   1.372   5.285   1.208
10121TIP3    H130240   1.335   5.197   1.202
10121TIP3    H230241   1.312   5.333   1.265
10122TIP3   OH230242   6.749   4.532   4.681
10122TIP3    H130243   6.773   4.509   4.591
10122TIP3    H230244   6.680   4.469   4.704
10123TIP3   OH230245   0.714   3.506   4.570
10123TIP3    H130246   0.649   3.465   4.512
10123TIP3    H230247   0.791   3.449   4.562
10124TIP3   OH230248   1.293   1.905   7.563
10124TIP3    H130249   1.276   1.888   7.470
10124TIP3    H230250   1.231   1.973   7.586
10125TIP3   OH230251   4.250   0.254   3.612
10125TIP3    H130252   4.300   0.172   3.607
10125TIP3    H230253   4.309   0.320   3.577
10126TIP3   OH230254   4.314   6.821   6.105
10126TIP3    H130255   4.334   6.886   6.037
10126TIP3    H230256   4.223   6.796   6.088
10127TIP3   OH230257   3.362   0.234   0.200
10127TIP3    H130258   3.371   0.152   0.152
10127TIP3    H230259   3.451   0.256   0.228
10128TIP3   OH230260   8.801   4.489   2.249
10128TIP3    H130261   8.891   4.465   2.273
10128TIP3    H230262   8.804   4.584   2.238
10129TIP3   OH230263   4.889   2.195   3.007
10129TIP3    H130264   4.891   2.211   2.912
10129TIP3    H230265   4.894   2.100   3.015
10130TIP3   OH230266   6.667   3.386   6.240
10130TIP3    H130267   6.679   3.291   6.247
10130TIP3    H230268   6.751   3.417   6.206
10131TIP3   OH230269   7.685   8.283   4.757
10131TIP3    H130270   7.603   8.313   4.794
10131TIP3    H230271   7.751   8.344   4.791
10132TIP3   OH230272   4.189   3.693   3.369
10132TIP3    H130273   4.271   3.742   3.363
10132TIP3    H230274   4.165   3.676   3.278
10133TIP3   OH230275   9.411   5.607   2.844
10133TIP3    H130276   9.327   5.609   2.798
10133TIP3    H230277   9.390   5.636   2.933
10134TIP3   OH230278   2.944   5.268   0.926
10134TIP3    H130279   2.855   5.250   0.957
10134TIP3    H230280   2.980   5.181   0.906
10135TIP3   OH230281   0.814   4.688   2.883
10135TIP3    H130282   0.845   4.775   2.858
10135TIP3    H230283   0.750   4.705   2.952
10136TIP3   OH230284   3.477   2.869   1.102
10136TIP3    H130285   3.507   2.886   1.191
10136TIP3    H230286   3.444   2.953   1.071
10137TIP3   OH230287   3.063   3.165   5.871
10137TIP3    H130288   3.080   3.241   5.815
10137TIP3    H230289   2.967   3.160   5.876
10138TIP3   OH230290   4.480   8.188   4.444
10138TIP3    H130291   4.432   8.261   4.482
10138TIP3    H230292   4.495   8.215   4.353
10139TIP3   OH230293   8.574   3.886   6.951
10139TIP3    H130294   8.488   3.925   6.937
10139TIP3    H230295   8.592   3.836   6.871
10140TIP3   OH230296   9.065   2.214   1.917
10140TIP3    H130297   9.005   2.229   1.844
10140TIP3    H230298   9.023   2.146   1.969
10141TIP3   OH230299   2.047   1.392   5.659
10141TIP3    H130300   2.097   1.466   5.693
10141TIP3    H230301   2.006   1.353   5.737
10142TIP3   OH230302   6.718   6.022   2.433
10142TIP3    H130303   6.796   6.000   2.485
10142TIP3    H230304   6.746   6.010   2.342
10143TIP3   OH230305   4.597   4.753   0.084
10143TIP3    H130306   4.540   4.812   0.034
10143TIP3    H230307   4.570   4.665   0.056
10144TIP3   OH230308   2.613   0.819   4.776
10144TIP3    H130309   2.680   0.761   4.741
10144TIP3    H230310   2.606   0.795   4.868
10145TIP3   OH230311   2.987   2.033   1.198
10145TIP3    H130312   3.008   2.039   1.105
10145TIP3    H230313   2.992   2.124   1.229
10146TIP3   OH230314   0.769   6.428   3.921
10146TIP3    H130315   0.795   6.518   3.900
10146TIP3    H230316   0.747   6.431   4.015
10147TIP3   OH230317   8.764   7.361   1.516
10147TIP3    H130318   8.698   7.292   1.509
10147TIP3    H230319   8.793   7.358   1.607
10148TIP3   OH230320   4.992   6.269   1.367
10148TIP3    H130321   4.989   6.237   1.277
10148TIP3    H230322   5.060   6.216   1.409
10149TIP3   OH230323   4.488   0.967   6.071
10149TIP3    H130324   4.535   0.916   6.006
10149TIP3    H230325   4.526   1.054   6.066
10150TIP3   OH230326   9.234   8.928   0.149
10150TIP3    H130327   9.279   8.864   0.093
10150TIP3    H230328   9.182   8.874   0.209
10151TIP3   OH230329   0.511   8.823   4.868
10151TIP3    H130330   0.544   8.792   4.952
10151TIP3    H230331   0.420   8.848   4.885
10152TIP3   OH230332   1.737   6.420   3.716
10152TIP3    H130333   1.785   6.490   3.761
10152TIP3    H230334   1.804   6.371   3.670
10153TIP3   OH230335   4.772   1.768   6.179
10153TIP3    H130336   4.698   1.797   6.233
10153TIP3    H230337   4.744   1.788   6.090
10154TIP3   OH230338   1.810   2.075   2.610
10154TIP3    H130339   1.895   2.034   2.594
10154TIP3    H230340   1.748   2.020   2.561
10155TIP3   OH230341   2.254   4.422   6.571
10155TIP3    H130342   2.179   4.472   6.603
10155TIP3    H230343   2.330   4.468   6.606
10156TIP3   OH230344   3.726   7.990   1.422
10156TIP3    H130345   3.642   7.992   1.376
10156TIP3    H230346   3.706   7.951   1.507
10157TIP3   OH230347   7.928   1.990   4.153
10157TIP3    H130348   7.910   2.016   4.063
10157TIP3    H230349   7.969   1.904   4.145
10158TIP3   OH230350   0.839   6.674   5.145
10158TIP3    H130351   0.917   6.631   5.180
10158TIP3    H230352   0.852   6.767   5.165
10159TIP3   OH230353   5.442   8.650   4.460
10159TIP3    H130354   5.383   8.701   4.515
10159TIP3    H230355   5.437   8.692   4.374
10160TIP3   OH230356   9.343   4.345   2.503
10160TIP3    H130357   9.342   4.398   2.423
10160TIP3    H230358   9.374   4.406   2.571
10161TIP3   OH230359   7.297   1.008   6.101
10161TIP3    H130360   7.327   1.003   6.011
10161TIP3    H230361   7.377   1.010   6.154
10162TIP3   OH230362   0.935   4.043   4.676
10162TIP3    H130363   1.026   4.039   4.648
10162TIP3    H230364   0.893   3.968   4.633
10163TIP3   OH230365   5.496   2.920   3.598
10163TIP3    H130366   5.479   2.904   3.505
10163TIP3    H230367   5.450   3.002   3.617
10164TIP3   OH230368   5.945   8.245   5.578
10164TIP3    H130369   5.906   8.185   5.514
10164TIP3    H230370   5.932   8.332   5.540
10165TIP3   OH230371   9.051   0.489   4.494
10165TIP3    H130372   9.047   0.574   4.538
10165TIP3    H230373   9.020   0.427   4.561
10166TIP3   OH230374   5.257   8.682   1.778
10166TIP3    H130375   5.273   8.700   1.685
10166TIP3    H230376   5.210   8.760   1.809
10167TIP3   OH230377   4.954   6.263   4.954
10167TIP3    H130378   4.978   6.182   4.909
10167TIP3    H230379   5.035   6.313   4.959
10168TIP3   OH230380   1.110   2.833   6.872
10168TIP3    H130381   1.096   2.795   6.785
10168TIP3    H230382   1.028   2.815   6.919
10169TIP3   OH230383   5.890   8.623   6.417
10169TIP3    H130384   5.816   8.569   6.390
10169TIP3    H230385   5.870   8.710   6.381
10170TIP3   OH230386   5.887   1.086   4.169
10170TIP3    H130387   5.851   1.158   4.221
10170TIP3    H230388   5.847   1.007   4.205
10171TIP3   OH230389   7.622   2.475   1.497
10171TIP3    H130390   7.641   2.566   1.517
10171TIP3    H230391   7.622   2.431   1.581
10172TIP3   OH230392   9.080   1.343   7.533
10172TIP3    H130393   9.054   1.433   7.510
10172TIP3    H230394   9.014   1.315   7.596
10173TIP3   OH230395   0.065   8.361   5.564
10173TIP3    H130396   0.099   8.409   5.488
10173TIP3    H230397   0.113   8.398   5.638
10174TIP3   OH230398   3.752   1.120   0.655
10174TIP3    H130399   3.691   1.050   0.634
10174TIP3    H230400   3.811   1.082   0.719
10175TIP3   OH230401   0.350   8.690   1.384
10175TIP3    H130402   0.360   8.722   1.295
10175TIP3    H230403   0.316   8.766   1.433
10176TIP3   OH230404   6.161   3.705   3.868
10176TIP3    H130405   6.121   3.626   3.833
10176TIP3    H230406   6.255   3.690   3.863
10177TIP3   OH230407   1.316   2.586   0.167
10177TIP3    H130408   1.223   2.599   0.187
10177TIP3    H230409   1.336   2.655   0.103
10178TIP3   OH230410   8.056   8.815   2.333
10178TIP3    H130411   8.047   8.907   2.358
10178TIP3    H230412   8.108   8.816   2.253
10179TIP3   OH230413   6.887   8.532   6.726
10179TIP3    H130414   6.924   8.495   6.646
10179TIP3    H230415   6.919   8.623   6.727
10180TIP3   OH230416   8.537   4.179   2.197
10180TIP3    H130417   8.581   4.121   2.134
10180TIP3    H230418   8.445   4.179   2.168
10181TIP3   OH230419   6.298   6.139   4.736
10181TIP3    H130420   6.390   6.118   4.722
10181TIP3    H230421   6.256   6.124   4.652
10182TIP3   OH230422   3.298   0.854   4.570
10182TIP3    H130423   3.346   0.776   4.595
10182TIP3    H230424   3.240   0.872   4.645
10183TIP3   OH230425   0.504   1.565   0.516
10183TIP3    H130426   0.492   1.476   0.484
10183TIP3    H230427   0.508   1.619   0.437
10184TIP3   OH230428   4.750   5.131   6.235
10184TIP3    H130429   4.738   5.053   6.289
10184TIP3    H230430   4.825   5.175   6.275
10185TIP3   OH230431   6.052   7.110   5.756
10185TIP3    H130432   6.044   7.046   5.827
10185TIP3    H230433   5.995   7.182   5.782
10186TIP3   OH230434   4.448   5.027   3.188
10186TIP3    H130435   4.530   5.060   3.150
10186TIP3    H230436   4.463   5.031   3.283
10187TIP3   OH230437   1.592   4.527   5.352
10187TIP3    H130438   1.551   4.489   5.430
10187TIP3    H230439   1.636   4.453   5.310
10188TIP3   OH230440   9.148   1.397   5.049
10188TIP3    H130441   9.062   1.357   5.048
10188TIP3    H230442   9.180   1.384   5.139
10189TIP3   OH230443   4.872   5.875   4.521
10189TIP3    H130444   4.964   5.895   4.504
10189TIP3    H230445   4.824   5.936   4.465
10190TIP3   OH230446   7.883   2.514   2.416
10190TIP3    H130447   7.841   2.586   2.369
10190TIP3    H230448   7.829   2.437   2.395
10191TIP3   OH230449   9.541   2.270   4.146
10191TIP3    H130450   9.567   2.222   4.224
10191TIP3    H230451   9.458   2.230   4.119
10192TIP3   OH230452   2.088   2.176   3.075
10192TIP3    H130453   2.128   2.253   3.114
10192TIP3    H230454   2.129   2.102   3.121
10193TIP3   OH230455   4.603   0.170   4.128
10193TIP3    H130456   4.544   0.094   4.123
10193TIP3    H230457   4.689   0.135   4.103
10194TIP3   OH230458   1.645   2.117   2.194
10194TIP3    H130459   1.648   2.024   2.170
10194TIP3    H230460   1.733   2.137   2.224
10195TIP3   OH230461   5.557   1.761   6.484
10195TIP3    H130462   5.595   1.767   6.571
10195TIP3    H230463   5.594   1.680   6.448
10196TIP3   OH230464   8.961   8.729   1.599
10196TIP3    H130465   8.909   8.683   1.665
10196TIP3    H230466   8.952   8.675   1.520
10197TIP3   OH230467   0.434   2.767   2.237
10197TIP3    H130468   0.449   2.783   2.144
10197TIP3    H230469   0.410   2.674   2.242
10198TIP3   OH230470   1.862   3.273   6.818
10198TIP3    H130471   1.909   3.314   6.890
10198TIP3    H230472   1.788   3.228   6.860
10199TIP3   OH230473   4.421   0.067   4.379
10199TIP3    H130474   4.434   0.162   4.388
10199TIP3    H230475   4.424   0.051   4.284
10200TIP3   OH230476   6.585   5.552   7.116
10200TIP3    H130477   6.611   5.583   7.029
10200TIP3    H230478   6.585   5.457   7.109
10201TIP3   OH230479   1.598   7.964   4.921
10201TIP3    H130480   1.617   7.897   4.987
10201TIP3    H230481   1.684   7.987   4.885
10202TIP3   OH230482   3.010   0.715   1.608
10202TIP3    H130483   2.936   0.714   1.669
10202TIP3    H230484   2.988   0.648   1.543
10203TIP3   OH230485   0.279   5.167   5.167
10203TIP3    H130486   0.241   5.080   5.163
10203TIP3    H230487   0.226   5.214   5.232
10204TIP3   OH230488   4.111   5.526   2.464
10204TIP3    H130489   4.199   5.497   2.440
10204TIP3    H230490   4.064   5.532   2.381
10205TIP3   OH230491   5.208   0.329   6.985
10205TIP3    H130492   5.288   0.290   7.019
10205TIP3    H230493   5.140   0.303   7.048
10206TIP3   OH230494   6.431   6.589   2.219
10206TIP3    H130495   6.345   6.562   2.188
10206TIP3    H230496   6.423   6.684   2.233
10207TIP3   OH230497   7.146   0.068   6.909
10207TIP3    H130498   7.122   0.019   6.830
10207TIP3    H230499   7.114   0.014   6.981
10208TIP3   OH230500   8.434   1.072   5.892
10208TIP3    H130501   8.521   1.113   5.882
10208TIP3    H230502   8.373   1.143   5.874
10209TIP3   OH230503   6.833   5.205   5.939
10209TIP3    H130504   6.863   5.289   5.904
10209TIP3    H230505   6.765   5.176   5.878
10210TIP3   OH230506   1.636   4.874   2.821
10210TIP3    H130507   1.721   4.842   2.852
10210TIP3    H230508   1.594   4.909   2.900
10211TIP3   OH230509   0.622   8.949   0.382
10211TIP3    H130510   0.633   8.853   0.381
10211TIP3    H230511   0.697   8.982   0.333
10212TIP3   OH230512   5.181   2.897   5.525
10212TIP3    H130513   5.234   2.818   5.534
10212TIP3    H230514   5.103   2.869   5.477
10213TIP3   OH230515   9.534   6.738   4.475
10213TIP3    H130516   9.469   6.791   4.523
10213TIP3    H230517   9.527   6.768   4.385
10214TIP3   OH230518   1.122   5.196   3.174
10214TIP3    H130519   1.075   5.232   3.250
10214TIP3    H230520   1.157   5.273   3.129
10215TIP3   OH230521   2.904   8.872   6.802
10215TIP3    H130522   2.984   8.909   6.840
10215TIP3    H230523   2.840   8.875   6.873
10216TIP3   OH230524   7.564   5.334   6.152
10216TIP3    H130525   7.593   5.411   6.103
10216TIP3    H230526   7.570   5.262   6.090
10217TIP3   OH230527   5.324   7.696   6.473
10217TIP3    H130528   5.412   7.699   6.511
10217TIP3    H230529   5.332   7.636   6.399
10218TIP3   OH230530   7.582   5.657   2.610
10218TIP3    H130531   7.562   5.622   2.523
10218TIP3    H230532   7.625   5.741   2.593
10219TIP3   OH230533   0.787   6.525   1.158
10219TIP3    H130534   0.801   6.436   1.124
10219TIP3    H230535   0.869   6.571   1.138
10220TIP3   OH230536   4.385   0.288   2.254
10220TIP3    H130537   4.333   0.302   2.333
10220TIP3    H230538   4.329   0.319   2.183
10221TIP3   OH230539   2.412   3.800   4.002
10221TIP3    H130540   2.351   3.729   4.022
10221TIP3    H230541   2.413   3.804   3.906
10222TIP3   OH230542   9.472   4.549   7.081
10222TIP3    H130543   9.563   4.532   7.104
10222TIP3    H230544   9.448   4.626   7.131
10223TIP3   OH230545   3.981   2.241   0.652
10223TIP3    H130546   3.895   2.221   0.616
10223TIP3    H230547   4.042   2.217   0.582
10224TIP3   OH230548   9.467   0.422   3.754
10224TIP3    H130549   9.427   0.375   3.827
10224TIP3    H230550   9.414   0.397   3.678
10225TIP3   OH230551   4.916   1.641   0.187
10225TIP3    H130552   4.929   1.557   0.232
10225TIP3    H230553   4.836   1.629   0.136
10226TIP3   OH230554   4.748   5.170   3.859
10226TIP3    H130555   4.810   5.102   3.832
10226TIP3    H230556   4.747   5.164   3.954
10227TIP3   OH230557   3.549   5.488   5.211
10227TIP3    H130558   3.499   5.457   5.286
10227TIP3    H230559   3.614   5.548   5.248
10228TIP3   OH230560   0.254   2.712   7.197
10228TIP3    H130561   0.185   2.736   7.259
10228TIP3    H230562   0.321   2.779   7.210
10229TIP3   OH230563   3.948   6.879   5.370
10229TIP3    H130564   3.915   6.962   5.405
10229TIP3    H230565   3.898   6.865   5.290
10230TIP3   OH230566   5.158   5.499   1.156
10230TIP3    H130567   5.139   5.517   1.248
10230TIP3    H230568   5.167   5.404   1.151
10231TIP3   OH230569   5.069   2.402   7.200
10231TIP3    H130570   5.015   2.329   7.170
10231TIP3    H230571   5.079   2.458   7.123
10232TIP3   OH230572   2.266   1.576   4.121
10232TIP3    H130573   2.289   1.669   4.111
10232TIP3    H230574   2.301   1.553   4.207
10233TIP3   OH230575   7.980   8.475   1.592
10233TIP3    H130576   7.914   8.441   1.654
10233TIP3    H230577   7.938   8.550   1.550
10234TIP3   OH230578   5.142  -0.001   5.370
10234TIP3    H130579   5.126   0.066   5.436
10234TIP3    H230580   5.230   0.017   5.338
10235TIP3   OH230581   3.890   8.407   2.775
10235TIP3    H130582   3.804   8.366   2.767
10235TIP3    H230583   3.878   8.477   2.838
10236TIP3   OH230584   7.147   4.869   2.143
10236TIP3    H130585   7.178   4.781   2.167
10236TIP3    H230586   7.213   4.902   2.082
10237TIP3   OH230587   7.964   1.940   2.960
10237TIP3    H130588   7.949   1.880   3.034
10237TIP3    H230589   8.023   1.892   2.902
10238TIP3   OH230590   5.614   7.375   3.020
10238TIP3    H130591   5.573   7.376   2.933
10238TIP3    H230592   5.672   7.299   3.018
10239TIP3   OH230593   5.539   0.400   1.932
10239TIP3    H130594   5.526   0.480   1.983
10239TIP3    H230595   5.618   0.416   1.881
10240TIP3   OH230596   6.658   8.389   5.450
10240TIP3    H130597   6.699   8.467   5.413
10240TIP3    H230598   6.621   8.418   5.533
10241TIP3   OH230599   2.074   0.395   2.682
10241TIP3    H130600   2.139   0.326   2.696
10241TIP3    H230601   2.077   0.447   2.763
10242TIP3   OH230602   3.400   8.072   3.250
10242TIP3    H130603   3.410   8.008   3.321
10242TIP3    H230604   3.306   8.076   3.235
10243TIP3   OH230605   5.373   2.879   6.923
10243TIP3    H130606   5.279   2.869   6.936
10243TIP3    H230607   5.411   2.799   6.960
10244TIP3   OH230608   3.796   7.274   5.877
10244TIP3    H130609   3.833   7.229   5.801
10244TIP3    H230610   3.813   7.215   5.951
10245TIP3   OH230611   3.505   5.826   4.747
10245TIP3    H130612   3.463   5.780   4.820
10245TIP3    H230613   3.433   5.849   4.688
10246TIP3   OH230614   7.096   8.500   5.544
10246TIP3    H130615   7.069   8.504   5.452
10246TIP3    H230616   7.015   8.510   5.594
10247TIP3   OH230617   1.221   7.121   1.559
10247TIP3    H130618   1.141   7.162   1.590
10247TIP3    H230619   1.242   7.055   1.625
10248TIP3   OH230620   8.194   8.448   6.833
10248TIP3    H130621   8.215   8.360   6.866
10248TIP3    H230622   8.276   8.496   6.838
10249TIP3   OH230623   2.650   4.685   7.496
10249TIP3    H130624   2.557   4.708   7.501
10249TIP3    H230625   2.651   4.599   7.452
10250TIP3   OH230626   3.025   1.944   2.392
10250TIP3    H130627   3.094   1.883   2.417
10250TIP3    H230628   3.052   2.028   2.430
10251TIP3   OH230629   5.151   8.895   1.897
10251TIP3    H130630   5.088   8.960   1.866
10251TIP3    H230631   5.187   8.934   1.977
10252TIP3   OH230632   9.128   4.491   1.968
10252TIP3    H130633   9.055   4.543   1.933
10252TIP3    H230634   9.113   4.403   1.933
10253TIP3   OH230635   9.419   6.049   4.635
10253TIP3    H130636   9.398   5.986   4.704
10253TIP3    H230637   9.513   6.063   4.643
10254TIP3   OH230638   5.307   4.544   0.723
10254TIP3    H130639   5.277   4.458   0.693
10254TIP3    H230640   5.326   4.592   0.642
10255TIP3   OH230641   4.356   2.789   0.284
10255TIP3    H130642   4.379   2.697   0.275
10255TIP3    H230643   4.416   2.835   0.224
10256TIP3   OH230644   6.830   0.461   5.144
10256TIP3    H130645   6.813   0.367   5.156
10256TIP3    H230646   6.893   0.465   5.072
10257TIP3   OH230647   6.220   2.534   2.309
10257TIP3    H130648   6.185   2.446   2.323
10257TIP3    H230649   6.260   2.531   2.223
10258TIP3   OH230650   4.886   3.598   0.351
10258TIP3    H130651   4.967   3.553   0.372
10258TIP3    H230652   4.897   3.627   0.261
10259TIP3   OH230653   0.756   3.773   5.201
10259TIP3    H130654   0.738   3.681   5.218
10259TIP3    H230655   0.850   3.776   5.182
10260TIP3   OH230656   3.857   7.079   3.657
10260TIP3    H130657   3.940   7.111   3.621
10260TIP3    H230658   3.821   7.024   3.588
10261TIP3   OH230659   3.035   7.055   0.257
10261TIP3    H130660   3.124   7.028   0.235
10261TIP3    H230661   3.043   7.097   0.343
10262TIP3   OH230662   8.300   6.733   6.140
10262TIP3    H130663   8.375   6.763   6.191
10262TIP3    H230664   8.302   6.638   6.148
10263TIP3   OH230665   3.692   5.009   0.377
10263TIP3    H130666   3.691   4.915   0.362
10263TIP3    H230667   3.609   5.040   0.340
10264TIP3   OH230668   1.756   3.342   5.387
10264TIP3    H130669   1.774   3.268   5.444
10264TIP3    H230670   1.831   3.401   5.400
10265TIP3   OH230671   3.197   5.149   6.418
10265TIP3    H130672   3.213   5.181   6.329
10265TIP3    H230673   3.141   5.072   6.406
10266TIP3   OH230674   6.624   0.551   5.324
10266TIP3    H130675   6.694   0.538   5.261
10266TIP3    H230676   6.595   0.641   5.310
10267TIP3   OH230677   2.575   8.081   7.281
10267TIP3    H130678   2.500   8.137   7.301
10267TIP3    H230679   2.577   8.077   7.186
10268TIP3   OH230680   7.041   2.871   2.016
10268TIP3    H130681   6.964   2.925   2.035
10268TIP3    H230682   7.084   2.862   2.101
10269TIP3   OH230683   7.482   3.086   5.289
10269TIP3    H130684   7.479   3.177   5.319
10269TIP3    H230685   7.398   3.073   5.245
10270TIP3   OH230686   3.883   6.179   2.893
10270TIP3    H130687   3.940   6.102   2.899
10270TIP3    H230688   3.836   6.180   2.976
10271TIP3   OH230689   1.425   6.709   2.895
10271TIP3    H130690   1.482   6.695   2.971
10271TIP3    H230691   1.340   6.731   2.933
10272TIP3   OH230692   3.232   5.031   5.695
10272TIP3    H130693   3.262   4.952   5.739
10272TIP3    H230694   3.242   5.100   5.761
10273TIP3   OH230695   1.819   1.371   0.720
10273TIP3    H130696   1.800   1.326   0.638
10273TIP3    H230697   1.743   1.355   0.775
10274TIP3   OH230698   1.762   1.361   3.996
10274TIP3    H130699   1.697   1.417   4.039
10274TIP3    H230700   1.841   1.415   3.991
10275TIP3   OH230701   5.552   7.800   1.731
10275TIP3    H130702   5.623   7.848   1.688
10275TIP3    H230703   5.485   7.866   1.749
10276TIP3   OH230704   4.458   0.980   5.389
10276TIP3    H130705   4.408   1.048   5.344
10276TIP3    H230706   4.534   0.965   5.333
10277TIP3   OH230707   3.830   6.140   4.202
10277TIP3    H130708   3.915   6.109   4.232
10277TIP3    H230709   3.768   6.107   4.268
10278TIP3   OH230710   5.923   1.867   4.279
10278TIP3    H130711   5.923   1.847   4.186
10278TIP3    H230712   5.834   1.848   4.308
10279TIP3   OH230713   5.954   0.881   1.695
10279TIP3    H130714   5.989   0.932   1.623
10279TIP3    H230715   5.987   0.792   1.681
10280TIP3   OH230716   2.721   2.767   5.759
10280TIP3    H130717   2.783   2.754   5.831
10280TIP3    H230718   2.769   2.818   5.694
10281TIP3   OH230719   8.733   6.076   1.950
10281TIP3    H130720   8.826   6.095   1.956
10281TIP3    H230721   8.721   6.000   2.008
10282TIP3   OH230722   0.597   2.996   3.289
10282TIP3    H130723   0.558   3.078   3.257
10282TIP3    H230724   0.642   2.959   3.213
10283TIP3   OH230725   2.073   0.812   3.382
10283TIP3    H130726   2.096   0.858   3.301
10283TIP3    H230727   2.045   0.882   3.442
10284TIP3   OH230728   4.459   3.617   1.155
10284TIP3    H130729   4.388   3.554   1.149
10284TIP3    H230730   4.416   3.701   1.170
10285TIP3   OH230731   6.440   6.596   7.365
10285TIP3    H130732   6.424   6.685   7.334
10285TIP3    H230733   6.368   6.545   7.329
10286TIP3   OH230734   6.842   2.311   3.655
10286TIP3    H130735   6.786   2.351   3.722
10286TIP3    H230736   6.824   2.218   3.660
10287TIP3   OH230737   0.422   8.715   3.636
10287TIP3    H130738   0.490   8.777   3.611
10287TIP3    H230739   0.369   8.763   3.701
10288TIP3   OH230740   5.864   3.221   4.911
10288TIP3    H130741   5.841   3.190   4.824
10288TIP3    H230742   5.912   3.148   4.951
10289TIP3   OH230743   6.979   8.122   3.781
10289TIP3    H130744   7.001   8.215   3.773
10289TIP3    H230745   7.063   8.077   3.783
10290TIP3   OH230746   8.232   3.841   2.379
10290TIP3    H130747   8.185   3.761   2.403
10290TIP3    H230748   8.176   3.912   2.410
10291TIP3   OH230749   6.609   8.264   1.481
10291TIP3    H130750   6.616   8.273   1.386
10291TIP3    H230751   6.566   8.179   1.494
10292TIP3   OH230752   1.633   5.796   2.186
10292TIP3    H130753   1.607   5.881   2.219
10292TIP3    H230754   1.691   5.815   2.112
10293TIP3   OH230755   4.972   3.424   1.853
10293TIP3    H130756   4.980   3.416   1.948
10293TIP3    H230757   4.925   3.345   1.826
10294TIP3   OH230758   6.071   6.644   6.747
10294TIP3    H130759   6.134   6.585   6.787
10294TIP3    H230760   6.009   6.664   6.816
10295TIP3   OH230761   2.895   6.582   7.661
10295TIP3    H130762   2.806   6.604   7.687
10295TIP3    H230763   2.950   6.647   7.707
10296TIP3   OH230764   7.225   2.196   6.650
10296TIP3    H130765   7.156   2.250   6.610
10296TIP3    H230766   7.199   2.106   6.630
10297TIP3   OH230767   5.434   8.107   7.799
10297TIP3    H130768   5.434   8.203   7.792
10297TIP3    H230769   5.435   8.090   7.893
10298TIP3   OH230770   4.261   0.370   4.890
10298TIP3    H130771   4.334   0.411   4.936
10298TIP3    H230772   4.296   0.286   4.859
10299TIP3   OH230773   1.179   6.531   4.983
10299TIP3    H130774   1.274   6.528   4.983
10299TIP3    H230775   1.155   6.551   5.074
10300TIP3   OH230776   5.801   3.720   5.327
10300TIP3    H130777   5.840   3.717   5.414
10300TIP3    H230778   5.708   3.734   5.342
10301TIP3   OH230779   9.512   8.062   4.338
10301TIP3    H130780   9.585   8.122   4.323
10301TIP3    H230781   9.454   8.111   4.397
10302TIP3   OH230782   5.047   8.517   1.594
10302TIP3    H130783   5.101   8.453   1.640
10302TIP3    H230784   5.109   8.583   1.563
10303TIP3   OH230785   0.075   1.777   7.434
10303TIP3    H130786   0.150   1.746   7.485
10303TIP3    H230787   0.114   1.823   7.360
10304TIP3   OH230788   1.597   4.940   5.199
10304TIP3    H130789   1.524   4.958   5.139
10304TIP3    H230790   1.671   4.924   5.141
10305TIP3   OH230791   0.629   5.271   1.522
10305TIP3    H130792   0.605   5.209   1.453
10305TIP3    H230793   0.667   5.345   1.475
10306TIP3   OH230794   2.268   5.533   7.176
10306TIP3    H130795   2.215   5.575   7.244
10306TIP3    H230796   2.353   5.521   7.217
10307TIP3   OH230797   5.129   8.978   2.765
10307TIP3    H130798   5.064   9.029   2.716
10307TIP3    H230799   5.171   8.923   2.699
10308TIP3   OH230800   6.434   7.707   0.409
10308TIP3    H130801   6.425   7.799   0.384
10308TIP3    H230802   6.521   7.701   0.449
10309TIP3   OH230803   2.978   6.454   2.221
10309TIP3    H130804   2.890   6.417   2.229
10309TIP3    H230805   2.976   6.533   2.275
10310TIP3   OH230806   1.320   8.146   3.295
10310TIP3    H130807   1.299   8.053   3.302
10310TIP3    H230808   1.391   8.150   3.231
10311TIP3   OH230809   3.930   3.972   0.998
10311TIP3    H130810   3.876   4.007   1.069
10311TIP3    H230811   4.015   3.956   1.038
10312TIP3   OH230812   8.336   4.133   0.210
10312TIP3    H130813   8.296   4.103   0.129
10312TIP3    H230814   8.303   4.223   0.221
10313TIP3   OH230815   1.461   5.865   3.273
10313TIP3    H130816   1.492   5.833   3.357
10313TIP3    H230817   1.518   5.938   3.252
10314TIP3   OH230818   6.845   2.297   2.785
10314TIP3    H130819   6.884   2.295   2.873
10314TIP3    H230820   6.862   2.385   2.753
10315TIP3   OH230821   8.638   5.554   5.723
10315TIP3    H130822   8.694   5.568   5.799
10315TIP3    H230823   8.549   5.571   5.756
10316TIP3   OH230824   5.965   4.143   4.074
10316TIP3    H130825   5.889   4.178   4.121
10316TIP3    H230826   6.031   4.129   4.142
10317TIP3   OH230827   5.037   3.855   3.429
10317TIP3    H130828   5.098   3.912   3.476
10317TIP3    H230829   5.011   3.907   3.353
10318TIP3   OH230830   7.639   0.172   4.832
10318TIP3    H130831   7.659   0.243   4.770
10318TIP3    H230832   7.647   0.213   4.918
10319TIP3   OH230833   8.833   4.258   4.609
10319TIP3    H130834   8.746   4.219   4.620
10319TIP3    H230835   8.869   4.263   4.697
10320TIP3   OH230836   2.935   8.362   6.769
10320TIP3    H130837   2.928   8.273   6.805
10320TIP3    H230838   2.847   8.398   6.779
10321TIP3   OH230839   8.064   7.840   2.051
10321TIP3    H130840   8.098   7.756   2.020
10321TIP3    H230841   8.049   7.827   2.144
10322TIP3   OH230842   5.295   3.342   3.491
10322TIP3    H130843   5.373   3.387   3.456
10322TIP3    H230844   5.222   3.386   3.449
10323TIP3   OH230845   5.888   0.043   3.332
10323TIP3    H130846   5.871   0.089   3.414
10323TIP3    H230847   5.881  -0.050   3.355
10324TIP3   OH230848   2.023   2.133   0.256
10324TIP3    H130849   1.948   2.193   0.257
10324TIP3    H230850   1.985   2.046   0.266
10325TIP3   OH230851   2.489   0.377   3.580
10325TIP3    H130852   2.421   0.311   3.570
10325TIP3    H230853   2.487   0.427   3.498
10326TIP3   OH230854   0.529   1.790   4.595
10326TIP3    H130855   0.464   1.733   4.636
10326TIP3    H230856   0.482   1.834   4.525
10327TIP3   OH230857   7.758   3.023   6.038
10327TIP3    H130858   7.677   3.058   6.076
10327TIP3    H230859   7.731   2.985   5.955
10328TIP3   OH230860   3.344   0.260   0.481
10328TIP3    H130861   3.332   0.253   0.386
10328TIP3    H230862   3.287   0.193   0.517
10329TIP3   OH230863   1.938   3.525   1.045
10329TIP3    H130864   1.856   3.550   1.087
10329TIP3    H230865   1.914   3.454   0.985
10330TIP3   OH230866   6.741   8.622   3.195
10330TIP3    H130867   6.778   8.679   3.262
10330TIP3    H230868   6.749   8.672   3.114
10331TIP3   OH230869   2.762   8.549   2.420
10331TIP3    H130870   2.840   8.593   2.388
10331TIP3    H230871   2.694   8.617   2.419
10332TIP3   OH230872   8.554   2.669   3.188
10332TIP3    H130873   8.546   2.574   3.195
10332TIP3    H230874   8.630   2.690   3.243
10333TIP3   OH230875   6.530   8.632   4.179
10333TIP3    H130876   6.490   8.695   4.239
10333TIP3    H230877   6.468   8.624   4.107
10334TIP3   OH230878   1.579   1.986   1.856
10334TIP3    H130879   1.588   1.940   1.939
10334TIP3    H230880   1.520   2.058   1.874
10335TIP3   OH230881   3.031   8.507   0.985
10335TIP3    H130882   2.952   8.557   1.004
10335TIP3    H230883   3.023   8.428   1.039
10336TIP3   OH230884   4.674   1.747   1.968
10336TIP3    H130885   4.608   1.797   1.920
10336TIP3    H230886   4.631   1.664   1.988
10337TIP3   OH230887   0.471   2.184   3.900
10337TIP3    H130888   0.472   2.213   3.808
10337TIP3    H230889   0.379   2.188   3.926
10338TIP3   OH230890   6.982   0.402   0.536
10338TIP3    H130891   7.009   0.395   0.628
10338TIP3    H230892   6.905   0.458   0.538
10339TIP3   OH230893   5.621   6.483   0.085
10339TIP3    H130894   5.558   6.508   0.017
10339TIP3    H230895   5.702   6.526   0.058
10340TIP3   OH230896   9.361   2.622   2.742
10340TIP3    H130897   9.316   2.559   2.686
10340TIP3    H230898   9.336   2.708   2.708
10341TIP3   OH230899   2.012   0.035   5.650
10341TIP3    H130900   1.920   0.041   5.676
10341TIP3    H230901   2.011   0.041   5.555
10342TIP3   OH230902   8.217   0.721   0.477
10342TIP3    H130903   8.284   0.783   0.507
10342TIP3    H230904   8.190   0.674   0.557
10343TIP3   OH230905   1.985   7.144   7.045
10343TIP3    H130906   1.906   7.197   7.058
10343TIP3    H230907   1.994   7.139   6.949
10344TIP3   OH230908   1.021   8.474   3.939
10344TIP3    H130909   1.009   8.434   3.852
10344TIP3    H230910   0.932   8.489   3.970
10345TIP3   OH230911   3.103   2.997   3.661
10345TIP3    H130912   3.045   3.066   3.692
10345TIP3    H230913   3.080   2.985   3.569
10346TIP3   OH230914   8.591   0.159   5.840
10346TIP3    H130915   8.558   0.248   5.838
10346TIP3    H230916   8.639   0.153   5.923
10347TIP3   OH230917   3.191   4.256   4.706
10347TIP3    H130918   3.264   4.308   4.672
10347TIP3    H230919   3.114   4.313   4.695
10348TIP3   OH230920   3.918   8.884   5.633
10348TIP3    H130921   3.857   8.957   5.643
10348TIP3    H230922   3.993   8.908   5.687
10349TIP3   OH230923   4.088   4.804   5.806
10349TIP3    H130924   4.165   4.749   5.786
10349TIP3    H230925   4.092   4.816   5.901
10350TIP3   OH230926   6.181   0.590   1.001
10350TIP3    H130927   6.095   0.621   1.029
10350TIP3    H230928   6.162   0.528   0.931
10351TIP3   OH230929   3.693   3.364   3.837
10351TIP3    H130930   3.643   3.431   3.790
10351TIP3    H230931   3.692   3.288   3.779
10352TIP3   OH230932   2.062   7.260   5.254
10352TIP3    H130933   1.970   7.286   5.263
10352TIP3    H230934   2.064   7.168   5.281
10353TIP3   OH230935   8.278   4.230   1.025
10353TIP3    H130936   8.334   4.210   0.950
10353TIP3    H230937   8.328   4.202   1.101
10354TIP3   OH230938   0.701   5.125   0.542
10354TIP3    H130939   0.791   5.095   0.557
10354TIP3    H230940   0.667   5.144   0.630
10355TIP3   OH230941   3.411   1.167   4.299
10355TIP3    H130942   3.386   1.233   4.234
10355TIP3    H230943   3.450   1.218   4.370
10356TIP3   OH230944   6.676   6.739   2.019
10356TIP3    H130945   6.595   6.727   1.970
10356TIP3    H230946   6.697   6.652   2.052
10357TIP3   OH230947   4.852   1.449   7.050
10357TIP3    H130948   4.763   1.425   7.024
10357TIP3    H230949   4.847   1.542   7.068
10358TIP3   OH230950   5.361   1.705   5.593
10358TIP3    H130951   5.433   1.738   5.539
10358TIP3    H230952   5.307   1.782   5.611
10359TIP3   OH230953   6.671   7.682   0.570
10359TIP3    H130954   6.631   7.682   0.657
10359TIP3    H230955   6.687   7.589   0.551
10360TIP3   OH230956   4.169   0.861   6.183
10360TIP3    H130957   4.074   0.851   6.183
10360TIP3    H230958   4.193   0.867   6.090
10361TIP3   OH230959   8.838   1.349   5.255
10361TIP3    H130960   8.868   1.309   5.337
10361TIP3    H230961   8.743   1.341   5.259
10362TIP3   OH230962   8.983   6.164   6.108
10362TIP3    H130963   9.008   6.200   6.022
10362TIP3    H230964   8.951   6.240   6.157
10363TIP3   OH230965   0.325   4.990   0.073
10363TIP3    H130966   0.333   4.916   0.132
10363TIP3    H230967   0.327   5.067   0.131
10364TIP3   OH230968   3.684   3.120   7.288
10364TIP3    H130969   3.593   3.148   7.294
10364TIP3    H230970   3.706   3.088   7.375
10365TIP3   OH230971   9.019   5.846   3.311
10365TIP3    H130972   9.022   5.756   3.342
10365TIP3    H230973   8.939   5.850   3.258
10366TIP3   OH230974   8.735   4.930   1.003
10366TIP3    H130975   8.742   4.915   0.908
10366TIP3    H230976   8.751   4.844   1.041
10367TIP3   OH230977   5.014   5.907   3.947
10367TIP3    H130978   5.092   5.854   3.958
10367TIP3    H230979   4.967   5.866   3.874
10368TIP3   OH230980   1.517   5.622   7.001
10368TIP3    H130981   1.522   5.714   7.027
10368TIP3    H230982   1.424   5.604   6.992
10369TIP3   OH230983   8.688   7.426   7.239
10369TIP3    H130984   8.676   7.517   7.214
10369TIP3    H230985   8.749   7.391   7.175
10370TIP3   OH230986   0.110   5.444   1.900
10370TIP3    H130987   0.153   5.516   1.946
10370TIP3    H230988   0.078   5.483   1.818
10371TIP3   OH230989   0.998   8.013   0.171
10371TIP3    H130990   0.957   8.091   0.133
10371TIP3    H230991   1.087   8.013   0.134
10372TIP3   OH230992   8.400   7.785   0.699
10372TIP3    H130993   8.400   7.879   0.718
10372TIP3    H230994   8.410   7.780   0.604
10373TIP3   OH230995   9.378   1.359   3.837
10373TIP3    H130996   9.323   1.422   3.884
10373TIP3    H230997   9.463   1.365   3.882
10374TIP3   OH230998   5.612   6.364   2.545
10374TIP3    H130999   5.647   6.443   2.503
10374TIP3    H231000   5.584   6.394   2.632
10375TIP3   OH231001   1.121   4.234   7.483
10375TIP3    H131002   1.127   4.242   7.578
10375TIP3    H231003   1.127   4.140   7.466
10376TIP3   OH231004   2.216   1.927   1.183
10376TIP3    H131005   2.175   1.870   1.248
10376TIP3    H231006   2.310   1.910   1.191
10377TIP3   OH231007   2.141   0.668   2.216
10377TIP3    H131008   2.100   0.616   2.285
10377TIP3    H231009   2.099   0.754   2.222
10378TIP3   OH231010   3.964   0.372   2.937
10378TIP3    H131011   3.949   0.413   3.022
10378TIP3    H231012   3.882   0.329   2.916
10379TIP3   OH231013   1.120   7.799   2.826
10379TIP3    H131014   1.093   7.718   2.781
10379TIP3    H231015   1.040   7.851   2.831
10380TIP3   OH231016   9.157   6.953   6.325
10380TIP3    H131017   9.124   6.978   6.238
10380TIP3    H231018   9.222   7.021   6.346
10381TIP3   OH231019   4.712   4.673   4.251
10381TIP3    H131020   4.753   4.745   4.203
10381TIP3    H231021   4.772   4.655   4.324
10382TIP3   OH231022   2.117   5.753   5.568
10382TIP3    H131023   2.100   5.666   5.604
10382TIP3    H231024   2.178   5.737   5.495
10383TIP3   OH231025   1.011   4.125   4.332
10383TIP3    H131026   0.969   4.100   4.249
10383TIP3    H231027   1.104   4.104   4.318
10384TIP3   OH231028   4.701   3.888   3.543
10384TIP3    H131029   4.757   3.848   3.609
10384TIP3    H231030   4.712   3.983   3.556
10385TIP3   OH231031   4.635   5.423   4.703
10385TIP3    H131032   4.607   5.447   4.615
10385TIP3    H231033   4.730   5.411   4.696
10386TIP3   OH231034   7.618   8.332   6.406
10386TIP3    H131035   7.539   8.385   6.418
10386TIP3    H231036   7.603   8.254   6.459
10387TIP3   OH231037   0.661   1.890   6.399
10387TIP3    H131038   0.591   1.938   6.355
10387TIP3    H231039   0.615   1.830   6.459
10388TIP3   OH231040   8.078   2.100   1.706
10388TIP3    H131041   8.030   2.182   1.701
10388TIP3    H231042   8.020   2.040   1.752
10389TIP3   OH231043   4.431   4.448   7.254
10389TIP3    H131044   4.516   4.407   7.239
10389TIP3    H231045   4.376   4.378   7.290
10390TIP3   OH231046   1.403   4.967   0.236
10390TIP3    H131047   1.409   4.874   0.258
10390TIP3    H231048   1.486   4.986   0.191
10391TIP3   OH231049   6.055   0.707   7.142
10391TIP3    H131050   6.064   0.753   7.059
10391TIP3    H231051   6.015   0.771   7.201
10392TIP3   OH231052   7.507   6.551   4.721
10392TIP3    H131053   7.456   6.516   4.793
10392TIP3    H231054   7.465   6.517   4.642
10393TIP3   OH231055   6.702   2.430   6.630
10393TIP3    H131056   6.616   2.471   6.625
10393TIP3    H231057   6.755   2.492   6.680
10394TIP3   OH231058   9.254   2.278   7.208
10394TIP3    H131059   9.171   2.324   7.192
10394TIP3    H231060   9.319   2.347   7.216
10395TIP3   OH231061   9.350   6.845   0.635
10395TIP3    H131062   9.321   6.761   0.670
10395TIP3    H231063   9.319   6.909   0.699
10396TIP3   OH231064   8.234   6.801   3.211
10396TIP3    H131065   8.305   6.739   3.203
10396TIP3    H231066   8.172   6.776   3.142
10397TIP3   OH231067   1.386   4.630   3.961
10397TIP3    H131068   1.330   4.689   4.011
10397TIP3    H231069   1.327   4.588   3.898
10398TIP3   OH231070   0.188   8.192   4.256
10398TIP3    H131071   0.167   8.191   4.162
10398TIP3    H231072   0.173   8.283   4.282
10399TIP3   OH231073   3.472   2.350   5.220
10399TIP3    H131074   3.452   2.437   5.256
10399TIP3    H231075   3.399   2.331   5.162
10400TIP3   OH231076   5.322   6.741   0.309
10400TIP3    H131077   5.250   6.714   0.252
10400TIP3    H231078   5.280   6.789   0.380
10401TIP3   OH231079   4.454   0.335   5.906
10401TIP3    H131080   4.467   0.250   5.864
10401TIP3    H231081   4.360   0.351   5.899
10402TIP3   OH231082   2.819   7.233   6.387
10402TIP3    H131083   2.821   7.328   6.397
10402TIP3    H231084   2.726   7.211   6.391
10403TIP3   OH231085   0.032   0.609   4.529
10403TIP3    H131086   0.043   0.691   4.576
10403TIP3    H231087  -0.050   0.573   4.564
10404TIP3   OH231088   4.654   3.941   0.106
10404TIP3    H131089   4.612   3.857   0.125
10404TIP3    H231090   4.609   3.974   0.028
10405TIP3   OH231091   4.204   0.895   5.613
10405TIP3    H131092   4.282   0.946   5.591
10405TIP3    H231093   4.150   0.900   5.535
10406TIP3   OH231094   0.739   7.853   2.765
10406TIP3    H131095   0.663   7.909   2.748
10406TIP3    H231096   0.706   7.785   2.824
10407TIP3   OH231097   9.386   4.424   4.317
10407TIP3    H131098   9.397   4.406   4.410
10407TIP3    H231099   9.475   4.431   4.283
10408TIP3   OH231100   8.138   6.950   2.072
10408TIP3    H131101   8.112   6.938   1.981
10408TIP3    H231102   8.200   6.878   2.089
10409TIP3   OH231103   2.983   8.242   5.846
10409TIP3    H131104   2.966   8.292   5.925
10409TIP3    H231105   2.902   8.249   5.796
10410TIP3   OH231106   3.732   2.942   4.372
10410TIP3    H131107   3.646   2.983   4.357
10410TIP3    H231108   3.723   2.854   4.336
10411TIP3   OH231109   0.037   6.463   6.487
10411TIP3    H131110   0.053   6.409   6.410
10411TIP3    H231111  -0.044   6.428   6.525
10412TIP3   OH231112   5.559   2.696   3.765
10412TIP3    H131113   5.533   2.778   3.722
10412TIP3    H231114   5.638   2.720   3.814
10413TIP3   OH231115   7.691   8.423   6.155
10413TIP3    H131116   7.626   8.487   6.124
10413TIP3    H231117   7.650   8.381   6.230
10414TIP3   OH231118   1.360   2.722   6.690
10414TIP3    H131119   1.413   2.699   6.613
10414TIP3    H231120   1.348   2.817   6.683
10415TIP3   OH231121   4.068   7.022   0.922
10415TIP3    H131122   4.147   7.039   0.973
10415TIP3    H231123   4.096   6.966   0.850
10416TIP3   OH231124   5.448   3.982   6.734
10416TIP3    H131125   5.537   3.980   6.768
10416TIP3    H231126   5.396   3.933   6.797
10417TIP3   OH231127   3.689   5.332   1.052
10417TIP3    H131128   3.679   5.396   0.981
10417TIP3    H231129   3.639   5.369   1.125
10418TIP3   OH231130   7.626   4.000   2.003
10418TIP3    H131131   7.712   3.986   2.043
10418TIP3    H231132   7.564   3.972   2.070
10419TIP3   OH231133   1.611   2.249   7.033
10419TIP3    H131134   1.656   2.215   7.111
10419TIP3    H231135   1.518   2.233   7.051
10420TIP3   OH231136   9.269   1.792   7.319
10420TIP3    H131137   9.225   1.864   7.273
10420TIP3    H231138   9.282   1.725   7.252
10421TIP3   OH231139   4.709   2.504   2.880
10421TIP3    H131140   4.791   2.476   2.840
10421TIP3    H231141   4.724   2.498   2.975
10422TIP3   OH231142   4.052   1.001   5.384
10422TIP3    H131143   4.037   0.925   5.328
10422TIP3    H231144   4.002   1.071   5.342
10423TIP3   OH231145   2.430   2.083   7.020
10423TIP3    H131146   2.393   2.171   7.012
10423TIP3    H231147   2.487   2.074   6.943
10424TIP3   OH231148   7.304   1.598   4.569
10424TIP3    H131149   7.312   1.622   4.476
10424TIP3    H231150   7.334   1.675   4.616
10425TIP3   OH231151   2.507   0.745   6.844
10425TIP3    H131152   2.412   0.755   6.833
10425TIP3    H231153   2.544   0.828   6.816
10426TIP3   OH231154   1.800   1.460   3.238
10426TIP3    H131155   1.796   1.441   3.332
10426TIP3    H231156   1.892   1.447   3.215
10427TIP3   OH231157   4.279   6.699   4.240
10427TIP3    H131158   4.196   6.736   4.209
10427TIP3    H231159   4.345   6.764   4.215
10428TIP3   OH231160   8.187   6.651   5.886
10428TIP3    H131161   8.220   6.685   5.969
10428TIP3    H231162   8.110   6.704   5.867
10429TIP3   OH231163   0.169   6.043   1.390
10429TIP3    H131164   0.119   6.006   1.317
10429TIP3    H231165   0.257   6.056   1.354
10430TIP3   OH231166   7.604   0.998   0.139
10430TIP3    H131167   7.537   0.932   0.120
10430TIP3    H231168   7.686   0.958   0.109
10431TIP3   OH231169   5.234   3.024   3.122
10431TIP3    H131170   5.154   2.973   3.106
10431TIP3    H231171   5.224   3.101   3.066
10432TIP3   OH231172   2.272   1.253   4.791
10432TIP3    H131173   2.223   1.306   4.728
10432TIP3    H231174   2.218   1.251   4.869
10433TIP3   OH231175   0.112   8.729   0.565
10433TIP3    H131176   0.196   8.686   0.546
10433TIP3    H231177   0.134   8.822   0.574
10434TIP3   OH231178   6.458   5.332   7.286
10434TIP3    H131179   6.461   5.246   7.244
10434TIP3    H231180   6.416   5.316   7.370
10435TIP3   OH231181   3.925   0.105   1.169
10435TIP3    H131182   3.850   0.153   1.205
10435TIP3    H231183   4.001   0.157   1.194
10436TIP3   OH231184   4.362   5.588   5.892
10436TIP3    H131185   4.294   5.647   5.925
10436TIP3    H231186   4.423   5.646   5.847
10437TIP3   OH231187   9.488   4.810   1.583
10437TIP3    H131188   9.492   4.714   1.587
10437TIP3    H231189   9.467   4.836   1.673
10438TIP3   OH231190   7.259   6.515   2.935
10438TIP3    H131191   7.321   6.538   3.004
10438TIP3    H231192   7.194   6.459   2.978
10439TIP3   OH231193   3.866   6.903   1.072
10439TIP3    H131194   3.836   6.984   1.113
10439TIP3    H231195   3.933   6.931   1.009
10440TIP3   OH231196   6.184   7.378   1.195
10440TIP3    H131197   6.104   7.390   1.246
10440TIP3    H231198   6.159   7.319   1.124
10441TIP3   OH231199   4.883   0.731   4.474
10441TIP3    H131200   4.978   0.717   4.475
10441TIP3    H231201   4.871   0.814   4.428
10442TIP3   OH231202   4.456   0.186   1.881
10442TIP3    H131203   4.534   0.185   1.826
10442TIP3    H231204   4.384   0.165   1.822
10443TIP3   OH231205   1.125   6.080   6.801
10443TIP3    H131206   1.114   6.035   6.717
10443TIP3    H231207   1.128   6.010   6.866
10444TIP3   OH231208   1.218   8.529   4.857
10444TIP3    H131209   1.261   8.578   4.927
10444TIP3    H231210   1.149   8.588   4.825
10445TIP3   OH231211   4.597   1.228   4.146
10445TIP3    H131212   4.672   1.168   4.148
10445TIP3    H231213   4.633   1.309   4.109
10446TIP3   OH231214   4.259   5.633   5.030
10446TIP3    H131215   4.183   5.578   5.051
10446TIP3    H231216   4.311   5.580   4.969
10447TIP3   OH231217   6.474   8.726   5.357
10447TIP3    H131218   6.458   8.669   5.282
10447TIP3    H231219   6.475   8.814   5.321
10448TIP3   OH231220   5.693   8.861   4.758
10448TIP3    H131221   5.623   8.900   4.705
10448TIP3    H231222   5.653   8.849   4.844
10449TIP3   OH231223   4.054   5.711   6.799
10449TIP3    H131224   3.981   5.688   6.741
10449TIP3    H231225   4.119   5.643   6.783
10450TIP3   OH231226   1.436   1.003   6.597
10450TIP3    H131227   1.348   1.026   6.568
10450TIP3    H231228   1.425   0.925   6.651
10451TIP3   OH231229   8.833   8.295   4.040
10451TIP3    H131230   8.766   8.264   3.978
10451TIP3    H231231   8.896   8.224   4.044
10452TIP3   OH231232   3.508   6.890   1.070
10452TIP3    H131233   3.454   6.969   1.066
10452TIP3    H231234   3.445   6.818   1.068
10453TIP3   OH231235   3.010   3.674   7.093
10453TIP3    H131236   3.054   3.660   7.009
10453TIP3    H231237   2.927   3.627   7.085
10454TIP3   OH231238   8.510   1.045   3.038
10454TIP3    H131239   8.461   0.989   2.979
10454TIP3    H231240   8.466   1.130   3.034
10455TIP3   OH231241   8.462   4.614   6.109
10455TIP3    H131242   8.432   4.568   6.187
10455TIP3    H231243   8.433   4.704   6.121
10456TIP3   OH231244   9.431   0.358   6.281
10456TIP3    H131245   9.486   0.332   6.355
10456TIP3    H231246   9.468   0.442   6.252
10457TIP3   OH231247   7.566   1.878   3.994
10457TIP3    H131248   7.627   1.804   3.998
10457TIP3    H231249   7.596   1.929   3.918
10458TIP3   OH231250   0.787   0.515   4.402
10458TIP3    H131251   0.801   0.456   4.476
10458TIP3    H231252   0.872   0.521   4.360
10459TIP3   OH231253   4.163   1.178   1.946
10459TIP3    H131254   4.247   1.177   1.900
10459TIP3    H231255   4.182   1.140   2.032
10460TIP3   OH231256   7.081   5.735   5.359
10460TIP3    H131257   7.095   5.694   5.274
10460TIP3    H231258   6.998   5.781   5.351
10461TIP3   OH231259   4.009   7.485   4.750
10461TIP3    H131260   3.957   7.471   4.670
10461TIP3    H231261   4.021   7.580   4.754
10462TIP3   OH231262   8.631   5.534   4.291
10462TIP3    H131263   8.686   5.456   4.291
10462TIP3    H231264   8.638   5.568   4.381
10463TIP3   OH231265   2.976   2.568   4.478
10463TIP3    H131266   2.962   2.593   4.569
10463TIP3    H231267   2.889   2.569   4.438
10464TIP3   OH231268   0.523   8.434   2.356
10464TIP3    H131269   0.615   8.457   2.343
10464TIP3    H231270   0.483   8.450   2.270
10465TIP3   OH231271   7.882   6.013   3.179
10465TIP3    H131272   7.850   6.009   3.269
10465TIP3    H231273   7.849   5.933   3.138
10466TIP3   OH231274   4.700   5.119   3.063
10466TIP3    H131275   4.781   5.069   3.062
10466TIP3    H231276   4.726   5.206   3.031
10467TIP3   OH231277   1.550   0.450   5.942
10467TIP3    H131278   1.471   0.495   5.913
10467TIP3    H231279   1.548   0.457   6.037
10468TIP3   OH231280   6.032   8.479   3.306
10468TIP3    H131281   6.021   8.524   3.223
10468TIP3    H231282   6.057   8.390   3.282
10469TIP3   OH231283   1.152   8.426   6.871
10469TIP3    H131284   1.186   8.511   6.844
10469TIP3    H231285   1.186   8.365   6.807
10470TIP3   OH231286   3.594   3.429   3.207
10470TIP3    H131287   3.676   3.475   3.186
10470TIP3    H231288   3.528   3.498   3.210
10471TIP3   OH231289   1.498   1.728   7.661
10471TIP3    H131290   1.447   1.656   7.697
10471TIP3    H231291   1.437   1.801   7.655
10472TIP3   OH231292   2.083   6.256   6.150
10472TIP3    H131293   2.157   6.244   6.090
10472TIP3    H231294   2.061   6.349   6.143
10473TIP3   OH231295   6.236   0.249   6.316
10473TIP3    H131296   6.177   0.186   6.276
10473TIP3    H231297   6.193   0.334   6.304
10474TIP3   OH231298   7.257   7.255   1.281
10474TIP3    H131299   7.328   7.216   1.333
10474TIP3    H231300   7.226   7.183   1.225
10475TIP3   OH231301   6.624   2.393   6.025
10475TIP3    H131302   6.633   2.446   5.946
10475TIP3    H231303   6.553   2.434   6.074
10476TIP3   OH231304   7.853   0.687   1.554
10476TIP3    H131305   7.825   0.616   1.611
10476TIP3    H231306   7.875   0.644   1.471
10477TIP3   OH231307   7.635   1.728   5.358
10477TIP3    H131308   7.689   1.694   5.286
10477TIP3    H231309   7.594   1.807   5.322
10478TIP3   OH231310   2.732   2.115   6.310
10478TIP3    H131311   2.677   2.043   6.278
10478TIP3    H231312   2.821   2.090   6.284
10479TIP3   OH231313   1.208   7.523   6.118
10479TIP3    H131314   1.261   7.451   6.153
10479TIP3    H231315   1.141   7.538   6.185
10480TIP3   OH231316   1.894   7.714   4.780
10480TIP3    H131317   1.839   7.672   4.847
10480TIP3    H231318   1.884   7.808   4.797
10481TIP3   OH231319   0.586   1.944   0.026
10481TIP3    H131320   0.643   1.892  -0.031
10481TIP3    H231321   0.610   2.035   0.008
10482TIP3   OH231322   0.611   2.438   7.389
10482TIP3    H131323   0.698   2.478   7.378
10482TIP3    H231324   0.563   2.465   7.311
10483TIP3   OH231325   3.681   8.054   3.534
10483TIP3    H131326   3.725   8.131   3.501
10483TIP3    H231327   3.589   8.067   3.511
10484TIP3   OH231328   5.832   7.993   3.404
10484TIP3    H131329   5.751   7.978   3.356
10484TIP3    H231330   5.870   7.905   3.413
10485TIP3   OH231331   1.373   4.137   2.042
10485TIP3    H131332   1.313   4.062   2.040
10485TIP3    H231333   1.333   4.198   2.103
10486TIP3   OH231334   5.551   3.902   3.419
10486TIP3    H131335   5.631   3.946   3.390
10486TIP3    H231336   5.534   3.837   3.351
10487TIP3   OH231337   1.626   8.700   6.097
10487TIP3    H131338   1.623   8.681   6.003
10487TIP3    H231339   1.557   8.766   6.109
10488TIP3   OH231340   0.329   6.338   5.863
10488TIP3    H131341   0.306   6.422   5.904
10488TIP3    H231342   0.382   6.293   5.928
10489TIP3   OH231343   6.560   6.791   4.823
10489TIP3    H131344   6.498   6.752   4.762
10489TIP3    H231345   6.547   6.886   4.814
10490TIP3   OH231346   6.686   7.630   7.313
10490TIP3    H131347   6.757   7.687   7.287
10490TIP3    H231348   6.609   7.687   7.314
10491TIP3   OH231349   2.732   8.881   4.483
10491TIP3    H131350   2.689   8.796   4.475
10491TIP3    H231351   2.684   8.926   4.553
10492TIP3   OH231352   6.707   4.126   4.628
10492TIP3    H131353   6.642   4.154   4.563
10492TIP3    H231354   6.677   4.164   4.710
10493TIP3   OH231355   9.201   4.708   2.296
10493TIP3    H131356   9.214   4.618   2.324
10493TIP3    H231357   9.258   4.718   2.219
10494TIP3   OH231358   6.578   7.169   7.649
10494TIP3    H131359   6.628   7.218   7.583
10494TIP3    H231360   6.497   7.220   7.659
10495TIP3   OH231361   4.921   8.046   2.781
10495TIP3    H131362   4.855   7.999   2.730
10495TIP3    H231363   4.904   8.139   2.762
10496TIP3   OH231364   3.541   6.165   4.911
10496TIP3    H131365   3.499   6.108   4.976
10496TIP3    H231366   3.570   6.241   4.962
10497TIP3   OH231367   8.292   0.515   1.004
10497TIP3    H131368   8.249   0.446   0.954
10497TIP3    H231369   8.302   0.478   1.092
10498TIP3   OH231370   1.550   6.411   4.053
10498TIP3    H131371   1.626   6.384   4.104
10498TIP3    H231372   1.542   6.505   4.068
10499TIP3   OH231373   2.106   2.439   3.170
10499TIP3    H131374   2.056   2.470   3.094
10499TIP3    H231375   2.044   2.444   3.243
10500TIP3   OH231376   3.310   7.121   5.853
10500TIP3    H131377   3.280   7.170   5.776
10500TIP3    H231378   3.384   7.172   5.886
10501TIP3   OH231379   5.669   0.821   3.442
10501TIP3    H131380   5.667   0.793   3.534
10501TIP3    H231381   5.708   0.747   3.396
10502TIP3   OH231382   8.864   7.466   5.310
10502TIP3    H131383   8.847   7.467   5.216
10502TIP3    H231384   8.778   7.472   5.351
10503TIP3   OH231385   7.476   8.575   4.403
10503TIP3    H131386   7.562   8.551   4.371
10503TIP3    H231387   7.420   8.576   4.325
10504TIP3   OH231388   9.472   2.474   5.977
10504TIP3    H131389   9.469   2.380   5.995
10504TIP3    H231390   9.549   2.505   6.026
10505TIP3   OH231391   5.845   0.211   5.783
10505TIP3    H131392   5.773   0.272   5.769
10505TIP3    H231393   5.803   0.133   5.821
10506TIP3   OH231394   4.731   8.517   4.801
10506TIP3    H131395   4.796   8.569   4.848
10506TIP3    H231396   4.762   8.426   4.808
10507TIP3   OH231397   1.061   6.312   1.153
10507TIP3    H131398   1.066   6.291   1.060
10507TIP3    H231399   1.087   6.405   1.158
10508TIP3   OH231400   7.930   5.138   0.414
10508TIP3    H131401   7.960   5.224   0.388
10508TIP3    H231402   7.997   5.105   0.474
10509TIP3   OH231403   6.680   5.310   5.715
10509TIP3    H131404   6.622   5.234   5.712
10509TIP3    H231405   6.649   5.367   5.645
10510TIP3   OH231406   2.439   5.452   6.747
10510TIP3    H131407   2.402   5.403   6.674
10510TIP3    H231408   2.417   5.400   6.824
10511TIP3   OH231409   0.536   3.617   1.779
10511TIP3    H131410   0.594   3.621   1.855
10511TIP3    H231411   0.454   3.581   1.813
10512TIP3   OH231412   4.017   7.434   5.923
10512TIP3    H131413   3.926   7.436   5.894
10512TIP3    H231414   4.019   7.367   5.991
10513TIP3   OH231415   6.489   2.209   6.400
10513TIP3    H131416   6.401   2.247   6.404
10513TIP3    H231417   6.484   2.130   6.453
10514TIP3   OH231418   2.955   3.527   4.101
10514TIP3    H131419   2.967   3.456   4.164
10514TIP3    H231420   2.977   3.606   4.150
10515TIP3   OH231421   3.491   4.293   7.685
10515TIP3    H131422   3.505   4.363   7.749
10515TIP3    H231423   3.482   4.213   7.737
10516TIP3   OH231424   2.057   1.539   6.716
10516TIP3    H131425   1.972   1.496   6.719
10516TIP3    H231426   2.092   1.516   6.630
10517TIP3   OH231427   7.848   0.395   2.623
10517TIP3    H131428   7.844   0.449   2.701
10517TIP3    H231429   7.759   0.360   2.613
10518TIP3   OH231430   0.787   5.871   2.065
10518TIP3    H131431   0.872   5.910   2.085
10518TIP3    H231432   0.802   5.819   1.986
10519TIP3   OH231433   4.190   7.657   1.655
10519TIP3    H131434   4.196   7.568   1.690
10519TIP3    H231435   4.099   7.666   1.629
10520TIP3   OH231436   4.751   0.880   6.586
10520TIP3    H131437   4.704   0.906   6.665
10520TIP3    H231438   4.699   0.808   6.549
10521TIP3   OH231439   5.576   7.052   5.408
10521TIP3    H131440   5.658   7.081   5.449
10521TIP3    H231441   5.560   6.966   5.446
10522TIP3   OH231442   3.521   4.817   6.511
10522TIP3    H131443   3.587   4.747   6.519
10522TIP3    H231444   3.438   4.770   6.506
10523TIP3   OH231445   1.333   2.730   4.645
10523TIP3    H131446   1.334   2.795   4.575
10523TIP3    H231447   1.285   2.772   4.717
10524TIP3   OH231448   5.025   4.483   7.106
10524TIP3    H131449   5.054   4.461   7.017
10524TIP3    H231450   4.965   4.412   7.130
10525TIP3   OH231451   3.060   8.383   7.690
10525TIP3    H131452   3.037   8.438   7.615
10525TIP3    H231453   2.981   8.380   7.743
10526TIP3   OH231454   6.075   8.096   3.716
10526TIP3    H131455   6.052   8.154   3.789
10526TIP3    H231456   6.037   8.138   3.639
10527TIP3   OH231457   4.607   8.023   0.415
10527TIP3    H131458   4.630   8.116   0.414
10527TIP3    H231459   4.657   7.985   0.344
10528TIP3   OH231460   7.660   2.385   1.221
10528TIP3    H131461   7.718   2.309   1.218
10528TIP3    H231462   7.646   2.401   1.315
10529TIP3   OH231463   4.709   1.008   3.668
10529TIP3    H131464   4.615   1.002   3.686
10529TIP3    H231465   4.714   1.052   3.583
10530TIP3   OH231466   1.156   7.118   5.712
10530TIP3    H131467   1.070   7.125   5.753
10530TIP3    H231468   1.158   7.029   5.675
10531TIP3   OH231469   1.114   1.608   7.800
10531TIP3    H131470   1.123   1.692   7.845
10531TIP3    H231471   1.205   1.578   7.789
10532TIP3   OH231472   1.663   5.672   4.865
10532TIP3    H131473   1.681   5.694   4.774
10532TIP3    H231474   1.573   5.701   4.880
10533TIP3   OH231475   4.286   6.554   6.794
10533TIP3    H131476   4.276   6.507   6.711
10533TIP3    H231477   4.289   6.484   6.861
10534TIP3   OH231478   7.918   6.628   1.443
10534TIP3    H131479   7.884   6.643   1.531
10534TIP3    H231480   7.841   6.607   1.390
10535TIP3   OH231481   1.430   6.765   1.958
10535TIP3    H131482   1.475   6.847   1.978
10535TIP3    H231483   1.360   6.791   1.898
10536TIP3   OH231484   3.240   6.021   3.181
10536TIP3    H131485   3.216   6.105   3.220
10536TIP3    H231486   3.157   5.984   3.151
10537TIP3   OH231487   5.809   6.369   0.356
10537TIP3    H131488   5.861   6.365   0.276
10537TIP3    H231489   5.820   6.283   0.396
10538TIP3   OH231490   5.263   5.780   6.868
10538TIP3    H131491   5.308   5.696   6.879
10538TIP3    H231492   5.302   5.837   6.933
10539TIP3   OH231493   7.439   8.220   2.487
10539TIP3    H131494   7.519   8.259   2.521
10539TIP3    H231495   7.397   8.290   2.437
10540TIP3   OH231496   1.560   4.910   3.114
10540TIP3    H131497   1.630   4.962   3.153
10540TIP3    H231498   1.572   4.823   3.151
10541TIP3   OH231499   2.309   6.070   2.961
10541TIP3    H131500   2.310   5.999   2.897
10541TIP3    H231501   2.337   6.147   2.911
10542TIP3   OH231502   8.992   3.730   4.122
10542TIP3    H131503   8.902   3.708   4.147
10542TIP3    H231504   9.037   3.746   4.205
10543TIP3   OH231505   3.101   4.842   4.910
10543TIP3    H131506   3.181   4.875   4.869
10543TIP3    H231507   3.128   4.761   4.953
10544TIP3   OH231508   3.006   6.106   4.400
10544TIP3    H131509   2.983   6.161   4.475
10544TIP3    H231510   3.100   6.121   4.387
10545TIP3   OH231511   7.570   8.121   7.342
10545TIP3    H131512   7.478   8.144   7.327
10545TIP3    H231513   7.568   8.062   7.418
10546TIP3   OH231514   8.236   7.207   7.655
10546TIP3    H131515   8.205   7.214   7.745
10546TIP3    H231516   8.207   7.288   7.613
10547TIP3   OH231517   1.679   2.189   4.497
10547TIP3    H131518   1.590   2.188   4.463
10547TIP3    H231519   1.671   2.228   4.584
10548TIP3   OH231520   8.087   6.311   4.749
10548TIP3    H131521   8.014   6.280   4.802
10548TIP3    H231522   8.156   6.329   4.813
10549TIP3   OH231523   7.448   5.622   7.573
10549TIP3    H131524   7.460   5.713   7.546
10549TIP3    H231525   7.360   5.619   7.610
10550TIP3   OH231526   4.887   3.997   0.248
10550TIP3    H131527   4.919   3.941   0.177
10550TIP3    H231528   4.794   3.974   0.255
10551TIP3   OH231529   5.190   2.069   6.831
10551TIP3    H131530   5.126   2.141   6.824
10551TIP3    H231531   5.252   2.086   6.761
10552TIP3   OH231532   6.343   8.881   4.754
10552TIP3    H131533   6.321   8.972   4.732
10552TIP3    H231534   6.264   8.831   4.732
10553TIP3   OH231535   7.527   4.753   5.290
10553TIP3    H131536   7.450   4.802   5.319
10553TIP3    H231537   7.581   4.746   5.369
10554TIP3   OH231538   3.732   5.683   4.895
10554TIP3    H131539   3.681   5.706   4.817
10554TIP3    H231540   3.697   5.597   4.921
10555TIP3   OH231541   8.024   0.787   2.941
10555TIP3    H131542   8.053   0.730   3.014
10555TIP3    H231543   7.946   0.830   2.974
10556TIP3   OH231544   5.811   3.647   2.340
10556TIP3    H131545   5.799   3.555   2.318
10556TIP3    H231546   5.797   3.652   2.435
10557TIP3   OH231547   7.397   7.139   5.284
10557TIP3    H131548   7.361   7.185   5.208
10557TIP3    H231549   7.346   7.170   5.358
10558TIP3   OH231550   6.413   5.144   5.091
10558TIP3    H131551   6.498   5.150   5.134
10558TIP3    H231552   6.430   5.089   5.014
10559TIP3   OH231553   2.009   1.176   6.138
10559TIP3    H131554   2.016   1.270   6.151
10559TIP3    H231555   1.916   1.156   6.149
10560TIP3   OH231556   2.006   4.818   6.234
10560TIP3    H131557   1.980   4.835   6.324
10560TIP3    H231558   1.964   4.887   6.183
10561TIP3   OH231559   8.129   3.874   1.352
10561TIP3    H131560   8.185   3.798   1.341
10561TIP3    H231561   8.179   3.933   1.409
10562TIP3   OH231562   3.220   2.137   2.194
10562TIP3    H131563   3.297   2.194   2.192
10562TIP3    H231564   3.181   2.152   2.280
10563TIP3   OH231565   6.920   3.126   2.645
10563TIP3    H131566   6.951   3.193   2.706
10563TIP3    H231567   6.982   3.129   2.572
10564TIP3   OH231568   4.653   3.147   7.744
10564TIP3    H131569   4.655   3.085   7.671
10564TIP3    H231570   4.599   3.104   7.811
10565TIP3   OH231571   8.685   4.400   1.377
10565TIP3    H131572   8.638   4.417   1.295
10565TIP3    H231573   8.743   4.475   1.387
10566TIP3   OH231574   7.291   7.482   1.437
10566TIP3    H131575   7.364   7.504   1.379
10566TIP3    H231576   7.262   7.396   1.406
10567TIP3   OH231577   7.619   3.799   5.709
10567TIP3    H131578   7.683   3.728   5.709
10567TIP3    H231579   7.553   3.772   5.773
10568TIP3   OH231580   4.388   6.033   5.566
10568TIP3    H131581   4.401   5.971   5.495
10568TIP3    H231582   4.335   6.103   5.528
10569TIP3   OH231583   8.436   5.222   6.103
10569TIP3    H131584   8.401   5.212   6.191
10569TIP3    H231585   8.390   5.298   6.067
10570TIP3   OH231586   1.599   4.682   2.258
10570TIP3    H131587   1.691   4.683   2.283
10570TIP3    H231588   1.562   4.760   2.300
10571TIP3   OH231589   7.666   6.829   3.646
10571TIP3    H131590   7.744   6.850   3.698
10571TIP3    H231591   7.701   6.791   3.565
10572TIP3   OH231592   5.924   3.901   6.754
10572TIP3    H131593   5.936   3.826   6.696
10572TIP3    H231594   6.003   3.953   6.743
10573TIP3   OH231595   6.987   6.466   3.552
10573TIP3    H131596   7.074   6.494   3.524
10573TIP3    H231597   6.950   6.422   3.475
10574TIP3   OH231598   4.531   0.152   3.344
10574TIP3    H131599   4.583   0.085   3.390
10574TIP3    H231600   4.500   0.107   3.266
10575TIP3   OH231601   8.044   6.004   2.438
10575TIP3    H131602   8.038   6.099   2.427
10575TIP3    H231603   8.033   5.990   2.532
10576TIP3   OH231604   8.589   4.921   2.681
10576TIP3    H131605   8.641   4.842   2.665
10576TIP3    H231606   8.652   4.986   2.712
10577TIP3   OH231607   8.321   6.609   7.516
10577TIP3    H131608   8.282   6.630   7.601
10577TIP3    H231609   8.265   6.540   7.480
10578TIP3   OH231610   6.634   4.523   1.546
10578TIP3    H131611   6.698   4.581   1.587
10578TIP3    H231612   6.605   4.465   1.616
10579TIP3   OH231613   9.482   6.967   1.505
10579TIP3    H131614   9.446   7.044   1.549
10579TIP3    H231615   9.555   7.001   1.454
10580TIP3   OH231616   0.171   6.973   0.559
10580TIP3    H131617   0.104   6.992   0.493
10580TIP3    H231618   0.222   6.902   0.520
10581TIP3   OH231619   8.242   4.192   0.508
10581TIP3    H131620   8.229   4.207   0.414
10581TIP3    H231621   8.295   4.113   0.512
10582TIP3   OH231622   4.957   1.350   3.147
10582TIP3    H131623   4.925   1.394   3.068
10582TIP3    H231624   5.014   1.280   3.115
10583TIP3   OH231625   3.198   2.845   1.281
10583TIP3    H131626   3.281   2.877   1.315
10583TIP3    H231627   3.218   2.760   1.242
10584TIP3   OH231628   1.284   7.770   5.292
10584TIP3    H131629   1.267   7.774   5.198
10584TIP3    H231630   1.202   7.799   5.333
10585TIP3   OH231631   4.416   2.098   7.238
10585TIP3    H131632   4.430   2.020   7.291
10585TIP3    H231633   4.354   2.072   7.170
10586TIP3   OH231634   4.330   8.027   1.547
10586TIP3    H131635   4.338   8.122   1.558
10586TIP3    H231636   4.238   8.009   1.564
10587TIP3   OH231637   3.777   8.643   2.677
10587TIP3    H131638   3.822   8.692   2.745
10587TIP3    H231639   3.797   8.551   2.697
10588TIP3   OH231640   1.254   2.360   6.255
10588TIP3    H131641   1.203   2.343   6.334
10588TIP3    H231642   1.234   2.452   6.234
10589TIP3   OH231643   0.440   5.937   7.102
10589TIP3    H131644   0.534   5.954   7.097
10589TIP3    H231645   0.413   5.926   7.011
10590TIP3   OH231646   5.565   5.613   3.885
10590TIP3    H131647   5.626   5.654   3.947
10590TIP3    H231648   5.497   5.679   3.871
10591TIP3   OH231649   7.137   4.742   1.652
10591TIP3    H131650   7.199   4.700   1.712
10591TIP3    H231651   7.152   4.700   1.568
10592TIP3   OH231652   7.069   6.384   3.814
10592TIP3    H131653   6.980   6.413   3.793
10592TIP3    H231654   7.117   6.393   3.733
10593TIP3   OH231655   5.783   1.342   4.245
10593TIP3    H131656   5.760   1.421   4.295
10593TIP3    H231657   5.702   1.291   4.242
10594TIP3   OH231658   4.137   7.310   3.290
10594TIP3    H131659   4.232   7.307   3.286
10594TIP3    H231660   4.117   7.397   3.325
10595TIP3   OH231661   4.710   6.119   0.195
10595TIP3    H131662   4.705   6.023   0.205
10595TIP3    H231663   4.803   6.139   0.200
10596TIP3   OH231664   2.512   0.203   2.548
10596TIP3    H131665   2.585   0.156   2.588
10596TIP3    H231666   2.546   0.234   2.464
10597TIP3   OH231667   5.321   2.812   0.573
10597TIP3    H131668   5.258   2.825   0.644
10597TIP3    H231669   5.384   2.749   0.608
10598TIP3   OH231670   2.283   4.367   7.169
10598TIP3    H131671   2.267   4.330   7.082
10598TIP3    H231672   2.264   4.460   7.160
10599TIP3   OH231673   1.337   4.383   7.405
10599TIP3    H131674   1.353   4.442   7.478
10599TIP3    H231675   1.258   4.335   7.429
10600TIP3   OH231676   9.411   1.902   6.759
10600TIP3    H131677   9.371   1.829   6.807
10600TIP3    H231678   9.384   1.980   6.807
10601TIP3   OH231679   4.044   4.605   5.590
10601TIP3    H131680   3.989   4.652   5.653
10601TIP3    H231681   4.009   4.629   5.504
10602TIP3   OH231682   0.053   4.681   5.350
10602TIP3    H131683   0.123   4.744   5.335
10602TIP3    H231684   0.097   4.601   5.380
10603TIP3   OH231685   2.851   5.674   6.458
10603TIP3    H131686   2.796   5.610   6.414
10603TIP3    H231687   2.922   5.623   6.496
10604TIP3   OH231688   2.497   6.215   1.272
10604TIP3    H131689   2.519   6.292   1.219
10604TIP3    H231690   2.580   6.189   1.312
10605TIP3   OH231691   8.560   2.719   3.981
10605TIP3    H131692   8.630   2.711   4.047
10605TIP3    H231693   8.602   2.765   3.908
10606TIP3   OH231694   0.082   0.780   1.662
10606TIP3    H131695   0.093   0.687   1.683
10606TIP3    H231696   0.154   0.799   1.602
10607TIP3   OH231697   1.586   5.783   0.485
10607TIP3    H131698   1.628   5.735   0.413
10607TIP3    H231699   1.621   5.872   0.477
10608TIP3   OH231700   0.431   6.249   1.981
10608TIP3    H131701   0.457   6.339   1.959
10608TIP3    H231702   0.502   6.194   1.947
10609TIP3   OH231703   6.155   0.359   5.696
10609TIP3    H131704   6.214   0.294   5.658
10609TIP3    H231705   6.169   0.352   5.791
10610TIP3   OH231706   8.317   6.475   6.505
10610TIP3    H131707   8.251   6.492   6.438
10610TIP3    H231708   8.269   6.433   6.577
10611TIP3   OH231709   5.828   2.479   5.203
10611TIP3    H131710   5.744   2.441   5.179
10611TIP3    H231711   5.819   2.572   5.182
10612TIP3   OH231712   0.111   4.288   3.679
10612TIP3    H131713   0.088   4.274   3.771
10612TIP3    H231714   0.123   4.383   3.673
10613TIP3   OH231715   9.550   0.661   0.498
10613TIP3    H131716   9.603   0.729   0.540
10613TIP3    H231717   9.489   0.708   0.443
10614TIP3   OH231718   8.505   1.891   7.627
10614TIP3    H131719   8.520   1.979   7.661
10614TIP3    H231720   8.466   1.904   7.540
10615TIP3   OH231721   9.148   5.020   5.787
10615TIP3    H131722   9.213   5.044   5.721
10615TIP3    H231723   9.067   5.063   5.759
10616TIP3   OH231724   6.740   4.205   0.474
10616TIP3    H131725   6.790   4.194   0.393
10616TIP3    H231726   6.669   4.265   0.450
10617TIP3   OH231727   7.820   5.216   5.155
10617TIP3    H131728   7.901   5.234   5.106
10617TIP3    H231729   7.779   5.302   5.165
10618TIP3   OH231730   0.786   3.817   1.348
10618TIP3    H131731   0.760   3.788   1.260
10618TIP3    H231732   0.861   3.874   1.333
10619TIP3   OH231733   5.206   5.711   7.401
10619TIP3    H131734   5.192   5.625   7.362
10619TIP3    H231735   5.286   5.743   7.361
10620TIP3   OH231736   0.344   7.102   2.026
10620TIP3    H131737   0.324   7.146   1.944
10620TIP3    H231738   0.391   7.023   2.000
10621TIP3   OH231739   0.707   0.940   4.246
10621TIP3    H131740   0.702   0.883   4.323
10621TIP3    H231741   0.688   1.027   4.280
10622TIP3   OH231742   4.176   7.077   0.446
10622TIP3    H131743   4.241   7.009   0.429
10622TIP3    H231744   4.226   7.149   0.485
10623TIP3   OH231745   4.749   6.607   3.147
10623TIP3    H131746   4.667   6.604   3.197
10623TIP3    H231747   4.812   6.646   3.207
10624TIP3   OH231748   2.170   1.297   1.186
10624TIP3    H131749   2.226   1.354   1.132
10624TIP3    H231750   2.171   1.213   1.141
10625TIP3   OH231751   3.576   6.185   0.445
10625TIP3    H131752   3.615   6.260   0.490
10625TIP3    H231753   3.642   6.158   0.382
10626TIP3   OH231754   2.349   2.909   5.529
10626TIP3    H131755   2.410   2.859   5.474
10626TIP3    H231756   2.383   2.899   5.618
10627TIP3   OH231757   4.082   3.960   1.688
10627TIP3    H131758   4.106   3.900   1.759
10627TIP3    H231759   4.134   4.038   1.704
10628TIP3   OH231760   4.060   3.839   6.662
10628TIP3    H131761   4.057   3.828   6.567
10628TIP3    H231762   4.151   3.862   6.681
10629TIP3   OH231763   0.431   7.420   1.996
10629TIP3    H131764   0.391   7.472   1.926
10629TIP3    H231765   0.398   7.459   2.077
10630TIP3   OH231766   9.203   0.610   3.168
10630TIP3    H131767   9.229   0.685   3.113
10630TIP3    H231768   9.277   0.550   3.161
10631TIP3   OH231769   5.922   4.494   0.129
10631TIP3    H131770   5.878   4.574   0.099
10631TIP3    H231771   5.864   4.457   0.195
10632TIP3   OH231772   0.171   6.824   1.100
10632TIP3    H131773   0.190   6.794   1.011
10632TIP3    H231774   0.209   6.911   1.105
10633TIP3   OH231775   0.710   3.822   6.921
10633TIP3    H131776   0.731   3.803   7.013
10633TIP3    H231777   0.712   3.918   6.916
10634TIP3   OH231778   8.758   6.592   6.106
10634TIP3    H131779   8.690   6.605   6.039
10634TIP3    H231780   8.748   6.668   6.164
10635TIP3   OH231781   2.424   7.527   6.124
10635TIP3    H131782   2.493   7.521   6.057
10635TIP3    H231783   2.358   7.464   6.096
10636TIP3   OH231784   4.418   8.201   6.369
10636TIP3    H131785   4.416   8.140   6.443
10636TIP3    H231786   4.495   8.255   6.384
10637TIP3   OH231787   8.495   7.015   2.312
10637TIP3    H131788   8.535   6.969   2.386
10637TIP3    H231789   8.531   7.104   2.316
10638TIP3   OH231790   8.231   3.456   4.908
10638TIP3    H131791   8.178   3.489   4.981
10638TIP3    H231792   8.314   3.505   4.915
10639TIP3   OH231793   9.469   6.088   6.531
10639TIP3    H131794   9.501   6.000   6.550
10639TIP3    H231795   9.391   6.075   6.478
10640TIP3   OH231796   0.313   3.246   5.258
10640TIP3    H131797   0.379   3.219   5.194
10640TIP3    H231798   0.355   3.316   5.308
10641TIP3   OH231799   2.122   3.292   0.038
10641TIP3    H131800   2.185   3.363   0.026
10641TIP3    H231801   2.108   3.257  -0.049
10642TIP3   OH231802   5.583   4.614   5.953
10642TIP3    H131803   5.608   4.567   6.032
10642TIP3    H231804   5.638   4.576   5.884
10643TIP3   OH231805   6.921   8.349   1.448
10643TIP3    H131806   6.848   8.379   1.503
10643TIP3    H231807   6.883   8.279   1.395
10644TIP3   OH231808   3.550   3.028   2.724
10644TIP3    H131809   3.497   2.952   2.750
10644TIP3    H231810   3.487   3.093   2.696
10645TIP3   OH231811   6.429   1.328   2.182
10645TIP3    H131812   6.479   1.342   2.262
10645TIP3    H231813   6.444   1.236   2.159
10646TIP3   OH231814   1.905   4.066   6.440
10646TIP3    H131815   1.837   4.026   6.493
10646TIP3    H231816   1.968   4.101   6.503
10647TIP3   OH231817   7.383   0.956   4.446
10647TIP3    H131818   7.474   0.980   4.428
10647TIP3    H231819   7.381   0.936   4.539
10648TIP3   OH231820   9.135   0.974   4.734
10648TIP3    H131821   9.164   1.063   4.714
10648TIP3    H231822   9.168   0.958   4.823
10649TIP3   OH231823   8.018   2.561   3.836
10649TIP3    H131824   7.961   2.634   3.858
10649TIP3    H231825   8.062   2.587   3.756
10650TIP3   OH231826   6.734   3.664   1.727
10650TIP3    H131827   6.822   3.665   1.765
10650TIP3    H231828   6.744   3.706   1.642
10651TIP3   OH231829   3.283   7.017   0.127
10651TIP3    H131830   3.374   6.987   0.117
10651TIP3    H231831   3.243   7.001   0.042
10652TIP3   OH231832   3.633   3.463   2.480
10652TIP3    H131833   3.546   3.500   2.492
10652TIP3    H231834   3.676   3.474   2.565
10653TIP3   OH231835   3.360   2.687   3.419
10653TIP3    H131836   3.328   2.660   3.505
10653TIP3    H231837   3.315   2.769   3.400
10654TIP3   OH231838   3.978   1.164   6.305
10654TIP3    H131839   4.056   1.109   6.316
10654TIP3    H231840   3.943   1.174   6.393
10655TIP3   OH231841   6.750   8.925   0.117
10655TIP3    H131842   6.746   8.946   0.211
10655TIP3    H231843   6.843   8.918   0.098
10656TIP3   OH231844   3.571   3.165   2.028
10656TIP3    H131845   3.498   3.116   1.991
10656TIP3    H231846   3.594   3.117   2.108
10657TIP3   OH231847   1.853   4.894   1.196
10657TIP3    H131848   1.891   4.813   1.228
10657TIP3    H231849   1.759   4.885   1.213
10658TIP3   OH231850   5.474   6.347   7.578
10658TIP3    H131851   5.529   6.374   7.504
10658TIP3    H231852   5.388   6.384   7.559
10659TIP3   OH231853   1.344   2.038   4.496
10659TIP3    H131854   1.275   2.105   4.495
10659TIP3    H231855   1.394   2.054   4.416
10660TIP3   OH231856   2.556   4.850   1.878
10660TIP3    H131857   2.523   4.874   1.964
10660TIP3    H231858   2.490   4.883   1.816
10661TIP3   OH231859   5.662   0.239   7.608
10661TIP3    H131860   5.687   0.330   7.592
10661TIP3    H231861   5.708   0.190   7.539
10662TIP3   OH231862   5.407   7.036   5.729
10662TIP3    H131863   5.358   7.027   5.647
10662TIP3    H231864   5.423   6.946   5.757
10663TIP3   OH231865   0.307   8.441   5.009
10663TIP3    H131866   0.380   8.451   4.948
10663TIP3    H231867   0.238   8.400   4.956
10664TIP3   OH231868   3.243   2.119   1.720
10664TIP3    H131869   3.312   2.085   1.663
10664TIP3    H231870   3.288   2.177   1.781
10665TIP3   OH231871   2.514   7.372   2.477
10665TIP3    H131872   2.461   7.300   2.510
10665TIP3    H231873   2.561   7.405   2.554
10666TIP3   OH231874   9.380   8.879   7.325
10666TIP3    H131875   9.406   8.941   7.393
10666TIP3    H231876   9.346   8.803   7.373
10667TIP3   OH231877   7.976   3.763   5.314
10667TIP3    H131878   7.981   3.837   5.375
10667TIP3    H231879   7.922   3.795   5.242
10668TIP3   OH231880   6.765   3.853   3.566
10668TIP3    H131881   6.713   3.778   3.536
10668TIP3    H231882   6.838   3.814   3.613
10669TIP3   OH231883   4.769   1.844   4.481
10669TIP3    H131884   4.833   1.781   4.446
10669TIP3    H231885   4.765   1.913   4.415
10670TIP3   OH231886   4.916   1.915   3.037
10670TIP3    H131887   4.857   1.870   2.977
10670TIP3    H231888   4.899   1.875   3.122
10671TIP3   OH231889   3.754   5.286   4.348
10671TIP3    H131890   3.758   5.347   4.274
10671TIP3    H231891   3.662   5.264   4.355
10672TIP3   OH231892   7.463   5.028   2.994
10672TIP3    H131893   7.380   5.003   2.952
10672TIP3    H231894   7.436   5.082   3.068
10673TIP3   OH231895   6.026   7.623   5.112
10673TIP3    H131896   5.941   7.582   5.128
10673TIP3    H231897   6.004   7.710   5.077
10674TIP3   OH231898   2.893   7.069   5.296
10674TIP3    H131899   2.861   7.015   5.368
10674TIP3    H231900   2.947   7.135   5.338
10675TIP3   OH231901   7.971   6.724   1.791
10675TIP3    H131902   7.884   6.764   1.785
10675TIP3    H231903   7.967   6.673   1.872
10676TIP3   OH231904   2.804   2.164   0.286
10676TIP3    H131905   2.893   2.199   0.290
10676TIP3    H231906   2.759   2.221   0.224
10677TIP3   OH231907   2.643   3.399   0.939
10677TIP3    H131908   2.683   3.362   0.860
10677TIP3    H231909   2.629   3.324   0.997
10678TIP3   OH231910   2.435   7.026   4.745
10678TIP3    H131911   2.459   7.065   4.661
10678TIP3    H231912   2.445   7.098   4.808
10679TIP3   OH231913   1.238   6.907   6.061
10679TIP3    H131914   1.179   6.979   6.085
10679TIP3    H231915   1.275   6.878   6.145
10680TIP3   OH231916   7.518   2.804   6.090
10680TIP3    H131917   7.426   2.812   6.068
10680TIP3    H231918   7.531   2.711   6.106
10681TIP3   OH231919   2.848   3.950   4.590
10681TIP3    H131920   2.784   3.879   4.581
10681TIP3    H231921   2.893   3.932   4.673
10682TIP3   OH231922   0.441   6.842   5.485
10682TIP3    H131923   0.394   6.797   5.415
10682TIP3    H231924   0.464   6.772   5.547
10683TIP3   OH231925   6.376   3.275   5.350
10683TIP3    H131926   6.355   3.208   5.284
10683TIP3    H231927   6.290   3.309   5.377
10684TIP3   OH231928   8.852   5.580   2.603
10684TIP3    H131929   8.857   5.484   2.602
10684TIP3    H231930   8.833   5.602   2.694
10685TIP3   OH231931   8.070   1.058   1.394
10685TIP3    H131932   8.082   1.147   1.426
10685TIP3    H231933   8.102   1.002   1.466
10686TIP3   OH231934   5.116   5.315   2.371
10686TIP3    H131935   5.205   5.279   2.364
10686TIP3    H231936   5.125   5.389   2.431
10687TIP3   OH231937   6.714   0.999   2.408
10687TIP3    H131938   6.648   1.050   2.455
10687TIP3    H231939   6.740   0.931   2.471
10688TIP3   OH231940   8.265   1.849   1.550
10688TIP3    H131941   8.260   1.880   1.641
10688TIP3    H231942   8.285   1.927   1.499
10689TIP3   OH231943   2.921   0.933   1.260
10689TIP3    H131944   3.013   0.910   1.271
10689TIP3    H231945   2.878   0.852   1.236
10690TIP3   OH231946   6.108   7.524   4.681
10690TIP3    H131947   6.204   7.526   4.683
10690TIP3    H231948   6.082   7.616   4.682
10691TIP3   OH231949   4.138   7.760   6.019
10691TIP3    H131950   4.204   7.727   5.957
10691TIP3    H231951   4.072   7.802   5.964
10692TIP3   OH231952   4.633   8.600   5.581
10692TIP3    H131953   4.644   8.575   5.490
10692TIP3    H231954   4.661   8.523   5.631
10693TIP3   OH231955   9.370   8.280   4.505
10693TIP3    H131956   9.446   8.258   4.559
10693TIP3    H231957   9.400   8.350   4.448
10694TIP3   OH231958   4.889   6.442   4.533
10694TIP3    H131959   4.982   6.448   4.512
10694TIP3    H231960   4.845   6.481   4.457
10695TIP3   OH231961   5.535   1.226   2.254
10695TIP3    H131962   5.621   1.256   2.222
10695TIP3    H231963   5.532   1.255   2.345
10696TIP3   OH231964   4.716   0.596   5.191
10696TIP3    H131965   4.740   0.541   5.265
10696TIP3    H231966   4.792   0.651   5.175
10697TIP3   OH231967   8.310   0.671   4.256
10697TIP3    H131968   8.351   0.617   4.189
10697TIP3    H231969   8.357   0.754   4.253
10698TIP3   OH231970   5.995   5.482   1.094
10698TIP3    H131971   6.084   5.487   1.059
10698TIP3    H231972   5.982   5.388   1.112
10699TIP3   OH231973   3.468   4.039   5.074
10699TIP3    H131974   3.499   4.011   5.160
10699TIP3    H231975   3.547   4.070   5.029
10700TIP3   OH231976   0.382   2.783   4.506
10700TIP3    H131977   0.310   2.750   4.452
10700TIP3    H231978   0.345   2.792   4.593
10701TIP3   OH231979   3.404   3.550   0.116
10701TIP3    H131980   3.323   3.537   0.165
10701TIP3    H231981   3.439   3.633   0.149
10702TIP3   OH231982   7.039   2.128   7.237
10702TIP3    H131983   6.982   2.073   7.184
10702TIP3    H231984   7.116   2.074   7.254
10703TIP3   OH231985   5.369   2.323   7.151
10703TIP3    H131986   5.333   2.388   7.212
10703TIP3    H231987   5.328   2.241   7.177
10704TIP3   OH231988   4.581   1.738   1.112
10704TIP3    H131989   4.626   1.721   1.029
10704TIP3    H231990   4.646   1.721   1.179
10705TIP3   OH231991   8.569   2.276   5.149
10705TIP3    H131992   8.599   2.296   5.238
10705TIP3    H231993   8.558   2.181   5.148
10706TIP3   OH231994   1.401   6.431   2.945
10706TIP3    H131995   1.495   6.410   2.946
10706TIP3    H231996   1.389   6.486   2.868
10707TIP3   OH231997   1.285   1.750   4.707
10707TIP3    H131998   1.261   1.821   4.767
10707TIP3    H231999   1.283   1.791   4.620
10708TIP3   OH232000   7.896   7.469   3.430
10708TIP3    H132001   7.864   7.483   3.340
10708TIP3    H232002   7.902   7.374   3.439
10709TIP3   OH232003   6.833   7.068   3.900
10709TIP3    H132004   6.811   7.024   3.818
10709TIP3    H232005   6.887   7.143   3.873
10710TIP3   OH232006   3.459   2.798   4.423
10710TIP3    H132007   3.456   2.892   4.408
10710TIP3    H232008   3.370   2.768   4.403
10711TIP3   OH232009   1.949   5.891   1.006
10711TIP3    H132010   1.979   5.919   0.920
10711TIP3    H232011   2.023   5.840   1.041
10712TIP3   OH232012   8.357   3.538   5.366
10712TIP3    H132013   8.427   3.588   5.406
10712TIP3    H232014   8.377   3.447   5.388
10713TIP3   OH232015   4.748   1.200   1.396
10713TIP3    H132016   4.834   1.203   1.355
10713TIP3    H232017   4.757   1.135   1.466
10714TIP3   OH232018   2.154   8.565   0.921
10714TIP3    H132019   2.229   8.611   0.958
10714TIP3    H232020   2.078   8.615   0.952
10715TIP3   OH232021   2.355   5.286   5.923
10715TIP3    H132022   2.328   5.200   5.956
10715TIP3    H232023   2.303   5.298   5.844
10716TIP3   OH232024   2.099   6.524   4.824
10716TIP3    H132025   2.185   6.537   4.784
10716TIP3    H232026   2.038   6.523   4.751
10717TIP3   OH232027   6.279   3.428   0.463
10717TIP3    H132028   6.195   3.410   0.421
10717TIP3    H232029   6.339   3.362   0.428
10718TIP3   OH232030   5.058   6.617   5.637
10718TIP3    H132031   4.967   6.641   5.617
10718TIP3    H232032   5.104   6.624   5.553
10719TIP3   OH232033   3.673   1.934   1.489
10719TIP3    H132034   3.699   1.878   1.416
10719TIP3    H232035   3.692   2.023   1.460
10720TIP3   OH232036   4.672   6.339   4.663
10720TIP3    H132037   4.686   6.244   4.657
10720TIP3    H232038   4.741   6.376   4.608
10721TIP3   OH232039   5.270   3.651   5.491
10721TIP3    H132040   5.264   3.645   5.586
10721TIP3    H232041   5.362   3.673   5.474
10722TIP3   OH232042   7.513   3.721   1.032
10722TIP3    H132043   7.556   3.635   1.038
10722TIP3    H232044   7.456   3.714   0.956
10723TIP3   OH232045   0.827   0.704   4.709
10723TIP3    H132046   0.849   0.612   4.690
10723TIP3    H232047   0.910   0.744   4.736
10724TIP3   OH232048   2.089   1.561   2.858
10724TIP3    H132049   2.165   1.560   2.799
10724TIP3    H232050   2.096   1.479   2.907
10725TIP3   OH232051   5.540   1.450   7.477
10725TIP3    H132052   5.453   1.490   7.469
10725TIP3    H232053   5.594   1.519   7.517
10726TIP3   OH232054   8.495   0.738   7.478
10726TIP3    H132055   8.420   0.702   7.431
10726TIP3    H232056   8.510   0.677   7.550
10727TIP3   OH232057   8.624   4.066   4.662
10727TIP3    H132058   8.661   3.981   4.684
10727TIP3    H232059   8.529   4.055   4.674
10728TIP3   OH232060   6.860   5.679   6.326
10728TIP3    H132061   6.946   5.721   6.325
10728TIP3    H232062   6.862   5.620   6.250
10729TIP3   OH232063   6.870   7.708   6.200
10729TIP3    H132064   6.939   7.771   6.221
10729TIP3    H232065   6.798   7.763   6.168
10730TIP3   OH232066   1.116   5.049   7.667
10730TIP3    H132067   1.159   4.998   7.735
10730TIP3    H232068   1.185   5.066   7.602
10731TIP3   OH232069   9.040   0.722   4.647
10731TIP3    H132070   9.108   0.787   4.629
10731TIP3    H232071   9.026   0.728   4.741
10732TIP3   OH232072   7.316   6.218   1.883
10732TIP3    H132073   7.357   6.135   1.908
10732TIP3    H232074   7.340   6.279   1.953
10733TIP3   OH232075   8.306   5.280   3.327
10733TIP3    H132076   8.238   5.304   3.265
10733TIP3    H232077   8.387   5.308   3.286
10734TIP3   OH232078   0.340   0.194   2.477
10734TIP3    H132079   0.335   0.122   2.414
10734TIP3    H232080   0.404   0.165   2.542
10735TIP3   OH232081   3.070   0.690   3.415
10735TIP3    H132082   2.983   0.657   3.438
10735TIP3    H232083   3.055   0.782   3.392
10736TIP3   OH232084   4.685   0.891   4.322
10736TIP3    H132085   4.638   0.812   4.296
10736TIP3    H232086   4.742   0.911   4.248
10737TIP3   OH232087   6.392   2.544   6.090
10737TIP3    H132088   6.397   2.598   6.011
10737TIP3    H232089   6.323   2.583   6.143
10738TIP3   OH232090   6.206   7.227   5.538
10738TIP3    H132091   6.153   7.225   5.617
10738TIP3    H232092   6.146   7.198   5.469
10739TIP3   OH232093   0.345   7.843   2.132
10739TIP3    H132094   0.282   7.875   2.067
10739TIP3    H232095   0.397   7.778   2.086
10740TIP3   OH232096   0.179   2.047   0.352
10740TIP3    H132097   0.261   1.999   0.359
10740TIP3    H232098   0.113   1.988   0.387
10741TIP3   OH232099   2.182   3.503   2.149
10741TIP3    H132100   2.211   3.427   2.097
10741TIP3    H232101   2.158   3.466   2.234
10742TIP3   OH232102   9.063   3.439   5.078
10742TIP3    H132103   9.021   3.354   5.093
10742TIP3    H232104   9.079   3.441   4.984
10743TIP3   OH232105   2.126   0.480   0.958
10743TIP3    H132106   2.177   0.522   0.888
10743TIP3    H232107   2.136   0.539   1.033
10744TIP3   OH232108   1.906   6.872   2.333
10744TIP3    H132109   1.814   6.872   2.305
10744TIP3    H232110   1.956   6.854   2.253
10745TIP3   OH232111   6.812   4.117   4.953
10745TIP3    H132112   6.759   4.066   5.014
10745TIP3    H232113   6.869   4.052   4.911
10746TIP3   OH232114   4.404   3.991   5.629
10746TIP3    H132115   4.351   3.912   5.638
10746TIP3    H232116   4.493   3.959   5.613
10747TIP3   OH232117   7.436   0.875   0.945
10747TIP3    H132118   7.462   0.967   0.948
10747TIP3    H232119   7.341   0.876   0.953
10748TIP3   OH232120   5.316   4.817   3.833
10748TIP3    H132121   5.375   4.890   3.811
10748TIP3    H232122   5.375   4.748   3.864
10749TIP3   OH232123   8.950   6.832   4.368
10749TIP3    H132124   8.864   6.871   4.350
10749TIP3    H232125   9.013   6.901   4.344
10750TIP3   OH232126   0.833   6.013   4.448
10750TIP3    H132127   0.878   6.096   4.463
10750TIP3    H232128   0.831   5.971   4.534
10751TIP3   OH232129   2.295   7.614   2.705
10751TIP3    H132130   2.226   7.648   2.648
10751TIP3    H232131   2.373   7.663   2.680
10752TIP3   OH232132   4.433   5.408   3.654
10752TIP3    H132133   4.450   5.502   3.642
10752TIP3    H232134   4.385   5.383   3.576
10753TIP3   OH232135   2.357   0.740   3.509
10753TIP3    H132136   2.279   0.699   3.472
10753TIP3    H232137   2.338   0.834   3.507
10754TIP3   OH232138   8.210   0.422   4.099
10754TIP3    H132139   8.172   0.476   4.030
10754TIP3    H232140   8.241   0.343   4.055
10755TIP3   OH232141   3.282   3.748   0.347
10755TIP3    H132142   3.203   3.789   0.312
10755TIP3    H232143   3.353   3.781   0.292
10756TIP3   OH232144   0.102   4.726   2.586
10756TIP3    H132145   0.047   4.800   2.611
10756TIP3    H232146   0.157   4.710   2.663
10757TIP3   OH232147   2.709   2.620   6.474
10757TIP3    H132148   2.625   2.574   6.477
10757TIP3    H232149   2.756   2.579   6.402
10758TIP3   OH232150   8.108   2.806   3.318
10758TIP3    H132151   8.181   2.818   3.258
10758TIP3    H232152   8.118   2.876   3.383
10759TIP3   OH232153   0.090   0.316   2.456
10759TIP3    H132154   0.179   0.293   2.483
10759TIP3    H232155   0.096   0.408   2.429
10760TIP3   OH232156   8.660   6.074   3.328
10760TIP3    H132157   8.582   6.105   3.375
10760TIP3    H232158   8.725   6.142   3.343
10761TIP3   OH232159   2.287   6.556   0.016
10761TIP3    H132160   2.344   6.611   0.069
10761TIP3    H232161   2.330   6.552  -0.070
10762TIP3   OH232162   8.554   3.248   4.636
10762TIP3    H132163   8.521   3.199   4.710
10762TIP3    H232164   8.518   3.204   4.559
10763TIP3   OH232165   0.101   6.194   7.773
10763TIP3    H132166   0.190   6.199   7.738
10763TIP3    H232167   0.112   6.158   7.861
10764TIP3   OH232168   6.454   0.703   4.830
10764TIP3    H132169   6.419   0.698   4.919
10764TIP3    H232170   6.542   0.666   4.836
10765TIP3   OH232171   4.562   2.971   2.353
10765TIP3    H132172   4.564   2.907   2.424
10765TIP3    H232173   4.593   2.923   2.277
10766TIP3   OH232174   7.227   8.001   3.821
10766TIP3    H132175   7.253   7.911   3.800
10766TIP3    H232176   7.247   8.010   3.914
10767TIP3   OH232177   6.529   5.428   4.484
10767TIP3    H132178   6.593   5.401   4.550
10767TIP3    H232179   6.577   5.485   4.424
10768TIP3   OH232180   9.096   5.074   3.558
10768TIP3    H132181   9.055   5.138   3.617
10768TIP3    H232182   9.054   5.089   3.473
10769TIP3   OH232183   5.218   0.500   6.653
10769TIP3    H132184   5.151   0.563   6.682
10769TIP3    H232185   5.301   0.541   6.677
10770TIP3   OH232186   5.822   8.224   6.521
10770TIP3    H132187   5.745   8.238   6.576
10770TIP3    H232188   5.788   8.185   6.441
10771TIP3   OH232189   4.097   1.024   0.628
10771TIP3    H132190   4.067   1.036   0.718
10771TIP3    H232191   4.147   0.942   0.631
10772TIP3   OH232192   4.452   2.219   3.882
10772TIP3    H132193   4.538   2.260   3.880
10772TIP3    H232194   4.391   2.292   3.878
10773TIP3   OH232195   3.499   0.619   0.284
10773TIP3    H132196   3.563   0.677   0.242
10773TIP3    H232197   3.519   0.625   0.377
10774TIP3   OH232198   6.584   6.314   1.845
10774TIP3    H132199   6.610   6.343   1.758
10774TIP3    H232200   6.493   6.285   1.834
10775TIP3   OH232201   8.758   0.879   1.411
10775TIP3    H132202   8.693   0.878   1.482
10775TIP3    H232203   8.842   0.868   1.456
10776TIP3   OH232204   2.725   4.867   6.776
10776TIP3    H132205   2.754   4.819   6.699
10776TIP3    H232206   2.655   4.925   6.743
10777TIP3   OH232207   4.348   6.965   1.937
10777TIP3    H132208   4.384   6.877   1.945
10777TIP3    H232209   4.425   7.022   1.927
10778TIP3   OH232210   6.323   2.999   5.185
10778TIP3    H132211   6.286   2.960   5.264
10778TIP3    H232212   6.329   2.927   5.123
10779TIP3   OH232213   1.955   6.146   3.897
10779TIP3    H132214   2.050   6.133   3.900
10779TIP3    H232215   1.943   6.239   3.919
10780TIP3   OH232216   7.611   6.475   4.330
10780TIP3    H132217   7.620   6.431   4.246
10780TIP3    H232218   7.659   6.419   4.391
10781TIP3   OH232219   6.271   0.531   7.244
10781TIP3    H132220   6.243   0.540   7.153
10781TIP3    H232221   6.275   0.621   7.277
10782TIP3   OH232222   8.702   1.015   5.475
10782TIP3    H132223   8.631   1.077   5.455
10782TIP3    H232224   8.663   0.929   5.465
10783TIP3   OH232225   5.340   1.265   2.043
10783TIP3    H132226   5.364   1.343   1.993
10783TIP3    H232227   5.415   1.250   2.101
10784TIP3   OH232228   1.588   3.524   1.582
10784TIP3    H132229   1.538   3.604   1.599
10784TIP3    H232230   1.522   3.454   1.580
10785TIP3   OH232231   7.311   2.209   5.595
10785TIP3    H132232   7.260   2.266   5.536
10785TIP3    H232233   7.245   2.157   5.640
10786TIP3   OH232234   3.797   8.624   7.798
10786TIP3    H132235   3.780   8.597   7.708
10786TIP3    H232236   3.722   8.592   7.848
10787TIP3   OH232237   6.101   8.841   6.636
10787TIP3    H132238   6.081   8.862   6.545
10787TIP3    H232239   6.164   8.770   6.631
10788TIP3   OH232240   6.581   0.223   0.952
10788TIP3    H132241   6.520   0.172   0.898
10788TIP3    H232242   6.611   0.293   0.894
10789TIP3   OH232243   3.053   0.308   5.827
10789TIP3    H132244   3.016   0.354   5.751
10789TIP3    H232245   3.096   0.376   5.878
10790TIP3   OH232246   5.007   2.606   4.665
10790TIP3    H132247   4.965   2.569   4.743
10790TIP3    H232248   4.998   2.700   4.675
10791TIP3   OH232249   9.558   6.072   7.479
10791TIP3    H132250   9.610   6.134   7.428
10791TIP3    H232251   9.486   6.048   7.422
10792TIP3   OH232252   6.728   0.497   3.515
10792TIP3    H132253   6.669   0.560   3.557
10792TIP3    H232254   6.700   0.496   3.423
10793TIP3   OH232255   0.230   2.457   6.010
10793TIP3    H132256   0.193   2.371   6.031
10793TIP3    H232257   0.212   2.470   5.917
10794TIP3   OH232258   6.574   9.013   4.902
10794TIP3    H132259   6.523   8.986   4.826
10794TIP3    H232260   6.576   8.936   4.959
10795TIP3   OH232261   0.111   1.637   5.679
10795TIP3    H132262   0.193   1.591   5.662
10795TIP3    H232263   0.045   1.568   5.683
10796TIP3   OH232264   7.905   8.051   0.699
10796TIP3    H132265   7.813   8.065   0.723
10796TIP3    H232266   7.920   7.958   0.717
10797TIP3   OH232267   5.217   4.813   2.267
10797TIP3    H132268   5.187   4.892   2.222
10797TIP3    H232269   5.303   4.794   2.229
10798TIP3   OH232270   8.458   4.386   4.660
10798TIP3    H132271   8.495   4.404   4.573
10798TIP3    H232272   8.412   4.467   4.683
10799TIP3   OH232273   9.245   6.642   6.511
10799TIP3    H132274   9.249   6.627   6.417
10799TIP3    H232275   9.255   6.554   6.549
10800TIP3   OH232276   3.770   2.763   7.183
10800TIP3    H132277   3.841   2.716   7.228
10800TIP3    H232278   3.809   2.795   7.102
10801TIP3   OH232279   0.792   6.117   5.081
10801TIP3    H132280   0.725   6.180   5.106
10801TIP3    H232281   0.752   6.031   5.098
10802TIP3   OH232282   0.903   0.478   0.004
10802TIP3    H132283   0.965   0.468  -0.068
10802TIP3    H232284   0.939   0.422   0.073
10803TIP3   OH232285   6.218   6.510   3.594
10803TIP3    H132286   6.280   6.438   3.604
10803TIP3    H232287   6.210   6.547   3.682
10804TIP3   OH232288   9.304   4.155   4.356
10804TIP3    H132289   9.219   4.112   4.359
10804TIP3    H232290   9.294   4.224   4.292
10805TIP3   OH232291   4.588   8.179   6.901
10805TIP3    H132292   4.548   8.259   6.935
10805TIP3    H232293   4.653   8.208   6.838
10806TIP3   OH232294   1.033   5.056   5.122
10806TIP3    H132295   0.987   5.136   5.148
10806TIP3    H232296   1.092   5.037   5.195
10807TIP3   OH232297   7.557   7.728   1.100
10807TIP3    H132298   7.536   7.664   1.169
10807TIP3    H232299   7.479   7.731   1.045
10808TIP3   OH232300   8.132   6.679   0.882
10808TIP3    H132301   8.163   6.762   0.918
10808TIP3    H232302   8.087   6.636   0.955
10809TIP3   OH232303   1.514   3.586   5.573
10809TIP3    H132304   1.594   3.561   5.618
10809TIP3    H232305   1.537   3.582   5.480
10810TIP3   OH232306   6.826   7.226   2.489
10810TIP3    H132307   6.857   7.171   2.417
10810TIP3    H232308   6.740   7.190   2.512
10811TIP3   OH232309   6.736   2.274   5.671
10811TIP3    H132310   6.770   2.320   5.748
10811TIP3    H232311   6.641   2.270   5.686
10812TIP3   OH232312   0.367   1.898   5.665
10812TIP3    H132313   0.460   1.880   5.653
10812TIP3    H232314   0.355   1.899   5.761
10813TIP3   OH232315   5.879   8.966   0.773
10813TIP3    H132316   5.965   9.001   0.753
10813TIP3    H232317   5.818   9.035   0.747
10814TIP3   OH232318   2.239   1.850   2.726
10814TIP3    H132319   2.149   1.876   2.746
10814TIP3    H232320   2.279   1.930   2.690
10815TIP3   OH232321   9.200   0.938   2.647
10815TIP3    H132322   9.153   0.879   2.706
10815TIP3    H232323   9.137   1.008   2.627
10816TIP3   OH232324   2.212   4.715   4.040
10816TIP3    H132325   2.126   4.730   4.001
10816TIP3    H232326   2.248   4.641   3.990
10817TIP3   OH232327   2.436   3.969   1.845
10817TIP3    H132328   2.362   3.929   1.891
10817TIP3    H232329   2.444   4.056   1.883
10818TIP3   OH232330   1.041   7.693   0.951
10818TIP3    H132331   1.080   7.606   0.961
10818TIP3    H232332   1.095   7.751   1.005
10819TIP3   OH232333   9.288   2.897   0.073
10819TIP3    H132334   9.324   2.955   0.140
10819TIP3    H232335   9.231   2.838   0.120
10820TIP3   OH232336   4.610   8.167   3.020
10820TIP3    H132337   4.555   8.149   2.944
10820TIP3    H232338   4.653   8.083   3.039
10821TIP3   OH232339   0.300   0.968   0.675
10821TIP3    H132340   0.318   0.894   0.617
10821TIP3    H232341   0.325   0.935   0.762
10822TIP3   OH232342   5.769   0.969   1.929
10822TIP3    H132343   5.676   0.968   1.908
10822TIP3    H232344   5.814   0.949   1.847
10823TIP3   OH232345   6.536   2.007   4.009
10823TIP3    H132346   6.471   2.068   4.043
10823TIP3    H232347   6.496   1.968   3.932
10824TIP3   OH232348   6.008   8.959   1.486
10824TIP3    H132349   5.972   9.043   1.457
10824TIP3    H232350   6.052   8.978   1.569
10825TIP3   OH232351   1.097   4.031   2.965
10825TIP3    H132352   1.077   4.060   2.876
10825TIP3    H232353   1.097   3.935   2.960
10826TIP3   OH232354   3.079   6.676   3.127
10826TIP3    H132355   3.171   6.690   3.104
10826TIP3    H232356   3.038   6.652   3.044
10827TIP3   OH232357   6.872   5.880   5.318
10827TIP3    H132358   6.833   5.793   5.325
10827TIP3    H232359   6.802   5.934   5.279
10828TIP3   OH232360   8.394   0.294   7.183
10828TIP3    H132361   8.331   0.366   7.176
10828TIP3    H232362   8.426   0.299   7.273
10829TIP3   OH232363   3.937   5.654   7.329
10829TIP3    H132364   3.992   5.730   7.349
10829TIP3    H232365   3.847   5.687   7.338
10830TIP3   OH232366   8.888   5.233   1.902
10830TIP3    H132367   8.801   5.261   1.930
10830TIP3    H232368   8.948   5.290   1.948
10831TIP3   OH232369   2.137   7.919   6.280
10831TIP3    H132370   2.201   7.849   6.280
10831TIP3    H232371   2.109   7.926   6.189
10832TIP3   OH232372   2.708   5.291   6.998
10832TIP3    H132373   2.674   5.218   7.051
10832TIP3    H232374   2.690   5.369   7.051
10833TIP3   OH232375   5.757   7.186   7.292
10833TIP3    H132376   5.788   7.140   7.370
10833TIP3    H232377   5.681   7.236   7.323
10834TIP3   OH232378   8.666   3.364   2.374
10834TIP3    H132379   8.756   3.393   2.392
10834TIP3    H232380   8.613   3.444   2.385
10835TIP3   OH232381   5.840   5.944   0.786
10835TIP3    H132382   5.755   5.930   0.828
10835TIP3    H232383   5.901   5.956   0.859
10836TIP3   OH232384   1.419   4.277   3.866
10836TIP3    H132385   1.339   4.316   3.829
10836TIP3    H232386   1.387   4.220   3.936
10837TIP3   OH232387   5.496   5.944   4.391
10837TIP3    H132388   5.562   5.987   4.336
10837TIP3    H232389   5.498   5.993   4.473
10838TIP3   OH232390   1.556   5.267   0.657
10838TIP3    H132391   1.573   5.174   0.644
10838TIP3    H232392   1.539   5.275   0.751
10839TIP3   OH232393   8.816   6.550   6.645
10839TIP3    H132394   8.841   6.557   6.737
10839TIP3    H232395   8.720   6.548   6.646
10840TIP3   OH232396   6.454   0.079   7.561
10840TIP3    H132397   6.417   0.156   7.517
10840TIP3    H232398   6.431   0.006   7.505
10841TIP3   OH232399   7.439   2.410   0.202
10841TIP3    H132400   7.530   2.391   0.223
10841TIP3    H232401   7.441   2.437   0.110
10842TIP3   OH232402   9.156   4.945   0.662
10842TIP3    H132403   9.071   4.989   0.662
10842TIP3    H232404   9.209   4.996   0.722
10843TIP3   OH232405   0.334   6.890   2.467
10843TIP3    H132406   0.297   6.811   2.428
10843TIP3    H232407   0.417   6.903   2.421
10844TIP3   OH232408   5.312   4.107   5.888
10844TIP3    H132409   5.230   4.156   5.888
10844TIP3    H232410   5.306   4.049   5.813
10845TIP3   OH232411   2.570   0.364   3.062
10845TIP3    H132412   2.508   0.365   3.134
10845TIP3    H232413   2.548   0.440   3.009
10846TIP3   OH232414   4.439   8.132   5.056
10846TIP3    H132415   4.375   8.116   5.126
10846TIP3    H232416   4.441   8.050   5.007
10847TIP3   OH232417   8.455   7.518   1.064
10847TIP3    H132418   8.376   7.480   1.102
10847TIP3    H232419   8.513   7.443   1.051
10848TIP3   OH232420   6.858   8.254   4.537
10848TIP3    H132421   6.816   8.339   4.546
10848TIP3    H232422   6.948   8.273   4.510
10849TIP3   OH232423   7.972   2.478   0.574
10849TIP3    H132424   7.998   2.427   0.651
10849TIP3    H232425   8.039   2.547   0.568
10850TIP3   OH232426   9.351   2.669   5.364
10850TIP3    H132427   9.351   2.761   5.336
10850TIP3    H232428   9.439   2.655   5.400
10851TIP3   OH232429   4.677   5.881   7.784
10851TIP3    H132430   4.727   5.954   7.819
10851TIP3    H232431   4.630   5.846   7.859
10852TIP3   OH232432   1.810   0.548   7.729
10852TIP3    H132433   1.785   0.456   7.735
10852TIP3    H232434   1.878   0.559   7.796
10853TIP3   OH232435   2.545   0.759   6.357
10853TIP3    H132436   2.559   0.714   6.274
10853TIP3    H232437   2.592   0.842   6.348
10854TIP3   OH232438   5.886   8.115   7.046
10854TIP3    H132439   5.830   8.121   6.968
10854TIP3    H232440   5.849   8.179   7.107
10855TIP3   OH232441   3.427   3.209   7.317
10855TIP3    H132442   3.411   3.274   7.248
10855TIP3    H232443   3.402   3.253   7.398
10856TIP3   OH232444   3.996   4.085   6.446
10856TIP3    H132445   4.057   4.020   6.410
10856TIP3    H232446   3.928   4.033   6.488
10857TIP3   OH232447   1.727   3.625   0.143
10857TIP3    H132448   1.736   3.698   0.203
10857TIP3    H232449   1.815   3.613   0.106
10858TIP3   OH232450   8.273   0.544   7.415
10858TIP3    H132451   8.331   0.476   7.449
10858TIP3    H232452   8.190   0.532   7.461
10859TIP3   OH232453   5.267   6.843   0.567
10859TIP3    H132454   5.233   6.758   0.594
10859TIP3    H232455   5.190   6.898   0.557
10860TIP3   OH232456   6.863   3.895   4.317
10860TIP3    H132457   6.888   3.857   4.233
10860TIP3    H232458   6.781   3.851   4.340
10861TIP3   OH232459   2.887   4.410   1.662
10861TIP3    H132460   2.917   4.340   1.720
10861TIP3    H232461   2.859   4.480   1.721
10862TIP3   OH232462   2.283   3.327   2.692
10862TIP3    H132463   2.194   3.352   2.669
10862TIP3    H232464   2.273   3.251   2.750
10863TIP3   OH232465   3.734   7.088   6.114
10863TIP3    H132466   3.706   7.126   6.197
10863TIP3    H232467   3.653   7.076   6.064
10864TIP3   OH232468   1.756   3.649   5.272
10864TIP3    H132469   1.814   3.671   5.199
10864TIP3    H232470   1.763   3.554   5.281
10865TIP3   OH232471   6.133   4.108   4.301
10865TIP3    H132472   6.084   4.054   4.363
10865TIP3    H232473   6.163   4.183   4.352
10866TIP3   OH232474   2.631   3.016   3.904
10866TIP3    H132475   2.719   3.042   3.930
10866TIP3    H232476   2.644   2.970   3.821
10867TIP3   OH232477   4.680   1.411   2.644
10867TIP3    H132478   4.659   1.401   2.737
10867TIP3    H232479   4.614   1.471   2.611
10868TIP3   OH232480   3.298   2.600   6.360
10868TIP3    H132481   3.207   2.589   6.390
10868TIP3    H232482   3.296   2.572   6.268
10869TIP3   OH232483   0.281   4.430   3.948
10869TIP3    H132484   0.277   4.417   4.043
10869TIP3    H232485   0.219   4.501   3.931
10870TIP3   OH232486   6.272   1.853   7.620
10870TIP3    H132487   6.275   1.941   7.581
10870TIP3    H232488   6.232   1.798   7.552
10871TIP3   OH232489   6.539   5.080   1.087
10871TIP3    H132490   6.583   5.011   1.039
10871TIP3    H232491   6.450   5.081   1.052
10872TIP3   OH232492   5.401   3.698   3.574
10872TIP3    H132493   5.392   3.757   3.499
10872TIP3    H232494   5.477   3.644   3.553
10873TIP3   OH232495   7.988   5.644   6.732
10873TIP3    H132496   8.071   5.685   6.753
10873TIP3    H232497   7.991   5.558   6.775
10874TIP3   OH232498   3.219   7.560   5.858
10874TIP3    H132499   3.289   7.523   5.804
10874TIP3    H232500   3.153   7.491   5.863
10875TIP3   OH232501   6.030   0.565   7.395
10875TIP3    H132502   6.111   0.519   7.419
10875TIP3    H232503   6.054   0.619   7.320
10876TIP3   OH232504   8.720   7.053   4.716
10876TIP3    H132505   8.682   7.126   4.766
10876TIP3    H232506   8.650   6.988   4.712
10877TIP3   OH232507   7.737   6.530   0.543
10877TIP3    H132508   7.770   6.593   0.479
10877TIP3    H232509   7.815   6.489   0.579
10878TIP3   OH232510   2.614   1.104   0.612
10878TIP3    H132511   2.666   1.100   0.692
10878TIP3    H232512   2.530   1.065   0.636
10879TIP3   OH232513   8.502   8.499   2.341
10879TIP3    H132514   8.446   8.561   2.386
10879TIP3    H232515   8.443   8.428   2.315
10880TIP3   OH232516   5.274   3.024   6.149
10880TIP3    H132517   5.285   3.119   6.145
10880TIP3    H232518   5.333   2.996   6.220
10881TIP3   OH232519   3.388   3.543   1.540
10881TIP3    H132520   3.354   3.527   1.452
10881TIP3    H232521   3.438   3.625   1.532
10882TIP3   OH232522   1.111   4.504   2.257
10882TIP3    H132523   1.204   4.499   2.233
10882TIP3    H232524   1.112   4.538   2.347
10883TIP3   OH232525   7.469   7.074   2.356
10883TIP3    H132526   7.559   7.089   2.327
10883TIP3    H232527   7.470   7.093   2.450
10884TIP3   OH232528   5.813   6.835   0.923
10884TIP3    H132529   5.842   6.925   0.907
10884TIP3    H232530   5.774   6.808   0.840
10885TIP3   OH232531   1.737   1.177   6.236
10885TIP3    H132532   1.686   1.254   6.262
10885TIP3    H232533   1.708   1.108   6.296
10886TIP3   OH232534   2.659   8.159   6.551
10886TIP3    H132535   2.603   8.082   6.560
10886TIP3    H232536   2.740   8.125   6.513
10887TIP3   OH232537   0.085   8.843   2.504
10887TIP3    H132538   0.043   8.764   2.537
10887TIP3    H232539   0.085   8.832   2.409
10888TIP3   OH232540   8.042   7.066   7.022
10888TIP3    H132541   8.110   7.072   7.090
10888TIP3    H232542   8.017   6.973   7.022
10889TIP3   OH232543   9.258   5.581   3.584
10889TIP3    H132544   9.255   5.637   3.662
10889TIP3    H232545   9.337   5.609   3.537
10890TIP3   OH232546   0.909   6.054   0.084
10890TIP3    H132547   0.863   5.989   0.137
10890TIP3    H232548   0.862   6.136   0.100
10891TIP3   OH232549   6.247   4.960   4.063
10891TIP3    H132550   6.305   4.888   4.088
10891TIP3    H232551   6.300   5.013   4.003
10892TIP3   OH232552   3.785   4.116   5.593
10892TIP3    H132553   3.868   4.068   5.601
10892TIP3    H232554   3.810   4.208   5.596
10893TIP3   OH232555   2.107   2.410   0.492
10893TIP3    H132556   2.128   2.503   0.485
10893TIP3    H232557   2.166   2.368   0.430
10894TIP3   OH232558   6.403   6.603   5.979
10894TIP3    H132559   6.454   6.526   6.004
10894TIP3    H232560   6.314   6.584   6.011
10895TIP3   OH232561   7.089   1.307   2.090
10895TIP3    H132562   7.058   1.303   2.000
10895TIP3    H232563   7.053   1.389   2.124
10896TIP3   OH232564   2.937   2.568   3.415
10896TIP3    H132565   2.869   2.622   3.456
10896TIP3    H232566   2.945   2.603   3.326
10897TIP3   OH232567   8.818   6.561   7.792
10897TIP3    H132568   8.914   6.558   7.793
10897TIP3    H232569   8.792   6.479   7.834
10898TIP3   OH232570   1.367   8.220   5.786
10898TIP3    H132571   1.398   8.292   5.732
10898TIP3    H232572   1.395   8.243   5.875
10899TIP3   OH232573   0.009   5.298   0.957
10899TIP3    H132574  -0.060   5.327   0.898
10899TIP3    H232575  -0.037   5.252   1.027
10900TIP3   OH232576   4.859   4.428   0.361
10900TIP3    H132577   4.900   4.345   0.337
10900TIP3    H232578   4.798   4.446   0.290
10901TIP3   OH232579   9.445   0.754   7.529
10901TIP3    H132580   9.353   0.781   7.520
10901TIP3    H232581   9.481   0.763   7.441
10902TIP3   OH232582   1.532   2.838   4.432
10902TIP3    H132583   1.547   2.778   4.359
10902TIP3    H232584   1.529   2.781   4.509
10903TIP3   OH232585   3.772   4.318   1.690
10903TIP3    H132586   3.751   4.231   1.723
10903TIP3    H232587   3.851   4.306   1.638
10904TIP3   OH232588   9.368   0.509   5.510
10904TIP3    H132589   9.450   0.509   5.559
10904TIP3    H232590   9.380   0.444   5.441
10905TIP3   OH232591   2.891   7.479   6.717
10905TIP3    H132592   2.862   7.389   6.729
10905TIP3    H232593   2.962   7.473   6.653
10906TIP3   OH232594   4.607   7.480   0.755
10906TIP3    H132595   4.589   7.388   0.736
10906TIP3    H232596   4.683   7.478   0.814
10907TIP3   OH232597   6.019   2.989   5.578
10907TIP3    H132598   5.955   2.956   5.641
10907TIP3    H232599   5.984   3.073   5.549
10908TIP3   OH232600   2.318   5.527   2.903
10908TIP3    H132601   2.357   5.614   2.908
10908TIP3    H232602   2.340   5.486   2.987
10909TIP3   OH232603   9.061   6.812   5.367
10909TIP3    H132604   8.974   6.807   5.328
10909TIP3    H232605   9.047   6.856   5.451
10910TIP3   OH232606   2.964   7.734   6.737
10910TIP3    H132607   3.044   7.700   6.696
10910TIP3    H232608   2.905   7.659   6.741
10911TIP3   OH232609   6.047   5.293   2.702
10911TIP3    H132610   6.120   5.353   2.718
10911TIP3    H232611   5.994   5.298   2.781
10912TIP3   OH232612   1.496   7.913   6.575
10912TIP3    H132613   1.413   7.946   6.612
10912TIP3    H232614   1.560   7.980   6.597
10913TIP3   OH232615   2.830   8.464   3.660
10913TIP3    H132616   2.861   8.382   3.623
10913TIP3    H232617   2.734   8.460   3.653
10914TIP3   OH232618   3.378   7.968   2.264
10914TIP3    H132619   3.433   7.901   2.222
10914TIP3    H232620   3.300   7.921   2.292
10915TIP3   OH232621   4.417   5.894   1.925
10915TIP3    H132622   4.349   5.946   1.969
10915TIP3    H232623   4.465   5.958   1.872
10916TIP3   OH232624   6.494   0.660   5.913
10916TIP3    H132625   6.581   0.654   5.954
10916TIP3    H232626   6.511   0.651   5.820
10917TIP3   OH232627   8.247   3.515   4.284
10917TIP3    H132628   8.325   3.514   4.338
10917TIP3    H232629   8.175   3.529   4.346
10918TIP3   OH232630   2.203   6.085   2.525
10918TIP3    H132631   2.212   6.110   2.433
10918TIP3    H232632   2.221   5.991   2.526
10919TIP3   OH232633   9.291   8.103   2.863
10919TIP3    H132634   9.219   8.058   2.907
10919TIP3    H232635   9.358   8.035   2.853
10920TIP3   OH232636   0.387   8.685   7.570
10920TIP3    H132637   0.404   8.598   7.608
10920TIP3    H232638   0.327   8.668   7.498
10921TIP3   OH232639   2.766   7.516   1.856
10921TIP3    H132640   2.690   7.472   1.819
10921TIP3    H232641   2.837   7.500   1.793
10922TIP3   OH232642   1.478   1.125   5.288
10922TIP3    H132643   1.479   1.096   5.379
10922TIP3    H232644   1.544   1.194   5.283
10923TIP3   OH232645   8.625   3.132   1.406
10923TIP3    H132646   8.548   3.146   1.351
10923TIP3    H232647   8.615   3.043   1.439
10924TIP3   OH232648   3.930   2.824   4.825
10924TIP3    H132649   3.909   2.760   4.893
10924TIP3    H232650   3.868   2.896   4.840
10925TIP3   OH232651   2.140   3.215   5.313
10925TIP3    H132652   2.164   3.306   5.329
10925TIP3    H232653   2.078   3.219   5.240
10926TIP3   OH232654   8.223   3.232   2.376
10926TIP3    H132655   8.276   3.165   2.332
10926TIP3    H232656   8.278   3.311   2.373
10927TIP3   OH232657   3.735   1.445   4.734
10927TIP3    H132658   3.807   1.383   4.726
10927TIP3    H232659   3.657   1.393   4.713
10928TIP3   OH232660   0.050   7.881   0.196
10928TIP3    H132661   0.143   7.890   0.215
10928TIP3    H232662   0.014   7.969   0.202
10929TIP3   OH232663   3.868   0.592   4.295
10929TIP3    H132664   3.777   0.564   4.303
10929TIP3    H232665   3.864   0.687   4.289
10930TIP3   OH232666   7.467   6.899   4.497
10930TIP3    H132667   7.388   6.932   4.540
10930TIP3    H232668   7.514   6.978   4.469
10931TIP3   OH232669   7.040   4.701   6.158
10931TIP3    H132670   7.101   4.743   6.097
10931TIP3    H232671   6.970   4.666   6.103
10932TIP3   OH232672   5.583   2.150   4.521
10932TIP3    H132673   5.503   2.190   4.555
10932TIP3    H232674   5.582   2.061   4.556
10933TIP3   OH232675   6.615   6.216   7.611
10933TIP3    H132676   6.536   6.193   7.660
10933TIP3    H232677   6.608   6.311   7.597
10934TIP3   OH232678   6.534   0.076   0.507
10934TIP3    H132679   6.618   0.117   0.526
10934TIP3    H232680   6.556  -0.008   0.467
10935TIP3   OH232681   9.223   6.270   5.527
10935TIP3    H132682   9.271   6.295   5.448
10935TIP3    H232683   9.201   6.178   5.514
10936TIP3   OH232684   8.694   3.564   2.938
10936TIP3    H132685   8.675   3.639   2.882
10936TIP3    H232686   8.743   3.600   3.011
10937TIP3   OH232687   6.046   0.536   3.106
10937TIP3    H132688   6.131   0.533   3.062
10937TIP3    H232689   5.998   0.461   3.070
10938TIP3   OH232690   5.124   5.126   1.475
10938TIP3    H132691   5.177   5.125   1.554
10938TIP3    H232692   5.148   5.046   1.429
10939TIP3   OH232693   5.635   1.582   2.434
10939TIP3    H132694   5.700   1.644   2.401
10939TIP3    H232695   5.668   1.496   2.408
10940TIP3   OH232696   1.949   2.513   4.898
10940TIP3    H132697   1.989   2.581   4.844
10940TIP3    H232698   1.891   2.560   4.958
10941TIP3   OH232699   1.900   4.642   4.574
10941TIP3    H132700   1.892   4.669   4.482
10941TIP3    H232701   1.936   4.554   4.569
10942TIP3   OH232702   6.837   4.956   3.201
10942TIP3    H132703   6.778   4.971   3.274
10942TIP3    H232704   6.859   4.863   3.206
10943TIP3   OH232705   8.200   1.160   2.114
10943TIP3    H132706   8.153   1.096   2.168
10943TIP3    H232707   8.292   1.150   2.139
10944TIP3   OH232708   8.927   6.508   2.325
10944TIP3    H132709   9.020   6.517   2.344
10944TIP3    H232710   8.915   6.552   2.241
10945TIP3   OH232711   4.370   7.660   4.611
10945TIP3    H132712   4.421   7.741   4.608
10945TIP3    H232713   4.370   7.635   4.703
10946TIP3   OH232714   9.375   0.522   2.604
10946TIP3    H132715   9.394   0.603   2.558
10946TIP3    H232716   9.356   0.458   2.535
10947TIP3   OH232717   4.427   0.999   4.219
10947TIP3    H132718   4.376   1.011   4.299
10947TIP3    H232719   4.518   0.994   4.249
10948TIP3   OH232720   1.866   8.973   0.461
10948TIP3    H132721   1.890   8.988   0.370
10948TIP3    H232722   1.902   9.049   0.508
10949TIP3   OH232723   6.241   2.915   4.786
10949TIP3    H132724   6.245   2.985   4.851
10949TIP3    H232725   6.148   2.894   4.779
10950TIP3   OH232726   7.802   3.255   2.186
10950TIP3    H132727   7.791   3.182   2.125
10950TIP3    H232728   7.753   3.327   2.145
10951TIP3   OH232729   0.454   7.169   7.719
10951TIP3    H132730   0.400   7.104   7.763
10951TIP3    H232731   0.397   7.246   7.710
10952TIP3   OH232732   4.321   5.749   2.133
10952TIP3    H132733   4.283   5.667   2.101
10952TIP3    H232734   4.362   5.788   2.055
10953TIP3   OH232735   6.301   3.815   0.833
10953TIP3    H132736   6.392   3.839   0.847
10953TIP3    H232737   6.251   3.872   0.892
10954TIP3   OH232738   8.698   1.003   0.810
10954TIP3    H132739   8.766   0.936   0.801
10954TIP3    H232740   8.618   0.959   0.782
10955TIP3   OH232741   0.675   1.614   2.694
10955TIP3    H132742   0.598   1.647   2.740
10955TIP3    H232743   0.674   1.659   2.609
10956TIP3   OH232744   8.977   8.130   5.422
10956TIP3    H132745   8.908   8.067   5.444
10956TIP3    H232746   9.051   8.075   5.395
10957TIP3   OH232747   6.004   8.733   2.423
10957TIP3    H132748   6.096   8.719   2.444
10957TIP3    H232749   5.989   8.680   2.345
10958TIP3   OH232750   8.960   0.211   2.127
10958TIP3    H132751   8.894   0.147   2.102
10958TIP3    H232752   8.967   0.202   2.222
10959TIP3   OH232753   1.070   4.569   7.593
10959TIP3    H132754   1.095   4.651   7.551
10959TIP3    H232755   1.153   4.534   7.627
10960TIP3   OH232756   6.572   5.285   6.655
10960TIP3    H132757   6.552   5.378   6.647
10960TIP3    H232758   6.604   5.259   6.569
10961TIP3   OH232759   3.227   2.907   4.270
10961TIP3    H132760   3.267   2.820   4.271
10961TIP3    H232761   3.133   2.891   4.272
10962TIP3   OH232762   8.931   1.604   5.412
10962TIP3    H132763   9.010   1.653   5.387
10962TIP3    H232764   8.921   1.539   5.343
10963TIP3   OH232765   4.935   3.059   2.389
10963TIP3    H132766   4.932   3.154   2.396
10963TIP3    H232767   4.928   3.041   2.295
10964TIP3   OH232768   6.902   0.530   1.132
10964TIP3    H132769   6.988   0.552   1.167
10964TIP3    H232770   6.841   0.579   1.186
10965TIP3   OH232771   0.452   5.895   5.141
10965TIP3    H132772   0.357   5.891   5.125
10965TIP3    H232773   0.460   5.900   5.236
10966TIP3   OH232774   5.698   3.890   1.578
10966TIP3    H132775   5.640   3.915   1.507
10966TIP3    H232776   5.749   3.969   1.596
10967TIP3   OH232777   8.951   2.419   5.228
10967TIP3    H132778   9.021   2.478   5.199
10967TIP3    H232779   8.966   2.338   5.179
10968TIP3   OH232780   4.076   6.667   0.447
10968TIP3    H132781   4.105   6.628   0.364
10968TIP3    H232782   4.138   6.634   0.512
10969TIP3   OH232783   9.292   2.517   1.278
10969TIP3    H132784   9.279   2.519   1.373
10969TIP3    H232785   9.240   2.443   1.247
10970TIP3   OH232786   0.434   0.187   1.930
10970TIP3    H132787   0.360   0.143   1.889
10970TIP3    H232788   0.440   0.271   1.884
10971TIP3   OH232789   9.284   2.744   6.166
10971TIP3    H132790   9.293   2.834   6.196
10971TIP3    H232791   9.356   2.731   6.104
10972TIP3   OH232792   4.462   7.938   1.323
10972TIP3    H132793   4.404   7.961   1.396
10972TIP3    H232794   4.542   7.989   1.339
10973TIP3   OH232795   8.323   3.260   3.552
10973TIP3    H132796   8.414   3.286   3.567
10973TIP3    H232797   8.285   3.255   3.639
10974TIP3   OH232798   2.400   1.386   1.079
10974TIP3    H132799   2.418   1.360   0.989
10974TIP3    H232800   2.459   1.333   1.132
10975TIP3   OH232801   4.185   2.873   7.085
10975TIP3    H132802   4.223   2.911   7.164
10975TIP3    H232803   4.163   2.783   7.110
10976TIP3   OH232804   7.462   3.935   2.523
10976TIP3    H132805   7.376   3.941   2.481
10976TIP3    H232806   7.458   3.856   2.576
10977TIP3   OH232807   1.473   0.873   2.942
10977TIP3    H132808   1.435   0.799   2.894
10977TIP3    H232809   1.416   0.885   3.018
10978TIP3   OH232810   6.171   1.277   7.314
10978TIP3    H132811   6.100   1.308   7.259
10978TIP3    H232812   6.138   1.287   7.404
10979TIP3   OH232813   0.291   2.060   3.025
10979TIP3    H132814   0.236   1.991   3.063
10979TIP3    H232815   0.288   2.131   3.089
10980TIP3   OH232816   8.594   6.109   5.782
10980TIP3    H132817   8.503   6.085   5.771
10980TIP3    H232818   8.643   6.027   5.772
10981TIP3   OH232819   5.381   4.722   1.240
10981TIP3    H132820   5.368   4.649   1.179
10981TIP3    H232821   5.458   4.768   1.205
10982TIP3   OH232822   2.062   8.353   5.241
10982TIP3    H132823   2.024   8.409   5.309
10982TIP3    H232824   2.000   8.358   5.169
10983TIP3   OH232825   3.765   1.273   1.121
10983TIP3    H132826   3.762   1.290   1.027
10983TIP3    H232827   3.765   1.177   1.128
10984TIP3   OH232828   5.931   0.249   2.310
10984TIP3    H132829   5.903   0.245   2.401
10984TIP3    H232830   5.909   0.164   2.273
10985TIP3   OH232831   5.150   0.219   7.481
10985TIP3    H132832   5.157   0.278   7.555
10985TIP3    H232833   5.236   0.177   7.474
10986TIP3   OH232834   4.494   5.549   1.631
10986TIP3    H132835   4.414   5.601   1.618
10986TIP3    H232836   4.478   5.468   1.583
10987TIP3   OH232837   0.793   6.612   2.578
10987TIP3    H132838   0.859   6.660   2.529
10987TIP3    H232839   0.797   6.649   2.666
10988TIP3   OH232840   0.365   1.799   3.400
10988TIP3    H132841   0.293   1.857   3.425
10988TIP3    H232842   0.441   1.835   3.446
10989TIP3   OH232843   3.093   6.359   1.715
10989TIP3    H132844   3.138   6.443   1.720
10989TIP3    H232845   3.160   6.295   1.738
10990TIP3   OH232846   5.583   2.589   4.818
10990TIP3    H132847   5.517   2.658   4.816
10990TIP3    H232848   5.632   2.599   4.737
10991TIP3   OH232849   6.127   7.398   2.405
10991TIP3    H132850   6.088   7.429   2.324
10991TIP3    H232851   6.119   7.471   2.466
10992TIP3   OH232852   2.556   4.383   7.100
10992TIP3    H132853   2.538   4.423   7.186
10992TIP3    H232854   2.503   4.434   7.039
10993TIP3   OH232855   6.885   7.798   7.236
10993TIP3    H132856   6.859   7.888   7.255
10993TIP3    H232857   6.949   7.806   7.165
10994TIP3   OH232858   2.608   0.730   4.318
10994TIP3    H132859   2.536   0.675   4.349
10994TIP3    H232860   2.608   0.806   4.376
10995TIP3   OH232861   2.667   8.678   7.693
10995TIP3    H132862   2.690   8.619   7.764
10995TIP3    H232863   2.745   8.682   7.638
10996TIP3   OH232864   1.484   4.344   4.745
10996TIP3    H132865   1.491   4.280   4.816
10996TIP3    H232866   1.505   4.428   4.786
10997TIP3   OH232867   2.588   0.127   3.826
10997TIP3    H132868   2.632   0.170   3.899
10997TIP3    H232869   2.641   0.049   3.808
10998TIP3   OH232870   4.217   4.190   2.378
10998TIP3    H132871   4.295   4.235   2.344
10998TIP3    H232872   4.144   4.242   2.347
10999TIP3   OH232873   4.763   0.414   5.433
10999TIP3    H132874   4.783   0.349   5.500
10999TIP3    H232875   4.785   0.498   5.473
11000TIP3   OH232876   4.217   8.945   5.009
11000TIP3    H132877   4.174   8.867   5.046
11000TIP3    H232878   4.302   8.914   4.980
11001TIP3   OH232879   5.828   4.788   6.035
11001TIP3    H132880   5.761   4.755   6.095
11001TIP3    H232881   5.779   4.817   5.958
11002TIP3   OH232882   1.929   4.873   2.444
11002TIP3    H132883   1.854   4.929   2.460
11002TIP3    H232884   1.898   4.809   2.379
11003TIP3   OH232885   7.211   3.023   1.132
11003TIP3    H132886   7.234   3.054   1.220
11003TIP3    H232887   7.279   3.057   1.075
11004TIP3   OH232888   2.793   5.627   1.775
11004TIP3    H132889   2.763   5.543   1.810
11004TIP3    H232890   2.724   5.689   1.799
11005TIP3   OH232891   8.140   4.658   0.397
11005TIP3    H132892   8.168   4.683   0.485
11005TIP3    H232893   8.165   4.732   0.342
11006TIP3   OH232894   4.140   5.613   6.174
11006TIP3    H132895   4.220   5.636   6.221
11006TIP3    H232896   4.141   5.517   6.172
11007TIP3   OH232897   6.259   5.404   1.044
11007TIP3    H132898   6.276   5.447   0.961
11007TIP3    H232899   6.331   5.342   1.054
11008TIP3   OH232900   7.663   4.815   3.705
11008TIP3    H132901   7.659   4.886   3.769
11008TIP3    H232902   7.721   4.849   3.636
11009TIP3   OH232903   4.433   0.059   0.103
11009TIP3    H132904   4.464  -0.026   0.071
11009TIP3    H232905   4.512   0.101   0.138
11010TIP3   OH232906   1.239   5.841   4.178
11010TIP3    H132907   1.240   5.896   4.100
11010TIP3    H232908   1.153   5.856   4.217
11011TIP3   OH232909   0.661   4.292   2.754
11011TIP3    H132910   0.598   4.248   2.698
11011TIP3    H232911   0.693   4.366   2.702
11012TIP3   OH232912   0.919   8.867   7.801
11012TIP3    H132913   0.963   8.797   7.851
11012TIP3    H232914   0.863   8.820   7.740
11013TIP3   OH232915   0.811   5.620   4.377
11013TIP3    H132916   0.802   5.679   4.303
11013TIP3    H232917   0.896   5.578   4.364
11014TIP3   OH232918   6.541   7.511   6.073
11014TIP3    H132919   6.517   7.542   5.986
11014TIP3    H232920   6.540   7.589   6.128
11015TIP3   OH232921   0.044   1.033   5.836
11015TIP3    H132922   0.054   1.019   5.931
11015TIP3    H232923   0.133   1.042   5.804
11016TIP3   OH232924   1.569   7.144   3.556
11016TIP3    H132925   1.541   7.113   3.642
11016TIP3    H232926   1.634   7.212   3.576
11017TIP3   OH232927   4.095   5.421   7.321
11017TIP3    H132928   4.042   5.342   7.304
11017TIP3    H232929   4.031   5.487   7.346
11018TIP3   OH232930   7.356   0.766   7.480
11018TIP3    H132931   7.292   0.761   7.552
11018TIP3    H232932   7.417   0.835   7.508
11019TIP3   OH232933   8.805   1.089   4.028
11019TIP3    H132934   8.726   1.087   3.974
11019TIP3    H232935   8.844   1.175   4.011
11020TIP3   OH232936   0.108   3.826   1.445
11020TIP3    H132937   0.195   3.821   1.483
11020TIP3    H232938   0.094   3.740   1.405
11021TIP3   OH232939   2.565   8.794   3.919
11021TIP3    H132940   2.551   8.722   3.980
11021TIP3    H232941   2.488   8.794   3.862
11022TIP3   OH232942   8.192   3.830   3.590
11022TIP3    H132943   8.207   3.742   3.556
11022TIP3    H232944   8.208   3.823   3.684
11023TIP3   OH232945   6.130   5.674   7.242
11023TIP3    H132946   6.216   5.716   7.245
11023TIP3    H232947   6.141   5.600   7.182
11024TIP3   OH232948   6.369   3.785   6.011
11024TIP3    H132949   6.398   3.865   6.055
11024TIP3    H232950   6.422   3.715   6.048
11025TIP3   OH232951   0.985   1.766   5.944
11025TIP3    H132952   0.972   1.743   6.036
11025TIP3    H232953   1.052   1.835   5.946
11026TIP3   OH232954   8.485   4.513   2.359
11026TIP3    H132955   8.564   4.463   2.336
11026TIP3    H232956   8.417   4.475   2.304
11027TIP3   OH232957   0.017   7.736   3.536
11027TIP3    H132958   0.074   7.788   3.479
11027TIP3    H232959   0.036   7.767   3.624
11028TIP3   OH232960   2.987   4.056   7.287
11028TIP3    H132961   3.058   4.117   7.305
11028TIP3    H232962   2.981   4.053   7.192
11029TIP3   OH232963   1.605   7.101   2.177
11029TIP3    H132964   1.579   7.192   2.172
11029TIP3    H232965   1.575   7.062   2.095
11030TIP3   OH232966   1.041   4.748   0.032
11030TIP3    H132967   1.006   4.746  -0.057
11030TIP3    H232968   1.118   4.692   0.029
11031TIP3   OH232969   2.426   2.106   5.385
11031TIP3    H132970   2.440   2.012   5.388
11031TIP3    H232971   2.375   2.121   5.306
11032TIP3   OH232972   1.988   3.277   1.368
11032TIP3    H132973   1.933   3.347   1.404
11032TIP3    H232974   2.076   3.297   1.402
11033TIP3   OH232975   3.547   3.762   6.358
11033TIP3    H132976   3.602   3.704   6.304
11033TIP3    H232977   3.487   3.703   6.403
11034TIP3   OH232978   0.118   0.858   2.241
11034TIP3    H132979   0.157   0.942   2.216
11034TIP3    H232980   0.193   0.805   2.270
11035TIP3   OH232981   1.643   8.190   3.804
11035TIP3    H132982   1.711   8.155   3.861
11035TIP3    H232983   1.606   8.264   3.852
11036TIP3   OH232984   3.859   2.751   3.934
11036TIP3    H132985   3.915   2.693   3.882
11036TIP3    H232986   3.791   2.781   3.872
11037TIP3   OH232987   4.937   4.973   3.092
11037TIP3    H132988   4.986   4.986   3.174
11037TIP3    H232989   4.979   4.897   3.052
11038TIP3   OH232990   3.968   1.367   7.247
11038TIP3    H132991   3.991   1.437   7.308
11038TIP3    H232992   3.880   1.389   7.216
11039TIP3   OH232993   0.736   4.564   5.666
11039TIP3    H132994   0.785   4.586   5.587
11039TIP3    H232995   0.761   4.631   5.730
11040TIP3   OH232996   5.690   2.441   5.474
11040TIP3    H132997   5.706   2.362   5.525
11040TIP3    H232998   5.757   2.439   5.405
11041TIP3   OH232999   5.749   2.361   6.065
11041TIP3    H133000   5.665   2.378   6.023
11041TIP3    H233001   5.807   2.430   6.032
11042TIP3   OH233002   6.969   8.391   7.303
11042TIP3    H133003   7.008   8.446   7.371
11042TIP3    H233004   7.038   8.383   7.236
11043TIP3   OH233005   7.026   1.403   6.142
11043TIP3    H133006   7.004   1.496   6.150
11043TIP3    H233007   7.094   1.390   6.208
11044TIP3   OH233008   8.955   1.910   1.612
11044TIP3    H133009   8.989   1.868   1.691
11044TIP3    H233010   8.943   2.001   1.637
11045TIP3   OH233011   8.589   1.977   0.592
11045TIP3    H133012   8.575   2.045   0.657
11045TIP3    H233013   8.565   1.896   0.637
11046TIP3   OH233014   5.393   2.087   1.206
11046TIP3    H133015   5.376   2.116   1.116
11046TIP3    H233016   5.379   2.165   1.259
11047TIP3   OH233017   4.256   5.456   1.841
11047TIP3    H133018   4.230   5.471   1.932
11047TIP3    H233019   4.297   5.369   1.842
11048TIP3   OH233020   4.458   3.338   4.601
11048TIP3    H133021   4.520   3.343   4.528
11048TIP3    H233022   4.509   3.301   4.673
11049TIP3   OH233023   3.752   3.749   1.710
11049TIP3    H133024   3.723   3.710   1.793
11049TIP3    H233025   3.843   3.723   1.702
11050TIP3   OH233026   2.042   3.874   1.641
11050TIP3    H133027   2.008   3.861   1.553
11050TIP3    H233028   2.121   3.927   1.629
11051TIP3   OH233029   7.657   5.591   6.097
11051TIP3    H133030   7.606   5.646   6.038
11051TIP3    H233031   7.744   5.588   6.057
11052TIP3   OH233032   0.723   8.285   0.667
11052TIP3    H133033   0.688   8.240   0.591
11052TIP3    H233034   0.655   8.278   0.734
11053TIP3   OH233035   1.449   1.083   7.532
11053TIP3    H133036   1.435   1.066   7.625
11053TIP3    H233037   1.367   1.125   7.503
11054TIP3   OH233038   5.824   7.709   4.338
11054TIP3    H133039   5.773   7.734   4.261
11054TIP3    H233040   5.915   7.716   4.309
11055TIP3   OH233041   3.450   3.819   1.088
11055TIP3    H133042   3.440   3.908   1.055
11055TIP3    H233043   3.482   3.769   1.013
11056TIP3   OH233044   3.740   8.298   4.480
11056TIP3    H133045   3.734   8.350   4.399
11056TIP3    H233046   3.651   8.298   4.515
11057TIP3   OH233047   8.466   4.753   0.310
11057TIP3    H133048   8.417   4.721   0.234
11057TIP3    H233049   8.550   4.780   0.273
11058TIP3   OH233050   4.626   4.060   2.313
11058TIP3    H133051   4.616   3.995   2.244
11058TIP3    H233052   4.712   4.099   2.296
11059TIP3   OH233053   3.517   8.380   5.668
11059TIP3    H133054   3.542   8.423   5.751
11059TIP3    H233055   3.600   8.366   5.623
11060TIP3   OH233056   6.970   6.297   0.587
11060TIP3    H133057   6.879   6.323   0.577
11060TIP3    H233058   7.012   6.319   0.504
11061TIP3   OH233059   1.370   1.537   3.118
11061TIP3    H133060   1.452   1.513   3.075
11061TIP3    H233061   1.382   1.628   3.144
11062TIP3   OH233062   9.302   3.931   7.136
11062TIP3    H133063   9.283   3.878   7.058
11062TIP3    H233064   9.289   3.871   7.209
11063TIP3   OH233065   9.405   0.641   0.749
11063TIP3    H133066   9.327   0.693   0.730
11063TIP3    H233067   9.462   0.656   0.673
11064TIP3   OH233068   8.155   0.732   6.016
11064TIP3    H133069   8.216   0.793   6.057
11064TIP3    H233070   8.178   0.647   6.053
11065TIP3   OH233071   5.863   7.911   0.383
11065TIP3    H133072   5.922   7.866   0.323
11065TIP3    H233073   5.810   7.968   0.327
11066TIP3   OH233074   8.717   5.945   0.096
11066TIP3    H133075   8.688   6.010   0.032
11066TIP3    H233076   8.722   5.993   0.179
11067TIP3   OH233077   3.210   7.553   4.954
11067TIP3    H133078   3.187   7.487   4.889
11067TIP3    H233079   3.193   7.637   4.910
11068TIP3   OH233080   6.261   7.677   4.441
11068TIP3    H133081   6.283   7.643   4.528
11068TIP3    H233082   6.344   7.680   4.394
11069TIP3   OH233083   5.746   8.097   0.218
11069TIP3    H133084   5.679   8.039   0.183
11069TIP3    H233085   5.703   8.182   0.224
11070TIP3   OH233086   7.171   3.928   3.896
11070TIP3    H133087   7.246   3.943   3.953
11070TIP3    H233088   7.201   3.864   3.832
11071TIP3   OH233089   4.853   1.600   7.567
11071TIP3    H133090   4.889   1.585   7.479
11071TIP3    H233091   4.928   1.630   7.618
11072TIP3   OH233092   4.035   7.782   2.869
11072TIP3    H133093   4.076   7.702   2.903
11072TIP3    H233094   4.051   7.779   2.775
11073TIP3   OH233095   9.239   2.792   3.649
11073TIP3    H133096   9.293   2.871   3.644
11073TIP3    H233097   9.281   2.731   3.588
11074TIP3   OH233098   4.049   1.730   1.221
11074TIP3    H133099   4.085   1.727   1.132
11074TIP3    H233100   3.999   1.650   1.230
11075TIP3   OH233101   0.191   1.445   2.189
11075TIP3    H133102   0.224   1.424   2.102
11075TIP3    H233103   0.177   1.539   2.187
11076TIP3   OH233104   6.170   4.217   5.264
11076TIP3    H133105   6.155   4.126   5.291
11076TIP3    H233106   6.211   4.210   5.178
11077TIP3   OH233107   5.984   3.103   2.905
11077TIP3    H133108   5.890   3.097   2.919
11077TIP3    H233109   6.002   3.039   2.836
11078TIP3   OH233110   5.925   8.900   0.142
11078TIP3    H133111   5.897   8.948   0.064
11078TIP3    H233112   6.006   8.944   0.169
11079TIP3   OH233113   9.114   1.180   5.973
11079TIP3    H133114   9.050   1.136   6.029
11079TIP3    H233115   9.198   1.143   5.999
11080TIP3   OH233116   2.752   3.451   6.075
11080TIP3    H133117   2.812   3.524   6.058
11080TIP3    H233118   2.809   3.374   6.077
11081TIP3   OH233119   8.344   5.152   2.789
11081TIP3    H133120   8.420   5.115   2.745
11081TIP3    H233121   8.270   5.098   2.761
11082TIP3   OH233122   3.547   6.526   0.528
11082TIP3    H133123   3.477   6.463   0.545
11082TIP3    H233124   3.541   6.588   0.600
11083TIP3   OH233125   6.386   1.366   7.557
11083TIP3    H133126   6.357   1.457   7.567
11083TIP3    H233127   6.342   1.336   7.478
11084TIP3   OH233128   2.861   6.637   3.285
11084TIP3    H133129   2.791   6.700   3.270
11084TIP3    H233130   2.935   6.671   3.234
11085TIP3   OH233131   5.595   5.519   2.144
11085TIP3    H133132   5.504   5.551   2.149
11085TIP3    H233133   5.641   5.587   2.095
11086TIP3   OH233134   1.236   4.511   3.135
11086TIP3    H133135   1.301   4.553   3.078
11086TIP3    H233136   1.201   4.439   3.082
11087TIP3   OH233137   1.978   1.860   6.688
11087TIP3    H133138   2.022   1.778   6.708
11087TIP3    H233139   2.048   1.920   6.665
11088TIP3   OH233140   9.256   4.824   3.766
11088TIP3    H133141   9.322   4.844   3.700
11088TIP3    H233142   9.220   4.910   3.790
11089TIP3   OH233143   3.483   6.771   0.644
11089TIP3    H133144   3.414   6.767   0.711
11089TIP3    H233145   3.443   6.818   0.571
11090TIP3   OH233146   4.510   4.863   7.279
11090TIP3    H133147   4.570   4.818   7.338
11090TIP3    H233148   4.429   4.812   7.285
11091TIP3   OH233149   9.547   7.092   0.362
11091TIP3    H133150   9.508   7.177   0.383
11091TIP3    H233151   9.629   7.113   0.317
11092TIP3   OH233152   4.865   1.164   6.122
11092TIP3    H133153   4.883   1.140   6.032
11092TIP3    H233154   4.893   1.088   6.174
11093TIP3   OH233155   6.648   3.328   1.170
11093TIP3    H133156   6.580   3.390   1.197
11093TIP3    H233157   6.605   3.243   1.175
11094TIP3   OH233158   8.346   7.666   2.715
11094TIP3    H133159   8.399   7.745   2.713
11094TIP3    H233160   8.306   7.661   2.629
11095TIP3   OH233161   7.350   3.897   5.048
11095TIP3    H133162   7.356   3.810   5.008
11095TIP3    H233163   7.259   3.924   5.035
11096TIP3   OH233164   8.280   3.823   1.676
11096TIP3    H133165   8.359   3.783   1.714
11096TIP3    H233166   8.314   3.883   1.610
11097TIP3   OH233167   7.251   2.636   5.452
11097TIP3    H133168   7.266   2.683   5.534
11097TIP3    H233169   7.339   2.620   5.418
11098TIP3   OH233170   2.187   7.583   3.188
11098TIP3    H133171   2.127   7.610   3.119
11098TIP3    H233172   2.156   7.497   3.215
11099TIP3   OH233173   2.212   7.625   4.445
11099TIP3    H133174   2.255   7.634   4.360
11099TIP3    H233175   2.248   7.545   4.482
11100TIP3   OH233176   5.492   1.249   3.379
11100TIP3    H133177   5.515   1.201   3.459
11100TIP3    H233178   5.440   1.187   3.328
11101TIP3   OH233179   7.819   2.046   6.767
11101TIP3    H133180   7.868   1.981   6.817
11101TIP3    H233181   7.743   2.066   6.821
11102TIP3   OH233182   3.777   5.364   7.798
11102TIP3    H133183   3.691   5.384   7.761
11102TIP3    H233184   3.771   5.273   7.827
11103TIP3   OH233185   5.278   0.177   2.247
11103TIP3    H133186   5.355   0.150   2.196
11103TIP3    H233187   5.279   0.119   2.323
11104TIP3   OH233188   5.988   4.102   7.007
11104TIP3    H133189   6.013   4.139   7.092
11104TIP3    H233190   5.972   4.009   7.026
11105TIP3   OH233191   7.056   7.087   0.253
11105TIP3    H133192   7.134   7.069   0.306
11105TIP3    H233193   6.996   7.015   0.275
11106TIP3   OH233194   6.403   7.444   7.700
11106TIP3    H133195   6.358   7.523   7.670
11106TIP3    H233196   6.334   7.380   7.712
11107TIP3   OH233197   4.213   8.774   3.385
11107TIP3    H133198   4.156   8.836   3.431
11107TIP3    H233199   4.301   8.799   3.412
11108TIP3   OH233200   6.915   3.900   0.814
11108TIP3    H133201   6.841   3.898   0.754
11108TIP3    H233202   6.945   3.991   0.813
11109TIP3   OH233203   8.481   2.589   6.113
11109TIP3    H133204   8.489   2.494   6.106
11109TIP3    H233205   8.489   2.620   6.023
11110TIP3   OH233206   4.974   7.623   0.912
11110TIP3    H133207   5.019   7.629   0.996
11110TIP3    H233208   4.971   7.529   0.893
11111TIP3   OH233209   1.070   6.825   4.016
11111TIP3    H133210   1.058   6.916   3.987
11111TIP3    H233211   1.164   6.816   4.027
11112TIP3   OH233212   5.181   3.728   1.814
11112TIP3    H133213   5.091   3.720   1.780
11112TIP3    H233214   5.235   3.737   1.736
11113TIP3   OH233215   6.497   6.865   0.629
11113TIP3    H133216   6.406   6.891   0.614
11113TIP3    H233217   6.547   6.913   0.563
11114TIP3   OH233218   6.620   1.475   4.523
11114TIP3    H133219   6.683   1.403   4.528
11114TIP3    H233220   6.673   1.552   4.507
11115TIP3   OH233221   2.149   7.038   2.930
11115TIP3    H133222   2.147   6.973   2.859
11115TIP3    H233223   2.103   6.997   3.002
11116TIP3   OH233224   2.508   7.562   0.410
11116TIP3    H133225   2.475   7.524   0.491
11116TIP3    H233226   2.432   7.569   0.353
11117TIP3   OH233227   2.165   2.604   2.412
11117TIP3    H133228   2.229   2.611   2.342
11117TIP3    H233229   2.082   2.633   2.373
11118TIP3   OH233230   1.524   2.525   4.662
11118TIP3    H133231   1.572   2.542   4.743
11118TIP3    H233232   1.467   2.602   4.652
11119TIP3   OH233233   9.300   2.354   3.444
11119TIP3    H133234   9.346   2.328   3.363
11119TIP3    H233235   9.226   2.294   3.449
11120TIP3   OH233236   0.156   2.462   2.431
11120TIP3    H133237   0.205   2.475   2.512
11120TIP3    H233238   0.108   2.544   2.418
11121TIP3   OH233239   2.112   4.683   5.412
11121TIP3    H133240   2.148   4.655   5.328
11121TIP3    H233241   2.189   4.689   5.470
11122TIP3   OH233242   4.614   2.841   1.167
11122TIP3    H133243   4.601   2.807   1.256
11122TIP3    H233244   4.542   2.903   1.155
11123TIP3   OH233245   7.416   4.572   0.481
11123TIP3    H133246   7.462   4.526   0.551
11123TIP3    H233247   7.325   4.572   0.508
11124TIP3   OH233248   9.410   5.649   1.412
11124TIP3    H133249   9.461   5.656   1.331
11124TIP3    H233250   9.413   5.737   1.449
11125TIP3   OH233251   1.848   5.970   3.453
11125TIP3    H133252   1.902   5.963   3.531
11125TIP3    H233253   1.911   5.973   3.380
11126TIP3   OH233254   5.636   7.124   6.856
11126TIP3    H133255   5.723   7.136   6.896
11126TIP3    H233256   5.575   7.123   6.929
11127TIP3   OH233257   2.698   7.392   0.265
11127TIP3    H133258   2.689   7.336   0.188
11127TIP3    H233259   2.608   7.412   0.291
11128TIP3   OH233260   7.409   2.208   1.039
11128TIP3    H133261   7.459   2.199   0.958
11128TIP3    H233262   7.334   2.263   1.015
11129TIP3   OH233263   3.451   7.198   0.912
11129TIP3    H133264   3.540   7.191   0.949
11129TIP3    H233265   3.402   7.247   0.978
11130TIP3   OH233266   9.070   5.652   6.521
11130TIP3    H133267   9.089   5.680   6.611
11130TIP3    H233268   9.150   5.609   6.492
11131TIP3   OH233269   3.699   8.260   6.785
11131TIP3    H133270   3.742   8.203   6.722
11131TIP3    H233271   3.714   8.349   6.752
11132TIP3   OH233272   8.358   6.883   4.279
11132TIP3    H133273   8.276   6.844   4.248
11132TIP3    H233274   8.409   6.897   4.199
11133TIP3   OH233275   4.067   2.926   0.755
11133TIP3    H133276   4.150   2.939   0.708
11133TIP3    H233277   4.008   2.889   0.690
11134TIP3   OH233278   0.097   6.265   7.304
11134TIP3    H133279   0.146   6.293   7.227
11134TIP3    H233280   0.018   6.319   7.304
11135TIP3   OH233281   1.032   1.624   1.460
11135TIP3    H133282   1.112   1.642   1.410
11135TIP3    H233283   1.063   1.606   1.549
11136TIP3   OH233284   5.808   2.035   3.330
11136TIP3    H133285   5.817   1.990   3.246
11136TIP3    H233286   5.872   1.993   3.387
11137TIP3   OH233287   4.181   0.782   3.419
11137TIP3    H133288   4.116   0.735   3.366
11137TIP3    H233289   4.185   0.869   3.380
11138TIP3   OH233290   0.245   7.951   1.341
11138TIP3    H133291   0.154   7.963   1.314
11138TIP3    H233292   0.296   8.001   1.278
11139TIP3   OH233293   0.892   2.136   3.250
11139TIP3    H133294   0.801   2.109   3.248
11139TIP3    H233295   0.897   2.209   3.189
11140TIP3   OH233296   5.989   1.622   1.563
11140TIP3    H133297   5.999   1.688   1.632
11140TIP3    H233298   5.910   1.575   1.586
11141TIP3   OH233299   7.868   2.371   4.590
11141TIP3    H133300   7.913   2.431   4.530
11141TIP3    H233301   7.939   2.328   4.639
11142TIP3   OH233302   6.236   3.548   7.775
11142TIP3    H133303   6.313   3.596   7.808
11142TIP3    H233304   6.273   3.476   7.725
11143TIP3   OH233305   3.715   7.741   5.751
11143TIP3    H133306   3.692   7.786   5.670
11143TIP3    H233307   3.804   7.771   5.771
11144TIP3   OH233308   5.588   1.637   3.420
11144TIP3    H133309   5.602   1.548   3.390
11144TIP3    H233310   5.573   1.688   3.341
11145TIP3   OH233311   2.524   6.799   4.189
11145TIP3    H133312   2.458   6.812   4.257
11145TIP3    H233313   2.481   6.826   4.108
11146TIP3   OH233314   5.494   3.089   2.834
11146TIP3    H133315   5.404   3.057   2.844
11146TIP3    H233316   5.493   3.142   2.755
11147TIP3   OH233317   8.582   1.199   6.873
11147TIP3    H133318   8.564   1.176   6.782
11147TIP3    H233319   8.677   1.186   6.883
11148TIP3   OH233320   2.135   7.552   1.313
11148TIP3    H133321   2.127   7.640   1.351
11148TIP3    H233322   2.208   7.513   1.362
11149TIP3   OH233323   5.878   7.726   1.995
11149TIP3    H133324   5.824   7.800   2.026
11149TIP3    H233325   5.959   7.732   2.046
11150TIP3   OH233326   5.197   7.563   7.520
11150TIP3    H133327   5.279   7.592   7.559
11150TIP3    H233328   5.130   7.617   7.563
11151TIP3   OH233329   5.976   6.652   0.801
11151TIP3    H133330   5.929   6.716   0.748
11151TIP3    H233331   5.929   6.570   0.787
11152TIP3   OH233332   4.014   4.811   3.888
11152TIP3    H133333   3.967   4.729   3.872
11152TIP3    H233334   4.053   4.833   3.803
11153TIP3   OH233335   0.086   0.295   7.647
11153TIP3    H133336   0.046   0.236   7.711
11153TIP3    H233337   0.145   0.238   7.597
11154TIP3   OH233338   1.859   2.728   5.801
11154TIP3    H133339   1.887   2.637   5.809
11154TIP3    H233340   1.925   2.778   5.848
11155TIP3   OH233341   3.772   7.524   0.384
11155TIP3    H133342   3.778   7.533   0.479
11155TIP3    H233343   3.681   7.544   0.363
11156TIP3   OH233344   4.055   3.785   7.271
11156TIP3    H133345   4.101   3.828   7.343
11156TIP3    H233346   4.092   3.697   7.267
11157TIP3   OH233347   9.555   5.192   5.023
11157TIP3    H133348   9.603   5.218   4.944
11157TIP3    H233349   9.573   5.261   5.086
11158TIP3   OH233350   6.250   8.734   6.379
11158TIP3    H133351   6.332   8.687   6.365
11158TIP3    H233352   6.195   8.710   6.305
11159TIP3   OH233353   7.721   1.441   5.913
11159TIP3    H133354   7.692   1.352   5.932
11159TIP3    H233355   7.718   1.487   5.997
11160TIP3   OH233356   7.740   3.421   3.623
11160TIP3    H133357   7.777   3.443   3.709
11160TIP3    H233358   7.797   3.351   3.590
11161TIP3   OH233359   7.099   5.444   3.282
11161TIP3    H133360   7.075   5.432   3.374
11161TIP3    H233361   7.187   5.409   3.275
11162TIP3   OH233362   3.029   1.619   0.507
11162TIP3    H133363   3.097   1.675   0.544
11162TIP3    H233364   2.992   1.574   0.583
11163TIP3   OH233365   1.167   2.531   4.964
11163TIP3    H133366   1.140   2.449   5.004
11163TIP3    H233367   1.207   2.581   5.036
11164TIP3   OH233368   4.685   7.859   6.470
11164TIP3    H133369   4.612   7.888   6.524
11164TIP3    H233370   4.665   7.767   6.451
11165TIP3   OH233371   8.033   4.743   0.667
11165TIP3    H133372   8.085   4.810   0.622
11165TIP3    H233373   7.945   4.781   0.673
11166TIP3   OH233374   1.192   2.276   4.534
11166TIP3    H133375   1.120   2.329   4.499
11166TIP3    H233376   1.243   2.337   4.587
11167TIP3   OH233377   2.181   0.841   0.069
11167TIP3    H133378   2.169   0.760   0.119
11167TIP3    H233379   2.275   0.859   0.076
11168TIP3   OH233380   4.137   1.594   7.721
11168TIP3    H133381   4.058   1.646   7.703
11168TIP3    H233382   4.104   1.506   7.736
11169TIP3   OH233383   7.409   8.274   1.494
11169TIP3    H133384   7.374   8.186   1.512
11169TIP3    H233385   7.347   8.313   1.433
11170TIP3   OH233386   5.194   5.515   2.539
11170TIP3    H133387   5.177   5.476   2.624
11170TIP3    H233388   5.238   5.598   2.559
11171TIP3   OH233389   0.486   8.400   1.203
11171TIP3    H133390   0.463   8.487   1.169
11171TIP3    H233391   0.431   8.390   1.281
11172TIP3   OH233392   2.492   8.129   6.142
11172TIP3    H133393   2.527   8.203   6.193
11172TIP3    H233394   2.557   8.060   6.153
11173TIP3   OH233395   3.112   4.106   7.015
11173TIP3    H133396   3.185   4.053   7.046
11173TIP3    H233397   3.151   4.163   6.949
11174TIP3   OH233398   3.055   6.421   2.528
11174TIP3    H133399   3.088   6.423   2.617
11174TIP3    H233400   2.963   6.449   2.536
11175TIP3   OH233401   0.702   3.463   6.345
11175TIP3    H133402   0.771   3.424   6.399
11175TIP3    H233403   0.748   3.507   6.274
11176TIP3   OH233404   2.816   1.997   3.330
11176TIP3    H133405   2.869   1.919   3.318
11176TIP3    H233406   2.800   2.029   3.241
11177TIP3   OH233407   7.316   5.280   7.743
11177TIP3    H133408   7.275   5.366   7.756
11177TIP3    H233409   7.364   5.264   7.823
11178TIP3   OH233410   4.919   0.706   0.254
11178TIP3    H133411   4.829   0.739   0.253
11178TIP3    H233412   4.948   0.716   0.345
11179TIP3   OH233413   0.413   6.674   0.779
11179TIP3    H133414   0.335   6.625   0.804
11179TIP3    H233415   0.394   6.703   0.689
11180TIP3   OH233416   4.282   5.534   7.074
11180TIP3    H133417   4.249   5.553   7.162
11180TIP3    H233418   4.313   5.444   7.078
11181TIP3   OH233419   1.321   0.928   3.169
11181TIP3    H133420   1.257   0.988   3.131
11181TIP3    H233421   1.268   0.862   3.214
11182TIP3   OH233422   8.958   7.994   4.728
11182TIP3    H133423   8.962   8.033   4.815
11182TIP3    H233424   8.867   7.966   4.718
11183TIP3   OH233425   4.986   4.764   7.005
11183TIP3    H133426   5.002   4.682   7.053
11183TIP3    H233427   4.928   4.814   7.062
11184TIP3   OH233428   6.598   1.449   1.578
11184TIP3    H133429   6.660   1.508   1.536
11184TIP3    H233430   6.544   1.505   1.634
11185TIP3   OH233431   0.560   8.971   6.524
11185TIP3    H133432   0.537   8.915   6.598
11185TIP3    H233433   0.625   9.032   6.559
11186TIP3   OH233434   7.259   4.796   4.950
11186TIP3    H133435   7.245   4.875   5.002
11186TIP3    H233436   7.252   4.724   5.013
11187TIP3   OH233437   8.999   7.432   2.797
11187TIP3    H133438   8.923   7.470   2.840
11187TIP3    H233439   9.068   7.496   2.809
11188TIP3   OH233440   8.472   2.736   2.093
11188TIP3    H133441   8.425   2.661   2.056
11188TIP3    H233442   8.408   2.807   2.091
11189TIP3   OH233443   1.078   7.440   4.274
11189TIP3    H133444   1.161   7.479   4.247
11189TIP3    H233445   1.080   7.442   4.369
11190TIP3   OH233446   2.325   5.475   1.237
11190TIP3    H133447   2.321   5.397   1.292
11190TIP3    H233448   2.261   5.535   1.277
11191TIP3   OH233449   2.986   2.362   2.593
11191TIP3    H133450   2.892   2.348   2.601
11191TIP3    H233451   3.013   2.392   2.679
11192TIP3   OH233452   8.889   6.984   2.163
11192TIP3    H133453   8.802   6.956   2.135
11192TIP3    H233454   8.888   6.977   2.258
11193TIP3   OH233455   4.084   1.570   2.649
11193TIP3    H133456   3.995   1.569   2.615
11193TIP3    H233457   4.140   1.561   2.572
11194TIP3   OH233458   3.885   3.635   5.436
11194TIP3    H133459   3.975   3.626   5.468
11194TIP3    H233460   3.836   3.666   5.512
11195TIP3   OH233461   4.251   7.195   2.900
11195TIP3    H133462   4.274   7.207   2.808
11195TIP3    H233463   4.335   7.193   2.946
11196TIP3   OH233464   8.813   5.065   4.474
11196TIP3    H133465   8.733   5.022   4.441
11196TIP3    H233466   8.780   5.137   4.527
11197TIP3   OH233467   6.533   1.167   6.950
11197TIP3    H133468   6.543   1.214   6.867
11197TIP3    H233469   6.502   1.233   7.012
11198TIP3   OH233470   5.105   5.567   0.727
11198TIP3    H133471   5.187   5.565   0.777
11198TIP3    H233472   5.091   5.476   0.701
11199TIP3   OH233473   4.775   6.706   7.182
11199TIP3    H133474   4.809   6.795   7.168
11199TIP3    H233475   4.754   6.703   7.275
11200TIP3   OH233476   1.939   1.529   1.433
11200TIP3    H133477   1.916   1.477   1.510
11200TIP3    H233478   1.898   1.484   1.360
11201TIP3   OH233479   5.531   8.575   5.542
11201TIP3    H133480   5.441   8.544   5.546
11201TIP3    H233481   5.525   8.664   5.508
11202TIP3   OH233482   9.468   4.498   4.559
11202TIP3    H133483   9.497   4.579   4.518
11202TIP3    H233484   9.514   4.494   4.642
11203TIP3   OH233485   0.567   6.310   3.759
11203TIP3    H133486   0.624   6.347   3.826
11203TIP3    H233487   0.613   6.232   3.728
11204TIP3   OH233488   8.520   2.532   1.579
11204TIP3    H133489   8.459   2.491   1.518
11204TIP3    H233490   8.464   2.588   1.634
11205TIP3   OH233491   8.084   5.481   4.671
11205TIP3    H133492   8.073   5.387   4.683
11205TIP3    H233493   8.146   5.506   4.740
11206TIP3   OH233494   3.000   0.854   6.364
11206TIP3    H133495   2.953   0.890   6.439
11206TIP3    H233496   2.938   0.859   6.291
11207TIP3   OH233497   2.080   0.269   3.696
11207TIP3    H133498   2.132   0.341   3.731
11207TIP3    H233499   1.997   0.274   3.743
11208TIP3   OH233500   4.467   1.760   6.517
11208TIP3    H133501   4.393   1.714   6.477
11208TIP3    H233502   4.540   1.697   6.511
11209TIP3   OH233503   0.654   0.533   1.461
11209TIP3    H133504   0.582   0.579   1.417
11209TIP3    H233505   0.624   0.442   1.466
11210TIP3   OH233506   8.944   5.313   5.992
11210TIP3    H133507   8.868   5.277   6.037
11210TIP3    H233508   9.017   5.255   6.015
11211TIP3   OH233509   3.399   5.371   5.701
11211TIP3    H133510   3.418   5.463   5.720
11211TIP3    H233511   3.309   5.359   5.733
11212TIP3   OH233512   0.224   3.675   2.380
11212TIP3    H133513   0.217   3.587   2.341
11212TIP3    H233514   0.149   3.722   2.345
11213TIP3   OH233515   1.307   3.015   2.422
11213TIP3    H133516   1.248   3.069   2.474
11213TIP3    H233517   1.372   2.983   2.485
11214TIP3   OH233518   0.405   0.385   2.941
11214TIP3    H133519   0.382   0.357   3.030
11214TIP3    H233520   0.393   0.480   2.942
11215TIP3   OH233521   8.705   3.890   0.584
11215TIP3    H133522   8.728   3.929   0.668
11215TIP3    H233523   8.651   3.814   0.607
11216TIP3   OH233524   7.293   2.518   6.197
11216TIP3    H133525   7.311   2.453   6.265
11216TIP3    H233526   7.375   2.528   6.150
11217TIP3   OH233527   3.174   1.744   6.905
11217TIP3    H133528   3.161   1.839   6.913
11217TIP3    H233529   3.177   1.714   6.996
11218TIP3   OH233530   2.426   0.939   5.388
11218TIP3    H133531   2.419   0.969   5.479
11218TIP3    H233532   2.405   1.017   5.336
11219TIP3   OH233533   4.892   5.020   7.791
11219TIP3    H133534   4.881   4.967   7.712
11219TIP3    H233535   4.897   5.110   7.759
11220TIP3   OH233536   6.885   6.061   5.764
11220TIP3    H133537   6.916   6.143   5.804
11220TIP3    H233538   6.833   6.019   5.833
11221TIP3   OH233539   2.854   5.663   4.235
11221TIP3    H133540   2.766   5.698   4.233
11221TIP3    H233541   2.867   5.626   4.147
11222TIP3   OH233542   5.789   1.863   0.274
11222TIP3    H133543   5.744   1.778   0.269
11222TIP3    H233544   5.877   1.845   0.240
11223TIP3   OH233545   2.316   3.774   7.400
11223TIP3    H133546   2.341   3.839   7.466
11223TIP3    H233547   2.291   3.697   7.450
11224TIP3   OH233548   8.232   4.582   3.499
11224TIP3    H133549   8.199   4.545   3.581
11224TIP3    H233550   8.326   4.566   3.502
11225TIP3   OH233551   4.282   2.115   2.716
11225TIP3    H133552   4.228   2.069   2.653
11225TIP3    H233553   4.368   2.073   2.709
11226TIP3   OH233554   7.109   8.429   4.559
11226TIP3    H133555   7.048   8.424   4.632
11226TIP3    H233556   7.084   8.508   4.512
11227TIP3   OH233557   4.182   5.335   6.632
11227TIP3    H133558   4.228   5.415   6.607
11227TIP3    H233559   4.167   5.344   6.726
11228TIP3   OH233560   7.266   7.876   1.245
11228TIP3    H133561   7.328   7.949   1.235
11228TIP3    H233562   7.309   7.816   1.306
11229TIP3   OH233563   4.173   1.802   5.925
11229TIP3    H133564   4.191   1.748   6.003
11229TIP3    H233565   4.228   1.764   5.857
11230TIP3   OH233566   0.707   0.214   4.598
11230TIP3    H133567   0.654   0.198   4.519
11230TIP3    H233568   0.775   0.147   4.596
11231TIP3   OH233569   7.975   1.802   0.327
11231TIP3    H133570   8.035   1.779   0.256
11231TIP3    H233571   7.969   1.897   0.323
11232TIP3   OH233572   4.907   5.391   5.684
11232TIP3    H133573   4.814   5.368   5.681
11232TIP3    H233574   4.944   5.348   5.607
11233TIP3   OH233575   2.899   7.866   2.441
11233TIP3    H133576   2.840   7.874   2.516
11233TIP3    H233577   2.900   7.772   2.422
11234TIP3   OH233578   4.459   8.907   3.502
11234TIP3    H133579   4.448   8.972   3.571
11234TIP3    H233580   4.533   8.854   3.531
11235TIP3   OH233581   2.927   5.082   3.168
11235TIP3    H133582   2.912   4.994   3.204
11235TIP3    H233583   3.019   5.100   3.184
11236TIP3   OH233584   8.440   3.434   2.981
11236TIP3    H133585   8.415   3.508   3.035
11236TIP3    H233586   8.521   3.462   2.937
11237TIP3   OH233587   4.404   2.143   0.798
11237TIP3    H133588   4.312   2.116   0.807
11237TIP3    H233589   4.454   2.069   0.833
11238TIP3   OH233590   7.965   8.037   1.153
11238TIP3    H133591   7.884   7.994   1.127
11238TIP3    H233592   8.034   7.981   1.117
11239TIP3   OH233593   2.322   6.678   3.532
11239TIP3    H133594   2.339   6.685   3.626
11239TIP3    H233595   2.316   6.584   3.515
11240TIP3   OH233596   2.552   0.446   2.398
11240TIP3    H133597   2.524   0.387   2.329
11240TIP3    H233598   2.618   0.502   2.356
11241TIP3   OH233599   4.372   4.394   5.824
11241TIP3    H133600   4.287   4.360   5.854
11241TIP3    H233601   4.411   4.432   5.903
11242TIP3   OH233602   3.817   0.126   7.540
11242TIP3    H133603   3.900   0.174   7.530
11242TIP3    H233604   3.833   0.065   7.611
11243TIP3   OH233605   7.775   7.503   5.935
11243TIP3    H133606   7.767   7.459   5.851
11243TIP3    H233607   7.862   7.479   5.966
11244TIP3   OH233608   6.487   2.539   7.650
11244TIP3    H133609   6.552   2.522   7.718
11244TIP3    H233610   6.412   2.484   7.674
11245TIP3   OH233611   8.178   4.863   1.317
11245TIP3    H133612   8.153   4.925   1.385
11245TIP3    H233613   8.270   4.845   1.333
11246TIP3   OH233614   7.110   6.237   4.320
11246TIP3    H133615   7.172   6.283   4.377
11246TIP3    H233616   7.136   6.145   4.326
11247TIP3   OH233617   9.424   8.937   3.657
11247TIP3    H133618   9.441   8.997   3.584
11247TIP3    H233619   9.430   8.991   3.735
11248TIP3   OH233620   3.818   3.051   2.814
11248TIP3    H133621   3.723   3.059   2.805
11248TIP3    H233622   3.849   3.140   2.829
11249TIP3   OH233623   2.424   8.112   5.826
11249TIP3    H133624   2.346   8.097   5.773
11249TIP3    H233625   2.407   8.062   5.907
11250TIP3   OH233626   5.425   5.076   4.445
11250TIP3    H133627   5.405   5.134   4.519
11250TIP3    H233628   5.508   5.109   4.411
11251TIP3   OH233629   3.473   4.881   4.194
11251TIP3    H133630   3.477   4.786   4.199
11251TIP3    H233631   3.467   4.910   4.285
11252TIP3   OH233632   0.675   5.446   7.370
11252TIP3    H133633   0.600   5.452   7.310
11252TIP3    H233634   0.701   5.537   7.385
11253TIP3   OH233635   6.569   1.919   3.127
11253TIP3    H133636   6.518   1.968   3.062
11253TIP3    H233637   6.633   1.870   3.074
11254TIP3   OH233638   4.065   7.996   1.558
11254TIP3    H133639   4.076   8.033   1.645
11254TIP3    H233640   3.983   7.947   1.563
11255TIP3   OH233641   5.081   7.757   0.704
11255TIP3    H133642   5.067   7.851   0.717
11255TIP3    H233643   5.018   7.716   0.764
11256TIP3   OH233644   4.562   2.481   0.922
11256TIP3    H133645   4.565   2.446   1.011
11256TIP3    H233646   4.626   2.553   0.922
11257TIP3   OH233647   7.615   6.170   3.234
11257TIP3    H133648   7.549   6.101   3.239
11257TIP3    H233649   7.613   6.199   3.143
11258TIP3   OH233650   0.107   5.928   3.732
11258TIP3    H133651   0.097   6.011   3.778
11258TIP3    H233652   0.161   5.949   3.656
11259TIP3   OH233653   8.061   1.421   6.122
11259TIP3    H133654   8.026   1.351   6.066
11259TIP3    H233655   7.984   1.471   6.149
11260TIP3   OH233656   5.812   8.848   5.967
11260TIP3    H133657   5.772   8.801   6.041
11260TIP3    H233658   5.891   8.887   6.004
11261TIP3   OH233659   7.274   5.070   5.651
11261TIP3    H133660   7.294   5.144   5.593
11261TIP3    H233661   7.344   5.007   5.635
11262TIP3   OH233662   5.446   6.880   0.756
11262TIP3    H133663   5.426   6.969   0.785
11262TIP3    H233664   5.386   6.865   0.683
11263TIP3   OH233665   1.788   5.843   6.794
11263TIP3    H133666   1.766   5.928   6.833
11263TIP3    H233667   1.736   5.839   6.714
11264TIP3   OH233668   2.982   8.038   1.601
11264TIP3    H133669   3.067   8.015   1.639
11264TIP3    H233670   2.961   8.123   1.640
11265TIP3   OH233671   3.701   5.523   0.821
11265TIP3    H133672   3.648   5.595   0.785
11265TIP3    H233673   3.779   5.566   0.855
11266TIP3   OH233674   4.312   8.339   1.289
11266TIP3    H133675   4.219   8.343   1.266
11266TIP3    H233676   4.312   8.333   1.384
11267TIP3   OH233677   6.327   1.333   1.416
11267TIP3    H133678   6.381   1.382   1.354
11267TIP3    H233679   6.338   1.379   1.499
11268TIP3   OH233680   4.600   6.029   0.912
11268TIP3    H133681   4.555   6.114   0.913
11268TIP3    H233682   4.531   5.965   0.929
11269TIP3   OH233683   8.491   7.345   0.563
11269TIP3    H133684   8.555   7.284   0.598
11269TIP3    H233685   8.530   7.432   0.577
11270TIP3   OH233686   4.698   0.856   0.604
11270TIP3    H133687   4.650   0.812   0.534
11270TIP3    H233688   4.714   0.945   0.571
11271TIP3   OH233689   1.896   4.909   3.450
11271TIP3    H133690   1.931   4.909   3.539
11271TIP3    H233691   1.921   4.823   3.414
11272TIP3   OH233692   2.833   4.867   0.934
11272TIP3    H133693   2.836   4.822   1.018
11272TIP3    H233694   2.870   4.804   0.871
11273TIP3   OH233695   5.832   3.196   5.489
11273TIP3    H133696   5.776   3.119   5.500
11273TIP3    H233697   5.777   3.270   5.515
11274TIP3   OH233698   1.026   7.594   2.681
11274TIP3    H133699   1.087   7.601   2.607
11274TIP3    H233700   0.944   7.565   2.642
11275TIP3   OH233701   4.045   2.646   5.939
11275TIP3    H133702   4.012   2.716   5.883
11275TIP3    H233703   4.121   2.684   5.982
11276TIP3   OH233704   2.111   5.562   7.429
11276TIP3    H133705   2.024   5.568   7.467
11276TIP3    H233706   2.168   5.534   7.501
11277TIP3   OH233707   0.134   2.627   4.071
11277TIP3    H133708   0.090   2.710   4.087
11277TIP3    H233709   0.120   2.577   4.151
11278TIP3   OH233710   8.298   8.523   1.525
11278TIP3    H133711   8.222   8.540   1.580
11278TIP3    H233712   8.283   8.576   1.447
11279TIP3   OH233713   0.473   7.559   6.367
11279TIP3    H133714   0.439   7.536   6.280
11279TIP3    H233715   0.527   7.484   6.392
11280TIP3   OH233716   2.642   2.030   0.449
11280TIP3    H133717   2.694   2.091   0.396
11280TIP3    H233718   2.560   2.022   0.401
11281TIP3   OH233719   0.548   4.932   7.395
11281TIP3    H133720   0.617   4.867   7.413
11281TIP3    H233721   0.595   5.014   7.384
11282TIP3   OH233722   2.436   0.600   1.904
11282TIP3    H133723   2.383   0.674   1.874
11282TIP3    H233724   2.399   0.524   1.857
11283TIP3   OH233725   0.074   5.243   7.006
11283TIP3    H133726   0.135   5.256   7.080
11283TIP3    H233727   0.023   5.166   7.030
11284TIP3   OH233728   7.644   8.427   0.645
11284TIP3    H133729   7.728   8.465   0.673
11284TIP3    H233730   7.653   8.416   0.550
11285TIP3   OH233731   8.076   6.059   4.649
11285TIP3    H133732   8.083   6.153   4.632
11285TIP3    H233733   8.063   6.020   4.563
11286TIP3   OH233734   5.760   0.836   4.328
11286TIP3    H133735   5.667   0.854   4.317
11286TIP3    H233736   5.764   0.741   4.344
11287TIP3   OH233737   7.381   6.758   3.338
11287TIP3    H133738   7.376   6.849   3.367
11287TIP3    H233739   7.469   6.750   3.300
11288TIP3   OH233740   7.593   6.619   5.359
11288TIP3    H133741   7.498   6.627   5.361
11288TIP3    H233742   7.618   6.611   5.451
11289TIP3   OH233743   6.874   2.028   5.240
11289TIP3    H133744   6.869   2.033   5.336
11289TIP3    H233745   6.963   2.057   5.220
11290TIP3   OH233746   9.113   5.765   5.255
11290TIP3    H133747   9.036   5.712   5.275
11290TIP3    H233748   9.180   5.736   5.316
11291TIP3   OH233749   9.555   7.269   1.837
11291TIP3    H133750   9.570   7.176   1.849
11291TIP3    H233751   9.623   7.312   1.889
11292TIP3   OH233752   4.172   4.160   7.069
11292TIP3    H133753   4.121   4.101   7.013
11292TIP3    H233754   4.191   4.236   7.014
11293TIP3   OH233755   0.796   8.251   3.251
11293TIP3    H133756   0.882   8.284   3.225
11293TIP3    H233757   0.749   8.328   3.283
11294TIP3   OH233758   9.109   1.852   2.117
11294TIP3    H133759   9.015   1.854   2.100
11294TIP3    H233760   9.116   1.826   2.209
11295TIP3   OH233761   5.243   7.483   3.530
11295TIP3    H133762   5.191   7.421   3.479
11295TIP3    H233763   5.333   7.452   3.522
11296TIP3   OH233764   5.143   7.678   2.549
11296TIP3    H133765   5.051   7.654   2.537
11296TIP3    H233766   5.189   7.594   2.556
11297TIP3   OH233767   4.424   6.899   4.002
11297TIP3    H133768   4.506   6.850   3.996
11297TIP3    H233769   4.433   6.953   4.080
11298TIP3   OH233770   0.665   8.021   4.309
11298TIP3    H133771   0.679   8.084   4.238
11298TIP3    H233772   0.618   8.070   4.376
11299TIP3   OH233773   2.042   8.948   7.597
11299TIP3    H133774   2.001   8.877   7.647
11299TIP3    H233775   1.972   9.012   7.585
11300TIP3   OH233776   6.016   7.738   1.374
11300TIP3    H133777   6.087   7.772   1.429
11300TIP3    H233778   6.051   7.743   1.285
11301TIP3   OH233779   9.552   2.814   3.705
11301TIP3    H133780   9.543   2.905   3.732
11301TIP3    H233781   9.506   2.764   3.772
11302TIP3   OH233782   7.653   0.281   6.078
11302TIP3    H133783   7.727   0.222   6.090
11302TIP3    H233784   7.578   0.235   6.115
11303TIP3   OH233785   6.864   2.194   0.452
11303TIP3    H133786   6.903   2.188   0.365
11303TIP3    H233787   6.797   2.262   0.445
11304TIP3   OH233788   1.352   6.968   0.014
11304TIP3    H133789   1.384   6.882   0.044
11304TIP3    H233790   1.431   7.022   0.008
11305TIP3   OH233791   4.194   6.417   2.654
11305TIP3    H133792   4.100   6.434   2.646
11305TIP3    H233793   4.200   6.342   2.712
11306TIP3   OH233794   2.381   2.103   2.372
11306TIP3    H133795   2.311   2.163   2.344
11306TIP3    H233796   2.452   2.118   2.310
11307TIP3   OH233797   3.653   6.519   2.255
11307TIP3    H133798   3.629   6.461   2.184
11307TIP3    H233799   3.649   6.607   2.218
11308TIP3   OH233800   2.875   4.823   3.230
11308TIP3    H133801   2.908   4.772   3.304
11308TIP3    H233802   2.791   4.857   3.261
11309TIP3   OH233803   5.390   5.711   2.578
11309TIP3    H133804   5.434   5.732   2.660
11309TIP3    H233805   5.433   5.767   2.513
11310TIP3   OH233806   4.344   0.567   1.483
11310TIP3    H133807   4.353   0.653   1.442
11310TIP3    H233808   4.376   0.505   1.417
11311TIP3   OH233809   7.284   2.675   4.918
11311TIP3    H133810   7.320   2.732   4.985
11311TIP3    H233811   7.360   2.646   4.868
11312TIP3   OH233812   2.339   5.897   2.751
11312TIP3    H133813   2.400   5.825   2.736
11312TIP3    H233814   2.254   5.863   2.723
11313TIP3   OH233815   8.995   6.058   0.942
11313TIP3    H133816   8.919   6.001   0.951
11313TIP3    H233817   8.960   6.140   0.908
11314TIP3   OH233818   5.703   4.705   1.341
11314TIP3    H133819   5.701   4.746   1.255
11314TIP3    H233820   5.700   4.611   1.323
11315TIP3   OH233821   8.766   3.920   0.962
11315TIP3    H133822   8.845   3.893   1.008
11315TIP3    H233823   8.754   3.854   0.894
11316TIP3   OH233824   8.164   3.015   3.007
11316TIP3    H133825   8.133   3.053   2.925
11316TIP3    H233826   8.248   2.974   2.985
11317TIP3   OH233827   1.307   7.785   6.319
11317TIP3    H133828   1.326   7.879   6.312
11317TIP3    H233829   1.218   7.777   6.284
11318TIP3   OH233830   4.940   7.174   3.094
11318TIP3    H133831   4.929   7.097   3.149
11318TIP3    H233832   4.982   7.239   3.151
11319TIP3   OH233833   4.108   6.004   6.841
11319TIP3    H133834   4.174   6.053   6.891
11319TIP3    H233835   4.094   5.924   6.893
11320TIP3   OH233836   2.864   8.693   1.484
11320TIP3    H133837   2.910   8.625   1.533
11320TIP3    H233838   2.846   8.761   1.549
11321TIP3   OH233839   4.704   1.535   5.981
11321TIP3    H133840   4.684   1.627   5.961
11321TIP3    H233841   4.671   1.522   6.070
11322TIP3   OH233842   8.504   5.356   4.776
11322TIP3    H133843   8.463   5.329   4.859
11322TIP3    H233844   8.573   5.417   4.803
11323TIP3   OH233845   8.228   7.948   6.084
11323TIP3    H133846   8.244   7.861   6.047
11323TIP3    H233847   8.199   7.932   6.173
11324TIP3   OH233848   5.491   8.358   6.526
11324TIP3    H133849   5.504   8.277   6.477
11324TIP3    H233850   5.497   8.330   6.618
11325TIP3   OH233851   8.596   0.774   5.460
11325TIP3    H133852   8.554   0.798   5.543
11325TIP3    H233853   8.541   0.706   5.423
11326TIP3   OH233854   8.134   7.064   7.442
11326TIP3    H133855   8.178   7.125   7.501
11326TIP3    H233856   8.195   6.991   7.432
11327TIP3   OH233857   0.788   8.624   7.182
11327TIP3    H133858   0.753   8.678   7.111
11327TIP3    H233859   0.714   8.570   7.210
11328TIP3   OH233860   3.067   7.073   5.966
11328TIP3    H133861   3.110   7.128   5.901
11328TIP3    H233862   3.137   7.019   6.002
11329TIP3   OH233863   4.386   6.550   2.510
11329TIP3    H133864   4.306   6.504   2.535
11329TIP3    H233865   4.457   6.492   2.536
11330TIP3   OH233866   4.061   2.868   2.554
11330TIP3    H133867   4.112   2.880   2.474
11330TIP3    H233868   3.971   2.885   2.527
11331TIP3   OH233869   7.188   6.188   2.250
11331TIP3    H133870   7.150   6.270   2.217
11331TIP3    H233871   7.180   6.194   2.345
11332TIP3   OH233872   5.305   4.941   0.321
11332TIP3    H133873   5.283   5.031   0.344
11332TIP3    H233874   5.393   4.945   0.285
11333TIP3   OH233875   9.302   7.539   0.602
11333TIP3    H133876   9.371   7.527   0.667
11333TIP3    H233877   9.236   7.473   0.624
11334TIP3   OH233878   3.234   2.311   7.223
11334TIP3    H133879   3.246   2.218   7.205
11334TIP3    H233880   3.280   2.355   7.151
11335TIP3   OH233881   1.107   2.316   2.941
11335TIP3    H133882   1.150   2.396   2.912
11335TIP3    H233883   1.019   2.321   2.903
11336TIP3   OH233884   5.660   5.366   1.512
11336TIP3    H133885   5.645   5.460   1.522
11336TIP3    H233886   5.745   5.360   1.469
11337TIP3   OH233887   2.775   8.893   1.630
11337TIP3    H133888   2.721   8.838   1.686
11337TIP3    H233889   2.797   8.968   1.684
11338TIP3   OH233890   4.054   3.630   6.116
11338TIP3    H133891   4.131   3.578   6.139
11338TIP3    H233892   4.083   3.683   6.041
11339TIP3   OH233893   3.031   3.525   7.389
11339TIP3    H133894   3.068   3.584   7.324
11339TIP3    H233895   2.937   3.528   7.374
11340TIP3   OH233896   7.445   0.520   7.530
11340TIP3    H133897   7.373   0.466   7.497
11340TIP3    H233898   7.431   0.605   7.489
11341TIP3   OH233899   6.853   2.475   6.145
11341TIP3    H133900   6.799   2.461   6.068
11341TIP3    H233901   6.791   2.476   6.218
11342TIP3   OH233902   5.570   5.267   5.573
11342TIP3    H133903   5.544   5.354   5.605
11342TIP3    H233904   5.663   5.260   5.595
11343TIP3   OH233905   4.179   7.731   2.386
11343TIP3    H133906   4.199   7.814   2.428
11343TIP3    H233907   4.255   7.676   2.403
11344TIP3   OH233908   8.807   2.036   3.128
11344TIP3    H133909   8.883   1.991   3.165
11344TIP3    H233910   8.740   1.968   3.119
11345TIP3   OH233911   0.372   4.077   3.461
11345TIP3    H133912   0.371   4.156   3.514
11345TIP3    H233913   0.392   4.007   3.524
11346TIP3   OH233914   3.918   0.487   7.066
11346TIP3    H133915   3.961   0.548   7.125
11346TIP3    H233916   3.825   0.497   7.085
11347TIP3   OH233917   2.249   3.790   1.986
11347TIP3    H133918   2.167   3.747   1.959
11347TIP3    H233919   2.266   3.755   2.073
11348TIP3   OH233920   8.408   3.021   3.947
11348TIP3    H133921   8.330   2.966   3.948
11348TIP3    H233922   8.440   3.019   4.037
11349TIP3   OH233923   2.229   7.304   3.010
11349TIP3    H133924   2.146   7.351   3.007
11349TIP3    H233925   2.208   7.215   2.982
11350TIP3   OH233926   3.005   4.334   4.391
11350TIP3    H133927   2.969   4.251   4.359
11350TIP3    H233928   2.947   4.360   4.462
11351TIP3   OH233929   6.922   9.010   1.621
11351TIP3    H133930   6.948   8.925   1.584
11351TIP3    H233931   6.850   9.039   1.565
11352TIP3   OH233932   5.031   8.569   5.743
11352TIP3    H133933   5.004   8.494   5.798
11352TIP3    H233934   4.957   8.582   5.684
11353TIP3   OH233935   3.855   2.119   2.211
11353TIP3    H133936   3.938   2.102   2.255
11353TIP3    H233937   3.810   2.181   2.268
11354TIP3   OH233938   0.675   3.665   6.678
11354TIP3    H133939   0.712   3.617   6.752
11354TIP3    H233940   0.592   3.622   6.660
11355TIP3   OH233941   7.727   0.218   0.223
11355TIP3    H133942   7.669   0.231   0.148
11355TIP3    H233943   7.679   0.157   0.280
11356TIP3   OH233944   1.248   2.599   3.383
11356TIP3    H133945   1.171   2.543   3.370
11356TIP3    H233946   1.322   2.543   3.363
11357TIP3   OH233947   4.618   1.418   0.049
11357TIP3    H133948   4.607   1.459   0.135
11357TIP3    H233949   4.671   1.481   0.000
11358TIP3   OH233950   2.214   1.592   6.930
11358TIP3    H133951   2.155   1.561   6.862
11358TIP3    H233952   2.211   1.687   6.924
11359TIP3   OH233953   8.707   1.350   6.469
11359TIP3    H133954   8.668   1.274   6.426
11359TIP3    H233955   8.637   1.387   6.522
11360TIP3   OH233956   9.320   0.071   0.177
11360TIP3    H133957   9.386   0.136   0.155
11360TIP3    H233958   9.268   0.111   0.247
11361TIP3   OH233959   0.126   4.529   5.880
11361TIP3    H133960   0.045   4.510   5.927
11361TIP3    H233961   0.139   4.623   5.891
11362TIP3   OH233962   6.309   7.894   1.252
11362TIP3    H133963   6.293   7.924   1.163
11362TIP3    H233964   6.304   7.799   1.247
11363TIP3   OH233965   8.825   1.029   5.085
11363TIP3    H133966   8.832   1.115   5.045
11363TIP3    H233967   8.838   1.044   5.179
11364TIP3   OH233968   4.622   0.117   1.296
11364TIP3    H133969   4.562   0.053   1.260
11364TIP3    H233970   4.702   0.109   1.243
11365TIP3   OH233971   0.325   5.154   2.150
11365TIP3    H133972   0.255   5.119   2.095
11365TIP3    H233973   0.354   5.234   2.105
11366TIP3   OH233974   6.040   2.032   1.606
11366TIP3    H133975   5.971   2.032   1.540
11366TIP3    H233976   6.117   2.064   1.560
11367TIP3   OH233977   2.925   3.944   0.732
11367TIP3    H133978   2.859   4.005   0.764
11367TIP3    H233979   2.886   3.906   0.653
11368TIP3   OH233980   5.893   5.383   1.756
11368TIP3    H133981   5.799   5.395   1.765
11368TIP3    H233982   5.918   5.336   1.836
11369TIP3   OH233983   6.384   3.486   0.149
11369TIP3    H133984   6.383   3.581   0.133
11369TIP3    H233985   6.463   3.472   0.202
11370TIP3   OH233986   8.032   0.628   3.598
11370TIP3    H133987   8.073   0.694   3.655
11370TIP3    H233988   8.105   0.572   3.572
11371TIP3   OH233989   7.427   1.390   0.974
11371TIP3    H133990   7.492   1.408   1.043
11371TIP3    H233991   7.467   1.423   0.894
11372TIP3   OH233992   3.503   7.199   2.398
11372TIP3    H133993   3.470   7.289   2.405
11372TIP3    H233994   3.516   7.172   2.489
11373TIP3   OH233995   4.915   8.275   5.677
11373TIP3    H133996   4.853   8.203   5.689
11373TIP3    H233997   4.967   8.275   5.756
11374TIP3   OH233998   5.058   1.168   3.410
11374TIP3    H133999   4.967   1.152   3.433
11374TIP3    H234000   5.080   1.249   3.455
11375TIP3   OH234001   7.070   7.541   6.438
11375TIP3    H134002   7.066   7.485   6.515
11375TIP3    H234003   6.988   7.525   6.392
11376TIP3   OH234004   3.174   7.777   7.458
11376TIP3    H134005   3.109   7.845   7.439
11376TIP3    H234006   3.197   7.790   7.550
11377TIP3   OH234007   4.843   0.521   0.960
11377TIP3    H134008   4.908   0.567   0.907
11377TIP3    H234009   4.797   0.464   0.897
11378TIP3   OH234010   1.099   5.120   4.356
11378TIP3    H134011   1.036   5.149   4.421
11378TIP3    H234012   1.161   5.066   4.405
11379TIP3   OH234013   3.396   0.367   3.716
11379TIP3    H134014   3.442   0.444   3.750
11379TIP3    H234015   3.329   0.403   3.658
11380TIP3   OH234016   0.664   2.935   2.291
11380TIP3    H134017   0.712   2.852   2.290
11380TIP3    H234018   0.580   2.915   2.251
11381TIP3   OH234019   8.320   7.839   5.697
11381TIP3    H134020   8.293   7.907   5.760
11381TIP3    H234021   8.277   7.865   5.616
11382TIP3   OH234022   6.974   5.557   3.830
11382TIP3    H134023   7.037   5.580   3.898
11382TIP3    H234024   6.933   5.476   3.861
11383TIP3   OH234025   3.396   4.719   7.651
11383TIP3    H134026   3.458   4.647   7.640
11383TIP3    H234027   3.322   4.679   7.698
11384TIP3   OH234028   3.018   1.107   2.426
11384TIP3    H134029   3.080   1.035   2.413
11384TIP3    H234030   2.945   1.087   2.368
11385TIP3   OH234031   1.833   2.918   2.667
11385TIP3    H134032   1.846   2.935   2.573
11385TIP3    H234033   1.847   2.824   2.676
11386TIP3   OH234034   0.793   0.917   6.903
11386TIP3    H134035   0.717   0.860   6.888
11386TIP3    H234036   0.852   0.864   6.957
11387TIP3   OH234037   7.542   4.403   3.562
11387TIP3    H134038   7.547   4.355   3.645
11387TIP3    H234039   7.542   4.335   3.495
11388TIP3   OH234040   4.219   2.311   6.876
11388TIP3    H134041   4.217   2.379   6.808
11388TIP3    H234042   4.295   2.257   6.853
11389TIP3   OH234043   1.669   0.059   5.695
11389TIP3    H134044   1.683   0.123   5.765
11389TIP3    H234045   1.632   0.110   5.623
11390TIP3   OH234046   0.677   1.667   7.246
11390TIP3    H134047   0.612   1.734   7.266
11390TIP3    H234048   0.684   1.669   7.150
11391TIP3   OH234049   4.694   6.168   1.185
11391TIP3    H134050   4.624   6.182   1.250
11391TIP3    H234051   4.729   6.082   1.206
11392TIP3   OH234052   5.821   4.149   0.524
11392TIP3    H134053   5.841   4.056   0.521
11392TIP3    H234054   5.787   4.164   0.612
11393TIP3   OH234055   5.932   8.427   4.212
11393TIP3    H134056   5.902   8.384   4.131
11393TIP3    H234057   5.851   8.452   4.257
11394TIP3   OH234058   9.151   4.508   4.409
11394TIP3    H134059   9.173   4.468   4.494
11394TIP3    H234060   9.228   4.493   4.355
11395TIP3   OH234061   1.646   2.151   6.780
11395TIP3    H134062   1.728   2.145   6.732
11395TIP3    H234063   1.669   2.193   6.863
11396TIP3   OH234064   1.792   4.354   5.512
11396TIP3    H134065   1.841   4.431   5.541
11396TIP3    H234066   1.851   4.310   5.451
11397TIP3   OH234067   4.398   7.710   7.676
11397TIP3    H134068   4.485   7.695   7.712
11397TIP3    H234069   4.413   7.719   7.581
11398TIP3   OH234070   4.524   5.550   1.347
11398TIP3    H134071   4.598   5.583   1.399
11398TIP3    H234072   4.543   5.578   1.258
11399TIP3   OH234073   0.531   7.920   7.188
11399TIP3    H134074   0.553   7.843   7.135
11399TIP3    H234075   0.572   7.993   7.143
11400TIP3   OH234076   2.369   4.783   7.492
11400TIP3    H134077   2.300   4.848   7.478
11400TIP3    H234078   2.396   4.796   7.583
11401TIP3   OH234079   0.495   3.927   5.979
11401TIP3    H134080   0.430   3.975   5.928
11401TIP3    H234081   0.576   3.977   5.968
11402TIP3   OH234082   9.033   7.826   3.660
11402TIP3    H134083   9.096   7.799   3.726
11402TIP3    H234084   9.085   7.873   3.595
11403TIP3   OH234085   2.485   8.334   6.672
11403TIP3    H134086   2.541   8.288   6.610
11403TIP3    H234087   2.397   8.303   6.653
11404TIP3   OH234088   7.682   7.655   3.524
11404TIP3    H134089   7.750   7.618   3.581
11404TIP3    H234090   7.708   7.629   3.436
11405TIP3   OH234091   5.996   0.209   4.509
11405TIP3    H134092   6.017   0.169   4.593
11405TIP3    H234093   6.018   0.302   4.520
11406TIP3   OH234094   6.745   0.424   3.114
11406TIP3    H134095   6.728   0.510   3.154
11406TIP3    H234096   6.722   0.435   3.022
11407TIP3   OH234097   4.209   8.859   7.414
11407TIP3    H134098   4.289   8.880   7.464
11407TIP3    H234099   4.142   8.845   7.481
11408TIP3   OH234100   6.548   1.698   5.320
11408TIP3    H134101   6.479   1.667   5.261
11408TIP3    H234102   6.561   1.790   5.297
11409TIP3   OH234103   7.219   0.119   1.017
11409TIP3    H134104   7.135   0.075   1.030
11409TIP3    H234105   7.225   0.130   0.922
11410TIP3   OH234106   7.551   0.902   0.530
11410TIP3    H134107   7.619   0.960   0.495
11410TIP3    H234108   7.491   0.961   0.576
11411TIP3   OH234109   6.056   7.351   5.264
11411TIP3    H134110   6.146   7.381   5.247
11411TIP3    H234111   6.056   7.259   5.239
11412TIP3   OH234112   0.866   4.819   3.460
11412TIP3    H134113   0.845   4.819   3.367
11412TIP3    H234114   0.906   4.733   3.476
11413TIP3   OH234115   6.579   5.887   4.470
11413TIP3    H134116   6.621   5.820   4.524
11413TIP3    H234117   6.485   5.868   4.477
11414TIP3   OH234118   0.009   2.883   6.928
11414TIP3    H134119  -0.042   2.927   6.860
11414TIP3    H234120   0.100   2.892   6.899
11415TIP3   OH234121   3.685   6.774   1.224
11415TIP3    H134122   3.601   6.815   1.201
11415TIP3    H234123   3.748   6.812   1.163
11416TIP3   OH234124   4.699   0.999   0.137
11416TIP3    H134125   4.625   1.033   0.088
11416TIP3    H234126   4.775   1.044   0.101
11417TIP3   OH234127   7.384   3.077   0.916
11417TIP3    H134128   7.328   3.124   0.855
11417TIP3    H234129   7.472   3.108   0.897
11418TIP3   OH234130   8.366   4.195   1.836
11418TIP3    H134131   8.427   4.130   1.804
11418TIP3    H234132   8.290   4.187   1.779
11419TIP3   OH234133   7.012   0.857   1.228
11419TIP3    H134134   7.045   0.840   1.140
11419TIP3    H234135   6.917   0.868   1.216
11420TIP3   OH234136   9.473   7.877   2.889
11420TIP3    H134137   9.486   7.819   2.813
11420TIP3    H234138   9.533   7.842   2.955
11421TIP3   OH234139   2.824   6.708   4.866
11421TIP3    H134140   2.857   6.669   4.947
11421TIP3    H234141   2.731   6.686   4.865
11422TIP3   OH234142   4.937   0.605   1.840
11422TIP3    H134143   4.957   0.629   1.931
11422TIP3    H234144   4.854   0.558   1.846
11423TIP3   OH234145   1.155   1.948   3.988
11423TIP3    H134146   1.218   1.876   3.987
11423TIP3    H234147   1.172   1.993   4.071
11424TIP3   OH234148   1.385   2.102   3.560
11424TIP3    H134149   1.452   2.097   3.492
11424TIP3    H234150   1.399   2.024   3.614
11425TIP3   OH234151   7.268   7.241   5.036
11425TIP3    H134152   7.304   7.159   5.002
11425TIP3    H234153   7.182   7.249   4.993
11426TIP3   OH234154   3.289   8.635   5.338
11426TIP3    H134155   3.276   8.545   5.367
11426TIP3    H234156   3.358   8.669   5.396
11427TIP3   OH234157   0.976   8.380   0.480
11427TIP3    H134158   1.029   8.408   0.554
11427TIP3    H234159   0.894   8.349   0.519
11428TIP3   OH234160   1.884   4.959   0.322
11428TIP3    H134161   1.872   4.896   0.252
11428TIP3    H234162   1.842   5.039   0.291
11429TIP3   OH234163   0.929   6.871   4.656
11429TIP3    H134164   0.956   6.821   4.733
11429TIP3    H234165   0.981   6.834   4.585
11430TIP3   OH234166   7.420   0.354   2.981
11430TIP3    H134167   7.470   0.422   3.027
11430TIP3    H234168   7.329   0.372   3.003
11431TIP3   OH234169   2.611   7.519   6.872
11431TIP3    H134170   2.684   7.456   6.869
11431TIP3    H234171   2.654   7.605   6.873
11432TIP3   OH234172   0.404   3.819   6.232
11432TIP3    H134173   0.465   3.827   6.158
11432TIP3    H234174   0.365   3.906   6.241
11433TIP3   OH234175   2.217   4.498   1.656
11433TIP3    H134176   2.141   4.502   1.715
11433TIP3    H234177   2.180   4.468   1.573
11434TIP3   OH234178   1.915   8.237   4.349
11434TIP3    H134179   1.885   8.170   4.411
11434TIP3    H234180   1.905   8.195   4.263
11435TIP3   OH234181   7.068   5.383   7.368
11435TIP3    H134182   7.009   5.421   7.303
11435TIP3    H234183   7.025   5.399   7.452
11436TIP3   OH234184   1.114   8.765   3.172
11436TIP3    H134185   1.192   8.752   3.225
11436TIP3    H234186   1.146   8.766   3.082
11437TIP3   OH234187   2.205   7.648   0.823
11437TIP3    H134188   2.234   7.707   0.893
11437TIP3    H234189   2.274   7.583   0.816
11438TIP3   OH234190   0.777   3.718   3.106
11438TIP3    H134191   0.843   3.687   3.168
11438TIP3    H234192   0.803   3.679   3.023
11439TIP3   OH234193   7.684   2.860   6.309
11439TIP3    H134194   7.648   2.850   6.222
11439TIP3    H234195   7.776   2.836   6.300
11440TIP3   OH234196   3.759   8.958   4.542
11440TIP3    H134197   3.698   9.007   4.596
11440TIP3    H234198   3.840   8.956   4.593
11441TIP3   OH234199   7.252   6.193   6.243
11441TIP3    H134200   7.180   6.139   6.276
11441TIP3    H234201   7.232   6.281   6.273
11442TIP3   OH234202   4.973   7.812   3.480
11442TIP3    H134203   4.986   7.906   3.469
11442TIP3    H234204   5.056   7.779   3.513
11443TIP3   OH234205   4.547   4.908   2.404
11443TIP3    H134206   4.613   4.943   2.464
11443TIP3    H234207   4.516   4.828   2.447
11444TIP3   OH234208   0.265   8.803   6.107
11444TIP3    H134209   0.314   8.884   6.098
11444TIP3    H234210   0.305   8.744   6.043
11445TIP3   OH234211   9.487   1.461   1.008
11445TIP3    H134212   9.576   1.426   0.999
11445TIP3    H234213   9.436   1.387   1.039
11446TIP3   OH234214   0.653   2.460   7.721
11446TIP3    H134215   0.589   2.517   7.765
11446TIP3    H234216   0.612   2.437   7.638
11447TIP3   OH234217   6.460   3.643   2.389
11447TIP3    H134218   6.540   3.689   2.412
11447TIP3    H234219   6.419   3.697   2.321
11448TIP3   OH234220   2.534   5.664   2.072
11448TIP3    H134221   2.509   5.578   2.106
11448TIP3    H234222   2.547   5.718   2.150
11449TIP3   OH234223   0.408   0.914   7.369
11449TIP3    H134224   0.480   0.941   7.312
11449TIP3    H234225   0.401   0.985   7.433
11450TIP3   OH234226   4.545   2.265   2.860
11450TIP3    H134227   4.598   2.343   2.846
11450TIP3    H234228   4.559   2.212   2.781
11451TIP3   OH234229   6.801   3.258   6.614
11451TIP3    H134230   6.739   3.214   6.556
11451TIP3    H234231   6.785   3.351   6.600
11452TIP3   OH234232   5.086   1.621   5.782
11452TIP3    H134233   5.145   1.671   5.838
11452TIP3    H234234   5.064   1.543   5.833
11453TIP3   OH234235   8.937   6.453   5.583
11453TIP3    H134236   8.982   6.481   5.662
11453TIP3    H234237   8.857   6.411   5.614
11454TIP3   OH234238   4.833   5.622   2.403
11454TIP3    H134239   4.745   5.587   2.392
11454TIP3    H234240   4.868   5.578   2.480
11455TIP3   OH234241   6.836   0.802   4.632
11455TIP3    H134242   6.868   0.856   4.559
11455TIP3    H234243   6.837   0.861   4.707
11456TIP3   OH234244   7.872   2.646   1.473
11456TIP3    H134245   7.934   2.612   1.538
11456TIP3    H234246   7.813   2.702   1.523
11457TIP3   OH234247   4.517   7.341   1.165
11457TIP3    H134248   4.543   7.347   1.257
11457TIP3    H234249   4.579   7.279   1.126
11458TIP3   OH234250   9.523   4.386   0.109
11458TIP3    H134251   9.537   4.370   0.202
11458TIP3    H234252   9.488   4.476   0.105
11459TIP3   OH234253   7.164   4.782   7.800
11459TIP3    H134254   7.251   4.743   7.808
11459TIP3    H234255   7.172   4.842   7.725
11460TIP3   OH234256   2.361   3.077   1.193
11460TIP3    H134257   2.385   2.988   1.167
11460TIP3    H234258   2.277   3.067   1.237
11461TIP3   OH234259   2.840   0.451   0.073
11461TIP3    H134260   2.858   0.362   0.102
11461TIP3    H234261   2.923   0.497   0.080
11462TIP3   OH234262   5.532   7.669   5.377
11462TIP3    H134263   5.618   7.629   5.386
11462TIP3    H234264   5.492   7.660   5.464
11463TIP3   OH234265   6.756   3.165   0.410
11463TIP3    H134266   6.673   3.121   0.428
11463TIP3    H234267   6.772   3.149   0.317
11464TIP3   OH234268   3.537   4.844   2.061
11464TIP3    H134269   3.529   4.913   2.127
11464TIP3    H234270   3.466   4.784   2.081
11465TIP3   OH234271   3.390   2.596   7.475
11465TIP3    H134272   3.480   2.578   7.502
11465TIP3    H234273   3.398   2.635   7.388
11466TIP3   OH234274   7.740   4.476   6.884
11466TIP3    H134275   7.799   4.509   6.816
11466TIP3    H234276   7.795   4.471   6.963
11467TIP3   OH234277   5.521   6.353   5.182
11467TIP3    H134278   5.460   6.325   5.250
11467TIP3    H234279   5.550   6.440   5.209
11468TIP3   OH234280   2.725   6.108   2.460
11468TIP3    H134281   2.787   6.139   2.525
11468TIP3    H234282   2.639   6.117   2.502
11469TIP3   OH234283   2.833   6.172   3.628
11469TIP3    H134284   2.814   6.224   3.706
11469TIP3    H234285   2.929   6.168   3.625
11470TIP3   OH234286   4.428   0.532   0.729
11470TIP3    H134287   4.431   0.437   0.737
11470TIP3    H234288   4.336   0.552   0.714
11471TIP3   OH234289   4.719   1.248   0.616
11471TIP3    H134290   4.662   1.317   0.582
11471TIP3    H234291   4.677   1.166   0.587
11472TIP3   OH234292   6.561   1.865   7.240
11472TIP3    H134293   6.590   1.836   7.153
11472TIP3    H234294   6.540   1.957   7.229
11473TIP3   OH234295   0.986   8.739   0.601
11473TIP3    H134296   0.970   8.833   0.605
11473TIP3    H234297   0.899   8.701   0.591
11474TIP3   OH234298   8.401   7.048   5.095
11474TIP3    H134299   8.409   7.126   5.040
11474TIP3    H234300   8.399   7.083   5.184
11475TIP3   OH234301   8.336   7.370   3.746
11475TIP3    H134302   8.266   7.366   3.811
11475TIP3    H234303   8.292   7.392   3.664
11476TIP3   OH234304   6.276   0.111   4.213
11476TIP3    H134305   6.180   0.118   4.211
11476TIP3    H234306   6.306   0.201   4.202
11477TIP3   OH234307   7.334   2.103   4.548
11477TIP3    H134308   7.303   2.174   4.604
11477TIP3    H234309   7.374   2.147   4.473
11478TIP3   OH234310   6.799   2.042   6.799
11478TIP3    H134311   6.811   2.008   6.711
11478TIP3    H234312   6.704   2.043   6.812
11479TIP3   OH234313   2.671   4.383   5.742
11479TIP3    H134314   2.585   4.343   5.756
11479TIP3    H234315   2.674   4.399   5.648
11480TIP3   OH234316   7.694   4.436   4.959
11480TIP3    H134317   7.613   4.429   5.011
11480TIP3    H234318   7.707   4.531   4.950
11481TIP3   OH234319   5.230   3.389   7.369
11481TIP3    H134320   5.307   3.443   7.387
11481TIP3    H234321   5.160   3.429   7.420
11482TIP3   OH234322   4.185   4.059   5.168
11482TIP3    H134323   4.142   4.018   5.243
11482TIP3    H234324   4.204   3.986   5.109
11483TIP3   OH234325   9.331   3.126   3.621
11483TIP3    H134326   9.244   3.140   3.585
11483TIP3    H234327   9.361   3.213   3.647
11484TIP3   OH234328   5.605   8.810   0.256
11484TIP3    H134329   5.680   8.750   0.260
11484TIP3    H234330   5.552   8.785   0.331
11485TIP3   OH234331   9.322   1.935   1.985
11485TIP3    H134332   9.279   1.963   1.904
11485TIP3    H234333   9.251   1.920   2.047
11486TIP3   OH234334   0.715   8.593   6.655
11486TIP3    H134335   0.747   8.646   6.582
11486TIP3    H234336   0.705   8.505   6.618
11487TIP3   OH234337   3.046   7.261   3.845
11487TIP3    H134338   3.020   7.302   3.927
11487TIP3    H234339   3.096   7.183   3.872
11488TIP3   OH234340   2.324   1.850   4.903
11488TIP3    H134341   2.230   1.830   4.905
11488TIP3    H234342   2.355   1.804   4.825
11489TIP3   OH234343   4.333   6.992   5.006
11489TIP3    H134344   4.336   7.023   5.097
11489TIP3    H234345   4.310   6.899   5.013
11490TIP3   OH234346   8.667   5.638   0.486
11490TIP3    H134347   8.697   5.702   0.550
11490TIP3    H234348   8.671   5.684   0.402
11491TIP3   OH234349   6.589   0.861   4.509
11491TIP3    H134350   6.676   0.830   4.533
11491TIP3    H234351   6.546   0.786   4.469
11492TIP3   OH234352   0.437   5.698   5.657
11492TIP3    H134353   0.472   5.610   5.672
11492TIP3    H234354   0.357   5.702   5.709
11493TIP3   OH234355   4.286   6.819   6.831
11493TIP3    H134356   4.201   6.849   6.799
11493TIP3    H234357   4.293   6.729   6.799
11494TIP3   OH234358   0.471   1.697   0.970
11494TIP3    H134359   0.398   1.689   1.032
11494TIP3    H234360   0.480   1.791   0.956
11495TIP3   OH234361   2.444   0.036   0.269
11495TIP3    H134362   2.487   0.048   0.184
11495TIP3    H234363   2.404  -0.051   0.264
11496TIP3   OH234364   8.653   2.906   5.347
11496TIP3    H134365   8.736   2.860   5.343
11496TIP3    H234366   8.587   2.837   5.342
11497TIP3   OH234367   0.321   7.020   3.750
11497TIP3    H134368   0.312   7.115   3.755
11497TIP3    H234369   0.394   7.006   3.690
11498TIP3   OH234370   2.070   0.509   6.619
11498TIP3    H134371   2.141   0.476   6.674
11498TIP3    H234372   2.099   0.596   6.591
11499TIP3   OH234373   0.465   3.335   4.611
11499TIP3    H134374   0.389   3.357   4.666
11499TIP3    H234375   0.514   3.272   4.663
11500TIP3   OH234376   8.238   2.831   6.860
11500TIP3    H134377   8.233   2.923   6.833
11500TIP3    H234378   8.315   2.826   6.917
11501TIP3   OH234379   3.365   2.688   7.187
11501TIP3    H134380   3.382   2.781   7.171
11501TIP3    H234381   3.270   2.679   7.179
11502TIP3   OH234382   4.557   6.298   5.565
11502TIP3    H134383   4.495   6.228   5.587
11502TIP3    H234384   4.634   6.279   5.619
11503TIP3   OH234385   6.991   8.633   0.051
11503TIP3    H134386   6.942   8.608   0.129
11503TIP3    H234387   7.029   8.718   0.073
11504TIP3   OH234388   0.172   6.664   4.285
11504TIP3    H134389   0.220   6.745   4.270
11504TIP3    H234390   0.154   6.663   4.379
11505TIP3   OH234391   2.463   4.747   6.516
11505TIP3    H134392   2.419   4.800   6.582
11505TIP3    H234393   2.489   4.809   6.449
11506TIP3   OH234394   2.227   7.172   1.478
11506TIP3    H134395   2.272   7.103   1.429
11506TIP3    H234396   2.216   7.135   1.566
11507TIP3   OH234397   6.613   5.767   5.542
11507TIP3    H134398   6.667   5.787   5.619
11507TIP3    H234399   6.676   5.743   5.474
11508TIP3   OH234400   7.963   4.547   2.552
11508TIP3    H134401   7.993   4.587   2.470
11508TIP3    H234402   8.024   4.475   2.567
11509TIP3   OH234403   1.000   0.331   3.805
11509TIP3    H134404   1.004   0.332   3.709
11509TIP3    H234405   1.086   0.364   3.832
11510TIP3   OH234406   3.957   8.507   6.183
11510TIP3    H134407   3.924   8.512   6.273
11510TIP3    H234408   3.914   8.430   6.146
11511TIP3   OH234409   0.771   2.117   4.516
11511TIP3    H134410   0.758   2.022   4.519
11511TIP3    H234411   0.690   2.153   4.551
11512TIP3   OH234412   0.043   1.721   4.385
11512TIP3    H134413  -0.033   1.692   4.334
11512TIP3    H234414   0.008   1.740   4.472
11513TIP3   OH234415   5.903   5.355   2.132
11513TIP3    H134416   5.810   5.333   2.139
11513TIP3    H234417   5.943   5.278   2.093
11514TIP3   OH234418   6.149   4.568   5.181
11514TIP3    H134419   6.176   4.629   5.112
11514TIP3    H234420   6.112   4.493   5.133
11515TIP3   OH234421   3.360   3.297   7.563
11515TIP3    H134422   3.402   3.382   7.572
11515TIP3    H234423   3.375   3.253   7.646
11516TIP3   OH234424   3.516   6.264   3.237
11516TIP3    H134425   3.469   6.189   3.273
11516TIP3    H234426   3.448   6.327   3.215
11517TIP3   OH234427   1.326   3.555   1.791
11517TIP3    H134428   1.386   3.500   1.842
11517TIP3    H234429   1.241   3.540   1.832
11518TIP3   OH234430   8.143   8.790   5.113
11518TIP3    H134431   8.084   8.850   5.157
11518TIP3    H234432   8.216   8.845   5.084
11519TIP3   OH234433   9.451   8.745   6.790
11519TIP3    H134434   9.474   8.735   6.882
11519TIP3    H234435   9.381   8.811   6.789
11520TIP3   OH234436   2.881   2.932   6.930
11520TIP3    H134437   2.886   3.028   6.924
11520TIP3    H234438   2.966   2.906   6.965
11521TIP3   OH234439   6.441   2.081   4.684
11521TIP3    H134440   6.527   2.088   4.642
11521TIP3    H234441   6.381   2.065   4.611
11522TIP3   OH234442   7.176   8.924   6.312
11522TIP3    H134443   7.259   8.884   6.336
11522TIP3    H234444   7.113   8.885   6.372
11523TIP3   OH234445   4.638   5.103   7.608
11523TIP3    H134446   4.662   5.181   7.657
11523TIP3    H234447   4.613   5.136   7.521
11524TIP3   OH234448   6.186   8.951   4.162
11524TIP3    H134449   6.170   9.039   4.198
11524TIP3    H234450   6.105   8.903   4.179
11525TIP3   OH234451   8.953   1.235   1.258
11525TIP3    H134452   8.967   1.275   1.172
11525TIP3    H234453   8.911   1.152   1.239
11526TIP3   OH234454   7.136   7.499   3.049
11526TIP3    H134455   7.120   7.405   3.039
11526TIP3    H234456   7.137   7.513   3.143
11527TIP3   OH234457   3.765   6.547   6.245
11527TIP3    H134458   3.769   6.570   6.338
11527TIP3    H234459   3.799   6.624   6.200
11528TIP3   OH234460   3.803   8.599   2.964
11528TIP3    H134461   3.882   8.587   3.017
11528TIP3    H234462   3.731   8.599   3.028
11529TIP3   OH234463   7.725   8.904   0.047
11529TIP3    H134464   7.705   8.824   0.095
11529TIP3    H234465   7.703   8.885  -0.044
11530TIP3   OH234466   7.292   1.218   1.146
11530TIP3    H134467   7.215   1.193   1.095
11530TIP3    H234468   7.345   1.270   1.086
11531TIP3   OH234469   6.162   7.442   2.896
11531TIP3    H134470   6.126   7.512   2.842
11531TIP3    H234471   6.247   7.475   2.925
11532TIP3   OH234472   3.563   5.927   1.059
11532TIP3    H134473   3.611   5.911   1.139
11532TIP3    H234474   3.516   5.846   1.042
11533TIP3   OH234475   1.622   6.786   2.672
11533TIP3    H134476   1.579   6.783   2.758
11533TIP3    H234477   1.579   6.859   2.627
11534TIP3   OH234478   6.508   1.464   0.582
11534TIP3    H134479   6.574   1.518   0.624
11534TIP3    H234480   6.492   1.392   0.643
11535TIP3   OH234481   6.358   7.196   3.958
11535TIP3    H134482   6.386   7.106   3.972
11535TIP3    H234483   6.283   7.190   3.900
11536TIP3   OH234484   5.321   6.525   2.189
11536TIP3    H134485   5.232   6.532   2.221
11536TIP3    H234486   5.319   6.453   2.126
11537TIP3   OH234487   0.520   8.509   6.351
11537TIP3    H134488   0.441   8.530   6.401
11537TIP3    H234489   0.577   8.464   6.414
11538TIP3   OH234490   8.989   7.223   6.588
11538TIP3    H134491   9.014   7.140   6.628
11538TIP3    H234492   8.927   7.262   6.650
11539TIP3   OH234493   8.897   0.570   0.486
11539TIP3    H134494   8.955   0.506   0.528
11539TIP3    H234495   8.828   0.586   0.551
11540TIP3   OH234496   0.348   3.994   2.711
11540TIP3    H134497   0.274   4.040   2.750
11540TIP3    H234498   0.313   3.907   2.688
11541TIP3   OH234499   2.322   7.634   0.208
11541TIP3    H134500   2.336   7.724   0.180
11541TIP3    H234501   2.227   7.622   0.202
11542TIP3   OH234502   6.139   1.765   7.161
11542TIP3    H134503   6.157   1.839   7.219
11542TIP3    H234504   6.137   1.803   7.073
11543TIP3   OH234505   7.821   8.564   3.222
11543TIP3    H134506   7.822   8.500   3.151
11543TIP3    H234507   7.856   8.644   3.183
11544TIP3   OH234508   5.897   7.390   3.555
11544TIP3    H134509   5.879   7.426   3.642
11544TIP3    H234510   5.843   7.310   3.551
11545TIP3   OH234511   4.324   7.102   3.411
11545TIP3    H134512   4.362   7.160   3.346
11545TIP3    H234513   4.244   7.069   3.370
11546TIP3   OH234514   3.568   0.053   2.125
11546TIP3    H134515   3.624   0.035   2.049
11546TIP3    H234516   3.628   0.051   2.199
11547TIP3   OH234517   8.417   0.430   0.088
11547TIP3    H134518   8.443   0.451   0.177
11547TIP3    H234519   8.477   0.480   0.033
11548TIP3   OH234520   4.320   2.726   1.872
11548TIP3    H134521   4.312   2.816   1.902
11548TIP3    H234522   4.296   2.729   1.780
11549TIP3   OH234523   2.672   1.543   6.875
11549TIP3    H134524   2.577   1.531   6.875
11549TIP3    H234525   2.694   1.564   6.784
11550TIP3   OH234526   6.189   4.538   0.756
11550TIP3    H134527   6.140   4.482   0.816
11550TIP3    H234528   6.134   4.544   0.678
11551TIP3   OH234529   5.405   0.600   3.307
11551TIP3    H134530   5.436   0.556   3.228
11551TIP3    H234531   5.474   0.586   3.371
11552TIP3   OH234532   3.400   8.864   1.610
11552TIP3    H134533   3.346   8.789   1.586
11552TIP3    H234534   3.357   8.938   1.568
11553TIP3   OH234535   5.554   7.464   4.190
11553TIP3    H134536   5.562   7.500   4.101
11553TIP3    H234537   5.523   7.538   4.243
11554TIP3   OH234538   2.781   0.425   3.739
11554TIP3    H134539   2.688   0.403   3.735
11554TIP3    H234540   2.783   0.515   3.771
11555TIP3   OH234541   5.267   3.227   4.989
11555TIP3    H134542   5.190   3.284   4.984
11555TIP3    H234543   5.240   3.156   5.047
11556TIP3   OH234544   3.866   6.833   0.232
11556TIP3    H134545   3.774   6.858   0.221
11556TIP3    H234546   3.914   6.915   0.217
11557TIP3   OH234547   7.295   6.635   2.332
11557TIP3    H134548   7.312   6.700   2.401
11557TIP3    H234549   7.208   6.658   2.299
11558TIP3   OH234550   7.447   7.514   3.721
11558TIP3    H134551   7.372   7.490   3.666
11558TIP3    H234552   7.510   7.553   3.660
11559TIP3   OH234553   5.872   6.084   2.042
11559TIP3    H134554   5.797   6.054   2.092
11559TIP3    H234555   5.872   6.180   2.053
11560TIP3   OH234556   3.417   2.601   6.727
11560TIP3    H134557   3.452   2.677   6.773
11560TIP3    H234558   3.324   2.620   6.717
11561TIP3   OH234559   1.868   5.579   2.216
11561TIP3    H134560   1.786   5.607   2.176
11561TIP3    H234561   1.930   5.577   2.143
11562TIP3   OH234562   1.695   6.751   7.368
11562TIP3    H134563   1.766   6.736   7.306
11562TIP3    H234564   1.716   6.834   7.410
11563TIP3   OH234565   4.552   0.410   3.765
11563TIP3    H134566   4.518   0.379   3.682
11563TIP3    H234567   4.598   0.491   3.744
11564TIP3   OH234568   1.063   4.505   2.550
11564TIP3    H134569   0.987   4.507   2.608
11564TIP3    H234570   1.135   4.476   2.606
11565TIP3   OH234571   5.150   0.612   4.524
11565TIP3    H134572   5.220   0.675   4.543
11565TIP3    H234573   5.186   0.527   4.548
11566TIP3   OH234574   8.335   2.795   2.865
11566TIP3    H134575   8.426   2.766   2.861
11566TIP3    H234576   8.304   2.789   2.775
11567TIP3   OH234577   2.914   0.455   7.143
11567TIP3    H134578   2.936   0.432   7.052
11567TIP3    H234579   2.839   0.514   7.135
11568TIP3   OH234580   3.461   1.049   4.020
11568TIP3    H134581   3.430   1.136   4.044
11568TIP3    H234582   3.531   1.030   4.082
11569TIP3   OH234583   5.494   5.952   2.479
11569TIP3    H134584   5.544   5.962   2.560
11569TIP3    H234585   5.546   5.892   2.426
11570TIP3   OH234586   5.960   1.337   2.654
11570TIP3    H134587   5.936   1.269   2.591
11570TIP3    H234588   6.054   1.325   2.667
11571TIP3   OH234589   9.419   2.740   1.175
11571TIP3    H134590   9.344   2.681   1.184
11571TIP3    H234591   9.459   2.742   1.262
11572TIP3   OH234592   8.562   7.072   1.278
11572TIP3    H134593   8.563   7.063   1.373
11572TIP3    H234594   8.563   7.166   1.262
11573TIP3   OH234595   7.700   6.513   3.712
11573TIP3    H134596   7.727   6.430   3.673
11573TIP3    H234597   7.773   6.537   3.769
11574TIP3   OH234598   6.414   4.787   1.026
11574TIP3    H134599   6.414   4.752   0.937
11574TIP3    H234600   6.325   4.773   1.057
11575TIP3   OH234601   7.324   1.311   5.891
11575TIP3    H134602   7.328   1.278   5.801
11575TIP3    H234603   7.237   1.350   5.898
11576TIP3   OH234604   8.141   8.309   3.821
11576TIP3    H134605   8.069   8.321   3.760
11576TIP3    H234606   8.158   8.214   3.820
11577TIP3   OH234607   2.380   1.603   2.791
11577TIP3    H134608   2.337   1.687   2.773
11577TIP3    H234609   2.452   1.625   2.850
11578TIP3   OH234610   7.897   5.198   1.667
11578TIP3    H134611   7.940   5.145   1.600
11578TIP3    H234612   7.955   5.274   1.679
11579TIP3   OH234613   5.144   2.554   5.827
11579TIP3    H134614   5.178   2.521   5.910
11579TIP3    H234615   5.167   2.486   5.764
11580TIP3   OH234616   7.624   1.997   0.622
11580TIP3    H134617   7.531   2.021   0.616
11580TIP3    H234618   7.669   2.081   0.627
11581TIP3   OH234619   6.306   4.106   5.986
11581TIP3    H134620   6.363   4.127   5.912
11581TIP3    H234621   6.242   4.177   5.989
11582TIP3   OH234622   1.779   7.135   4.376
11582TIP3    H134623   1.725   7.068   4.420
11582TIP3    H234624   1.738   7.145   4.290
11583TIP3   OH234625   1.282   5.941   6.338
11583TIP3    H134626   1.318   5.878   6.400
11583TIP3    H234627   1.252   5.888   6.264
11584TIP3   OH234628   4.886   7.128   3.561
11584TIP3    H134629   4.872   7.046   3.607
11584TIP3    H234630   4.838   7.193   3.613
11585TIP3   OH234631   1.315   3.705   2.755
11585TIP3    H134632   1.295   3.761   2.680
11585TIP3    H234633   1.269   3.623   2.736
11586TIP3   OH234634   8.317   8.756   6.300
11586TIP3    H134635   8.302   8.698   6.225
11586TIP3    H234636   8.247   8.820   6.295
11587TIP3   OH234637   3.218   2.950   7.567
11587TIP3    H134638   3.150   3.014   7.545
11587TIP3    H234639   3.170   2.867   7.575
11588TIP3   OH234640   5.825   2.190   6.515
11588TIP3    H134641   5.863   2.131   6.581
11588TIP3    H234642   5.738   2.153   6.498
11589TIP3   OH234643   5.281   3.638   5.770
11589TIP3    H134644   5.299   3.729   5.794
11589TIP3    H234645   5.190   3.625   5.794
11590TIP3   OH234646   9.249   3.678   2.833
11590TIP3    H134647   9.200   3.722   2.903
11590TIP3    H234648   9.240   3.585   2.853
11591TIP3   OH234649   6.843   3.846   0.250
11591TIP3    H134650   6.754   3.845   0.285
11591TIP3    H234651   6.899   3.852   0.327
11592TIP3   OH234652   2.451   3.808   6.501
11592TIP3    H134653   2.367   3.854   6.501
11592TIP3    H234654   2.443   3.743   6.431
11593TIP3   OH234655   5.199   1.527   5.447
11593TIP3    H134656   5.230   1.527   5.356
11593TIP3    H234657   5.275   1.553   5.499
11594TIP3   OH234658   1.985   1.923   6.242
11594TIP3    H134659   1.978   2.001   6.297
11594TIP3    H234660   2.078   1.903   6.239
11595TIP3   OH234661   8.087   3.370   1.783
11595TIP3    H134662   8.091   3.324   1.866
11595TIP3    H234663   8.041   3.311   1.723
11596TIP3   OH234664   1.169   8.992   1.725
11596TIP3    H134665   1.237   8.976   1.660
11596TIP3    H234666   1.210   8.968   1.809
11597TIP3   OH234667   8.476   5.600   7.028
11597TIP3    H134668   8.493   5.694   7.023
11597TIP3    H234669   8.514   5.572   7.111
11598TIP3   OH234670   0.440   3.947   3.246
11598TIP3    H134671   0.380   4.004   3.295
11598TIP3    H234672   0.526   3.988   3.256
11599TIP3   OH234673   9.264   3.945   7.594
11599TIP3    H134674   9.243   4.020   7.538
11599TIP3    H234675   9.316   3.887   7.538
11600TIP3   OH234676   3.571   7.866   2.073
11600TIP3    H134677   3.583   7.961   2.082
11600TIP3    H234678   3.631   7.829   2.138
11601TIP3   OH234679   9.119   6.106   0.125
11601TIP3    H134680   9.079   6.074   0.205
11601TIP3    H234681   9.084   6.050   0.056
11602TIP3   OH234682   3.527   4.926   7.048
11602TIP3    H134683   3.575   4.907   6.967
11602TIP3    H234684   3.559   5.012   7.074
11603TIP3   OH234685   0.463   7.972   3.463
11603TIP3    H134686   0.499   8.010   3.543
11603TIP3    H234687   0.448   8.047   3.405
11604TIP3   OH234688   4.759   3.442   2.157
11604TIP3    H134689   4.768   3.531   2.124
11604TIP3    H234690   4.673   3.440   2.198
11605TIP3   OH234691   3.540   1.873   5.365
11605TIP3    H134692   3.548   1.858   5.270
11605TIP3    H234693   3.549   1.968   5.375
11606TIP3   OH234694   5.083   3.861   5.052
11606TIP3    H134695   5.118   3.788   5.002
11606TIP3    H234696   5.095   3.835   5.144
11607TIP3   OH234697   8.473   2.077   6.333
11607TIP3    H134698   8.527   2.062   6.411
11607TIP3    H234699   8.535   2.077   6.260
11608TIP3   OH234700   3.668   5.820   6.211
11608TIP3    H134701   3.592   5.765   6.189
11608TIP3    H234702   3.734   5.758   6.243
11609TIP3   OH234703   4.039   6.337   0.486
11609TIP3    H134704   4.094   6.398   0.534
11609TIP3    H234705   3.950   6.364   0.505
11610TIP3   OH234706   2.955   2.380   7.223
11610TIP3    H134707   2.946   2.471   7.193
11610TIP3    H234708   3.047   2.360   7.212
11611TIP3   OH234709   1.083   8.331   4.975
11611TIP3    H134710   1.094   8.417   4.932
11611TIP3    H234711   1.142   8.334   5.050
11612TIP3   OH234712   4.227   3.559   6.387
11612TIP3    H134713   4.308   3.512   6.366
11612TIP3    H234714   4.181   3.502   6.448
11613TIP3   OH234715   0.373   3.883   0.703
11613TIP3    H134716   0.283   3.885   0.671
11613TIP3    H234717   0.417   3.954   0.656
11614TIP3   OH234718   4.699   1.091   6.428
11614TIP3    H134719   4.683   1.023   6.494
11614TIP3    H234720   4.730   1.043   6.351
11615TIP3   OH234721   6.496   1.435   5.765
11615TIP3    H134722   6.419   1.379   5.781
11615TIP3    H234723   6.484   1.466   5.675
11616TIP3   OH234724   0.752   7.931   3.798
11616TIP3    H134725   0.721   8.005   3.850
11616TIP3    H234726   0.687   7.862   3.811
11617TIP3   OH234727   8.518   1.267   4.683
11617TIP3    H134728   8.457   1.280   4.610
11617TIP3    H234729   8.558   1.182   4.666
11618TIP3   OH234730   1.048   7.837   6.275
11618TIP3    H134731   0.988   7.907   6.303
11618TIP3    H234732   1.071   7.860   6.185
11619TIP3   OH234733   0.173   6.115   0.859
11619TIP3    H134734   0.104   6.087   0.798
11619TIP3    H234735   0.250   6.065   0.832
11620TIP3   OH234736   0.604   3.849   4.059
11620TIP3    H134737   0.605   3.842   4.154
11620TIP3    H234738   0.519   3.888   4.038
11621TIP3   OH234739   5.692   8.059   4.795
11621TIP3    H134740   5.705   7.976   4.840
11621TIP3    H234741   5.600   8.082   4.812
11622TIP3   OH234742   8.267   2.337   1.747
11622TIP3    H134743   8.190   2.321   1.800
11622TIP3    H234744   8.235   2.383   1.670
11623TIP3   OH234745   4.581   5.470   4.436
11623TIP3    H134746   4.506   5.445   4.382
11623TIP3    H234747   4.618   5.547   4.393
11624TIP3   OH234748   2.294   0.509   7.712
11624TIP3    H134749   2.285   0.604   7.715
11624TIP3    H234750   2.272   0.486   7.622
11625TIP3   OH234751   6.460   1.528   1.246
11625TIP3    H134752   6.389   1.562   1.192
11625TIP3    H234753   6.509   1.606   1.274
11626TIP3   OH234754   3.813   2.836   0.615
11626TIP3    H134755   3.827   2.768   0.549
11626TIP3    H234756   3.721   2.860   0.604
11627TIP3   OH234757   8.405   6.298   1.673
11627TIP3    H134758   8.479   6.259   1.721
11627TIP3    H234759   8.437   6.383   1.643
11628TIP3   OH234760   0.922   7.312   5.716
11628TIP3    H134761   0.857   7.246   5.691
11628TIP3    H234762   0.915   7.379   5.648
11629TIP3   OH234763   2.038   6.944   0.874
11629TIP3    H134764   2.087   6.971   0.951
11629TIP3    H234765   1.959   6.999   0.875
11630TIP3   OH234766   5.019   6.898   7.776
11630TIP3    H134767   5.055   6.986   7.765
11630TIP3    H234768   5.024   6.881   7.870
11631TIP3   OH234769   3.639   8.027   6.145
11631TIP3    H134770   3.688   7.946   6.134
11631TIP3    H234771   3.706   8.093   6.162
11632TIP3   OH234772   8.945   1.789   6.474
11632TIP3    H134773   8.911   1.700   6.486
11632TIP3    H234774   8.897   1.841   6.539
11633TIP3   OH234775   3.801   4.445   6.342
11633TIP3    H134776   3.801   4.483   6.430
11633TIP3    H234777   3.708   4.436   6.320
11634TIP3   OH234778   5.290   5.372   0.025
11634TIP3    H134779   5.308   5.418  -0.056
11634TIP3    H234780   5.350   5.410   0.089
11635TIP3   OH234781   7.927   7.669   3.054
11635TIP3    H134782   7.841   7.694   3.020
11635TIP3    H234783   7.989   7.724   3.004
11636TIP3   OH234784   8.456   0.752   4.547
11636TIP3    H134785   8.516   0.681   4.524
11636TIP3    H234786   8.369   0.718   4.526
11637TIP3   OH234787   9.367   8.977   5.426
11637TIP3    H134788   9.438   8.990   5.363
11637TIP3    H234789   9.287   8.990   5.375
11638TIP3   OH234790   4.165   5.204   5.706
11638TIP3    H134791   4.072   5.207   5.683
11638TIP3    H234792   4.168   5.163   5.793
11639TIP3   OH234793   1.672   5.415   6.438
11639TIP3    H134794   1.679   5.493   6.383
11639TIP3    H234795   1.611   5.440   6.507
11640TIP3   OH234796   7.478   1.350   7.724
11640TIP3    H134797   7.438   1.266   7.747
11640TIP3    H234798   7.411   1.415   7.745
11641TIP3   OH234799   0.431   6.306   7.022
11641TIP3    H134800   0.504   6.286   6.964
11641TIP3    H234801   0.369   6.234   7.009
11642TIP3   OH234802   8.149   3.604   5.537
11642TIP3    H134803   8.106   3.680   5.499
11642TIP3    H234804   8.224   3.588   5.480
11643TIP3   OH234805   7.858   3.490   2.037
11643TIP3    H134806   7.877   3.557   1.971
11643TIP3    H234807   7.787   3.527   2.089
11644TIP3   OH234808   1.212   7.286   5.104
11644TIP3    H134809   1.257   7.299   5.187
11644TIP3    H234810   1.123   7.319   5.119
11645TIP3   OH234811   7.983   7.765   1.558
11645TIP3    H134812   8.048   7.695   1.569
11645TIP3    H234813   8.035   7.842   1.532
11646TIP3   OH234814   6.608   4.421   0.370
11646TIP3    H134815   6.525   4.445   0.411
11646TIP3    H234816   6.582   4.380   0.287
11647TIP3   OH234817   6.473   0.706   3.080
11647TIP3    H134818   6.551   0.759   3.060
11647TIP3    H234819   6.433   0.689   2.995
11648TIP3   OH234820   4.479   7.023   4.777
11648TIP3    H134821   4.400   6.973   4.757
11648TIP3    H234822   4.481   7.027   4.873
11649TIP3   OH234823   4.240   8.007   5.411
11649TIP3    H134824   4.261   8.013   5.504
11649TIP3    H234825   4.146   7.987   5.409
11650TIP3   OH234826   8.089   5.604   7.772
11650TIP3    H134827   8.137   5.687   7.775
11650TIP3    H234828   8.063   5.594   7.681
11651TIP3   OH234829   0.803   8.064   3.512
11651TIP3    H134830   0.784   8.035   3.602
11651TIP3    H234831   0.792   8.159   3.515
11652TIP3   OH234832   2.338   0.654   6.523
11652TIP3    H134833   2.414   0.699   6.487
11652TIP3    H234834   2.263   0.706   6.494
11653TIP3   OH234835   6.352   3.449   3.315
11653TIP3    H134836   6.358   3.398   3.234
11653TIP3    H234837   6.372   3.386   3.384
11654TIP3   OH234838   7.377   8.350   3.792
11654TIP3    H134839   7.389   8.258   3.819
11654TIP3    H234840   7.372   8.346   3.697
11655TIP3   OH234841   8.445   2.265   5.704
11655TIP3    H134842   8.370   2.313   5.669
11655TIP3    H234843   8.494   2.238   5.626
11656TIP3   OH234844   3.468   8.379   2.901
11656TIP3    H134845   3.523   8.364   2.824
11656TIP3    H234846   3.506   8.322   2.968
11657TIP3   OH234847   4.727   8.948   1.166
11657TIP3    H134848   4.646   8.984   1.204
11657TIP3    H234849   4.727   8.856   1.192
11658TIP3   OH234850   3.722   3.409   3.477
11658TIP3    H134851   3.669   3.368   3.409
11658TIP3    H234852   3.732   3.500   3.448
11659TIP3   OH234853   2.499   0.959   7.417
11659TIP3    H134854   2.573   0.899   7.428
11659TIP3    H234855   2.538   1.046   7.425
11660TIP3   OH234856   6.661   1.324   4.029
11660TIP3    H134857   6.571   1.353   4.042
11660TIP3    H234858   6.709   1.362   4.103
11661TIP3   OH234859   8.296   4.655   2.010
11661TIP3    H134860   8.285   4.686   1.921
11661TIP3    H234861   8.276   4.731   2.065
11662TIP3   OH234862   3.697   3.629   1.418
11662TIP3    H134863   3.753   3.658   1.490
11662TIP3    H234864   3.674   3.709   1.372
11663TIP3   OH234865   2.732   4.241   2.475
11663TIP3    H134866   2.782   4.189   2.413
11663TIP3    H234867   2.746   4.332   2.447
11664TIP3   OH234868   2.526   4.587   2.993
11664TIP3    H134869   2.584   4.536   2.937
11664TIP3    H234870   2.446   4.534   3.000
11665TIP3   OH234871   2.903   3.921   3.438
11665TIP3    H134872   2.918   3.855   3.371
11665TIP3    H234873   2.988   3.933   3.480
11666TIP3   OH234874   0.615   2.124   4.134
11666TIP3    H134875   0.570   2.133   4.050
11666TIP3    H234876   0.644   2.213   4.155
11667TIP3   OH234877   0.843   3.620   0.208
11667TIP3    H134878   0.790   3.697   0.186
11667TIP3    H234879   0.782   3.562   0.254
11668TIP3   OH234880   1.053   0.225   2.519
11668TIP3    H134881   1.041   0.141   2.562
11668TIP3    H234882   0.969   0.269   2.528
11669TIP3   OH234883   5.010   7.545   5.914
11669TIP3    H134884   5.047   7.607   5.977
11669TIP3    H234885   5.002   7.463   5.963
11670TIP3   OH234886   5.546   8.521   1.489
11670TIP3    H134887   5.593   8.558   1.414
11670TIP3    H234888   5.613   8.506   1.555
11671TIP3   OH234889   3.455   0.891   3.513
11671TIP3    H134890   3.471   0.873   3.420
11671TIP3    H234891   3.523   0.953   3.539
11672TIP3   OH234892   2.094   5.435   3.739
11672TIP3    H134893   2.163   5.489   3.780
11672TIP3    H234894   2.019   5.494   3.732
11673TIP3   OH234895   5.342   8.449   3.990
11673TIP3    H134896   5.259   8.401   3.989
11673TIP3    H234897   5.405   8.387   4.027
11674TIP3   OH234898   7.869   2.066   3.255
11674TIP3    H134899   7.819   2.028   3.183
11674TIP3    H234900   7.953   2.090   3.215
11675TIP3   OH234901   1.537   5.539   6.717
11675TIP3    H134902   1.594   5.464   6.737
11675TIP3    H234903   1.508   5.570   6.802
11676TIP3   OH234904   7.737   5.520   3.580
11676TIP3    H134905   7.806   5.496   3.518
11676TIP3    H234906   7.783   5.532   3.664
11677TIP3   OH234907   6.871   0.608   1.637
11677TIP3    H134908   6.854   0.519   1.607
11677TIP3    H234909   6.857   0.605   1.732
11678TIP3   OH234910   7.304   7.234   3.082
11678TIP3    H134911   7.361   7.188   3.022
11678TIP3    H234912   7.226   7.178   3.089
11679TIP3   OH234913   4.178   4.186   5.508
11679TIP3    H134914   4.114   4.126   5.471
11679TIP3    H234915   4.261   4.138   5.506
11680TIP3   OH234916   6.572   4.313   4.891
11680TIP3    H134917   6.509   4.306   4.962
11680TIP3    H234918   6.657   4.294   4.931
11681TIP3   OH234919   2.048   2.060   3.691
11681TIP3    H134920   2.083   1.994   3.751
11681TIP3    H234921   2.093   2.141   3.716
11682TIP3   OH234922   8.263   7.841   3.070
11682TIP3    H134923   8.325   7.863   3.001
11682TIP3    H234924   8.235   7.751   3.049
11683TIP3   OH234925   5.226   6.490   0.046
11683TIP3    H134926   5.176   6.445  -0.022
11683TIP3    H234927   5.184   6.576   0.054
11684TIP3   OH234928   9.205   2.938   0.957
11684TIP3    H134929   9.255   2.876   0.904
11684TIP3    H234930   9.222   2.911   1.047
11685TIP3   OH234931   1.579   0.071   2.670
11685TIP3    H134932   1.505   0.010   2.681
11685TIP3    H234933   1.543   0.141   2.615
11686TIP3   OH234934   1.975   5.857   5.265
11686TIP3    H134935   1.985   5.824   5.354
11686TIP3    H234936   1.908   5.801   5.225
11687TIP3   OH234937   3.977   1.332   4.781
11687TIP3    H134938   3.997   1.242   4.756
11687TIP3    H234939   4.002   1.338   4.873
11688TIP3   OH234940   8.531   2.360   1.810
11688TIP3    H134941   8.539   2.423   1.739
11688TIP3    H234942   8.439   2.335   1.810
11689TIP3   OH234943   6.384   1.764   6.735
11689TIP3    H134944   6.402   1.676   6.702
11689TIP3    H234945   6.291   1.777   6.721
11690TIP3   OH234946   9.109   5.577   1.323
11690TIP3    H134947   9.109   5.520   1.400
11690TIP3    H234948   9.046   5.646   1.344
11691TIP3   OH234949   5.691   0.189   1.210
11691TIP3    H134950   5.724   0.099   1.214
11691TIP3    H234951   5.723   0.230   1.290
11692TIP3   OH234952   7.330   1.136   7.049
11692TIP3    H134953   7.374   1.221   7.046
11692TIP3    H234954   7.392   1.075   7.010
11693TIP3   OH234955   1.089   3.743   2.937
11693TIP3    H134956   1.000   3.764   2.907
11693TIP3    H234957   1.145   3.765   2.863
11694TIP3   OH234958   8.564   5.563   5.127
11694TIP3    H134959   8.627   5.555   5.199
11694TIP3    H234960   8.523   5.648   5.140
11695TIP3   OH234961   4.709   2.565   4.668
11695TIP3    H134962   4.667   2.502   4.608
11695TIP3    H234963   4.649   2.569   4.743
11696TIP3   OH234964   0.638   5.217   2.195
11696TIP3    H134965   0.563   5.274   2.179
11696TIP3    H234966   0.714   5.274   2.183
11697TIP3   OH234967   3.180   0.847   6.121
11697TIP3    H134968   3.116   0.775   6.120
11697TIP3    H234969   3.196   0.863   6.214
11698TIP3   OH234970   3.396   8.767   3.875
11698TIP3    H134971   3.342   8.834   3.834
11698TIP3    H234972   3.338   8.723   3.937
11699TIP3   OH234973   2.410   3.655   5.020
11699TIP3    H134974   2.462   3.729   5.051
11699TIP3    H234975   2.469   3.580   5.029
11700TIP3   OH234976   8.829   4.585   4.700
11700TIP3    H134977   8.843   4.554   4.611
11700TIP3    H234978   8.872   4.670   4.703
11701TIP3   OH234979   8.655   0.187   4.628
11701TIP3    H134980   8.630   0.234   4.707
11701TIP3    H234981   8.674   0.256   4.564
11702TIP3   OH234982   3.880   0.544   0.071
11702TIP3    H134983   3.908   0.593  -0.006
11702TIP3    H234984   3.914   0.455   0.056
11703TIP3   OH234985   6.982   4.419   1.603
11703TIP3    H134986   6.986   4.381   1.690
11703TIP3    H234987   6.970   4.513   1.618
11704TIP3   OH234988   5.096   8.039   7.588
11704TIP3    H134989   5.047   7.960   7.563
11704TIP3    H234990   5.104   8.090   7.507
11705TIP3   OH234991   2.265   4.763   5.683
11705TIP3    H134992   2.271   4.854   5.655
11705TIP3    H234993   2.354   4.729   5.674
11706TIP3   OH234994   4.932   0.471   6.573
11706TIP3    H134995   4.952   0.563   6.557
11706TIP3    H234996   5.003   0.423   6.529
11707TIP3   OH234997   5.512   6.146   0.752
11707TIP3    H134998   5.541   6.173   0.665
11707TIP3    H234999   5.569   6.073   0.775
11708TIP3   OH235000   0.511   3.123   1.447
11708TIP3    H135001   0.573   3.180   1.493
11708TIP3    H235002   0.563   3.046   1.424
11709TIP3   OH235003   4.318   0.339   4.404
11709TIP3    H135004   4.321   0.400   4.477
11709TIP3    H235005   4.240   0.364   4.355
11710TIP3   OH235006   4.055   8.533   7.711
11710TIP3    H135007   3.967   8.497   7.718
11710TIP3    H235008   4.045   8.611   7.656
11711TIP3   OH235009   1.338   7.765   1.744
11711TIP3    H135010   1.363   7.813   1.823
11711TIP3    H235011   1.397   7.689   1.743
11712TIP3   OH235012   4.386   7.904   7.140
11712TIP3    H135013   4.476   7.922   7.168
11712TIP3    H235014   4.332   7.960   7.196
11713TIP3   OH235015   7.780   7.900   4.477
11713TIP3    H135016   7.747   7.814   4.505
11713TIP3    H235017   7.736   7.962   4.535
11714TIP3   OH235018   2.552   3.559   7.210
11714TIP3    H135019   2.503   3.635   7.178
11714TIP3    H235020   2.601   3.528   7.134
11715TIP3   OH235021   9.349   7.222   1.595
11715TIP3    H135022   9.332   7.215   1.689
11715TIP3    H235023   9.292   7.292   1.565
11716TIP3   OH235024   7.918   7.946   3.186
11716TIP3    H135025   7.966   7.868   3.159
11716TIP3    H235026   7.937   8.011   3.119
11717TIP3   OH235027   7.972   0.190   5.684
11717TIP3    H135028   7.927   0.133   5.746
11717TIP3    H235029   8.027   0.246   5.739
11718TIP3   OH235030   6.683   2.487   0.047
11718TIP3    H135031   6.650   2.412  -0.003
11718TIP3    H235032   6.626   2.493   0.123
11719TIP3   OH235033   8.249   0.462   6.096
11719TIP3    H135034   8.281   0.372   6.099
11719TIP3    H235035   8.240   0.486   6.189
11720TIP3   OH235036   3.802   7.868   3.391
11720TIP3    H135037   3.714   7.892   3.418
11720TIP3    H235038   3.859   7.900   3.461
11721TIP3   OH235039   0.174   3.110   1.258
11721TIP3    H135040   0.133   3.141   1.339
11721TIP3    H235041   0.109   3.052   1.219
11722TIP3   OH235042   4.377   7.531   2.394
11722TIP3    H135043   4.454   7.512   2.447
11722TIP3    H235044   4.349   7.446   2.360
11723TIP3   OH235045   7.545   6.265   3.474
11723TIP3    H135046   7.623   6.292   3.523
11723TIP3    H235047   7.579   6.228   3.393
11724TIP3   OH235048   7.557   5.862   5.684
11724TIP3    H135049   7.489   5.896   5.742
11724TIP3    H235050   7.550   5.767   5.692
11725TIP3   OH235051   8.175   4.269   2.994
11725TIP3    H135052   8.132   4.354   2.999
11725TIP3    H235053   8.141   4.230   2.913
11726TIP3   OH235054   7.513   6.310   5.586
11726TIP3    H135055   7.471   6.382   5.540
11726TIP3    H235056   7.553   6.350   5.663
11727TIP3   OH235057   1.078   4.419   0.796
11727TIP3    H135058   1.076   4.419   0.891
11727TIP3    H235059   1.170   4.400   0.774
11728TIP3   OH235060   4.919   8.336   1.266
11728TIP3    H135061   5.006   8.375   1.256
11728TIP3    H235062   4.902   8.293   1.183
11729TIP3   OH235063   4.710   7.973   0.953
11729TIP3    H135064   4.640   8.038   0.965
11729TIP3    H235065   4.715   7.961   0.859
11730TIP3   OH235066   8.033   2.117   0.031
11730TIP3    H135067   8.017   2.058  -0.043
11730TIP3    H235068   7.986   2.077   0.104
11731TIP3   OH235069   0.634   4.296   1.476
11731TIP3    H135070   0.668   4.386   1.484
11731TIP3    H235071   0.700   4.251   1.424
11732TIP3   OH235072   7.794   6.250   4.550
11732TIP3    H135073   7.773   6.183   4.485
11732TIP3    H235074   7.743   6.225   4.627
11733TIP3   OH235075   7.584   0.426   1.980
11733TIP3    H135076   7.672   0.455   1.957
11733TIP3    H235077   7.553   0.492   2.043
11734TIP3   OH235078   5.888   8.188   7.384
11734TIP3    H135079   5.845   8.104   7.397
11734TIP3    H235080   5.837   8.229   7.314
11735TIP3   OH235081   4.030   4.432   7.589
11735TIP3    H135082   4.078   4.512   7.610
11735TIP3    H235083   4.098   4.365   7.581
11736TIP3   OH235084   3.948   1.596   0.162
11736TIP3    H135085   3.985   1.570   0.078
11736TIP3    H235086   4.004   1.552   0.227
11737TIP3   OH235087   5.601   3.268   3.007
11737TIP3    H135088   5.512   3.301   3.013
11737TIP3    H235089   5.595   3.193   2.947
11738TIP3   OH235090   1.634   6.712   6.091
11738TIP3    H135091   1.661   6.624   6.065
11738TIP3    H235092   1.569   6.737   6.025
11739TIP3   OH235093   5.592   8.108   7.360
11739TIP3    H135094   5.536   8.066   7.424
11739TIP3    H235095   5.676   8.062   7.367
11740TIP3   OH235096   0.104   6.568   7.679
11740TIP3    H135097   0.117   6.630   7.751
11740TIP3    H235098   0.082   6.486   7.722
11741TIP3   OH235099   8.620   4.066   0.798
11741TIP3    H135100   8.545   4.098   0.847
11741TIP3    H235101   8.674   4.021   0.863
11742TIP3   OH235102   0.084   3.801   7.229
11742TIP3    H135103   0.049   3.760   7.150
11742TIP3    H235104   0.088   3.894   7.208
11743TIP3   OH235105   1.019   4.329   1.483
11743TIP3    H135106   0.938   4.282   1.466
11743TIP3    H235107   1.039   4.310   1.575
11744TIP3   OH235108   9.201   7.576   1.268
11744TIP3    H135109   9.267   7.645   1.269
11744TIP3    H235110   9.242   7.503   1.314
11745TIP3   OH235111   9.193   7.728   5.103
11745TIP3    H135112   9.134   7.773   5.041
11745TIP3    H235113   9.214   7.645   5.060
11746TIP3   OH235114   1.340   2.069   6.971
11746TIP3    H135115   1.375   1.993   6.926
11746TIP3    H235116   1.373   2.062   7.061
11747TIP3   OH235117   2.509   3.885   5.887
11747TIP3    H135118   2.536   3.977   5.884
11747TIP3    H235119   2.464   3.875   5.971
11748TIP3   OH235120   6.421   1.265   5.477
11748TIP3    H135121   6.418   1.238   5.569
11748TIP3    H235122   6.398   1.357   5.477
11749TIP3   OH235123   4.011   6.459   5.618
11749TIP3    H135124   4.019   6.517   5.542
11749TIP3    H235125   3.957   6.508   5.680
11750TIP3   OH235126   2.892   6.902   6.947
11750TIP3    H135127   2.931   6.884   6.862
11750TIP3    H235128   2.798   6.907   6.929
11751TIP3   OH235129   7.964   3.902   7.434
11751TIP3    H135130   7.900   3.932   7.369
11751TIP3    H235131   8.038   3.871   7.381
11752TIP3   OH235132   4.031   5.397   5.368
11752TIP3    H135133   4.024   5.427   5.459
11752TIP3    H235134   3.948   5.352   5.351
11753TIP3   OH235135   7.072   5.299   1.383
11753TIP3    H135136   7.027   5.323   1.301
11753TIP3    H235137   7.078   5.204   1.380
11754TIP3   OH235138   2.332   8.995   2.397
11754TIP3    H135139   2.305   8.996   2.489
11754TIP3    H235140   2.418   8.952   2.397
11755TIP3   OH235141   7.887   8.628   3.996
11755TIP3    H135142   7.914   8.669   3.914
11755TIP3    H235143   7.933   8.544   3.996
11756TIP3   OH235144   9.422   3.767   0.753
11756TIP3    H135145   9.446   3.696   0.693
11756TIP3    H235146   9.451   3.736   0.839
11757TIP3   OH235147   1.262   4.083   0.293
11757TIP3    H135148   1.182   4.042   0.325
11757TIP3    H235149   1.329   4.015   0.299
11758TIP3   OH235150   4.607   5.635   3.798
11758TIP3    H135151   4.673   5.567   3.783
11758TIP3    H235152   4.564   5.645   3.713
11759TIP3   OH235153   7.084   5.115   7.302
11759TIP3    H135154   7.066   5.200   7.342
11759TIP3    H235155   7.000   5.069   7.303
11760TIP3   OH235156   5.587   1.748   5.448
11760TIP3    H135157   5.647   1.677   5.426
11760TIP3    H235158   5.596   1.810   5.375
11761TIP3   OH235159   4.981   4.669   7.405
11761TIP3    H135160   4.943   4.625   7.330
11761TIP3    H235161   4.971   4.762   7.386
11762TIP3   OH235162   8.712   6.006   2.279
11762TIP3    H135163   8.712   6.102   2.286
11762TIP3    H235164   8.801   5.980   2.302
11763TIP3   OH235165   9.178   4.325   6.010
11763TIP3    H135166   9.186   4.370   6.094
11763TIP3    H235167   9.170   4.395   5.945
11764TIP3   OH235168   7.988   8.826   4.191
11764TIP3    H135169   7.936   8.899   4.157
11764TIP3    H235170   7.941   8.748   4.163
11765TIP3   OH235171   8.148   2.866   7.453
11765TIP3    H135172   8.223   2.871   7.393
11765TIP3    H235173   8.186   2.879   7.540
11766TIP3   OH235174   2.264   6.653   5.023
11766TIP3    H135175   2.305   6.620   5.103
11766TIP3    H235176   2.209   6.581   4.992
11767TIP3   OH235177   8.915   3.475   2.392
11767TIP3    H135178   8.892   3.540   2.459
11767TIP3    H235179   8.896   3.519   2.309
11768TIP3   OH235180   8.727   8.292   4.556
11768TIP3    H135181   8.718   8.341   4.474
11768TIP3    H235182   8.648   8.315   4.607
11769TIP3   OH235183   5.012   4.019   6.207
11769TIP3    H135184   5.010   4.035   6.301
11769TIP3    H235185   5.043   4.101   6.169
11770TIP3   OH235186   2.125   3.199   0.872
11770TIP3    H135187   2.101   3.167   0.958
11770TIP3    H235188   2.216   3.228   0.881
11771TIP3   OH235189   8.329   1.955   1.985
11771TIP3    H135190   8.340   2.000   1.902
11771TIP3    H235191   8.380   1.875   1.976
11772TIP3   OH235192   6.886   6.965   2.921
11772TIP3    H135193   6.954   6.897   2.923
11772TIP3    H235194   6.917   7.028   2.856
11773TIP3   OH235195   0.079   1.474   4.001
11773TIP3    H135196   0.088   1.411   4.073
11773TIP3    H235197   0.163   1.519   3.999
11774TIP3   OH235198   7.842   6.108   6.855
11774TIP3    H135199   7.919   6.072   6.811
11774TIP3    H235200   7.783   6.134   6.785
11775TIP3   OH235201   8.096   3.839   0.776
11775TIP3    H135202   8.051   3.828   0.860
11775TIP3    H235203   8.040   3.898   0.726
11776TIP3   OH235204   3.571   3.441   4.089
11776TIP3    H135205   3.638   3.442   4.020
11776TIP3    H235206   3.524   3.358   4.075
11777TIP3   OH235207   5.356   3.166   2.024
11777TIP3    H135208   5.261   3.170   2.033
11777TIP3    H235209   5.374   3.078   1.991
11778TIP3   OH235210   6.975   6.949   4.237
11778TIP3    H135211   6.922   6.980   4.310
11778TIP3    H235212   6.969   7.019   4.171
11779TIP3   OH235213   1.733   2.847   4.898
11779TIP3    H135214   1.744   2.942   4.902
11779TIP3    H235215   1.797   2.818   4.834
11780TIP3   OH235216   2.921   5.044   1.243
11780TIP3    H135217   2.974   4.968   1.217
11780TIP3    H235218   2.847   5.044   1.182
11781TIP3   OH235219   7.645   0.726   1.057
11781TIP3    H135220   7.622   0.633   1.056
11781TIP3    H235221   7.584   0.767   0.997
11782TIP3   OH235222   3.782   4.578   5.100
11782TIP3    H135223   3.826   4.504   5.059
11782TIP3    H235224   3.803   4.653   5.044
11783TIP3   OH235225   7.717   8.846   6.920
11783TIP3    H135226   7.772   8.770   6.902
11783TIP3    H235227   7.750   8.914   6.862
11784TIP3   OH235228   9.417   5.186   3.067
11784TIP3    H135229   9.400   5.186   2.973
11784TIP3    H235230   9.509   5.209   3.075
11785TIP3   OH235231   6.125   2.145   7.766
11785TIP3    H135232   6.132   2.052   7.784
11785TIP3    H235233   6.197   2.185   7.815
11786TIP3   OH235234   3.312   8.643   6.598
11786TIP3    H135235   3.311   8.735   6.573
11786TIP3    H235236   3.227   8.627   6.638
11787TIP3   OH235237   0.949   4.918   0.851
11787TIP3    H135238   0.983   4.896   0.938
11787TIP3    H235239   0.853   4.914   0.862
11788TIP3   OH235240   4.955   6.400   2.818
11788TIP3    H135241   5.010   6.423   2.892
11788TIP3    H235242   5.008   6.340   2.766
11789TIP3   OH235243   5.760   0.971   6.883
11789TIP3    H135244   5.826   1.009   6.940
11789TIP3    H235245   5.714   0.908   6.938
11790TIP3   OH235246   5.355   3.866   0.481
11790TIP3    H135247   5.361   3.883   0.575
11790TIP3    H235248   5.428   3.914   0.443
11791TIP3   OH235249   8.602   8.834   0.742
11791TIP3    H135250   8.669   8.768   0.728
11791TIP3    H235251   8.519   8.789   0.723
11792TIP3   OH235252   2.964   6.212   4.063
11792TIP3    H135253   2.979   6.143   4.127
11792TIP3    H235254   3.042   6.267   4.069
11793TIP3   OH235255   7.671   1.636   3.446
11793TIP3    H135256   7.638   1.640   3.357
11793TIP3    H235257   7.636   1.554   3.481
11794TIP3   OH235258   1.951   2.748   7.318
11794TIP3    H135259   1.981   2.665   7.280
11794TIP3    H235260   1.856   2.743   7.314
11795TIP3   OH235261   0.697   4.569   4.352
11795TIP3    H135262   0.787   4.599   4.338
11795TIP3    H235263   0.644   4.646   4.333
11796TIP3   OH235264   8.506   4.134   5.407
11796TIP3    H135265   8.485   4.131   5.500
11796TIP3    H235266   8.599   4.158   5.404
11797TIP3   OH235267   3.587   7.328   1.985
11797TIP3    H135268   3.615   7.418   2.000
11797TIP3    H235269   3.623   7.279   2.058
11798TIP3   OH235270   5.102   4.637   5.424
11798TIP3    H135271   5.007   4.626   5.420
11798TIP3    H235272   5.116   4.692   5.501
11799TIP3   OH235273   5.864   6.882   3.207
11799TIP3    H135274   5.807   6.859   3.133
11799TIP3    H235275   5.952   6.887   3.169
11800TIP3   OH235276   0.708   6.957   2.961
11800TIP3    H135277   0.614   6.975   2.968
11800TIP3    H235278   0.749   7.041   2.980
11801TIP3   OH235279   3.018   8.719   7.748
11801TIP3    H135280   2.961   8.656   7.792
11801TIP3    H235281   3.045   8.780   7.817
11802TIP3   OH235282   6.611   2.357   1.891
11802TIP3    H135283   6.524   2.356   1.852
11802TIP3    H235284   6.601   2.312   1.974
11803TIP3   OH235285   5.134   1.765   2.563
11803TIP3    H135286   5.193   1.690   2.559
11803TIP3    H235287   5.191   1.840   2.582
11804TIP3   OH235288   3.121   1.138   6.504
11804TIP3    H135289   3.126   1.234   6.511
11804TIP3    H235290   3.198   1.113   6.452
11805TIP3   OH235291   2.692   8.451   5.920
11805TIP3    H135292   2.767   8.437   5.978
11805TIP3    H235293   2.725   8.429   5.832
11806TIP3   OH235294   4.659   5.055   1.491
11806TIP3    H135295   4.581   5.000   1.499
11806TIP3    H235296   4.709   5.036   1.570
11807TIP3   OH235297   0.691   8.515   0.923
11807TIP3    H135298   0.693   8.420   0.918
11807TIP3    H235299   0.602   8.536   0.952
11808TIP3   OH235300   9.277   7.453   2.882
11808TIP3    H135301   9.332   7.375   2.890
11808TIP3    H235302   9.320   7.506   2.815
11809TIP3   OH235303   1.704   1.611   5.144
11809TIP3    H135304   1.763   1.560   5.200
11809TIP3    H235305   1.722   1.702   5.166
11810TIP3   OH235306   5.895   6.420   0.646
11810TIP3    H135307   5.832   6.389   0.711
11810TIP3    H235308   5.897   6.352   0.579
11811TIP3   OH235309   4.489   3.533   1.675
11811TIP3    H135310   4.540   3.603   1.635
11811TIP3    H235311   4.459   3.569   1.759
11812TIP3   OH235312   6.195   3.365   5.035
11812TIP3    H135313   6.118   3.418   5.014
11812TIP3    H235314   6.240   3.413   5.104
11813TIP3   OH235315   4.335   2.875   1.336
11813TIP3    H135316   4.314   2.863   1.244
11813TIP3    H235317   4.300   2.797   1.379
11814TIP3   OH235318   1.456   7.479   0.021
11814TIP3    H135319   1.437   7.573   0.030
11814TIP3    H235320   1.482   7.469  -0.071
11815TIP3   OH235321   8.776   0.439   5.640
11815TIP3    H135322   8.840   0.508   5.656
11815TIP3    H235323   8.829   0.360   5.627
11816TIP3   OH235324   8.019   6.021   0.774
11816TIP3    H135325   7.985   6.106   0.745
11816TIP3    H235326   8.108   6.040   0.805
11817TIP3   OH235327   0.032   1.226   6.059
11817TIP3    H135328   0.084   1.205   5.981
11817TIP3    H235329   0.096   1.231   6.129
11818TIP3   OH235330   2.525   0.922   5.701
11818TIP3    H135331   2.493   0.925   5.791
11818TIP3    H235332   2.612   0.884   5.707
11819TIP3   OH235333   6.990   5.226   2.370
11819TIP3    H135334   7.015   5.164   2.301
11819TIP3    H235335   6.910   5.266   2.337
11820TIP3   OH235336   0.157   6.252   2.427
11820TIP3    H135337   0.251   6.242   2.413
11820TIP3    H235338   0.122   6.163   2.421
11821TIP3   OH235339   8.580   7.706   3.333
11821TIP3    H135340   8.530   7.654   3.269
11821TIP3    H235341   8.513   7.740   3.393
11822TIP3   OH235342   3.143   5.513   3.444
11822TIP3    H135343   3.186   5.598   3.436
11822TIP3    H235344   3.104   5.514   3.531
11823TIP3   OH235345   0.457   7.648   3.177
11823TIP3    H135346   0.369   7.615   3.160
11823TIP3    H235347   0.515   7.580   3.141
11824TIP3   OH235348   8.582   0.792   6.750
11824TIP3    H135349   8.524   0.856   6.792
11824TIP3    H235350   8.660   0.842   6.726
11825TIP3   OH235351   8.346   8.030   1.259
11825TIP3    H135352   8.369   8.105   1.315
11825TIP3    H235353   8.387   7.955   1.302
11826TIP3   OH235354   4.735   3.185   0.742
11826TIP3    H135355   4.798   3.218   0.678
11826TIP3    H235356   4.671   3.255   0.751
11827TIP3   OH235357   4.733   1.798   2.854
11827TIP3    H135358   4.653   1.841   2.824
11827TIP3    H235359   4.767   1.752   2.777
11828TIP3   OH235360   0.081   2.885   7.779
11828TIP3    H135361   0.065   2.829   7.703
11828TIP3    H235362   0.115   2.825   7.846
11829TIP3   OH235363   0.638   7.096   4.371
11829TIP3    H135364   0.725   7.080   4.407
11829TIP3    H235365   0.628   7.191   4.376
11830TIP3   OH235366   1.830   6.641   2.938
11830TIP3    H135367   1.747   6.654   2.984
11830TIP3    H235368   1.818   6.561   2.887
11831TIP3   OH235369   4.466   5.355   3.111
11831TIP3    H135370   4.550   5.395   3.135
11831TIP3    H235371   4.483   5.261   3.114
11832TIP3   OH235372   7.002   1.059   3.344
11832TIP3    H135373   6.921   1.101   3.372
11832TIP3    H235374   7.070   1.103   3.394
11833TIP3   OH235375   7.701   0.076   5.500
11833TIP3    H135376   7.625   0.062   5.557
11833TIP3    H235377   7.758   0.001   5.518
11834TIP3   OH235378   4.304   1.384   3.481
11834TIP3    H135379   4.342   1.471   3.493
11834TIP3    H235380   4.378   1.324   3.489
11835TIP3   OH235381   9.037   4.239   6.828
11835TIP3    H135382   9.068   4.223   6.739
11835TIP3    H235383   9.111   4.216   6.884
11836TIP3   OH235384   6.188   2.141   7.487
11836TIP3    H135385   6.181   2.151   7.582
11836TIP3    H235386   6.193   2.231   7.454
11837TIP3   OH235387   1.027   5.197   6.000
11837TIP3    H135388   1.050   5.282   5.961
11837TIP3    H235389   1.083   5.135   5.954
11838TIP3   OH235390   8.079   4.492   7.787
11838TIP3    H135391   8.059   4.429   7.856
11838TIP3    H235392   7.995   4.534   7.767
11839TIP3   OH235393   6.119   7.635   1.106
11839TIP3    H135394   6.150   7.656   1.018
11839TIP3    H235395   6.147   7.544   1.121
11840TIP3   OH235396   6.917   5.179   0.336
11840TIP3    H135397   6.889   5.164   0.246
11840TIP3    H235398   6.971   5.258   0.332
11841TIP3   OH235399   4.108   5.992   1.697
11841TIP3    H135400   4.037   6.051   1.673
11841TIP3    H235401   4.085   5.962   1.785
11842TIP3   OH235402   4.294   4.072   0.356
11842TIP3    H135403   4.209   4.108   0.384
11842TIP3    H235404   4.293   4.080   0.261
11843TIP3   OH235405   2.093   8.562   3.843
11843TIP3    H135406   2.157   8.627   3.872
11843TIP3    H235407   2.078   8.582   3.750
11844TIP3   OH235408   0.465   6.436   3.189
11844TIP3    H135409   0.513   6.519   3.184
11844TIP3    H235410   0.380   6.459   3.225
11845TIP3   OH235411   5.394   2.774   4.874
11845TIP3    H135412   5.372   2.865   4.853
11845TIP3    H235413   5.350   2.757   4.957
11846TIP3   OH235414   9.312   2.627   7.136
11846TIP3    H135415   9.377   2.581   7.083
11846TIP3    H235416   9.270   2.688   7.075
11847TIP3   OH235417   4.109   3.823   6.380
11847TIP3    H135418   4.174   3.753   6.394
11847TIP3    H235419   4.124   3.850   6.289
11848TIP3   OH235420   6.163   5.775   5.351
11848TIP3    H135421   6.163   5.685   5.318
11848TIP3    H235422   6.213   5.771   5.432
11849TIP3   OH235423   8.268   0.802   6.796
11849TIP3    H135424   8.195   0.741   6.783
11849TIP3    H235425   8.328   0.757   6.855
11850TIP3   OH235426   6.666   5.865   6.387
11850TIP3    H135427   6.738   5.826   6.339
11850TIP3    H235428   6.694   5.955   6.405
11851TIP3   OH235429   2.457   3.046   6.400
11851TIP3    H135430   2.478   2.953   6.405
11851TIP3    H235431   2.542   3.090   6.397
11852TIP3   OH235432   3.875   0.110   3.743
11852TIP3    H135433   3.789   0.144   3.766
11852TIP3    H235434   3.927   0.120   3.823
11853TIP3   OH235435   9.234   2.863   0.680
11853TIP3    H135436   9.268   2.787   0.632
11853TIP3    H235437   9.145   2.839   0.704
11854TIP3   OH235438   1.172   0.363   1.076
11854TIP3    H135439   1.085   0.402   1.079
11854TIP3    H235440   1.165   0.294   1.010
11855TIP3   OH235441   7.699   7.576   3.252
11855TIP3    H135442   7.717   7.657   3.206
11855TIP3    H235443   7.614   7.547   3.217
11856TIP3   OH235444   9.315   1.182   6.239
11856TIP3    H135445   9.220   1.178   6.253
11856TIP3    H235446   9.334   1.276   6.231
11857TIP3   OH235447   0.186   8.147   6.639
11857TIP3    H135448   0.135   8.097   6.575
11857TIP3    H235449   0.277   8.137   6.612
11858TIP3   OH235450   3.518   7.603   7.508
11858TIP3    H135451   3.549   7.671   7.448
11858TIP3    H235452   3.448   7.559   7.461
11859TIP3   OH235453   0.339   7.814   4.877
11859TIP3    H135454   0.348   7.909   4.883
11859TIP3    H235455   0.272   7.792   4.942
11860TIP3   OH235456   3.991   2.093   4.157
11860TIP3    H135457   4.048   2.087   4.081
11860TIP3    H235458   3.980   2.002   4.185
11861TIP3   OH235459   4.000   4.209   1.556
11861TIP3    H135460   4.031   4.180   1.470
11861TIP3    H235461   3.932   4.147   1.580
11862TIP3   OH235462   6.636   1.840   7.715
11862TIP3    H135463   6.616   1.892   7.637
11862TIP3    H235464   6.552   1.802   7.740
11863TIP3   OH235465   7.855   4.243   6.606
11863TIP3    H135466   7.764   4.261   6.627
11863TIP3    H235467   7.861   4.148   6.604
11864TIP3   OH235468   2.151   3.167   7.622
11864TIP3    H135469   2.060   3.144   7.605
11864TIP3    H235470   2.148   3.218   7.703
11865TIP3   OH235471   7.091   3.109   7.298
11865TIP3    H135472   7.134   3.157   7.370
11865TIP3    H235473   7.148   3.124   7.222
11866TIP3   OH235474   4.503   1.557   6.194
11866TIP3    H135475   4.554   1.594   6.266
11866TIP3    H235476   4.432   1.619   6.180
11867TIP3   OH235477   0.427   2.512   0.937
11867TIP3    H135478   0.343   2.470   0.956
11867TIP3    H235479   0.409   2.606   0.945
11868TIP3   OH235480   8.835   1.636   1.302
11868TIP3    H135481   8.814   1.722   1.340
11868TIP3    H235482   8.867   1.585   1.376
11869TIP3   OH235483   4.112   6.275   1.405
11869TIP3    H135484   4.165   6.195   1.408
11869TIP3    H235485   4.046   6.263   1.473
11870TIP3   OH235486   3.669   1.391   6.125
11870TIP3    H135487   3.757   1.409   6.093
11870TIP3    H235488   3.680   1.319   6.188
11871TIP3   OH235489   1.954   0.447   6.036
11871TIP3    H135490   2.002   0.373   6.072
11871TIP3    H235491   1.883   0.407   5.984
11872TIP3   OH235492   1.615   0.745   6.112
11872TIP3    H135493   1.601   0.822   6.057
11872TIP3    H235494   1.668   0.776   6.185
11873TIP3   OH235495   1.513   0.114   6.618
11873TIP3    H135496   1.504   0.191   6.562
11873TIP3    H235497   1.527   0.150   6.705
11874TIP3   OH235498   4.695   1.888  -0.001
11874TIP3    H135499   4.648   1.914   0.078
11874TIP3    H235500   4.629   1.847  -0.056
11875TIP3   OH235501   1.392   3.493   3.746
11875TIP3    H135502   1.344   3.521   3.824
11875TIP3    H235503   1.344   3.533   3.673
11876TIP3   OH235504   7.258   4.349   5.047
11876TIP3    H135505   7.250   4.341   4.952
11876TIP3    H235506   7.169   4.338   5.080
11877TIP3   OH235507   0.862   7.674   4.822
11877TIP3    H135508   0.783   7.713   4.859
11877TIP3    H235509   0.927   7.680   4.892
11878TIP3   OH235510   3.934   5.848   4.026
11878TIP3    H135511   3.967   5.832   4.114
11878TIP3    H235512   3.979   5.927   3.997
11879TIP3   OH235513   2.595   3.174   7.458
11879TIP3    H135514   2.547   3.244   7.415
11879TIP3    H235515   2.681   3.174   7.416
11880TIP3   OH235516   1.215   7.812   7.252
11880TIP3    H135517   1.181   7.723   7.264
11880TIP3    H235518   1.239   7.839   7.341
11881TIP3   OH235519   2.770   3.158   1.923
11881TIP3    H135520   2.863   3.184   1.922
11881TIP3    H235521   2.732   3.208   1.995
11882TIP3   OH235522   8.189   6.891   4.995
11882TIP3    H135523   8.260   6.925   5.050
11882TIP3    H235524   8.136   6.968   4.975
11883TIP3   OH235525   1.144   2.255   3.600
11883TIP3    H135526   1.158   2.230   3.509
11883TIP3    H235527   1.211   2.208   3.649
11884TIP3   OH235528   0.418   6.347   1.285
11884TIP3    H135529   0.438   6.295   1.207
11884TIP3    H235530   0.357   6.414   1.254
11885TIP3   OH235531   2.857   5.941   4.886
11885TIP3    H135532   2.817   5.928   4.800
11885TIP3    H235533   2.792   5.909   4.948
11886TIP3   OH235534   2.345   8.241   2.743
11886TIP3    H135535   2.369   8.272   2.656
11886TIP3    H235536   2.377   8.308   2.803
11887TIP3   OH235537   4.844   1.300   1.995
11887TIP3    H135538   4.931   1.315   1.957
11887TIP3    H235539   4.857   1.311   2.089
11888TIP3   OH235540   3.904   3.349   4.042
11888TIP3    H135541   3.994   3.355   4.011
11888TIP3    H235542   3.852   3.337   3.963
11889TIP3   OH235543   1.560   3.280   1.014
11889TIP3    H135544   1.567   3.300   1.108
11889TIP3    H235545   1.530   3.362   0.975
11890TIP3   OH235546   9.308   1.871   0.609
11890TIP3    H135547   9.214   1.890   0.613
11890TIP3    H235548   9.317   1.786   0.652
11891TIP3   OH235549   3.533   6.880   6.279
11891TIP3    H135550   3.595   6.846   6.343
11891TIP3    H235551   3.509   6.804   6.227
11892TIP3   OH235552   1.875   6.045   4.880
11892TIP3    H135553   1.810   6.110   4.854
11892TIP3    H235554   1.941   6.096   4.927
11893TIP3   OH235555   1.098   0.620   5.886
11893TIP3    H135556   1.105   0.695   5.828
11893TIP3    H235557   1.120   0.654   5.973
11894TIP3   OH235558   6.354   6.651   6.922
11894TIP3    H135559   6.307   6.714   6.977
11894TIP3    H235560   6.420   6.705   6.877
11895TIP3   OH235561   4.814   5.905   3.441
11895TIP3    H135562   4.733   5.870   3.402
11895TIP3    H235563   4.871   5.922   3.366
11896TIP3   OH235564   7.462   4.372   5.970
11896TIP3    H135565   7.433   4.313   5.900
11896TIP3    H235566   7.554   4.387   5.950
11897TIP3   OH235567   7.142   8.699   1.136
11897TIP3    H135568   7.060   8.746   1.151
11897TIP3    H235569   7.210   8.760   1.167
11898TIP3   OH235570   5.863   2.849   2.363
11898TIP3    H135571   5.835   2.918   2.302
11898TIP3    H235572   5.901   2.782   2.307
11899TIP3   OH235573   0.562   1.105   1.096
11899TIP3    H135574   0.596   1.188   1.129
11899TIP3    H235575   0.469   1.122   1.080
11900TIP3   OH235576   8.811   5.672   1.146
11900TIP3    H135577   8.832   5.672   1.239
11900TIP3    H235578   8.723   5.635   1.141
11901TIP3   OH235579   3.207   1.761   4.818
11901TIP3    H135580   3.199   1.784   4.725
11901TIP3    H235581   3.125   1.791   4.857
11902TIP3   OH235582   5.045   1.819   2.319
11902TIP3    H135583   5.080   1.908   2.311
11902TIP3    H235584   5.038   1.803   2.413
11903TIP3   OH235585   1.159   5.029   5.348
11903TIP3    H135586   1.153   4.940   5.382
11903TIP3    H235587   1.159   5.085   5.426
11904TIP3   OH235588   0.079   1.703   6.801
11904TIP3    H135589   0.024   1.733   6.873
11904TIP3    H235590   0.120   1.783   6.767
11905TIP3   OH235591   3.445   4.649   1.379
11905TIP3    H135592   3.379   4.716   1.362
11905TIP3    H235593   3.451   4.599   1.297
11906TIP3   OH235594   6.003   3.826   0.063
11906TIP3    H135595   5.985   3.833  -0.030
11906TIP3    H235596   5.936   3.767   0.096
11907TIP3   OH235597   4.968   0.736   2.137
11907TIP3    H135598   4.887   0.770   2.100
11907TIP3    H235599   4.942   0.656   2.182
11908TIP3   OH235600   7.254   3.768   3.167
11908TIP3    H135601   7.219   3.689   3.127
11908TIP3    H235602   7.178   3.814   3.202
11909TIP3   OH235603   3.890   8.722   6.903
11909TIP3    H135604   3.929   8.653   6.956
11909TIP3    H235605   3.964   8.772   6.869
11910TIP3   OH235606   6.883   5.895   2.595
11910TIP3    H135607   6.932   5.814   2.582
11910TIP3    H235608   6.877   5.904   2.690
11911TIP3   OH235609   6.886   4.631   2.336
11911TIP3    H135610   6.911   4.723   2.330
11911TIP3    H235611   6.839   4.624   2.419
11912TIP3   OH235612   6.608   0.242   6.681
11912TIP3    H135613   6.620   0.223   6.775
11912TIP3    H235614   6.684   0.202   6.639
11913TIP3   OH235615   0.524   4.927   5.285
11913TIP3    H135616   0.531   4.832   5.290
11913TIP3    H235617   0.537   4.948   5.192
11914TIP3   OH235618   0.985   1.136   4.644
11914TIP3    H135619   1.043   1.188   4.701
11914TIP3    H235620   1.039   1.064   4.614
11915TIP3   OH235621   5.536   3.506   2.427
11915TIP3    H135622   5.484   3.521   2.348
11915TIP3    H235623   5.620   3.473   2.395
11916TIP3   OH235624   0.517   5.288   4.280
11916TIP3    H135625   0.468   5.217   4.321
11916TIP3    H235626   0.544   5.252   4.195
11917TIP3   OH235627   6.507   7.598   5.533
11917TIP3    H135628   6.518   7.584   5.627
11917TIP3    H235629   6.596   7.595   5.497
11918TIP3   OH235630   8.426   7.819   7.701
11918TIP3    H135631   8.496   7.874   7.735
11918TIP3    H235632   8.435   7.736   7.749
11919TIP3   OH235633   3.039   1.914   4.052
11919TIP3    H135634   3.124   1.897   4.092
11919TIP3    H235635   3.050   1.888   3.960
11920TIP3   OH235636   0.576   2.233   0.977
11920TIP3    H135637   0.556   2.206   0.887
11920TIP3    H235638   0.602   2.325   0.968
11921TIP3   OH235639   4.896   2.554   1.859
11921TIP3    H135640   4.810   2.572   1.822
11921TIP3    H235641   4.905   2.617   1.931
11922TIP3   OH235642   4.375   8.024  -0.002
11922TIP3    H135643   4.371   8.012   0.093
11922TIP3    H235644   4.303   7.970  -0.035
11923TIP3   OH235645   2.639   3.333   2.179
11923TIP3    H135646   2.600   3.396   2.118
11923TIP3    H235647   2.565   3.285   2.216
11924TIP3   OH235648   1.647   5.811   0.770
11924TIP3    H135649   1.656   5.828   0.676
11924TIP3    H235650   1.598   5.886   0.804
11925TIP3   OH235651   3.841   3.938   7.676
11925TIP3    H135652   3.818   3.970   7.589
11925TIP3    H235653   3.821   4.011   7.734
11926TIP3   OH235654   3.108   0.059   2.232
11926TIP3    H135655   3.171   0.129   2.216
11926TIP3    H235656   3.162  -0.019   2.247
11927TIP3   OH235657   1.863   4.471   7.782
11927TIP3    H135658   1.910   4.546   7.819
11927TIP3    H235659   1.794   4.510   7.728
11928TIP3   OH235660   8.287   8.070   5.842
11928TIP3    H135661   8.273   8.161   5.868
11928TIP3    H235662   8.255   8.019   5.917
11929TIP3   OH235663   4.526   1.154   0.997
11929TIP3    H135664   4.540   1.243   1.029
11929TIP3    H235665   4.566   1.154   0.910
11930TIP3   OH235666   6.394   3.805   6.541
11930TIP3    H135667   6.476   3.791   6.493
11930TIP3    H235668   6.362   3.890   6.510
11931TIP3   OH235669   6.918   6.263   2.596
11931TIP3    H135670   6.964   6.211   2.662
11931TIP3    H235671   6.986   6.320   2.558
11932TIP3   OH235672   0.898   2.047   3.935
11932TIP3    H135673   0.876   2.026   4.026
11932TIP3    H235674   0.981   2.000   3.920
11933TIP3   OH235675   7.769   7.396   6.786
11933TIP3    H135676   7.686   7.411   6.740
11933TIP3    H235677   7.767   7.303   6.810
11934TIP3   OH235678   6.787   7.098   5.287
11934TIP3    H135679   6.747   7.112   5.202
11934TIP3    H235680   6.719   7.057   5.340
11935TIP3   OH235681   5.204   9.001   6.184
11935TIP3    H135682   5.297   8.979   6.193
11935TIP3    H235683   5.159   8.918   6.197
11936TIP3   OH235684   6.424   5.132   3.425
11936TIP3    H135685   6.390   5.147   3.337
11936TIP3    H235686   6.346   5.127   3.480
11937TIP3   OH235687   2.552   1.908   6.520
11937TIP3    H135688   2.532   1.818   6.545
11937TIP3    H235689   2.485   1.930   6.456
11938TIP3   OH235690   0.871   8.545   4.606
11938TIP3    H135691   0.809   8.595   4.554
11938TIP3    H235692   0.824   8.465   4.629
11939TIP3   OH235693   0.844   1.051   5.544
11939TIP3    H135694   0.857   1.018   5.633
11939TIP3    H235695   0.865   1.144   5.550
11940TIP3   OH235696   7.881   3.964   2.108
11940TIP3    H135697   7.892   4.007   2.193
11940TIP3    H235698   7.966   3.924   2.090
11941TIP3   OH235699   6.839   5.321   6.935
11941TIP3    H135700   6.794   5.399   6.902
11941TIP3    H235701   6.821   5.320   7.029
11942TIP3   OH235702   5.303   6.790   3.039
11942TIP3    H135703   5.318   6.882   3.021
11942TIP3    H235704   5.280   6.752   2.953
11943TIP3   OH235705   8.363   6.160   0.161
11943TIP3    H135706   8.377   6.174   0.254
11943TIP3    H235707   8.443   6.192   0.119
11944TIP3   OH235708   4.845   3.483   2.679
11944TIP3    H135709   4.765   3.440   2.648
11944TIP3    H235710   4.814   3.546   2.744
11945TIP3   OH235711   9.299   5.722   3.831
11945TIP3    H135712   9.259   5.700   3.915
11945TIP3    H235713   9.392   5.707   3.844
11946TIP3   OH235714   8.767   8.186   1.107
11946TIP3    H135715   8.834   8.199   1.040
11946TIP3    H235716   8.690   8.234   1.075
11947TIP3   OH235717   3.061   7.781   0.062
11947TIP3    H135718   3.035   7.815   0.148
11947TIP3    H235719   3.049   7.855   0.003
11948TIP3   OH235720   0.801   4.910   2.078
11948TIP3    H135721   0.811   4.841   2.144
11948TIP3    H235722   0.862   4.978   2.106
11949TIP3   OH235723   1.123   2.266   2.633
11949TIP3    H135724   1.187   2.222   2.690
11949TIP3    H235725   1.049   2.284   2.691
11950TIP3   OH235726   4.771   1.370   5.095
11950TIP3    H135727   4.694   1.426   5.093
11950TIP3    H235728   4.741   1.287   5.132
11951TIP3   OH235729   9.525   7.718   6.216
11951TIP3    H135730   9.538   7.647   6.278
11951TIP3    H235731   9.470   7.681   6.147
11952TIP3   OH235732   4.411   3.535   7.399
11952TIP3    H135733   4.326   3.493   7.391
11952TIP3    H235734   4.450   3.498   7.478
11953TIP3   OH235735   6.501   8.224   6.814
11953TIP3    H135736   6.518   8.171   6.736
11953TIP3    H235737   6.556   8.302   6.802
11954TIP3   OH235738   3.478   7.160   4.928
11954TIP3    H135739   3.546   7.216   4.965
11954TIP3    H235740   3.406   7.219   4.907
11955TIP3   OH235741   8.603   6.333   0.222
11955TIP3    H135742   8.529   6.393   0.214
11955TIP3    H235743   8.644   6.334   0.136
11956TIP3   OH235744   0.600   1.678   6.581
11956TIP3    H135745   0.608   1.606   6.518
11956TIP3    H235746   0.514   1.664   6.622
11957TIP3   OH235747   2.049   7.259   1.291
11957TIP3    H135748   2.108   7.234   1.362
11957TIP3    H235749   2.068   7.352   1.276
11958TIP3   OH235750   8.505   2.861   7.513
11958TIP3    H135751   8.566   2.829   7.579
11958TIP3    H235752   8.442   2.914   7.562
11959TIP3   OH235753   3.140   7.911   2.786
11959TIP3    H135754   3.067   7.925   2.846
11959TIP3    H235755   3.119   7.965   2.709
11960TIP3   OH235756   5.876   8.191   5.050
11960TIP3    H135757   5.953   8.241   5.078
11960TIP3    H235758   5.823   8.254   5.003
11961TIP3   OH235759   3.136   2.394   3.846
11961TIP3    H135760   3.157   2.417   3.936
11961TIP3    H235761   3.146   2.476   3.798
11962TIP3   OH235762   6.532   8.052   2.671
11962TIP3    H135763   6.523   8.116   2.601
11962TIP3    H235764   6.558   7.971   2.627
11963TIP3   OH235765   4.329   0.511   2.893
11963TIP3    H135766   4.424   0.522   2.891
11963TIP3    H235767   4.314   0.437   2.953
11964TIP3   OH235768   0.295   0.513   4.715
11964TIP3    H135769   0.297   0.544   4.624
11964TIP3    H235770   0.208   0.474   4.725
11965TIP3   OH235771   1.781   2.978   6.376
11965TIP3    H135772   1.793   2.883   6.378
11965TIP3    H235773   1.711   2.996   6.438
11966TIP3   OH235774   9.056   5.221   7.325
11966TIP3    H135775   9.080   5.288   7.261
11966TIP3    H235776   9.092   5.140   7.289
11967TIP3   OH235777   1.505   3.437   3.239
11967TIP3    H135778   1.499   3.527   3.269
11967TIP3    H235779   1.497   3.442   3.144
11968TIP3   OH235780   5.710   8.466   5.706
11968TIP3    H135781   5.643   8.503   5.649
11968TIP3    H235782   5.792   8.481   5.660
11969TIP3   OH235783   4.346   6.315   7.199
11969TIP3    H135784   4.433   6.355   7.200
11969TIP3    H235785   4.340   6.271   7.284
11970TIP3   OH235786   8.215   8.400   0.615
11970TIP3    H135787   8.165   8.358   0.685
11970TIP3    H235788   8.273   8.331   0.582
11971TIP3   OH235789   9.509   7.921   7.264
11971TIP3    H135790   9.516   7.825   7.261
11971TIP3    H235791   9.596   7.952   7.241
11972TIP3   OH235792   8.078   3.203   6.041
11972TIP3    H135793   8.079   3.109   6.056
11972TIP3    H235794   7.995   3.221   5.998
11973TIP3   OH235795   5.141   8.009   5.306
11973TIP3    H135796   5.070   8.015   5.369
11973TIP3    H235797   5.121   8.077   5.241
11974TIP3   OH235798   9.349   4.769   7.194
11974TIP3    H135799   9.328   4.840   7.133
11974TIP3    H235800   9.265   4.728   7.212
11975TIP3   OH235801   6.278   0.250   7.409
11975TIP3    H135802   6.265   0.284   7.321
11975TIP3    H235803   6.200   0.278   7.457
11976TIP3   OH235804   8.570   1.494   4.829
11976TIP3    H135805   8.538   1.418   4.781
11976TIP3    H235806   8.510   1.503   4.903
11977TIP3   OH235807   8.847   3.528   5.454
11977TIP3    H135808   8.894   3.559   5.531
11977TIP3    H235809   8.838   3.606   5.398
11978TIP3   OH235810   3.531   7.374   3.458
11978TIP3    H135811   3.550   7.329   3.540
11978TIP3    H235812   3.446   7.339   3.431
11979TIP3   OH235813   7.180   8.374   1.363
11979TIP3    H135814   7.101   8.340   1.406
11979TIP3    H235815   7.190   8.463   1.397
11980TIP3   OH235816   6.865   6.306   4.741
11980TIP3    H135817   6.953   6.335   4.718
11980TIP3    H235818   6.879   6.224   4.787
11981TIP3   OH235819   6.847   3.637   3.140
11981TIP3    H135820   6.857   3.731   3.155
11981TIP3    H235821   6.829   3.601   3.226
11982TIP3   OH235822   6.976   3.752   4.615
11982TIP3    H135823   6.888   3.788   4.625
11982TIP3    H235824   7.033   3.814   4.661
11983TIP3   OH235825   4.956   7.293   6.036
11983TIP3    H135826   4.930   7.242   5.960
11983TIP3    H235827   5.050   7.279   6.044
11984TIP3   OH235828   1.491   2.076   5.568
11984TIP3    H135829   1.521   2.057   5.657
11984TIP3    H235830   1.497   1.992   5.523
11985TIP3   OH235831   8.357   0.836   2.415
11985TIP3    H135832   8.398   0.758   2.451
11985TIP3    H235833   8.266   0.831   2.444
11986TIP3   OH235834   0.602   4.605   7.291
11986TIP3    H135835   0.555   4.606   7.374
11986TIP3    H235836   0.694   4.616   7.316
11987TIP3   OH235837   7.765   3.153   3.766
11987TIP3    H135838   7.843   3.104   3.792
11987TIP3    H235839   7.731   3.190   3.848
11988TIP3   OH235840   5.666   0.764   0.207
11988TIP3    H135841   5.606   0.722   0.146
11988TIP3    H235842   5.622   0.757   0.292
11989TIP3   OH235843   8.947   1.778   5.039
11989TIP3    H135844   8.878   1.714   5.024
11989TIP3    H235845   8.921   1.854   4.987
11990TIP3   OH235846   2.669   6.654   5.310
11990TIP3    H135847   2.721   6.603   5.248
11990TIP3    H235848   2.660   6.739   5.269
11991TIP3   OH235849   2.013   6.901   6.200
11991TIP3    H135850   2.032   6.877   6.109
11991TIP3    H235851   1.922   6.874   6.213
11992TIP3   OH235852   1.482   4.075   5.811
11992TIP3    H135853   1.530   4.079   5.728
11992TIP3    H235854   1.544   4.106   5.877
11993TIP3   OH235855   4.603   4.949   4.729
11993TIP3    H135856   4.561   5.034   4.722
11993TIP3    H235857   4.685   4.959   4.680
11994TIP3   OH235858   9.416   4.006   3.289
11994TIP3    H135859   9.481   4.047   3.346
11994TIP3    H235860   9.377   4.079   3.242
11995TIP3   OH235861   8.036   1.979   6.468
11995TIP3    H135862   8.052   1.941   6.382
11995TIP3    H235863   7.948   1.949   6.491
11996TIP3   OH235864   0.909   2.815   0.946
11996TIP3    H135865   0.945   2.771   0.870
11996TIP3    H235866   0.831   2.765   0.969
11997TIP3   OH235867   2.631   0.474   2.716
11997TIP3    H135868   2.607   0.449   2.626
11997TIP3    H235869   2.716   0.434   2.730
11998TIP3   OH235870   2.402   8.091   3.127
11998TIP3    H135871   2.309   8.090   3.151
11998TIP3    H235872   2.420   8.001   3.099
11999TIP3   OH235873   0.857   6.740   0.883
11999TIP3    H135874   0.781   6.713   0.935
11999TIP3    H235875   0.883   6.661   0.836
12000TIP3   OH235876   0.048   2.167   4.369
12000TIP3    H135877  -0.008   2.178   4.446
12000TIP3    H235878   0.090   2.082   4.382
12001TIP3   OH235879   4.498   3.575   3.760
12001TIP3    H135880   4.467   3.654   3.716
12001TIP3    H235881   4.565   3.540   3.701
12002TIP3   OH235882   3.567   3.931   5.648
12002TIP3    H135883   3.562   3.939   5.744
12002TIP3    H235884   3.614   4.011   5.621
12003TIP3   OH235885   3.353   0.134   3.870
12003TIP3    H135886   3.347   0.205   3.806
12003TIP3    H235887   3.335   0.176   3.955
12004TIP3   OH235888   7.453   4.721   5.848
12004TIP3    H135889   7.381   4.728   5.785
12004TIP3    H235890   7.517   4.664   5.805
12005TIP3   OH235891   3.046   6.655   0.807
12005TIP3    H135892   3.025   6.648   0.713
12005TIP3    H235893   3.005   6.737   0.834
12006TIP3   OH235894   0.029   6.122   5.672
12006TIP3    H135895  -0.016   6.145   5.754
12006TIP3    H235896  -0.041   6.115   5.607
12007TIP3   OH235897   2.925   0.874   3.061
12007TIP3    H135898   2.872   0.947   3.030
12007TIP3    H235899   2.914   0.875   3.156
12008TIP3   OH235900   4.866   1.799   5.127
12008TIP3    H135901   4.893   1.853   5.201
12008TIP3    H235902   4.900   1.844   5.050
12009TIP3   OH235903   4.883   6.385   6.844
12009TIP3    H135904   4.975   6.393   6.818
12009TIP3    H235905   4.840   6.346   6.769
12010TIP3   OH235906   5.138   6.913   5.602
12010TIP3    H135907   5.062   6.972   5.606
12010TIP3    H235908   5.128   6.869   5.518
12011TIP3   OH235909   5.004   5.953   3.229
12011TIP3    H135910   5.032   6.032   3.183
12011TIP3    H235911   5.080   5.929   3.284
12012TIP3   OH235912   0.289   0.177   6.764
12012TIP3    H135913   0.333   0.142   6.686
12012TIP3    H235914   0.239   0.104   6.799
12013TIP3   OH235915   1.771   7.070   0.872
12013TIP3    H135916   1.729   7.131   0.932
12013TIP3    H235917   1.701   7.014   0.840
12014TIP3   OH235918   4.163   1.240   7.108
12014TIP3    H135919   4.088   1.279   7.152
12014TIP3    H235920   4.213   1.199   7.178
12015TIP3   OH235921   0.677   4.112   6.928
12015TIP3    H135922   0.594   4.116   6.975
12015TIP3    H235923   0.728   4.185   6.963
12016TIP3   OH235924   8.197   0.091   7.708
12016TIP3    H135925   8.290   0.110   7.718
12016TIP3    H235926   8.195   0.009   7.658
12017TIP3   OH235927   2.007   3.598   7.373
12017TIP3    H135928   1.941   3.529   7.376
12017TIP3    H235929   2.035   3.600   7.282
12018TIP3   OH235930   4.968   8.341   4.552
12018TIP3    H135931   4.884   8.385   4.566
12018TIP3    H235932   4.960   8.259   4.599
12019TIP3   OH235933   0.936   7.117   4.019
12019TIP3    H135934   1.028   7.141   4.005
12019TIP3    H235935   0.920   7.136   4.112
12020TIP3   OH235936   6.480   6.298   4.456
12020TIP3    H135937   6.539   6.335   4.521
12020TIP3    H235938   6.417   6.247   4.507
12021TIP3   OH235939   4.398   6.729   2.317
12021TIP3    H135940   4.487   6.756   2.339
12021TIP3    H235941   4.377   6.661   2.381
12022TIP3   OH235942   4.713   0.795   3.404
12022TIP3    H135943   4.692   0.774   3.313
12022TIP3    H235944   4.713   0.891   3.408
12023TIP3   OH235945   1.863   1.937   5.853
12023TIP3    H135946   1.911   2.014   5.881
12023TIP3    H235947   1.874   1.935   5.758
12024TIP3   OH235948   0.596   6.659   0.975
12024TIP3    H135949   0.577   6.595   1.044
12024TIP3    H235950   0.512   6.669   0.930
12025TIP3   OH235951   0.226   6.906   3.113
12025TIP3    H135952   0.192   6.819   3.136
12025TIP3    H235953   0.148   6.959   3.096
12026TIP3   OH235954   7.619   1.364   3.862
12026TIP3    H135955   7.660   1.348   3.948
12026TIP3    H235956   7.649   1.452   3.838
12027TIP3   OH235957   3.412   5.171   6.207
12027TIP3    H135958   3.436   5.258   6.175
12027TIP3    H235959   3.463   5.111   6.153
12028TIP3   OH235960   0.570   2.310   7.038
12028TIP3    H135961   0.530   2.265   7.112
12028TIP3    H235962   0.663   2.313   7.058
12029TIP3   OH235963   0.146   0.588   2.420
12029TIP3    H135964   0.083   0.659   2.408
12029TIP3    H235965   0.226   0.619   2.377
12030TIP3   OH235966   7.182   6.949   1.971
12030TIP3    H135967   7.218   6.994   2.046
12030TIP3    H235968   7.120   7.011   1.932
12031TIP3   OH235969   3.557   6.045   4.111
12031TIP3    H135970   3.531   6.123   4.160
12031TIP3    H235971   3.475   6.011   4.075
12032TIP3   OH235972   7.561   4.286   5.603
12032TIP3    H135973   7.518   4.235   5.533
12032TIP3    H235974   7.600   4.220   5.660
12033TIP3   OH235975   4.855   7.245   6.288
12033TIP3    H135976   4.909   7.273   6.215
12033TIP3    H235977   4.861   7.317   6.351
12034TIP3   OH235978   4.207   8.052   0.505
12034TIP3    H135979   4.219   8.066   0.599
12034TIP3    H235980   4.184   8.139   0.471
12035TIP3   OH235981   4.403   1.014   3.709
12035TIP3    H135982   4.317   1.036   3.672
12035TIP3    H235983   4.393   1.026   3.803
12036TIP3   OH235984   2.040   2.669   3.696
12036TIP3    H135985   2.016   2.723   3.771
12036TIP3    H235986   2.087   2.595   3.734
12037TIP3   OH235987   6.662   2.117   2.910
12037TIP3    H135988   6.677   2.122   3.004
12037TIP3    H235989   6.698   2.199   2.875
12038TIP3   OH235990   4.097   4.726   6.464
12038TIP3    H135991   4.039   4.705   6.391
12038TIP3    H235992   4.152   4.648   6.474
12039TIP3   OH235993   3.258   6.074   4.281
12039TIP3    H135994   3.242   5.981   4.296
12039TIP3    H235995   3.230   6.089   4.191
12040TIP3   OH235996   2.427   0.218   4.636
12040TIP3    H135997   2.374   0.296   4.621
12040TIP3    H235998   2.515   0.252   4.655
12041TIP3   OH235999   4.950   6.559   1.358
12041TIP3    H136000   4.864   6.558   1.316
12041TIP3    H236001   4.975   6.467   1.364
12042TIP3   OH236002   0.778   1.837   4.491
12042TIP3    H136003   0.691   1.817   4.526
12042TIP3    H236004   0.799   1.763   4.434
12043TIP3   OH236005   2.390   8.397   6.955
12043TIP3    H136006   2.417   8.374   6.866
12043TIP3    H236007   2.414   8.489   6.965
12044TIP3   OH236008   8.341   8.420   6.143
12044TIP3    H136009   8.323   8.450   6.232
12044TIP3    H236010   8.377   8.332   6.154
12045TIP3   OH236011   6.077   1.478   4.705
12045TIP3    H136012   6.022   1.547   4.742
12045TIP3    H236013   6.084   1.500   4.612
12046TIP3   OH236014   8.921   3.660   6.357
12046TIP3    H136015   8.957   3.739   6.398
12046TIP3    H236016   8.827   3.674   6.358
12047TIP3   OH236017   2.397   8.187   0.121
12047TIP3    H136018   2.367   8.275   0.144
12047TIP3    H236019   2.386   8.182   0.027
12048TIP3   OH236020   5.476   4.561   4.705
12048TIP3    H136021   5.484   4.549   4.611
12048TIP3    H236022   5.437   4.648   4.715
12049TIP3   OH236023   5.546   1.383   1.027
12049TIP3    H136024   5.532   1.290   1.008
12049TIP3    H236025   5.514   1.394   1.116
12050TIP3   OH236026   2.919   2.265   5.714
12050TIP3    H136027   2.945   2.347   5.674
12050TIP3    H236028   3.002   2.220   5.733
12051TIP3   OH236029   5.042   4.915   6.601
12051TIP3    H136030   5.137   4.914   6.606
12051TIP3    H236031   5.018   5.007   6.613
12052TIP3   OH236032   3.676   7.317   3.236
12052TIP3    H136033   3.624   7.332   3.316
12052TIP3    H236034   3.654   7.391   3.180
12053TIP3   OH236035   4.221   8.325   4.155
12053TIP3    H136036   4.173   8.290   4.080
12053TIP3    H236037   4.159   8.321   4.227
12054TIP3   OH236038   2.838   4.678   5.480
12054TIP3    H136039   2.927   4.669   5.516
12054TIP3    H236040   2.803   4.589   5.482
12055TIP3   OH236041   4.170   3.008   1.730
12055TIP3    H136042   4.162   3.085   1.786
12055TIP3    H236043   4.168   3.043   1.641
12056TIP3   OH236044   3.458  -0.003   7.521
12056TIP3    H136045   3.484   0.084   7.552
12056TIP3    H236046   3.363  -0.005   7.533
12057TIP3   OH236047   2.952   5.333   0.354
12057TIP3    H136048   3.030   5.372   0.315
12057TIP3    H236049   2.986   5.264   0.411
12058TIP3   OH236050   2.152   0.626   5.513
12058TIP3    H136051   2.246   0.607   5.516
12058TIP3    H236052   2.110   0.541   5.529
12059TIP3   OH236053   6.533   4.839   1.263
12059TIP3    H136054   6.593   4.765   1.257
12059TIP3    H236055   6.486   4.838   1.180
12060TIP3   OH236056   0.880   4.311   7.374
12060TIP3    H136057   0.872   4.404   7.354
12060TIP3    H236058   0.961   4.305   7.425
12061TIP3   OH236059   2.926   4.788   5.782
12061TIP3    H136060   2.870   4.717   5.814
12061TIP3    H236061   2.989   4.746   5.725
12062TIP3   OH236062   0.807   8.646   0.076
12062TIP3    H136063   0.816   8.735   0.110
12062TIP3    H236064   0.824   8.590   0.152
12063TIP3   OH236065   3.737   4.768   4.487
12063TIP3    H136066   3.817   4.809   4.520
12063TIP3    H236067   3.684   4.841   4.455
12064TIP3   OH236068   3.648   7.277   3.715
12064TIP3    H136069   3.716   7.228   3.668
12064TIP3    H236070   3.692   7.357   3.743
12065TIP3   OH236071   0.488   3.517   5.026
12065TIP3    H136072   0.452   3.458   4.960
12065TIP3    H236073   0.419   3.522   5.093
12066TIP3   OH236074   5.659   7.632   0.154
12066TIP3    H136075   5.589   7.577   0.121
12066TIP3    H236076   5.720   7.640   0.081
12067TIP3   OH236077   4.461   1.354   0.538
12067TIP3    H136078   4.414   1.341   0.456
12067TIP3    H236079   4.425   1.288   0.597
12068TIP3   OH236080   3.000   6.501   0.572
12068TIP3    H136081   2.971   6.506   0.481
12068TIP3    H236082   2.935   6.444   0.615
12069TIP3   OH236083   9.406   5.697   7.328
12069TIP3    H136084   9.427   5.614   7.285
12069TIP3    H236085   9.480   5.713   7.387
12070TIP3   OH236086   9.062   3.925   5.297
12070TIP3    H136087   9.065   3.908   5.202
12070TIP3    H236088   9.135   3.984   5.313
12071TIP3   OH236089   4.964   4.268   6.052
12071TIP3    H136090   4.886   4.307   6.091
12071TIP3    H236091   5.030   4.338   6.056
12072TIP3   OH236092   5.273   4.943   3.103
12072TIP3    H136093   5.278   4.859   3.148
12072TIP3    H236094   5.302   4.924   3.014
12073TIP3   OH236095   1.812   6.317   6.315
12073TIP3    H136096   1.835   6.236   6.270
12073TIP3    H236097   1.773   6.288   6.397
12074TIP3   OH236098   8.132   7.374   1.815
12074TIP3    H136099   8.203   7.324   1.775
12074TIP3    H236100   8.106   7.321   1.890
12075TIP3   OH236101   0.286   1.469   2.862
12075TIP3    H136102   0.282   1.385   2.907
12075TIP3    H236103   0.217   1.521   2.903
12076TIP3   OH236104   5.059   6.079   2.225
12076TIP3    H136105   5.091   6.058   2.313
12076TIP3    H236106   5.107   6.158   2.200
12077TIP3   OH236107   0.343   8.505   2.175
12077TIP3    H136108   0.291   8.500   2.095
12077TIP3    H236109   0.337   8.597   2.201
12078TIP3   OH236110   0.503   1.356   7.509
12078TIP3    H136111   0.508   1.321   7.420
12078TIP3    H236112   0.594   1.368   7.535
12079TIP3   OH236113   5.590   7.582   5.004
12079TIP3    H136114   5.518   7.521   4.986
12079TIP3    H236115   5.650   7.532   5.060
12080TIP3   OH236116   3.951   7.996   5.361
12080TIP3    H136117   3.871   8.043   5.383
12080TIP3    H236118   3.923   7.906   5.346
12081TIP3   OH236119   3.709   8.090   0.427
12081TIP3    H136120   3.642   8.145   0.386
12081TIP3    H236121   3.660   8.017   0.465
12082TIP3   OH236122   0.616   3.880   2.831
12082TIP3    H136123   0.530   3.843   2.848
12082TIP3    H236124   0.626   3.948   2.898
12083TIP3   OH236125   0.845   1.975   4.860
12083TIP3    H136126   0.765   1.987   4.809
12083TIP3    H236127   0.815   1.957   4.949
12084TIP3   OH236128   9.190   5.538   7.376
12084TIP3    H136129   9.273   5.586   7.382
12084TIP3    H236130   9.172   5.533   7.282
12085TIP3   OH236131   2.479   1.655   6.561
12085TIP3    H136132   2.502   1.592   6.492
12085TIP3    H236133   2.556   1.658   6.617
12086TIP3   OH236134   6.755   7.528   6.829
12086TIP3    H136135   6.752   7.621   6.852
12086TIP3    H236136   6.841   7.516   6.788
12087TIP3   OH236137   7.916   8.100   7.522
12087TIP3    H136138   7.862   8.144   7.456
12087TIP3    H236139   7.854   8.045   7.571
12088TIP3   OH236140   1.574   1.249   6.646
12088TIP3    H136141   1.496   1.194   6.645
12088TIP3    H236142   1.638   1.201   6.593
12089TIP3   OH236143   4.581   1.704   4.199
12089TIP3    H136144   4.643   1.631   4.192
12089TIP3    H236145   4.573   1.737   4.109
12090TIP3   OH236146   3.231   3.488   1.769
12090TIP3    H136147   3.268   3.457   1.852
12090TIP3    H236148   3.307   3.514   1.717
12091TIP3   OH236149   1.134   1.129   6.571
12091TIP3    H136150   1.169   1.186   6.639
12091TIP3    H236151   1.059   1.086   6.612
12092TIP3   OH236152   7.041   4.317   4.216
12092TIP3    H136153   6.983   4.293   4.143
12092TIP3    H236154   7.038   4.412   4.217
12093TIP3   OH236155   2.511   1.678   3.798
12093TIP3    H136156   2.440   1.614   3.801
12093TIP3    H236157   2.470   1.762   3.818
12094TIP3   OH236158   7.716   8.719   4.733
12094TIP3    H136159   7.736   8.800   4.780
12094TIP3    H236160   7.761   8.650   4.781
12095TIP3   OH236161   7.521   5.140   7.017
12095TIP3    H136162   7.457   5.212   7.023
12095TIP3    H236163   7.509   5.091   7.098
12096TIP3   OH236164   1.437   0.481   2.658
12096TIP3    H136165   1.393   0.397   2.650
12096TIP3    H236166   1.367   0.546   2.651
12097TIP3   OH236167   7.119   1.877   1.314
12097TIP3    H136168   7.090   1.968   1.319
12097TIP3    H236169   7.201   1.880   1.264
12098TIP3   OH236170   2.378   8.434   2.124
12098TIP3    H136171   2.441   8.486   2.075
12098TIP3    H236172   2.357   8.487   2.201
12099TIP3   OH236173   0.567   4.449   6.168
12099TIP3    H136174   0.614   4.392   6.107
12099TIP3    H236175   0.480   4.458   6.131
12100TIP3   OH236176   8.127   5.695   4.473
12100TIP3    H136177   8.223   5.686   4.479
12100TIP3    H236178   8.094   5.654   4.553
12101TIP3   OH236179   2.287   0.239   0.380
12101TIP3    H136180   2.202   0.217   0.343
12101TIP3    H236181   2.350   0.193   0.325
12102TIP3   OH236182   7.397   8.178   2.759
12102TIP3    H136183   7.305   8.149   2.757
12102TIP3    H236184   7.423   8.182   2.667
12103TIP3   OH236185   5.164   3.739   3.200
12103TIP3    H136186   5.111   3.765   3.276
12103TIP3    H236187   5.100   3.725   3.130
12104TIP3   OH236188   6.118   8.416   2.971
12104TIP3    H136189   6.186   8.390   3.034
12104TIP3    H236190   6.044   8.359   2.991
12105TIP3   OH236191   8.436   7.757   1.214
12105TIP3    H136192   8.383   7.716   1.282
12105TIP3    H236193   8.475   7.683   1.167
12106TIP3   OH236194   9.472   3.776   3.652
12106TIP3    H136195   9.533   3.708   3.681
12106TIP3    H236196   9.447   3.751   3.564
12107TIP3   OH236197   5.707   0.541   2.855
12107TIP3    H136198   5.662   0.593   2.787
12107TIP3    H236199   5.799   0.567   2.848
12108TIP3   OH236200   5.728   6.956   3.668
12108TIP3    H136201   5.665   6.887   3.648
12108TIP3    H236202   5.729   6.962   3.763
12109TIP3   OH236203   3.383   5.614   5.992
12109TIP3    H136204   3.421   5.692   5.950
12109TIP3    H236205   3.308   5.592   5.937
12110TIP3   OH236206   1.104   6.168   7.409
12110TIP3    H136207   1.150   6.137   7.487
12110TIP3    H236208   1.056   6.245   7.438
12111TIP3   OH236209   4.791   7.955   3.035
12111TIP3    H136210   4.838   7.895   3.092
12111TIP3    H236211   4.854   7.977   2.966
12112TIP3   OH236212   9.223   7.028   0.777
12112TIP3    H136213   9.293   7.088   0.752
12112TIP3    H236214   9.179   7.073   0.850
12113TIP3   OH236215   3.656   3.543   6.207
12113TIP3    H136216   3.735   3.499   6.176
12113TIP3    H236217   3.587   3.477   6.198
12114TIP3   OH236218   4.127   7.442   4.319
12114TIP3    H136219   4.197   7.506   4.307
12114TIP3    H236220   4.141   7.408   4.408
12115TIP3   OH236221   5.331   0.227   4.010
12115TIP3    H136222   5.253   0.198   4.058
12115TIP3    H236223   5.404   0.195   4.062
12116TIP3   OH236224   6.425   6.529   0.933
12116TIP3    H136225   6.368   6.534   0.856
12116TIP3    H236226   6.507   6.493   0.901
12117TIP3   OH236227   4.861   8.431   3.652
12117TIP3    H136228   4.837   8.494   3.720
12117TIP3    H236229   4.954   8.413   3.668
12118TIP3   OH236230   4.478   0.425   6.203
12118TIP3    H136231   4.567   0.447   6.231
12118TIP3    H236232   4.481   0.428   6.107
12119TIP3   OH236233   5.846   3.835   3.213
12119TIP3    H136234   5.834   3.825   3.119
12119TIP3    H236235   5.820   3.925   3.231
12120TIP3   OH236236   7.763   0.266   4.142
12120TIP3    H136237   7.810   0.252   4.060
12120TIP3    H236238   7.738   0.178   4.171
12121TIP3   OH236239   2.990   6.165   2.092
12121TIP3    H136240   3.010   6.164   1.998
12121TIP3    H236241   2.926   6.236   2.103
12122TIP3   OH236242   1.880   0.204   3.897
12122TIP3    H136243   1.840   0.288   3.917
12122TIP3    H236244   1.807   0.143   3.889
12123TIP3   OH236245   0.393   1.539   3.513
12123TIP3    H136246   0.399   1.625   3.472
12123TIP3    H236247   0.465   1.489   3.475
12124TIP3   OH236248   6.165   0.467   0.741
12124TIP3    H136249   6.231   0.531   0.715
12124TIP3    H236250   6.135   0.428   0.659
12125TIP3   OH236251   3.997   7.335   4.062
12125TIP3    H136252   4.019   7.373   4.148
12125TIP3    H236253   3.994   7.241   4.077
12126TIP3   OH236254   8.868   4.348   3.949
12126TIP3    H136255   8.825   4.263   3.936
12126TIP3    H236256   8.824   4.384   4.026
12127TIP3   OH236257   8.432   6.810   4.871
12127TIP3    H136258   8.346   6.849   4.888
12127TIP3    H236259   8.421   6.764   4.788
12128TIP3   OH236260   5.433   7.353   5.547
12128TIP3    H136261   5.450   7.384   5.636
12128TIP3    H236262   5.344   7.383   5.528
12129TIP3   OH236263   0.655   4.388   6.422
12129TIP3    H136264   0.623   4.423   6.339
12129TIP3    H236265   0.732   4.441   6.442
12130TIP3   OH236266   9.194   6.607   0.718
12130TIP3    H136267   9.157   6.643   0.638
12130TIP3    H236268   9.132   6.632   0.787
12131TIP3   OH236269   5.080   8.464   3.117
12131TIP3    H136270   5.070   8.471   3.212
12131TIP3    H236271   5.130   8.383   3.105
12132TIP3   OH236272   2.252   7.744   3.561
12132TIP3    H136273   2.281   7.791   3.483
12132TIP3    H236274   2.267   7.805   3.633
12133TIP3   OH236275   2.144   0.918   7.106
12133TIP3    H136276   2.211   0.972   7.062
12133TIP3    H236277   2.193   0.844   7.141
12134TIP3   OH236278   0.108   3.234   7.522
12134TIP3    H136279   0.180   3.173   7.507
12134TIP3    H236280   0.136   3.287   7.597
12135TIP3   OH236281   6.346   5.165   5.401
12135TIP3    H136282   6.338   5.174   5.306
12135TIP3    H236283   6.405   5.091   5.414
12136TIP3   OH236284   7.376   0.175   2.788
12136TIP3    H136285   7.381   0.234   2.713
12136TIP3    H236286   7.404   0.228   2.863
12137TIP3   OH236287   6.552   2.746   0.631
12137TIP3    H136288   6.468   2.701   0.634
12137TIP3    H236289   6.617   2.676   0.633
12138TIP3   OH236290   5.239   2.704   7.161
12138TIP3    H136291   5.169   2.669   7.106
12138TIP3    H236292   5.267   2.630   7.214
12139TIP3   OH236293   0.406   1.702   5.224
12139TIP3    H136294   0.360   1.637   5.276
12139TIP3    H236295   0.457   1.752   5.289
12140TIP3   OH236296   5.002   6.287   3.400
12140TIP3    H136297   4.920   6.300   3.352
12140TIP3    H236298   4.987   6.209   3.453
12141TIP3   OH236299   3.624   2.281   7.008
12141TIP3    H136300   3.685   2.273   7.082
12141TIP3    H236301   3.604   2.375   7.004
12142TIP3   OH236302   3.687   3.673   5.635
12142TIP3    H136303   3.686   3.767   5.651
12142TIP3    H236304   3.675   3.634   5.721
12143TIP3   OH236305   6.436   7.261   1.193
12143TIP3    H136306   6.435   7.185   1.135
12143TIP3    H236307   6.344   7.289   1.197
12144TIP3   OH236308   5.758   7.713   1.424
12144TIP3    H136309   5.850   7.716   1.397
12144TIP3    H236310   5.742   7.798   1.464
12145TIP3   OH236311   2.688   7.361   1.468
12145TIP3    H136312   2.760   7.388   1.525
12145TIP3    H236313   2.615   7.347   1.528
12146TIP3   OH236314   7.765   6.209   5.839
12146TIP3    H136315   7.723   6.291   5.863
12146TIP3    H236316   7.739   6.148   5.908
12147TIP3   OH236317   2.525   4.423   3.927
12147TIP3    H136318   2.548   4.371   3.850
12147TIP3    H236319   2.456   4.482   3.896
12148TIP3   OH236320   2.794   4.875   2.554
12148TIP3    H136321   2.719   4.830   2.594
12148TIP3    H236322   2.802   4.834   2.467
12149TIP3   OH236323   7.769   4.797   4.746
12149TIP3    H136324   7.821   4.718   4.730
12149TIP3    H236325   7.730   4.817   4.661
12150TIP3   OH236326   4.676   0.017   2.929
12150TIP3    H136327   4.636   0.059   3.005
12150TIP3    H236328   4.679  -0.076   2.953
12151TIP3   OH236329   8.026   5.394   7.364
12151TIP3    H136330   7.993   5.353   7.284
12151TIP3    H236331   8.061   5.478   7.334
12152TIP3   OH236332   1.636   3.922   4.347
12152TIP3    H136333   1.686   3.842   4.362
12152TIP3    H236334   1.556   3.912   4.399
12153TIP3   OH236335   2.877   4.303   0.557
12153TIP3    H136336   2.862   4.322   0.464
12153TIP3    H236337   2.843   4.379   0.603
12154TIP3   OH236338   4.685   7.747   7.211
12154TIP3    H136339   4.702   7.779   7.299
12154TIP3    H236340   4.658   7.824   7.162
12155TIP3   OH236341   8.512   3.381   0.219
12155TIP3    H136342   8.433   3.353   0.266
12155TIP3    H236343   8.562   3.300   0.206
12156TIP3   OH236344   7.506   4.494   4.671
12156TIP3    H136345   7.546   4.443   4.741
12156TIP3    H236346   7.519   4.585   4.697
12157TIP3   OH236347   3.666   2.468   2.307
12157TIP3    H136348   3.573   2.489   2.298
12157TIP3    H236349   3.707   2.551   2.328
12158TIP3   OH236350   3.363   5.701   0.166
12158TIP3    H136351   3.435   5.673   0.110
12158TIP3    H236352   3.293   5.725   0.105
12159TIP3   OH236353   6.737   2.705   2.428
12159TIP3    H136354   6.651   2.663   2.436
12159TIP3    H236355   6.720   2.797   2.445
12160TIP3   OH236356   5.214   6.134   7.052
12160TIP3    H136357   5.287   6.139   6.991
12160TIP3    H236358   5.253   6.149   7.138
12161TIP3   OH236359   8.027   0.890   1.671
12161TIP3    H136360   7.967   0.827   1.631
12161TIP3    H236361   8.105   0.887   1.616
12162TIP3   OH236362   1.447   7.263   7.403
12162TIP3    H136363   1.357   7.263   7.372
12162TIP3    H236364   1.499   7.237   7.328
12163TIP3   OH236365   4.331   7.031   5.906
12163TIP3    H136366   4.256   7.090   5.912
12163TIP3    H236367   4.385   7.067   5.835
12164TIP3   OH236368   6.030   1.285   3.715
12164TIP3    H136369   6.002   1.369   3.750
12164TIP3    H236370   6.049   1.232   3.792
12165TIP3   OH236371   4.056   6.782   5.827
12165TIP3    H136372   4.028   6.847   5.892
12165TIP3    H236373   3.980   6.724   5.818
12166TIP3   OH236374   0.774   8.922   2.777
12166TIP3    H136375   0.797   8.928   2.869
12166TIP3    H236376   0.847   8.963   2.731
12167TIP3   OH236377   3.599   5.042   1.488
12167TIP3    H136378   3.532   4.980   1.520
12167TIP3    H236379   3.554   5.126   1.487
12168TIP3   OH236380   5.745   1.491   6.882
12168TIP3    H136381   5.688   1.464   6.954
12168TIP3    H236382   5.809   1.549   6.922
12169TIP3   OH236383   0.373   5.468   4.423
12169TIP3    H136384   0.303   5.418   4.465
12169TIP3    H236385   0.405   5.411   4.353
12170TIP3   OH236386   8.002   4.426   4.167
12170TIP3    H136387   8.085   4.413   4.120
12170TIP3    H236388   7.975   4.515   4.144
12171TIP3   OH236389   6.012   7.057   3.585
12171TIP3    H136390   6.001   7.073   3.491
12171TIP3    H236391   5.927   7.024   3.614
12172TIP3   OH236392   0.430   0.152   2.780
12172TIP3    H136393   0.432   0.225   2.842
12172TIP3    H236394   0.341   0.152   2.745
12173TIP3   OH236395   4.890   4.866   2.102
12173TIP3    H136396   4.836   4.814   2.043
12173TIP3    H236397   4.980   4.854   2.071
12174TIP3   OH236398   1.455   8.222   0.063
12174TIP3    H136399   1.421   8.302   0.103
12174TIP3    H236400   1.541   8.209   0.103
12175TIP3   OH236401   8.842   7.564   3.882
12175TIP3    H136402   8.920   7.531   3.838
12175TIP3    H236403   8.867   7.568   3.974
12176TIP3   OH236404   7.744   1.747   5.631
12176TIP3    H136405   7.750   1.825   5.576
12176TIP3    H236406   7.835   1.725   5.651
12177TIP3   OH236407   0.400   8.112   1.182
12177TIP3    H136408   0.392   8.200   1.146
12177TIP3    H236409   0.482   8.079   1.148
12178TIP3   OH236410   5.668   5.141   3.010
12178TIP3    H136411   5.629   5.134   2.923
12178TIP3    H236412   5.618   5.210   3.053
12179TIP3   OH236413   4.580   0.409   2.987
12179TIP3    H136414   4.631   0.352   3.043
12179TIP3    H236415   4.586   0.369   2.900
12180TIP3   OH236416   2.778   7.677   2.879
12180TIP3    H136417   2.773   7.602   2.938
12180TIP3    H236418   2.854   7.658   2.823
12181TIP3   OH236419   8.893   1.226   0.263
12181TIP3    H136420   8.961   1.222   0.330
12181TIP3    H236421   8.917   1.156   0.201
12182TIP3   OH236422   5.708   4.442   1.771
12182TIP3    H136423   5.747   4.453   1.858
12182TIP3    H236424   5.753   4.506   1.717
12183TIP3   OH236425   0.147   2.409   2.049
12183TIP3    H136426   0.200   2.389   1.972
12183TIP3    H236427   0.075   2.462   2.016
12184TIP3   OH236428   1.252   1.634   0.519
12184TIP3    H136429   1.232   1.541   0.530
12184TIP3    H236430   1.332   1.647   0.571
12185TIP3   OH236431   8.755   8.722   4.474
12185TIP3    H136432   8.683   8.781   4.451
12185TIP3    H236433   8.820   8.736   4.406
12186TIP3   OH236434   2.858   5.178   2.884
12186TIP3    H136435   2.915   5.123   2.938
12186TIP3    H236436   2.900   5.181   2.799
12187TIP3   OH236437   2.057   7.669   5.623
12187TIP3    H136438   2.038   7.619   5.702
12187TIP3    H236439   2.146   7.643   5.599
12188TIP3   OH236440   4.850   6.440   0.215
12188TIP3    H136441   4.798   6.455   0.136
12188TIP3    H236442   4.849   6.345   0.227
12189TIP3   OH236443   5.951   8.965   3.729
12189TIP3    H136444   5.865   8.925   3.723
12189TIP3    H236445   6.009   8.894   3.754
12190TIP3   OH236446   6.761   5.047   1.580
12190TIP3    H136447   6.727   5.104   1.511
12190TIP3    H236448   6.724   5.083   1.660
12191TIP3   OH236449   8.922   0.407   0.863
12191TIP3    H136450   8.902   0.317   0.887
12191TIP3    H236451   8.960   0.445   0.942
12192TIP3   OH236452   5.999   7.579   3.883
12192TIP3    H136453   5.971   7.662   3.920
12192TIP3    H236454   6.085   7.597   3.845
12193TIP3   OH236455   5.078   6.485   4.164
12193TIP3    H136456   5.055   6.485   4.071
12193TIP3    H236457   5.167   6.521   4.167
12194TIP3   OH236458   6.619   3.344   7.020
12194TIP3    H136459   6.531   3.314   7.042
12194TIP3    H236460   6.653   3.278   6.959
12195TIP3   OH236461   3.207   5.251   5.885
12195TIP3    H136462   3.113   5.240   5.896
12195TIP3    H236463   3.229   5.326   5.940
12196TIP3   OH236464   0.891   1.294   6.808
12196TIP3    H136465   0.935   1.378   6.799
12196TIP3    H236466   0.957   1.235   6.843
12197TIP3   OH236467   8.732   0.215   4.073
12197TIP3    H136468   8.715   0.305   4.043
12197TIP3    H236469   8.823   0.216   4.100
12198TIP3   OH236470   3.064   2.503   6.983
12198TIP3    H136471   2.986   2.457   6.951
12198TIP3    H236472   3.133   2.476   6.922
12199TIP3   OH236473   5.957   3.437   1.969
12199TIP3    H136474   5.875   3.482   1.948
12199TIP3    H236475   5.997   3.492   2.036
12200TIP3   OH236476   0.590   1.978   4.780
12200TIP3    H136477   0.507   1.971   4.828
12200TIP3    H236478   0.579   1.921   4.704
12201TIP3   OH236479   5.627   6.561   3.878
12201TIP3    H136480   5.682   6.596   3.948
12201TIP3    H236481   5.571   6.635   3.853
12202TIP3   OH236482   0.405   3.754   4.597
12202TIP3    H136483   0.407   3.661   4.573
12202TIP3    H236484   0.484   3.767   4.649
12203TIP3   OH236485   6.319   2.996   2.980
12203TIP3    H136486   6.224   3.006   2.981
12203TIP3    H236487   6.336   2.925   3.042
12204TIP3   OH236488   6.590   7.165   1.399
12204TIP3    H136489   6.667   7.145   1.346
12204TIP3    H236490   6.519   7.173   1.335
12205TIP3   OH236491   2.421   0.158   0.634
12205TIP3    H136492   2.428   0.243   0.677
12205TIP3    H236493   2.381   0.177   0.549
12206TIP3   OH236494   6.677   7.486   2.523
12206TIP3    H136495   6.646   7.439   2.445
12206TIP3    H236496   6.627   7.567   2.523
12207TIP3   OH236497   3.158   7.480   6.210
12207TIP3    H136498   3.220   7.420   6.169
12207TIP3    H236499   3.072   7.444   6.188
12208TIP3   OH236500   2.729   7.331   5.464
12208TIP3    H136501   2.752   7.398   5.528
12208TIP3    H236502   2.781   7.255   5.489
12209TIP3   OH236503   2.573   6.143   6.364
12209TIP3    H136504   2.521   6.148   6.444
12209TIP3    H236505   2.535   6.210   6.307
12210TIP3   OH236506   6.080   8.975   3.167
12210TIP3    H136507   6.012   9.000   3.229
12210TIP3    H236508   6.125   8.902   3.209
12211TIP3   OH236509   6.310   7.038   0.940
12211TIP3    H136510   6.331   7.106   0.876
12211TIP3    H236511   6.392   7.022   0.986
12212TIP3   OH236512   4.383   4.293   2.757
12212TIP3    H136513   4.388   4.332   2.845
12212TIP3    H236514   4.471   4.260   2.740
12213TIP3   OH236515   1.765   2.379   7.474
12213TIP3    H136516   1.696   2.399   7.410
12213TIP3    H236517   1.726   2.401   7.559
12214TIP3   OH236518   9.103   7.194   4.823
12214TIP3    H136519   9.021   7.244   4.826
12214TIP3    H236520   9.074   7.103   4.814
12215TIP3   OH236521   2.994   5.924   3.569
12215TIP3    H136522   2.988   5.832   3.544
12215TIP3    H236523   2.965   5.972   3.492
12216TIP3   OH236524   2.111   7.598   3.842
12216TIP3    H136525   2.200   7.633   3.837
12216TIP3    H236526   2.055   7.675   3.852
12217TIP3   OH236527   8.800   0.117   7.690
12217TIP3    H136528   8.710   0.129   7.719
12217TIP3    H236529   8.853   0.165   7.753
12218TIP3   OH236530   8.738   5.505   3.733
12218TIP3    H136531   8.731   5.428   3.789
12218TIP3    H236532   8.653   5.549   3.740
12219TIP3   OH236533   9.451   4.459   5.999
12219TIP3    H136534   9.380   4.477   5.937
12219TIP3    H236535   9.412   4.473   6.085
12220TIP3   OH236536   1.298   0.463   1.962
12220TIP3    H136537   1.387   0.497   1.955
12220TIP3    H236538   1.297   0.387   1.905
12221TIP3   OH236539   2.974   4.988   5.999
12221TIP3    H136540   2.950   5.080   5.987
12221TIP3    H236541   2.969   4.950   5.912
12222TIP3   OH236542   6.813   3.212   2.921
12222TIP3    H136543   6.806   3.288   2.864
12222TIP3    H236544   6.843   3.247   3.005
12223TIP3   OH236545   2.690   5.111   3.681
12223TIP3    H136546   2.699   5.205   3.666
12223TIP3    H236547   2.767   5.088   3.733
12224TIP3   OH236548   2.631   3.564   1.164
12224TIP3    H136549   2.716   3.567   1.208
12224TIP3    H236550   2.647   3.516   1.083
12225TIP3   OH236551   8.726   5.281   6.158
12225TIP3    H136552   8.736   5.351   6.223
12225TIP3    H236553   8.635   5.287   6.130
12226TIP3   OH236554   4.453   5.721   3.594
12226TIP3    H136555   4.463   5.816   3.604
12226TIP3    H236556   4.363   5.710   3.562
12227TIP3   OH236557   7.214   1.035   1.792
12227TIP3    H136558   7.174   0.948   1.780
12227TIP3    H236559   7.169   1.091   1.728
12228TIP3   OH236560   0.663   1.043   2.519
12228TIP3    H136561   0.669   1.109   2.588
12228TIP3    H236562   0.739   0.987   2.533
12229TIP3   OH236563   1.497   1.380   0.417
12229TIP3    H136564   1.499   1.357   0.510
12229TIP3    H236565   1.551   1.458   0.410
12230TIP3   OH236566   0.115   8.523   3.511
12230TIP3    H136567   0.199   8.566   3.496
12230TIP3    H236568   0.049   8.592   3.499
12231TIP3   OH236569   4.510   4.400   6.937
12231TIP3    H136570   4.519   4.495   6.936
12231TIP3    H236571   4.436   4.384   6.995
12232TIP3   OH236572   3.985   7.114   2.916
12232TIP3    H136573   4.069   7.159   2.908
12232TIP3    H236574   3.943   7.154   2.993
12233TIP3   OH236575   1.010   7.765   6.563
12233TIP3    H136576   0.960   7.837   6.527
12233TIP3    H236577   1.098   7.801   6.577
12234TIP3   OH236578   3.495   2.203   6.159
12234TIP3    H136579   3.517   2.260   6.232
12234TIP3    H236580   3.531   2.247   6.082
12235TIP3   OH236581   6.312   5.884   5.943
12235TIP3    H136582   6.306   5.957   6.005
12235TIP3    H236583   6.376   5.824   5.983
12236TIP3   OH236584   8.488   3.273   5.367
12236TIP3    H136585   8.570   3.265   5.320
12236TIP3    H236586   8.456   3.183   5.377
12237TIP3   OH236587   1.107   4.821   7.484
12237TIP3    H136588   1.122   4.788   7.395
12237TIP3    H236589   1.175   4.887   7.497
12238TIP3   OH236590   1.094   0.533   6.530
12238TIP3    H136591   1.003   0.514   6.511
12238TIP3    H236592   1.093   0.621   6.567
12239TIP3   OH236593   4.145   3.901   1.127
12239TIP3    H136594   4.227   3.949   1.139
12239TIP3    H236595   4.154   3.824   1.183
12240TIP3   OH236596   7.665   2.689   3.429
12240TIP3    H136597   7.612   2.610   3.418
12240TIP3    H236598   7.752   2.664   3.397
12241TIP3   OH236599   2.902   8.755   5.235
12241TIP3    H136600   2.994   8.773   5.254
12241TIP3    H236601   2.860   8.752   5.321
12242TIP3   OH236602   2.577   5.375   1.559
12242TIP3    H136603   2.644   5.325   1.605
12242TIP3    H236604   2.597   5.466   1.578
12243TIP3   OH236605   7.394   4.516   6.667
12243TIP3    H136606   7.323   4.575   6.693
12243TIP3    H236607   7.392   4.518   6.571
12244TIP3   OH236608   0.845   7.146   4.945
12244TIP3    H136609   0.884   7.206   4.881
12244TIP3    H236610   0.777   7.197   4.988
12245TIP3   OH236611   2.746   5.162   4.990
12245TIP3    H136612   2.811   5.128   4.929
12245TIP3    H236613   2.665   5.117   4.967
12246TIP3   OH236614   8.543   1.413   2.749
12246TIP3    H136615   8.467   1.355   2.757
12246TIP3    H236616   8.608   1.374   2.807
12247TIP3   OH236617   4.060   3.587   6.811
12247TIP3    H136618   4.068   3.642   6.733
12247TIP3    H236619   4.035   3.648   6.881
12248TIP3   OH236620   7.328   3.195   2.501
12248TIP3    H136621   7.232   3.192   2.500
12248TIP3    H236622   7.354   3.103   2.507
12249TIP3   OH236623   6.369   5.655   3.692
12249TIP3    H136624   6.392   5.737   3.649
12249TIP3    H236625   6.445   5.635   3.747
12250TIP3   OH236626   7.536   5.569   6.845
12250TIP3    H136627   7.510   5.599   6.758
12250TIP3    H236628   7.573   5.646   6.887
12251TIP3   OH236629   1.746   2.687   0.481
12251TIP3    H136630   1.756   2.610   0.537
12251TIP3    H236631   1.657   2.681   0.448
12252TIP3   OH236632   5.666   1.371   7.113
12252TIP3    H136633   5.631   1.350   7.199
12252TIP3    H236634   5.634   1.301   7.056
12253TIP3   OH236635   6.610   0.907   7.060
12253TIP3    H136636   6.636   0.865   6.978
12253TIP3    H236637   6.579   0.994   7.035
12254TIP3   OH236638   4.761   8.658   3.780
12254TIP3    H136639   4.726   8.739   3.816
12254TIP3    H236640   4.852   8.678   3.759
12255TIP3   OH236641   7.548   1.590   0.093
12255TIP3    H136642   7.550   1.546   0.178
12255TIP3    H236643   7.634   1.631   0.085
12256TIP3   OH236644   6.309   7.954   2.474
12256TIP3    H136645   6.382   8.005   2.507
12256TIP3    H236646   6.294   7.987   2.385
12257TIP3   OH236647   4.135   1.588   1.563
12257TIP3    H136648   4.185   1.606   1.643
12257TIP3    H236649   4.187   1.627   1.493
12258TIP3   OH236650   7.652   6.363   5.241
12258TIP3    H136651   7.641   6.458   5.243
12258TIP3    H236652   7.740   6.349   5.274
12259TIP3   OH236653   2.195   0.609   1.198
12259TIP3    H136654   2.203   0.673   1.269
12259TIP3    H236655   2.209   0.524   1.240
12260TIP3   OH236656   1.405   8.769   7.762
12260TIP3    H136657   1.384   8.691   7.711
12260TIP3    H236658   1.430   8.835   7.697
12261TIP3   OH236659   9.511   4.915   7.567
12261TIP3    H136660   9.491   4.946   7.479
12261TIP3    H236661   9.479   4.824   7.568
12262TIP3   OH236662   5.311   6.325   1.411
12262TIP3    H136663   5.311   6.347   1.317
12262TIP3    H236664   5.403   6.335   1.437
12263TIP3   OH236665   4.800   3.485   7.463
12263TIP3    H136666   4.729   3.549   7.469
12263TIP3    H236667   4.803   3.461   7.370
12264TIP3   OH236668   4.509   7.894   1.978
12264TIP3    H136669   4.439   7.832   1.998
12264TIP3    H236670   4.503   7.907   1.883
12265TIP3   OH236671   6.481   5.573   4.904
12265TIP3    H136672   6.417   5.622   4.955
12265TIP3    H236673   6.430   5.505   4.860
12266TIP3   OH236674   4.190   3.661   4.148
12266TIP3    H136675   4.210   3.570   4.172
12266TIP3    H236676   4.113   3.654   4.090
12267TIP3   OH236677   5.574   5.401   0.991
12267TIP3    H136678   5.572   5.315   0.947
12267TIP3    H236679   5.546   5.382   1.081
12268TIP3   OH236680   1.336   6.327   1.683
12268TIP3    H136681   1.304   6.239   1.666
12268TIP3    H236682   1.262   6.384   1.662
12269TIP3   OH236683   5.115   7.245   0.735
12269TIP3    H136684   5.149   7.333   0.747
12269TIP3    H236685   5.026   7.248   0.769
12270TIP3   OH236686   0.424   7.505   6.658
12270TIP3    H136687   0.427   7.544   6.571
12270TIP3    H236688   0.459   7.573   6.716
12271TIP3   OH236689   6.420   8.993   3.405
12271TIP3    H136690   6.468   9.056   3.458
12271TIP3    H236691   6.370   8.940   3.468
12272TIP3   OH236692   5.111   6.137   6.772
12272TIP3    H136693   5.101   6.228   6.744
12272TIP3    H236694   5.152   6.143   6.859
12273TIP3   OH236695   1.203   8.608   0.509
12273TIP3    H136696   1.198   8.583   0.416
12273TIP3    H236697   1.113   8.633   0.531
12274TIP3   OH236698   7.706   3.198   4.039
12274TIP3    H136699   7.671   3.285   4.060
12274TIP3    H236700   7.660   3.139   4.099
12275TIP3   OH236701   2.345   3.546   6.703
12275TIP3    H136702   2.368   3.637   6.718
12275TIP3    H236703   2.381   3.526   6.616
12276TIP3   OH236704   2.815   4.785   4.971
12276TIP3    H136705   2.843   4.803   5.061
12276TIP3    H236706   2.895   4.761   4.925
12277TIP3   OH236707   3.654   4.587   6.550
12277TIP3    H136708   3.749   4.577   6.554
12277TIP3    H236709   3.622   4.549   6.631
12278TIP3   OH236710   1.313   4.498   6.684
12278TIP3    H136711   1.256   4.423   6.669
12278TIP3    H236712   1.375   4.496   6.611
12279TIP3   OH236713   6.558   5.743   0.906
12279TIP3    H136714   6.527   5.815   0.852
12279TIP3    H236715   6.517   5.757   0.992
12280TIP3   OH236716   9.130   6.622   3.259
12280TIP3    H136717   9.136   6.687   3.328
12280TIP3    H236718   9.212   6.572   3.265
12281TIP3   OH236719   9.231   1.224   3.127
12281TIP3    H136720   9.251   1.252   3.038
12281TIP3    H236721   9.166   1.154   3.116
12282TIP3   OH236722   3.089   5.161   1.604
12282TIP3    H136723   2.994   5.172   1.597
12282TIP3    H236724   3.100   5.068   1.626
12283TIP3   OH236725   3.639   8.598   3.202
12283TIP3    H136726   3.679   8.588   3.288
12283TIP3    H236727   3.580   8.524   3.194
12284TIP3   OH236728   7.485   5.463   1.880
12284TIP3    H136729   7.429   5.527   1.922
12284TIP3    H236730   7.493   5.493   1.789
12285TIP3   OH236731   2.534   0.556   5.725
12285TIP3    H136732   2.476   0.513   5.788
12285TIP3    H236733   2.589   0.486   5.691
12286TIP3   OH236734   5.694   7.919   2.131
12286TIP3    H136735   5.711   7.976   2.205
12286TIP3    H236736   5.663   7.978   2.062
12287TIP3   OH236737   0.353   8.238   2.079
12287TIP3    H136738   0.385   8.250   1.989
12287TIP3    H236739   0.358   8.325   2.118
12288TIP3   OH236740   5.265   1.462   0.841
12288TIP3    H136741   5.223   1.377   0.857
12288TIP3    H236742   5.358   1.441   0.837
12289TIP3   OH236743   7.403   2.036   1.744
12289TIP3    H136744   7.323   2.022   1.693
12289TIP3    H236745   7.395   1.974   1.817
12290TIP3   OH236746   0.578   2.726   6.982
12290TIP3    H136747   0.545   2.816   6.992
12290TIP3    H236748   0.527   2.675   7.046
12291TIP3   OH236749   8.788   1.996   7.270
12291TIP3    H136750   8.847   1.956   7.206
12291TIP3    H236751   8.842   2.058   7.318
12292TIP3   OH236752   7.745   5.243   3.453
12292TIP3    H136753   7.716   5.316   3.507
12292TIP3    H236754   7.694   5.250   3.372
12293TIP3   OH236755   2.600   3.551   0.253
12293TIP3    H136756   2.694   3.557   0.272
12293TIP3    H236757   2.594   3.557   0.158
12294TIP3   OH236758   6.239   3.731   2.080
12294TIP3    H136759   6.158   3.707   2.124
12294TIP3    H236760   6.302   3.663   2.104
12295TIP3   OH236761   7.175   5.970   1.298
12295TIP3    H136762   7.243   6.021   1.255
12295TIP3    H236763   7.221   5.924   1.369
12296TIP3   OH236764   3.910   7.722   1.747
12296TIP3    H136765   3.913   7.672   1.665
12296TIP3    H236766   3.900   7.655   1.815
12297TIP3   OH236767   2.985   4.738   1.929
12297TIP3    H136768   2.951   4.711   2.014
12297TIP3    H236769   3.058   4.678   1.913
12298TIP3   OH236770   0.394   0.705   5.839
12298TIP3    H136771   0.385   0.633   5.900
12298TIP3    H236772   0.404   0.783   5.894
12299TIP3   OH236773   7.105   1.671   5.265
12299TIP3    H136774   7.109   1.663   5.169
12299TIP3    H236775   7.012   1.660   5.285
12300TIP3   OH236776   4.158   1.796   3.580
12300TIP3    H136777   4.184   1.884   3.553
12300TIP3    H236778   4.240   1.748   3.589
12301TIP3   OH236779   6.228   8.587   0.596
12301TIP3    H136780   6.245   8.679   0.575
12301TIP3    H236781   6.315   8.546   0.596
12302TIP3   OH236782   7.756   8.898   7.383
12302TIP3    H136783   7.846   8.929   7.386
12302TIP3    H236784   7.711   8.959   7.324
12303TIP3   OH236785   5.930   4.536   7.646
12303TIP3    H136786   5.897   4.508   7.561
12303TIP3    H236787   5.999   4.599   7.626
12304TIP3   OH236788   4.252   2.447   7.119
12304TIP3    H136789   4.348   2.453   7.114
12304TIP3    H236790   4.227   2.402   7.039
12305TIP3   OH236791   9.203   2.137   6.096
12305TIP3    H136792   9.231   2.228   6.096
12305TIP3    H236793   9.147   2.128   6.019
12306TIP3   OH236794   8.610   6.638   4.414
12306TIP3    H136795   8.552   6.680   4.352
12306TIP3    H236796   8.587   6.545   4.411
12307TIP3   OH236797   2.370   2.453   6.078
12307TIP3    H136798   2.403   2.367   6.104
12307TIP3    H236799   2.446   2.511   6.087
12308TIP3   OH236800   6.344   7.643   3.054
12308TIP3    H136801   6.341   7.684   3.140
12308TIP3    H236802   6.383   7.709   2.996
12309TIP3   OH236803   8.690   1.999   5.000
12309TIP3    H136804   8.657   1.915   4.969
12309TIP3    H236805   8.668   2.061   4.929
12310TIP3   OH236806   9.502   0.855   3.354
12310TIP3    H136807   9.455   0.900   3.423
12310TIP3    H236808   9.591   0.844   3.388
12311TIP3   OH236809   9.354   3.675   6.328
12311TIP3    H136810   9.377   3.762   6.294
12311TIP3    H236811   9.339   3.622   6.250
12312TIP3   OH236812   1.435   0.586   3.109
12312TIP3    H136813   1.487   0.536   3.047
12312TIP3    H236814   1.355   0.609   3.062
12313TIP3   OH236815   8.822   5.640   0.851
12313TIP3    H136816   8.853   5.697   0.921
12313TIP3    H236817   8.895   5.636   0.788
12314TIP3   OH236818   2.446   8.047   3.643
12314TIP3    H136819   2.433   8.104   3.567
12314TIP3    H236820   2.522   7.994   3.621
12315TIP3   OH236821   3.824   6.893   3.002
12315TIP3    H136822   3.886   6.965   2.993
12315TIP3    H236823   3.870   6.817   2.966
12316TIP3   OH236824   4.378   2.071   1.188
12316TIP3    H136825   4.314   2.048   1.255
12316TIP3    H236826   4.425   2.146   1.223
12317TIP3   OH236827   3.372   5.350   6.539
12317TIP3    H136828   3.315   5.358   6.616
12317TIP3    H236829   3.336   5.276   6.490
12318TIP3   OH236830   6.958   5.177   3.114
12318TIP3    H136831   6.927   5.241   3.178
12318TIP3    H236832   6.916   5.095   3.140
12319TIP3   OH236833   0.593   6.712   5.942
12319TIP3    H136834   0.563   6.803   5.934
12319TIP3    H236835   0.560   6.683   6.026
12320TIP3   OH236836   5.444   1.974   7.011
12320TIP3    H136837   5.395   2.042   6.965
12320TIP3    H236838   5.468   1.911   6.942
12321TIP3   OH236839   5.767   6.247   5.579
12321TIP3    H136840   5.757   6.169   5.525
12321TIP3    H236841   5.749   6.217   5.668
12322TIP3   OH236842   2.260   2.018   4.391
12322TIP3    H136843   2.311   2.098   4.397
12322TIP3    H236844   2.324   1.948   4.406
12323TIP3   OH236845   3.646   5.726   7.304
12323TIP3    H136846   3.648   5.819   7.282
12323TIP3    H236847   3.586   5.687   7.240
12324TIP3   OH236848   0.411   8.908   7.776
12324TIP3    H136849   0.410   8.857   7.695
12324TIP3    H236850   0.334   8.878   7.824
12325TIP3   OH236851   8.091   7.043   4.360
12325TIP3    H136852   8.017   7.089   4.399
12325TIP3    H236853   8.104   6.966   4.415
12326TIP3   OH236854   0.206   8.571   1.930
12326TIP3    H136855   0.251   8.535   1.853
12326TIP3    H236856   0.204   8.665   1.915
12327TIP3   OH236857   7.158   1.048   6.825
12327TIP3    H136858   7.238   1.054   6.773
12327TIP3    H236859   7.184   1.078   6.912
12328TIP3   OH236860   7.048   6.399   2.157
12328TIP3    H136861   6.960   6.368   2.178
12328TIP3    H236862   7.035   6.485   2.117
12329TIP3   OH236863   1.033   1.662   5.679
12329TIP3    H136864   1.075   1.737   5.637
12329TIP3    H236865   1.002   1.695   5.763
12330TIP3   OH236866   2.708   0.915   5.416
12330TIP3    H136867   2.616   0.935   5.396
12330TIP3    H236868   2.753   0.999   5.406
12331TIP3   OH236869   3.010   0.095   1.725
12331TIP3    H136870   3.099   0.129   1.736
12331TIP3    H236871   2.953   0.169   1.751
12332TIP3   OH236872   7.920   1.102   3.997
12332TIP3    H136873   7.892   1.169   4.059
12332TIP3    H236874   7.838   1.064   3.964
12333TIP3   OH236875   1.741   3.484   1.837
12333TIP3    H136876   1.810   3.496   1.771
12333TIP3    H236877   1.664   3.460   1.786
12334TIP3   OH236878   9.452   6.826   6.538
12334TIP3    H136879   9.388   6.758   6.516
12334TIP3    H236880   9.480   6.860   6.453
12335TIP3   OH236881   1.520   8.469   3.486
12335TIP3    H136882   1.607   8.487   3.522
12335TIP3    H236883   1.524   8.503   3.396
12336TIP3   OH236884   3.533   4.183   5.998
12336TIP3    H136885   3.627   4.166   5.987
12336TIP3    H236886   3.505   4.118   6.062
12337TIP3   OH236887   4.564   7.933   5.957
12337TIP3    H136888   4.506   8.001   5.991
12337TIP3    H236889   4.539   7.924   5.865
12338TIP3   OH236890   6.204   2.004   3.688
12338TIP3    H136891   6.123   2.047   3.659
12338TIP3    H236892   6.268   2.027   3.620
12339TIP3   OH236893   4.893   2.870   5.081
12339TIP3    H136894   4.905   2.775   5.084
12339TIP3    H236895   4.834   2.888   5.155
12340TIP3   OH236896   7.919   8.633   7.513
12340TIP3    H136897   7.956   8.715   7.544
12340TIP3    H236898   7.968   8.565   7.559
12341TIP3   OH236899   5.214   1.695   6.013
12341TIP3    H136900   5.285   1.722   6.070
12341TIP3    H236901   5.174   1.620   6.057
12342TIP3   OH236902   5.931   8.052   4.197
12342TIP3    H136903   6.013   8.094   4.221
12342TIP3    H236904   5.881   8.048   4.279
12343TIP3   OH236905   9.228   6.880   3.927
12343TIP3    H136906   9.167   6.951   3.946
12343TIP3    H236907   9.177   6.819   3.873
12344TIP3   OH236908   1.340   5.202   4.137
12344TIP3    H136909   1.287   5.159   4.204
12344TIP3    H236910   1.281   5.216   4.064
12345TIP3   OH236911   8.677   0.708   4.961
12345TIP3    H136912   8.661   0.646   5.032
12345TIP3    H236913   8.766   0.740   4.978
12346TIP3   OH236914   1.633   4.753   4.583
12346TIP3    H136915   1.728   4.745   4.580
12346TIP3    H236916   1.607   4.773   4.492
12347TIP3   OH236917   0.208   3.455   4.201
12347TIP3    H136918   0.237   3.542   4.173
12347TIP3    H236919   0.245   3.395   4.135
12348TIP3   OH236920   4.111   5.733   1.925
12348TIP3    H136921   4.065   5.649   1.925
12348TIP3    H236922   4.051   5.793   1.970
12349TIP3   OH236923   6.026   6.591   2.650
12349TIP3    H136924   6.026   6.515   2.708
12349TIP3    H236925   5.972   6.565   2.576
12350TIP3   OH236926   8.667   3.632   3.984
12350TIP3    H136927   8.710   3.681   3.914
12350TIP3    H236928   8.591   3.592   3.943
12351TIP3   OH236929   0.468   8.636   1.048
12351TIP3    H136930   0.386   8.639   0.999
12351TIP3    H236931   0.492   8.727   1.062
12352TIP3   OH236932   1.428   2.918   3.457
12352TIP3    H136933   1.464   2.835   3.427
12352TIP3    H236934   1.470   2.984   3.401
12353TIP3   OH236935   1.436   1.867   0.738
12353TIP3    H136936   1.461   1.809   0.666
12353TIP3    H236937   1.409   1.948   0.696
12354TIP3   OH236938   7.784   3.193   7.152
12354TIP3    H136939   7.710   3.189   7.213
12354TIP3    H236940   7.831   3.111   7.166
12355TIP3   OH236941   4.568   5.128   4.124
12355TIP3    H136942   4.529   5.134   4.211
12355TIP3    H236943   4.498   5.092   4.069
12356TIP3   OH236944   9.106   8.564   4.332
12356TIP3    H136945   9.078   8.630   4.395
12356TIP3    H236946   9.042   8.570   4.261
12357TIP3   OH236947   0.858   7.353   2.620
12357TIP3    H136948   0.920   7.288   2.586
12357TIP3    H236949   0.849   7.331   2.713
12358TIP3   OH236950   4.159   1.371   3.874
12358TIP3    H136951   4.161   1.280   3.904
12358TIP3    H236952   4.163   1.365   3.779
12359TIP3   OH236953   5.784   4.869   5.740
12359TIP3    H136954   5.792   4.782   5.701
12359TIP3    H236955   5.724   4.916   5.682
12360TIP3   OH236956   2.881   4.549   1.415
12360TIP3    H136957   2.900   4.516   1.503
12360TIP3    H236958   2.806   4.499   1.385
12361TIP3   OH236959   4.163   6.870   4.005
12361TIP3    H136960   4.105   6.924   3.953
12361TIP3    H236961   4.251   6.898   3.980
12362TIP3   OH236962   6.731   3.388   7.262
12362TIP3    H136963   6.671   3.366   7.191
12362TIP3    H236964   6.733   3.310   7.318
12363TIP3   OH236965   2.130   0.344   5.610
12363TIP3    H136966   2.161   0.270   5.556
12363TIP3    H236967   2.145   0.316   5.700
12364TIP3   OH236968   4.426   1.955   2.221
12364TIP3    H136969   4.489   2.020   2.251
12364TIP3    H236970   4.445   1.877   2.273
12365TIP3   OH236971   1.089   8.545   3.504
12365TIP3    H136972   1.157   8.513   3.446
12365TIP3    H236973   1.124   8.625   3.542
12366TIP3   OH236974   1.424   3.873   5.983
12366TIP3    H136975   1.443   3.934   5.912
12366TIP3    H236976   1.330   3.857   5.975
12367TIP3   OH236977   1.647   3.368   4.730
12367TIP3    H136978   1.568   3.410   4.762
12367TIP3    H236979   1.718   3.407   4.780
12368TIP3   OH236980   5.565   8.737   5.842
12368TIP3    H136981   5.631   8.791   5.885
12368TIP3    H236982   5.497   8.799   5.816
12369TIP3   OH236983   4.872   5.190   4.157
12369TIP3    H136984   4.909   5.157   4.239
12369TIP3    H236985   4.779   5.169   4.163
12370TIP3   OH236986   0.141   4.307   1.402
12370TIP3    H136987   0.054   4.330   1.371
12370TIP3    H236988   0.129   4.283   1.494
12371TIP3   OH236989   5.642   2.545   3.218
12371TIP3    H136990   5.660   2.621   3.161
12371TIP3    H236991   5.608   2.584   3.298
12372TIP3   OH236992   4.643   7.976   7.582
12372TIP3    H136993   4.580   8.048   7.570
12372TIP3    H236994   4.652   7.967   7.677
12373TIP3   OH236995   6.175   4.584   6.765
12373TIP3    H136996   6.206   4.623   6.683
12373TIP3    H236997   6.086   4.617   6.775
12374TIP3   OH236998   4.436   1.743   6.927
12374TIP3    H136999   4.365   1.722   6.988
12374TIP3    H237000   4.453   1.661   6.881
12375TIP3   OH237001   2.098   7.792   5.217
12375TIP3    H137002   2.100   7.887   5.227
12375TIP3    H237003   2.016   7.765   5.260
12376TIP3   OH237004   4.719   7.614   2.065
12376TIP3    H137005   4.665   7.643   2.139
12376TIP3    H237006   4.689   7.524   2.048
12377TIP3   OH237007   8.320   7.654   2.262
12377TIP3    H137008   8.351   7.572   2.225
12377TIP3    H237009   8.355   7.722   2.204
12378TIP3   OH237010   7.570   7.318   5.014
12378TIP3    H137011   7.544   7.232   4.979
12378TIP3    H237012   7.665   7.311   5.025
12379TIP3   OH237013   7.213   4.307   0.699
12379TIP3    H137014   7.266   4.268   0.629
12379TIP3    H237015   7.273   4.367   0.744
12380TIP3   OH237016   2.724   4.857   6.046
12380TIP3    H137017   2.808   4.902   6.053
12380TIP3    H237018   2.740   4.784   5.987
12381TIP3   OH237019   5.661   7.117   2.342
12381TIP3    H137020   5.569   7.088   2.335
12381TIP3    H237021   5.707   7.062   2.278
12382TIP3   OH237022   0.143   8.095   2.164
12382TIP3    H137023   0.085   8.168   2.186
12382TIP3    H237024   0.214   8.135   2.114
12383TIP3   OH237025   5.136   4.468   6.850
12383TIP3    H137026   5.078   4.510   6.787
12383TIP3    H237027   5.224   4.495   6.822
12384TIP3   OH237028   1.012   5.844   2.335
12384TIP3    H137029   1.077   5.780   2.307
12384TIP3    H237030   0.934   5.792   2.355
12385TIP3   OH237031   0.314   2.494   3.902
12385TIP3    H137032   0.267   2.549   3.965
12385TIP3    H237033   0.277   2.406   3.914
12386TIP3   OH237034   2.823   5.714   5.107
12386TIP3    H137035   2.774   5.698   5.026
12386TIP3    H237036   2.915   5.700   5.082
12387TIP3   OH237037   2.613   7.406   7.544
12387TIP3    H137038   2.563   7.412   7.463
12387TIP3    H237039   2.612   7.313   7.566
12388TIP3   OH237040   2.949   2.995   0.765
12388TIP3    H137041   2.968   2.928   0.831
12388TIP3    H237042   2.855   2.988   0.749
12389TIP3   OH237043   3.905   3.242   1.559
12389TIP3    H137044   3.871   3.262   1.472
12389TIP3    H237045   3.999   3.234   1.547
12390TIP3   OH237046   2.879   2.573   5.024
12390TIP3    H137047   2.804   2.606   4.975
12390TIP3    H237048   2.875   2.478   5.013
12391TIP3   OH237049   4.344   2.681   4.199
12391TIP3    H137050   4.300   2.641   4.275
12391TIP3    H237051   4.279   2.675   4.129
12392TIP3   OH237052   3.552   7.050   1.338
12392TIP3    H137053   3.483   6.990   1.367
12392TIP3    H237054   3.508   7.111   1.280
12393TIP3   OH237055   2.729   8.582   2.975
12393TIP3    H137056   2.714   8.566   3.068
12393TIP3    H237057   2.787   8.510   2.948
12394TIP3   OH237058   2.517   6.512   6.500
12394TIP3    H137059   2.492   6.423   6.527
12394TIP3    H237060   2.470   6.526   6.418
12395TIP3   OH237061   5.602   7.601   1.231
12395TIP3    H137062   5.670   7.617   1.297
12395TIP3    H237063   5.537   7.670   1.247
12396TIP3   OH237064   7.863   7.915   3.446
12396TIP3    H137065   7.894   7.914   3.355
12396TIP3    H237066   7.878   8.005   3.475
12397TIP3   OH237067   5.324   3.120   7.436
12397TIP3    H137068   5.263   3.193   7.435
12397TIP3    H237069   5.409   3.159   7.458
12398TIP3   OH237070   3.883   6.145   6.412
12398TIP3    H137071   3.950   6.184   6.357
12398TIP3    H237072   3.924   6.067   6.448
12399TIP3   OH237073   0.579   0.518   4.204
12399TIP3    H137074   0.580   0.424   4.190
12399TIP3    H237075   0.644   0.533   4.273
12400TIP3   OH237076   1.783   6.748   0.947
12400TIP3    H137077   1.709   6.780   0.896
12400TIP3    H237078   1.822   6.827   0.985
12401TIP3   OH237079   8.175   7.888   1.065
12401TIP3    H137080   8.165   7.793   1.077
12401TIP3    H237081   8.264   7.906   1.094
12402TIP3   OH237082   7.722   5.236   6.864
12402TIP3    H137083   7.764   5.278   6.939
12402TIP3    H237084   7.637   5.206   6.896
12403TIP3   OH237085   3.485   5.846   1.619
12403TIP3    H137086   3.403   5.797   1.627
12403TIP3    H237087   3.501   5.879   1.707
12404TIP3   OH237088   5.578   7.078   2.761
12404TIP3    H137089   5.558   7.133   2.685
12404TIP3    H237090   5.535   6.995   2.742
12405TIP3   OH237091   2.961   6.617   2.876
12405TIP3    H137092   2.890   6.567   2.916
12405TIP3    H237093   3.020   6.550   2.841
12406TIP3   OH237094   4.789   7.562   4.311
12406TIP3    H137095   4.745   7.500   4.369
12406TIP3    H237096   4.760   7.648   4.342
12407TIP3   OH237097   5.807   4.963   5.401
12407TIP3    H137098   5.816   5.034   5.338
12407TIP3    H237099   5.865   4.894   5.368
12408TIP3   OH237100   7.626   6.772   1.918
12408TIP3    H137101   7.681   6.776   1.997
12408TIP3    H237102   7.623   6.862   1.886
12409TIP3   OH237103   5.339   2.092   7.358
12409TIP3    H137104   5.339   2.155   7.431
12409TIP3    H237105   5.249   2.096   7.324
12410TIP3   OH237106   8.221   7.210   6.205
12410TIP3    H137107   8.178   7.199   6.290
12410TIP3    H237108   8.281   7.284   6.219
12411TIP3   OH237109   3.088   4.048   4.215
12411TIP3    H137110   3.130   4.050   4.301
12411TIP3    H237111   2.995   4.059   4.233
12412TIP3   OH237112   0.725   4.306   2.080
12412TIP3    H137113   0.671   4.289   2.002
12412TIP3    H237114   0.770   4.388   2.060
12413TIP3   OH237115   4.961   1.841   4.197
12413TIP3    H137116   4.896   1.905   4.167
12413TIP3    H237117   4.917   1.757   4.191
12414TIP3   OH237118   7.517   4.146   1.492
12414TIP3    H137119   7.533   4.177   1.581
12414TIP3    H237120   7.536   4.052   1.495
12415TIP3   OH237121   0.441   2.336   3.674
12415TIP3    H137122   0.382   2.371   3.741
12415TIP3    H237123   0.454   2.409   3.613
12416TIP3   OH237124   3.001   2.059   4.902
12416TIP3    H137125   3.049   2.076   4.983
12416TIP3    H237126   3.026   2.130   4.843
12417TIP3   OH237127   7.455   5.289   4.281
12417TIP3    H137128   7.366   5.317   4.301
12417TIP3    H237129   7.503   5.302   4.363
12418TIP3   OH237130   1.287   5.413   0.082
12418TIP3    H137131   1.240   5.329   0.090
12418TIP3    H237132   1.240   5.472   0.140
12419TIP3   OH237133   5.234   3.830   2.923
12419TIP3    H137134   5.202   3.769   2.990
12419TIP3    H237135   5.158   3.884   2.902
12420TIP3   OH237136   3.033   2.446   0.442
12420TIP3    H137137   3.074   2.511   0.385
12420TIP3    H237138   2.987   2.388   0.382
12421TIP3   OH237139   5.485   6.552   5.835
12421TIP3    H137140   5.564   6.527   5.788
12421TIP3    H237141   5.436   6.606   5.774
12422TIP3   OH237142   3.398   8.610   4.732
12422TIP3    H137143   3.456   8.680   4.761
12422TIP3    H237144   3.384   8.556   4.810
12423TIP3   OH237145   7.596   2.988   7.078
12423TIP3    H137146   7.501   2.983   7.066
12423TIP3    H237147   7.630   3.006   6.990
12424TIP3   OH237148   4.450   6.535   5.075
12424TIP3    H137149   4.443   6.484   4.994
12424TIP3    H237150   4.510   6.486   5.129
12425TIP3   OH237151   6.163   6.661   7.564
12425TIP3    H137152   6.250   6.698   7.583
12425TIP3    H237153   6.148   6.600   7.636
12426TIP3   OH237154   5.981   5.583   6.900
12426TIP3    H137155   6.035   5.649   6.857
12426TIP3    H237156   6.030   5.501   6.889
12427TIP3   OH237157   9.286   0.995   5.133
12427TIP3    H137158   9.223   0.958   5.195
12427TIP3    H237159   9.352   1.038   5.187
12428TIP3   OH237160   6.951   3.528   6.398
12428TIP3    H137161   6.949   3.505   6.306
12428TIP3    H237162   6.860   3.539   6.423
12429TIP3   OH237163   7.723   7.879   7.066
12429TIP3    H137164   7.713   7.789   7.098
12429TIP3    H237165   7.650   7.927   7.105
12430TIP3   OH237166   4.750   2.033   4.160
12430TIP3    H137167   4.738   2.053   4.067
12430TIP3    H237168   4.662   2.037   4.198
12431TIP3   OH237169   7.567   2.928   3.347
12431TIP3    H137170   7.623   2.858   3.382
12431TIP3    H237171   7.586   3.004   3.403
12432TIP3   OH237172   8.705   3.964   6.016
12432TIP3    H137173   8.788   3.927   5.987
12432TIP3    H237174   8.644   3.890   6.014
12433TIP3   OH237175   3.694   1.393   7.209
12433TIP3    H137176   3.658   1.360   7.126
12433TIP3    H237177   3.670   1.486   7.210
12434TIP3   OH237178   8.053   1.955   2.063
12434TIP3    H137179   8.143   1.927   2.044
12434TIP3    H237180   8.016   1.884   2.114
12435TIP3   OH237181   0.841   6.631   6.678
12435TIP3    H137182   0.923   6.652   6.632
12435TIP3    H237183   0.851   6.674   6.763
12436TIP3   OH237184   5.487   7.060   1.696
12436TIP3    H137185   5.392   7.058   1.701
12436TIP3    H237186   5.511   6.975   1.657
12437TIP3   OH237187   7.746   7.583   6.996
12437TIP3    H137188   7.762   7.531   7.075
12437TIP3    H237189   7.780   7.529   6.925
12438TIP3   OH237190   7.137   4.262   2.934
12438TIP3    H137191   7.192   4.188   2.909
12438TIP3    H237192   7.186   4.340   2.907
12439TIP3   OH237193   2.219   6.263   5.842
12439TIP3    H137194   2.249   6.289   5.756
12439TIP3    H237195   2.127   6.286   5.844
12440TIP3   OH237196   8.020   0.176   0.559
12440TIP3    H137197   7.953   0.209   0.500
12440TIP3    H237198   8.001   0.218   0.643
12441TIP3   OH237199   4.497   0.014   0.814
12441TIP3    H137200   4.433  -0.054   0.793
12441TIP3    H237201   4.568  -0.033   0.859
12442TIP3   OH237202   0.635   2.250   4.798
12442TIP3    H137203   0.609   2.158   4.802
12442TIP3    H237204   0.722   2.252   4.838
12443TIP3   OH237205   7.208   5.737   0.405
12443TIP3    H137206   7.270   5.805   0.432
12443TIP3    H237207   7.261   5.659   0.395
12444TIP3   OH237208   3.839   7.211   2.706
12444TIP3    H137209   3.882   7.296   2.694
12444TIP3    H237210   3.890   7.168   2.774
12445TIP3   OH237211   5.337   4.459   1.396
12445TIP3    H137212   5.367   4.537   1.349
12445TIP3    H237213   5.244   4.477   1.415
12446TIP3   OH237214   8.477   2.149   6.965
12446TIP3    H137215   8.460   2.057   6.983
12446TIP3    H237216   8.451   2.161   6.874
12447TIP3   OH237217   0.729   3.743   0.818
12447TIP3    H137218   0.741   3.828   0.860
12447TIP3    H237219   0.731   3.762   0.724
12448TIP3   OH237220   2.621   6.989   0.630
12448TIP3    H137221   2.655   6.972   0.718
12448TIP3    H237222   2.644   7.081   0.613
12449TIP3   OH237223   0.470   8.701   0.133
12449TIP3    H137224   0.549   8.730   0.089
12449TIP3    H237225   0.494   8.697   0.226
12450TIP3   OH237226   2.532   1.454   6.393
12450TIP3    H137227   2.539   1.425   6.302
12450TIP3    H237228   2.471   1.391   6.433
12451TIP3   OH237229   3.139   0.179   7.753
12451TIP3    H137230   3.142   0.233   7.674
12451TIP3    H237231   3.172   0.094   7.724
12452TIP3   OH237232   6.495   3.077   1.309
12452TIP3    H137233   6.471   3.039   1.224
12452TIP3    H237234   6.489   3.004   1.370
12453TIP3   OH237235   4.326   2.128   1.597
12453TIP3    H137236   4.420   2.112   1.608
12453TIP3    H237237   4.319   2.222   1.584
12454TIP3   OH237238   4.144   4.054   3.373
12454TIP3    H137239   4.214   4.083   3.433
12454TIP3    H237240   4.191   4.019   3.298
12455TIP3   OH237241   6.984   7.312   4.388
12455TIP3    H137242   6.897   7.350   4.389
12455TIP3    H237243   6.978   7.236   4.447
12456TIP3   OH237244   1.446   5.620   5.546
12456TIP3    H137245   1.483   5.612   5.635
12456TIP3    H237246   1.493   5.554   5.495
12457TIP3   OH237247   4.935   7.780   2.031
12457TIP3    H137248   4.999   7.773   2.103
12457TIP3    H237249   4.890   7.696   2.031
12458TIP3   OH237250   6.921   7.596   2.203
12458TIP3    H137251   6.964   7.557   2.280
12458TIP3    H237252   6.993   7.618   2.144
12459TIP3   OH237253   0.209   2.353   7.148
12459TIP3    H137254   0.134   2.295   7.158
12459TIP3    H237255   0.209   2.406   7.228
12460TIP3   OH237256   8.842   7.716   7.412
12460TIP3    H137257   8.786   7.705   7.335
12460TIP3    H237258   8.780   7.725   7.485
12461TIP3   OH237259   4.999   3.975   2.873
12461TIP3    H137260   4.906   3.972   2.894
12461TIP3    H237261   5.016   4.065   2.847
12462TIP3   OH237262   1.983   5.606   6.027
12462TIP3    H137263   1.900   5.649   6.007
12462TIP3    H237264   1.973   5.517   5.992
12463TIP3   OH237265   1.126   4.797   4.358
12463TIP3    H137266   1.158   4.869   4.413
12463TIP3    H237267   1.160   4.718   4.399
12464TIP3   OH237268   6.428   1.853   2.438
12464TIP3    H137269   6.419   1.787   2.370
12464TIP3    H237270   6.513   1.836   2.477
12465TIP3   OH237271   5.004   5.843   7.513
12465TIP3    H137272   4.947   5.892   7.455
12465TIP3    H237273   5.074   5.810   7.456
12466TIP3   OH237274   6.253   6.506   0.453
12466TIP3    H137275   6.204   6.501   0.371
12466TIP3    H237276   6.331   6.557   0.430
12467TIP3   OH237277   3.998   6.489   4.354
12467TIP3    H137278   4.044   6.556   4.404
12467TIP3    H237279   4.009   6.409   4.404
12468TIP3   OH237280   5.644   5.096   1.563
12468TIP3    H137281   5.553   5.088   1.534
12468TIP3    H237282   5.661   5.190   1.566
12469TIP3   OH237283   4.621   6.372   2.192
12469TIP3    H137284   4.540   6.409   2.227
12469TIP3    H237285   4.617   6.390   2.098
12470TIP3   OH237286   5.730   0.573   4.347
12470TIP3    H137287   5.639   0.550   4.329
12470TIP3    H237288   5.781   0.500   4.311
12471TIP3   OH237289   4.519   7.278   1.651
12471TIP3    H137290   4.613   7.266   1.638
12471TIP3    H237291   4.483   7.283   1.562
12472TIP3   OH237292   4.291   6.798   2.650
12472TIP3    H137293   4.344   6.728   2.611
12472TIP3    H237294   4.202   6.765   2.648
12473TIP3   OH237295   7.830   0.558   0.591
12473TIP3    H137296   7.807   0.547   0.683
12473TIP3    H237297   7.810   0.649   0.572
12474TIP3   OH237298   7.215   3.595   3.922
12474TIP3    H137299   7.265   3.629   3.848
12474TIP3    H237300   7.124   3.619   3.903
12475TIP3   OH237301   9.524   2.725   1.425
12475TIP3    H137302   9.609   2.766   1.439
12475TIP3    H237303   9.493   2.703   1.513
12476TIP3   OH237304   6.525   1.833   4.495
12476TIP3    H137305   6.574   1.824   4.413
12476TIP3    H237306   6.472   1.911   4.482
12477TIP3   OH237307   6.964   5.988   4.216
12477TIP3    H137308   6.948   6.081   4.201
12477TIP3    H237309   6.927   5.944   4.139
12478TIP3   OH237310   8.167   8.938   2.957
12478TIP3    H137311   8.172   8.989   3.038
12478TIP3    H237312   8.251   8.891   2.953
12479TIP3   OH237313   2.720   5.560   4.502
12479TIP3    H137314   2.780   5.502   4.455
12479TIP3    H237315   2.661   5.594   4.435
12480TIP3   OH237316   2.252   3.725   3.201
12480TIP3    H137317   2.237   3.811   3.161
12480TIP3    H237318   2.346   3.723   3.218
12481TIP3   OH237319   8.554   7.421   5.867
12481TIP3    H137320   8.628   7.431   5.806
12481TIP3    H237321   8.550   7.327   5.884
12482TIP3   OH237322   8.057   8.633   0.766
12482TIP3    H137323   7.964   8.640   0.745
12482TIP3    H237324   8.081   8.544   0.740
12483TIP3   OH237325   4.949   0.081   6.998
12483TIP3    H137326   5.032   0.035   7.003
12483TIP3    H237327   4.961   0.146   6.930
12484TIP3   OH237328   0.289   5.087   0.866
12484TIP3    H137329   0.234   5.069   0.790
12484TIP3    H237330   0.249   5.038   0.937
12485TIP3   OH237331   2.086   2.700   6.454
12485TIP3    H137332   2.072   2.757   6.530
12485TIP3    H237333   1.998   2.682   6.421
12486TIP3   OH237334   4.181   3.135   6.985
12486TIP3    H137335   4.272   3.160   7.005
12486TIP3    H237336   4.164   3.060   7.042
12487TIP3   OH237337   8.020   5.781   3.924
12487TIP3    H137338   8.016   5.685   3.930
12487TIP3    H237339   8.046   5.798   3.833
12488TIP3   OH237340   2.461   1.820   7.370
12488TIP3    H137341   2.511   1.899   7.346
12488TIP3    H237342   2.527   1.753   7.385
12489TIP3   OH237343   7.261   8.162   7.418
12489TIP3    H137344   7.165   8.162   7.420
12489TIP3    H237345   7.286   8.084   7.468
12490TIP3   OH237346   2.013   8.768   2.027
12490TIP3    H137347   2.079   8.818   2.075
12490TIP3    H237348   1.942   8.756   2.090
12491TIP3   OH237349   9.303   8.166   0.367
12491TIP3    H137350   9.265   8.131   0.286
12491TIP3    H237351   9.273   8.256   0.370
12492TIP3   OH237352   8.924   5.409   2.312
12492TIP3    H137353   8.841   5.360   2.317
12492TIP3    H237354   8.983   5.360   2.370
12493TIP3   OH237355   1.504   8.681   1.331
12493TIP3    H137356   1.417   8.705   1.300
12493TIP3    H237357   1.492   8.666   1.425
12494TIP3   OH237358   8.448   2.180   7.535
12494TIP3    H137359   8.404   2.114   7.482
12494TIP3    H237360   8.435   2.262   7.487
12495TIP3   OH237361   1.749   5.123   3.005
12495TIP3    H137362   1.804   5.130   2.927
12495TIP3    H237363   1.802   5.162   3.075
12496TIP3   OH237364   7.829   3.866   6.920
12496TIP3    H137365   7.764   3.818   6.970
12496TIP3    H237366   7.787   3.881   6.835
12497TIP3   OH237367   3.549   2.006   0.107
12497TIP3    H137368   3.563   2.092   0.067
12497TIP3    H237369   3.475   2.019   0.167
12498TIP3   OH237370   1.344   3.910   2.314
12498TIP3    H137371   1.319   3.849   2.245
12498TIP3    H237372   1.390   3.981   2.268
12499TIP3   OH237373   3.023   8.711   5.658
12499TIP3    H137374   3.090   8.775   5.636
12499TIP3    H237375   3.062   8.627   5.636
12500TIP3   OH237376   0.076   0.123   0.213
12500TIP3    H137377   0.110   0.055   0.271
12500TIP3    H237378   0.060   0.079   0.130
12501TIP3   OH237379   3.696   1.068   3.836
12501TIP3    H137380   3.707   0.977   3.865
12501TIP3    H237381   3.617   1.097   3.880
12502TIP3   OH237382   4.859   5.743   1.821
12502TIP3    H137383   4.951   5.727   1.801
12502TIP3    H237384   4.834   5.816   1.763
12503TIP3   OH237385   4.421   5.141   1.304
12503TIP3    H137386   4.334   5.178   1.289
12503TIP3    H237387   4.409   5.084   1.380
12504TIP3   OH237388   7.669   2.057   6.298
12504TIP3    H137389   7.736   2.123   6.279
12504TIP3    H237390   7.607   2.102   6.356
12505TIP3   OH237391   2.071   7.200   0.362
12505TIP3    H137392   2.026   7.117   0.372
12505TIP3    H237393   2.035   7.238   0.282
12506TIP3   OH237394   9.184   4.178   0.365
12506TIP3    H137395   9.204   4.085   0.371
12506TIP3    H237396   9.159   4.203   0.454
12507TIP3   OH237397   4.317   4.699   7.352
12507TIP3    H137398   4.257   4.728   7.283
12507TIP3    H237399   4.342   4.610   7.326
12508TIP3   OH237400   5.529   8.292   2.627
12508TIP3    H137401   5.484   8.373   2.603
12508TIP3    H237402   5.616   8.322   2.656
12509TIP3   OH237403   2.537   1.084   2.846
12509TIP3    H137404   2.472   1.153   2.857
12509TIP3    H237405   2.585   1.082   2.929
12510TIP3   OH237406   4.628   5.720   2.051
12510TIP3    H137407   4.615   5.640   2.001
12510TIP3    H237408   4.540   5.758   2.058
12511TIP3   OH237409   3.107   1.769   5.670
12511TIP3    H137410   3.147   1.693   5.713
12511TIP3    H237411   3.172   1.799   5.608
12512TIP3   OH237412   1.664   6.986   7.551
12512TIP3    H137413   1.629   7.065   7.593
12512TIP3    H237414   1.697   6.933   7.624
12513TIP3   OH237415   4.354   1.360   4.820
12513TIP3    H137416   4.437   1.323   4.788
12513TIP3    H237417   4.290   1.336   4.753
12514TIP3   OH237418   4.390   4.958   1.509
12514TIP3    H137419   4.391   4.972   1.603
12514TIP3    H237420   4.344   4.875   1.496
12515TIP3   OH237421   4.398   7.565   4.198
12515TIP3    H137422   4.398   7.571   4.102
12515TIP3    H237423   4.368   7.651   4.227
12516TIP3   OH237424   5.506   6.222   0.155
12516TIP3    H137425   5.421   6.257   0.130
12516TIP3    H237426   5.567   6.295   0.144
12517TIP3   OH237427   9.418   7.658   4.580
12517TIP3    H137428   9.470   7.699   4.511
12517TIP3    H237429   9.402   7.727   4.644
12518TIP3   OH237430   0.997   7.497   3.275
12518TIP3    H137431   0.976   7.540   3.358
12518TIP3    H237432   1.010   7.568   3.213
12519TIP3   OH237433   0.834   7.910   7.296
12519TIP3    H137434   0.759   7.968   7.286
12519TIP3    H237435   0.861   7.889   7.207
12520TIP3   OH237436   7.024   3.066   5.016
12520TIP3    H137437   7.044   3.084   4.924
12520TIP3    H237438   6.975   3.143   5.045
12521TIP3   OH237439   7.226   8.473   0.135
12521TIP3    H137440   7.271   8.557   0.134
12521TIP3    H237441   7.133   8.495   0.124
12522TIP3   OH237442   2.044   7.870   4.441
12522TIP3    H137443   1.950   7.884   4.432
12522TIP3    H237444   2.058   7.779   4.416
12523TIP3   OH237445   1.337   8.566   6.630
12523TIP3    H137446   1.348   8.474   6.606
12523TIP3    H237447   1.300   8.607   6.552
12524TIP3   OH237448   5.847   2.513   3.636
12524TIP3    H137449   5.866   2.493   3.544
12524TIP3    H237450   5.851   2.609   3.640
12525TIP3   OH237451   8.929   2.641   6.982
12525TIP3    H137452   8.838   2.669   6.987
12525TIP3    H237453   8.928   2.563   6.926
12526TIP3   OH237454   1.935   1.585   6.411
12526TIP3    H137455   1.978   1.514   6.362
12526TIP3    H237456   2.007   1.639   6.443
12527TIP3   OH237457   3.216   8.329   3.328
12527TIP3    H137458   3.280   8.390   3.366
12527TIP3    H237459   3.146   8.325   3.392
12528TIP3   OH237460   5.041   1.389   3.813
12528TIP3    H137461   4.966   1.333   3.793
12528TIP3    H237462   5.034   1.405   3.908
12529TIP3   OH237463   8.800   2.899   7.553
12529TIP3    H137464   8.773   2.964   7.618
12529TIP3    H237465   8.895   2.910   7.546
12530TIP3   OH237466   8.534   6.850   3.811
12530TIP3    H137467   8.543   6.941   3.785
12530TIP3    H237468   8.537   6.851   3.906
12531TIP3   OH237469   4.020   4.848   6.735
12531TIP3    H137470   4.069   4.819   6.658
12531TIP3    H237471   3.958   4.912   6.701
12532TIP3   OH237472   1.652   5.577   3.009
12532TIP3    H137473   1.563   5.607   2.993
12532TIP3    H237474   1.663   5.582   3.104
12533TIP3   OH237475   2.141   0.944   3.155
12533TIP3    H137476   2.090   1.025   3.154
12533TIP3    H237477   2.100   0.889   3.087
12534TIP3   OH237478   7.838   4.166   5.418
12534TIP3    H137479   7.906   4.139   5.358
12534TIP3    H237480   7.756   4.143   5.374
12535TIP3   OH237481   8.251   8.612   1.237
12535TIP3    H137482   8.238   8.641   1.146
12535TIP3    H237483   8.343   8.589   1.242
12536TIP3   OH237484   8.015   3.473   7.454
12536TIP3    H137485   7.978   3.387   7.472
12536TIP3    H237486   7.994   3.489   7.362
12537TIP3   OH237487   0.945   7.818   3.664
12537TIP3    H137488   0.893   7.877   3.720
12537TIP3    H237489   0.880   7.773   3.611
12538TIP3   OH237490   9.166   6.663   4.382
12538TIP3    H137491   9.168   6.613   4.301
12538TIP3    H237492   9.095   6.727   4.369
12539TIP3   OH237493   5.669   4.422   2.842
12539TIP3    H137494   5.709   4.369   2.773
12539TIP3    H237495   5.719   4.504   2.840
12540TIP3   OH237496   9.008   4.488   1.649
12540TIP3    H137497   8.934   4.429   1.663
12540TIP3    H237498   8.975   4.574   1.673
12541TIP3   OH237499   7.860   1.505   0.273
12541TIP3    H137500   7.874   1.596   0.248
12541TIP3    H237501   7.894   1.498   0.362
12542TIP3   OH237502   7.008   4.651   6.724
12542TIP3    H137503   6.996   4.690   6.810
12542TIP3    H237504   6.927   4.669   6.677
12543TIP3   OH237505   5.998   8.089   6.686
12543TIP3    H137506   6.040   8.162   6.731
12543TIP3    H237507   5.934   8.131   6.628
12544TIP3   OH237508   8.502   8.249   4.992
12544TIP3    H137509   8.589   8.269   4.958
12544TIP3    H237510   8.494   8.154   4.983
12545TIP3   OH237511   7.772   6.773   0.793
12545TIP3    H137512   7.740   6.686   0.816
12545TIP3    H237513   7.802   6.811   0.875
12546TIP3   OH237514   1.053   0.740   3.266
12546TIP3    H137515   1.090   0.712   3.349
12546TIP3    H237516   0.966   0.772   3.288
12547TIP3   OH237517   0.961   0.831   6.152
12547TIP3    H137518   1.045   0.862   6.188
12547TIP3    H237519   0.924   0.777   6.221
12548TIP3   OH237520   7.859   1.604   6.134
12548TIP3    H137521   7.838   1.642   6.219
12548TIP3    H237522   7.868   1.679   6.075
12549TIP3   OH237523   2.775   8.556   3.245
12549TIP3    H137524   2.736   8.473   3.273
12549TIP3    H237525   2.869   8.536   3.235
12550TIP3   OH237526   4.905   7.405   0.540
12550TIP3    H137527   4.823   7.438   0.502
12550TIP3    H237528   4.970   7.471   0.517
12551TIP3   OH237529   8.768   2.453   2.996
12551TIP3    H137530   8.742   2.403   3.074
12551TIP3    H237531   8.819   2.391   2.944
12552TIP3   OH237532   5.799   2.957   2.132
12552TIP3    H137533   5.739   3.027   2.158
12552TIP3    H237534   5.742   2.885   2.106
12553TIP3   OH237535   0.511   6.331   1.700
12553TIP3    H137536   0.539   6.395   1.765
12553TIP3    H237537   0.465   6.264   1.751
12554TIP3   OH237538   6.771   5.891   0.322
12554TIP3    H137539   6.829   5.954   0.279
12554TIP3    H237540   6.828   5.846   0.385
12555TIP3   OH237541   8.506   0.582   3.475
12555TIP3    H137542   8.553   0.499   3.479
12555TIP3    H237543   8.416   0.557   3.453
12556TIP3   OH237544   0.800   6.183   4.815
12556TIP3    H137545   0.832   6.146   4.897
12556TIP3    H237546   0.879   6.205   4.766
12557TIP3   OH237547   4.661   1.478   5.458
12557TIP3    H137548   4.686   1.547   5.397
12557TIP3    H237549   4.723   1.488   5.531
12558TIP3   OH237550   0.104   4.595   7.543
12558TIP3    H137551   0.018   4.559   7.519
12558TIP3    H237552   0.120   4.662   7.477
12559TIP3   OH237553   5.850   4.262   2.626
12559TIP3    H137554   5.844   4.273   2.531
12559TIP3    H237555   5.918   4.197   2.640
12560TIP3   OH237556   7.365   6.077   2.477
12560TIP3    H137557   7.278   6.037   2.479
12560TIP3    H237558   7.348   6.171   2.473
12561TIP3   OH237559   8.995   7.838   5.561
12561TIP3    H137560   8.980   7.814   5.469
12561TIP3    H237561   9.084   7.874   5.562
12562TIP3   OH237562   2.254   4.374   6.858
12562TIP3    H137563   2.333   4.427   6.864
12562TIP3    H237564   2.182   4.436   6.869
12563TIP3   OH237565   9.325   6.650   4.865
12563TIP3    H137566   9.308   6.632   4.772
12563TIP3    H237567   9.253   6.707   4.892
12564TIP3   OH237568   2.204   0.372   4.760
12564TIP3    H137569   2.266   0.313   4.803
12564TIP3    H237570   2.184   0.438   4.826
12565TIP3   OH237571   7.650   0.129   7.767
12565TIP3    H137572   7.639   0.201   7.705
12565TIP3    H237573   7.710   0.068   7.724
12566TIP3   OH237574   6.601   2.765   7.551
12566TIP3    H137575   6.685   2.766   7.596
12566TIP3    H237576   6.567   2.676   7.566
12567TIP3   OH237577   0.925   8.404   6.695
12567TIP3    H137578   0.952   8.476   6.638
12567TIP3    H237579   0.965   8.424   6.779
12568TIP3   OH237580   1.689   1.645   6.817
12568TIP3    H137581   1.744   1.570   6.797
12568TIP3    H237582   1.651   1.625   6.903
12569TIP3   OH237583   8.146   1.777   3.929
12569TIP3    H137584   8.193   1.694   3.928
12569TIP3    H237585   8.091   1.773   4.007
12570TIP3   OH237586   3.825   1.602   4.940
12570TIP3    H137587   3.778   1.543   4.881
12570TIP3    H237588   3.890   1.545   4.982
12571TIP3   OH237589   7.413   8.072   5.506
12571TIP3    H137590   7.468   8.002   5.540
12571TIP3    H237591   7.341   8.026   5.462
12572TIP3   OH237592   1.583   4.722   6.125
12572TIP3    H137593   1.633   4.704   6.205
12572TIP3    H237594   1.620   4.804   6.092
12573TIP3   OH237595   8.796   3.671   0.811
12573TIP3    H137596   8.803   3.604   0.879
12573TIP3    H237597   8.710   3.658   0.772
12574TIP3   OH237598   4.331   5.137   3.985
12574TIP3    H137599   4.251   5.139   4.038
12574TIP3    H237600   4.349   5.230   3.967
12575TIP3   OH237601   1.381   5.339   7.761
12575TIP3    H137602   1.466   5.384   7.767
12575TIP3    H237603   1.369   5.323   7.668
12576TIP3   OH237604   1.327   7.825   4.958
12576TIP3    H137605   1.413   7.867   4.955
12576TIP3    H237606   1.344   7.734   4.931
12577TIP3   OH237607   7.849   4.711   7.064
12577TIP3    H137608   7.865   4.623   7.100
12577TIP3    H237609   7.919   4.723   7.000
12578TIP3   OH237610   3.381   6.928   6.517
12578TIP3    H137611   3.452   6.948   6.456
12578TIP3    H237612   3.304   6.915   6.462
12579TIP3   OH237613   8.431   0.945   6.439
12579TIP3    H137614   8.481   0.864   6.428
12579TIP3    H237615   8.340   0.919   6.423
12580TIP3   OH237616   7.111   1.121   0.765
12580TIP3    H137617   7.032   1.130   0.711
12580TIP3    H237618   7.084   1.147   0.853
12581TIP3   OH237619   4.796   8.432   0.236
12581TIP3    H137620   4.762   8.350   0.201
12581TIP3    H237621   4.882   8.441   0.197
12582TIP3   OH237622   3.469   1.089   4.603
12582TIP3    H137623   3.433   1.002   4.587
12582TIP3    H237624   3.560   1.083   4.575
12583TIP3   OH237625   3.125   0.101   0.506
12583TIP3    H137626   3.097   0.025   0.557
12583TIP3    H237627   3.082   0.089   0.421
12584TIP3   OH237628   4.636   8.713   5.889
12584TIP3    H137629   4.627   8.680   5.800
12584TIP3    H237630   4.556   8.685   5.933
12585TIP3   OH237631   2.436   6.001   3.473
12585TIP3    H137632   2.475   5.967   3.392
12585TIP3    H237633   2.397   5.924   3.515
12586TIP3   OH237634   4.433   4.005   1.668
12586TIP3    H137635   4.375   4.059   1.722
12586TIP3    H237636   4.381   3.981   1.592
12587TIP3   OH237637   9.523   7.547   5.557
12587TIP3    H137638   9.496   7.603   5.630
12587TIP3    H237639   9.461   7.474   5.559
12588TIP3   OH237640   3.456   3.320   1.325
12588TIP3    H137641   3.419   3.391   1.273
12588TIP3    H237642   3.528   3.361   1.373
12589TIP3   OH237643   4.426   5.849   6.677
12589TIP3    H137644   4.368   5.868   6.750
12589TIP3    H237645   4.434   5.753   6.676
12590TIP3   OH237646   3.443   6.414   5.615
12590TIP3    H137647   3.467   6.507   5.622
12590TIP3    H237648   3.383   6.399   5.688
12591TIP3   OH237649   3.960   7.820   4.424
12591TIP3    H137650   4.039   7.799   4.474
12591TIP3    H237651   3.976   7.909   4.391
12592TIP3   OH237652   8.747   3.548   1.517
12592TIP3    H137653   8.754   3.643   1.510
12592TIP3    H237654   8.820   3.523   1.573
12593TIP3   OH237655   1.922   5.593   6.648
12593TIP3    H137656   1.937   5.585   6.554
12593TIP3    H237657   1.932   5.687   6.665
12594TIP3   OH237658   3.477   2.387   6.356
12594TIP3    H137659   3.415   2.458   6.366
12594TIP3    H237660   3.446   2.319   6.416
12595TIP3   OH237661   3.358   5.250   1.156
12595TIP3    H137662   3.297   5.291   1.218
12595TIP3    H237663   3.328   5.279   1.070
12596TIP3   OH237664   8.357   5.474   0.142
12596TIP3    H137665   8.395   5.500   0.226
12596TIP3    H237666   8.405   5.395   0.117
12597TIP3   OH237667   1.899   6.673   5.915
12597TIP3    H137668   1.846   6.623   5.977
12597TIP3    H237669   1.879   6.634   5.830
12598TIP3   OH237670   1.097   2.612   1.196
12598TIP3    H137671   1.159   2.681   1.220
12598TIP3    H237672   1.086   2.622   1.102
12599TIP3   OH237673   2.825   3.475   1.593
12599TIP3    H137674   2.840   3.569   1.580
12599TIP3    H237675   2.884   3.433   1.531
12600TIP3   OH237676   2.481   3.299   0.149
12600TIP3    H137677   2.439   3.231   0.202
12600TIP3    H237678   2.517   3.361   0.212
12601TIP3   OH237679   5.701   7.444   3.324
12601TIP3    H137680   5.788   7.452   3.363
12601TIP3    H237681   5.686   7.529   3.281
12602TIP3   OH237682   7.499   5.180   6.456
12602TIP3    H137683   7.559   5.234   6.508
12602TIP3    H237684   7.473   5.237   6.383
12603TIP3   OH237685   3.176   6.450   6.292
12603TIP3    H137686   3.100   6.450   6.234
12603TIP3    H237687   3.139   6.443   6.380
12604TIP3   OH237688   5.002   5.356   5.028
12604TIP3    H137689   4.929   5.326   4.973
12604TIP3    H237690   4.995   5.305   5.108
12605TIP3   OH237691   8.076   3.490   3.833
12605TIP3    H137692   8.008   3.558   3.837
12605TIP3    H237693   8.073   3.448   3.919
12606TIP3   OH237694   7.646   5.711   2.873
12606TIP3    H137695   7.615   5.692   2.784
12606TIP3    H237696   7.575   5.762   2.912
12607TIP3   OH237697   9.552   5.914   3.303
12607TIP3    H137698   9.628   5.927   3.245
12607TIP3    H237699   9.478   5.910   3.243
12608TIP3   OH237700   7.157   0.744   4.355
12608TIP3    H137701   7.062   0.735   4.357
12608TIP3    H237702   7.175   0.795   4.276
12609TIP3   OH237703   6.570   5.643   1.897
12609TIP3    H137704   6.581   5.630   1.991
12609TIP3    H237705   6.504   5.713   1.890
12610TIP3   OH237706   5.291   6.576   6.247
12610TIP3    H137707   5.383   6.555   6.236
12610TIP3    H237708   5.267   6.621   6.166
12611TIP3   OH237709   0.434   6.660   3.902
12611TIP3    H137710   0.343   6.634   3.918
12611TIP3    H237711   0.482   6.632   3.980
12612TIP3   OH237712   2.824   2.181   2.330
12612TIP3    H137713   2.904   2.166   2.380
12612TIP3    H237714   2.761   2.214   2.394
12613TIP3   OH237715   0.040   5.990   0.571
12613TIP3    H137716   0.135   5.997   0.575
12613TIP3    H237717   0.024   5.913   0.516
12614TIP3   OH237718   4.831   4.311   1.730
12614TIP3    H137719   4.885   4.346   1.800
12614TIP3    H237720   4.757   4.270   1.776
12615TIP3   OH237721   7.611   3.847   3.350
12615TIP3    H137722   7.652   3.788   3.414
12615TIP3    H237723   7.682   3.904   3.321
12616TIP3   OH237724   2.275   3.111   2.878
12616TIP3    H137725   2.211   3.040   2.883
12616TIP3    H237726   2.246   3.174   2.944
12617TIP3   OH237727   3.216   5.597   5.789
12617TIP3    H137728   3.121   5.593   5.776
12617TIP3    H237729   3.249   5.636   5.708
12618TIP3   OH237730   2.553   0.519   6.727
12618TIP3    H137731   2.537   0.600   6.776
12618TIP3    H237732   2.487   0.519   6.658
12619TIP3   OH237733   0.158   1.281   3.760
12619TIP3    H137734   0.157   1.377   3.762
12619TIP3    H237735   0.150   1.254   3.851
12620TIP3   OH237736   5.356   6.338   1.922
12620TIP3    H137737   5.322   6.354   1.834
12620TIP3    H237738   5.373   6.244   1.925
12621TIP3   OH237739   0.992   4.084   4.958
12621TIP3    H137740   0.897   4.090   4.969
12621TIP3    H237741   1.008   4.116   4.869
12622TIP3   OH237742   1.353   6.029   7.290
12622TIP3    H137743   1.341   5.953   7.346
12622TIP3    H237744   1.281   6.088   7.313
12623TIP3   OH237745   0.482   0.588   3.298
12623TIP3    H137746   0.411   0.621   3.354
12623TIP3    H237747   0.551   0.564   3.359
12624TIP3   OH237748   1.682   5.989   1.931
12624TIP3    H137749   1.714   6.015   2.018
12624TIP3    H237750   1.600   5.943   1.949
12625TIP3   OH237751   4.715   1.839   3.504
12625TIP3    H137752   4.709   1.755   3.550
12625TIP3    H237753   4.716   1.905   3.574
12626TIP3   OH237754   3.449   1.809   5.670
12626TIP3    H137755   3.464   1.717   5.689
12626TIP3    H237756   3.490   1.823   5.585
12627TIP3   OH237757   2.275   4.015   3.216
12627TIP3    H137758   2.279   4.086   3.152
12627TIP3    H237759   2.182   4.007   3.238
12628TIP3   OH237760   7.109   7.211   1.534
12628TIP3    H137761   7.021   7.244   1.550
12628TIP3    H237762   7.117   7.210   1.438
12629TIP3   OH237763   4.529   0.675   4.302
12629TIP3    H137764   4.474   0.653   4.377
12629TIP3    H237765   4.544   0.591   4.257
12630TIP3   OH237766   7.006   7.350   4.904
12630TIP3    H137767   7.051   7.434   4.893
12630TIP3    H237768   6.959   7.359   4.987
12631TIP3   OH237769   5.268   5.726   0.462
12631TIP3    H137770   5.191   5.668   0.461
12631TIP3    H237771   5.312   5.709   0.380
12632TIP3   OH237772   1.319   0.032   7.123
12632TIP3    H137773   1.310  -0.047   7.069
12632TIP3    H237774   1.407   0.063   7.105
12633TIP3   OH237775   2.282   4.202   4.296
12633TIP3    H137776   2.198   4.242   4.273
12633TIP3    H237777   2.348   4.263   4.263
12634TIP3   OH237778   0.907   3.194   1.503
12634TIP3    H137779   0.880   3.256   1.435
12634TIP3    H237780   0.830   3.183   1.558
12635TIP3   OH237781   3.668   2.019   2.004
12635TIP3    H137782   3.736   2.044   2.066
12635TIP3    H237783   3.705   1.943   1.958
12636TIP3   OH237784   4.691   8.937   0.041
12636TIP3    H137785   4.696   8.844   0.065
12636TIP3    H237786   4.697   8.983   0.125
12637TIP3   OH237787   5.140   8.944   4.322
12637TIP3    H137788   5.198   9.016   4.299
12637TIP3    H237789   5.055   8.986   4.338
12638TIP3   OH237790   7.266   4.005   2.242
12638TIP3    H137791   7.230   4.085   2.203
12638TIP3    H237792   7.217   3.994   2.324
12639TIP3   OH237793   4.753   6.124   2.240
12639TIP3    H137794   4.831   6.174   2.261
12639TIP3    H237795   4.684   6.189   2.228
12640TIP3   OH237796   3.996   0.114   5.606
12640TIP3    H137797   4.012   0.161   5.525
12640TIP3    H237798   4.066   0.049   5.612
12641TIP3   OH237799   0.810   4.460   4.944
12641TIP3    H137800   0.803   4.385   4.884
12641TIP3    H237801   0.752   4.526   4.906
12642TIP3   OH237802   6.927   1.625   7.603
12642TIP3    H137803   6.872   1.557   7.565
12642TIP3    H237804   6.999   1.577   7.645
12643TIP3   OH237805   9.548   1.455   1.564
12643TIP3    H137806   9.641   1.456   1.544
12643TIP3    H237807   9.542   1.409   1.648
12644TIP3   OH237808   8.706   4.543   5.410
12644TIP3    H137809   8.662   4.504   5.485
12644TIP3    H237810   8.799   4.537   5.432
12645TIP3   OH237811   8.543   1.437   5.604
12645TIP3    H137812   8.598   1.359   5.614
12645TIP3    H237813   8.579   1.499   5.667
12646TIP3   OH237814   8.152   8.458   1.831
12646TIP3    H137815   8.128   8.367   1.849
12646TIP3    H237816   8.099   8.483   1.755
12647TIP3   OH237817   8.566   0.129   7.032
12647TIP3    H137818   8.649   0.170   7.056
12647TIP3    H237819   8.500   0.179   7.080
12648TIP3   OH237820   1.524   1.945   1.582
12648TIP3    H137821   1.517   1.850   1.572
12648TIP3    H237822   1.515   1.960   1.676
12649TIP3   OH237823   8.904   8.846   7.445
12649TIP3    H137824   8.932   8.809   7.529
12649TIP3    H237825   8.880   8.936   7.466
12650TIP3   OH237826   6.864   5.553   1.809
12650TIP3    H137827   6.782   5.522   1.847
12650TIP3    H237828   6.891   5.625   1.866
12651TIP3   OH237829   0.922   6.124   2.017
12651TIP3    H137830   0.842   6.095   1.973
12651TIP3    H237831   0.895   6.199   2.069
12652TIP3   OH237832   8.864   7.795   1.023
12652TIP3    H137833   8.797   7.743   0.978
12652TIP3    H237834   8.815   7.848   1.086
12653TIP3   OH237835   5.966   0.701   3.528
12653TIP3    H137836   6.031   0.631   3.518
12653TIP3    H237837   5.989   0.766   3.462
12654TIP3   OH237838   2.570   0.240   4.984
12654TIP3    H137839   2.660   0.211   4.999
12654TIP3    H237840   2.561   0.319   5.039
12655TIP3   OH237841   9.329   0.209   7.527
12655TIP3    H137842   9.312   0.298   7.557
12655TIP3    H237843   9.424   0.199   7.533
12656TIP3   OH237844   1.218   0.957   5.018
12656TIP3    H137845   1.202   1.024   5.084
12656TIP3    H237846   1.287   0.903   5.055
12657TIP3   OH237847   5.929   2.172   4.760
12657TIP3    H137848   6.013   2.178   4.715
12657TIP3    H237849   5.865   2.204   4.697
12658TIP3   OH237850   8.446   6.947   5.480
12658TIP3    H137851   8.383   6.888   5.438
12658TIP3    H237852   8.410   6.962   5.568
12659TIP3   OH237853   5.478   7.290   0.455
12659TIP3    H137854   5.492   7.317   0.546
12659TIP3    H237855   5.413   7.352   0.422
12660TIP3   OH237856   1.581   6.722   1.242
12660TIP3    H137857   1.622   6.806   1.220
12660TIP3    H237858   1.517   6.707   1.172
12661TIP3   OH237859   0.102   3.245   2.798
12661TIP3    H137860   0.107   3.314   2.865
12661TIP3    H237861   0.104   3.293   2.715
12662TIP3   OH237862   4.121   1.092   2.890
12662TIP3    H137863   4.064   1.167   2.907
12662TIP3    H237864   4.210   1.128   2.897
12663TIP3   OH237865   0.833   4.683   4.615
12663TIP3    H137866   0.917   4.721   4.640
12663TIP3    H237867   0.855   4.594   4.588
12664TIP3   OH237868   0.834   7.350   3.531
12664TIP3    H137869   0.832   7.326   3.623
12664TIP3    H237870   0.846   7.268   3.484
12665TIP3   OH237871   4.410   1.153   0.723
12665TIP3    H137872   4.410   1.107   0.807
12665TIP3    H237873   4.406   1.082   0.658
12666TIP3   OH237874   2.935   7.221   2.844
12666TIP3    H137875   2.950   7.211   2.938
12666TIP3    H237876   3.013   7.182   2.804
12667TIP3   OH237877   7.956   0.915   6.119
12667TIP3    H137878   7.976   0.838   6.065
12667TIP3    H237879   7.862   0.930   6.106
12668TIP3   OH237880   8.602   1.911   0.948
12668TIP3    H137881   8.626   2.000   0.923
12668TIP3    H237882   8.574   1.869   0.867
12669TIP3   OH237883   7.949   0.939   5.290
12669TIP3    H137884   7.979   1.030   5.298
12669TIP3    H237885   7.987   0.908   5.208
12670TIP3   OH237886   2.627   6.172   0.680
12670TIP3    H137887   2.572   6.139   0.751
12670TIP3    H237888   2.575   6.240   0.639
12671TIP3   OH237889   2.228   5.243   3.012
12671TIP3    H137890   2.241   5.174   2.947
12671TIP3    H237891   2.316   5.263   3.043
12672TIP3   OH237892   7.227   2.335   0.843
12672TIP3    H137893   7.158   2.320   0.778
12672TIP3    H237894   7.233   2.430   0.850
12673TIP3   OH237895   5.779   7.432   2.235
12673TIP3    H137896   5.689   7.429   2.202
12673TIP3    H237897   5.813   7.515   2.202
12674TIP3   OH237898   6.693   5.398   0.397
12674TIP3    H137899   6.680   5.378   0.490
12674TIP3    H237900   6.739   5.322   0.362
12675TIP3   OH237901   3.895   8.094   5.713
12675TIP3    H137902   3.955   8.163   5.683
12675TIP3    H237903   3.815   8.109   5.663
12676TIP3   OH237904   5.009   1.793   6.285
12676TIP3    H137905   5.014   1.738   6.363
12676TIP3    H237906   4.939   1.754   6.232
12677TIP3   OH237907   5.031   6.551   5.153
12677TIP3    H137908   5.077   6.480   5.108
12677TIP3    H237909   4.992   6.603   5.082
12678TIP3   OH237910   6.692   6.845   5.688
12678TIP3    H137911   6.649   6.860   5.772
12678TIP3    H237912   6.661   6.759   5.660
12679TIP3   OH237913   2.272   6.841   1.837
12679TIP3    H137914   2.313   6.827   1.752
12679TIP3    H237915   2.336   6.892   1.887
12680TIP3   OH237916   0.041   6.493   4.571
12680TIP3    H137917  -0.042   6.471   4.613
12680TIP3    H237918   0.031   6.584   4.544
12681TIP3   OH237919   1.808   4.556   6.656
12681TIP3    H137920   1.860   4.613   6.599
12681TIP3    H237921   1.720   4.594   6.654
12682TIP3   OH237922   3.939   3.163   0.581
12682TIP3    H137923   3.859   3.115   0.605
12682TIP3    H237924   3.906   3.244   0.543
12683TIP3   OH237925   3.136   7.906   4.001
12683TIP3    H137926   3.044   7.928   4.017
12683TIP3    H237927   3.134   7.815   3.971
12684TIP3   OH237928   7.050   1.293   7.334
12684TIP3    H137929   6.994   1.291   7.256
12684TIP3    H237930   7.092   1.379   7.331
12685TIP3   OH237931   5.998   6.506   7.008
12685TIP3    H137932   5.961   6.423   6.978
12685TIP3    H237933   5.931   6.543   7.065
12686TIP3   OH237934   9.117   4.645   7.311
12686TIP3    H137935   9.075   4.698   7.379
12686TIP3    H237936   9.057   4.650   7.237
12687TIP3   OH237937   5.761   4.475   6.108
12687TIP3    H137938   5.841   4.525   6.122
12687TIP3    H237939   5.736   4.445   6.195
12688TIP3   OH237940   1.991   3.120   1.123
12688TIP3    H137941   2.040   3.051   1.168
12688TIP3    H237942   1.979   3.188   1.189
12689TIP3   OH237943   5.693   8.507   3.046
12689TIP3    H137944   5.686   8.424   3.094
12689TIP3    H237945   5.730   8.568   3.110
12690TIP3   OH237946   2.594   3.791   0.982
12690TIP3    H137947   2.577   3.713   1.035
12690TIP3    H237948   2.615   3.757   0.895
12691TIP3   OH237949   3.602   2.797   2.144
12691TIP3    H137950   3.693   2.782   2.118
12691TIP3    H237951   3.603   2.884   2.184
12692TIP3   OH237952   7.368   6.415   2.056
12692TIP3    H137953   7.354   6.508   2.070
12692TIP3    H237954   7.390   6.380   2.142
12693TIP3   OH237955   6.043   2.893   1.422
12693TIP3    H137956   5.969   2.935   1.378
12693TIP3    H237957   6.014   2.803   1.437
12694TIP3   OH237958   8.925   8.846   4.286
12694TIP3    H137959   8.926   8.866   4.192
12694TIP3    H237960   8.914   8.931   4.328
12695TIP3   OH237961   8.166   0.473   4.614
12695TIP3    H137962   8.191   0.438   4.529
12695TIP3    H237963   8.234   0.443   4.674
12696TIP3   OH237964   8.305   3.483   7.508
12696TIP3    H137965   8.311   3.448   7.419
12696TIP3    H237966   8.211   3.484   7.528
12697TIP3   OH237967   7.311   6.877   7.414
12697TIP3    H137968   7.316   6.972   7.420
12697TIP3    H237969   7.373   6.853   7.345
12698TIP3   OH237970   3.251   6.389   0.555
12698TIP3    H137971   3.168   6.437   0.555
12698TIP3    H237972   3.242   6.324   0.625
12699TIP3   OH237973   1.920   5.818   6.393
12699TIP3    H137974   1.987   5.884   6.411
12699TIP3    H237975   1.849   5.867   6.351
12700TIP3   OH237976   9.533   3.922   5.586
12700TIP3    H137977   9.536   3.827   5.579
12700TIP3    H237978   9.584   3.953   5.510
12701TIP3   OH237979   3.923   2.147   3.819
12701TIP3    H137980   4.017   2.136   3.832
12701TIP3    H237981   3.884   2.070   3.861
12702TIP3   OH237982   8.608   6.846   4.103
12702TIP3    H137983   8.648   6.912   4.160
12702TIP3    H237984   8.676   6.780   4.092
12703TIP3   OH237985   7.400   0.309   5.852
12703TIP3    H137986   7.382   0.354   5.934
12703TIP3    H237987   7.494   0.295   5.851
12704TIP3   OH237988   2.314   1.358   1.420
12704TIP3    H137989   2.318   1.270   1.458
12704TIP3    H237990   2.260   1.347   1.341
12705TIP3   OH237991   9.155   7.345   0.736
12705TIP3    H137992   9.200   7.321   0.817
12705TIP3    H237993   9.064   7.361   0.763
12706TIP3   OH237994   1.145   1.134   5.261
12706TIP3    H137995   1.080   1.170   5.201
12706TIP3    H237996   1.164   1.206   5.322
12707TIP3   OH237997   2.639   2.320   5.349
12707TIP3    H137998   2.598   2.395   5.391
12707TIP3    H237999   2.639   2.252   5.417
12708TIP3   OH238000   9.382   4.423   5.600
12708TIP3    H138001   9.346   4.406   5.513
12708TIP3    H238002   9.467   4.379   5.600
12709TIP3   OH238003   1.591   7.601   3.168
12709TIP3    H138004   1.547   7.528   3.123
12709TIP3    H238005   1.650   7.558   3.231
12710TIP3   OH238006   7.720   5.025   4.209
12710TIP3    H138007   7.660   5.005   4.281
12710TIP3    H238008   7.667   5.074   4.147
12711TIP3   OH238009   0.713   1.971   7.217
12711TIP3    H138010   0.757   1.913   7.278
12711TIP3    H238011   0.671   2.037   7.272
12712TIP3   OH238012   7.122   7.712   6.715
12712TIP3    H138013   7.038   7.712   6.668
12712TIP3    H238014   7.149   7.621   6.717
12713TIP3   OH238015   5.692   4.163   3.628
12713TIP3    H138016   5.693   4.105   3.705
12713TIP3    H238017   5.784   4.182   3.611
12714TIP3   OH238018   8.362   8.512   4.068
12714TIP3    H138019   8.304   8.571   4.116
12714TIP3    H238020   8.417   8.569   4.015
12715TIP3   OH238021   3.020   7.281   5.396
12715TIP3    H138022   3.039   7.356   5.339
12715TIP3    H238023   3.100   7.269   5.447
12716TIP3   OH238024   2.320   7.141   7.533
12716TIP3    H138025   2.256   7.070   7.541
12716TIP3    H238026   2.294   7.188   7.454
12717TIP3   OH238027   5.783   2.092   6.844
12717TIP3    H138028   5.822   2.064   6.927
12717TIP3    H238029   5.712   2.151   6.870
12718TIP3   OH238030   5.064   0.653   4.087
12718TIP3    H138031   5.060   0.637   3.993
12718TIP3    H238032   5.075   0.748   4.095
12719TIP3   OH238033   3.769   0.499   3.818
12719TIP3    H138034   3.752   0.542   3.734
12719TIP3    H238035   3.861   0.472   3.812
12720TIP3   OH238036   6.733   8.495   2.341
12720TIP3    H138037   6.680   8.523   2.415
12720TIP3    H238038   6.685   8.422   2.302
12721TIP3   OH238039   2.839   0.774   2.498
12721TIP3    H138040   2.863   0.689   2.462
12721TIP3    H238041   2.761   0.800   2.448
12722TIP3   OH238042   6.002   6.302   2.535
12722TIP3    H138043   6.095   6.320   2.531
12722TIP3    H238044   5.995   6.206   2.528
12723TIP3   OH238045   9.213   8.795   4.728
12723TIP3    H138046   9.303   8.820   4.750
12723TIP3    H238047   9.167   8.878   4.719
12724TIP3   OH238048   3.982   7.940   3.579
12724TIP3    H138049   4.037   8.012   3.550
12724TIP3    H238050   4.010   7.923   3.669
12725TIP3   OH238051   2.734   1.195   1.972
12725TIP3    H138052   2.701   1.109   1.949
12725TIP3    H238053   2.703   1.253   1.903
12726TIP3   OH238054   7.103   1.788   2.576
12726TIP3    H138055   7.131   1.802   2.486
12726TIP3    H238056   7.096   1.876   2.613
12727TIP3   OH238057   4.339   8.281   0.274
12727TIP3    H138058   4.347   8.192   0.239
12727TIP3    H238059   4.261   8.277   0.330
12728TIP3   OH238060   3.377   8.235   6.093
12728TIP3    H138061   3.319   8.281   6.032
12728TIP3    H238062   3.415   8.304   6.146
12729TIP3   OH238063   5.526   1.643   3.850
12729TIP3    H138064   5.457   1.677   3.793
12729TIP3    H238065   5.588   1.716   3.857
12730TIP3   OH238066   4.790   7.250   3.807
12730TIP3    H138067   4.864   7.310   3.821
12730TIP3    H238068   4.739   7.256   3.888
12731TIP3   OH238069   7.295   5.207   1.607
12731TIP3    H138070   7.283   5.234   1.516
12731TIP3    H238071   7.238   5.130   1.617
12732TIP3   OH238072   3.782   2.431   5.754
12732TIP3    H138073   3.758   2.352   5.803
12732TIP3    H238074   3.762   2.503   5.813
12733TIP3   OH238075   1.814   2.345   3.591
12733TIP3    H138076   1.784   2.426   3.633
12733TIP3    H238077   1.844   2.290   3.663
12734TIP3   OH238078   4.941   5.272   6.350
12734TIP3    H138079   4.947   5.355   6.397
12734TIP3    H238080   4.966   5.206   6.415
12735TIP3   OH238081   5.521   0.245   2.779
12735TIP3    H138082   5.609   0.243   2.817
12735TIP3    H238083   5.479   0.319   2.822
12736TIP3   OH238084   5.488   7.380   3.510
12736TIP3    H138085   5.526   7.324   3.578
12736TIP3    H238086   5.563   7.404   3.454
12737TIP3   OH238087   7.935   0.426   4.292
12737TIP3    H138088   7.884   0.390   4.220
12737TIP3    H238089   7.875   0.425   4.366
12738TIP3   OH238090   1.855   2.925   3.471
12738TIP3    H138091   1.847   2.939   3.566
12738TIP3    H238092   1.808   2.844   3.455
12739TIP3   OH238093   1.209   6.887   2.446
12739TIP3    H138094   1.278   6.845   2.394
12739TIP3    H238095   1.138   6.901   2.384
12740TIP3   OH238096   3.660   1.174   1.513
12740TIP3    H138097   3.651   1.208   1.602
12740TIP3    H238098   3.746   1.133   1.512
12741TIP3   OH238099   4.306   1.368   1.395
12741TIP3    H138100   4.395   1.398   1.380
12741TIP3    H238101   4.255   1.449   1.403
12742TIP3   OH238102   6.954   5.636   7.772
12742TIP3    H138103   6.919   5.580   7.703
12742TIP3    H238104   6.938   5.588   7.853
12743TIP3   OH238105   6.944   2.303   6.903
12743TIP3    H138106   7.037   2.278   6.910
12743TIP3    H238107   6.906   2.234   6.848
12744TIP3   OH238108   0.571   1.287   5.653
12744TIP3    H138109   0.538   1.363   5.604
12744TIP3    H238110   0.654   1.265   5.611
12745TIP3   OH238111   6.622   7.731   5.192
12745TIP3    H138112   6.645   7.658   5.250
12745TIP3    H238113   6.673   7.716   5.112
12746TIP3   OH238114   4.684   6.455   1.220
12746TIP3    H138115   4.686   6.361   1.201
12746TIP3    H238116   4.608   6.488   1.171
12747TIP3   OH238117   1.478   7.789   4.145
12747TIP3    H138118   1.468   7.762   4.054
12747TIP3    H238119   1.513   7.877   4.141
12748TIP3   OH238120   3.733   3.781   2.316
12748TIP3    H138121   3.697   3.709   2.264
12748TIP3    H238122   3.657   3.837   2.334
12749TIP3   OH238123   3.302   8.606   7.183
12749TIP3    H138124   3.393   8.610   7.214
12749TIP3    H238125   3.254   8.568   7.257
12750TIP3   OH238126   5.609   6.863   0.294
12750TIP3    H138127   5.540   6.800   0.313
12750TIP3    H238128   5.571   6.948   0.316
12751TIP3   OH238129   4.749   6.230   6.200
12751TIP3    H138130   4.833   6.251   6.159
12751TIP3    H238131   4.718   6.313   6.236
12752TIP3   OH238132   5.362   3.664   2.002
12752TIP3    H138133   5.280   3.652   1.953
12752TIP3    H238134   5.414   3.723   1.948
12753TIP3   OH238135   5.167   7.281   5.713
12753TIP3    H138136   5.072   7.289   5.712
12753TIP3    H238137   5.188   7.241   5.628
12754TIP3   OH238138   1.324   2.181   7.693
12754TIP3    H138139   1.370   2.187   7.609
12754TIP3    H238140   1.234   2.204   7.673
12755TIP3   OH238141   3.140   3.908   0.154
12755TIP3    H138142   3.046   3.890   0.140
12755TIP3    H238143   3.182   3.869   0.077
12756TIP3   OH238144   2.103   5.649   6.900
12756TIP3    H138145   2.140   5.674   6.815
12756TIP3    H238146   2.172   5.669   6.963
12757TIP3   OH238147   7.975   5.132   6.503
12757TIP3    H138148   8.026   5.180   6.437
12757TIP3    H238149   8.040   5.103   6.567
12758TIP3   OH238150   9.485   1.800   5.164
12758TIP3    H138151   9.577   1.827   5.165
12758TIP3    H238152   9.485   1.717   5.116
12759TIP3   OH238153   0.539   0.144   5.879
12759TIP3    H138154   0.596   0.114   5.950
12759TIP3    H238155   0.542   0.073   5.815
12760TIP3   OH238156   7.490   8.167   0.086
12760TIP3    H138157   7.483   8.193  -0.006
12760TIP3    H238158   7.530   8.080   0.084
12761TIP3   OH238159   1.085   6.121   4.708
12761TIP3    H138160   1.076   6.028   4.729
12761TIP3    H238161   1.143   6.155   4.777
12762TIP3   OH238162   0.492   5.171   5.683
12762TIP3    H138163   0.545   5.170   5.763
12762TIP3    H238164   0.420   5.111   5.702
12763TIP3   OH238165   4.277   1.106   5.107
12763TIP3    H138166   4.230   1.179   5.148
12763TIP3    H238167   4.209   1.056   5.062
12764TIP3   OH238168   4.338   4.016   7.684
12764TIP3    H138169   4.414   4.013   7.742
12764TIP3    H238170   4.349   4.098   7.635
12765TIP3   OH238171   7.505   8.078   6.519
12765TIP3    H138172   7.495   8.002   6.460
12765TIP3    H238173   7.511   8.039   6.606
12766TIP3   OH238174   5.176   4.782   2.681
12766TIP3    H138175   5.193   4.753   2.591
12766TIP3    H238176   5.258   4.825   2.708
12767TIP3   OH238177   2.411   5.727   3.336
12767TIP3    H138178   2.453   5.670   3.271
12767TIP3    H238179   2.468   5.804   3.339
12768TIP3   OH238180   2.760   8.308   2.640
12768TIP3    H138181   2.759   8.388   2.587
12768TIP3    H238182   2.850   8.300   2.670
12769TIP3   OH238183   3.500   7.948   1.279
12769TIP3    H138184   3.443   8.014   1.241
12769TIP3    H238185   3.524   7.891   1.205
12770TIP3   OH238186   2.065   5.982   0.732
12770TIP3    H138187   2.035   5.971   0.642
12770TIP3    H238188   2.151   6.023   0.724
12771TIP3   OH238189   2.092   1.788   3.821
12771TIP3    H138190   2.170   1.829   3.859
12771TIP3    H238191   2.122   1.753   3.737
12772TIP3   OH238192   8.333   5.307   7.350
12772TIP3    H138193   8.315   5.283   7.440
12772TIP3    H238194   8.252   5.287   7.303
12773TIP3   OH238195   9.375   5.377   3.804
12773TIP3    H138196   9.339   5.419   3.727
12773TIP3    H238197   9.304   5.380   3.869
12774TIP3   OH238198   3.276   2.332   1.896
12774TIP3    H138199   3.255   2.372   1.980
12774TIP3    H238200   3.282   2.405   1.835
12775TIP3   OH238201   2.056   2.599   1.926
12775TIP3    H138202   1.972   2.626   1.964
12775TIP3    H238203   2.051   2.504   1.922
12776TIP3   OH238204   1.823   8.660   3.261
12776TIP3    H138205   1.805   8.577   3.217
12776TIP3    H238206   1.791   8.727   3.201
12777TIP3   OH238207   7.684   8.078   2.375
12777TIP3    H138208   7.639   8.057   2.294
12777TIP3    H238209   7.715   7.993   2.407
12778TIP3   OH238210   9.552   7.877   2.246
12778TIP3    H138211   9.622   7.895   2.183
12778TIP3    H238212   9.546   7.957   2.298
12779TIP3   OH238213   5.681   6.366   6.568
12779TIP3    H138214   5.597   6.392   6.606
12779TIP3    H238215   5.734   6.339   6.643
12780TIP3   OH238216   9.471   1.760   4.610
12780TIP3    H138217   9.480   1.838   4.664
12780TIP3    H238218   9.377   1.739   4.614
12781TIP3   OH238219   0.525   6.564   6.167
12781TIP3    H138220   0.531   6.472   6.143
12781TIP3    H238221   0.454   6.568   6.231
12782TIP3   OH238222   7.397   7.534   5.868
12782TIP3    H138223   7.439   7.466   5.921
12782TIP3    H238224   7.352   7.590   5.932
12783TIP3   OH238225   4.998   6.693   4.720
12783TIP3    H138226   4.976   6.606   4.688
12783TIP3    H238227   5.069   6.679   4.782
12784TIP3   OH238228   2.448   3.968   1.330
12784TIP3    H138229   2.523   3.952   1.272
12784TIP3    H238230   2.478   3.939   1.416
12785TIP3   OH238231   7.455   5.798   7.353
12785TIP3    H138232   7.463   5.843   7.269
12785TIP3    H238233   7.362   5.804   7.375
12786TIP3   OH238234   1.723   1.546   5.744
12786TIP3    H138235   1.751   1.497   5.666
12786TIP3    H238236   1.681   1.624   5.709
12787TIP3   OH238237   0.616   8.820   3.134
12787TIP3    H138238   0.692   8.762   3.132
12787TIP3    H238239   0.631   8.877   3.209
12788TIP3   OH238240   4.300   5.242   3.468
12788TIP3    H138241   4.240   5.169   3.481
12788TIP3    H238242   4.251   5.304   3.414
12789TIP3   OH238243   1.153   0.474   6.948
12789TIP3    H138244   1.076   0.447   6.898
12789TIP3    H238245   1.169   0.401   7.008
12790TIP3   OH238246   4.469   3.230   4.209
12790TIP3    H138247   4.523   3.224   4.130
12790TIP3    H238248   4.381   3.206   4.180
12791TIP3   OH238249   8.063   3.658   1.101
12791TIP3    H138250   8.042   3.632   1.011
12791TIP3    H238251   8.076   3.753   1.096
12792TIP3   OH238252   0.267   7.207   7.401
12792TIP3    H138253   0.285   7.238   7.312
12792TIP3    H238254   0.353   7.200   7.442
12793TIP3   OH238255   6.791   8.726   4.259
12793TIP3    H138256   6.717   8.699   4.206
12793TIP3    H238257   6.759   8.721   4.349
12794TIP3   OH238258   2.226   3.443   4.628
12794TIP3    H138259   2.286   3.369   4.627
12794TIP3    H238260   2.141   3.405   4.605
12795TIP3   OH238261   6.603   0.288   1.295
12795TIP3    H138262   6.607   0.315   1.203
12795TIP3    H238263   6.639   0.362   1.343
12796TIP3   OH238264   1.457   7.984   1.239
12796TIP3    H138265   1.508   7.934   1.176
12796TIP3    H238266   1.407   7.918   1.287
12797TIP3   OH238267   6.239   7.073   1.446
12797TIP3    H138268   6.290   6.997   1.473
12797TIP3    H238269   6.189   7.043   1.370
12798TIP3   OH238270   5.540   0.049   6.020
12798TIP3    H138271   5.545   0.066   6.114
12798TIP3    H238272   5.458   0.000   6.009
12799TIP3   OH238273   0.347   5.580   3.967
12799TIP3    H138274   0.389   5.571   3.882
12799TIP3    H238275   0.353   5.673   3.988
12800TIP3   OH238276   7.926   3.277   2.808
12800TIP3    H138277   8.019   3.293   2.792
12800TIP3    H238278   7.920   3.182   2.817
12801TIP3   OH238279   2.042   0.278   6.374
12801TIP3    H138280   2.068   0.201   6.425
12801TIP3    H238281   2.047   0.350   6.436
12802TIP3   OH238282   1.420   0.469   7.242
12802TIP3    H138283   1.418   0.398   7.306
12802TIP3    H238284   1.437   0.547   7.295
12803TIP3   OH238285   4.504   6.138   6.097
12803TIP3    H138286   4.595   6.158   6.119
12803TIP3    H238287   4.462   6.118   6.180
12804TIP3   OH238288   1.538   6.204   5.396
12804TIP3    H138289   1.445   6.226   5.402
12804TIP3    H238290   1.542   6.110   5.416
12805TIP3   OH238291   6.616   5.604   2.152
12805TIP3    H138292   6.642   5.650   2.232
12805TIP3    H238293   6.690   5.546   2.132
12806TIP3   OH238294   2.759   8.855   7.206
12806TIP3    H138295   2.826   8.790   7.226
12806TIP3    H238296   2.789   8.935   7.248
12807TIP3   OH238297   9.488   7.653   5.233
12807TIP3    H138298   9.410   7.622   5.279
12807TIP3    H238299   9.539   7.574   5.216
12808TIP3   OH238300   5.939   5.391   1.433
12808TIP3    H138301   5.986   5.413   1.514
12808TIP3    H238302   5.958   5.464   1.374
12809TIP3   OH238303   1.850   7.211   6.262
12809TIP3    H138304   1.869   7.118   6.254
12809TIP3    H238305   1.828   7.223   6.355
12810TIP3   OH238306   4.244   5.685   1.672
12810TIP3    H138307   4.247   5.613   1.736
12810TIP3    H238308   4.219   5.762   1.724
12811TIP3   OH238309   1.093   8.884   3.622
12811TIP3    H138310   1.072   8.863   3.713
12811TIP3    H238311   1.188   8.892   3.620
12812TIP3   OH238312   3.351   0.936   1.845
12812TIP3    H138313   3.354   1.031   1.850
12812TIP3    H238314   3.259   0.913   1.853
12813TIP3   OH238315   9.214   7.773   7.106
12813TIP3    H138316   9.121   7.779   7.084
12813TIP3    H238317   9.258   7.818   7.034
12814TIP3   OH238318   4.757   5.522   0.264
12814TIP3    H138319   4.759   5.475   0.181
12814TIP3    H238320   4.685   5.584   0.255
12815TIP3   OH238321   1.945   1.231   1.374
12815TIP3    H138322   1.922   1.274   1.457
12815TIP3    H238323   2.026   1.275   1.347
12816TIP3   OH238324   4.820   1.419   6.286
12816TIP3    H138325   4.870   1.338   6.277
12816TIP3    H238326   4.729   1.392   6.276
12817TIP3   OH238327   4.004   4.628   6.891
12817TIP3    H138328   3.922   4.644   6.938
12817TIP3    H238329   4.004   4.690   6.819
12818TIP3   OH238330   1.094   4.600   7.005
12818TIP3    H138331   1.022   4.662   7.010
12818TIP3    H238332   1.055   4.521   6.969
12819TIP3   OH238333   0.861   7.666   7.436
12819TIP3    H138334   0.829   7.747   7.396
12819TIP3    H238335   0.798   7.648   7.506
12820TIP3   OH238336   1.536   8.328   2.741
12820TIP3    H138337   1.502   8.239   2.745
12820TIP3    H238338   1.625   8.322   2.777
12821TIP3   OH238339   1.902   8.249   6.524
12821TIP3    H138340   1.897   8.180   6.458
12821TIP3    H238341   1.936   8.205   6.602
12822TIP3   OH238342   6.342   7.668   2.545
12822TIP3    H138343   6.338   7.762   2.566
12822TIP3    H238344   6.397   7.631   2.614
12823TIP3   OH238345   9.519   3.268   5.918
12823TIP3    H138346   9.564   3.325   5.856
12823TIP3    H238347   9.430   3.302   5.922
12824TIP3   OH238348   7.684   7.222   7.016
12824TIP3    H138349   7.626   7.164   7.067
12824TIP3    H238350   7.767   7.220   7.064
12825TIP3   OH238351   8.687   8.658   1.773
12825TIP3    H138352   8.703   8.570   1.809
12825TIP3    H238353   8.718   8.718   1.841
12826TIP3   OH238354   7.845   5.222   4.433
12826TIP3    H138355   7.940   5.232   4.421
12826TIP3    H238356   7.814   5.188   4.349
12827TIP3   OH238357   4.034   8.176   0.938
12827TIP3    H138358   4.040   8.080   0.945
12827TIP3    H238359   3.964   8.191   0.874
12828TIP3   OH238360   0.230   7.845   3.351
12828TIP3    H138361   0.208   7.893   3.271
12828TIP3    H238362   0.308   7.889   3.385
12829TIP3   OH238363   1.901   3.526   3.866
12829TIP3    H138364   1.914   3.524   3.771
12829TIP3    H238365   1.814   3.563   3.877
12830TIP3   OH238366   2.227   3.667   0.724
12830TIP3    H138367   2.163   3.616   0.675
12830TIP3    H238368   2.290   3.602   0.756
12831TIP3   OH238369   7.088   3.319   3.181
12831TIP3    H138370   7.077   3.248   3.118
12831TIP3    H238371   7.170   3.299   3.227
12832TIP3   OH238372   4.960   3.986   3.204
12832TIP3    H138373   4.967   3.962   3.112
12832TIP3    H238374   4.909   4.067   3.204
12833TIP3   OH238375   0.453   6.692   4.681
12833TIP3    H138376   0.458   6.660   4.771
12833TIP3    H238377   0.403   6.624   4.635
12834TIP3   OH238378   0.571   4.694   6.862
12834TIP3    H138379   0.492   4.647   6.890
12834TIP3    H238380   0.561   4.781   6.900
12835TIP3   OH238381   0.314   3.707   1.096
12835TIP3    H138382   0.392   3.657   1.120
12835TIP3    H238383   0.347   3.794   1.073
12836TIP3   OH238384   8.910   2.259   1.126
12836TIP3    H138385   8.889   2.188   1.187
12836TIP3    H238386   8.906   2.338   1.180
12837TIP3   OH238387   8.535   8.183   6.488
12837TIP3    H138388   8.477   8.112   6.459
12837TIP3    H238389   8.571   8.218   6.406
12838TIP3   OH238390   6.829   2.510   1.129
12838TIP3    H138391   6.800   2.484   1.042
12838TIP3    H238392   6.895   2.445   1.154
12839TIP3   OH238393   2.862   6.989   4.513
12839TIP3    H138394   2.896   6.914   4.463
12839TIP3    H238395   2.822   7.045   4.447
12840TIP3   OH238396   2.728   3.494   2.387
12840TIP3    H138397   2.712   3.583   2.354
12840TIP3    H238398   2.672   3.438   2.333
12841TIP3   OH238399   3.232   0.470   3.508
12841TIP3    H138400   3.157   0.415   3.487
12841TIP3    H238401   3.194   0.557   3.521
12842TIP3   OH238402   8.523   5.673   3.705
12842TIP3    H138403   8.496   5.742   3.644
12842TIP3    H238404   8.441   5.630   3.729
12843TIP3   OH238405   5.682   1.443   3.750
12843TIP3    H138406   5.625   1.504   3.797
12843TIP3    H238407   5.733   1.400   3.819
12844TIP3   OH238408   1.683   8.821   7.572
12844TIP3    H138409   1.624   8.894   7.558
12844TIP3    H238410   1.676   8.769   7.491
12845TIP3   OH238411   0.891   5.819   6.768
12845TIP3    H138412   0.804   5.806   6.805
12845TIP3    H238413   0.942   5.856   6.840
12846TIP3   OH238414   3.258   7.597   0.844
12846TIP3    H138415   3.199   7.546   0.789
12846TIP3    H238416   3.278   7.540   0.918
12847TIP3   OH238417   9.158   4.022   6.355
12847TIP3    H138418   9.140   3.990   6.266
12847TIP3    H238419   9.251   4.046   6.353
12848TIP3   OH238420   1.104   0.476   2.754
12848TIP3    H138421   1.078   0.427   2.677
12848TIP3    H238422   1.022   0.512   2.788
12849TIP3   OH238423   1.144   8.801   0.811
12849TIP3    H138424   1.096   8.776   0.731
12849TIP3    H238425   1.167   8.718   0.852
12850TIP3   OH238426   5.038   0.818   3.352
12850TIP3    H138427   5.126   0.855   3.355
12850TIP3    H238428   4.980   0.893   3.341
12851TIP3   OH238429   8.925   1.044   5.329
12851TIP3    H138430   8.859   1.060   5.397
12851TIP3    H238431   9.004   1.021   5.377
12852TIP3   OH238432   3.621   6.311   2.443
12852TIP3    H138433   3.644   6.397   2.408
12852TIP3    H238434   3.527   6.316   2.460
12853TIP3   OH238435   2.134   5.892   3.327
12853TIP3    H138436   2.128   5.895   3.232
12853TIP3    H238437   2.187   5.814   3.345
12854TIP3   OH238438   7.711   3.492   6.189
12854TIP3    H138439   7.733   3.399   6.200
12854TIP3    H238440   7.764   3.537   6.254
12855TIP3   OH238441   6.983   5.441   5.878
12855TIP3    H138442   7.010   5.426   5.788
12855TIP3    H238443   7.064   5.459   5.925
12856TIP3   OH238444   2.707   6.863   3.305
12856TIP3    H138445   2.733   6.951   3.279
12856TIP3    H238446   2.614   6.871   3.325
12857TIP3   OH238447   6.745   4.158   4.248
12857TIP3    H138448   6.658   4.128   4.274
12857TIP3    H238449   6.804   4.091   4.282
12858TIP3   OH238450   3.987   0.711   5.067
12858TIP3    H138451   4.023   0.776   5.128
12858TIP3    H238452   4.022   0.627   5.098
12859TIP3   OH238453   8.002   2.679   3.042
12859TIP3    H138454   7.913   2.644   3.047
12859TIP3    H238455   7.996   2.766   3.083
12860TIP3   OH238456   5.445   7.581   0.412
12860TIP3    H138457   5.511   7.528   0.367
12860TIP3    H238458   5.471   7.671   0.395
12861TIP3   OH238459   8.332   5.723   4.032
12861TIP3    H138460   8.417   5.679   4.024
12861TIP3    H238461   8.331   5.758   4.121
12862TIP3   OH238462   0.992   7.306   0.718
12862TIP3    H138463   0.977   7.366   0.791
12862TIP3    H238464   0.991   7.362   0.640
12863TIP3   OH238465   7.313   7.734   3.810
12863TIP3    H138466   7.313   7.639   3.824
12863TIP3    H238467   7.383   7.748   3.746
12864TIP3   OH238468   9.129   3.766   1.332
12864TIP3    H138469   9.038   3.749   1.308
12864TIP3    H238470   9.139   3.728   1.420
12865TIP3   OH238471   3.437   7.514   6.462
12865TIP3    H138472   3.469   7.521   6.552
12865TIP3    H238473   3.437   7.420   6.445
12866TIP3   OH238474   2.190   7.104   3.777
12866TIP3    H138475   2.126   7.172   3.796
12866TIP3    H238476   2.274   7.146   3.793
12867TIP3   OH238477   8.295   1.474   0.913
12867TIP3    H138478   8.278   1.380   0.914
12867TIP3    H238479   8.300   1.498   1.006
12868TIP3   OH238480   4.784   0.330   0.768
12868TIP3    H138481   4.764   0.255   0.711
12868TIP3    H238482   4.765   0.407   0.714
12869TIP3   OH238483   2.118   0.216   1.083
12869TIP3    H138484   2.203   0.198   1.122
12869TIP3    H238485   2.128   0.301   1.040
12870TIP3   OH238486   8.618   4.951   1.714
12870TIP3    H138487   8.709   4.929   1.731
12870TIP3    H238488   8.589   4.886   1.650
12871TIP3   OH238489   6.210   3.153   2.086
12871TIP3    H138490   6.238   3.064   2.063
12871TIP3    H238491   6.292   3.203   2.093
12872TIP3   OH238492   7.635   2.715   0.222
12872TIP3    H138493   7.597   2.651   0.283
12872TIP3    H238494   7.570   2.785   0.218
12873TIP3   OH238495   2.299   0.443   7.448
12873TIP3    H138496   2.312   0.383   7.375
12873TIP3    H238497   2.234   0.506   7.417
12874TIP3   OH238498   7.912   7.932   6.069
12874TIP3    H138499   8.005   7.948   6.055
12874TIP3    H238500   7.876   8.018   6.094
12875TIP3   OH238501   8.583   7.750   5.439
12875TIP3    H138502   8.524   7.756   5.364
12875TIP3    H238503   8.538   7.694   5.502
12876TIP3   OH238504   8.937   7.615   1.230
12876TIP3    H138505   9.029   7.589   1.229
12876TIP3    H238506   8.931   7.680   1.160
12877TIP3   OH238507   1.082   1.400   5.570
12877TIP3    H138508   1.053   1.483   5.607
12877TIP3    H238509   1.156   1.423   5.514
12878TIP3   OH238510   8.239   1.694   7.562
12878TIP3    H138511   8.236   1.605   7.598
12878TIP3    H238512   8.308   1.737   7.612
12879TIP3   OH238513   1.377   3.621   4.043
12879TIP3    H138514   1.286   3.594   4.053
12879TIP3    H238515   1.419   3.596   4.125
12880TIP3   OH238516   8.804   0.465   3.304
12880TIP3    H138517   8.779   0.428   3.389
12880TIP3    H238518   8.724   0.459   3.251
12881TIP3   OH238519   1.456   2.601   1.317
12881TIP3    H138520   1.468   2.617   1.411
12881TIP3    H238521   1.405   2.676   1.287
12882TIP3   OH238522   7.152   0.479   5.971
12882TIP3    H138523   7.236   0.485   6.016
12882TIP3    H238524   7.087   0.487   6.041
12883TIP3   OH238525   6.928   4.395   7.078
12883TIP3    H138526   6.884   4.433   7.002
12883TIP3    H238527   6.862   4.399   7.148
12884TIP3   OH238528   7.038   7.660   5.704
12884TIP3    H138529   7.103   7.728   5.689
12884TIP3    H238530   7.089   7.579   5.709
12885TIP3   OH238531   5.292   2.929   1.374
12885TIP3    H138532   5.373   2.879   1.386
12885TIP3    H238533   5.318   3.006   1.324
12886TIP3   OH238534   4.229   5.471   5.636
12886TIP3    H138535   4.259   5.519   5.712
12886TIP3    H238536   4.219   5.381   5.667
12887TIP3   OH238537   4.709   1.580   3.616
12887TIP3    H138538   4.645   1.512   3.637
12887TIP3    H238539   4.778   1.535   3.568
12888TIP3   OH238540   8.089   0.164   4.836
12888TIP3    H138541   8.181   0.149   4.816
12888TIP3    H238542   8.089   0.241   4.893
12889TIP3   OH238543   1.140   7.443   1.002
12889TIP3    H138544   1.107   7.364   1.045
12889TIP3    H238545   1.231   7.423   0.983
12890TIP3   OH238546   6.037   8.782   1.927
12890TIP3    H138547   6.123   8.760   1.962
12890TIP3    H238548   6.012   8.706   1.875
12891TIP3   OH238549   1.373   3.930   6.646
12891TIP3    H138550   1.358   3.998   6.581
12891TIP3    H238551   1.397   3.852   6.596
12892TIP3   OH238552   1.182   3.529   4.558
12892TIP3    H138553   1.118   3.524   4.487
12892TIP3    H238554   1.173   3.617   4.593
12893TIP3   OH238555   4.445   4.087   0.613
12893TIP3    H138556   4.422   4.010   0.664
12893TIP3    H238557   4.519   4.058   0.559
12894TIP3   OH238558   6.155   4.649   3.745
12894TIP3    H138559   6.094   4.578   3.769
12894TIP3    H238560   6.099   4.726   3.734
12895TIP3   OH238561   1.233   8.414   3.304
12895TIP3    H138562   1.313   8.460   3.277
12895TIP3    H238563   1.251   8.322   3.285
12896TIP3   OH238564   5.232   0.076   5.711
12896TIP3    H138565   5.281  -0.003   5.689
12896TIP3    H238566   5.165   0.046   5.773
12897TIP3   OH238567   4.259   6.467   1.565
12897TIP3    H138568   4.198   6.412   1.516
12897TIP3    H238569   4.300   6.523   1.499
12898TIP3   OH238570   4.300   8.059   6.828
12898TIP3    H138571   4.358   8.048   6.903
12898TIP3    H238572   4.224   8.105   6.863
12899TIP3   OH238573   2.605   6.443   0.539
12899TIP3    H138574   2.647   6.413   0.458
12899TIP3    H238575   2.635   6.533   0.550
12900TIP3   OH238576   5.832   5.759   0.280
12900TIP3    H138577   5.785   5.802   0.350
12900TIP3    H238578   5.924   5.779   0.297
12901TIP3   OH238579   4.614   8.322   0.442
12901TIP3    H138580   4.690   8.356   0.394
12901TIP3    H238581   4.538   8.356   0.394
12902TIP3   OH238582   8.107   6.354   0.414
12902TIP3    H138583   8.185   6.299   0.415
12902TIP3    H238584   8.036   6.294   0.392
12903TIP3   OH238585   3.877   3.654   6.379
12903TIP3    H138586   3.899   3.741   6.412
12903TIP3    H238587   3.933   3.642   6.303
12904TIP3   OH238588   4.132   8.052   6.580
12904TIP3    H138589   4.161   7.963   6.602
12904TIP3    H238590   4.187   8.109   6.633
12905TIP3   OH238591   2.630   0.956   3.435
12905TIP3    H138592   2.562   1.000   3.486
12905TIP3    H238593   2.618   0.988   3.345
12906TIP3   OH238594   4.575   1.284   4.683
12906TIP3    H138595   4.586   1.374   4.655
12906TIP3    H238596   4.568   1.234   4.602
12907TIP3   OH238597   8.394   2.671   1.760
12907TIP3    H138598   8.366   2.642   1.847
12907TIP3    H238599   8.459   2.740   1.777
12908TIP3   OH238600   4.839   1.706   7.141
12908TIP3    H138601   4.755   1.750   7.128
12908TIP3    H238602   4.903   1.763   7.099
12909TIP3   OH238603   5.492   0.645   2.072
12909TIP3    H138604   5.573   0.628   2.119
12909TIP3    H238605   5.435   0.688   2.135
12910TIP3   OH238606   5.685   6.113   4.887
12910TIP3    H138607   5.706   6.121   4.980
12910TIP3    H238608   5.728   6.187   4.845
12911TIP3   OH238609   1.161   7.543   0.664
12911TIP3    H138610   1.235   7.595   0.696
12911TIP3    H238611   1.194   7.500   0.585
12912TIP3   OH238612   3.712   5.407   1.541
12912TIP3    H138613   3.783   5.451   1.588
12912TIP3    H238614   3.664   5.360   1.609
12913TIP3   OH238615   6.663   3.810   6.163
12913TIP3    H138616   6.661   3.772   6.075
12913TIP3    H238617   6.609   3.889   6.157
12914TIP3   OH238618   4.296   4.035   0.080
12914TIP3    H138619   4.377   4.080   0.057
12914TIP3    H238620   4.243   4.038   0.000
12915TIP3   OH238621   3.808   2.496   1.005
12915TIP3    H138622   3.884   2.465   0.957
12915TIP3    H238623   3.746   2.522   0.937
12916TIP3   OH238624   5.817   2.177   7.698
12916TIP3    H138625   5.910   2.164   7.719
12916TIP3    H238626   5.818   2.230   7.618
12917TIP3   OH238627   1.596   1.770   3.905
12917TIP3    H138628   1.683   1.774   3.865
12917TIP3    H238629   1.568   1.861   3.912
12918TIP3   OH238630   7.631   8.037   4.688
12918TIP3    H138631   7.539   8.044   4.663
12918TIP3    H238632   7.657   8.126   4.711
12919TIP3   OH238633   5.538   1.211   4.787
12919TIP3    H138634   5.497   1.186   4.870
12919TIP3    H238635   5.631   1.192   4.799
12920TIP3   OH238636   4.083   1.664   2.929
12920TIP3    H138637   4.115   1.628   2.847
12920TIP3    H238638   4.027   1.737   2.903
12921TIP3   OH238639   0.424   1.318   3.270
12921TIP3    H138640   0.450   1.237   3.314
12921TIP3    H238641   0.382   1.369   3.339
12922TIP3   OH238642   7.461   5.932   2.968
12922TIP3    H138643   7.377   5.946   2.924
12922TIP3    H238644   7.438   5.917   3.060
12923TIP3   OH238645   0.043   6.604   0.047
12923TIP3    H138646   0.079   6.659   0.116
12923TIP3    H238647   0.104   6.614  -0.026
12924TIP3   OH238648   7.202   7.877   5.708
12924TIP3    H138649   7.211   7.941   5.779
12924TIP3    H238650   7.182   7.930   5.631
12925TIP3   OH238651   7.749   3.362   2.616
12925TIP3    H138652   7.806   3.337   2.689
12925TIP3    H238653   7.800   3.339   2.538
12926TIP3   OH238654   0.260   2.176   7.673
12926TIP3    H138655   0.290   2.201   7.760
12926TIP3    H238656   0.170   2.145   7.687
12927TIP3   OH238657   3.105   4.956   2.138
12927TIP3    H138658   3.161   5.031   2.119
12927TIP3    H238659   3.062   4.978   2.221
12928TIP3   OH238660   6.528   1.732   0.740
12928TIP3    H138661   6.455   1.730   0.678
12928TIP3    H238662   6.606   1.732   0.685
12929TIP3   OH238663   4.066   3.126   0.343
12929TIP3    H138664   4.011   3.061   0.300
12929TIP3    H238665   4.016   3.152   0.420
12930TIP3   OH238666   6.067   1.165   2.121
12930TIP3    H138667   6.104   1.246   2.085
12930TIP3    H238668   6.078   1.101   2.052
12931TIP3   OH238669   6.235   6.675   2.825
12931TIP3    H138670   6.166   6.653   2.762
12931TIP3    H238671   6.207   6.759   2.862
12932TIP3   OH238672   7.786   4.701   0.159
12932TIP3    H138673   7.759   4.699   0.067
12932TIP3    H238674   7.798   4.793   0.179
12933TIP3   OH238675   5.945   6.037   4.656
12933TIP3    H138676   5.970   6.064   4.744
12933TIP3    H238677   6.016   6.067   4.600
12934TIP3   OH238678   1.402   3.598   5.926
12934TIP3    H138679   1.473   3.558   5.976
12934TIP3    H238680   1.424   3.691   5.923
12935TIP3   OH238681   1.958   2.347   6.753
12935TIP3    H138682   1.931   2.261   6.719
12935TIP3    H238683   2.052   2.336   6.771
12936TIP3   OH238684   6.421   6.638   4.639
12936TIP3    H138685   6.458   6.549   4.631
12936TIP3    H238686   6.359   6.644   4.567
12937TIP3   OH238687   4.632   7.247   6.518
12937TIP3    H138688   4.648   7.216   6.429
12937TIP3    H238689   4.539   7.231   6.532
12938TIP3   OH238690   5.907   0.846   5.082
12938TIP3    H138691   5.981   0.892   5.042
12938TIP3    H238692   5.884   0.778   5.018
12939TIP3   OH238693   8.848   6.931   7.171
12939TIP3    H138694   8.858   6.974   7.256
12939TIP3    H238695   8.851   6.837   7.190
12940TIP3   OH238696   2.244   0.813   6.771
12940TIP3    H138697   2.209   0.899   6.793
12940TIP3    H238698   2.210   0.795   6.683
12941TIP3   OH238699   5.717   5.223   4.046
12941TIP3    H138700   5.730   5.214   3.952
12941TIP3    H238701   5.785   5.285   4.074
12942TIP3   OH238702   5.817   2.136   6.196
12942TIP3    H138703   5.774   2.167   6.276
12942TIP3    H238704   5.790   2.199   6.129
12943TIP3   OH238705   3.713   6.464   1.150
12943TIP3    H138706   3.693   6.551   1.181
12943TIP3    H238707   3.638   6.410   1.176
12944TIP3   OH238708   2.480   6.712   1.574
12944TIP3    H138709   2.552   6.690   1.634
12944TIP3    H238710   2.421   6.637   1.581
12945TIP3   OH238711   1.182   1.726   2.499
12945TIP3    H138712   1.124   1.652   2.482
12945TIP3    H238713   1.264   1.686   2.528
12946TIP3   OH238714   5.331   4.275   4.737
12946TIP3    H138715   5.311   4.339   4.806
12946TIP3    H238716   5.274   4.201   4.757
12947TIP3   OH238717   4.695   7.444   3.469
12947TIP3    H138718   4.614   7.451   3.520
12947TIP3    H238719   4.708   7.532   3.433
12948TIP3   OH238720   1.567   5.821   7.397
12948TIP3    H138721   1.475   5.827   7.420
12948TIP3    H238722   1.602   5.908   7.414
12949TIP3   OH238723   1.637   5.366   5.411
12949TIP3    H138724   1.634   5.315   5.492
12949TIP3    H238725   1.616   5.303   5.342
12950TIP3   OH238726   6.122   7.857   6.653
12950TIP3    H138727   6.092   7.945   6.676
12950TIP3    H238728   6.042   7.810   6.630
12951TIP3   OH238729   2.150   1.005   3.659
12951TIP3    H138730   2.243   1.022   3.644
12951TIP3    H238731   2.113   1.090   3.681
12952TIP3   OH238732   6.467   2.304   5.766
12952TIP3    H138733   6.408   2.279   5.694
12952TIP3    H238734   6.408   2.335   5.835
12953TIP3   OH238735   3.239   6.106   2.585
12953TIP3    H138736   3.149   6.130   2.605
12953TIP3    H238737   3.287   6.122   2.667
12954TIP3   OH238738   7.453   0.127   3.917
12954TIP3    H138739   7.365   0.125   3.880
12954TIP3    H238740   7.494   0.204   3.878
12955TIP3   OH238741   6.141   2.377   2.095
12955TIP3    H138742   6.119   2.288   2.124
12955TIP3    H238743   6.198   2.363   2.019
12956TIP3   OH238744   2.802   4.991   5.636
12956TIP3    H138745   2.878   5.037   5.600
12956TIP3    H238746   2.840   4.918   5.684
12957TIP3   OH238747   3.194   3.309   2.877
12957TIP3    H138748   3.237   3.272   2.800
12957TIP3    H238749   3.154   3.233   2.921
12958TIP3   OH238750   2.655   0.546   0.895
12958TIP3    H138751   2.615   0.575   0.977
12958TIP3    H238752   2.674   0.626   0.847
12959TIP3   OH238753   6.223   2.624   6.280
12959TIP3    H138754   6.206   2.544   6.331
12959TIP3    H238755   6.136   2.654   6.252
12960TIP3   OH238756   1.292   7.663   3.456
12960TIP3    H138757   1.374   7.700   3.490
12960TIP3    H238758   1.242   7.640   3.535
12961TIP3   OH238759   6.949   4.178   3.106
12961TIP3    H138760   7.018   4.210   3.048
12961TIP3    H238761   6.986   4.187   3.194
12962TIP3   OH238762   5.113   8.989   4.827
12962TIP3    H138763   5.203   8.979   4.859
12962TIP3    H238764   5.060   8.941   4.891
12963TIP3   OH238765   8.447   5.841   0.603
12963TIP3    H138766   8.423   5.848   0.511
12963TIP3    H238767   8.412   5.921   0.643
12964TIP3   OH238768   2.703   4.794   2.954
12964TIP3    H138769   2.630   4.738   2.978
12964TIP3    H238770   2.731   4.834   3.036
12965TIP3   OH238771   2.336   1.716   3.171
12965TIP3    H138772   2.379   1.658   3.108
12965TIP3    H238773   2.408   1.761   3.216
12966TIP3   OH238774   3.581   2.502   1.199
12966TIP3    H138775   3.650   2.506   1.265
12966TIP3    H238776   3.628   2.503   1.115
12967TIP3   OH238777   6.766   1.330   0.408
12967TIP3    H138778   6.736   1.302   0.321
12967TIP3    H238779   6.728   1.417   0.419
12968TIP3   OH238780   7.687   0.961   3.947
12968TIP3    H138781   7.737   0.897   3.895
12968TIP3    H238782   7.652   0.910   4.020
12969TIP3   OH238783   7.611   0.240   2.635
12969TIP3    H138784   7.546   0.298   2.598
12969TIP3    H238785   7.580   0.152   2.614
12970TIP3   OH238786   8.753   8.521   5.039
12970TIP3    H138787   8.750   8.602   5.088
12970TIP3    H238788   8.835   8.479   5.067
12971TIP3   OH238789   3.668   4.997   2.783
12971TIP3    H138790   3.682   4.907   2.756
12971TIP3    H238791   3.700   5.001   2.873
12972TIP3   OH238792   8.661   3.426   5.651
12972TIP3    H138793   8.596   3.495   5.654
12972TIP3    H238794   8.714   3.446   5.573
12973TIP3   OH238795   5.829   6.690   1.299
12973TIP3    H138796   5.772   6.749   1.250
12973TIP3    H238797   5.915   6.731   1.295
12974TIP3   OH238798   8.819   3.885   2.404
12974TIP3    H138799   8.751   3.935   2.450
12974TIP3    H238800   8.794   3.889   2.312
12975TIP3   OH238801   5.544   0.884   1.555
12975TIP3    H138802   5.616   0.834   1.517
12975TIP3    H238803   5.513   0.830   1.627
12976TIP3   OH238804   4.124   8.170   3.975
12976TIP3    H138805   4.036   8.209   3.973
12976TIP3    H238806   4.108   8.076   3.959
12977TIP3   OH238807   7.034   8.116   6.195
12977TIP3    H138808   7.048   8.026   6.223
12977TIP3    H238809   6.953   8.143   6.237
12978TIP3   OH238810   0.582   1.771   3.943
12978TIP3    H138811   0.645   1.700   3.935
12978TIP3    H238812   0.537   1.754   4.026
12979TIP3   OH238813   2.445   2.489   1.529
12979TIP3    H138814   2.505   2.421   1.560
12979TIP3    H238815   2.473   2.568   1.574
12980TIP3   OH238816   6.620   4.446   7.661
12980TIP3    H138817   6.678   4.385   7.707
12980TIP3    H238818   6.677   4.490   7.598
12981TIP3   OH238819   3.605   5.403   7.293
12981TIP3    H138820   3.548   5.475   7.267
12981TIP3    H238821   3.645   5.432   7.375
12982TIP3   OH238822   1.674   3.021   2.261
12982TIP3    H138823   1.740   3.089   2.247
12982TIP3    H238824   1.637   3.041   2.346
12983TIP3   OH238825   2.902   5.376   5.681
12983TIP3    H138826   2.943   5.297   5.647
12983TIP3    H238827   2.848   5.408   5.610
12984TIP3   OH238828   7.793   0.315   0.480
12984TIP3    H138829   7.827   0.402   0.498
12984TIP3    H238830   7.775   0.314   0.386
12985TIP3   OH238831   2.043   0.874   0.292
12985TIP3    H138832   1.953   0.842   0.283
12985TIP3    H238833   2.076   0.879   0.202
12986TIP3   OH238834   2.992   5.530   7.440
12986TIP3    H138835   2.971   5.621   7.460
12986TIP3    H238836   2.943   5.479   7.504
12987TIP3   OH238837   5.322   6.864   5.316
12987TIP3    H138838   5.263   6.790   5.298
12987TIP3    H238839   5.265   6.941   5.314
12988TIP3   OH238840   3.689   8.505   3.722
12988TIP3    H138841   3.673   8.575   3.658
12988TIP3    H238842   3.782   8.485   3.712
12989TIP3   OH238843   7.051   1.401   0.753
12989TIP3    H138844   7.083   1.489   0.771
12989TIP3    H238845   7.118   1.361   0.700
12990TIP3   OH238846   1.692   4.145   5.967
12990TIP3    H138847   1.708   4.163   6.060
12990TIP3    H238848   1.713   4.227   5.922
12991TIP3   OH238849   5.797   7.986   3.717
12991TIP3    H138850   5.759   7.986   3.629
12991TIP3    H238851   5.891   7.980   3.702
12992TIP3   OH238852   6.314   8.654   4.502
12992TIP3    H138853   6.364   8.725   4.460
12992TIP3    H238854   6.372   8.578   4.495
12993TIP3   OH238855   7.927   0.701   5.430
12993TIP3    H138856   7.971   0.784   5.411
12993TIP3    H238857   7.906   0.664   5.344
12994TIP3   OH238858   0.305   0.658   6.592
12994TIP3    H138859   0.294   0.618   6.678
12994TIP3    H238860   0.395   0.692   6.593
12995TIP3   OH238861   3.687   2.551   7.558
12995TIP3    H138862   3.640   2.568   7.640
12995TIP3    H238863   3.715   2.638   7.528
12996TIP3   OH238864   4.982   0.728   6.515
12996TIP3    H138865   5.059   0.762   6.562
12996TIP3    H238866   4.907   0.771   6.557
12997TIP3   OH238867   0.454   1.638   4.134
12997TIP3    H138868   0.474   1.582   4.210
12997TIP3    H238869   0.391   1.587   4.083
12998TIP3   OH238870   2.914   4.741   0.676
12998TIP3    H138871   2.936   4.649   0.693
12998TIP3    H238872   2.991   4.777   0.633
12999TIP3   OH238873   8.407   1.562   2.383
12999TIP3    H138874   8.338   1.624   2.358
12999TIP3    H238875   8.359   1.488   2.421
13000TIP3   OH238876   6.021   7.380   4.915
13000TIP3    H138877   6.062   7.424   4.840
13000TIP3    H238878   5.994   7.451   4.973
13001TIP3   OH238879   2.476   5.343   3.105
13001TIP3    H138880   2.471   5.339   3.200
13001TIP3    H238881   2.569   5.332   3.085
13002TIP3   OH238882   5.464   4.293   4.501
13002TIP3    H138883   5.418   4.298   4.585
13002TIP3    H238884   5.403   4.247   4.444
13003TIP3   OH238885   9.547   9.009   5.212
13003TIP3    H138886   9.534   8.953   5.135
13003TIP3    H238887   9.545   9.098   5.177
13004TIP3   OH238888   6.749   7.638   0.082
13004TIP3    H138889   6.829   7.674   0.042
13004TIP3    H238890   6.696   7.715   0.103
13005TIP3   OH238891  -0.003   3.586   4.329
13005TIP3    H138892   0.068   3.555   4.273
13005TIP3    H238893   0.037   3.654   4.384
13006TIP3   OH238894   4.693   5.587   0.791
13006TIP3    H138895   4.756   5.655   0.768
13006TIP3    H238896   4.615   5.608   0.739
13007TIP3   OH238897   3.013   5.004   0.053
13007TIP3    H138898   2.963   5.086   0.049
13007TIP3    H238899   3.035   4.985  -0.038
13008TIP3   OH238900   1.882   7.971   7.008
13008TIP3    H138901   1.961   7.929   6.976
13008TIP3    H238902   1.811   7.927   6.961
13009TIP3   OH238903   4.981   8.343   2.110
13009TIP3    H138904   4.997   8.249   2.102
13009TIP3    H238905   4.885   8.351   2.117
13010TIP3   OH238906   7.476   0.891   5.589
13010TIP3    H138907   7.549   0.877   5.529
13010TIP3    H238908   7.412   0.824   5.566
13011TIP3   OH238909   8.701   7.842   0.543
13011TIP3    H138910   8.635   7.831   0.475
13011TIP3    H238911   8.772   7.890   0.499
13012TIP3   OH238912   7.789   0.660   4.102
13012TIP3    H138913   7.883   0.664   4.084
13012TIP3    H238914   7.781   0.683   4.194
13013TIP3   OH238915   0.315   8.520   2.555
13013TIP3    H138916   0.372   8.482   2.488
13013TIP3    H238917   0.242   8.458   2.563
13014TIP3   OH238918   2.772   4.574   5.931
13014TIP3    H138919   2.701   4.571   5.995
13014TIP3    H238920   2.748   4.509   5.865
13015TIP3   OH238921   0.173   2.468   5.728
13015TIP3    H138922   0.081   2.491   5.713
13015TIP3    H238923   0.187   2.389   5.675
13016TIP3   OH238924   7.471   7.356   6.948
13016TIP3    H138925   7.415   7.349   7.025
13016TIP3    H238926   7.558   7.331   6.979
13017TIP3   OH238927   7.075   2.153   1.325
13017TIP3    H138928   7.070   2.203   1.244
13017TIP3    H238929   7.013   2.195   1.384
13018TIP3   OH238930   1.869   2.598   1.131
13018TIP3    H138931   1.917   2.545   1.194
13018TIP3    H238932   1.804   2.538   1.094
13019TIP3   OH238933   5.690   2.872   6.558
13019TIP3    H138934   5.602   2.901   6.581
13019TIP3    H238935   5.710   2.803   6.622
13020TIP3   OH238936   4.548   7.402   7.518
13020TIP3    H138937   4.544   7.389   7.613
13020TIP3    H238938   4.531   7.315   7.482
13021TIP3   OH238939   7.494   2.517   4.716
13021TIP3    H138940   7.525   2.463   4.644
13021TIP3    H238941   7.566   2.578   4.734
13022TIP3   OH238942   5.696   3.313   5.928
13022TIP3    H138943   5.665   3.383   5.985
13022TIP3    H238944   5.768   3.352   5.878
13023TIP3   OH238945   1.183   2.122   7.259
13023TIP3    H138946   1.259   2.068   7.237
13023TIP3    H238947   1.119   2.102   7.191
13024TIP3   OH238948   7.493   6.585   1.060
13024TIP3    H138949   7.431   6.597   1.133
13024TIP3    H238950   7.471   6.499   1.024
13025TIP3   OH238951   6.332   4.022   2.858
13025TIP3    H138952   6.307   3.957   2.923
13025TIP3    H238953   6.250   4.043   2.812
13026TIP3   OH238954   4.310   4.846   6.975
13026TIP3    H138955   4.268   4.794   7.045
13026TIP3    H238956   4.372   4.785   6.934
13027TIP3   OH238957   5.176   6.870   4.003
13027TIP3    H138958   5.212   6.782   4.014
13027TIP3    H238959   5.191   6.891   3.911
13028TIP3   OH238960   7.514   4.877   4.614
13028TIP3    H138961   7.458   4.939   4.661
13028TIP3    H238962   7.524   4.803   4.674
13029TIP3   OH238963   3.961   2.065   7.563
13029TIP3    H138964   3.888   2.084   7.504
13029TIP3    H238965   3.975   2.147   7.610
13030TIP3   OH238966   0.219   7.996   7.204
13030TIP3    H138967   0.306   8.032   7.187
13030TIP3    H238968   0.216   7.916   7.152
13031TIP3   OH238969   1.713   8.796   6.348
13031TIP3    H138970   1.696   8.760   6.261
13031TIP3    H238971   1.782   8.861   6.333
13032TIP3   OH238972   8.429   0.258   5.360
13032TIP3    H138973   8.363   0.327   5.351
13032TIP3    H238974   8.511   0.306   5.374
13033TIP3   OH238975   4.669   6.828   2.401
13033TIP3    H138976   4.649   6.871   2.484
13033TIP3    H238977   4.694   6.739   2.426
13034TIP3   OH238978   4.881   8.208   0.999
13034TIP3    H138979   4.828   8.128   0.994
13034TIP3    H238980   4.968   8.181   0.967
13035TIP3   OH238981   1.459   3.940   1.820
13035TIP3    H138982   1.552   3.919   1.809
13035TIP3    H238983   1.457   4.036   1.824
13036TIP3   OH238984   3.959   5.671   3.290
13036TIP3    H138985   3.946   5.726   3.368
13036TIP3    H238986   3.910   5.591   3.309
13037TIP3   OH238987   1.600   3.887   3.800
13037TIP3    H138988   1.601   3.792   3.813
13037TIP3    H238989   1.529   3.919   3.855
13038TIP3   OH238990   2.331   7.718   3.887
13038TIP3    H138991   2.319   7.811   3.909
13038TIP3    H238992   2.425   7.703   3.899
13039TIP3   OH238993   4.569   1.919   6.727
13039TIP3    H138994   4.534   1.860   6.661
13039TIP3    H238995   4.546   1.878   6.811
13040TIP3   OH238996   8.591   6.811   3.532
13040TIP3    H138997   8.683   6.795   3.550
13040TIP3    H238998   8.551   6.821   3.619
13041TIP3   OH238999   3.086   2.931   6.150
13041TIP3    H139000   3.148   2.970   6.212
13041TIP3    H239001   3.102   2.837   6.156
13042TIP3   OH239002   6.610   1.679   3.584
13042TIP3    H139003   6.624   1.729   3.504
13042TIP3    H239004   6.681   1.707   3.642
13043TIP3   OH239005   8.539   4.438   0.358
13043TIP3    H139006   8.588   4.355   0.359
13043TIP3    H239007   8.549   4.471   0.268
13044TIP3   OH239008   4.511   2.914   0.089
13044TIP3    H139009   4.499   3.009   0.089
13044TIP3    H239010   4.601   2.902   0.057
13045TIP3   OH239011   5.324   2.609   6.702
13045TIP3    H139012   5.327   2.679   6.636
13045TIP3    H239013   5.240   2.621   6.745
13046TIP3   OH239014   9.170   3.722   7.297
13046TIP3    H139015   9.238   3.687   7.355
13046TIP3    H239016   9.098   3.660   7.305
13047TIP3   OH239017   7.582   3.133   3.526
13047TIP3    H139018   7.545   3.217   3.499
13047TIP3    H239019   7.631   3.152   3.606
13048TIP3   OH239020   9.454   7.106   5.456
13048TIP3    H139021   9.526   7.125   5.516
13048TIP3    H239022   9.487   7.128   5.370
13049TIP3   OH239023   1.256   1.025   0.238
13049TIP3    H139024   1.303   1.097   0.196
13049TIP3    H239025   1.165   1.055   0.243
13050TIP3   OH239026   8.710   8.236   7.318
13050TIP3    H139027   8.765   8.251   7.394
13050TIP3    H239028   8.632   8.289   7.334
13051TIP3   OH239029   2.018   8.384   2.279
13051TIP3    H139030   2.017   8.290   2.259
13051TIP3    H239031   2.002   8.426   2.194
13052TIP3   OH239032   5.066   7.684   6.420
13052TIP3    H139033   5.054   7.772   6.385
13052TIP3    H239034   5.154   7.686   6.460
13053TIP3   OH239035   2.876   5.142   2.617
13053TIP3    H139036   2.916   5.182   2.540
13053TIP3    H239037   2.835   5.062   2.584
13054TIP3   OH239038   8.526   1.410   2.054
13054TIP3    H139039   8.577   1.353   2.111
13054TIP3    H239040   8.543   1.378   1.966
13055TIP3   OH239041   0.198   4.796   6.141
13055TIP3    H139042   0.141   4.873   6.138
13055TIP3    H239043   0.221   4.779   6.050
13056TIP3   OH239044   1.159   4.226   2.334
13056TIP3    H139045   1.249   4.254   2.319
13056TIP3    H239046   1.115   4.305   2.365
13057TIP3   OH239047   1.943   4.629   3.344
13057TIP3    H139048   1.993   4.552   3.371
13057TIP3    H239049   1.852   4.600   3.346
13058TIP3   OH239050   6.904   0.288   1.004
13058TIP3    H139051   6.927   0.370   1.048
13058TIP3    H239052   6.845   0.244   1.065
13059TIP3   OH239053   2.248   0.296   6.753
13059TIP3    H139054   2.274   0.210   6.719
13059TIP3    H239055   2.200   0.277   6.833
13060TIP3   OH239056   3.320   1.380   6.443
13060TIP3    H139057   3.371   1.460   6.452
13060TIP3    H239058   3.379   1.318   6.400
13061TIP3   OH239059   2.322   4.697   0.419
13061TIP3    H139060   2.235   4.661   0.405
13061TIP3    H239061   2.307   4.791   0.435
13062TIP3   OH239062   1.081   2.799   3.360
13062TIP3    H139063   1.053   2.801   3.452
13062TIP3    H239064   1.147   2.730   3.357
13063TIP3   OH239065   6.230   2.890   1.670
13063TIP3    H139066   6.205   2.954   1.602
13063TIP3    H239067   6.263   2.815   1.620
13064TIP3   OH239068   5.675   6.436   7.003
13064TIP3    H139069   5.687   6.530   6.993
13064TIP3    H239070   5.616   6.426   7.078
13065TIP3   OH239071   9.018   0.388   2.443
13065TIP3    H139072   8.925   0.369   2.452
13065TIP3    H239073   9.036   0.453   2.511
13066TIP3   OH239074   9.367   7.223   6.331
13066TIP3    H139075   9.388   7.257   6.244
13066TIP3    H239076   9.434   7.156   6.347
13067TIP3   OH239077   0.049   5.842   6.536
13067TIP3    H139078  -0.013   5.770   6.539
13067TIP3    H239079   0.079   5.844   6.445
13068TIP3   OH239080   2.034   4.290   2.296
13068TIP3    H139081   2.124   4.320   2.288
13068TIP3    H239082   1.982   4.354   2.247
13069TIP3   OH239083   1.771   3.130   2.805
13069TIP3    H139084   1.782   3.053   2.748
13069TIP3    H239085   1.856   3.172   2.805
13070TIP3   OH239086   1.814   0.797   6.574
13070TIP3    H139087   1.792   0.760   6.489
13070TIP3    H239088   1.814   0.722   6.634
13071TIP3   OH239089   8.497   5.450   3.241
13071TIP3    H139090   8.574   5.492   3.279
13071TIP3    H239091   8.448   5.522   3.202
13072TIP3   OH239092   0.774   1.962   2.540
13072TIP3    H139093   0.699   2.002   2.497
13072TIP3    H239094   0.845   1.967   2.475
13073TIP3   OH239095   0.862   0.382   2.575
13073TIP3    H139096   0.814   0.335   2.643
13073TIP3    H239097   0.847   0.475   2.595
13074TIP3   OH239098   2.686   5.595   1.308
13074TIP3    H139099   2.775   5.600   1.342
13074TIP3    H239100   2.669   5.501   1.299
13075TIP3   OH239101   4.026   1.060   4.741
13075TIP3    H139102   4.117   1.045   4.766
13075TIP3    H239103   4.013   1.004   4.664
13076TIP3   OH239104   7.846   2.436   4.005
13076TIP3    H139105   7.768   2.490   3.996
13076TIP3    H239106   7.915   2.487   3.963
13077TIP3   OH239107   1.886   2.576   0.698
13077TIP3    H139108   1.956   2.627   0.657
13077TIP3    H239109   1.930   2.527   0.767
13078TIP3   OH239110   9.249   7.207   5.787
13078TIP3    H139111   9.330   7.200   5.837
13078TIP3    H239112   9.217   7.117   5.782
13079TIP3   OH239113   5.292   3.993   5.241
13079TIP3    H139114   5.352   3.972   5.169
13079TIP3    H239115   5.231   4.056   5.203
13080TIP3   OH239116   1.438   2.266   3.935
13080TIP3    H139117   1.477   2.304   3.856
13080TIP3    H239118   1.344   2.267   3.919
13081TIP3   OH239119   7.390   4.743   3.909
13081TIP3    H139120   7.367   4.739   4.001
13081TIP3    H239121   7.434   4.827   3.899
13082TIP3   OH239122   3.124   6.311   5.213
13082TIP3    H139123   3.065   6.297   5.288
13082TIP3    H239124   3.109   6.401   5.186
13083TIP3   OH239125   6.965   1.540   4.023
13083TIP3    H139126   6.999   1.523   4.111
13083TIP3    H239127   6.871   1.521   4.030
13084TIP3   OH239128   9.037   6.637   0.455
13084TIP3    H139129   8.960   6.580   0.447
13084TIP3    H239130   9.082   6.628   0.371
13085TIP3   OH239131   3.726   3.497   4.643
13085TIP3    H139132   3.741   3.507   4.737
13085TIP3    H239133   3.671   3.572   4.619
13086TIP3   OH239134   3.513   3.802   1.582
13086TIP3    H139135   3.556   3.825   1.499
13086TIP3    H239136   3.583   3.770   1.638
13087TIP3   OH239137   1.034   5.221   6.975
13087TIP3    H139138   0.954   5.173   6.997
13087TIP3    H239139   1.010   5.313   6.988
13088TIP3   OH239140   6.313   8.639   3.987
13088TIP3    H139141   6.233   8.595   4.016
13088TIP3    H239142   6.322   8.613   3.895
13089TIP3   OH239143   0.670   1.289   0.801
13089TIP3    H139144   0.687   1.292   0.896
13089TIP3    H239145   0.575   1.289   0.794
13090TIP3   OH239146   4.892   1.680   2.630
13090TIP3    H139147   4.981   1.716   2.635
13090TIP3    H239148   4.899   1.610   2.565
13091TIP3   OH239149   4.091   0.772   7.800
13091TIP3    H139150   4.161   0.801   7.859
13091TIP3    H239151   4.046   0.852   7.774
13092TIP3   OH239152   5.196   0.011   1.547
13092TIP3    H139153   5.125  -0.039   1.507
13092TIP3    H239154   5.208  -0.029   1.633
13093TIP3   OH239155   8.778   7.214   4.069
13093TIP3    H139156   8.747   7.213   3.978
13093TIP3    H239157   8.715   7.271   4.114
13094TIP3   OH239158   2.532   2.515   7.274
13094TIP3    H139159   2.557   2.565   7.351
13094TIP3    H239160   2.470   2.572   7.228
13095TIP3   OH239161   5.540   8.058   6.486
13095TIP3    H139162   5.454   8.030   6.457
13095TIP3    H239163   5.599   8.032   6.416
13096TIP3   OH239164   5.805   0.532   0.353
13096TIP3    H139165   5.810   0.623   0.383
13096TIP3    H239166   5.887   0.519   0.305
13097TIP3   OH239167   6.736   1.363   3.569
13097TIP3    H139168   6.708   1.425   3.502
13097TIP3    H239169   6.745   1.280   3.523
13098TIP3   OH239170   0.075   1.153   3.295
13098TIP3    H139171   0.016   1.109   3.357
13098TIP3    H239172   0.134   1.204   3.350
13099TIP3   OH239173   7.175   6.086   0.555
13099TIP3    H139174   7.102   6.132   0.597
13099TIP3    H239175   7.234   6.063   0.626
13100TIP3   OH239176   4.896   6.836   3.966
13100TIP3    H139177   4.984   6.849   4.002
13100TIP3    H239178   4.907   6.770   3.898
13101TIP3   OH239179   1.866   7.983   4.831
13101TIP3    H139180   1.956   8.014   4.836
13101TIP3    H239181   1.816   8.059   4.800
13102TIP3   OH239182   5.340   1.924   5.177
13102TIP3    H139183   5.298   1.938   5.262
13102TIP3    H239184   5.434   1.928   5.195
13103TIP3   OH239185   9.527   4.728   3.678
13103TIP3    H139186   9.511   4.670   3.603
13103TIP3    H239187   9.566   4.806   3.639
13104TIP3   OH239188   8.431   5.927   1.253
13104TIP3    H139189   8.435   5.994   1.322
13104TIP3    H239190   8.444   5.844   1.299
13105TIP3   OH239191   3.579   6.805   5.388
13105TIP3    H139192   3.643   6.836   5.324
13105TIP3    H239193   3.548   6.885   5.431
13106TIP3   OH239194   1.626   3.273   7.093
13106TIP3    H139195   1.697   3.229   7.140
13106TIP3    H239196   1.577   3.201   7.053
13107TIP3   OH239197   5.440   5.121   5.018
13107TIP3    H139198   5.480   5.207   5.007
13107TIP3    H239199   5.349   5.140   5.041
13108TIP3   OH239200   1.148   3.625   4.966
13108TIP3    H139201   1.099   3.691   4.917
13108TIP3    H239202   1.081   3.567   5.002
13109TIP3   OH239203   8.711   5.619   1.613
13109TIP3    H139204   8.764   5.679   1.666
13109TIP3    H239205   8.660   5.569   1.676
13110TIP3   OH239206   5.225   3.600   1.180
13110TIP3    H139207   5.166   3.576   1.251
13110TIP3    H239208   5.193   3.551   1.105
13111TIP3   OH239209   8.234   2.841   4.878
13111TIP3    H139210   8.148   2.868   4.910
13111TIP3    H239211   8.246   2.892   4.797
13112TIP3   OH239212   8.072   8.267   3.254
13112TIP3    H139213   8.138   8.245   3.320
13112TIP3    H239214   8.099   8.351   3.219
13113TIP3   OH239215   0.894   3.905   7.527
13113TIP3    H139216   0.832   3.976   7.507
13113TIP3    H239217   0.929   3.928   7.614
13114TIP3   OH239218   8.677   6.279   4.311
13114TIP3    H139219   8.733   6.334   4.257
13114TIP3    H239220   8.588   6.296   4.278
13115TIP3   OH239221   8.111   2.931   6.051
13115TIP3    H139222   8.202   2.943   6.026
13115TIP3    H239223   8.114   2.910   6.144
13116TIP3   OH239224   2.145   4.648   5.102
13116TIP3    H139225   2.203   4.590   5.053
13116TIP3    H239226   2.082   4.590   5.143
13117TIP3   OH239227   9.449   4.535   1.546
13117TIP3    H139228   9.450   4.511   1.454
13117TIP3    H239229   9.366   4.500   1.579
13118TIP3   OH239230   3.873   8.779   2.061
13118TIP3    H139231   3.944   8.837   2.035
13118TIP3    H239232   3.917   8.702   2.097
13119TIP3   OH239233   0.127   3.894   6.008
13119TIP3    H139234   0.094   3.952   5.940
13119TIP3    H239235   0.181   3.950   6.064
13120TIP3   OH239236   2.344   8.678   3.521
13120TIP3    H139237   2.319   8.707   3.609
13120TIP3    H239238   2.288   8.728   3.462
13121TIP3   OH239239   2.800   7.593   3.227
13121TIP3    H139240   2.811   7.546   3.144
13121TIP3    H239241   2.842   7.536   3.292
13122TIP3   OH239242   2.221   3.436   5.132
13122TIP3    H139243   2.197   3.488   5.208
13122TIP3    H239244   2.311   3.464   5.111
13123TIP3   OH239245   8.539   3.462   4.344
13123TIP3    H139246   8.613   3.437   4.289
13123TIP3    H239247   8.564   3.546   4.383
13124TIP3   OH239248   2.857   1.609   7.076
13124TIP3    H139249   2.848   1.697   7.112
13124TIP3    H239250   2.817   1.614   6.989
13125TIP3   OH239251   2.701   1.293   4.230
13125TIP3    H139252   2.676   1.297   4.322
13125TIP3    H239253   2.681   1.203   4.204
13126TIP3   OH239254   7.620   1.644   1.160
13126TIP3    H139255   7.651   1.655   1.070
13126TIP3    H239256   7.657   1.718   1.207
13127TIP3   OH239257   9.167   0.225   6.067
13127TIP3    H139258   9.098   0.271   6.019
13127TIP3    H239259   9.248   0.264   6.036
13128TIP3   OH239260   2.080   8.643   7.457
13128TIP3    H139261   2.025   8.721   7.445
13128TIP3    H239262   2.170   8.676   7.452
13129TIP3   OH239263   3.822   5.595   6.684
13129TIP3    H139264   3.828   5.554   6.771
13129TIP3    H239265   3.741   5.559   6.647
13130TIP3   OH239266   6.923   4.437   1.176
13130TIP3    H139267   6.955   4.391   1.254
13130TIP3    H239268   6.856   4.497   1.208
13131TIP3   OH239269   0.515   1.951   7.014
13131TIP3    H139270   0.598   1.969   7.059
13131TIP3    H239271   0.448   1.982   7.075
13132TIP3   OH239272   3.428   7.274   0.187
13132TIP3    H139273   3.383   7.189   0.190
13132TIP3    H239274   3.370   7.334   0.234
13133TIP3   OH239275   3.888   8.214   2.491
13133TIP3    H139276   3.841   8.150   2.545
13133TIP3    H239277   3.831   8.228   2.416
13134TIP3   OH239278   3.162   6.263   4.891
13134TIP3    H139279   3.114   6.245   4.972
13134TIP3    H239280   3.214   6.341   4.910
13135TIP3   OH239281   1.440   0.461   4.061
13135TIP3    H139282   1.479   0.518   3.994
13135TIP3    H239283   1.466   0.501   4.144
13136TIP3   OH239284   2.977   3.094   3.160
13136TIP3    H139285   2.943   3.182   3.144
13136TIP3    H239286   3.042   3.105   3.229
13137TIP3   OH239287   4.256   4.605   7.609
13137TIP3    H139288   4.317   4.651   7.666
13137TIP3    H239289   4.263   4.649   7.525
13138TIP3   OH239290   7.120   4.456   5.739
13138TIP3    H139291   7.025   4.443   5.746
13138TIP3    H239292   7.133   4.487   5.649
13139TIP3   OH239293   4.005   1.224   5.911
13139TIP3    H139294   4.098   1.203   5.909
13139TIP3    H239295   3.989   1.272   5.829
13140TIP3   OH239296   7.301   6.813   2.535
13140TIP3    H139297   7.250   6.780   2.608
13140TIP3    H239298   7.239   6.865   2.484
13141TIP3   OH239299   1.988   2.421   1.317
13141TIP3    H139300   1.974   2.329   1.294
13141TIP3    H239301   2.077   2.422   1.354
13142TIP3   OH239302   4.568   0.500   2.612
13142TIP3    H139303   4.549   0.429   2.673
13142TIP3    H239304   4.491   0.557   2.617
13143TIP3   OH239305   0.426   1.666   1.951
13143TIP3    H139306   0.343   1.702   1.918
13143TIP3    H239307   0.493   1.707   1.897
13144TIP3   OH239308   2.001   0.693   6.981
13144TIP3    H139309   2.051   0.773   6.995
13144TIP3    H239310   1.988   0.689   6.886
13145TIP3   OH239311   0.261   4.980   4.804
13145TIP3    H139312   0.249   5.073   4.824
13145TIP3    H239313   0.202   4.935   4.864
13146TIP3   OH239314   0.959   2.698   6.127
13146TIP3    H139315   1.054   2.687   6.122
13146TIP3    H239316   0.928   2.621   6.174
13147TIP3   OH239317   1.873   8.244   3.647
13147TIP3    H139318   1.928   8.274   3.719
13147TIP3    H239319   1.784   8.247   3.683
13148TIP3   OH239320   8.135   8.534   0.381
13148TIP3    H139321   8.079   8.473   0.332
13148TIP3    H239322   8.150   8.491   0.465
13149TIP3   OH239323   2.593   3.207   2.566
13149TIP3    H139324   2.602   3.295   2.602
13149TIP3    H239325   2.558   3.154   2.638
13150TIP3   OH239326   8.002   3.990   4.574
13150TIP3    H139327   8.066   4.024   4.636
13150TIP3    H239328   7.988   3.899   4.601
13151TIP3   OH239329   1.828   6.615   2.161
13151TIP3    H139330   1.830   6.694   2.107
13151TIP3    H239331   1.895   6.630   2.228
13152TIP3   OH239332   4.336   0.770   4.990
13152TIP3    H139333   4.336   0.775   5.085
13152TIP3    H239334   4.243   0.773   4.966
13153TIP3   OH239335   2.043   2.476   0.910
13153TIP3    H139336   2.139   2.477   0.913
13153TIP3    H239337   2.016   2.523   0.988
13154TIP3   OH239338   2.236   6.580   3.142
13154TIP3    H139339   2.272   6.662   3.107
13154TIP3    H239340   2.234   6.521   3.067
13155TIP3   OH239341   0.939   3.415   7.779
13155TIP3    H139342   0.876   3.355   7.818
13155TIP3    H239343   0.892   3.498   7.770
13156TIP3   OH239344   7.145   7.996   4.223
13156TIP3    H139345   7.181   8.007   4.311
13156TIP3    H239346   7.203   7.933   4.181
13157TIP3   OH239347   0.678   5.582   7.045
13157TIP3    H139348   0.608   5.533   7.089
13157TIP3    H239349   0.634   5.628   6.974
13158TIP3   OH239350   4.457   5.591   4.044
13158TIP3    H139351   4.501   5.608   4.128
13158TIP3    H239352   4.524   5.611   3.978
13159TIP3   OH239353   9.343   5.959   7.311
13159TIP3    H139354   9.266   5.990   7.359
13159TIP3    H239355   9.341   5.864   7.322
13160TIP3   OH239356   0.131   3.596   1.297
13160TIP3    H139357   0.073   3.546   1.240
13160TIP3    H239358   0.170   3.661   1.238
13161TIP3   OH239359   5.504   7.308   7.092
13161TIP3    H139360   5.466   7.355   7.017
13161TIP3    H239361   5.439   7.318   7.161
13162TIP3   OH239362   7.119   2.738   7.043
13162TIP3    H139363   7.127   2.758   7.136
13162TIP3    H239364   7.138   2.644   7.036
13163TIP3   OH239365   0.728   8.968   3.349
13163TIP3    H139366   0.819   8.937   3.348
13163TIP3    H239367   0.730   9.043   3.409
13164TIP3   OH239368   6.749   6.719   4.364
13164TIP3    H139369   6.733   6.627   4.344
13164TIP3    H239370   6.767   6.760   4.279
13165TIP3   OH239371   5.956   3.930   5.168
13165TIP3    H139372   5.918   3.937   5.081
13165TIP3    H239373   5.908   3.858   5.209
13166TIP3   OH239374   1.956   7.008   7.479
13166TIP3    H139375   2.022   6.939   7.473
13166TIP3    H239376   1.890   6.974   7.538
13167TIP3   OH239377   7.598   0.594   5.419
13167TIP3    H139378   7.671   0.544   5.455
13167TIP3    H239379   7.630   0.625   5.334
13168TIP3   OH239380   3.442   2.761   2.758
13168TIP3    H139381   3.420   2.716   2.839
13168TIP3    H239382   3.534   2.738   2.742
13169TIP3   OH239383   1.017   5.402   0.312
13169TIP3    H139384   0.930   5.388   0.350
13169TIP3    H239385   1.048   5.482   0.355
13170TIP3   OH239386   0.026   7.626   0.276
13170TIP3    H139387   0.044   7.715   0.245
13170TIP3    H239388   0.089   7.613   0.347
13171TIP3   OH239389   7.255   3.385   6.143
13171TIP3    H139390   7.341   3.345   6.148
13171TIP3    H239391   7.269   3.476   6.168
13172TIP3   OH239392   8.884   7.431   6.170
13172TIP3    H139393   8.933   7.354   6.143
13172TIP3    H239394   8.845   7.408   6.254
13173TIP3   OH239395   8.312   0.844   5.020
13173TIP3    H139396   8.230   0.795   5.013
13173TIP3    H239397   8.360   0.823   4.940
13174TIP3   OH239398   4.646   6.204   3.956
13174TIP3    H139399   4.619   6.120   3.918
13174TIP3    H239400   4.585   6.268   3.919
13175TIP3   OH239401   5.772   0.441   3.618
13175TIP3    H139402   5.749   0.442   3.525
13175TIP3    H239403   5.861   0.406   3.621
13176TIP3   OH239404   5.703   1.177   7.428
13176TIP3    H139405   5.669   1.101   7.380
13176TIP3    H239406   5.643   1.248   7.407
13177TIP3   OH239407   4.424   8.544   3.028
13177TIP3    H139408   4.447   8.501   3.110
13177TIP3    H239409   4.476   8.625   3.028
13178TIP3   OH239410   2.904   3.763   3.922
13178TIP3    H139411   2.838   3.796   3.983
13178TIP3    H239412   2.907   3.669   3.938
13179TIP3   OH239413   3.333   1.362   3.008
13179TIP3    H139414   3.333   1.338   2.915
13179TIP3    H239415   3.414   1.412   3.020
13180TIP3   OH239416   1.954   8.272   4.740
13180TIP3    H139417   1.929   8.347   4.686
13180TIP3    H239418   2.011   8.220   4.683
13181TIP3   OH239419   7.953   8.243   0.445
13181TIP3    H139420   7.881   8.302   0.467
13181TIP3    H239421   7.950   8.174   0.511
13182TIP3   OH239422   4.844   3.391   0.155
13182TIP3    H139423   4.882   3.418   0.072
13182TIP3    H239424   4.886   3.307   0.174
13183TIP3   OH239425   7.342   5.241   5.469
13183TIP3    H139426   7.409   5.303   5.442
13183TIP3    H239427   7.272   5.251   5.404
13184TIP3   OH239428   4.247   4.538   6.644
13184TIP3    H139429   4.328   4.582   6.619
13184TIP3    H239430   4.219   4.492   6.565
13185TIP3   OH239431   9.489   4.477   1.282
13185TIP3    H139432   9.478   4.546   1.216
13185TIP3    H239433   9.417   4.417   1.266
13186TIP3   OH239434   9.127   1.508   1.940
13186TIP3    H139435   9.202   1.461   1.903
13186TIP3    H239436   9.154   1.530   2.029
13187TIP3   OH239437   1.591   7.404   6.417
13187TIP3    H139438   1.648   7.478   6.436
13187TIP3    H239439   1.647   7.327   6.425
13188TIP3   OH239440   8.581   6.577   2.211
13188TIP3    H139441   8.539   6.573   2.125
13188TIP3    H239442   8.666   6.616   2.194
13189TIP3   OH239443   0.880   7.147   1.958
13189TIP3    H139444   0.806   7.202   1.983
13189TIP3    H239445   0.855   7.058   1.985
13190TIP3   OH239446   7.462   3.792   7.402
13190TIP3    H139447   7.416   3.764   7.323
13190TIP3    H239448   7.493   3.710   7.441
13191TIP3   OH239449   0.344   5.298   2.626
13191TIP3    H139450   0.316   5.333   2.541
13191TIP3    H239451   0.390   5.217   2.604
13192TIP3   OH239452   8.984   6.628   0.145
13192TIP3    H139453   8.921   6.688   0.186
13192TIP3    H239454   8.986   6.655   0.053
13193TIP3   OH239455   3.113   1.254   4.134
13193TIP3    H139456   3.063   1.300   4.202
13193TIP3    H239457   3.088   1.297   4.052
13194TIP3   OH239458   2.224   1.712   3.572
13194TIP3    H139459   2.172   1.693   3.494
13194TIP3    H239460   2.315   1.701   3.545
13195TIP3   OH239461   1.010   7.204   1.689
13195TIP3    H139462   0.974   7.155   1.764
13195TIP3    H239463   0.935   7.254   1.656
13196TIP3   OH239464   0.301   0.437   0.405
13196TIP3    H139465   0.248   0.413   0.328
13196TIP3    H239466   0.361   0.363   0.416
13197TIP3   OH239467   9.486   0.118   0.499
13197TIP3    H139468   9.475   0.189   0.435
13197TIP3    H239469   9.576   0.089   0.486
13198TIP3   OH239470   8.846   9.000   4.878
13198TIP3    H139471   8.910   9.058   4.920
13198TIP3    H239472   8.876   8.912   4.900
13199TIP3   OH239473   2.426   1.244   3.708
13199TIP3    H139474   2.499   1.293   3.669
13199TIP3    H239475   2.381   1.307   3.763
13200TIP3   OH239476   1.842   0.987   0.033
13200TIP3    H139477   1.922   1.035   0.058
13200TIP3    H239478   1.780   1.055   0.010
13201TIP3   OH239479   3.301   0.926   3.781
13201TIP3    H139480   3.351   0.918   3.700
13201TIP3    H239481   3.213   0.948   3.753
13202TIP3   OH239482   8.699   2.410   5.359
13202TIP3    H139483   8.778   2.401   5.305
13202TIP3    H239484   8.730   2.449   5.440
13203TIP3   OH239485   6.323   5.429   6.894
13203TIP3    H139486   6.345   5.336   6.893
13203TIP3    H239487   6.340   5.459   6.805
13204TIP3   OH239488   4.234   1.085   6.341
13204TIP3    H139489   4.317   1.127   6.317
13204TIP3    H239490   4.230   1.008   6.284
13205TIP3   OH239491   7.443   7.356   2.527
13205TIP3    H139492   7.422   7.346   2.434
13205TIP3    H239493   7.517   7.417   2.528
13206TIP3   OH239494   4.871   7.472   4.719
13206TIP3    H139495   4.826   7.429   4.791
13206TIP3    H239496   4.904   7.401   4.664
13207TIP3   OH239497   7.481   3.394   2.613
13207TIP3    H139498   7.438   3.316   2.578
13207TIP3    H239499   7.575   3.376   2.605
13208TIP3   OH239500   2.690   0.886   2.255
13208TIP3    H139501   2.662   0.805   2.213
13208TIP3    H239502   2.617   0.912   2.310
13209TIP3   OH239503   6.969   2.724   5.405
13209TIP3    H139504   7.054   2.680   5.412
13209TIP3    H239505   6.934   2.695   5.321
13210TIP3   OH239506   6.601   4.292   5.194
13210TIP3    H139507   6.674   4.353   5.202
13210TIP3    H239508   6.526   4.338   5.233
13211TIP3   OH239509   3.476   3.333   5.765
13211TIP3    H139510   3.427   3.399   5.716
13211TIP3    H239511   3.409   3.270   5.793
13212TIP3   OH239512   2.263   0.591   3.179
13212TIP3    H139513   2.174   0.617   3.200
13212TIP3    H239514   2.309   0.674   3.166
13213TIP3   OH239515   3.882   0.147   6.674
13213TIP3    H139516   3.832   0.224   6.649
13213TIP3    H239517   3.859   0.130   6.765
13214TIP3   OH239518   2.451   2.825   6.108
13214TIP3    H139519   2.507   2.748   6.098
13214TIP3    H239520   2.486   2.872   6.183
13215TIP3   OH239521   4.077   2.992   2.272
13215TIP3    H139522   4.031   3.074   2.256
13215TIP3    H239523   4.165   3.018   2.299
13216TIP3   OH239524   7.916   8.690   0.396
13216TIP3    H139525   7.996   8.653   0.359
13216TIP3    H239526   7.946   8.760   0.454
13217TIP3   OH239527   1.329   4.780   5.874
13217TIP3    H139528   1.417   4.811   5.851
13217TIP3    H239529   1.341   4.733   5.956
13218TIP3   OH239530   2.914   5.620   1.505
13218TIP3    H139531   2.867   5.631   1.587
13218TIP3    H239532   2.973   5.546   1.520
13219TIP3   OH239533   3.967   4.289   2.629
13219TIP3    H139534   3.884   4.281   2.677
13219TIP3    H239535   3.997   4.199   2.618
13220TIP3   OH239536   5.693   8.154   6.274
13220TIP3    H139537   5.741   8.133   6.194
13220TIP3    H239538   5.620   8.209   6.245
13221TIP3   OH239539   1.177   4.079   5.336
13221TIP3    H139540   1.194   4.004   5.279
13221TIP3    H239541   1.206   4.050   5.423
13222TIP3   OH239542   8.090   7.338   6.939
13222TIP3    H139543   8.071   7.245   6.947
13222TIP3    H239544   8.110   7.366   7.029
13223TIP3   OH239545   3.419   8.521   3.475
13223TIP3    H139546   3.351   8.560   3.420
13223TIP3    H239547   3.481   8.592   3.490
13224TIP3   OH239548   1.220   7.364   1.784
13224TIP3    H139549   1.190   7.445   1.825
13224TIP3    H239550   1.146   7.335   1.731
13225TIP3   OH239551   4.323   3.100   2.259
13225TIP3    H139552   4.329   3.098   2.164
13225TIP3    H239553   4.405   3.061   2.289
13226TIP3   OH239554   3.822   6.690   0.904
13226TIP3    H139555   3.732   6.664   0.924
13226TIP3    H239556   3.837   6.768   0.958
13227TIP3   OH239557   3.342   8.358   0.765
13227TIP3    H139558   3.348   8.273   0.808
13227TIP3    H239559   3.403   8.352   0.691
13228TIP3   OH239560   0.301   4.040   1.394
13228TIP3    H139561   0.350   4.090   1.460
13228TIP3    H239562   0.339   3.952   1.399
13229TIP3   OH239563   0.628   0.654   6.876
13229TIP3    H139564   0.586   0.655   6.790
13229TIP3    H239565   0.557   0.636   6.937
13230TIP3   OH239566   6.733   3.611   5.911
13230TIP3    H139567   6.755   3.659   5.832
13230TIP3    H239568   6.665   3.550   5.884
13231TIP3   OH239569   3.056   4.111   6.522
13231TIP3    H139570   2.978   4.055   6.525
13231TIP3    H239571   3.050   4.155   6.437
13232TIP3   OH239572   3.320   4.545   5.611
13232TIP3    H139573   3.357   4.463   5.642
13232TIP3    H239574   3.360   4.559   5.525
13233TIP3   OH239575   1.964   2.272   4.024
13233TIP3    H139576   2.042   2.239   4.067
13233TIP3    H239577   1.917   2.320   4.093
13234TIP3   OH239578   4.416   2.666   3.809
13234TIP3    H139579   4.510   2.675   3.828
13234TIP3    H239580   4.395   2.577   3.835
13235TIP3   OH239581   4.604   6.735   4.455
13235TIP3    H139582   4.623   6.750   4.547
13235TIP3    H239583   4.687   6.750   4.411
13236TIP3   OH239584   1.647   6.478   5.480
13236TIP3    H139585   1.608   6.393   5.461
13236TIP3    H239586   1.713   6.490   5.412
13237TIP3   OH239587   3.148   7.979   5.816
13237TIP3    H139588   3.091   8.036   5.868
13237TIP3    H239589   3.097   7.898   5.805
13238TIP3   OH239590   0.535   5.634   1.090
13238TIP3    H139591   0.601   5.577   1.050
13238TIP3    H239592   0.512   5.589   1.171
13239TIP3   OH239593   4.194   3.543   4.978
13239TIP3    H139594   4.184   3.484   4.903
13239TIP3    H239595   4.287   3.540   4.999
13240TIP3   OH239596   0.694   6.702   4.900
13240TIP3    H139597   0.740   6.694   4.983
13240TIP3    H239598   0.616   6.648   4.910
13241TIP3   OH239599   2.307   1.597   2.159
13241TIP3    H139600   2.390   1.643   2.167
13241TIP3    H239601   2.241   1.664   2.176
13242TIP3   OH239602   6.638   5.001   5.783
13242TIP3    H139603   6.587   4.982   5.862
13242TIP3    H239604   6.608   4.936   5.719
13243TIP3   OH239605   0.626   2.056   3.250
13243TIP3    H139606   0.546   2.106   3.230
13243TIP3    H239607   0.609   2.018   3.336
13244TIP3   OH239608   0.390   4.515   0.208
13244TIP3    H139609   0.342   4.505   0.126
13244TIP3    H239610   0.389   4.428   0.247
13245TIP3   OH239611   1.454   1.825   3.121
13245TIP3    H139612   1.527   1.792   3.173
13245TIP3    H239613   1.438   1.913   3.155
13246TIP3   OH239614   7.166   3.312   2.206
13246TIP3    H139615   7.177   3.336   2.114
13246TIP3    H239616   7.243   3.259   2.226
13247TIP3   OH239617   2.215   8.515   4.969
13247TIP3    H139618   2.244   8.445   5.026
13247TIP3    H239619   2.286   8.524   4.905
13248TIP3   OH239620   8.051   2.250   4.130
13248TIP3    H139621   8.032   2.159   4.107
13248TIP3    H239622   7.970   2.297   4.108
13249TIP3   OH239623   9.223   0.757   5.559
13249TIP3    H139624   9.285   0.696   5.519
13249TIP3    H239625   9.251   0.762   5.651
13250TIP3   OH239626   9.254   2.767   4.437
13250TIP3    H139627   9.335   2.714   4.433
13250TIP3    H239628   9.213   2.754   4.352
13251TIP3   OH239629   0.894   4.215   0.688
13251TIP3    H139630   0.800   4.234   0.695
13251TIP3    H239631   0.934   4.268   0.756
13252TIP3   OH239632   6.981   8.703   7.194
13252TIP3    H139633   6.992   8.688   7.288
13252TIP3    H239634   7.015   8.624   7.152
13253TIP3   OH239635   9.316   6.904   3.231
13253TIP3    H139636   9.331   6.994   3.258
13253TIP3    H239637   9.354   6.851   3.302
13254TIP3   OH239638   2.424   2.250   6.268
13254TIP3    H139639   2.501   2.206   6.231
13254TIP3    H239640   2.374   2.180   6.309
13255TIP3   OH239641   0.590   4.371   7.567
13255TIP3    H139642   0.537   4.447   7.543
13255TIP3    H239643   0.680   4.401   7.556
13256TIP3   OH239644   2.176   5.337   0.185
13256TIP3    H139645   2.210   5.381   0.107
13256TIP3    H239646   2.090   5.377   0.199
13257TIP3   OH239647   3.912   2.844   3.153
13257TIP3    H139648   3.817   2.858   3.152
13257TIP3    H239649   3.937   2.857   3.244
13258TIP3   OH239650   1.015   5.516   5.588
13258TIP3    H139651   1.059   5.527   5.504
13258TIP3    H239652   0.928   5.484   5.565
13259TIP3   OH239653   6.153   6.331   0.898
13259TIP3    H139654   6.153   6.396   0.828
13259TIP3    H239655   6.068   6.342   0.941
13260TIP3   OH239656   6.305   3.683   5.538
13260TIP3    H139657   6.241   3.652   5.473
13260TIP3    H239658   6.256   3.686   5.620
13261TIP3   OH239659   5.477   8.973   0.783
13261TIP3    H139660   5.512   9.050   0.736
13261TIP3    H239661   5.387   8.997   0.803
13262TIP3   OH239662   8.455   6.652   0.357
13262TIP3    H139663   8.479   6.628   0.446
13262TIP3    H239664   8.430   6.744   0.362
13263TIP3   OH239665   2.771   1.655   3.846
13263TIP3    H139666   2.790   1.679   3.937
13263TIP3    H239667   2.676   1.670   3.838
13264TIP3   OH239668   4.570   6.346   2.576
13264TIP3    H139669   4.586   6.335   2.670
13264TIP3    H239670   4.528   6.263   2.550
13265TIP3   OH239671   0.456   5.372   1.704
13265TIP3    H139672   0.530   5.344   1.649
13265TIP3    H239673   0.378   5.348   1.654
13266TIP3   OH239674   2.591   3.546   4.459
13266TIP3    H139675   2.533   3.522   4.531
13266TIP3    H239676   2.552   3.507   4.381
13267TIP3   OH239677   4.027   1.512   3.172
13267TIP3    H139678   4.122   1.500   3.181
13267TIP3    H239679   4.018   1.594   3.122
13268TIP3   OH239680   8.729   2.674   6.783
13268TIP3    H139681   8.750   2.694   6.692
13268TIP3    H239682   8.740   2.579   6.790
13269TIP3   OH239683   7.174   1.739   0.681
13269TIP3    H139684   7.137   1.693   0.607
13269TIP3    H239685   7.137   1.827   0.676
13270TIP3   OH239686   3.789   3.237   5.480
13270TIP3    H139687   3.722   3.301   5.504
13270TIP3    H239688   3.836   3.278   5.407
13271TIP3   OH239689   7.107   0.329   1.375
13271TIP3    H139690   7.040   0.264   1.396
13271TIP3    H239691   7.060   0.412   1.368
13272TIP3   OH239692   1.506   4.563   0.702
13272TIP3    H139693   1.568   4.501   0.665
13272TIP3    H239694   1.560   4.621   0.756
13273TIP3   OH239695   1.546   1.671   0.577
13273TIP3    H139696   1.639   1.687   0.593
13273TIP3    H239697   1.521   1.605   0.642
13274TIP3   OH239698   5.068   3.862   5.998
13274TIP3    H139699   5.049   3.927   6.065
13274TIP3    H239700   4.991   3.863   5.941
13275TIP3   OH239701   3.128   2.354   4.335
13275TIP3    H139702   3.108   2.401   4.416
13275TIP3    H239703   3.100   2.264   4.351
13276TIP3   OH239704   8.599   0.145   3.246
13276TIP3    H139705   8.613   0.054   3.273
13276TIP3    H239706   8.507   0.161   3.263
13277TIP3   OH239707   0.885   7.885   1.197
13277TIP3    H139708   0.871   7.976   1.173
13277TIP3    H239709   0.974   7.865   1.167
13278TIP3   OH239710   2.701   3.268   0.708
13278TIP3    H139711   2.669   3.178   0.694
13278TIP3    H239712   2.688   3.311   0.623
13279TIP3   OH239713   1.926   7.588   2.571
13279TIP3    H139714   1.903   7.495   2.566
13279TIP3    H239715   1.911   7.621   2.482
13280TIP3   OH239716   2.580   1.647   2.056
13280TIP3    H139717   2.574   1.738   2.085
13280TIP3    H239718   2.669   1.620   2.079
13281TIP3   OH239719   1.700   2.272   5.239
13281TIP3    H139720   1.764   2.336   5.207
13281TIP3    H239721   1.617   2.300   5.201
13282TIP3   OH239722   3.150   8.796   7.534
13282TIP3    H139723   3.101   8.876   7.513
13282TIP3    H239724   3.129   8.778   7.626
13283TIP3   OH239725   3.765   5.114   3.562
13283TIP3    H139726   3.701   5.076   3.622
13283TIP3    H239727   3.728   5.199   3.537
13284TIP3   OH239728   7.300   6.749   4.794
13284TIP3    H139729   7.345   6.714   4.717
13284TIP3    H239730   7.363   6.738   4.865
13285TIP3   OH239731   6.709   0.663   0.148
13285TIP3    H139732   6.684   0.647   0.057
13285TIP3    H239733   6.626   0.672   0.195
13286TIP3   OH239734   7.732   2.111   4.325
13286TIP3    H139735   7.813   2.079   4.284
13286TIP3    H239736   7.684   2.154   4.253
13287TIP3   OH239737   1.725   5.959   4.285
13287TIP3    H139738   1.634   5.944   4.310
13287TIP3    H239739   1.758   6.019   4.352
13288TIP3   OH239740   5.842   3.757   4.266
13288TIP3    H139741   5.884   3.672   4.260
13288TIP3    H239742   5.832   3.786   4.175
13289TIP3   OH239743   8.183   7.106   3.698
13289TIP3    H139744   8.211   7.181   3.751
13289TIP3    H239745   8.118   7.061   3.753
13290TIP3   OH239746   5.527   7.368   2.498
13290TIP3    H139747   5.507   7.285   2.454
13290TIP3    H239748   5.622   7.368   2.507
13291TIP3   OH239749   4.580   6.368   5.256
13291TIP3    H139750   4.549   6.279   5.273
13291TIP3    H239751   4.673   6.366   5.281
13292TIP3   OH239752   5.583   0.039   3.521
13292TIP3    H139753   5.676   0.036   3.543
13292TIP3    H239754   5.539   0.035   3.606
13293TIP3   OH239755   6.061   1.259   4.843
13293TIP3    H139756   6.035   1.313   4.918
13293TIP3    H239757   6.063   1.320   4.769
13294TIP3   OH239758   0.514   1.249   6.241
13294TIP3    H139759   0.535   1.303   6.317
13294TIP3    H239760   0.568   1.286   6.170
13295TIP3   OH239761   6.189   0.952   0.567
13295TIP3    H139762   6.215   0.866   0.534
13295TIP3    H239763   6.265   1.008   0.553
13296TIP3   OH239764   4.579   2.450   3.565
13296TIP3    H139765   4.673   2.432   3.574
13296TIP3    H239766   4.574   2.545   3.554
13297TIP3   OH239767   7.475   2.600   7.783
13297TIP3    H139768   7.405   2.536   7.800
13297TIP3    H239769   7.556   2.549   7.790
13298TIP3   OH239770   6.724   6.938   7.635
13298TIP3    H139771   6.655   7.004   7.641
13298TIP3    H239772   6.721   6.907   7.545
13299TIP3   OH239773   6.328   3.833   4.614
13299TIP3    H139774   6.281   3.770   4.669
13299TIP3    H239775   6.324   3.796   4.526
13300TIP3   OH239776   8.353   7.076   3.000
13300TIP3    H139777   8.316   7.164   2.997
13300TIP3    H239778   8.447   7.089   2.984
13301TIP3   OH239779   2.931   7.116   5.618
13301TIP3    H139780   2.950   7.023   5.630
13301TIP3    H239781   3.012   7.152   5.581
13302TIP3   OH239782   3.098   1.390   6.632
13302TIP3    H139783   3.109   1.484   6.619
13302TIP3    H239784   3.004   1.378   6.638
13303TIP3   OH239785   0.734   6.811   0.551
13303TIP3    H139786   0.770   6.900   0.546
13303TIP3    H239787   0.693   6.807   0.638
13304TIP3   OH239788   3.883   5.893   5.576
13304TIP3    H139789   3.821   5.916   5.645
13304TIP3    H239790   3.830   5.886   5.497
13305TIP3   OH239791   0.805   4.152   6.559
13305TIP3    H139792   0.764   4.066   6.570
13305TIP3    H239793   0.737   4.206   6.520
13306TIP3   OH239794   2.571   5.860   4.983
13306TIP3    H139795   2.490   5.827   5.020
13306TIP3    H239796   2.567   5.955   4.996
13307TIP3   OH239797   5.108   6.363   7.379
13307TIP3    H139798   5.127   6.270   7.377
13307TIP3    H239799   5.096   6.387   7.287
13308TIP3   OH239800   0.060   6.813   2.045
13308TIP3    H139801   0.042   6.882   2.109
13308TIP3    H239802   0.036   6.852   1.961
13309TIP3   OH239803   7.477   4.581   1.513
13309TIP3    H139804   7.538   4.527   1.462
13309TIP3    H239805   7.533   4.629   1.574
13310TIP3   OH239806   2.833   4.162   1.488
13310TIP3    H139807   2.826   4.250   1.525
13310TIP3    H239808   2.765   4.112   1.534
13311TIP3   OH239809   4.924   2.415   2.752
13311TIP3    H139810   5.018   2.403   2.739
13311TIP3    H239811   4.883   2.352   2.693
13312TIP3   OH239812   9.505   3.734   0.274
13312TIP3    H139813   9.518   3.827   0.256
13312TIP3    H239814   9.494   3.694   0.187
13313TIP3   OH239815   0.737   2.648   4.200
13313TIP3    H139816   0.809   2.708   4.222
13313TIP3    H239817   0.694   2.631   4.283
13314TIP3   OH239818   4.508   2.055   4.281
13314TIP3    H139819   4.466   2.140   4.297
13314TIP3    H239820   4.479   2.000   4.354
13315TIP3   OH239821   0.033   0.481   5.671
13315TIP3    H139822   0.124   0.493   5.696
13315TIP3    H239823   0.002   0.409   5.726
13316TIP3   OH239824   6.822   4.277   2.876
13316TIP3    H139825   6.885   4.255   2.945
13316TIP3    H239826   6.741   4.297   2.923
13317TIP3   OH239827   0.084   0.470   1.675
13317TIP3    H139828   0.037   0.472   1.758
13317TIP3    H239829   0.147   0.398   1.684
13318TIP3   OH239830   6.172   3.588   0.792
13318TIP3    H139831   6.236   3.519   0.810
13318TIP3    H239832   6.223   3.669   0.792
13319TIP3   OH239833   0.260   1.242   3.061
13319TIP3    H139834   0.312   1.292   3.124
13319TIP3    H239835   0.169   1.265   3.083
13320TIP3   OH239836   0.511   1.222   4.210
13320TIP3    H139837   0.547   1.196   4.125
13320TIP3    H239838   0.463   1.146   4.241
13321TIP3   OH239839   8.381   8.195   0.540
13321TIP3    H139840   8.314   8.161   0.481
13321TIP3    H239841   8.387   8.129   0.610
13322TIP3   OH239842   1.976   4.180   1.670
13322TIP3    H139843   2.061   4.192   1.713
13322TIP3    H239844   1.995   4.189   1.577
13323TIP3   OH239845   2.650   6.605   7.347
13323TIP3    H139846   2.579   6.670   7.341
13323TIP3    H239847   2.728   6.653   7.319
13324TIP3   OH239848   7.475   1.763   0.811
13324TIP3    H139849   7.379   1.765   0.809
13324TIP3    H239850   7.501   1.850   0.781
13325TIP3   OH239851   9.038   0.870   6.227
13325TIP3    H139852   8.994   0.932   6.170
13325TIP3    H239853   9.013   0.896   6.315
13326TIP3   OH239854   7.016   4.844   5.619
13326TIP3    H139855   6.993   4.934   5.594
13326TIP3    H239856   6.932   4.798   5.621
13327TIP3   OH239857   8.992   5.966   2.320
13327TIP3    H139858   8.975   5.905   2.392
13327TIP3    H239859   9.079   6.000   2.337
13328TIP3   OH239860   6.640   2.476   2.189
13328TIP3    H139861   6.644   2.494   2.283
13328TIP3    H239862   6.637   2.381   2.182
13329TIP3   OH239863   2.992   0.407   6.848
13329TIP3    H139864   3.035   0.321   6.847
13329TIP3    H239865   2.923   0.399   6.783
13330TIP3   OH239866   7.544   6.922   1.595
13330TIP3    H139867   7.531   6.969   1.677
13330TIP3    H239868   7.521   6.831   1.615
13331TIP3   OH239869   3.352   4.426   4.552
13331TIP3    H139870   3.428   4.483   4.556
13331TIP3    H239871   3.365   4.374   4.472
13332TIP3   OH239872   8.341   2.360   5.006
13332TIP3    H139873   8.384   2.319   4.932
13332TIP3    H239874   8.409   2.368   5.073
13333TIP3   OH239875   1.895   4.035   5.243
13333TIP3    H139876   1.811   4.076   5.225
13333TIP3    H239877   1.929   4.011   5.156
13334TIP3   OH239878   7.274   5.271   6.751
13334TIP3    H139879   7.288   5.224   6.833
13334TIP3    H239880   7.360   5.271   6.709
13335TIP3   OH239881   4.159   0.230   5.178
13335TIP3    H139882   4.142   0.321   5.152
13335TIP3    H239883   4.165   0.182   5.095
13336TIP3   OH239884   5.676   8.168   1.758
13336TIP3    H139885   5.584   8.187   1.741
13336TIP3    H239886   5.688   8.190   1.850
13337TIP3   OH239887   0.640   0.769   6.338
13337TIP3    H139888   0.579   0.838   6.314
13337TIP3    H239889   0.625   0.700   6.274
13338TIP3   OH239890   3.071   2.788   4.895
13338TIP3    H139891   3.143   2.786   4.833
13338TIP3    H239892   3.113   2.774   4.980
13339TIP3   OH239893   3.847   2.156   1.762
13339TIP3    H139894   3.756   2.184   1.772
13339TIP3    H239895   3.899   2.234   1.781
13340TIP3   OH239896   6.260   2.237   5.588
13340TIP3    H139897   6.278   2.237   5.494
13340TIP3    H239898   6.201   2.164   5.602
13341TIP3   OH239899   6.497   6.505   0.082
13341TIP3    H139900   6.529   6.556   0.157
13341TIP3    H239901   6.466   6.571   0.020
13342TIP3   OH239902   0.185   6.660   2.388
13342TIP3    H139903   0.127   6.647   2.312
13342TIP3    H239904   0.136   6.626   2.462
13343TIP3   OH239905   3.350   5.313   3.447
13343TIP3    H139906   3.337   5.227   3.487
13343TIP3    H239907   3.264   5.356   3.454
13344TIP3   OH239908   8.309   5.081   3.553
13344TIP3    H139909   8.283   5.011   3.492
13344TIP3    H239910   8.324   5.156   3.496
13345TIP3   OH239911   8.231   5.259   1.935
13345TIP3    H139912   8.302   5.198   1.917
13345TIP3    H239913   8.212   5.248   2.028
13346TIP3   OH239914   3.988   5.612   4.914
13346TIP3    H139915   3.901   5.637   4.884
13346TIP3    H239916   4.034   5.695   4.929
13347TIP3   OH239917   2.671   8.624   4.467
13347TIP3    H139918   2.592   8.579   4.496
13347TIP3    H239919   2.730   8.553   4.439
13348TIP3   OH239920   9.366   4.635   7.500
13348TIP3    H139921   9.358   4.542   7.521
13348TIP3    H239922   9.300   4.650   7.432
13349TIP3   OH239923   0.268   2.403   6.585
13349TIP3    H139924   0.315   2.448   6.655
13349TIP3    H239925   0.317   2.322   6.572
13350TIP3   OH239926   2.979   7.725   6.398
13350TIP3    H139927   2.956   7.815   6.423
13350TIP3    H239928   3.074   7.727   6.386
13351TIP3   OH239929   8.850   7.321   4.876
13351TIP3    H139930   8.794   7.399   4.884
13351TIP3    H239931   8.821   7.263   4.946
13352TIP3   OH239932   5.023   3.654   0.779
13352TIP3    H139933   4.961   3.669   0.708
13352TIP3    H239934   4.968   3.638   0.856
13353TIP3   OH239935   0.751   8.529   5.434
13353TIP3    H139936   0.775   8.488   5.351
13353TIP3    H239937   0.778   8.620   5.425
13354TIP3   OH239938   3.953   7.488   3.038
13354TIP3    H139939   4.030   7.503   3.092
13354TIP3    H239940   3.886   7.547   3.074
13355TIP3   OH239941   5.810   1.228   4.539
13355TIP3    H139942   5.892   1.261   4.502
13355TIP3    H239943   5.745   1.294   4.516
13356TIP3   OH239944   7.147   3.765   6.653
13356TIP3    H139945   7.144   3.836   6.717
13356TIP3    H239946   7.148   3.685   6.706
13357TIP3   OH239947   9.037   3.481   5.654
13357TIP3    H139948   9.068   3.429   5.580
13357TIP3    H239949   9.096   3.556   5.657
13358TIP3   OH239950   2.746   5.688   0.468
13358TIP3    H139951   2.824   5.706   0.519
13358TIP3    H239952   2.681   5.660   0.533
13359TIP3   OH239953   1.628   7.380   6.791
13359TIP3    H139954   1.659   7.468   6.811
13359TIP3    H239955   1.551   7.394   6.736
13360TIP3   OH239956   0.283   2.755   5.974
13360TIP3    H139957   0.247   2.675   6.012
13360TIP3    H239958   0.314   2.729   5.887
13361TIP3   OH239959   0.761   5.291   7.007
13361TIP3    H139960   0.745   5.314   6.915
13361TIP3    H239961   0.790   5.373   7.048
13362TIP3   OH239962   5.605   4.253   7.211
13362TIP3    H139963   5.635   4.199   7.285
13362TIP3    H239964   5.572   4.333   7.252
13363TIP3   OH239965   9.429   1.340   2.357
13363TIP3    H139966   9.390   1.254   2.370
13363TIP3    H239967   9.518   1.332   2.391
13364TIP3   OH239968   2.968   6.172   2.624
13364TIP3    H139969   2.993   6.144   2.712
13364TIP3    H239970   2.952   6.266   2.632
13365TIP3   OH239971   8.271   7.107   2.442
13365TIP3    H139972   8.339   7.067   2.388
13365TIP3    H239973   8.238   7.035   2.495
13366TIP3   OH239974   7.742   8.548   3.655
13366TIP3    H139975   7.700   8.631   3.677
13366TIP3    H239976   7.698   8.519   3.576
13367TIP3   OH239977   6.610   2.727   2.833
13367TIP3    H139978   6.558   2.733   2.913
13367TIP3    H239979   6.692   2.773   2.853
13368TIP3   OH239980   1.796   0.724   1.925
13368TIP3    H139981   1.741   0.657   1.884
13368TIP3    H239982   1.751   0.745   2.007
13369TIP3   OH239983   1.195   3.853   2.530
13369TIP3    H139984   1.259   3.873   2.462
13369TIP3    H239985   1.113   3.837   2.483
13370TIP3   OH239986   7.221   6.590   4.533
13370TIP3    H139987   7.293   6.607   4.473
13370TIP3    H239988   7.154   6.654   4.509
13371TIP3   OH239989   4.923   7.864   1.369
13371TIP3    H139990   4.872   7.944   1.379
13371TIP3    H239991   4.942   7.860   1.275
13372TIP3   OH239992   3.780   5.654   2.416
13372TIP3    H139993   3.706   5.687   2.467
13372TIP3    H239994   3.830   5.732   2.393
13373TIP3   OH239995   1.359   0.235   2.138
13373TIP3    H139996   1.357   0.141   2.119
13373TIP3    H239997   1.267   0.260   2.147
13374TIP3   OH239998   7.745   4.605   5.446
13374TIP3    H139999   7.792   4.625   5.365
13374TIP3    H240000   7.801   4.542   5.491
13375TIP3   OH240001   8.999   0.047   7.360
13375TIP3    H140002   8.911   0.082   7.375
13375TIP3    H240003   9.024   0.008   7.444
13376TIP3   OH240004   6.784   1.961   1.262
13376TIP3    H140005   6.690   1.952   1.272
13376TIP3    H240006   6.802   2.054   1.277
13377TIP3   OH240007   1.922   3.497   3.587
13377TIP3    H140008   1.944   3.405   3.602
13377TIP3    H240009   1.998   3.532   3.538
13378TIP3   OH240010   4.378   1.519   7.654
13378TIP3    H140011   4.292   1.547   7.686
13378TIP3    H240012   4.359   1.473   7.572
13379TIP3   OH240013   7.471   3.168   0.369
13379TIP3    H140014   7.381   3.146   0.392
13379TIP3    H240015   7.487   3.252   0.411
13380TIP3   OH240016   2.071   6.369   3.772
13380TIP3    H140017   2.164   6.377   3.752
13380TIP3    H240018   2.039   6.299   3.715
13381TIP3   OH240019   3.217   0.622   0.875
13381TIP3    H140020   3.222   0.667   0.791
13381TIP3    H240021   3.301   0.637   0.916
13382TIP3   OH240022   0.017   1.805   2.663
13382TIP3    H140023   0.035   1.857   2.584
13382TIP3    H240024  -0.030   1.865   2.721
13383TIP3   OH240025   6.586   3.895   1.860
13383TIP3    H140026   6.620   3.837   1.792
13383TIP3    H240027   6.491   3.897   1.845
13384TIP3   OH240028   8.145   7.780   3.836
13384TIP3    H140029   8.145   7.705   3.896
13384TIP3    H240030   8.096   7.750   3.760
13385TIP3   OH240031   8.150   2.305   2.002
13385TIP3    H140032   8.184   2.240   2.063
13385TIP3    H240033   8.057   2.285   1.995
13386TIP3   OH240034   9.043   2.835   5.002
13386TIP3    H140035   9.008   2.908   4.952
13386TIP3    H240036   8.997   2.839   5.086
13387TIP3   OH240037   0.262   2.730   3.587
13387TIP3    H140038   0.197   2.741   3.657
13387TIP3    H240039   0.345   2.753   3.629
13388TIP3   OH240040   5.523   1.753   4.357
13388TIP3    H140041   5.480   1.669   4.339
13388TIP3    H240042   5.572   1.737   4.437
13389TIP3   OH240043   6.293   8.335   0.350
13389TIP3    H140044   6.327   8.357   0.263
13389TIP3    H240045   6.366   8.354   0.410
13390TIP3   OH240046   4.138   7.862   4.939
13390TIP3    H140047   4.153   7.956   4.947
13390TIP3    H240048   4.193   7.823   5.007
13391TIP3   OH240049   1.788   1.034   2.667
13391TIP3    H140050   1.879   1.062   2.660
13391TIP3    H240051   1.764   1.007   2.579
13392TIP3   OH240052   8.041   4.101   5.240
13392TIP3    H140053   8.117   4.046   5.256
13392TIP3    H240054   8.033   4.106   5.145
13393TIP3   OH240055   3.135   1.427   5.301
13393TIP3    H140056   3.059   1.383   5.263
13393TIP3    H240057   3.210   1.377   5.272
13394TIP3   OH240058   3.965   1.743   6.205
13394TIP3    H140059   3.992   1.761   6.295
13394TIP3    H240060   4.023   1.672   6.176
13395TIP3   OH240061   7.294   9.011   2.331
13395TIP3    H140062   7.293   8.973   2.419
13395TIP3    H240063   7.386   9.008   2.305
13396TIP3   OH240064   9.257   6.680   1.186
13396TIP3    H140065   9.284   6.721   1.268
13396TIP3    H240066   9.165   6.657   1.200
13397TIP3   OH240067   8.062   5.653   0.529
13397TIP3    H140068   7.994   5.597   0.492
13397TIP3    H240069   8.015   5.710   0.590
13398TIP3   OH240070   5.801   8.846   6.672
13398TIP3    H140071   5.884   8.863   6.627
13398TIP3    H240072   5.824   8.842   6.765
13399TIP3   OH240073   7.469   7.566   4.932
13399TIP3    H140074   7.558   7.599   4.917
13399TIP3    H240075   7.481   7.473   4.952
13400TIP3   OH240076   8.491   2.461   7.467
13400TIP3    H140077   8.418   2.474   7.407
13400TIP3    H240078   8.518   2.550   7.490
13401TIP3   OH240079   7.067   3.040   6.696
13401TIP3    H140080   7.156   3.053   6.665
13401TIP3    H240081   7.053   3.112   6.758
13402TIP3   OH240082   8.502   2.894   1.849
13402TIP3    H140083   8.494   2.863   1.939
13402TIP3    H240084   8.447   2.972   1.847
13403TIP3   OH240085   8.791   4.334   1.716
13403TIP3    H140086   8.707   4.379   1.724
13403TIP3    H240087   8.770   4.241   1.727
13404TIP3   OH240088   5.215   2.036   0.984
13404TIP3    H140089   5.124   2.063   0.969
13404TIP3    H240090   5.207   1.950   1.025
13405TIP3   OH240091   3.106   1.873   1.382
13405TIP3    H140092   3.061   1.938   1.328
13405TIP3    H240093   3.125   1.801   1.323
13406TIP3   OH240094   3.147   2.963   1.037
13406TIP3    H140095   3.149   2.925   1.125
13406TIP3    H240096   3.213   2.915   0.988
13407TIP3   OH240097   3.558   6.616   0.910
13407TIP3    H140098   3.507   6.612   0.991
13407TIP3    H240099   3.493   6.639   0.843
13408TIP3   OH240100   6.815   1.803   4.832
13408TIP3    H140101   6.800   1.708   4.839
13408TIP3    H240102   6.841   1.829   4.921
13409TIP3   OH240103   3.229   6.900   5.728
13409TIP3    H140104   3.254   6.986   5.760
13409TIP3    H240105   3.177   6.862   5.799
13410TIP3   OH240106   7.100   5.475   3.016
13410TIP3    H140107   7.167   5.411   2.995
13410TIP3    H240108   7.108   5.489   3.110
13411TIP3   OH240109   2.543   8.263   4.080
13411TIP3    H140110   2.601   8.265   4.156
13411TIP3    H240111   2.602   8.260   4.004
13412TIP3   OH240112   1.239   1.713   6.861
13412TIP3    H140113   1.198   1.744   6.941
13412TIP3    H240114   1.183   1.746   6.791
13413TIP3   OH240115   5.956   2.932   1.810
13413TIP3    H140116   5.965   3.027   1.818
13413TIP3    H240117   6.021   2.907   1.745
13414TIP3   OH240118   9.200   3.615   3.709
13414TIP3    H140119   9.264   3.674   3.748
13414TIP3    H240120   9.146   3.671   3.653
13415TIP3   OH240121   4.029   2.784   1.806
13415TIP3    H140122   4.083   2.855   1.772
13415TIP3    H240123   3.942   2.799   1.770
13416TIP3   OH240124   7.866   0.831   2.666
13416TIP3    H140125   7.888   0.838   2.758
13416TIP3    H240126   7.823   0.914   2.644
13417TIP3   OH240127   3.983   7.225   6.134
13417TIP3    H140128   3.899   7.199   6.171
13417TIP3    H240129   4.041   7.236   6.209
13418TIP3   OH240130   3.707   2.745   0.259
13418TIP3    H140131   3.690   2.689   0.335
13418TIP3    H240132   3.657   2.705   0.188
13419TIP3   OH240133   5.777   1.459   5.362
13419TIP3    H140134   5.857   1.408   5.372
13419TIP3    H240135   5.713   1.413   5.416
13420TIP3   OH240136   8.277   7.968   4.983
13420TIP3    H140137   8.203   8.029   4.986
13420TIP3    H240138   8.302   7.965   4.891
13421TIP3   OH240139   1.535   2.390   0.218
13421TIP3    H140140   1.479   2.460   0.185
13421TIP3    H240141   1.476   2.334   0.268
13422TIP3   OH240142   5.838   4.619   5.178
13422TIP3    H140143   5.794   4.702   5.196
13422TIP3    H240144   5.888   4.635   5.097
13423TIP3   OH240145   4.317   3.117   1.078
13423TIP3    H140146   4.300   3.024   1.066
13423TIP3    H240147   4.253   3.161   1.022
13424TIP3   OH240148   1.832   1.040   5.699
13424TIP3    H140149   1.875   0.956   5.685
13424TIP3    H240150   1.865   1.071   5.783
13425TIP3   OH240151   0.766   6.275   0.741
13425TIP3    H140152   0.780   6.182   0.722
13425TIP3    H240153   0.671   6.284   0.748
13426TIP3   OH240154   3.809   8.538   1.285
13426TIP3    H140155   3.824   8.545   1.379
13426TIP3    H240156   3.713   8.538   1.277
13427TIP3   OH240157   6.170   3.416   1.776
13427TIP3    H140158   6.135   3.481   1.716
13427TIP3    H240159   6.125   3.433   1.859
13428TIP3   OH240160   3.903   7.182   3.171
13428TIP3    H140161   3.973   7.246   3.189
13428TIP3    H240162   3.822   7.233   3.177
13429TIP3   OH240163   1.154   5.005   5.878
13429TIP3    H140164   1.088   4.944   5.911
13429TIP3    H240165   1.233   4.951   5.868
13430TIP3   OH240166   7.808   3.440   7.002
13430TIP3    H140167   7.752   3.390   7.062
13430TIP3    H240168   7.842   3.375   6.940
13431TIP3   OH240169   7.107   1.323   3.944
13431TIP3    H140170   7.036   1.387   3.938
13431TIP3    H240171   7.182   1.373   3.975
13432TIP3   OH240172   5.032   7.013   5.922
13432TIP3    H140173   5.037   6.922   5.890
13432TIP3    H240174   5.123   7.038   5.936
13433TIP3   OH240175   8.229   1.129   6.133
13433TIP3    H140176   8.292   1.201   6.124
13433TIP3    H240177   8.283   1.053   6.159
13434TIP3   OH240178   3.101   5.149   0.505
13434TIP3    H140179   3.057   5.065   0.516
13434TIP3    H240180   3.171   5.147   0.570
13435TIP3   OH240181   4.000   2.414   0.848
13435TIP3    H140182   4.095   2.409   0.838
13435TIP3    H240183   3.966   2.350   0.785
13436TIP3   OH240184   5.477   7.227   5.251
13436TIP3    H140185   5.524   7.230   5.168
13436TIP3    H240186   5.520   7.157   5.300
13437TIP3   OH240187   7.077   6.764   1.051
13437TIP3    H140188   6.983   6.782   1.057
13437TIP3    H240189   7.083   6.686   0.996
13438TIP3   OH240190   5.657   3.195   5.111
13438TIP3    H140191   5.699   3.220   5.029
13438TIP3    H240192   5.572   3.237   5.108
13439TIP3   OH240193   9.028   5.922   7.279
13439TIP3    H140194   9.023   6.003   7.228
13439TIP3    H240195   9.008   5.949   7.369
13440TIP3   OH240196   8.515   2.659   5.366
13440TIP3    H140197   8.446   2.630   5.306
13440TIP3    H240198   8.586   2.596   5.354
13441TIP3   OH240199   5.511   6.176   7.268
13441TIP3    H140200   5.559   6.117   7.210
13441TIP3    H240201   5.577   6.239   7.298
13442TIP3   OH240202   0.572   3.336   1.877
13442TIP3    H140203   0.524   3.336   1.794
13442TIP3    H240204   0.534   3.409   1.925
13443TIP3   OH240205   9.468   4.037   0.304
13443TIP3    H140206   9.502   4.000   0.385
13443TIP3    H240207   9.466   4.131   0.319
13444TIP3   OH240208   1.272   3.815   0.085
13444TIP3    H140209   1.221   3.895   0.092
13444TIP3    H240210   1.207   3.745   0.087
13445TIP3   OH240211   6.391   2.197   6.712
13445TIP3    H140212   6.365   2.248   6.635
13445TIP3    H240213   6.415   2.111   6.677
13446TIP3   OH240214   4.355   6.136   2.142
13446TIP3    H140215   4.337   6.096   2.227
13446TIP3    H240216   4.441   6.176   2.153
13447TIP3   OH240217   7.057   2.756   6.742
13447TIP3    H140218   7.075   2.770   6.835
13447TIP3    H240219   7.035   2.842   6.708
13448TIP3   OH240220   9.144   2.175   1.530
13448TIP3    H140221   9.064   2.216   1.563
13448TIP3    H240222   9.137   2.181   1.435
13449TIP3   OH240223   3.193   6.938   5.433
13449TIP3    H140224   3.220   6.961   5.522
13449TIP3    H240225   3.207   6.843   5.428
13450TIP3   OH240226   4.710   4.436   4.074
13450TIP3    H140227   4.718   4.404   3.984
13450TIP3    H240228   4.801   4.454   4.100
13451TIP3   OH240229   3.457   5.272   4.239
13451TIP3    H140230   3.395   5.200   4.244
13451TIP3    H240231   3.479   5.279   4.146
13452TIP3   OH240232   2.412   0.743   7.112
13452TIP3    H140233   2.444   0.755   7.023
13452TIP3    H240234   2.418   0.648   7.127
13453TIP3   OH240235   3.498   4.217   4.783
13453TIP3    H140236   3.404   4.199   4.781
13453TIP3    H240237   3.512   4.265   4.864
13454TIP3   OH240238   5.742   1.769   5.992
13454TIP3    H140239   5.731   1.734   5.904
13454TIP3    H240240   5.730   1.694   6.050
13455TIP3   OH240241   6.069   0.235   7.047
13455TIP3    H140242   6.067   0.163   6.985
13455TIP3    H240243   6.024   0.307   7.003
13456TIP3   OH240244   8.575   0.579   0.303
13456TIP3    H140245   8.538   0.665   0.323
13456TIP3    H240246   8.656   0.599   0.256
13457TIP3   OH240247   2.390   2.861   7.318
13457TIP3    H140248   2.376   2.872   7.412
13457TIP3    H240249   2.307   2.887   7.278
13458TIP3   OH240250   9.325   0.217   4.244
13458TIP3    H140251   9.419   0.221   4.227
13458TIP3    H240252   9.307   0.291   4.302
13459TIP3   OH240253   8.928   1.849   4.600
13459TIP3    H140254   8.902   1.759   4.581
13459TIP3    H240255   8.846   1.894   4.620
13460TIP3   OH240256   2.700   4.197   6.777
13460TIP3    H140257   2.674   4.275   6.825
13460TIP3    H240258   2.622   4.173   6.727
13461TIP3   OH240259   8.268   1.966   2.429
13461TIP3    H140260   8.265   2.036   2.362
13461TIP3    H240261   8.229   2.006   2.507
13462TIP3   OH240262   5.367   2.214   7.593
13462TIP3    H140263   5.381   2.307   7.607
13462TIP3    H240264   5.366   2.176   7.681
13463TIP3   OH240265   8.376   8.293   4.249
13463TIP3    H140266   8.380   8.225   4.182
13463TIP3    H240267   8.382   8.375   4.200
13464TIP3   OH240268   0.126   6.676   7.209
13464TIP3    H140269   0.195   6.740   7.224
13464TIP3    H240270   0.150   6.634   7.126
13465TIP3   OH240271   3.250   7.676   6.357
13465TIP3    H140272   3.341   7.655   6.377
13465TIP3    H240273   3.216   7.596   6.317
13466TIP3   OH240274   4.199   1.597   4.379
13466TIP3    H140275   4.141   1.556   4.443
13466TIP3    H240276   4.145   1.605   4.300
13467TIP3   OH240277   6.526   0.631   0.342
13467TIP3    H140278   6.533   0.722   0.372
13467TIP3    H240279   6.432   0.612   0.343
13468TIP3   OH240280   6.300   4.186   5.022
13468TIP3    H140281   6.366   4.117   5.031
13468TIP3    H240282   6.246   4.157   4.948
13469TIP3   OH240283   3.007   2.224   0.771
13469TIP3    H140284   3.029   2.316   0.785
13469TIP3    H240285   2.935   2.227   0.708
13470TIP3   OH240286   6.205   5.627   6.080
13470TIP3    H140287   6.297   5.603   6.089
13470TIP3    H240288   6.181   5.600   5.991
13471TIP3   OH240289   1.932   4.579   5.600
13471TIP3    H140290   1.974   4.599   5.684
13471TIP3    H240291   1.992   4.614   5.535
13472TIP3   OH240292   6.190   6.464   2.188
13472TIP3    H140293   6.108   6.484   2.233
13472TIP3    H240294   6.227   6.390   2.237
13473TIP3   OH240295   1.593   1.298   0.928
13473TIP3    H140296   1.557   1.283   1.016
13473TIP3    H240297   1.587   1.212   0.886
13474TIP3   OH240298   5.588   2.845   4.425
13474TIP3    H140299   5.652   2.795   4.475
13474TIP3    H240300   5.560   2.786   4.355
13475TIP3   OH240301   2.229   5.261   6.229
13475TIP3    H140302   2.267   5.339   6.271
13475TIP3    H240303   2.169   5.297   6.163
13476TIP3   OH240304   7.729   5.905   6.325
13476TIP3    H140305   7.686   5.851   6.392
13476TIP3    H240306   7.674   5.984   6.321
13477TIP3   OH240307   7.838   3.786   6.077
13477TIP3    H140308   7.801   3.864   6.036
13477TIP3    H240309   7.852   3.812   6.169
13478TIP3   OH240310   3.182   2.845   6.992
13478TIP3    H140311   3.266   2.888   7.006
13478TIP3    H240312   3.186   2.812   6.902
13479TIP3   OH240313   0.729   6.582   4.642
13479TIP3    H140314   0.651   6.634   4.659
13479TIP3    H240315   0.784   6.595   4.720
13480TIP3   OH240316   4.844   7.054   1.918
13480TIP3    H140317   4.887   7.138   1.908
13480TIP3    H240318   4.751   7.075   1.928
13481TIP3   OH240319   3.302   7.046   3.671
13481TIP3    H140320   3.336   7.086   3.751
13481TIP3    H240321   3.208   7.034   3.688
13482TIP3   OH240322   7.131   5.234   4.383
13482TIP3    H140323   7.155   5.307   4.327
13482TIP3    H240324   7.178   5.159   4.345
13483TIP3   OH240325   3.268   2.849   0.529
13483TIP3    H140326   3.272   2.927   0.584
13483TIP3    H240327   3.312   2.875   0.448
13484TIP3   OH240328   5.931   2.747   6.639
13484TIP3    H140329   5.902   2.813   6.701
13484TIP3    H240330   5.923   2.788   6.554
13485TIP3   OH240331   5.173   8.096   2.507
13485TIP3    H140332   5.156   8.188   2.528
13485TIP3    H240333   5.196   8.056   2.590
13486TIP3   OH240334   1.074   2.947   1.417
13486TIP3    H140335   1.027   2.950   1.334
13486TIP3    H240336   1.051   3.029   1.460
13487TIP3   OH240337   2.329   7.805   3.322
13487TIP3    H140338   2.307   7.716   3.294
13487TIP3    H240339   2.405   7.828   3.269
13488TIP3   OH240340   0.648   7.740   1.786
13488TIP3    H140341   0.694   7.797   1.724
13488TIP3    H240342   0.691   7.756   1.870
13489TIP3   OH240343   4.496   7.194   4.436
13489TIP3    H140344   4.408   7.202   4.472
13489TIP3    H240345   4.526   7.285   4.425
13490TIP3   OH240346   1.336   6.422   2.004
13490TIP3    H140347   1.310   6.350   1.947
13490TIP3    H240348   1.263   6.483   2.001
13491TIP3   OH240349   6.469   4.275   2.855
13491TIP3    H140350   6.435   4.187   2.837
13491TIP3    H240351   6.425   4.301   2.936
13492TIP3   OH240352   5.844   1.284   6.379
13492TIP3    H140353   5.793   1.214   6.338
13492TIP3    H240354   5.786   1.318   6.448
13493TIP3   OH240355   0.832   0.059   7.793
13493TIP3    H140356   0.827   0.068   7.888
13493TIP3    H240357   0.857  -0.032   7.778
13494TIP3   OH240358   8.630   7.273   6.955
13494TIP3    H140359   8.554   7.224   6.987
13494TIP3    H240360   8.702   7.211   6.959
13495TIP3   OH240361   6.064   2.939   7.191
13495TIP3    H140362   6.101   2.862   7.235
13495TIP3    H240363   6.125   2.957   7.120
13496TIP3   OH240364   2.135   2.260   6.470
13496TIP3    H140365   2.108   2.269   6.378
13496TIP3    H240366   2.206   2.196   6.467
13497TIP3   OH240367   1.054   1.299   1.292
13497TIP3    H140368   1.047   1.212   1.331
13497TIP3    H240369   0.999   1.355   1.347
13498TIP3   OH240370   3.420   4.549   0.790
13498TIP3    H140371   3.331   4.580   0.808
13498TIP3    H240372   3.411   4.493   0.713
13499TIP3   OH240373   7.122   7.799   2.644
13499TIP3    H140374   7.176   7.745   2.586
13499TIP3    H240375   7.077   7.735   2.699
13500TIP3   OH240376   0.074   8.337   4.892
13500TIP3    H140377   0.008   8.269   4.907
13500TIP3    H240378   0.089   8.335   4.798
13501TIP3   OH240379   8.059   5.047   1.494
13501TIP3    H140380   8.101   5.022   1.576
13501TIP3    H240381   8.122   5.106   1.452
13502TIP3   OH240382   2.835   3.350   3.077
13502TIP3    H140383   2.743   3.375   3.067
13502TIP3    H240384   2.879   3.392   3.003
13503TIP3   OH240385   1.419   1.373   6.452
13503TIP3    H140386   1.457   1.350   6.536
13503TIP3    H240387   1.493   1.400   6.398
13504TIP3   OH240388   5.478   3.672   6.367
13504TIP3    H140389   5.560   3.645   6.326
13504TIP3    H240390   5.481   3.767   6.368
13505TIP3   OH240391   1.817   3.461   4.919
13505TIP3    H140392   1.878   3.513   4.971
13505TIP3    H240393   1.747   3.438   4.980
13506TIP3   OH240394   3.348   1.767   6.672
13506TIP3    H140395   3.308   1.746   6.756
13506TIP3    H240396   3.283   1.822   6.628
13507TIP3   OH240397   4.220   3.928   0.859
13507TIP3    H140398   4.186   3.900   0.944
13507TIP3    H240399   4.266   4.010   0.877
13508TIP3   OH240400   8.762   0.573   0.039
13508TIP3    H140401   8.798   0.649   0.085
13508TIP3    H240402   8.757   0.601  -0.053
13509TIP3   OH240403   9.348   2.486   3.063
13509TIP3    H140404   9.300   2.538   2.997
13509TIP3    H240405   9.425   2.539   3.083
13510TIP3   OH240406   6.262   5.074   1.382
13510TIP3    H140407   6.178   5.072   1.429
13510TIP3    H240408   6.328   5.084   1.451
13511TIP3   OH240409   6.987   0.062   1.972
13511TIP3    H140410   6.988  -0.034   1.971
13511TIP3    H240411   6.897   0.085   1.948
13512TIP3   OH240412   0.051   8.941   7.687
13512TIP3    H140413   0.000   8.875   7.640
13512TIP3    H240414   0.084   8.896   7.765
13513TIP3   OH240415   8.265   4.364   4.019
13513TIP3    H140416   8.245   4.430   3.952
13513TIP3    H240417   8.356   4.381   4.043
13514TIP3   OH240418   2.804   1.346   6.596
13514TIP3    H140419   2.789   1.439   6.577
13514TIP3    H240420   2.805   1.304   6.510
13515TIP3   OH240421   1.138   1.737   6.399
13515TIP3    H140422   1.190   1.685   6.338
13515TIP3    H240423   1.076   1.784   6.344
13516TIP3   OH240424   6.331   0.875   2.845
13516TIP3    H140425   6.261   0.932   2.878
13516TIP3    H240426   6.336   0.896   2.751
13517TIP3   OH240427   3.928   8.672   3.547
13517TIP3    H140428   3.911   8.751   3.496
13517TIP3    H240429   3.900   8.693   3.636
13518TIP3   OH240430   8.189   1.673   6.038
13518TIP3    H140431   8.154   1.587   6.019
13518TIP3    H240432   8.180   1.683   6.133
13519TIP3   OH240433   5.930   3.632   0.908
13519TIP3    H140434   5.996   3.625   0.839
13519TIP3    H240435   5.935   3.549   0.956
13520TIP3   OH240436   5.595   5.622   1.478
13520TIP3    H140437   5.659   5.635   1.408
13520TIP3    H240438   5.517   5.669   1.448
13521TIP3   OH240439   8.943   3.844   5.964
13521TIP3    H140440   8.987   3.774   6.013
13521TIP3    H240441   8.979   3.925   6.001
13522TIP3   OH240442   2.723   2.120   5.565
13522TIP3    H140443   2.727   2.026   5.549
13522TIP3    H240444   2.813   2.144   5.591
13523TIP3   OH240445   3.625   5.207   2.596
13523TIP3    H140446   3.680   5.141   2.637
13523TIP3    H240447   3.682   5.283   2.583
13524TIP3   OH240448   1.298   8.889   1.925
13524TIP3    H140449   1.381   8.864   1.884
13524TIP3    H240450   1.312   8.875   2.019
13525TIP3   OH240451   4.523   7.208   0.757
13525TIP3    H140452   4.554   7.170   0.675
13525TIP3    H240453   4.526   7.136   0.820
13526TIP3   OH240454   8.076   7.527   0.596
13526TIP3    H140455   8.021   7.451   0.615
13526TIP3    H240456   8.133   7.534   0.673
13527TIP3   OH240457   2.395   1.458   1.935
13527TIP3    H140458   2.437   1.500   2.010
13527TIP3    H240459   2.444   1.488   1.859
13528TIP3   OH240460   1.590   1.559   4.067
13528TIP3    H140461   1.594   1.617   4.143
13528TIP3    H240462   1.577   1.617   3.992
13529TIP3   OH240463   1.290   8.703   6.367
13529TIP3    H140464   1.320   8.757   6.294
13529TIP3    H240465   1.254   8.766   6.430
13530TIP3   OH240466   2.162   3.635   2.416
13530TIP3    H140467   2.181   3.542   2.404
13530TIP3    H240468   2.141   3.643   2.509
13531TIP3   OH240469   2.204   5.513   2.235
13531TIP3    H140470   2.148   5.540   2.162
13531TIP3    H240471   2.193   5.418   2.239
13532TIP3   OH240472   5.837   1.355   3.963
13532TIP3    H140473   5.758   1.327   4.008
13532TIP3    H240474   5.908   1.307   4.005
13533TIP3   OH240475   1.794   7.022   2.814
13533TIP3    H140476   1.798   7.030   2.718
13533TIP3    H240477   1.858   6.954   2.834
13534TIP3   OH240478   1.829   0.240   7.781
13534TIP3    H140479   1.898   0.255   7.845
13534TIP3    H240480   1.779   0.166   7.816
13535TIP3   OH240481   4.394   3.809   7.397
13535TIP3    H140482   4.405   3.848   7.311
13535TIP3    H240483   4.455   3.735   7.399
13536TIP3   OH240484   7.884   5.798   0.669
13536TIP3    H140485   7.807   5.842   0.632
13536TIP3    H240486   7.922   5.864   0.727
13537TIP3   OH240487   8.382   1.277   2.993
13537TIP3    H140488   8.345   1.251   2.909
13537TIP3    H240489   8.365   1.371   2.999
13538TIP3   OH240490   8.191   1.287   4.666
13538TIP3    H140491   8.224   1.221   4.727
13538TIP3    H240492   8.232   1.264   4.583
13539TIP3   OH240493   4.742   3.702   2.794
13539TIP3    H140494   4.670   3.752   2.754
13539TIP3    H240495   4.704   3.667   2.874
13540TIP3   OH240496   1.590   3.453   5.073
13540TIP3    H140497   1.540   3.421   5.148
13540TIP3    H240498   1.523   3.482   5.011
13541TIP3   OH240499   4.136   8.997   2.344
13541TIP3    H140500   4.114   9.059   2.275
13541TIP3    H240501   4.182   8.926   2.299
13542TIP3   OH240502   4.791   7.257   5.106
13542TIP3    H140503   4.767   7.198   5.035
13542TIP3    H240504   4.707   7.293   5.137
13543TIP3   OH240505   9.474   3.536   7.516
13543TIP3    H140506   9.417   3.460   7.530
13543TIP3    H240507   9.535   3.535   7.590
13544TIP3   OH240508   9.182   8.833   5.065
13544TIP3    H140509   9.124   8.768   5.027
13544TIP3    H240510   9.157   8.838   5.157
13545TIP3   OH240511   5.697   7.824   6.357
13545TIP3    H140512   5.653   7.802   6.275
13545TIP3    H240513   5.789   7.803   6.342
13546TIP3   OH240514   2.903   6.306   5.869
13546TIP3    H140515   2.994   6.304   5.842
13546TIP3    H240516   2.856   6.260   5.800
13547TIP3   OH240517   3.178   8.455   2.493
13547TIP3    H140518   3.241   8.471   2.424
13547TIP3    H240519   3.178   8.359   2.504
13548TIP3   OH240520   8.497   2.393   3.207
13548TIP3    H140521   8.568   2.331   3.224
13548TIP3    H240522   8.419   2.337   3.195
13549TIP3   OH240523   0.644   6.934   4.746
13549TIP3    H140524   0.727   6.957   4.704
13549TIP3    H240525   0.666   6.863   4.806
13550TIP3   OH240526   2.015   6.293   4.967
13550TIP3    H140527   2.053   6.366   4.918
13550TIP3    H240528   2.046   6.306   5.057
13551TIP3   OH240529   8.354   2.539   0.035
13551TIP3    H140530   8.305   2.467   0.076
13551TIP3    H240531   8.286   2.598   0.001
13552TIP3   OH240532   2.477   5.100   6.854
13552TIP3    H140533   2.444   5.157   6.924
13552TIP3    H240534   2.488   5.015   6.896
13553TIP3   OH240535   5.541   8.631   7.752
13553TIP3    H140536   5.588   8.563   7.703
13553TIP3    H240537   5.602   8.704   7.755
13554TIP3   OH240538   0.732   3.016   2.836
13554TIP3    H140539   0.717   3.006   2.742
13554TIP3    H240540   0.799   3.084   2.842
13555TIP3   OH240541   9.293   3.317   7.483
13555TIP3    H140542   9.321   3.304   7.393
13555TIP3    H240543   9.313   3.235   7.527
13556TIP3   OH240544   7.224   5.510   5.989
13556TIP3    H140545   7.196   5.536   6.077
13556TIP3    H240546   7.274   5.430   6.002
13557TIP3   OH240547   8.828   6.428   4.123
13557TIP3    H140548   8.899   6.492   4.119
13557TIP3    H240549   8.748   6.481   4.125
13558TIP3   OH240550   5.912   0.969   4.530
13558TIP3    H140551   5.848   0.916   4.483
13558TIP3    H240552   5.881   1.059   4.520
13559TIP3   OH240553   1.482   1.598   7.149
13559TIP3    H140554   1.555   1.658   7.131
13559TIP3    H240555   1.430   1.644   7.215
13560TIP3   OH240556   7.142   8.767   5.993
13560TIP3    H140557   7.206   8.819   5.944
13560TIP3    H240558   7.057   8.800   5.963
13561TIP3   OH240559   8.195   7.671   5.030
13561TIP3    H140560   8.115   7.702   4.988
13561TIP3    H240561   8.263   7.679   4.963
13562TIP3   OH240562   4.643   7.815   5.071
13562TIP3    H140563   4.580   7.833   5.140
13562TIP3    H240564   4.698   7.894   5.068
13563TIP3   OH240565   5.023   1.720   2.066
13563TIP3    H140566   5.096   1.658   2.066
13563TIP3    H240567   5.023   1.757   2.155
13564TIP3   OH240568   8.586   7.406   0.264
13564TIP3    H140569   8.594   7.363   0.179
13564TIP3    H240570   8.603   7.337   0.327
13565TIP3   OH240571   0.697   7.696   1.184
13565TIP3    H140572   0.777   7.749   1.192
13565TIP3    H240573   0.728   7.609   1.159
13566TIP3   OH240574   9.104   2.782   4.205
13566TIP3    H140575   9.081   2.740   4.122
13566TIP3    H240576   9.038   2.750   4.267
13567TIP3   OH240577   1.333   1.038   3.511
13567TIP3    H140578   1.243   1.023   3.540
13567TIP3    H240579   1.347   0.972   3.442
13568TIP3   OH240580   7.717   3.423   6.497
13568TIP3    H140581   7.648   3.364   6.469
13568TIP3    H240582   7.676   3.510   6.497
13569TIP3   OH240583   1.327   2.284   0.331
13569TIP3    H140584   1.289   2.323   0.410
13569TIP3    H240585   1.253   2.241   0.288
13570TIP3   OH240586   6.475   8.825   0.715
13570TIP3    H140587   6.419   8.815   0.639
13570TIP3    H240588   6.545   8.761   0.702
13571TIP3   OH240589   7.465   7.483   4.006
13571TIP3    H140590   7.376   7.464   4.037
13571TIP3    H240591   7.464   7.457   3.914
13572TIP3   OH240592   8.159   4.763   5.630
13572TIP3    H140593   8.149   4.826   5.702
13572TIP3    H240594   8.253   4.748   5.624
13573TIP3   OH240595   0.352   3.437   2.892
13573TIP3    H140596   0.426   3.493   2.869
13573TIP3    H240597   0.323   3.401   2.808
13574TIP3   OH240598   2.692   0.306   5.675
13574TIP3    H140599   2.761   0.245   5.650
13574TIP3    H240600   2.641   0.259   5.741
13575TIP3   OH240601   6.058   1.572   3.345
13575TIP3    H140602   6.090   1.490   3.382
13575TIP3    H240603   5.983   1.546   3.291
13576TIP3   OH240604   0.609   5.713   6.358
13576TIP3    H140605   0.552   5.733   6.432
13576TIP3    H240606   0.662   5.639   6.388
13577TIP3   OH240607   5.562   7.990   5.414
13577TIP3    H140608   5.535   8.005   5.505
13577TIP3    H240609   5.624   8.061   5.396
13578TIP3   OH240610   6.810   2.852   1.576
13578TIP3    H140611   6.884   2.849   1.636
13578TIP3    H240612   6.797   2.945   1.557
13579TIP3   OH240613   8.003   8.310   5.166
13579TIP3    H140614   7.990   8.229   5.215
13579TIP3    H240615   8.081   8.350   5.206
13580TIP3   OH240616   4.396   6.713   3.707
13580TIP3    H140617   4.408   6.807   3.691
13580TIP3    H240618   4.349   6.708   3.789
13581TIP3   OH240619   6.672   4.035   0.118
13581TIP3    H140620   6.752   3.983   0.118
13581TIP3    H240621   6.613   3.988   0.059
13582TIP3   OH240622   1.957   2.541   6.933
13582TIP3    H140623   1.957   2.482   6.858
13582TIP3    H240624   1.869   2.532   6.970
13583TIP3   OH240625   3.108   1.867   1.676
13583TIP3    H140626   3.146   1.953   1.693
13583TIP3    H240627   3.110   1.859   1.580
13584TIP3   OH240628   8.036   7.145   6.377
13584TIP3    H140629   7.995   7.059   6.388
13584TIP3    H240630   7.984   7.204   6.431
13585TIP3   OH240631   4.674   3.417   3.903
13585TIP3    H140632   4.611   3.348   3.924
13585TIP3    H240633   4.625   3.479   3.850
13586TIP3   OH240634   2.064   3.410   6.965
13586TIP3    H140635   2.144   3.362   6.987
13586TIP3    H240636   2.066   3.487   7.022
13587TIP3   OH240637   6.592   4.073   6.633
13587TIP3    H140638   6.657   4.033   6.575
13587TIP3    H240639   6.614   4.040   6.720
13588TIP3   OH240640   1.869   1.571   2.502
13588TIP3    H140641   1.832   1.565   2.591
13588TIP3    H240642   1.963   1.560   2.514
13589TIP3   OH240643   0.214   6.874   4.741
13589TIP3    H140644   0.151   6.875   4.669
13589TIP3    H240645   0.299   6.864   4.699
13590TIP3   OH240646   7.463   8.067   1.196
13590TIP3    H140647   7.533   8.011   1.230
13590TIP3    H240648   7.462   8.143   1.255
13591TIP3   OH240649   0.686   0.768   4.455
13591TIP3    H140650   0.706   0.759   4.548
13591TIP3    H240651   0.732   0.694   4.414
13592TIP3   OH240652   3.078   2.856   6.489
13592TIP3    H140653   3.068   2.805   6.408
13592TIP3    H240654   3.001   2.836   6.541
13593TIP3   OH240655   5.123   1.415   0.348
13593TIP3    H140656   5.162   1.462   0.422
13593TIP3    H240657   5.031   1.403   0.373
13594TIP3   OH240658   4.410   1.188   1.788
13594TIP3    H140659   4.409   1.159   1.697
13594TIP3    H240660   4.493   1.234   1.798
13595TIP3   OH240661   2.980   0.951   6.647
13595TIP3    H140662   2.940   1.007   6.714
13595TIP3    H240663   3.025   1.013   6.588
13596TIP3   OH240664   5.468   8.116   7.132
13596TIP3    H140665   5.480   8.021   7.134
13596TIP3    H240666   5.507   8.148   7.213
13597TIP3   OH240667   8.638   5.975   4.823
13597TIP3    H140668   8.621   6.023   4.743
13597TIP3    H240669   8.680   6.038   4.881
13598TIP3   OH240670   8.452   1.788   4.925
13598TIP3    H140671   8.447   1.701   4.963
13598TIP3    H240672   8.439   1.774   4.831
13599TIP3   OH240673   3.639   8.994   5.915
13599TIP3    H140674   3.603   8.965   5.999
13599TIP3    H240675   3.734   8.990   5.926
13600TIP3   OH240676   4.014   1.600   7.400
13600TIP3    H140677   4.023   1.558   7.486
13600TIP3    H240678   3.943   1.663   7.412
13601TIP3   OH240679   7.634   4.715   1.744
13601TIP3    H140680   7.686   4.792   1.764
13601TIP3    H240681   7.691   4.662   1.688
13602TIP3   OH240682   2.087   2.972   5.443
13602TIP3    H140683   2.166   2.953   5.495
13602TIP3    H240684   2.094   3.065   5.422
13603TIP3   OH240685   3.753   0.884   1.386
13603TIP3    H140686   3.826   0.844   1.433
13603TIP3    H240687   3.708   0.937   1.452
13604TIP3   OH240688   4.577   8.416   0.696
13604TIP3    H140689   4.601   8.360   0.622
13604TIP3    H240690   4.511   8.475   0.660
13605TIP3   OH240691   2.441   7.597   3.119
13605TIP3    H140692   2.472   7.528   3.177
13605TIP3    H240693   2.346   7.601   3.135
13606TIP3   OH240694   0.894   0.465   6.861
13606TIP3    H140695   0.847   0.543   6.892
13606TIP3    H240696   0.832   0.423   6.801
13607TIP3   OH240697   4.105   8.804   4.163
13607TIP3    H140698   4.080   8.717   4.192
13607TIP3    H240699   4.184   8.791   4.111
13608TIP3   OH240700   0.017   2.487   4.322
13608TIP3    H140701   0.022   2.406   4.270
13608TIP3    H240702   0.106   2.502   4.353
13609TIP3   OH240703   2.692   8.490   1.294
13609TIP3    H140704   2.665   8.552   1.362
13609TIP3    H240705   2.744   8.541   1.233
13610TIP3   OH240706   2.979   3.935   2.227
13610TIP3    H140707   2.919   3.883   2.280
13610TIP3    H240708   3.029   3.871   2.176
13611TIP3   OH240709   7.097   0.428   7.767
13611TIP3    H140710   7.160   0.367   7.804
13611TIP3    H240711   7.033   0.373   7.721
13612TIP3   OH240712   1.057   8.815   0.210
13612TIP3    H140713   1.006   8.881   0.162
13612TIP3    H240714   1.096   8.863   0.283
13613TIP3   OH240715   7.607   5.690   4.048
13613TIP3    H140716   7.588   5.710   3.956
13613TIP3    H240717   7.584   5.598   4.058
13614TIP3   OH240718   7.201   5.535   6.829
13614TIP3    H140719   7.287   5.550   6.868
13614TIP3    H240720   7.201   5.442   6.807
13615TIP3   OH240721   7.694   0.813   1.852
13615TIP3    H140722   7.777   0.861   1.852
13615TIP3    H240723   7.660   0.823   1.763
13616TIP3   OH240724   3.716   5.984   4.746
13616TIP3    H140725   3.654   5.914   4.726
13616TIP3    H240726   3.667   6.045   4.801
13617TIP3   OH240727   5.336   5.240   2.983
13617TIP3    H140728   5.334   5.173   3.051
13617TIP3    H240729   5.288   5.314   3.020
13618TIP3   OH240730   6.839   7.459   6.327
13618TIP3    H140731   6.766   7.407   6.294
13618TIP3    H240732   6.845   7.532   6.266
13619TIP3   OH240733   2.722   2.410   0.177
13619TIP3    H140734   2.634   2.439   0.153
13619TIP3    H240735   2.753   2.477   0.238
13620TIP3   OH240736   5.885   1.502   3.146
13620TIP3    H140737   5.806   1.532   3.101
13620TIP3    H240738   5.900   1.414   3.110
13621TIP3   OH240739   3.542   5.739   0.736
13621TIP3    H140740   3.452   5.728   0.767
13621TIP3    H240741   3.537   5.810   0.671
13622TIP3   OH240742   7.963   1.054   3.553
13622TIP3    H140743   7.880   1.008   3.545
13622TIP3    H240744   7.952   1.111   3.630
13623TIP3   OH240745   7.354   1.861   3.134
13623TIP3    H140746   7.442   1.830   3.114
13623TIP3    H240747   7.299   1.821   3.067
13624TIP3   OH240748   5.558   1.418   5.966
13624TIP3    H140749   5.610   1.341   5.944
13624TIP3    H240750   5.487   1.418   5.903
13625TIP3   OH240751   2.706   5.739   6.796
13625TIP3    H140752   2.765   5.767   6.866
13625TIP3    H240753   2.734   5.650   6.775
13626TIP3   OH240754   7.263   3.750   7.202
13626TIP3    H140755   7.282   3.667   7.159
13626TIP3    H240756   7.284   3.817   7.137
13627TIP3   OH240757   3.057   6.062   2.879
13627TIP3    H140758   3.147   6.034   2.865
13627TIP3    H240759   3.024   6.005   2.948
13628TIP3   OH240760   0.615   6.479   1.492
13628TIP3    H140761   0.567   6.432   1.561
13628TIP3    H240762   0.560   6.469   1.414
13629TIP3   OH240763   3.278   8.346   5.317
13629TIP3    H140764   3.192   8.349   5.275
13629TIP3    H240765   3.260   8.309   5.404
13630TIP3   OH240766   4.786   5.133   5.409
13630TIP3    H140767   4.716   5.177   5.358
13630TIP3    H240768   4.743   5.106   5.490
13631TIP3   OH240769   8.913   3.658   6.702
13631TIP3    H140770   8.983   3.614   6.654
13631TIP3    H240771   8.911   3.746   6.664
13632TIP3   OH240772   6.745   6.803   3.139
13632TIP3    H140773   6.792   6.872   3.093
13632TIP3    H240774   6.782   6.722   3.107
13633TIP3   OH240775   1.422   3.095   4.652
13633TIP3    H140776   1.422   3.034   4.725
13633TIP3    H240777   1.369   3.169   4.683
13634TIP3   OH240778   8.106   7.120   5.896
13634TIP3    H140779   8.085   7.041   5.846
13634TIP3    H240780   8.105   7.190   5.830
13635TIP3   OH240781   7.184   4.574   3.788
13635TIP3    H140782   7.257   4.632   3.810
13635TIP3    H240783   7.113   4.601   3.847
13636TIP3   OH240784   1.867   4.635   2.290
13636TIP3    H140785   1.963   4.630   2.289
13636TIP3    H240786   1.843   4.663   2.202
13637TIP3   OH240787   7.212   0.554   4.687
13637TIP3    H140788   7.271   0.551   4.611
13637TIP3    H240789   7.253   0.496   4.751
13638TIP3   OH240790   2.514   4.908   6.273
13638TIP3    H140791   2.492   4.976   6.209
13638TIP3    H240792   2.576   4.851   6.227
13639TIP3   OH240793   4.358   7.147   6.593
13639TIP3    H140794   4.390   7.084   6.529
13639TIP3    H240795   4.391   7.115   6.677
13640TIP3   OH240796   5.184   1.358   7.446
13640TIP3    H140797   5.134   1.438   7.429
13640TIP3    H240798   5.274   1.388   7.457
13641TIP3   OH240799   1.148   0.284   6.339
13641TIP3    H140800   1.220   0.274   6.401
13641TIP3    H240801   1.069   0.282   6.393
13642TIP3   OH240802   5.401   8.533   2.641
13642TIP3    H140803   5.415   8.607   2.583
13642TIP3    H240804   5.419   8.568   2.729
13643TIP3   OH240805   2.740   0.648   3.915
13643TIP3    H140806   2.721   0.627   4.006
13643TIP3    H240807   2.656   0.633   3.870
13644TIP3   OH240808   4.755   1.168   2.499
13644TIP3    H140809   4.790   1.166   2.589
13644TIP3    H240810   4.723   1.258   2.489
13645TIP3   OH240811   9.243   5.444   6.426
13645TIP3    H140812   9.153   5.439   6.393
13645TIP3    H240813   9.259   5.358   6.464
13646TIP3   OH240814   1.987   7.596   7.283
13646TIP3    H140815   1.956   7.523   7.336
13646TIP3    H240816   2.038   7.555   7.213
13647TIP3   OH240817   9.376   8.604   3.130
13647TIP3    H140818   9.325   8.557   3.064
13647TIP3    H240819   9.465   8.603   3.096
13648TIP3   OH240820   6.213   0.092   1.521
13648TIP3    H140821   6.129   0.080   1.476
13648TIP3    H240822   6.263   0.151   1.464
13649TIP3   OH240823   1.586   6.625   2.312
13649TIP3    H140824   1.673   6.596   2.282
13649TIP3    H240825   1.597   6.719   2.328
13650TIP3   OH240826   9.557   7.505   6.372
13650TIP3    H140827   9.592   7.436   6.429
13650TIP3    H240828   9.464   7.507   6.392
13651TIP3   OH240829   7.524   4.337   7.169
13651TIP3    H140830   7.553   4.428   7.168
13651TIP3    H240831   7.512   4.317   7.262
13652TIP3   OH240832   0.543   2.784   6.222
13652TIP3    H140833   0.479   2.718   6.250
13652TIP3    H240834   0.591   2.742   6.150
13653TIP3   OH240835   5.192   8.856   0.401
13653TIP3    H140836   5.186   8.760   0.402
13653TIP3    H240837   5.285   8.874   0.406
13654TIP3   OH240838   9.478   6.311   1.177
13654TIP3    H140839   9.409   6.278   1.119
13654TIP3    H240840   9.559   6.282   1.137
13655TIP3   OH240841   2.061   7.748   4.122
13655TIP3    H140842   2.011   7.786   4.050
13655TIP3    H240843   1.996   7.712   4.181
13656TIP3   OH240844   0.820   6.778   3.557
13656TIP3    H140845   0.810   6.831   3.636
13656TIP3    H240846   0.773   6.697   3.577
13657TIP3   OH240847   3.279   5.673   0.802
13657TIP3    H140848   3.265   5.681   0.896
13657TIP3    H240849   3.192   5.658   0.765
13658TIP3   OH240850   9.324   6.785   7.359
13658TIP3    H140851   9.357   6.858   7.307
13658TIP3    H240852   9.404   6.740   7.389
13659TIP3   OH240853   7.025   1.512   1.645
13659TIP3    H140854   7.118   1.493   1.648
13659TIP3    H240855   6.985   1.432   1.611
13660TIP3   OH240856   6.127   4.416   0.303
13660TIP3    H140857   6.183   4.362   0.249
13660TIP3    H240858   6.062   4.453   0.242
13661TIP3   OH240859   1.100   5.259   7.290
13661TIP3    H140860   1.193   5.236   7.284
13661TIP3    H240861   1.095   5.348   7.257
13662TIP3   OH240862   3.401   8.476   2.320
13662TIP3    H140863   3.403   8.393   2.272
13662TIP3    H240864   3.479   8.473   2.376
13663TIP3   OH240865   1.042   7.281   6.615
13663TIP3    H140866   1.057   7.375   6.625
13663TIP3    H240867   1.019   7.269   6.523
13664TIP3   OH240868   0.109   5.390   0.590
13664TIP3    H140869   0.198   5.392   0.624
13664TIP3    H240870   0.109   5.455   0.519
13665TIP3   OH240871   8.023   1.784   5.282
13665TIP3    H140872   8.057   1.727   5.213
13665TIP3    H240873   7.963   1.842   5.237
13666TIP3   OH240874   4.057   8.962   2.902
13666TIP3    H140875   4.080   8.892   2.841
13666TIP3    H240876   4.104   9.039   2.870
13667TIP3   OH240877   3.957   4.588   1.285
13667TIP3    H140878   3.909   4.572   1.366
13667TIP3    H240879   4.012   4.664   1.304
13668TIP3   OH240880   2.745   8.310   7.681
13668TIP3    H140881   2.771   8.281   7.769
13668TIP3    H240882   2.649   8.312   7.685
13669TIP3   OH240883   7.010   6.623   4.235
13669TIP3    H140884   7.028   6.710   4.272
13669TIP3    H240885   6.953   6.582   4.299
13670TIP3   OH240886   8.490   7.142   3.786
13670TIP3    H140887   8.431   7.216   3.802
13670TIP3    H240888   8.577   7.181   3.783
13671TIP3   OH240889   0.003   1.088   2.411
13671TIP3    H140890   0.013   0.996   2.436
13671TIP3    H240891  -0.030   1.132   2.489
13672TIP3   OH240892   6.176   8.151   4.226
13672TIP3    H140893   6.175   8.234   4.273
13672TIP3    H240894   6.269   8.126   4.225
13673TIP3   OH240895   2.194   7.979   6.580
13673TIP3    H140896   2.117   8.014   6.624
13673TIP3    H240897   2.160   7.942   6.499
13674TIP3   OH240898   8.249   2.844   0.749
13674TIP3    H140899   8.233   2.776   0.684
13674TIP3    H240900   8.170   2.898   0.748
13675TIP3   OH240901   8.035   1.415   3.927
13675TIP3    H140902   7.960   1.400   3.984
13675TIP3    H240903   8.108   1.433   3.987
13676TIP3   OH240904   2.873   3.992   6.833
13676TIP3    H140905   2.798   4.052   6.827
13676TIP3    H240906   2.943   4.046   6.870
13677TIP3   OH240907   0.149   3.458   1.568
13677TIP3    H140908   0.171   3.529   1.507
13677TIP3    H240909   0.123   3.385   1.511
13678TIP3   OH240910   3.977   7.046   2.531
13678TIP3    H140911   3.939   7.108   2.594
13678TIP3    H240912   3.956   7.083   2.445
13679TIP3   OH240913   2.243   4.909   5.158
13679TIP3    H140914   2.171   4.971   5.171
13679TIP3    H240915   2.199   4.827   5.137
13680TIP3   OH240916   2.652   1.037   4.098
13680TIP3    H140917   2.571   1.081   4.075
13680TIP3    H240918   2.707   1.042   4.019
13681TIP3   OH240919   4.826   2.504   4.086
13681TIP3    H140920   4.876   2.426   4.115
13681TIP3    H240921   4.855   2.573   4.146
13682TIP3   OH240922   9.224   3.692   4.887
13682TIP3    H140923   9.319   3.708   4.891
13682TIP3    H240924   9.197   3.730   4.803
13683TIP3   OH240925   7.343   8.347   6.423
13683TIP3    H140926   7.297   8.354   6.340
13683TIP3    H240927   7.327   8.431   6.466
13684TIP3   OH240928   2.461   2.445   0.125
13684TIP3    H140929   2.392   2.458   0.060
13684TIP3    H240930   2.437   2.364   0.169
13685TIP3   OH240931   8.368   6.903   6.512
13685TIP3    H140932   8.434   6.945   6.569
13685TIP3    H240933   8.284   6.930   6.548
13686TIP3   OH240934   3.078   0.661   2.724
13686TIP3    H140935   3.019   0.662   2.800
13686TIP3    H240936   3.036   0.600   2.663
13687TIP3   OH240937   7.872   1.219   1.585
13687TIP3    H140938   7.841   1.135   1.552
13687TIP3    H240939   7.907   1.200   1.672
13688TIP3   OH240940   8.145   6.888   5.691
13688TIP3    H140941   8.207   6.950   5.652
13688TIP3    H240942   8.198   6.836   5.751
13689TIP3   OH240943   4.158   2.492   1.281
13689TIP3    H140944   4.178   2.414   1.230
13689TIP3    H240945   4.148   2.562   1.217
13690TIP3   OH240946   8.019   0.588   7.554
13690TIP3    H140947   8.010   0.496   7.577
13690TIP3    H240948   7.948   0.632   7.600
13691TIP3   OH240949   0.641   8.785   5.808
13691TIP3    H140950   0.615   8.873   5.835
13691TIP3    H240951   0.733   8.778   5.834
13692TIP3   OH240952   9.410   4.897   0.447
13692TIP3    H140953   9.445   4.984   0.470
13692TIP3    H240954   9.327   4.892   0.494
13693TIP3   OH240955   7.563   7.349   7.351
13693TIP3    H140956   7.559   7.349   7.447
13693TIP3    H240957   7.653   7.373   7.331
13694TIP3   OH240958   2.354   7.404   1.469
13694TIP3    H140959   2.303   7.323   1.473
13694TIP3    H240960   2.402   7.406   1.552
13695TIP3   OH240961   2.040   8.293   3.926
13695TIP3    H140962   2.104   8.281   3.996
13695TIP3    H240963   2.057   8.380   3.892
13696TIP3   OH240964   6.976   2.391   4.028
13696TIP3    H140965   6.967   2.463   3.965
13696TIP3    H240966   6.909   2.328   4.002
13697TIP3   OH240967   3.597   5.444   4.945
13697TIP3    H140968   3.640   5.361   4.922
13697TIP3    H240969   3.565   5.430   5.034
13698TIP3   OH240970   8.212   7.258   5.395
13698TIP3    H140971   8.192   7.271   5.487
13698TIP3    H240972   8.129   7.274   5.350
13699TIP3   OH240973   6.421   6.792   3.480
13699TIP3    H140974   6.333   6.792   3.442
13699TIP3    H240975   6.424   6.872   3.533
13700TIP3   OH240976   1.182   4.745   5.424
13700TIP3    H140977   1.168   4.682   5.495
13700TIP3    H240978   1.275   4.737   5.403
13701TIP3   OH240979   5.819   2.577   7.356
13701TIP3    H140980   5.862   2.654   7.319
13701TIP3    H240981   5.732   2.608   7.381
13702TIP3   OH240982   1.732   5.646   4.219
13702TIP3    H140983   1.678   5.619   4.293
13702TIP3    H240984   1.740   5.741   4.230
13703TIP3   OH240985   8.574   0.845   1.641
13703TIP3    H140986   8.630   0.917   1.670
13703TIP3    H240987   8.606   0.769   1.689
13704TIP3   OH240988   4.937   8.611   4.022
13704TIP3    H140989   4.900   8.523   4.023
13704TIP3    H240990   4.865   8.667   3.995
13705TIP3   OH240991   3.727   3.337   5.073
13705TIP3    H140992   3.675   3.256   5.074
13705TIP3    H240993   3.764   3.343   5.161
13706TIP3   OH240994   2.432   0.112   6.673
13706TIP3    H140995   2.439   0.042   6.608
13706TIP3    H240996   2.507   0.098   6.731
13707TIP3   OH240997   9.095   7.993   4.493
13707TIP3    H140998   9.046   8.015   4.573
13707TIP3    H240999   9.113   8.078   4.453
13708TIP3   OH241000   3.955   0.431   4.050
13708TIP3    H141001   4.045   0.463   4.048
13708TIP3    H241002   3.915   0.479   4.123
13709TIP3   OH241003   7.056   2.201   4.363
13709TIP3    H141004   7.141   2.240   4.384
13709TIP3    H241005   6.995   2.275   4.362
13710TIP3   OH241006   0.689   8.726   6.918
13710TIP3    H141007   0.739   8.807   6.908
13710TIP3    H241008   0.714   8.673   6.843
13711TIP3   OH241009   5.488   4.098   5.540
13711TIP3    H141010   5.501   4.130   5.450
13711TIP3    H241011   5.553   4.146   5.592
13712TIP3   OH241012   6.746   6.058   3.107
13712TIP3    H141013   6.795   6.023   3.033
13712TIP3    H241014   6.724   6.148   3.081
13713TIP3   OH241015   3.520   6.010   6.548
13713TIP3    H141016   3.448   5.955   6.579
13713TIP3    H241017   3.599   5.963   6.573
13714TIP3   OH241018   8.131   8.787   7.261
13714TIP3    H141019   8.062   8.835   7.306
13714TIP3    H241020   8.182   8.854   7.216
13715TIP3   OH241021   7.378   0.388   4.856
13715TIP3    H141022   7.384   0.375   4.950
13715TIP3    H241023   7.468   0.379   4.825
13716TIP3   OH241024   4.910   7.700   4.545
13716TIP3    H141025   4.895   7.620   4.595
13716TIP3    H241026   4.975   7.675   4.479
13717TIP3   OH241027   1.513   3.280   1.798
13717TIP3    H141028   1.422   3.260   1.779
13717TIP3    H241029   1.532   3.233   1.879
13718TIP3   OH241030   8.348   1.800   4.276
13718TIP3    H141031   8.336   1.830   4.186
13718TIP3    H241032   8.402   1.721   4.269
13719TIP3   OH241033   4.201   7.196   6.945
13719TIP3    H141034   4.106   7.198   6.933
13719TIP3    H241035   4.219   7.264   7.009
13720TIP3   OH241036   5.687   5.810   3.361
13720TIP3    H141037   5.638   5.752   3.420
13720TIP3    H241038   5.642   5.894   3.367
13721TIP3   OH241039   8.787   7.959   5.172
13721TIP3    H141040   8.707   7.960   5.121
13721TIP3    H241041   8.760   7.983   5.260
13722TIP3   OH241042   5.464   0.854   0.386
13722TIP3    H141043   5.476   0.936   0.432
13722TIP3    H241044   5.395   0.872   0.322
13723TIP3   OH241045   6.259   6.716   4.948
13723TIP3    H141046   6.279   6.810   4.939
13723TIP3    H241047   6.272   6.681   4.860
13724TIP3   OH241048   5.158   5.361   7.432
13724TIP3    H141049   5.168   5.336   7.524
13724TIP3    H241050   5.075   5.407   7.429
13725TIP3   OH241051   8.344   8.178   1.013
13725TIP3    H141052   8.285   8.249   1.038
13725TIP3    H241053   8.339   8.117   1.086
13726TIP3   OH241054   5.070   2.183   5.348
13726TIP3    H141055   5.066   2.243   5.274
13726TIP3    H241056   5.023   2.228   5.418
13727TIP3   OH241057   6.103   3.332   5.381
13727TIP3    H141058   6.065   3.300   5.463
13727TIP3    H241059   6.036   3.315   5.315
13728TIP3   OH241060   1.596   0.371   7.032
13728TIP3    H141061   1.583   0.424   6.953
13728TIP3    H241062   1.551   0.419   7.101
13729TIP3   OH241063   9.081   3.821   2.302
13729TIP3    H141064   9.002   3.825   2.355
13729TIP3    H241065   9.146   3.780   2.359
13730TIP3   OH241066   1.762   2.086   3.476
13730TIP3    H141067   1.768   2.164   3.530
13730TIP3    H241068   1.685   2.101   3.420
13731TIP3   OH241069   8.938   8.429   4.656
13731TIP3    H141070   8.902   8.380   4.582
13731TIP3    H241071   8.975   8.508   4.616
13732TIP3   OH241072   8.271   1.661   3.347
13732TIP3    H141073   8.235   1.675   3.259
13732TIP3    H241074   8.267   1.566   3.359
13733TIP3   OH241075   2.482   1.713   3.483
13733TIP3    H141076   2.570   1.705   3.521
13733TIP3    H241077   2.495   1.764   3.403
13734TIP3   OH241078   3.983   7.400   6.419
13734TIP3    H141079   4.074   7.416   6.392
13734TIP3    H241080   3.975   7.446   6.503
13735TIP3   OH241081   4.087   4.872   1.769
13735TIP3    H141082   4.180   4.893   1.776
13735TIP3    H241083   4.048   4.950   1.731
13736TIP3   OH241084   2.016   2.137   1.488
13736TIP3    H141085   1.972   2.175   1.564
13736TIP3    H241086   2.092   2.193   1.473
13737TIP3   OH241087   6.481   3.466   4.884
13737TIP3    H141088   6.461   3.507   4.969
13737TIP3    H241089   6.499   3.540   4.826
13738TIP3   OH241090   4.792   4.218   3.885
13738TIP3    H141091   4.731   4.154   3.922
13738TIP3    H241092   4.753   4.241   3.801
13739TIP3   OH241093   4.926   0.418   6.040
13739TIP3    H141094   5.022   0.422   6.044
13739TIP3    H241095   4.902   0.484   5.976
13740TIP3   OH241096   5.463   0.667   6.359
13740TIP3    H141097   5.499   0.602   6.419
13740TIP3    H241098   5.506   0.749   6.383
13741TIP3   OH241099   0.970   6.709   1.927
13741TIP3    H141100   0.969   6.643   1.996
13741TIP3    H241101   0.961   6.659   1.846
13742TIP3   OH241102   8.459   3.568   6.982
13742TIP3    H141103   8.536   3.593   7.033
13742TIP3    H241104   8.385   3.599   7.034
13743TIP3   OH241105   0.957   2.763   3.933
13743TIP3    H141106   0.987   2.826   3.867
13743TIP3    H241107   0.983   2.803   4.017
13744TIP3   OH241108   4.731   0.608   3.924
13744TIP3    H141109   4.818   0.570   3.927
13744TIP3    H241110   4.676   0.547   3.973
13745TIP3   OH241111   5.903   6.329   4.512
13745TIP3    H141112   5.962   6.261   4.482
13745TIP3    H241113   5.959   6.405   4.527
13746TIP3   OH241114   1.885   3.925   5.710
13746TIP3    H141115   1.809   3.912   5.768
13746TIP3    H241116   1.852   3.904   5.623
13747TIP3   OH241117   8.387   2.428   3.582
13747TIP3    H141118   8.303   2.383   3.593
13747TIP3    H241119   8.367   2.501   3.524
13748TIP3   OH241120   9.340   1.193   7.776
13748TIP3    H141121   9.427   1.221   7.805
13748TIP3    H241122   9.299   1.156   7.854
13749TIP3   OH241123   5.298   4.310   6.177
13749TIP3    H141124   5.254   4.384   6.134
13749TIP3    H241125   5.377   4.296   6.125
13750TIP3   OH241126   1.648   8.409   2.164
13750TIP3    H141127   1.564   8.411   2.209
13750TIP3    H241128   1.700   8.345   2.212
13751TIP3   OH241129   0.241   4.292   4.869
13751TIP3    H141130   0.171   4.302   4.934
13751TIP3    H241131   0.205   4.333   4.790
13752TIP3   OH241132   2.737   4.118   0.193
13752TIP3    H141133   2.777   4.147   0.111
13752TIP3    H241134   2.740   4.195   0.250
13753TIP3   OH241135   7.881   2.251   6.286
13753TIP3    H141136   7.871   2.240   6.380
13753TIP3    H241137   7.879   2.345   6.272
13754TIP3   OH241138   3.328   0.735   4.022
13754TIP3    H141139   3.268   0.667   3.991
13754TIP3    H241140   3.371   0.696   4.099
13755TIP3   OH241141   6.997   7.863   1.186
13755TIP3    H141142   7.091   7.868   1.207
13755TIP3    H241143   6.973   7.772   1.204
13756TIP3   OH241144   5.516   7.505   4.503
13756TIP3    H141145   5.495   7.454   4.424
13756TIP3    H241146   5.498   7.596   4.478
13757TIP3   OH241147   2.237   5.320   6.557
13757TIP3    H141148   2.227   5.395   6.498
13757TIP3    H241149   2.200   5.246   6.509
13758TIP3   OH241150   5.182   4.280   1.787
13758TIP3    H141151   5.266   4.288   1.742
13758TIP3    H241152   5.190   4.338   1.863
13759TIP3   OH241153   3.747   7.666   4.100
13759TIP3    H141154   3.784   7.754   4.100
13759TIP3    H241155   3.791   7.622   4.173
13760TIP3   OH241156   1.944   7.380   4.852
13760TIP3    H141157   1.965   7.313   4.917
13760TIP3    H241158   1.864   7.349   4.811
13761TIP3   OH241159   5.385   8.186   1.224
13761TIP3    H141160   5.350   8.157   1.309
13761TIP3    H241161   5.372   8.281   1.225
13762TIP3   OH241162   7.935   5.276   0.020
13762TIP3    H141163   7.961   5.198  -0.028
13762TIP3    H241164   7.866   5.246   0.079
13763TIP3   OH241165   0.306   7.892   7.709
13763TIP3    H141166   0.338   7.901   7.619
13763TIP3    H241167   0.344   7.967   7.756
13764TIP3   OH241168   6.722   2.555   5.841
13764TIP3    H141169   6.678   2.619   5.897
13764TIP3    H241170   6.749   2.605   5.764
13765TIP3   OH241171   3.645   0.254   3.800
13765TIP3    H141172   3.554   0.247   3.773
13765TIP3    H241173   3.663   0.348   3.805
13766TIP3   OH241174   9.205   8.990   2.158
13766TIP3    H141175   9.151   9.061   2.191
13766TIP3    H241176   9.295   9.021   2.169
13767TIP3   OH241177   4.141   4.553   4.362
13767TIP3    H141178   4.046   4.540   4.360
13767TIP3    H241179   4.173   4.485   4.421
13768TIP3   OH241180   2.080   1.885   0.933
13768TIP3    H141181   2.071   1.800   0.977
13768TIP3    H241182   2.038   1.872   0.848
13769TIP3   OH241183   0.875   8.138   6.745
13769TIP3    H141184   0.892   8.232   6.738
13769TIP3    H241185   0.949   8.104   6.795
13770TIP3   OH241186   6.591   2.767   1.963
13770TIP3    H141187   6.638   2.719   1.894
13770TIP3    H241188   6.659   2.794   2.024
13771TIP3   OH241189   4.313   4.658   5.791
13771TIP3    H141190   4.406   4.668   5.813
13771TIP3    H241191   4.304   4.566   5.768
13772TIP3   OH241192   8.231   0.287   0.431
13772TIP3    H141193   8.166   0.357   0.438
13772TIP3    H241194   8.182   0.206   0.447
13773TIP3   OH241195   4.368   5.962   7.571
13773TIP3    H141196   4.337   5.960   7.662
13773TIP3    H241197   4.438   5.896   7.568
13774TIP3   OH241198   3.973   0.082   7.771
13774TIP3    H141199   4.027   0.004   7.784
13774TIP3    H241200   3.907   0.076   7.841
13775TIP3   OH241201   7.676   1.879   3.164
13775TIP3    H141202   7.741   1.838   3.221
13775TIP3    H241203   7.665   1.817   3.092
13776TIP3   OH241204   1.907   0.052   0.778
13776TIP3    H141205   1.920   0.025   0.869
13776TIP3    H241206   1.814   0.033   0.761
13777TIP3   OH241207   0.360   4.288   2.166
13777TIP3    H141208   0.321   4.211   2.207
13777TIP3    H241209   0.407   4.331   2.237
13778TIP3   OH241210   7.767   0.843   2.952
13778TIP3    H141211   7.709   0.852   3.027
13778TIP3    H241212   7.728   0.899   2.885
13779TIP3   OH241213   4.413   0.109   5.768
13779TIP3    H141214   4.332   0.058   5.777
13779TIP3    H241215   4.463   0.062   5.701
13780TIP3   OH241216   6.198   2.093   1.238
13780TIP3    H141217   6.227   2.147   1.311
13780TIP3    H241218   6.125   2.041   1.273
13781TIP3   OH241219   8.368   3.799   4.377
13781TIP3    H141220   8.304   3.735   4.408
13781TIP3    H241221   8.452   3.771   4.414
13782TIP3   OH241222   5.169   0.508   3.403
13782TIP3    H141223   5.256   0.540   3.380
13782TIP3    H241224   5.127   0.582   3.446
13783TIP3   OH241225   8.336   3.613   0.154
13783TIP3    H141226   8.328   3.589   0.246
13783TIP3    H241227   8.416   3.569   0.125
13784TIP3   OH241228   6.658   2.709   0.291
13784TIP3    H141229   6.580   2.764   0.283
13784TIP3    H241230   6.731   2.771   0.293
13785TIP3   OH241231   4.279   8.348   2.596
13785TIP3    H141232   4.347   8.387   2.541
13785TIP3    H241233   4.205   8.335   2.537
13786TIP3   OH241234   2.468   6.155   5.638
13786TIP3    H141235   2.518   6.128   5.561
13786TIP3    H241236   2.488   6.088   5.704
13787TIP3   OH241237   8.099   8.667   4.866
13787TIP3    H141238   8.134   8.660   4.955
13787TIP3    H241239   8.012   8.706   4.877
13788TIP3   OH241240   4.905   1.976   1.702
13788TIP3    H141241   4.913   1.975   1.797
13788TIP3    H241242   4.836   1.912   1.683
13789TIP3   OH241243   3.705   7.870   3.728
13789TIP3    H141244   3.797   7.894   3.740
13789TIP3    H241245   3.671   7.936   3.667
13790TIP3   OH241246   2.095   6.126   4.585
13790TIP3    H141247   2.107   6.034   4.611
13790TIP3    H241248   2.143   6.176   4.651
13791TIP3   OH241249   6.479   7.837   7.313
13791TIP3    H141250   6.402   7.865   7.362
13791TIP3    H241251   6.471   7.881   7.229
13792TIP3   OH241252   0.854   0.946   5.806
13792TIP3    H141253   0.830   0.864   5.849
13792TIP3    H241254   0.829   1.014   5.869
13793TIP3   OH241255   5.313   8.697   3.065
13793TIP3    H141256   5.305   8.661   3.154
13793TIP3    H241257   5.237   8.755   3.056
13794TIP3   OH241258   9.050   1.553   3.745
13794TIP3    H141259   9.016   1.638   3.716
13794TIP3    H241260   9.061   1.563   3.839
13795TIP3   OH241261   5.362   4.026   2.277
13795TIP3    H141262   5.440   4.038   2.330
13795TIP3    H241263   5.394   4.021   2.187
13796TIP3   OH241264   4.379   7.626   6.622
13796TIP3    H141265   4.325   7.555   6.658
13796TIP3    H241266   4.316   7.695   6.601
13797TIP3   OH241267   8.202   6.104   2.189
13797TIP3    H141268   8.177   6.053   2.266
13797TIP3    H241269   8.297   6.112   2.194
13798TIP3   OH241270   8.439   1.790   6.654
13798TIP3    H141271   8.434   1.726   6.583
13798TIP3    H241272   8.353   1.831   6.656
13799TIP3   OH241273   3.855   5.860   5.281
13799TIP3    H141274   3.833   5.945   5.241
13799TIP3    H241275   3.950   5.862   5.292
13800TIP3   OH241276   6.559   5.828   2.820
13800TIP3    H141277   6.475   5.790   2.848
13800TIP3    H241278   6.616   5.818   2.897
13801TIP3   OH241279   5.487   5.270   3.711
13801TIP3    H141280   5.462   5.279   3.619
13801TIP3    H241281   5.420   5.320   3.758
13802TIP3   OH241282   7.991   2.959   1.773
13802TIP3    H141283   8.033   2.890   1.721
13802TIP3    H241284   7.930   2.912   1.830
13803TIP3   OH241285   7.337   4.256   1.816
13803TIP3    H141286   7.428   4.237   1.795
13803TIP3    H241287   7.302   4.172   1.848
13804TIP3   OH241288   8.031   6.120   3.639
13804TIP3    H141289   8.075   6.121   3.725
13804TIP3    H241290   8.103   6.110   3.576
13805TIP3   OH241291   4.370   8.049   2.312
13805TIP3    H141292   4.431   8.112   2.272
13805TIP3    H241293   4.284   8.078   2.283
13806TIP3   OH241294   4.249   8.571   7.401
13806TIP3    H141295   4.276   8.619   7.480
13806TIP3    H241296   4.185   8.628   7.359
13807TIP3   OH241297   3.610   0.085   4.069
13807TIP3    H141298   3.580   0.143   4.139
13807TIP3    H241299   3.577   0.125   3.989
13808TIP3   OH241300   0.324   7.320   6.496
13808TIP3    H141301   0.310   7.385   6.565
13808TIP3    H241302   0.413   7.337   6.465
13809TIP3   OH241303   3.143   2.324   5.094
13809TIP3    H141304   3.119   2.236   5.122
13809TIP3    H241305   3.067   2.378   5.117
13810TIP3   OH241306   4.073   4.263   5.747
13810TIP3    H141307   4.146   4.252   5.686
13810TIP3    H241308   3.998   4.285   5.691
13811TIP3   OH241309   3.863   5.917   5.995
13811TIP3    H141310   3.878   5.836   5.947
13811TIP3    H241311   3.791   5.896   6.055
13812TIP3   OH241312   3.329   8.596   6.312
13812TIP3    H141313   3.326   8.567   6.403
13812TIP3    H241314   3.242   8.630   6.295
13813TIP3   OH241315   1.825   0.594   3.700
13813TIP3    H141316   1.874   0.669   3.735
13813TIP3    H241317   1.813   0.615   3.607
13814TIP3   OH241318   0.720   0.593   1.984
13814TIP3    H141319   0.692   0.644   2.060
13814TIP3    H241320   0.699   0.649   1.909
13815TIP3   OH241321   6.049   8.337   0.451
13815TIP3    H141322   6.077   8.414   0.500
13815TIP3    H241323   6.126   8.310   0.401
13816TIP3   OH241324   6.099   5.502   0.257
13816TIP3    H141325   6.064   5.459   0.335
13816TIP3    H241326   6.100   5.595   0.279
13817TIP3   OH241327   6.228   6.060   1.255
13817TIP3    H141328   6.149   6.096   1.296
13817TIP3    H241329   6.231   5.969   1.284
13818TIP3   OH241330   6.945   1.681   0.922
13818TIP3    H141331   6.946   1.767   0.964
13818TIP3    H241332   7.032   1.671   0.885
13819TIP3   OH241333   7.735   2.739   2.671
13819TIP3    H141334   7.828   2.717   2.664
13819TIP3    H241335   7.727   2.824   2.627
13820TIP3   OH241336   5.889   3.689   3.965
13820TIP3    H141337   5.918   3.638   4.041
13820TIP3    H241338   5.964   3.744   3.944
13821TIP3   OH241339   2.127   5.250   2.313
13821TIP3    H141340   2.094   5.286   2.395
13821TIP3    H241341   2.056   5.196   2.280
13822TIP3   OH241342   5.458   7.002   0.054
13822TIP3    H141343   5.530   7.066   0.055
13822TIP3    H241344   5.436   6.990   0.146
13823TIP3   OH241345   3.213   2.108   7.676
13823TIP3    H141346   3.162   2.176   7.633
13823TIP3    H241347   3.151   2.037   7.691
13824TIP3   OH241348   7.012   3.783   1.145
13824TIP3    H141349   6.956   3.767   1.221
13824TIP3    H241350   6.974   3.729   1.076
13825TIP3   OH241351   0.546   3.509   5.750
13825TIP3    H141352   0.565   3.526   5.842
13825TIP3    H241353   0.619   3.550   5.703
13826TIP3   OH241354   4.726   8.950   4.751
13826TIP3    H141355   4.755   9.038   4.773
13826TIP3    H241356   4.806   8.902   4.732
13827TIP3   OH241357   8.471   6.169   3.495
13827TIP3    H141358   8.388   6.184   3.541
13827TIP3    H241359   8.520   6.250   3.510
13828TIP3   OH241360   4.843   7.478   7.745
13828TIP3    H141361   4.851   7.502   7.838
13828TIP3    H241362   4.829   7.384   7.746
13829TIP3   OH241363   3.614   0.126   2.749
13829TIP3    H141364   3.565   0.073   2.812
13829TIP3    H241365   3.596   0.085   2.664
13830TIP3   OH241366   7.647   5.485   4.783
13830TIP3    H141367   7.557   5.512   4.801
13830TIP3    H241368   7.683   5.465   4.870
13831TIP3   OH241369   2.646   6.871   5.147
13831TIP3    H141370   2.596   6.870   5.065
13831TIP3    H241371   2.645   6.962   5.175
13832TIP3   OH241372   8.493   4.554   3.934
13832TIP3    H141373   8.466   4.493   3.864
13832TIP3    H241374   8.588   4.553   3.930
13833TIP3   OH241375   5.211   6.632   5.398
13833TIP3    H141376   5.275   6.561   5.391
13833TIP3    H241377   5.156   6.622   5.320
13834TIP3   OH241378   2.504   3.495   6.111
13834TIP3    H141379   2.440   3.423   6.110
13834TIP3    H241380   2.589   3.450   6.116
13835TIP3   OH241381   0.743   3.243   5.298
13835TIP3    H141382   0.798   3.184   5.247
13835TIP3    H241383   0.672   3.188   5.331
13836TIP3   OH241384   6.352   6.266   6.366
13836TIP3    H141385   6.324   6.341   6.418
13836TIP3    H241386   6.292   6.264   6.292
13837TIP3   OH241387   6.610   6.924   4.488
13837TIP3    H141388   6.578   6.966   4.408
13837TIP3    H241389   6.642   6.838   4.460
13838TIP3   OH241390   8.081   0.128   3.516
13838TIP3    H141391   8.034   0.203   3.551
13838TIP3    H241392   8.024   0.095   3.446
13839TIP3   OH241393   1.914   0.772   3.050
13839TIP3    H141394   1.856   0.750   3.123
13839TIP3    H241395   1.857   0.774   2.974
13840TIP3   OH241396   8.146   3.818   6.925
13840TIP3    H141397   8.217   3.774   6.970
13840TIP3    H241398   8.066   3.785   6.967
13841TIP3   OH241399   0.793   6.009   3.532
13841TIP3    H141400   0.746   6.072   3.477
13841TIP3    H241401   0.872   6.056   3.560
13842TIP3   OH241402   6.392   8.712   3.471
13842TIP3    H141403   6.301   8.688   3.453
13842TIP3    H241404   6.413   8.778   3.405
13843TIP3   OH241405   4.786   2.813   7.206
13843TIP3    H141406   4.872   2.841   7.176
13843TIP3    H241407   4.801   2.725   7.242
13844TIP3   OH241408   1.126   3.232   4.011
13844TIP3    H141409   1.069   3.155   4.015
13844TIP3    H241410   1.169   3.234   4.097
13845TIP3   OH241411   9.117   8.648   2.458
13845TIP3    H141412   9.046   8.696   2.500
13845TIP3    H241413   9.112   8.673   2.366
13846TIP3   OH241414   2.918   2.703   1.377
13846TIP3    H141415   2.966   2.732   1.299
13846TIP3    H241416   2.850   2.769   1.390
13847TIP3   OH241417   8.954   8.647   6.535
13847TIP3    H141418   9.000   8.730   6.549
13847TIP3    H241419   9.015   8.580   6.564
13848TIP3   OH241420   3.658   1.267   2.264
13848TIP3    H141421   3.607   1.212   2.324
13848TIP3    H241422   3.748   1.238   2.276
13849TIP3   OH241423   7.650   6.465   4.967
13849TIP3    H141424   7.583   6.528   4.994
13849TIP3    H241425   7.731   6.499   5.006
13850TIP3   OH241426   9.305   4.127   3.780
13850TIP3    H141427   9.326   4.220   3.774
13850TIP3    H241428   9.255   4.108   3.701
13851TIP3   OH241429   5.670   2.891   7.453
13851TIP3    H141430   5.725   2.934   7.387
13851TIP3    H241431   5.616   2.830   7.404
13852TIP3   OH241432   1.924   5.008   7.410
13852TIP3    H141433   1.931   5.035   7.318
13852TIP3    H241434   1.951   4.916   7.410
13853TIP3   OH241435   4.125   6.125   3.738
13853TIP3    H141436   4.154   6.069   3.666
13853TIP3    H241437   4.133   6.214   3.704
13854TIP3   OH241438   9.200   8.465   0.932
13854TIP3    H141439   9.131   8.486   0.868
13854TIP3    H241440   9.186   8.373   0.952
13855TIP3   OH241441   9.057   0.181   3.898
13855TIP3    H141442   9.103   0.106   3.860
13855TIP3    H241443   9.086   0.255   3.845
13856TIP3   OH241444   2.079   0.766   6.515
13856TIP3    H141445   1.991   0.773   6.552
13856TIP3    H241446   2.081   0.831   6.445
13857TIP3   OH241447   3.981   1.257   5.353
13857TIP3    H141448   4.055   1.304   5.391
13857TIP3    H241449   3.921   1.245   5.427
13858TIP3   OH241450   8.732   2.409   3.952
13858TIP3    H141451   8.777   2.416   4.036
13858TIP3    H241452   8.647   2.370   3.973
13859TIP3   OH241453   3.398   4.912   7.449
13859TIP3    H141454   3.399   4.842   7.514
13859TIP3    H241455   3.403   4.993   7.501
13860TIP3   OH241456   6.395   7.156   3.627
13860TIP3    H141457   6.426   7.105   3.701
13860TIP3    H241458   6.301   7.167   3.643
13861TIP3   OH241459   6.963   4.541   0.136
13861TIP3    H141460   6.987   4.482   0.207
13861TIP3    H241461   6.883   4.504   0.098
13862TIP3   OH241462   4.437   4.101   4.549
13862TIP3    H141463   4.527   4.132   4.564
13862TIP3    H241464   4.408   4.152   4.473
13863TIP3   OH241465   1.346   3.270   6.933
13863TIP3    H141466   1.288   3.198   6.909
13863TIP3    H241467   1.392   3.239   7.011
13864TIP3   OH241468   2.484   3.150   2.339
13864TIP3    H141469   2.400   3.118   2.371
13864TIP3    H241470   2.531   3.175   2.419
13865TIP3   OH241471   8.829   5.961   0.386
13865TIP3    H141472   8.898   6.022   0.410
13865TIP3    H241473   8.808   5.916   0.468
13866TIP3   OH241474   2.115   3.299   5.773
13866TIP3    H141475   2.080   3.333   5.691
13866TIP3    H241476   2.108   3.373   5.834
13867TIP3   OH241477   1.571   7.184   2.846
13867TIP3    H141478   1.575   7.257   2.784
13867TIP3    H241479   1.654   7.138   2.832
13868TIP3   OH241480   7.734   0.534   7.756
13868TIP3    H141481   7.653   0.575   7.787
13868TIP3    H241482   7.785   0.518   7.835
13869TIP3   OH241483   7.899   4.426   5.602
13869TIP3    H141484   7.995   4.420   5.599
13869TIP3    H241485   7.869   4.344   5.564
13870TIP3   OH241486   1.030   8.248   2.408
13870TIP3    H141487   0.958   8.196   2.443
13870TIP3    H241488   1.081   8.273   2.485
13871TIP3   OH241489   7.473   2.530   5.352
13871TIP3    H141490   7.516   2.547   5.269
13871TIP3    H241491   7.531   2.469   5.398
13872TIP3   OH241492   7.839   0.888   7.382
13872TIP3    H141493   7.752   0.922   7.360
13872TIP3    H241494   7.823   0.827   7.454
13873TIP3   OH241495   1.887   5.111   0.647
13873TIP3    H141496   1.926   5.137   0.730
13873TIP3    H241497   1.933   5.163   0.581
13874TIP3   OH241498   4.622   2.078   7.018
13874TIP3    H141499   4.561   2.098   7.089
13874TIP3    H241500   4.591   2.130   6.944
13875TIP3   OH241501   3.176   1.278   5.584
13875TIP3    H141502   3.246   1.275   5.649
13875TIP3    H241503   3.196   1.356   5.531
13876TIP3   OH241504   3.365   7.001   2.669
13876TIP3    H141505   3.450   7.044   2.681
13876TIP3    H241506   3.308   7.043   2.734
13877TIP3   OH241507   8.850   8.141   1.376
13877TIP3    H141508   8.812   8.139   1.289
13877TIP3    H241509   8.870   8.049   1.396
13878TIP3   OH241510   7.505   3.821   4.526
13878TIP3    H141511   7.523   3.856   4.439
13878TIP3    H241512   7.521   3.727   4.517
13879TIP3   OH241513   1.611   2.444   7.701
13879TIP3    H141514   1.613   2.354   7.735
13879TIP3    H241515   1.520   2.459   7.676
13880TIP3   OH241516   8.302   5.716   6.654
13880TIP3    H141517   8.397   5.704   6.654
13880TIP3    H241518   8.279   5.728   6.562
13881TIP3   OH241519   2.634   2.001   3.061
13881TIP3    H141520   2.545   1.992   3.027
13881TIP3    H241521   2.672   2.072   3.010
13882TIP3   OH241522   9.185   7.760   4.372
13882TIP3    H141523   9.144   7.845   4.390
13882TIP3    H241524   9.273   7.781   4.342
13883TIP3   OH241525   0.081   2.775   5.299
13883TIP3    H141526   0.130   2.808   5.374
13883TIP3    H241527   0.015   2.843   5.281
13884TIP3   OH241528   0.700   0.705   7.515
13884TIP3    H141529   0.776   0.761   7.531
13884TIP3    H241530   0.736   0.628   7.472
13885TIP3   OH241531   0.126   3.697   6.627
13885TIP3    H141532   0.058   3.632   6.647
13885TIP3    H241533   0.181   3.698   6.706
13886TIP3   OH241534   6.140   1.869   3.919
13886TIP3    H141535   6.179   1.890   3.834
13886TIP3    H241536   6.057   1.827   3.898
13887TIP3   OH241537   2.064   1.916   5.287
13887TIP3    H141538   2.088   1.964   5.366
13887TIP3    H241539   2.147   1.880   5.255
13888TIP3   OH241540   2.065   3.495   6.669
13888TIP3    H141541   2.059   3.422   6.732
13888TIP3    H241542   2.156   3.524   6.675
13889TIP3   OH241543   5.994   3.182   1.893
13889TIP3    H141544   6.074   3.145   1.928
13889TIP3    H241545   5.981   3.263   1.943
13890TIP3   OH241546   4.215   8.381   4.814
13890TIP3    H141547   4.309   8.396   4.818
13890TIP3    H241548   4.177   8.469   4.817
13891TIP3   OH241549   4.524   7.606   2.654
13891TIP3    H141550   4.545   7.657   2.576
13891TIP3    H241551   4.555   7.660   2.727
13892TIP3   OH241552   8.009   6.036   1.815
13892TIP3    H141553   8.042   6.118   1.776
13892TIP3    H241554   8.067   5.969   1.781
13893TIP3   OH241555   2.239   2.087   7.246
13893TIP3    H141556   2.147   2.092   7.219
13893TIP3    H241557   2.289   2.099   7.165
13894TIP3   OH241558   5.080   8.514   5.003
13894TIP3    H141559   5.151   8.449   5.004
13894TIP3    H241560   5.100   8.572   5.077
13895TIP3   OH241561   0.226   5.883   6.738
13895TIP3    H141562   0.177   5.875   6.656
13895TIP3    H241563   0.259   5.794   6.754
13896TIP3   OH241564   6.688   6.399   6.368
13896TIP3    H141565   6.758   6.431   6.313
13896TIP3    H241566   6.648   6.478   6.405
13897TIP3   OH241567   0.449   5.673   6.589
13897TIP3    H141568   0.363   5.675   6.630
13897TIP3    H241569   0.466   5.581   6.573
13898TIP3   OH241570   7.963   1.326   2.196
13898TIP3    H141571   7.978   1.402   2.141
13898TIP3    H241572   8.029   1.262   2.168
13899TIP3   OH241573   3.139   4.802   3.991
13899TIP3    H141574   3.206   4.734   3.998
13899TIP3    H241575   3.069   4.774   4.049
13900TIP3   OH241576   5.537   0.431   5.259
13900TIP3    H141577   5.579   0.468   5.337
13900TIP3    H241578   5.444   0.448   5.271
13901TIP3   OH241579   5.549   5.464   2.546
13901TIP3    H141580   5.494   5.537   2.516
13901TIP3    H241581   5.536   5.462   2.641
13902TIP3   OH241582   2.052   8.816   6.226
13902TIP3    H141583   2.125   8.809   6.287
13902TIP3    H241584   1.998   8.887   6.261
13903TIP3   OH241585   8.045   5.266   2.425
13903TIP3    H141586   8.085   5.344   2.387
13903TIP3    H241587   7.986   5.300   2.493
13904TIP3   OH241588   4.859   3.913   4.863
13904TIP3    H141589   4.890   3.956   4.942
13904TIP3    H241590   4.809   3.980   4.816
13905TIP3   OH241591   6.604   7.115   2.606
13905TIP3    H141592   6.531   7.149   2.554
13905TIP3    H241593   6.562   7.066   2.676
13906TIP3   OH241594   2.453   5.624   0.249
13906TIP3    H141595   2.540   5.662   0.237
13906TIP3    H241596   2.470   5.542   0.295
13907TIP3   OH241597   3.908   8.730   3.840
13907TIP3    H141598   3.825   8.712   3.883
13907TIP3    H241599   3.971   8.671   3.883
13908TIP3   OH241600   8.047   3.900   0.382
13908TIP3    H141601   8.124   3.866   0.428
13908TIP3    H241602   7.975   3.889   0.443
13909TIP3   OH241603   6.981   6.963   6.390
13909TIP3    H141604   7.058   6.958   6.447
13909TIP3    H241605   6.961   7.057   6.384
13910TIP3   OH241606   0.221   7.463   4.672
13910TIP3    H141607   0.277   7.522   4.721
13910TIP3    H241608   0.262   7.377   4.681
13911TIP3   OH241609   4.083   6.156   0.288
13911TIP3    H141610   4.115   6.203   0.211
13911TIP3    H241611   4.083   6.221   0.358
13912TIP3   OH241612   1.842   3.287   2.410
13912TIP3    H141613   1.853   3.381   2.395
13912TIP3    H241614   1.857   3.247   2.325
13913TIP3   OH241615   3.627   1.174   7.405
13913TIP3    H141616   3.651   1.100   7.350
13913TIP3    H241617   3.652   1.251   7.354
13914TIP3   OH241618   7.777   5.599   6.369
13914TIP3    H141619   7.749   5.508   6.378
13914TIP3    H241620   7.740   5.628   6.285
13915TIP3   OH241621   3.386   2.112   3.895
13915TIP3    H141622   3.448   2.174   3.856
13915TIP3    H241623   3.393   2.128   3.989
13916TIP3   OH241624   7.852   7.321   6.515
13916TIP3    H141625   7.924   7.359   6.565
13916TIP3    H241626   7.822   7.393   6.458
13917TIP3   OH241627   9.168   4.230   6.582
13917TIP3    H141628   9.256   4.259   6.604
13917TIP3    H241629   9.179   4.167   6.512
13918TIP3   OH241630   3.259   4.118   0.291
13918TIP3    H141631   3.190   4.053   0.274
13918TIP3    H241632   3.216   4.186   0.343
13919TIP3   OH241633   0.924   0.415   2.040
13919TIP3    H141634   0.839   0.459   2.030
13919TIP3    H241635   0.930   0.395   2.133
13920TIP3   OH241636   8.519   3.671   5.614
13920TIP3    H141637   8.592   3.715   5.570
13920TIP3    H241638   8.468   3.742   5.653
13921TIP3   OH241639   8.586   6.839   5.088
13921TIP3    H141640   8.548   6.835   5.001
13921TIP3    H241641   8.532   6.903   5.135
13922TIP3   OH241642   5.515   5.257   6.684
13922TIP3    H141643   5.549   5.291   6.601
13922TIP3    H241644   5.563   5.307   6.751
13923TIP3   OH241645   7.741   0.791   1.285
13923TIP3    H141646   7.689   0.786   1.204
13923TIP3    H241647   7.798   0.714   1.281
13924TIP3   OH241648   4.830   4.036   1.632
13924TIP3    H141649   4.774   4.028   1.554
13924TIP3    H241650   4.830   4.129   1.652
13925TIP3   OH241651   1.294   6.281   4.011
13925TIP3    H141652   1.368   6.318   4.059
13925TIP3    H241653   1.242   6.356   3.985
13926TIP3   OH241654   2.230   6.244   4.379
13926TIP3    H141655   2.201   6.184   4.447
13926TIP3    H241656   2.232   6.190   4.299
13927TIP3   OH241657   1.887   0.949   4.711
13927TIP3    H141658   1.954   0.939   4.644
13927TIP3    H241659   1.827   1.014   4.675
13928TIP3   OH241660   1.866   3.774   2.589
13928TIP3    H141661   1.779   3.803   2.616
13928TIP3    H241662   1.878   3.690   2.632
13929TIP3   OH241663   9.264   5.117   3.902
13929TIP3    H141664   9.313   5.090   3.980
13929TIP3    H241665   9.328   5.167   3.851
13930TIP3   OH241666   1.666   6.228   4.834
13930TIP3    H141667   1.669   6.315   4.872
13930TIP3    H241668   1.654   6.243   4.740
13931TIP3   OH241669   0.787   7.473   6.838
13931TIP3    H141670   0.750   7.405   6.783
13931TIP3    H241671   0.880   7.473   6.818
13932TIP3   OH241672   3.218   6.243   6.041
13932TIP3    H141673   3.272   6.308   6.087
13932TIP3    H241674   3.198   6.177   6.108
13933TIP3   OH241675   0.548   6.695   3.145
13933TIP3    H141676   0.595   6.720   3.065
13933TIP3    H241677   0.610   6.713   3.215
13934TIP3   OH241678   0.377   1.565   5.706
13934TIP3    H141679   0.383   1.653   5.744
13934TIP3    H241680   0.429   1.570   5.626
13935TIP3   OH241681   3.192   3.137   1.817
13935TIP3    H141682   3.286   3.120   1.821
13935TIP3    H241683   3.180   3.183   1.733
13936TIP3   OH241684   8.752   7.717   5.657
13936TIP3    H141685   8.685   7.768   5.611
13936TIP3    H241686   8.835   7.755   5.628
13937TIP3   OH241687   1.284   2.022   6.298
13937TIP3    H141688   1.266   1.954   6.364
13937TIP3    H241689   1.200   2.036   6.255
13938TIP3   OH241690   4.589   6.527   3.591
13938TIP3    H141691   4.580   6.550   3.498
13938TIP3    H241692   4.525   6.583   3.635
13939TIP3   OH241693   4.928   2.488   4.422
13939TIP3    H141694   4.911   2.533   4.505
13939TIP3    H241695   4.902   2.397   4.438
13940TIP3   OH241696   6.039   7.561   6.612
13940TIP3    H141697   5.974   7.614   6.658
13940TIP3    H241698   6.098   7.530   6.681
13941TIP3   OH241699   9.400   5.221   6.153
13941TIP3    H141700   9.313   5.182   6.154
13941TIP3    H241701   9.438   5.199   6.238
13942TIP3   OH241702   9.325   6.242   0.943
13942TIP3    H141703   9.287   6.221   0.858
13942TIP3    H241704   9.307   6.165   0.997
13943TIP3   OH241705   6.141   0.847   0.174
13943TIP3    H141706   6.066   0.805   0.132
13943TIP3    H241707   6.104   0.902   0.242
13944TIP3   OH241708   9.163   6.533   5.831
13944TIP3    H141709   9.113   6.602   5.787
13944TIP3    H241710   9.136   6.538   5.923
13945TIP3   OH241711   9.043   5.811   0.240
13945TIP3    H141712   9.025   5.738   0.182
13945TIP3    H241713   8.957   5.852   0.254
13946TIP3   OH241714   0.279   4.424   2.626
13946TIP3    H141715   0.287   4.490   2.694
13946TIP3    H241716   0.214   4.362   2.659
13947TIP3   OH241717   7.948   0.464   3.826
13947TIP3    H141718   7.950   0.510   3.743
13947TIP3    H241719   7.938   0.533   3.892
13948TIP3   OH241720   6.273   2.421   7.774
13948TIP3    H141721   6.189   2.435   7.818
13948TIP3    H241722   6.334   2.403   7.845
13949TIP3   OH241723   8.554   0.430   6.910
13949TIP3    H141724   8.598   0.382   6.981
13949TIP3    H241725   8.626   0.472   6.863
13950TIP3   OH241726   7.162   7.032   2.399
13950TIP3    H141727   7.197   7.067   2.317
13950TIP3    H241728   7.069   7.056   2.397
13951TIP3   OH241729   5.218   6.466   7.599
13951TIP3    H141730   5.176   6.430   7.521
13951TIP3    H241731   5.148   6.468   7.665
13952TIP3   OH241732   0.213   4.225   0.137
13952TIP3    H141733   0.197   4.252   0.228
13952TIP3    H241734   0.151   4.276   0.086
13953TIP3   OH241735   8.287   7.146   6.754
13953TIP3    H141736   8.281   7.241   6.758
13953TIP3    H241737   8.220   7.115   6.816
13954TIP3   OH241738   2.912   7.823   7.110
13954TIP3    H141739   2.980   7.762   7.138
13954TIP3    H241740   2.911   7.892   7.176
13955TIP3   OH241741   5.087   1.104   2.583
13955TIP3    H141742   5.009   1.099   2.527
13955TIP3    H241743   5.053   1.123   2.670
13956TIP3   OH241744   4.272   3.776   2.412
13956TIP3    H141745   4.354   3.727   2.407
13956TIP3    H241746   4.296   3.857   2.458
13957TIP3   OH241747   0.082   2.110   5.028
13957TIP3    H141748   0.126   2.062   5.098
13957TIP3    H241749   0.043   2.186   5.071
13958TIP3   OH241750   8.676   5.088   7.495
13958TIP3    H141751   8.586   5.089   7.463
13958TIP3    H241752   8.716   5.012   7.454
13959TIP3   OH241753   4.712   7.476   2.372
13959TIP3    H141754   4.681   7.397   2.418
13959TIP3    H241755   4.778   7.443   2.311
13960TIP3   OH241756   3.903   8.502   7.084
13960TIP3    H141757   3.809   8.503   7.068
13960TIP3    H241758   3.915   8.566   7.155
13961TIP3   OH241759   2.226   5.720   3.896
13961TIP3    H141760   2.277   5.639   3.884
13961TIP3    H241761   2.150   5.692   3.947
13962TIP3   OH241762   4.476   3.007   4.357
13962TIP3    H141763   4.510   3.089   4.321
13962TIP3    H241764   4.429   2.967   4.284
13963TIP3   OH241765   2.462   8.032   1.353
13963TIP3    H141766   2.539   7.975   1.348
13963TIP3    H241767   2.409   7.993   1.423
13964TIP3   OH241768   7.517   7.977   6.787
13964TIP3    H141769   7.496   7.917   6.859
13964TIP3    H241770   7.612   7.974   6.780
13965TIP3   OH241771   3.550   6.819   3.920
13965TIP3    H141772   3.552   6.778   3.834
13965TIP3    H241773   3.586   6.752   3.979
13966TIP3   OH241774   0.513   0.183   7.758
13966TIP3    H141775   0.517   0.098   7.713
13966TIP3    H241776   0.490   0.245   7.689
13967TIP3   OH241777   2.481   6.221   1.965
13967TIP3    H141778   2.432   6.174   1.898
13967TIP3    H241779   2.522   6.152   2.018
13968TIP3   OH241780   6.627   2.241   2.417
13968TIP3    H141781   6.713   2.283   2.417
13968TIP3    H241782   6.614   2.213   2.327
13969TIP3   OH241783   8.144   6.212   5.184
13969TIP3    H141784   8.105   6.148   5.126
13969TIP3    H241785   8.238   6.205   5.168
13970TIP3   OH241786   6.235   0.725   4.648
13970TIP3    H141787   6.311   0.729   4.706
13970TIP3    H241788   6.223   0.815   4.618
13971TIP3   OH241789   2.713   4.559   3.238
13971TIP3    H141790   2.778   4.489   3.245
13971TIP3    H241791   2.707   4.578   3.145
13972TIP3   OH241792   8.655   1.400   0.298
13972TIP3    H141793   8.623   1.407   0.388
13972TIP3    H241794   8.739   1.355   0.306
13973TIP3   OH241795   3.606   4.529   5.652
13973TIP3    H141796   3.559   4.463   5.703
13973TIP3    H241797   3.642   4.589   5.718
13974TIP3   OH241798   2.367   8.489   3.323
13974TIP3    H141799   2.365   8.559   3.258
13974TIP3    H241800   2.367   8.535   3.407
13975TIP3   OH241801   2.666   3.863   4.997
13975TIP3    H141802   2.653   3.937   5.056
13975TIP3    H241803   2.712   3.798   5.050
13976TIP3   OH241804   6.388   0.381   5.252
13976TIP3    H141805   6.448   0.445   5.292
13976TIP3    H241806   6.302   0.423   5.260
13977TIP3   OH241807   3.039   2.450   2.328
13977TIP3    H141808   3.004   2.413   2.408
13977TIP3    H241809   3.012   2.542   2.329
13978TIP3   OH241810   7.339   5.894   1.494
13978TIP3    H141811   7.409   5.958   1.511
13978TIP3    H241812   7.306   5.871   1.581
13979TIP3   OH241813   5.851   7.463   1.141
13979TIP3    H141814   5.907   7.540   1.129
13979TIP3    H241815   5.765   7.490   1.109
13980TIP3   OH241816   9.261   6.601   2.100
13980TIP3    H141817   9.237   6.693   2.110
13980TIP3    H241818   9.252   6.584   2.006
13981TIP3   OH241819   0.307   3.545   7.524
13981TIP3    H141820   0.269   3.498   7.450
13981TIP3    H241821   0.233   3.594   7.561
13982TIP3   OH241822   3.479   8.106   6.369
13982TIP3    H141823   3.490   8.041   6.438
13982TIP3    H241824   3.435   8.180   6.412
13983TIP3   OH241825   5.910   3.719   5.859
13983TIP3    H141826   5.996   3.762   5.866
13983TIP3    H241827   5.857   3.762   5.926
13984TIP3   OH241828   4.011   5.165   5.052
13984TIP3    H141829   3.951   5.189   4.982
13984TIP3    H241830   4.070   5.240   5.061
13985TIP3   OH241831   8.270   1.561   0.366
13985TIP3    H141832   8.278   1.650   0.401
13985TIP3    H241833   8.228   1.511   0.436
13986TIP3   OH241834   2.938   0.853   7.099
13986TIP3    H141835   3.021   0.900   7.106
13986TIP3    H241836   2.926   0.839   7.005
13987TIP3   OH241837   3.100   7.636   1.484
13987TIP3    H141838   3.164   7.690   1.438
13987TIP3    H241839   3.140   7.619   1.569
13988TIP3   OH241840   0.530   8.523   7.243
13988TIP3    H141841   0.488   8.591   7.191
13988TIP3    H241842   0.484   8.442   7.220
13989TIP3   OH241843   5.918   6.137   0.503
13989TIP3    H141844   5.875   6.060   0.541
13989TIP3    H241845   6.003   6.104   0.474
13990TIP3   OH241846   8.501   5.780   1.485
13990TIP3    H141847   8.524   5.711   1.547
13990TIP3    H241848   8.545   5.858   1.518
13991TIP3   OH241849   7.736   0.627   3.187
13991TIP3    H141850   7.648   0.622   3.151
13991TIP3    H241851   7.773   0.540   3.174
13992TIP3   OH241852   8.906   3.699   3.380
13992TIP3    H141853   8.936   3.751   3.455
13992TIP3    H241854   8.876   3.617   3.418
13993TIP3   OH241855   5.470   0.158   6.323
13993TIP3    H141856   5.402   0.219   6.296
13993TIP3    H241857   5.552   0.204   6.306
13994TIP3   OH241858   1.359   4.522   7.630
13994TIP3    H141859   1.369   4.617   7.640
13994TIP3    H241860   1.416   4.485   7.697
13995TIP3   OH241861   9.233   3.462   1.877
13995TIP3    H141862   9.191   3.472   1.791
13995TIP3    H241863   9.292   3.537   1.883
13996TIP3   OH241864   0.775   2.961   5.406
13996TIP3    H141865   0.769   3.000   5.494
13996TIP3    H241866   0.712   2.889   5.408
13997TIP3   OH241867   4.968   1.531   5.006
13997TIP3    H141868   4.906   1.493   5.068
13997TIP3    H241869   4.967   1.625   5.024
13998TIP3   OH241870   3.401   5.765   1.266
13998TIP3    H141871   3.420   5.714   1.187
13998TIP3    H241872   3.477   5.750   1.323
13999TIP3   OH241873   1.589   0.638   3.852
13999TIP3    H141874   1.661   0.603   3.799
13999TIP3    H241875   1.631   0.702   3.910
14000TIP3   OH241876   1.888   3.944   3.998
14000TIP3    H141877   1.936   3.971   4.076
14000TIP3    H241878   1.801   3.982   4.008
14001TIP3   OH241879   4.148   3.457   5.243
14001TIP3    H141880   4.233   3.415   5.256
14001TIP3    H241881   4.165   3.523   5.176
14002TIP3   OH241882   4.153   3.923   6.120
14002TIP3    H141883   4.074   3.971   6.092
14002TIP3    H241884   4.166   3.857   6.052
14003TIP3   OH241885   9.499   6.168   3.554
14003TIP3    H141886   9.477   6.087   3.601
14003TIP3    H241887   9.427   6.227   3.572
14004TIP3   OH241888   2.226   8.597   4.610
14004TIP3    H141889   2.169   8.576   4.536
14004TIP3    H241890   2.166   8.608   4.683
14005TIP3   OH241891   2.590   6.594   4.564
14005TIP3    H141892   2.632   6.594   4.650
14005TIP3    H241893   2.648   6.648   4.510
14006TIP3   OH241894   0.774   5.811   5.883
14006TIP3    H141895   0.691   5.842   5.919
14006TIP3    H241896   0.754   5.791   5.792
14007TIP3   OH241897   1.835   8.104   5.279
14007TIP3    H141898   1.797   8.181   5.237
14007TIP3    H241899   1.772   8.034   5.262
14008TIP3   OH241900   3.169   4.160   5.196
14008TIP3    H141901   3.219   4.151   5.277
14008TIP3    H241902   3.082   4.126   5.217
14009TIP3   OH241903   1.416   4.256   2.319
14009TIP3    H141904   1.512   4.257   2.313
14009TIP3    H241905   1.398   4.218   2.404
14010TIP3   OH241906   2.586   8.705   0.156
14010TIP3    H141907   2.539   8.779   0.117
14010TIP3    H241908   2.579   8.719   0.251
14011TIP3   OH241909   5.303   2.193   4.436
14011TIP3    H141910   5.267   2.109   4.406
14011TIP3    H241911   5.288   2.193   4.530
14012TIP3   OH241912   7.178   6.718   6.714
14012TIP3    H141913   7.241   6.647   6.724
14012TIP3    H241914   7.186   6.769   6.794
14013TIP3   OH241915   5.799   5.130   3.453
14013TIP3    H141916   5.715   5.085   3.465
14013TIP3    H241917   5.777   5.223   3.462
14014TIP3   OH241918   6.034   4.321   3.437
14014TIP3    H141919   6.021   4.259   3.509
14014TIP3    H241920   5.947   4.328   3.396
14015TIP3   OH241921   0.633   3.840   0.159
14015TIP3    H141922   0.696   3.905   0.191
14015TIP3    H241923   0.548   3.881   0.170
14016TIP3   OH241924   9.086   0.757   3.547
14016TIP3    H141925   9.033   0.740   3.469
14016TIP3    H241926   9.095   0.853   3.549
14017TIP3   OH241927   0.364   8.211   1.515
14017TIP3    H141928   0.446   8.166   1.535
14017TIP3    H241929   0.351   8.197   1.421
14018TIP3   OH241930   0.531   3.107   7.343
14018TIP3    H141931   0.601   3.163   7.377
14018TIP3    H241932   0.457   3.123   7.402
14019TIP3   OH241933   5.814   6.407   1.317
14019TIP3    H141934   5.813   6.500   1.339
14019TIP3    H241935   5.773   6.364   1.392
14020TIP3   OH241936   5.182   7.121   3.840
14020TIP3    H141937   5.132   7.061   3.786
14020TIP3    H241938   5.149   7.208   3.817
14021TIP3   OH241939   9.409   2.356   2.347
14021TIP3    H141940   9.501   2.343   2.322
14021TIP3    H241941   9.361   2.291   2.296
14022TIP3   OH241942   2.659   1.898   2.703
14022TIP3    H141943   2.701   1.812   2.699
14022TIP3    H241944   2.728   1.957   2.734
14023TIP3   OH241945   1.705   1.815   7.071
14023TIP3    H141946   1.652   1.829   6.993
14023TIP3    H241947   1.795   1.818   7.040
14024TIP3   OH241948   2.442   3.547   6.400
14024TIP3    H141949   2.349   3.543   6.376
14024TIP3    H241950   2.488   3.556   6.317
14025TIP3   OH241951   4.753   8.292   5.191
14025TIP3    H141952   4.821   8.346   5.149
14025TIP3    H241953   4.672   8.317   5.147
14026TIP3   OH241954   7.434   7.110   1.433
14026TIP3    H141955   7.500   7.087   1.368
14026TIP3    H241956   7.453   7.053   1.508
14027TIP3   OH241957   5.583   3.036   6.808
14027TIP3    H141958   5.493   3.019   6.834
14027TIP3    H241959   5.619   3.089   6.879
14028TIP3   OH241960   5.031   1.308   5.543
14028TIP3    H141961   5.093   1.370   5.506
14028TIP3    H241962   5.084   1.234   5.573
14029TIP3   OH241963   0.951   2.553   7.386
14029TIP3    H141964   1.013   2.520   7.321
14029TIP3    H241965   0.906   2.625   7.343
14030TIP3   OH241966   8.122   8.345   4.905
14030TIP3    H141967   8.075   8.352   4.988
14030TIP3    H241968   8.093   8.262   4.868
14031TIP3   OH241969   5.347   6.539   6.555
14031TIP3    H141970   5.354   6.607   6.488
14031TIP3    H241971   5.368   6.583   6.637
14032TIP3   OH241972   0.316   7.318   2.560
14032TIP3    H141973   0.361   7.390   2.605
14032TIP3    H241974   0.233   7.356   2.532
14033TIP3   OH241975   2.219   6.348   2.157
14033TIP3    H141976   2.180   6.408   2.093
14033TIP3    H241977   2.230   6.266   2.108
14034TIP3   OH241978   6.954   6.874   1.383
14034TIP3    H141979   6.909   6.800   1.341
14034TIP3    H241980   7.019   6.833   1.441
14035TIP3   OH241981   0.050   4.673   0.144
14035TIP3    H141982   0.135   4.713   0.164
14035TIP3    H241983   0.012   4.653   0.229
14036TIP3   OH241984   5.473   1.362   5.230
14036TIP3    H141985   5.436   1.296   5.171
14036TIP3    H241986   5.414   1.437   5.221
14037TIP3   OH241987   0.059   2.814   4.903
14037TIP3    H141988   0.067   2.739   4.963
14037TIP3    H241989   0.047   2.889   4.961
14038TIP3   OH241990   2.330   6.261   0.901
14038TIP3    H141991   2.270   6.271   0.976
14038TIP3    H241992   2.411   6.229   0.940
14039TIP3   OH241993   3.924   5.932   1.905
14039TIP3    H141994   3.855   5.866   1.918
14039TIP3    H241995   3.906   5.998   1.972
14040TIP3   OH241996   8.555   0.980   7.357
14040TIP3    H141997   8.540   0.895   7.397
14040TIP3    H241998   8.484   1.035   7.389
14041TIP3   OH241999   6.079   7.772   4.233
14041TIP3    H142000   6.128   7.730   4.304
14041TIP3    H242001   6.053   7.857   4.268
14042TIP3   OH242002   2.591   7.739   3.875
14042TIP3    H142003   2.632   7.742   3.961
14042TIP3    H242004   2.651   7.786   3.817
14043TIP3   OH242005   4.155   5.335   6.241
14043TIP3    H142006   4.198   5.329   6.156
14043TIP3    H242007   4.082   5.273   6.235
14044TIP3   OH242008   6.122   3.892   2.380
14044TIP3    H142009   6.137   3.810   2.426
14044TIP3    H242010   6.202   3.908   2.331
14045TIP3   OH242011   0.362   4.367   5.261
14045TIP3    H142012   0.450   4.357   5.296
14045TIP3    H242013   0.375   4.396   5.171
14046TIP3   OH242014   4.698   6.091   2.727
14046TIP3    H142015   4.608   6.084   2.760
14046TIP3    H242016   4.688   6.089   2.631
14047TIP3   OH242017   0.407   3.481   6.804
14047TIP3    H142018   0.412   3.505   6.712
14047TIP3    H242019   0.492   3.441   6.824
14048TIP3   OH242020   3.092   5.269   3.690
14048TIP3    H142021   3.037   5.234   3.620
14048TIP3    H242022   3.059   5.357   3.704
14049TIP3   OH242023   1.580   4.868   4.351
14049TIP3    H142024   1.630   4.950   4.348
14049TIP3    H242025   1.557   4.851   4.259
14050TIP3   OH242026   0.654   0.139   3.169
14050TIP3    H142027   0.618   0.095   3.246
14050TIP3    H242028   0.744   0.161   3.193
14051TIP3   OH242029   0.388   3.995   4.197
14051TIP3    H142030   0.349   3.980   4.283
14051TIP3    H242031   0.342   4.071   4.162
14052TIP3   OH242032   8.753   1.041   1.735
14052TIP3    H142033   8.801   1.029   1.817
14052TIP3    H242034   8.762   1.134   1.715
14053TIP3   OH242035   0.942   8.095   1.962
14053TIP3    H142036   0.888   8.170   1.987
14053TIP3    H242037   0.894   8.019   1.995
14054TIP3   OH242038   4.492   2.280   2.513
14054TIP3    H142039   4.408   2.313   2.546
14054TIP3    H242040   4.508   2.201   2.564
14055TIP3   OH242041   3.324   6.426   3.155
14055TIP3    H142042   3.250   6.382   3.113
14055TIP3    H242043   3.315   6.518   3.130
14056TIP3   OH242044   3.888   5.785   0.412
14056TIP3    H142045   3.897   5.756   0.503
14056TIP3    H242046   3.798   5.763   0.389
14057TIP3   OH242047   0.405   1.013   4.363
14057TIP3    H142048   0.438   1.040   4.449
14057TIP3    H242049   0.353   0.935   4.381
14058TIP3   OH242050   8.495   0.118   0.623
14058TIP3    H142051   8.498   0.149   0.532
14058TIP3    H242052   8.415   0.067   0.628
14059TIP3   OH242053   8.367   6.892   7.414
14059TIP3    H142054   8.451   6.866   7.376
14059TIP3    H242055   8.331   6.810   7.449
14060TIP3   OH242056   4.957   4.216   7.264
14060TIP3    H142057   4.965   4.265   7.346
14060TIP3    H242058   5.047   4.192   7.241
14061TIP3   OH242059   6.661   5.434   5.049
14061TIP3    H142060   6.744   5.482   5.039
14061TIP3    H242061   6.603   5.474   4.985
14062TIP3   OH242062   7.601   5.358   4.506
14062TIP3    H142063   7.682   5.316   4.475
14062TIP3    H242064   7.619   5.377   4.598
14063TIP3   OH242065   6.514   0.092   5.781
14063TIP3    H142066   6.590   0.139   5.747
14063TIP3    H242067   6.551   0.014   5.823
14064TIP3   OH242068   6.213   7.452   1.684
14064TIP3    H142069   6.242   7.410   1.603
14064TIP3    H242070   6.265   7.412   1.753
14065TIP3   OH242071   6.484   1.655   1.768
14065TIP3    H142072   6.523   1.579   1.810
14065TIP3    H242073   6.554   1.720   1.765
14066TIP3   OH242074   6.745   4.024   6.856
14066TIP3    H142075   6.761   3.935   6.824
14066TIP3    H242076   6.819   4.042   6.914
14067TIP3   OH242077   5.548   3.124   0.268
14067TIP3    H142078   5.575   3.045   0.315
14067TIP3    H242079   5.452   3.124   0.275
14068TIP3   OH242080   1.572   7.569   0.812
14068TIP3    H142081   1.658   7.588   0.848
14068TIP3    H242082   1.588   7.546   0.720
14069TIP3   OH242083   6.197   4.843   2.022
14069TIP3    H142084   6.162   4.931   2.009
14069TIP3    H242085   6.222   4.841   2.115
14070TIP3   OH242086   6.305   5.855   6.406
14070TIP3    H142087   6.361   5.778   6.415
14070TIP3    H242088   6.361   5.928   6.429
14071TIP3   OH242089   6.931   8.648   3.441
14071TIP3    H142090   6.937   8.743   3.442
14071TIP3    H242091   6.851   8.628   3.490
14072TIP3   OH242092   3.539   7.773   3.925
14072TIP3    H142093   3.610   7.751   3.986
14072TIP3    H242094   3.580   7.830   3.860
14073TIP3   OH242095   0.526   1.732   1.377
14073TIP3    H142096   0.611   1.691   1.361
14073TIP3    H242097   0.482   1.731   1.292
14074TIP3   OH242098   8.249   2.758   6.543
14074TIP3    H142099   8.195   2.816   6.597
14074TIP3    H242100   8.337   2.769   6.578
14075TIP3   OH242101   2.993   0.080   1.157
14075TIP3    H142102   2.918   0.138   1.145
14075TIP3    H242103   2.957  -0.008   1.147
14076TIP3   OH242104   6.816   2.166   6.198
14076TIP3    H142105   6.812   2.256   6.229
14076TIP3    H242106   6.761   2.165   6.120
14077TIP3   OH242107   9.558   5.152   0.489
14077TIP3    H142108   9.477   5.196   0.514
14077TIP3    H242109   9.618   5.223   0.467
14078TIP3   OH242110   0.903   2.079   0.698
14078TIP3    H142111   0.844   2.154   0.705
14078TIP3    H242112   0.974   2.109   0.642
14079TIP3   OH242113   3.483   8.661   2.762
14079TIP3    H142114   3.567   8.615   2.757
14079TIP3    H242115   3.481   8.699   2.850
14080TIP3   OH242116   8.039   2.544   5.131
14080TIP3    H142117   8.015   2.469   5.076
14080TIP3    H242118   7.958   2.566   5.177
14081TIP3   OH242119   4.960   3.009   0.831
14081TIP3    H142120   4.930   2.964   0.910
14081TIP3    H242121   4.881   3.051   0.796
14082TIP3   OH242122   5.358   5.387   4.342
14082TIP3    H142123   5.398   5.423   4.263
14082TIP3    H242124   5.410   5.309   4.361
14083TIP3   OH242125   4.720   0.149   3.735
14083TIP3    H142126   4.757   0.134   3.822
14083TIP3    H242127   4.689   0.239   3.737
14084TIP3   OH242128   4.170   5.479   0.057
14084TIP3    H142129   4.149   5.539  -0.015
14084TIP3    H242130   4.238   5.524   0.106
14085TIP3   OH242131   0.235   6.375   0.555
14085TIP3    H142132   0.209   6.292   0.593
14085TIP3    H242133   0.177   6.386   0.479
14086TIP3   OH242134   0.583   4.718   3.069
14086TIP3    H142135   0.510   4.718   3.130
14086TIP3    H242136   0.554   4.775   2.997
14087TIP3   OH242137   0.122   8.671   1.115
14087TIP3    H142138   0.131   8.714   1.030
14087TIP3    H242139   0.088   8.740   1.172
14088TIP3   OH242140   0.053   1.285   7.757
14088TIP3    H142141   0.018   1.336   7.684
14088TIP3    H242142   0.148   1.299   7.753
14089TIP3   OH242143   4.036   3.382   6.985
14089TIP3    H142144   4.032   3.430   6.902
14089TIP3    H242145   4.068   3.295   6.960
14090TIP3   OH242146   1.426   0.490   2.288
14090TIP3    H142147   1.431   0.407   2.241
14090TIP3    H242148   1.447   0.556   2.222
14091TIP3   OH242149   0.425   2.218   6.826
14091TIP3    H142150   0.469   2.135   6.807
14091TIP3    H242151   0.465   2.248   6.908
14092TIP3   OH242152   2.062   4.393   3.430
14092TIP3    H142153   1.983   4.340   3.441
14092TIP3    H242154   2.131   4.329   3.411
14093TIP3   OH242155   5.486   3.528   4.427
14093TIP3    H142156   5.393   3.551   4.429
14093TIP3    H242157   5.522   3.580   4.355
14094TIP3   OH242158   0.747   8.638   2.492
14094TIP3    H142159   0.663   8.667   2.528
14094TIP3    H242160   0.799   8.718   2.484
14095TIP3   OH242161   8.038   0.963   2.259
14095TIP3    H142162   8.027   0.878   2.217
14095TIP3    H242163   7.955   1.009   2.242
14096TIP3   OH242164   2.908   7.451   1.593
14096TIP3    H142165   2.961   7.513   1.544
14096TIP3    H242166   2.966   7.377   1.610
14097TIP3   OH242167   4.982   5.169   6.699
14097TIP3    H142168   5.055   5.166   6.760
14097TIP3    H242169   4.917   5.225   6.741
14098TIP3   OH242170   7.212   6.112   7.086
14098TIP3    H142171   7.196   6.178   7.017
14098TIP3    H242172   7.179   6.153   7.166
14099TIP3   OH242173   0.777   8.000   5.308
14099TIP3    H142174   0.705   8.029   5.253
14099TIP3    H242175   0.742   8.000   5.397
14100TIP3   OH242176   6.542   4.177   2.490
14100TIP3    H142177   6.569   4.097   2.536
14100TIP3    H242178   6.532   4.242   2.559
14101TIP3   OH242179   0.496   4.155   7.165
14101TIP3    H142180   0.480   4.169   7.258
14101TIP3    H242181   0.492   4.060   7.154
14102TIP3   OH242182   5.672   0.719   5.116
14102TIP3    H142183   5.592   0.772   5.123
14102TIP3    H242184   5.743   0.781   5.129
14103TIP3   OH242185   8.050   6.032   6.708
14103TIP3    H142186   8.110   6.096   6.746
14103TIP3    H242187   8.074   6.028   6.615
14104TIP3   OH242188   7.418   3.720   5.886
14104TIP3    H142189   7.330   3.735   5.919
14104TIP3    H242190   7.469   3.696   5.963
14105TIP3   OH242191   8.676   0.365   4.371
14105TIP3    H142192   8.771   0.353   4.358
14105TIP3    H242193   8.661   0.458   4.354
14106TIP3   OH242194   6.155   0.514   5.202
14106TIP3    H142195   6.084   0.561   5.247
14106TIP3    H242196   6.116   0.430   5.178
14107TIP3   OH242197   2.367   0.083   1.988
14107TIP3    H142198   2.369  -0.011   1.967
14107TIP3    H242199   2.459   0.107   1.997
14108TIP3   OH242200   7.325   5.011   6.179
14108TIP3    H142201   7.322   4.964   6.097
14108TIP3    H242202   7.413   4.996   6.213
14109TIP3   OH242203   7.197   2.465   7.033
14109TIP3    H142204   7.284   2.505   7.026
14109TIP3    H242205   7.211   2.373   7.008
14110TIP3   OH242206   7.426   5.973   3.269
14110TIP3    H142207   7.472   5.901   3.314
14110TIP3    H242208   7.348   5.988   3.322
14111TIP3   OH242209   4.924   2.414   0.810
14111TIP3    H142210   4.987   2.485   0.797
14111TIP3    H242211   4.840   2.457   0.822
14112TIP3   OH242212   6.918   7.842   2.496
14112TIP3    H142213   6.937   7.803   2.410
14112TIP3    H242214   6.988   7.811   2.553
14113TIP3   OH242215   0.773   8.255   2.817
14113TIP3    H142216   0.709   8.188   2.796
14113TIP3    H242217   0.837   8.211   2.873
14114TIP3   OH242218   9.291   4.471   3.266
14114TIP3    H142219   9.267   4.451   3.175
14114TIP3    H242220   9.379   4.433   3.276
14115TIP3   OH242221   2.204   0.471   3.872
14115TIP3    H142222   2.196   0.567   3.872
14115TIP3    H242223   2.289   0.454   3.912
14116TIP3   OH242224   7.001   0.050   0.137
14116TIP3    H142225   6.920   0.067   0.185
14116TIP3    H242226   7.011   0.125   0.079
14117TIP3   OH242227   4.860   3.622   4.894
14117TIP3    H142228   4.955   3.616   4.893
14117TIP3    H242229   4.843   3.716   4.906
14118TIP3   OH242230   3.909   1.477   1.250
14118TIP3    H142231   3.865   1.405   1.205
14118TIP3    H242232   3.878   1.470   1.341
14119TIP3   OH242233   4.928   8.957   5.580
14119TIP3    H142234   4.856   9.020   5.577
14119TIP3    H242235   4.902   8.888   5.519
14120TIP3   OH242236   5.481   0.440   4.331
14120TIP3    H142237   5.465   0.352   4.296
14120TIP3    H242238   5.438   0.439   4.417
14121TIP3   OH242239   3.175   6.360   4.148
14121TIP3    H142240   3.261   6.328   4.175
14121TIP3    H242241   3.194   6.426   4.082
14122TIP3   OH242242   1.130   1.906   2.793
14122TIP3    H142243   1.185   1.979   2.765
14122TIP3    H242244   1.118   1.854   2.714
14123TIP3   OH242245   9.016   0.555   4.945
14123TIP3    H142246   8.995   0.645   4.971
14123TIP3    H242247   8.940   0.504   4.972
14124TIP3   OH242248   8.327   7.264   0.771
14124TIP3    H142249   8.364   7.335   0.719
14124TIP3    H242250   8.326   7.299   0.861
14125TIP3   OH242251   9.132   2.319   7.696
14125TIP3    H142252   9.067   2.358   7.637
14125TIP3    H242253   9.160   2.239   7.651
14126TIP3   OH242254   9.203   3.869   0.873
14126TIP3    H142255   9.231   3.915   0.952
14126TIP3    H242256   9.284   3.833   0.836
14127TIP3   OH242257   7.499   8.602   6.384
14127TIP3    H142258   7.497   8.697   6.382
14127TIP3    H242259   7.461   8.575   6.300
14128TIP3   OH242260   9.339   8.285   4.111
14128TIP3    H142261   9.382   8.207   4.074
14128TIP3    H242262   9.246   8.271   4.094
14129TIP3   OH242263   7.648   4.886   2.719
14129TIP3    H142264   7.686   4.959   2.670
14129TIP3    H242265   7.638   4.920   2.808
14130TIP3   OH242266   7.861   3.214   3.468
14130TIP3    H142267   7.835   3.166   3.389
14130TIP3    H242268   7.829   3.161   3.540
14131TIP3   OH242269   0.528   5.454   5.399
14131TIP3    H142270   0.542   5.376   5.346
14131TIP3    H242271   0.482   5.423   5.477
14132TIP3   OH242272   8.412   4.520   4.379
14132TIP3    H142273   8.376   4.549   4.295
14132TIP3    H242274   8.468   4.592   4.407
14133TIP3   OH242275   1.187   8.832   7.478
14133TIP3    H142276   1.136   8.755   7.451
14133TIP3    H242277   1.256   8.840   7.411
14134TIP3   OH242278   1.415   5.885   1.990
14134TIP3    H142279   1.403   5.909   1.898
14134TIP3    H242280   1.379   5.796   1.997
14135TIP3   OH242281   8.791   4.533   7.749
14135TIP3    H142282   8.878   4.512   7.783
14135TIP3    H242283   8.773   4.465   7.684
14136TIP3   OH242284   6.575   5.491   6.213
14136TIP3    H142285   6.539   5.450   6.135
14136TIP3    H242286   6.663   5.454   6.221
14137TIP3   OH242287   4.754   4.783   5.784
14137TIP3    H142288   4.715   4.846   5.845
14137TIP3    H242289   4.848   4.793   5.797
14138TIP3   OH242290   4.936   4.074   1.915
14138TIP3    H142291   4.992   4.145   1.884
14138TIP3    H242292   4.997   4.004   1.939
14139TIP3   OH242293   5.940   3.834   7.065
14139TIP3    H142294   5.871   3.767   7.062
14139TIP3    H242295   5.941   3.864   7.156
14140TIP3   OH242296   5.164   2.130   3.923
14140TIP3    H142297   5.211   2.211   3.939
14140TIP3    H242298   5.221   2.061   3.957
14141TIP3   OH242299   5.046   4.231   2.795
14141TIP3    H142300   5.066   4.271   2.880
14141TIP3    H242301   4.996   4.299   2.749
14142TIP3   OH242302   7.650   5.025   5.462
14142TIP3    H142303   7.594   5.006   5.537
14142TIP3    H242304   7.734   5.050   5.501
14143TIP3   OH242305   3.423   4.390   0.584
14143TIP3    H142306   3.405   4.298   0.601
14143TIP3    H242307   3.358   4.416   0.518
14144TIP3   OH242308   8.630   1.721   2.770
14144TIP3    H142309   8.702   1.711   2.833
14144TIP3    H242310   8.584   1.800   2.799
14145TIP3   OH242311   7.564   4.214   6.416
14145TIP3    H142312   7.542   4.307   6.411
14145TIP3    H242313   7.630   4.208   6.485
14146TIP3   OH242314   3.441   3.768   4.885
14146TIP3    H142315   3.485   3.829   4.945
14146TIP3    H242316   3.478   3.683   4.906
14147TIP3   OH242317   4.566   7.409   3.721
14147TIP3    H142318   4.660   7.390   3.720
14147TIP3    H242319   4.526   7.329   3.756
14148TIP3   OH242320   2.331   1.404   5.387
14148TIP3    H142321   2.346   1.467   5.458
14148TIP3    H242322   2.282   1.453   5.321
14149TIP3   OH242323   7.596   3.691   3.755
14149TIP3    H142324   7.507   3.721   3.735
14149TIP3    H242325   7.636   3.764   3.802
14150TIP3   OH242326   1.993   4.538   0.661
14150TIP3    H142327   1.964   4.463   0.609
14150TIP3    H242328   1.976   4.614   0.605
14151TIP3   OH242329   5.851   6.828   2.938
14151TIP3    H142330   5.854   6.741   2.901
14151TIP3    H242331   5.758   6.843   2.957
14152TIP3   OH242332   6.972   0.495   3.416
14152TIP3    H142333   6.890   0.492   3.465
14152TIP3    H242334   7.024   0.563   3.459
14153TIP3   OH242335   5.462   6.548   3.330
14153TIP3    H142336   5.521   6.574   3.260
14153TIP3    H242337   5.516   6.544   3.408
14154TIP3   OH242338   1.440   2.405   4.170
14154TIP3    H142339   1.351   2.441   4.176
14154TIP3    H242340   1.449   2.379   4.079
14155TIP3   OH242341   2.893   8.032   6.458
14155TIP3    H142342   2.880   8.012   6.551
14155TIP3    H242343   2.978   8.076   6.455
14156TIP3   OH242344   0.673   0.778   2.171
14156TIP3    H142345   0.764   0.807   2.162
14156TIP3    H242346   0.623   0.839   2.118
14157TIP3   OH242347   8.013   6.324   0.681
14157TIP3    H142348   8.055   6.291   0.602
14157TIP3    H242349   8.076   6.386   0.717
14158TIP3   OH242350   5.798   1.054   6.246
14158TIP3    H142351   5.831   0.979   6.295
14158TIP3    H242352   5.824   1.037   6.156
14159TIP3   OH242353   6.994   8.395   4.819
14159TIP3    H142354   7.016   8.302   4.820
14159TIP3    H242355   6.916   8.402   4.874
14160TIP3   OH242356   2.480   1.606   6.053
14160TIP3    H142357   2.435   1.531   6.015
14160TIP3    H242358   2.410   1.669   6.072
14161TIP3   OH242359   5.349   2.532   1.846
14161TIP3    H142360   5.269   2.481   1.835
14161TIP3    H242361   5.373   2.558   1.758
14162TIP3   OH242362   4.142   2.078   1.810
14162TIP3    H142363   4.215   2.090   1.750
14162TIP3    H242364   4.179   2.033   1.885
14163TIP3   OH242365   8.657   1.613   4.532
14163TIP3    H142366   8.662   1.567   4.616
14163TIP3    H242367   8.702   1.555   4.471
14164TIP3   OH242368   6.470   8.378   6.088
14164TIP3    H142369   6.496   8.427   6.166
14164TIP3    H242370   6.382   8.411   6.068
14165TIP3   OH242371   8.160   2.672   0.305
14165TIP3    H142372   8.252   2.645   0.301
14165TIP3    H242373   8.125   2.654   0.218
14166TIP3   OH242374   0.462   0.007   7.315
14166TIP3    H142375   0.469   0.098   7.343
14166TIP3    H242376   0.381   0.003   7.264
14167TIP3   OH242377   5.625   7.110   1.986
14167TIP3    H142378   5.650   7.034   1.933
14167TIP3    H242379   5.695   7.118   2.050
14168TIP3   OH242380   0.123   8.061   5.046
14168TIP3    H142381   0.028   8.070   5.033
14168TIP3    H242382   0.140   7.969   5.030
14169TIP3   OH242383   6.770   5.122   3.986
14169TIP3    H142384   6.791   5.070   4.064
14169TIP3    H242385   6.757   5.058   3.917
14170TIP3   OH242386   3.950   7.214   1.103
14170TIP3    H142387   4.014   7.170   1.046
14170TIP3    H242388   3.994   7.220   1.187
14171TIP3   OH242389   3.218   4.499   7.759
14171TIP3    H142390   3.139   4.534   7.716
14171TIP3    H242391   3.228   4.411   7.723
14172TIP3   OH242392   3.049   6.400   0.969
14172TIP3    H142393   3.019   6.407   0.879
14172TIP3    H242394   3.031   6.486   1.007
14173TIP3   OH242395   2.584   5.222   7.216
14173TIP3    H142396   2.672   5.186   7.230
14173TIP3    H242397   2.536   5.202   7.296
14174TIP3   OH242398   6.922   4.303   1.860
14174TIP3    H142399   6.840   4.284   1.815
14174TIP3    H242400   6.953   4.218   1.890
14175TIP3   OH242401   1.630   8.241   2.409
14175TIP3    H142402   1.584   8.281   2.482
14175TIP3    H242403   1.569   8.175   2.376
14176TIP3   OH242404   7.552   5.037   0.192
14176TIP3    H142405   7.534   4.968   0.128
14176TIP3    H242406   7.466   5.072   0.215
14177TIP3   OH242407   6.362   0.286   2.378
14177TIP3    H142408   6.404   0.354   2.430
14177TIP3    H242409   6.282   0.265   2.427
14178TIP3   OH242410   4.614   6.458   6.639
14178TIP3    H142411   4.594   6.524   6.705
14178TIP3    H242412   4.603   6.374   6.684
14179TIP3   OH242413   8.828   8.555   7.352
14179TIP3    H142414   8.913   8.555   7.309
14179TIP3    H242415   8.817   8.645   7.384
14180TIP3   OH242416   7.950   4.748   1.811
14180TIP3    H142417   7.889   4.817   1.838
14180TIP3    H242418   7.913   4.713   1.730
14181TIP3   OH242419   1.464   7.573   7.050
14181TIP3    H142420   1.514   7.569   7.132
14181TIP3    H242421   1.531   7.570   6.982
14182TIP3   OH242422   1.068   4.472   1.073
14182TIP3    H142423   1.067   4.514   1.159
14182TIP3    H242424   0.977   4.471   1.046
14183TIP3   OH242425   7.770   6.576   7.173
14183TIP3    H142426   7.680   6.542   7.171
14183TIP3    H242427   7.779   6.614   7.260
14184TIP3   OH242428   7.958   7.783   0.598
14184TIP3    H142429   8.024   7.829   0.650
14184TIP3    H242430   7.999   7.699   0.577
14185TIP3   OH242431   6.037   1.595   0.836
14185TIP3    H142432   6.116   1.612   0.887
14185TIP3    H242433   6.054   1.634   0.751
14186TIP3   OH242434   7.427   8.709   2.507
14186TIP3    H142435   7.476   8.709   2.425
14186TIP3    H242436   7.457   8.631   2.553
14187TIP3   OH242437   5.282   7.830   6.106
14187TIP3    H142438   5.326   7.871   6.032
14187TIP3    H242439   5.212   7.891   6.129
14188TIP3   OH242440   8.161   2.483   1.564
14188TIP3    H142441   8.222   2.458   1.495
14188TIP3    H242442   8.161   2.579   1.563
14189TIP3   OH242443   8.535   7.143   2.714
14189TIP3    H142444   8.552   7.072   2.652
14189TIP3    H242445   8.498   7.213   2.661
14190TIP3   OH242446   8.605   8.816   6.198
14190TIP3    H142447   8.548   8.751   6.156
14190TIP3    H242448   8.625   8.779   6.284
14191TIP3   OH242449   4.387   0.643   5.759
14191TIP3    H142450   4.311   0.679   5.805
14191TIP3    H242451   4.367   0.549   5.750
14192TIP3   OH242452   7.910   0.086   7.656
14192TIP3    H142453   7.942   0.007   7.611
14192TIP3    H242454   7.985   0.114   7.709
14193TIP3   OH242455   8.931   8.554   4.096
14193TIP3    H142456   8.901   8.464   4.086
14193TIP3    H242457   8.852   8.604   4.118
14194TIP3   OH242458   0.055   6.229   4.876
14194TIP3    H142459   0.053   6.150   4.822
14194TIP3    H242460   0.139   6.270   4.854
14195TIP3   OH242461   9.286   5.652   4.147
14195TIP3    H142462   9.318   5.735   4.113
14195TIP3    H242463   9.234   5.675   4.223
14196TIP3   OH242464   2.902   2.439   7.578
14196TIP3    H142465   2.945   2.370   7.629
14196TIP3    H242466   2.953   2.518   7.597
14197TIP3   OH242467   8.222   2.096   2.667
14197TIP3    H142468   8.188   2.185   2.658
14197TIP3    H242469   8.297   2.104   2.726
14198TIP3   OH242470   5.572   7.976   1.434
14198TIP3    H142471   5.658   7.999   1.467
14198TIP3    H242472   5.514   8.043   1.469
14199TIP3   OH242473   3.323   5.695   5.282
14199TIP3    H142474   3.404   5.738   5.310
14199TIP3    H242475   3.327   5.608   5.321
14200TIP3   OH242476   1.051   8.068   3.816
14200TIP3    H142477   1.079   8.012   3.744
14200TIP3    H242478   1.037   8.154   3.775
14201TIP3   OH242479   4.909   7.337   6.904
14201TIP3    H142480   4.887   7.359   6.814
14201TIP3    H242481   4.828   7.300   6.940
14202TIP3   OH242482   1.582   3.041   6.940
14202TIP3    H142483   1.535   3.010   7.018
14202TIP3    H242484   1.609   2.961   6.895
14203TIP3   OH242485   3.603   8.769   4.804
14203TIP3    H142486   3.629   8.744   4.893
14203TIP3    H242487   3.680   8.749   4.751
14204TIP3   OH242488   4.318   5.396   2.325
14204TIP3    H142489   4.365   5.403   2.408
14204TIP3    H242490   4.352   5.317   2.284
14205TIP3   OH242491   5.308   7.307   1.869
14205TIP3    H142492   5.374   7.252   1.826
14205TIP3    H242493   5.226   7.284   1.826
14206TIP3   OH242494   6.046   6.379   7.657
14206TIP3    H142495   5.994   6.353   7.581
14206TIP3    H242496   6.075   6.296   7.695
14207TIP3   OH242497   8.197   0.390   2.076
14207TIP3    H142498   8.217   0.475   2.114
14207TIP3    H242499   8.101   0.384   2.080
14208TIP3   OH242500   8.140   5.278   4.391
14208TIP3    H142501   8.118   5.368   4.367
14208TIP3    H242502   8.154   5.233   4.308
14209TIP3   OH242503   1.096   1.849   0.437
14209TIP3    H142504   1.055   1.803   0.363
14209TIP3    H242505   1.139   1.779   0.487
14210TIP3   OH242506   9.284   5.668   5.450
14210TIP3    H142507   9.313   5.612   5.377
14210TIP3    H242508   9.224   5.612   5.500
14211TIP3   OH242509   6.937   5.368   2.809
14211TIP3    H142510   7.001   5.410   2.866
14211TIP3    H242511   6.852   5.394   2.845
14212TIP3   OH242512   3.478   8.745   3.042
14212TIP3    H142513   3.545   8.705   3.098
14212TIP3    H242514   3.405   8.764   3.101
14213TIP3   OH242515   3.931   4.097   6.932
14213TIP3    H142516   3.879   4.072   6.855
14213TIP3    H242517   3.951   4.190   6.918
14214TIP3   OH242518   8.964   6.956   4.813
14214TIP3    H142519   8.884   6.991   4.774
14214TIP3    H242520   8.976   6.871   4.769
14215TIP3   OH242521   9.177   6.486   1.519
14215TIP3    H142522   9.228   6.408   1.540
14215TIP3    H242523   9.242   6.548   1.485
14216TIP3   OH242524   3.794   1.250   4.044
14216TIP3    H142525   3.783   1.191   3.969
14216TIP3    H242526   3.819   1.334   4.004
14217TIP3   OH242527   0.420   4.195   1.617
14217TIP3    H142528   0.492   4.233   1.568
14217TIP3    H242529   0.374   4.270   1.655
14218TIP3   OH242530   7.993   0.733   2.143
14218TIP3    H142531   7.955   0.656   2.183
14218TIP3    H242532   7.993   0.715   2.049
14219TIP3   OH242533   8.808   5.509   3.076
14219TIP3    H142534   8.762   5.575   3.129
14219TIP3    H242535   8.827   5.438   3.137
14220TIP3   OH242536   0.726   1.999   7.732
14220TIP3    H142537   0.639   2.014   7.694
14220TIP3    H242538   0.765   2.085   7.737
14221TIP3   OH242539   8.600   2.883   1.551
14221TIP3    H142540   8.657   2.806   1.551
14221TIP3    H242541   8.570   2.891   1.641
14222TIP3   OH242542   5.985   2.772   2.978
14222TIP3    H142543   6.070   2.729   2.962
14222TIP3    H242544   5.925   2.728   2.918
14223TIP3   OH242545   2.810   0.729   6.106
14223TIP3    H142546   2.777   0.790   6.040
14223TIP3    H242547   2.749   0.656   6.105
14224TIP3   OH242548   1.748   3.267   6.570
14224TIP3    H142549   1.789   3.300   6.650
14224TIP3    H242550   1.665   3.230   6.599
14225TIP3   OH242551   8.794   7.797   6.177
14225TIP3    H142552   8.876   7.755   6.201
14225TIP3    H242553   8.797   7.805   6.082
14226TIP3   OH242554   5.074   7.084   4.395
14226TIP3    H142555   5.070   7.079   4.300
14226TIP3    H242556   5.010   7.019   4.425
14227TIP3   OH242557   5.553   0.714   2.434
14227TIP3    H142558   5.556   0.734   2.528
14227TIP3    H242559   5.645   0.697   2.411
14228TIP3   OH242560   7.913   5.572   3.299
14228TIP3    H142561   7.990   5.545   3.249
14228TIP3    H242562   7.946   5.629   3.367
14229TIP3   OH242563   8.248   8.599   5.472
14229TIP3    H142564   8.304   8.597   5.394
14229TIP3    H242565   8.170   8.646   5.444
14230TIP3   OH242566   7.250   0.197   0.756
14230TIP3    H142567   7.334   0.199   0.710
14230TIP3    H242568   7.188   0.233   0.693
14231TIP3   OH242569   6.230   1.470   3.539
14231TIP3    H142570   6.313   1.461   3.586
14231TIP3    H242571   6.164   1.464   3.608
14232TIP3   OH242572   5.547   3.627   6.787
14232TIP3    H142573   5.630   3.630   6.740
14232TIP3    H242574   5.563   3.676   6.868
14233TIP3   OH242575   0.569   5.968   3.245
14233TIP3    H142576   0.602   5.994   3.159
14233TIP3    H242577   0.642   5.922   3.286
14234TIP3   OH242578   1.209   7.242   7.726
14234TIP3    H142579   1.171   7.204   7.806
14234TIP3    H242580   1.280   7.299   7.757
14235TIP3   OH242581   4.290   5.511   6.420
14235TIP3    H142582   4.244   5.438   6.380
14235TIP3    H242583   4.381   5.499   6.394
14236TIP3   OH242584   2.798   0.276   2.650
14236TIP3    H142585   2.782   0.199   2.706
14236TIP3    H242586   2.846   0.241   2.575
14237TIP3   OH242587   9.491   1.970   2.862
14237TIP3    H142588   9.482   2.065   2.873
14237TIP3    H242589   9.565   1.947   2.918
14238TIP3   OH242590   6.353   0.405   2.135
14238TIP3    H142591   6.331   0.365   2.219
14238TIP3    H242592   6.440   0.371   2.114
14239TIP3   OH242593   7.057   7.406   7.687
14239TIP3    H142594   7.070   7.483   7.742
14239TIP3    H242595   7.146   7.378   7.664
14240TIP3   OH242596   6.739   0.151   3.154
14240TIP3    H142597   6.714   0.243   3.154
14240TIP3    H242598   6.767   0.132   3.065
14241TIP3   OH242599   4.158   6.504   6.085
14241TIP3    H142600   4.064   6.521   6.084
14241TIP3    H242601   4.175   6.454   6.005
14242TIP3   OH242602   3.567   2.198   1.812
14242TIP3    H142603   3.542   2.279   1.855
14242TIP3    H242604   3.594   2.140   1.884
14243TIP3   OH242605   8.762   2.389   7.356
14243TIP3    H142606   8.669   2.396   7.376
14243TIP3    H242607   8.767   2.336   7.277
14244TIP3   OH242608   4.607   0.705   0.136
14244TIP3    H142609   4.609   0.783   0.081
14244TIP3    H242610   4.684   0.655   0.108
14245TIP3   OH242611   5.996   6.744   7.359
14245TIP3    H142612   5.909   6.711   7.339
14245TIP3    H242613   6.024   6.696   7.437
14246TIP3   OH242614   1.447   2.205   5.096
14246TIP3    H142615   1.434   2.274   5.160
14246TIP3    H242616   1.439   2.250   5.011
14247TIP3   OH242617   8.136   0.373   7.022
14247TIP3    H142618   8.111   0.462   6.996
14247TIP3    H242619   8.222   0.360   6.982
14248TIP3   OH242620   3.993   5.472   1.663
14248TIP3    H142621   3.999   5.385   1.703
14248TIP3    H242622   4.083   5.505   1.663
14249TIP3   OH242623   5.246   6.056   0.242
14249TIP3    H142624   5.236   6.150   0.259
14249TIP3    H242625   5.224   6.047   0.149
14250TIP3   OH242626   9.134   8.360   5.514
14250TIP3    H142627   9.220   8.330   5.543
14250TIP3    H242628   9.089   8.281   5.486
14251TIP3   OH242629   5.229   2.357   5.655
14251TIP3    H142630   5.191   2.269   5.655
14251TIP3    H242631   5.309   2.349   5.603
14252TIP3   OH242632   1.256   1.856   2.032
14252TIP3    H142633   1.221   1.904   1.958
14252TIP3    H242634   1.307   1.921   2.081
14253TIP3   OH242635   9.255   5.093   0.252
14253TIP3    H142636   9.262   5.137   0.337
14253TIP3    H242637   9.346   5.077   0.226
14254TIP3   OH242638   7.581   1.019   7.382
14254TIP3    H142639   7.551   1.014   7.473
14254TIP3    H242640   7.645   1.090   7.381
14255TIP3   OH242641   2.778   4.649   0.457
14255TIP3    H142642   2.726   4.593   0.514
14255TIP3    H242643   2.828   4.705   0.517
14256TIP3   OH242644   3.842   2.349   6.138
14256TIP3    H142645   3.841   2.388   6.226
14256TIP3    H242646   3.781   2.402   6.088
14257TIP3   OH242647   4.354   5.117   6.612
14257TIP3    H142648   4.319   5.057   6.547
14257TIP3    H242649   4.299   5.194   6.607
14258TIP3   OH242650   4.129   0.570   7.355
14258TIP3    H142651   4.146   0.482   7.322
14258TIP3    H242652   4.096   0.556   7.444
14259TIP3   OH242653   2.708   2.554   1.888
14259TIP3    H142654   2.771   2.608   1.935
14259TIP3    H242655   2.738   2.554   1.797
14260TIP3   OH242656   1.620   8.234   1.864
14260TIP3    H142657   1.706   8.259   1.897
14260TIP3    H242658   1.610   8.283   1.783
14261TIP3   OH242659   3.139   0.124   3.446
14261TIP3    H142660   3.228   0.109   3.476
14261TIP3    H242661   3.145   0.203   3.392
14262TIP3   OH242662   8.600   1.923   5.582
14262TIP3    H142663   8.595   2.014   5.554
14262TIP3    H242664   8.521   1.882   5.546
14263TIP3   OH242665   5.162   4.491   6.031
14263TIP3    H142666   5.199   4.521   5.948
14263TIP3    H242667   5.174   4.565   6.091
14264TIP3   OH242668   5.414   7.026   7.017
14264TIP3    H142669   5.361   6.981   7.082
14264TIP3    H242670   5.352   7.072   6.962
14265TIP3   OH242671   6.266   7.751   5.532
14265TIP3    H142672   6.191   7.693   5.518
14265TIP3    H242673   6.341   7.692   5.539
14266TIP3   OH242674   3.090   2.176   3.651
14266TIP3    H142675   3.111   2.245   3.713
14266TIP3    H242676   3.036   2.219   3.584
14267TIP3   OH242677   5.663   3.637   0.843
14267TIP3    H142678   5.752   3.629   0.879
14267TIP3    H242679   5.651   3.558   0.791
14268TIP3   OH242680   7.429   6.547   3.149
14268TIP3    H142681   7.515   6.577   3.178
14268TIP3    H242682   7.381   6.530   3.230
14269TIP3   OH242683   6.785   3.121   7.402
14269TIP3    H142684   6.735   3.052   7.360
14269TIP3    H242685   6.834   3.077   7.471
14270TIP3   OH242686   6.538   6.940   0.115
14270TIP3    H142687   6.498   7.004   0.173
14270TIP3    H242688   6.500   6.959   0.029
14271TIP3   OH242689   6.278   3.683   3.216
14271TIP3    H142690   6.231   3.726   3.288
14271TIP3    H242691   6.297   3.595   3.249
14272TIP3   OH242692   6.563   8.408   5.709
14272TIP3    H142693   6.541   8.316   5.694
14272TIP3    H242694   6.480   8.449   5.734
14273TIP3   OH242695   8.753   0.599   6.239
14273TIP3    H142696   8.701   0.645   6.305
14273TIP3    H242697   8.692   0.538   6.198
14274TIP3   OH242698   5.928   1.243   7.044
14274TIP3    H142699   5.846   1.290   7.062
14274TIP3    H242700   5.954   1.273   6.957
14275TIP3   OH242701   3.929   3.637   4.055
14275TIP3    H142702   3.859   3.673   4.110
14275TIP3    H242703   3.899   3.549   4.033
14276TIP3   OH242704   6.289   6.963   2.015
14276TIP3    H142705   6.381   6.990   2.007
14276TIP3    H242706   6.272   6.964   2.110
14277TIP3   OH242707   9.009   3.255   6.996
14277TIP3    H142708   9.010   3.349   6.975
14277TIP3    H242709   9.093   3.240   7.040
14278TIP3   OH242710   4.848   1.456   0.401
14278TIP3    H142711   4.818   1.530   0.453
14278TIP3    H242712   4.832   1.379   0.456
14279TIP3   OH242713   3.387   2.136   3.332
14279TIP3    H142714   3.373   2.149   3.426
14279TIP3    H242715   3.482   2.142   3.321
14280TIP3   OH242716   4.223   4.000   3.086
14280TIP3    H142717   4.220   4.010   2.991
14280TIP3    H242718   4.227   3.906   3.100
14281TIP3   OH242719   6.646   1.826   6.349
14281TIP3    H142720   6.612   1.877   6.276
14281TIP3    H242721   6.621   1.736   6.329
14282TIP3   OH242722   5.866   0.362   4.211
14282TIP3    H142723   5.818   0.340   4.131
14282TIP3    H242724   5.879   0.279   4.255
14283TIP3   OH242725   2.319   7.942   5.016
14283TIP3    H142726   2.369   7.999   4.957
14283TIP3    H242727   2.242   7.994   5.039
14284TIP3   OH242728   7.219   8.388   7.193
14284TIP3    H142729   7.194   8.336   7.117
14284TIP3    H242730   7.278   8.455   7.159
14285TIP3   OH242731   6.656   1.738   2.008
14285TIP3    H142732   6.741   1.772   2.037
14285TIP3    H242733   6.642   1.660   2.061
14286TIP3   OH242734   6.022   4.194   1.028
14286TIP3    H142735   5.998   4.193   0.935
14286TIP3    H242736   5.973   4.121   1.067
14287TIP3   OH242737   7.506   7.733   2.587
14287TIP3    H142738   7.554   7.651   2.578
14287TIP3    H242739   7.414   7.709   2.576
14288TIP3   OH242740   0.547   2.576   3.567
14288TIP3    H142741   0.535   2.662   3.608
14288TIP3    H242742   0.638   2.554   3.586
14289TIP3   OH242743   7.234   7.212   5.501
14289TIP3    H142744   7.194   7.160   5.570
14289TIP3    H242745   7.162   7.233   5.441
14290TIP3   OH242746   8.665   8.056   4.724
14290TIP3    H142747   8.672   8.142   4.766
14290TIP3    H242748   8.662   8.076   4.630
14291TIP3   OH242749   8.486   4.914   4.817
14291TIP3    H142750   8.423   4.924   4.745
14291TIP3    H242751   8.520   4.826   4.808
14292TIP3   OH242752   0.431   2.688   0.535
14292TIP3    H142753   0.526   2.680   0.533
14292TIP3    H242754   0.413   2.748   0.607
14293TIP3   OH242755   5.591   4.749   0.616
14293TIP3    H142756   5.522   4.714   0.559
14293TIP3    H242757   5.596   4.842   0.593
14294TIP3   OH242758   4.144   7.670   5.634
14294TIP3    H142759   4.213   7.653   5.571
14294TIP3    H242760   4.177   7.635   5.717
14295TIP3   OH242761   3.442   5.082   5.527
14295TIP3    H142762   3.507   5.047   5.589
14295TIP3    H242763   3.365   5.098   5.581
14296TIP3   OH242764   3.475   0.032   7.259
14296TIP3    H142765   3.456  -0.041   7.201
14296TIP3    H242766   3.509  -0.009   7.339
14297TIP3   OH242767   9.254   6.284   6.062
14297TIP3    H142768   9.248   6.279   5.967
14297TIP3    H242769   9.313   6.357   6.079
14298TIP3   OH242770   5.699   4.029   6.291
14298TIP3    H142771   5.738   3.991   6.370
14298TIP3    H242772   5.617   4.068   6.321
14299TIP3   OH242773   3.171   2.241   1.409
14299TIP3    H142774   3.135   2.325   1.438
14299TIP3    H242775   3.156   2.182   1.483
14300TIP3   OH242776   2.686   7.151   7.613
14300TIP3    H142777   2.625   7.077   7.615
14300TIP3    H242778   2.708   7.161   7.521
14301TIP3   OH242779   3.332   6.689   6.205
14301TIP3    H142780   3.376   6.606   6.185
14301TIP3    H242781   3.276   6.668   6.280
14302TIP3   OH242782   4.590   2.343   5.522
14302TIP3    H142783   4.507   2.379   5.552
14302TIP3    H242784   4.579   2.248   5.529
14303TIP3   OH242785   9.188   3.464   4.217
14303TIP3    H142786   9.182   3.519   4.138
14303TIP3    H242787   9.098   3.453   4.245
14304TIP3   OH242788   1.860   0.106   2.711
14304TIP3    H142789   1.768   0.099   2.684
14304TIP3    H242790   1.908   0.054   2.646
14305TIP3   OH242791   1.754   1.698   4.878
14305TIP3    H142792   1.794   1.644   4.947
14305TIP3    H242793   1.668   1.720   4.913
14306TIP3   OH242794   6.455   8.026   1.483
14306TIP3    H142795   6.395   8.071   1.543
14306TIP3    H242796   6.399   7.975   1.426
14307TIP3   OH242797   2.383   2.925   4.298
14307TIP3    H142798   2.454   2.862   4.281
14307TIP3    H242799   2.318   2.875   4.347
14308TIP3   OH242800   2.229   4.612   2.931
14308TIP3    H142801   2.170   4.640   2.860
14308TIP3    H242802   2.180   4.544   2.977
14309TIP3   OH242803   7.739   6.758   7.369
14309TIP3    H142804   7.779   6.843   7.386
14309TIP3    H242805   7.711   6.727   7.455
14310TIP3   OH242806   9.017   7.956   6.436
14310TIP3    H142807   9.054   8.023   6.494
14310TIP3    H242808   9.060   7.972   6.352
14311TIP3   OH242809   0.662   2.651   1.056
14311TIP3    H142810   0.628   2.632   1.143
14311TIP3    H242811   0.634   2.578   1.002
14312TIP3   OH242812   0.719   7.985   3.239
14312TIP3    H142813   0.735   8.071   3.199
14312TIP3    H242814   0.746   7.997   3.330
14313TIP3   OH242815   6.854   8.268   5.775
14313TIP3    H142816   6.800   8.345   5.795
14313TIP3    H242817   6.832   8.245   5.685
14314TIP3   OH242818   2.682   2.549   2.691
14314TIP3    H142819   2.743   2.550   2.765
14314TIP3    H242820   2.618   2.482   2.714
14315TIP3   OH242821   4.917   0.135   3.140
14315TIP3    H142822   4.990   0.181   3.098
14315TIP3    H242823   4.844   0.197   3.135
14316TIP3   OH242824   3.471   2.562   5.542
14316TIP3    H142825   3.404   2.537   5.606
14316TIP3    H242826   3.421   2.587   5.464
14317TIP3   OH242827   7.502   3.893   2.207
14317TIP3    H142828   7.427   3.952   2.204
14317TIP3    H242829   7.516   3.877   2.300
14318TIP3   OH242830   6.088   8.513   7.162
14318TIP3    H142831   6.173   8.550   7.184
14318TIP3    H242832   6.107   8.449   7.093
14319TIP3   OH242833   6.396   8.942   6.350
14319TIP3    H142834   6.392   8.986   6.435
14319TIP3    H242835   6.343   8.863   6.361
14320TIP3   OH242836   0.118   2.834   3.360
14320TIP3    H142837   0.171   2.784   3.422
14320TIP3    H242838   0.052   2.877   3.414
14321TIP3   OH242839   1.600   3.276   3.489
14321TIP3    H142840   1.639   3.345   3.435
14321TIP3    H242841   1.618   3.195   3.441
14322TIP3   OH242842   7.359   8.237   4.668
14322TIP3    H142843   7.327   8.327   4.670
14322TIP3    H242844   7.312   8.193   4.738
14323TIP3   OH242845   0.774   5.488   1.067
14323TIP3    H142846   0.750   5.402   1.103
14323TIP3    H242847   0.862   5.475   1.032
14324TIP3   OH242848   8.108   0.316   1.439
14324TIP3    H142849   8.028   0.270   1.412
14324TIP3    H242850   8.108   0.309   1.534
14325TIP3   OH242851   6.958   8.872   1.314
14325TIP3    H142852   6.880   8.915   1.279
14325TIP3    H242853   7.026   8.939   1.310
14326TIP3   OH242854   8.958   6.855   2.661
14326TIP3    H142855   9.032   6.809   2.701
14326TIP3    H242856   8.898   6.786   2.636
14327TIP3   OH242857   1.585   3.198   0.551
14327TIP3    H142858   1.662   3.170   0.600
14327TIP3    H242859   1.564   3.285   0.587
14328TIP3   OH242860   5.862   4.876   7.663
14328TIP3    H142861   5.929   4.918   7.718
14328TIP3    H242862   5.908   4.855   7.582
14329TIP3   OH242863   7.127   3.025   6.078
14329TIP3    H142864   7.056   3.051   6.018
14329TIP3    H242865   7.170   3.108   6.101
14330TIP3   OH242866   4.820   0.978   5.457
14330TIP3    H142867   4.737   0.941   5.427
14330TIP3    H242868   4.820   1.068   5.424
14331TIP3   OH242869   8.659   0.632   4.288
14331TIP3    H142870   8.714   0.592   4.221
14331TIP3    H242871   8.632   0.715   4.249
14332TIP3   OH242872   5.681   2.561   7.665
14332TIP3    H142873   5.775   2.551   7.650
14332TIP3    H242874   5.672   2.651   7.696
14333TIP3   OH242875   6.873   5.134   2.683
14333TIP3    H142876   6.788   5.159   2.646
14333TIP3    H242877   6.892   5.203   2.748
14334TIP3   OH242878   7.241   7.825   3.005
14334TIP3    H142879   7.260   7.764   3.077
14334TIP3    H242880   7.163   7.789   2.963
14335TIP3   OH242881   1.059   7.500   7.643
14335TIP3    H142882   1.030   7.579   7.597
14335TIP3    H242883   1.047   7.522   7.736
14336TIP3   OH242884   3.148   2.176   2.446
14336TIP3    H142885   3.112   2.255   2.487
14336TIP3    H242886   3.221   2.151   2.504
14337TIP3   OH242887   8.248   8.333   5.906
14337TIP3    H142888   8.241   8.408   5.847
14337TIP3    H242889   8.272   8.372   5.991
14338TIP3   OH242890   0.297   1.914   1.113
14338TIP3    H142891   0.354   1.969   1.167
14338TIP3    H242892   0.253   1.857   1.176
14339TIP3   OH242893   5.558   5.011   3.465
14339TIP3    H142894   5.530   4.944   3.402
14339TIP3    H242895   5.509   5.089   3.439
14340TIP3   OH242896   0.581   7.351   4.680
14340TIP3    H142897   0.514   7.282   4.681
14340TIP3    H242898   0.536   7.428   4.714
14341TIP3   OH242899   4.195   1.673   6.672
14341TIP3    H142900   4.277   1.669   6.721
14341TIP3    H242901   4.135   1.723   6.729
14342TIP3   OH242902   8.859   3.106   2.607
14342TIP3    H142903   8.848   3.031   2.666
14342TIP3    H242904   8.877   3.179   2.665
14343TIP3   OH242905   5.945   2.570   7.661
14343TIP3    H142906   5.958   2.603   7.572
14343TIP3    H242907   6.004   2.622   7.715
14344TIP3   OH242908   9.387   7.894   0.406
14344TIP3    H142909   9.392   7.980   0.364
14344TIP3    H242910   9.304   7.895   0.454
14345TIP3   OH242911   7.218   4.946   3.757
14345TIP3    H142912   7.298   4.999   3.755
14345TIP3    H242913   7.221   4.894   3.677
14346TIP3   OH242914   3.225   7.115   4.335
14346TIP3    H142915   3.269   7.049   4.389
14346TIP3    H242916   3.150   7.069   4.296
14347TIP3   OH242917   2.742   5.331   3.092
14347TIP3    H142918   2.788   5.310   3.011
14347TIP3    H242919   2.768   5.261   3.152
14348TIP3   OH242920   5.013   6.690   0.837
14348TIP3    H142921   4.955   6.624   0.874
14348TIP3    H242922   5.071   6.715   0.909
14349TIP3   OH242923   2.363   5.479   3.833
14349TIP3    H142924   2.377   5.397   3.880
14349TIP3    H242925   2.437   5.486   3.774
14350TIP3   OH242926   0.560   5.682   0.462
14350TIP3    H142927   0.631   5.622   0.441
14350TIP3    H242928   0.511   5.690   0.380
14351TIP3   OH242929   0.121   5.396   6.621
14351TIP3    H142930   0.098   5.406   6.529
14351TIP3    H242931   0.038   5.407   6.668
14352TIP3   OH242932   9.288   7.325   0.980
14352TIP3    H142933   9.347   7.252   0.999
14352TIP3    H242934   9.244   7.342   1.063
14353TIP3   OH242935   7.847   3.972   3.328
14353TIP3    H142936   7.896   3.901   3.287
14353TIP3    H242937   7.887   4.052   3.293
14354TIP3   OH242938   4.985   0.121   6.561
14354TIP3    H142939   4.969   0.093   6.651
14354TIP3    H242940   4.899   0.147   6.528
14355TIP3   OH242941   4.551   1.187   5.126
14355TIP3    H142942   4.542   1.190   5.221
14355TIP3    H242943   4.464   1.164   5.094
14356TIP3   OH242944   0.585   1.619   6.224
14356TIP3    H142945   0.490   1.619   6.220
14356TIP3    H242946   0.608   1.705   6.259
14357TIP3   OH242947   3.395   7.046   3.191
14357TIP3    H142948   3.460   6.981   3.166
14357TIP3    H242949   3.385   7.101   3.113
14358TIP3   OH242950   4.419   7.286   4.722
14358TIP3    H142951   4.440   7.337   4.801
14358TIP3    H242952   4.469   7.205   4.733
14359TIP3   OH242953   0.439   7.836   6.393
14359TIP3    H142954   0.344   7.825   6.398
14359TIP3    H242955   0.471   7.751   6.363
14360TIP3   OH242956   0.945   4.796   1.090
14360TIP3    H142957   1.026   4.819   1.137
14360TIP3    H242958   0.889   4.758   1.157
14361TIP3   OH242959   9.117   0.585   6.536
14361TIP3    H142960   9.032   0.623   6.560
14361TIP3    H242961   9.111   0.569   6.442
14362TIP3   OH242962   6.042   5.900   4.985
14362TIP3    H142963   6.017   5.973   4.928
14362TIP3    H242964   5.959   5.854   5.002
14363TIP3   OH242965   1.736   1.729   6.277
14363TIP3    H142966   1.806   1.699   6.335
14363TIP3    H242967   1.781   1.758   6.198
14364TIP3   OH242968   0.342   3.700   5.681
14364TIP3    H142969   0.408   3.638   5.712
14364TIP3    H242970   0.302   3.657   5.605
14365TIP3   OH242971   5.925   2.072   5.374
14365TIP3    H142972   5.921   2.150   5.429
14365TIP3    H242973   5.916   2.105   5.285
14366TIP3   OH242974   1.325   0.898   3.970
14366TIP3    H142975   1.397   0.922   3.913
14366TIP3    H242976   1.254   0.874   3.909
14367TIP3   OH242977   7.073   7.364   2.289
14367TIP3    H142978   7.041   7.287   2.241
14367TIP3    H242979   7.167   7.368   2.268
14368TIP3   OH242980   4.833   5.333   1.670
14368TIP3    H142981   4.863   5.246   1.645
14368TIP3    H242982   4.818   5.328   1.764
14369TIP3   OH242983   3.562   6.958   0.042
14369TIP3    H142984   3.567   6.947  -0.053
14369TIP3    H242985   3.593   6.875   0.078
14370TIP3   OH242986   2.066   6.884   0.178
14370TIP3    H142987   2.072   6.906   0.085
14370TIP3    H242988   2.112   6.801   0.186
14371TIP3   OH242989   2.247   1.847   5.726
14371TIP3    H142990   2.225   1.917   5.788
14371TIP3    H242991   2.173   1.787   5.729
14372TIP3   OH242992   4.582   0.801   1.312
14372TIP3    H142993   4.582   0.885   1.267
14372TIP3    H242994   4.494   0.766   1.297
14373TIP3   OH242995   5.326   2.476   5.298
14373TIP3    H142996   5.272   2.470   5.219
14373TIP3    H242997   5.350   2.386   5.318
14374TIP3   OH242998   1.587   7.349   1.569
14374TIP3    H142999   1.580   7.270   1.515
14374TIP3    H243000   1.525   7.410   1.529
14375TIP3   OH243001   0.044   6.297   5.913
14375TIP3    H143002  -0.009   6.372   5.888
14375TIP3    H243003   0.134   6.325   5.900
14376TIP3   OH243004   7.779   4.341   2.901
14376TIP3    H143005   7.789   4.247   2.919
14376TIP3    H243006   7.684   4.356   2.907
14377TIP3   OH243007   9.122   2.129   3.475
14377TIP3    H143008   9.110   2.153   3.384
14377TIP3    H243009   9.071   2.049   3.486
14378TIP3   OH243010   5.699   6.355   7.333
14378TIP3    H143011   5.697   6.450   7.345
14378TIP3    H243012   5.752   6.322   7.405
14379TIP3   OH243013   6.123   2.806   5.869
14379TIP3    H143014   6.111   2.830   5.961
14379TIP3    H243015   6.036   2.782   5.839
14380TIP3   OH243016   2.991   3.626   3.130
14380TIP3    H143017   2.981   3.719   3.111
14380TIP3    H243018   2.954   3.581   3.054
14381TIP3   OH243019   2.479   6.795   6.228
14381TIP3    H143020   2.431   6.719   6.262
14381TIP3    H243021   2.411   6.850   6.190
14382TIP3   OH243022   9.490   5.596   6.498
14382TIP3    H143023   9.416   5.541   6.472
14382TIP3    H243024   9.556   5.580   6.430
14383TIP3   OH243025   2.317   4.377   2.273
14383TIP3    H143026   2.361   4.296   2.300
14383TIP3    H243027   2.358   4.445   2.327
14384TIP3   OH243028   5.628   4.933   6.188
14384TIP3    H143029   5.687   5.005   6.211
14384TIP3    H243030   5.543   4.975   6.177
14385TIP3   OH243031   6.043   6.770   4.375
14385TIP3    H143032   6.072   6.749   4.464
14385TIP3    H243033   5.957   6.811   4.387
14386TIP3   OH243034   5.504   4.864   6.896
14386TIP3    H143035   5.411   4.877   6.876
14386TIP3    H243036   5.506   4.785   6.950
14387TIP3   OH243037   2.682   3.394   6.571
14387TIP3    H143038   2.738   3.366   6.643
14387TIP3    H243039   2.636   3.471   6.605
14388TIP3   OH243040   8.038   5.818   6.318
14388TIP3    H143041   8.068   5.742   6.269
14388TIP3    H243042   7.949   5.796   6.346
14389TIP3   OH243043   4.476   5.803   2.557
14389TIP3    H143044   4.422   5.841   2.626
14389TIP3    H243045   4.532   5.875   2.528
14390TIP3   OH243046   3.293   6.780   2.790
14390TIP3    H143047   3.258   6.726   2.719
14390TIP3    H243048   3.336   6.853   2.745
14391TIP3   OH243049   1.754   4.499   2.549
14391TIP3    H143050   1.678   4.558   2.548
14391TIP3    H243051   1.803   4.523   2.470
14392TIP3   OH243052   5.711   4.198   1.276
14392TIP3    H143053   5.800   4.165   1.262
14392TIP3    H243054   5.654   4.125   1.251
14393TIP3   OH243055   2.379   3.813   2.531
14393TIP3    H143056   2.291   3.844   2.550
14393TIP3    H243057   2.374   3.718   2.545
14394TIP3   OH243058   0.931   8.003   6.437
14394TIP3    H143059   0.854   8.031   6.388
14394TIP3    H243060   0.994   8.074   6.425
14395TIP3   OH243061   6.815   3.146   4.597
14395TIP3    H143062   6.796   3.150   4.690
14395TIP3    H243063   6.895   3.197   4.586
14396TIP3   OH243064   8.779   0.544   4.056
14396TIP3    H143065   8.789   0.515   3.965
14396TIP3    H243066   8.803   0.637   4.054
14397TIP3   OH243067   9.404   0.421   3.109
14397TIP3    H143068   9.432   0.333   3.134
14397TIP3    H243069   9.438   0.433   3.020
14398TIP3   OH243070   3.500   7.020   6.717
14398TIP3    H143071   3.463   6.986   6.636
14398TIP3    H243072   3.448   6.980   6.786
14399TIP3   OH243073   5.643   5.918   3.806
14399TIP3    H143074   5.637   6.013   3.791
14399TIP3    H243075   5.554   5.886   3.795
14400TIP3   OH243076   8.271   0.958   0.141
14400TIP3    H143077   8.360   0.922   0.140
14400TIP3    H243078   8.259   0.997   0.054
14401TIP3   OH243079   6.033   4.236   0.750
14401TIP3    H143080   6.125   4.248   0.773
14401TIP3    H243081   6.014   4.307   0.689
14402TIP3   OH243082   2.484   5.397   2.147
14402TIP3    H143083   2.563   5.407   2.199
14402TIP3    H243084   2.450   5.311   2.173
14403TIP3   OH243085   8.318   7.163   1.133
14403TIP3    H143086   8.379   7.144   1.062
14403TIP3    H243087   8.306   7.079   1.178
14404TIP3   OH243088   0.922   1.843   6.288
14404TIP3    H143089   0.844   1.858   6.341
14404TIP3    H243090   0.939   1.928   6.246
14405TIP3   OH243091   9.126   7.651   3.387
14405TIP3    H143092   9.067   7.584   3.354
14405TIP3    H243093   9.069   7.723   3.414
14406TIP3   OH243094   1.623   5.720   0.151
14406TIP3    H143095   1.537   5.761   0.156
14406TIP3    H243096   1.633   5.698   0.058
14407TIP3   OH243097   0.262   6.193   3.764
14407TIP3    H143098   0.205   6.268   3.783
14407TIP3    H243099   0.320   6.187   3.839
14408TIP3   OH243100   3.111   5.065   0.808
14408TIP3    H143101   3.147   5.153   0.817
14408TIP3    H243102   3.185   5.007   0.825
14409TIP3   OH243103   5.836   6.979   2.164
14409TIP3    H143104   5.861   7.070   2.145
14409TIP3    H243105   5.882   6.928   2.098
14410TIP3   OH243106   2.256   9.014   5.270
14410TIP3    H143107   2.260   8.924   5.237
14410TIP3    H243108   2.265   9.006   5.365
14411TIP3   OH243109   1.699   6.120   1.698
14411TIP3    H143110   1.608   6.146   1.680
14411TIP3    H243111   1.701   6.104   1.792
14412TIP3   OH243112   7.415   1.053   4.037
14412TIP3    H143113   7.442   1.074   3.948
14412TIP3    H243114   7.498   1.039   4.084
14413TIP3   OH243115   6.112   8.753   3.730
14413TIP3    H143116   6.208   8.750   3.727
14413TIP3    H243117   6.085   8.730   3.642
14414TIP3   OH243118   0.499   4.760   4.239
14414TIP3    H143119   0.467   4.670   4.243
14414TIP3    H243120   0.494   4.783   4.146
14415TIP3   OH243121   5.911   7.649   2.954
14415TIP3    H143122   5.890   7.575   2.897
14415TIP3    H243123   5.893   7.726   2.901
14416TIP3   OH243124   2.276   7.828   5.475
14416TIP3    H143125   2.237   7.794   5.395
14416TIP3    H243126   2.317   7.752   5.516
14417TIP3   OH243127   6.494   8.364   2.232
14417TIP3    H143128   6.546   8.318   2.166
14417TIP3    H243129   6.404   8.357   2.201
14418TIP3   OH243130   1.305   0.109   5.545
14418TIP3    H143131   1.354   0.094   5.627
14418TIP3    H243132   1.223   0.150   5.573
14419TIP3   OH243133   4.905   3.999   2.210
14419TIP3    H143134   4.914   3.935   2.140
14419TIP3    H243135   4.983   4.054   2.203
14420TIP3   OH243136   0.202   0.059   7.521
14420TIP3    H143137   0.274   0.025   7.468
14420TIP3    H243138   0.203   0.005   7.600
14421TIP3   OH243139   1.195   8.620   1.427
14421TIP3    H143140   1.140   8.565   1.483
14421TIP3    H243141   1.267   8.647   1.482
14422TIP3   OH243142   3.897   1.755   2.344
14422TIP3    H143143   3.877   1.818   2.413
14422TIP3    H243144   3.846   1.678   2.367
14423TIP3   OH243145   7.854   2.041   5.153
14423TIP3    H143146   7.862   2.137   5.159
14423TIP3    H243147   7.896   2.019   5.070
14424TIP3   OH243148   6.060   0.523   0.219
14424TIP3    H143149   6.057   0.437   0.176
14424TIP3    H243150   6.014   0.581   0.159
14425TIP3   OH243151   4.719   0.022   3.493
14425TIP3    H143152   4.810   0.005   3.467
14425TIP3    H243153   4.726   0.063   3.579
14426TIP3   OH243154   0.184   4.875   7.110
14426TIP3    H143155   0.240   4.948   7.136
14426TIP3    H243156   0.240   4.798   7.119
14427TIP3   OH243157   0.668   3.255   3.716
14427TIP3    H143158   0.617   3.230   3.793
14427TIP3    H243159   0.645   3.346   3.701
14428TIP3   OH243160   8.477   6.884   4.523
14428TIP3    H143161   8.558   6.834   4.519
14428TIP3    H243162   8.426   6.854   4.447
14429TIP3   OH243163   7.773   2.974   2.961
14429TIP3    H143164   7.712   2.983   2.888
14429TIP3    H243165   7.831   2.903   2.936
14430TIP3   OH243166   7.935   3.555   5.972
14430TIP3    H143167   8.027   3.582   5.977
14430TIP3    H243168   7.885   3.635   5.987
14431TIP3   OH243169   2.066   8.760   4.329
14431TIP3    H143170   2.003   8.755   4.401
14431TIP3    H243171   2.041   8.840   4.282
14432TIP3   OH243172   3.826   2.527   5.243
14432TIP3    H143173   3.829   2.433   5.227
14432TIP3    H243174   3.778   2.536   5.326
14433TIP3   OH243175   8.570   1.530   0.875
14433TIP3    H143176   8.604   1.490   0.954
14433TIP3    H243177   8.475   1.516   0.879
14434TIP3   OH243178   1.152   0.919   0.503
14434TIP3    H143179   1.158   0.970   0.422
14434TIP3    H243180   1.086   0.852   0.483
14435TIP3   OH243181   5.445   7.493   0.038
14435TIP3    H143182   5.472   7.532  -0.045
14435TIP3    H243183   5.393   7.416   0.013
14436TIP3   OH243184   8.995   0.811   2.892
14436TIP3    H143185   8.952   0.861   2.822
14436TIP3    H243186   8.925   0.791   2.954
14437TIP3   OH243187   3.834   6.305   0.126
14437TIP3    H143188   3.879   6.367   0.069
14437TIP3    H243189   3.806   6.358   0.201
14438TIP3   OH243190   7.326   0.667   1.833
14438TIP3    H143191   7.397   0.709   1.883
14438TIP3    H243192   7.252   0.667   1.894
14439TIP3   OH243193   3.670   8.785   2.465
14439TIP3    H143194   3.710   8.752   2.545
14439TIP3    H243195   3.715   8.868   2.448
14440TIP3   OH243196   3.042   3.718   2.090
14440TIP3    H143197   3.067   3.710   1.998
14440TIP3    H243198   2.949   3.695   2.092
14441TIP3   OH243199   7.283   6.869   6.187
14441TIP3    H143200   7.237   6.791   6.217
14441TIP3    H243201   7.346   6.888   6.257
14442TIP3   OH243202   5.112   4.984   4.044
14442TIP3    H143203   5.143   5.074   4.054
14442TIP3    H243204   5.189   4.935   4.015
14443TIP3   OH243205   8.363   1.948   3.087
14443TIP3    H143206   8.364   2.028   3.139
14443TIP3    H243207   8.386   1.975   2.999
14444TIP3   OH243208   0.777   6.169   6.164
14444TIP3    H143209   0.759   6.096   6.224
14444TIP3    H243210   0.872   6.175   6.160
14445TIP3   OH243211   5.278   5.604   3.598
14445TIP3    H143212   5.288   5.537   3.665
14445TIP3    H243213   5.246   5.557   3.521
14446TIP3   OH243214   2.906   2.459   1.036
14446TIP3    H143215   2.948   2.465   0.950
14446TIP3    H243216   2.943   2.532   1.086
14447TIP3   OH243217   0.083   0.973   0.473
14447TIP3    H143218   0.140   0.981   0.550
14447TIP3    H243219   0.117   1.037   0.411
14448TIP3   OH243220   4.803   3.228   1.736
14448TIP3    H143221   4.810   3.263   1.647
14448TIP3    H243222   4.712   3.244   1.761
14449TIP3   OH243223   8.050   2.050   4.950
14449TIP3    H143224   8.142   2.037   4.927
14449TIP3    H243225   8.004   1.980   4.904
14450TIP3   OH243226   4.482   5.146   2.251
14450TIP3    H143227   4.463   5.068   2.303
14450TIP3    H243228   4.554   5.188   2.297
14451TIP3   OH243229   3.793   5.446   7.499
14451TIP3    H143230   3.804   5.538   7.524
14451TIP3    H243231   3.877   5.405   7.516
14452TIP3   OH243232   4.139   2.046   6.293
14452TIP3    H143233   4.131   1.981   6.362
14452TIP3    H243234   4.103   2.003   6.215
14453TIP3   OH243235   2.362   3.208   3.976
14453TIP3    H143236   2.457   3.219   3.980
14453TIP3    H243237   2.329   3.292   3.947
14454TIP3   OH243238   2.409   2.362   7.009
14454TIP3    H143239   2.337   2.422   6.992
14454TIP3    H243240   2.464   2.407   7.073
14455TIP3   OH243241   3.035   0.228   3.161
14455TIP3    H143242   2.975   0.292   3.198
14455TIP3    H243243   3.121   0.270   3.162
14456TIP3   OH243244   0.349   8.038   0.038
14456TIP3    H143245   0.344   7.966  -0.025
14456TIP3    H243246   0.286   8.102   0.006
14457TIP3   OH243247   6.681   8.646   3.593
14457TIP3    H143248   6.692   8.740   3.606
14457TIP3    H243249   6.586   8.633   3.596
14458TIP3   OH243250   7.103   0.611   2.968
14458TIP3    H143251   7.121   0.519   2.949
14458TIP3    H243252   7.117   0.619   3.063
14459TIP3   OH243253   7.489   5.648   6.331
14459TIP3    H143254   7.524   5.576   6.279
14459TIP3    H243255   7.464   5.714   6.267
14460TIP3   OH243256   5.673   7.169   0.123
14460TIP3    H143257   5.668   7.260   0.096
14460TIP3    H243258   5.728   7.170   0.201
14461TIP3   OH243259   1.700   1.229   7.541
14461TIP3    H143260   1.624   1.175   7.520
14461TIP3    H243261   1.664   1.317   7.554
14462TIP3   OH243262   4.699   2.444   1.499
14462TIP3    H143263   4.746   2.367   1.532
14462TIP3    H243264   4.744   2.467   1.417
14463TIP3   OH243265   4.983   3.297   2.884
14463TIP3    H143266   5.075   3.275   2.870
14463TIP3    H243267   4.946   3.299   2.796
14464TIP3   OH243268   6.834   8.423   6.144
14464TIP3    H143269   6.773   8.451   6.076
14464TIP3    H243270   6.917   8.412   6.099
14465TIP3   OH243271   3.608   4.464   6.784
14465TIP3    H143272   3.663   4.399   6.827
14465TIP3    H243273   3.580   4.522   6.855
14466TIP3   OH243274   2.669   8.040   3.841
14466TIP3    H143275   2.695   8.124   3.804
14466TIP3    H243276   2.580   8.026   3.809
14467TIP3   OH243277   6.158   1.620   4.114
14467TIP3    H143278   6.204   1.580   4.040
14467TIP3    H243279   6.213   1.694   4.139
14468TIP3   OH243280   6.933   2.975   0.514
14468TIP3    H143281   6.955   2.968   0.607
14468TIP3    H243282   6.853   3.028   0.512
14469TIP3   OH243283   0.936   3.541   2.089
14469TIP3    H143284   0.844   3.526   2.065
14469TIP3    H243285   0.950   3.634   2.074
14470TIP3   OH243286   8.343   6.170   0.749
14470TIP3    H143287   8.394   6.131   0.819
14470TIP3    H243288   8.340   6.263   0.771
14471TIP3   OH243289   0.101   4.273   6.146
14471TIP3    H143290   0.068   4.328   6.217
14471TIP3    H243291   0.067   4.314   6.066
14472TIP3   OH243292   6.140   1.523   2.997
14472TIP3    H143293   6.135   1.593   3.062
14472TIP3    H243294   6.060   1.472   3.011
14473TIP3   OH243295   7.745   1.329   6.732
14473TIP3    H143296   7.705   1.379   6.661
14473TIP3    H243297   7.753   1.391   6.804
14474TIP3   OH243298   3.556   2.518   0.798
14474TIP3    H143299   3.556   2.602   0.752
14474TIP3    H243300   3.470   2.514   0.840
14475TIP3   OH243301   2.078   2.768   1.098
14475TIP3    H143302   1.995   2.723   1.115
14475TIP3    H243303   2.132   2.750   1.176
14476TIP3   OH243304   3.935   2.805   4.528
14476TIP3    H143305   3.848   2.838   4.506
14476TIP3    H243306   3.936   2.802   4.624
14477TIP3   OH243307   7.273   8.712   3.352
14477TIP3    H143308   7.321   8.768   3.414
14477TIP3    H243309   7.300   8.623   3.375
14478TIP3   OH243310   6.359   7.229   2.538
14478TIP3    H143311   6.324   7.300   2.484
14478TIP3    H243312   6.282   7.178   2.563
14479TIP3   OH243313   9.302   5.155   0.821
14479TIP3    H143314   9.229   5.194   0.870
14479TIP3    H243315   9.347   5.230   0.782
14480TIP3   OH243316   4.664   2.163   0.350
14480TIP3    H143317   4.699   2.157   0.439
14480TIP3    H243318   4.714   2.234   0.309
14481TIP3   OH243319   0.997   6.828   0.019
14481TIP3    H143320   1.006   6.826   0.115
14481TIP3    H243321   1.081   6.797  -0.014
14482TIP3   OH243322   9.060   2.192   3.907
14482TIP3    H143323   9.136   2.156   3.861
14482TIP3    H243324   9.063   2.150   3.993
14483TIP3   OH243325   9.051   6.129   4.873
14483TIP3    H143326   9.029   6.065   4.940
14483TIP3    H243327   9.075   6.077   4.797
14484TIP3   OH243328   1.198   4.312   7.753
14484TIP3    H143329   1.159   4.356   7.828
14484TIP3    H243330   1.277   4.363   7.734
14485TIP3   OH243331   5.133   0.942   4.099
14485TIP3    H143332   5.041   0.970   4.098
14485TIP3    H243333   5.182   1.024   4.103
14486TIP3   OH243334   5.846   3.047   7.305
14486TIP3    H143335   5.827   3.110   7.235
14486TIP3    H243336   5.926   3.003   7.276
14487TIP3   OH243337   0.623   5.430   2.979
14487TIP3    H143338   0.624   5.507   3.036
14487TIP3    H243339   0.619   5.356   3.039
14488TIP3   OH243340   8.536   5.073   3.716
14488TIP3    H143341   8.545   4.988   3.759
14488TIP3    H243342   8.470   5.059   3.648
14489TIP3   OH243343   3.353   2.261   0.471
14489TIP3    H143344   3.421   2.307   0.421
14489TIP3    H243345   3.399   2.229   0.549
14490TIP3   OH243346   5.570   5.147   0.889
14490TIP3    H143347   5.604   5.057   0.898
14490TIP3    H243348   5.498   5.139   0.826
14491TIP3   OH243349   8.084   6.496   7.000
14491TIP3    H143350   8.161   6.542   7.033
14491TIP3    H243351   8.065   6.430   7.067
14492TIP3   OH243352   7.756   0.697   2.463
14492TIP3    H143353   7.811   0.619   2.471
14492TIP3    H243354   7.792   0.757   2.528
14493TIP3   OH243355   8.856   6.512   6.905
14493TIP3    H143356   8.769   6.478   6.886
14493TIP3    H243357   8.853   6.534   6.998
14494TIP3   OH243358   6.166   3.859   0.513
14494TIP3    H143359   6.104   3.918   0.471
14494TIP3    H243360   6.135   3.851   0.603
14495TIP3   OH243361   3.104   2.031   0.948
14495TIP3    H143362   3.180   1.995   0.903
14495TIP3    H243363   3.061   2.086   0.882
14496TIP3   OH243364   9.449   3.050   0.266
14496TIP3    H143365   9.464   3.022   0.356
14496TIP3    H243366   9.446   3.146   0.271
14497TIP3   OH243367   8.814   7.191   2.600
14497TIP3    H143368   8.796   7.160   2.688
14497TIP3    H243369   8.909   7.197   2.595
14498TIP3   OH243370   1.186   0.081   4.557
14498TIP3    H143371   1.158   0.164   4.594
14498TIP3    H243372   1.116   0.020   4.580
14499TIP3   OH243373   2.208   5.717   0.323
14499TIP3    H143374   2.217   5.810   0.340
14499TIP3    H243375   2.297   5.687   0.306
14500TIP3   OH243376   1.125   6.249   0.888
14500TIP3    H143377   1.087   6.219   0.805
14500TIP3    H243378   1.220   6.251   0.872
14501TIP3   OH243379   7.163   4.812   4.644
14501TIP3    H143380   7.119   4.749   4.701
14501TIP3    H243381   7.205   4.874   4.704
14502TIP3   OH243382   2.359   5.457   3.395
14502TIP3    H143383   2.348   5.547   3.427
14502TIP3    H243384   2.291   5.447   3.329
14503TIP3   OH243385   0.161   1.567   5.975
14503TIP3    H143386   0.199   1.612   5.899
14503TIP3    H243387   0.068   1.563   5.956
14504TIP3   OH243388   4.451   5.527   0.363
14504TIP3    H143389   4.464   5.556   0.272
14504TIP3    H243390   4.391   5.453   0.355
14505TIP3   OH243391   8.411   5.990   4.490
14505TIP3    H143392   8.382   6.042   4.415
14505TIP3    H243393   8.476   6.046   4.534
14506TIP3   OH243394   8.062   8.544   2.211
14506TIP3    H143395   8.025   8.616   2.262
14506TIP3    H243396   7.986   8.504   2.168
14507TIP3   OH243397   2.956   0.841   2.243
14507TIP3    H143398   2.860   0.840   2.237
14507TIP3    H243399   2.985   0.827   2.152
14508TIP3   OH243400   9.202   2.094   2.278
14508TIP3    H143401   9.170   2.055   2.197
14508TIP3    H243402   9.129   2.146   2.311
14509TIP3   OH243403   0.012   7.066   2.200
14509TIP3    H143404   0.019   7.051   2.295
14509TIP3    H243405   0.032   7.159   2.189
14510TIP3   OH243406   6.286   0.987   1.564
14510TIP3    H143407   6.306   0.922   1.496
14510TIP3    H243408   6.197   1.016   1.543
14511TIP3   OH243409   4.356   8.889   0.955
14511TIP3    H143410   4.316   8.819   1.007
14511TIP3    H243411   4.332   8.970   1.000
14512TIP3   OH243412   4.981   0.540   4.792
14512TIP3    H143413   5.026   0.472   4.841
14512TIP3    H243414   5.050   0.582   4.740
14513TIP3   OH243415   1.631   8.329   1.555
14513TIP3    H143416   1.686   8.255   1.581
14513TIP3    H243417   1.577   8.295   1.484
14514TIP3   OH243418   8.486   6.308   6.649
14514TIP3    H143419   8.510   6.232   6.597
14514TIP3    H243420   8.489   6.381   6.587
14515TIP3   OH243421   2.797   6.170   1.411
14515TIP3    H143422   2.812   6.160   1.505
14515TIP3    H243423   2.800   6.265   1.396
14516TIP3   OH243424   6.405   1.187   5.062
14516TIP3    H143425   6.402   1.105   5.013
14516TIP3    H243426   6.383   1.254   4.997
14517TIP3   OH243427   5.269   6.881   6.665
14517TIP3    H143428   5.279   6.821   6.739
14517TIP3    H243429   5.250   6.824   6.590
14518TIP3   OH243430   3.542   6.774   4.601
14518TIP3    H143431   3.484   6.702   4.625
14518TIP3    H243432   3.623   6.757   4.649
14519TIP3   OH243433   7.177   3.330   1.150
14519TIP3    H143434   7.094   3.362   1.186
14519TIP3    H243435   7.226   3.409   1.128
14520TIP3   OH243436   1.314   1.281   1.434
14520TIP3    H143437   1.362   1.199   1.435
14520TIP3    H243438   1.255   1.276   1.510
14521TIP3   OH243439   6.423   0.078   1.133
14521TIP3    H143440   6.412   0.009   1.067
14521TIP3    H243441   6.474   0.145   1.088
14522TIP3   OH243442   2.158   1.937   2.077
14522TIP3    H143443   2.130   1.878   2.147
14522TIP3    H243444   2.176   1.880   2.002
14523TIP3   OH243445   0.295   2.419   5.151
14523TIP3    H143446   0.243   2.499   5.139
14523TIP3    H243447   0.261   2.382   5.233
14524TIP3   OH243448   2.138   8.050   5.305
14524TIP3    H143449   2.187   8.117   5.353
14524TIP3    H243450   2.046   8.074   5.318
14525TIP3   OH243451   3.144   8.033   4.275
14525TIP3    H143452   3.168   7.985   4.196
14525TIP3    H243453   3.129   7.964   4.340
14526TIP3   OH243454   3.958   0.868   2.030
14526TIP3    H143455   3.908   0.893   2.108
14526TIP3    H243456   3.940   0.939   1.967
14527TIP3   OH243457   7.516   6.678   0.614
14527TIP3    H143458   7.555   6.737   0.678
14527TIP3    H243459   7.590   6.650   0.559
14528TIP3   OH243460   9.404   5.880   1.532
14528TIP3    H143461   9.353   5.936   1.474
14528TIP3    H243462   9.372   5.902   1.620
14529TIP3   OH243463   6.863   0.834   3.420
14529TIP3    H143464   6.899   0.919   3.396
14529TIP3    H243465   6.823   0.801   3.340
14530TIP3   OH243466   8.289   7.170   7.140
14530TIP3    H143467   8.365   7.117   7.113
14530TIP3    H243468   8.325   7.258   7.151
14531TIP3   OH243469   0.053   1.300   6.490
14531TIP3    H143470   0.123   1.264   6.435
14531TIP3    H243471   0.008   1.224   6.525
14532TIP3   OH243472   7.739   7.259   3.131
14532TIP3    H143473   7.810   7.320   3.148
14532TIP3    H243474   7.742   7.244   3.036
14533TIP3   OH243475   9.339   8.480   2.492
14533TIP3    H143476   9.287   8.404   2.466
14533TIP3    H243477   9.281   8.555   2.478
14534TIP3   OH243478   5.316   6.756   5.726
14534TIP3    H143479   5.261   6.714   5.792
14534TIP3    H243480   5.255   6.793   5.664
14535TIP3   OH243481   5.602   1.292   7.711
14535TIP3    H143482   5.548   1.323   7.784
14535TIP3    H243483   5.553   1.317   7.632
14536TIP3   OH243484   6.359   8.915   3.950
14536TIP3    H143485   6.329   8.826   3.930
14536TIP3    H243486   6.294   8.948   4.013
14537TIP3   OH243487   1.924   4.728   3.930
14537TIP3    H143488   1.835   4.732   3.967
14537TIP3    H243489   1.917   4.664   3.859
14538TIP3   OH243490   5.327   7.224   4.339
14538TIP3    H143491   5.345   7.213   4.432
14538TIP3    H243492   5.258   7.161   4.320
14539TIP3   OH243493   9.005   0.100   7.023
14539TIP3    H143494   9.061   0.161   6.975
14539TIP3    H243495   8.984   0.146   7.105
14540TIP3   OH243496   6.340   1.370   3.102
14540TIP3    H143497   6.278   1.410   3.041
14540TIP3    H243498   6.346   1.433   3.174
14541TIP3   OH243499   9.060   5.173   6.928
14541TIP3    H143500   9.059   5.100   6.865
14541TIP3    H243501   8.968   5.192   6.944
14542TIP3   OH243502   1.752   1.436   1.838
14542TIP3    H143503   1.755   1.389   1.922
14542TIP3    H243504   1.741   1.528   1.863
14543TIP3   OH243505   2.797   6.088   1.142
14543TIP3    H143506   2.792   5.993   1.130
14543TIP3    H243507   2.815   6.099   1.236
14544TIP3   OH243508   4.989   6.277   5.848
14544TIP3    H143509   5.043   6.331   5.906
14544TIP3    H243510   5.003   6.188   5.880
14545TIP3   OH243511   6.414   3.041   4.620
14545TIP3    H143512   6.367   3.013   4.698
14545TIP3    H243513   6.459   3.121   4.646
14546TIP3   OH243514   0.169   1.938   5.229
14546TIP3    H143515   0.183   1.974   5.316
14546TIP3    H243516   0.249   1.888   5.210
14547TIP3   OH243517   7.108   8.453   3.480
14547TIP3    H143518   7.037   8.517   3.478
14547TIP3    H243519   7.125   8.439   3.573
14548TIP3   OH243520   4.975   8.765   0.219
14548TIP3    H143521   4.982   8.791   0.127
14548TIP3    H243522   5.063   8.735   0.242
14549TIP3   OH243523   1.364   4.557   1.047
14549TIP3    H143524   1.426   4.486   1.063
14549TIP3    H243525   1.280   4.524   1.079
14550TIP3   OH243526   3.063   8.801   6.405
14550TIP3    H143527   2.989   8.849   6.443
14550TIP3    H243528   3.134   8.812   6.468
14551TIP3   OH243529   7.604   6.148   0.952
14551TIP3    H143530   7.630   6.165   0.862
14551TIP3    H243531   7.639   6.061   0.972
14552TIP3   OH243532   9.021   8.592   3.839
14552TIP3    H143533   8.978   8.582   3.924
14552TIP3    H243534   9.103   8.637   3.859
14553TIP3   OH243535   4.466   7.261   5.433
14553TIP3    H143536   4.466   7.319   5.509
14553TIP3    H243537   4.389   7.205   5.445
14554TIP3   OH243538   3.456   2.769   1.715
14554TIP3    H143539   3.448   2.686   1.763
14554TIP3    H243540   3.470   2.742   1.624
14555TIP3   OH243541   0.849   4.877   3.891
14555TIP3    H143542   0.921   4.931   3.857
14555TIP3    H243543   0.863   4.876   3.986
14556TIP3   OH243544   0.239   5.364   5.491
14556TIP3    H143545   0.151   5.355   5.454
14556TIP3    H243546   0.264   5.454   5.473
14557TIP3   OH243547   2.030   6.610   0.126
14557TIP3    H143548   2.114   6.578   0.093
14557TIP3    H243549   2.040   6.609   0.221
14558TIP3   OH243550   7.579   5.506   7.128
14558TIP3    H143551   7.499   5.464   7.096
14558TIP3    H243552   7.619   5.543   7.049
14559TIP3   OH243553   6.625   0.723   7.313
14559TIP3    H143554   6.716   0.717   7.340
14559TIP3    H243555   6.626   0.779   7.236
14560TIP3   OH243556   4.410   1.098   3.964
14560TIP3    H143557   4.325   1.081   4.005
14560TIP3    H243558   4.465   1.132   4.035
14561TIP3   OH243559   5.870   1.985   0.903
14561TIP3    H143560   5.830   1.969   0.988
14561TIP3    H243561   5.821   2.059   0.867
14562TIP3   OH243562   8.930   2.250   5.914
14562TIP3    H143563   8.934   2.167   5.867
14562TIP3    H243564   8.841   2.283   5.897
14563TIP3   OH243565   2.665   6.962   6.796
14563TIP3    H143566   2.720   6.993   6.723
14563TIP3    H243567   2.585   6.931   6.754
14564TIP3   OH243568   5.567   1.996   0.388
14564TIP3    H143569   5.633   2.035   0.445
14564TIP3    H243570   5.618   1.956   0.317
14565TIP3   OH243571   0.783   8.816   5.444
14565TIP3    H143572   0.760   8.891   5.389
14565TIP3    H243573   0.821   8.855   5.523
14566TIP3   OH243574   8.975   7.964   0.834
14566TIP3    H143575   8.962   7.937   0.925
14566TIP3    H243576   8.982   8.059   0.837
14567TIP3   OH243577   0.015   1.672   1.342
14567TIP3    H143578   0.018   1.705   1.432
14567TIP3    H243579  -0.078   1.663   1.323
14568TIP3   OH243580   9.141   5.149   6.086
14568TIP3    H143581   9.137   5.095   6.006
14568TIP3    H243582   9.116   5.090   6.156
14569TIP3   OH243583   8.937   7.707   7.739
14569TIP3    H143584   9.016   7.676   7.784
14569TIP3    H243585   8.969   7.734   7.653
14570TIP3   OH243586   2.811   5.825   0.850
14570TIP3    H143587   2.805   5.871   0.766
14570TIP3    H243588   2.721   5.824   0.883
14571TIP3   OH243589   7.498   0.142   6.251
14571TIP3    H143590   7.578   0.099   6.278
14571TIP3    H243591   7.445   0.148   6.330
14572TIP3   OH243592   1.573   6.735   6.895
14572TIP3    H143593   1.608   6.646   6.897
14572TIP3    H243594   1.591   6.769   6.983
14573TIP3   OH243595   9.101   2.188   0.814
14573TIP3    H143596   9.046   2.148   0.880
14573TIP3    H243597   9.174   2.127   0.802
14574TIP3   OH243598   1.533   4.453   2.847
14574TIP3    H143599   1.621   4.476   2.817
14574TIP3    H243600   1.502   4.531   2.894
14575TIP3   OH243601   0.193   5.923   7.712
14575TIP3    H143602   0.157   5.919   7.801
14575TIP3    H243603   0.203   6.017   7.696
14576TIP3   OH243604   2.544   8.456   3.613
14576TIP3    H143605   2.521   8.380   3.560
14576TIP3    H243606   2.472   8.464   3.676
14577TIP3   OH243607   0.512   3.991   1.788
14577TIP3    H143608   0.490   4.048   1.715
14577TIP3    H243609   0.430   3.948   1.811
14578TIP3   OH243610   7.158   2.273   2.905
14578TIP3    H143611   7.086   2.271   2.968
14578TIP3    H243612   7.237   2.266   2.959
14579TIP3   OH243613   2.806   1.864   7.148
14579TIP3    H143614   2.824   1.903   7.062
14579TIP3    H243615   2.727   1.908   7.178
14580TIP3   OH243616   2.901   0.901   4.176
14580TIP3    H143617   2.807   0.919   4.169
14580TIP3    H243618   2.905   0.811   4.209
14581TIP3   OH243619   3.910   1.072   1.505
14581TIP3    H143620   3.950   1.017   1.438
14581TIP3    H243621   3.964   1.151   1.508
14582TIP3   OH243622   7.160   3.475   2.506
14582TIP3    H143623   7.232   3.428   2.548
14582TIP3    H243624   7.087   3.467   2.567
14583TIP3   OH243625   3.895   7.274   6.865
14583TIP3    H143626   3.805   7.299   6.845
14583TIP3    H243627   3.888   7.221   6.944
14584TIP3   OH243628   4.049   2.418   5.763
14584TIP3    H143629   4.108   2.482   5.803
14584TIP3    H243630   3.962   2.441   5.796
14585TIP3   OH243631   3.990   2.856   2.909
14585TIP3    H143632   3.952   2.839   2.995
14585TIP3    H243633   3.929   2.915   2.867
14586TIP3   OH243634   2.362   0.103   7.420
14586TIP3    H143635   2.285   0.062   7.459
14586TIP3    H243636   2.346   0.100   7.326
14587TIP3   OH243637   6.919   4.986   4.169
14587TIP3    H143638   7.002   5.029   4.148
14587TIP3    H243639   6.934   4.943   4.253
14588TIP3   OH243640   3.141   2.462   2.853
14588TIP3    H143641   3.199   2.522   2.900
14588TIP3    H243642   3.164   2.375   2.886
14589TIP3   OH243643   7.498   0.750   5.138
14589TIP3    H143644   7.566   0.750   5.071
14589TIP3    H243645   7.430   0.692   5.103
14590TIP3   OH243646   3.399   3.541   2.689
14590TIP3    H143647   3.390   3.583   2.775
14590TIP3    H243648   3.326   3.575   2.639
14591TIP3   OH243649   0.991   2.082   5.889
14591TIP3    H143650   1.057   2.034   5.840
14591TIP3    H243651   1.042   2.145   5.941
14592TIP3   OH243652   5.976   8.549   1.772
14592TIP3    H143653   5.888   8.552   1.734
14592TIP3    H243654   6.034   8.537   1.696
14593TIP3   OH243655   2.086   4.102   5.636
14593TIP3    H143656   2.082   4.171   5.702
14593TIP3    H243657   2.016   4.042   5.660
14594TIP3   OH243658   4.372   7.809   4.282
14594TIP3    H143659   4.464   7.824   4.305
14594TIP3    H243660   4.342   7.893   4.246
14595TIP3   OH243661   9.482   4.236   3.022
14595TIP3    H143662   9.387   4.221   3.026
14595TIP3    H243663   9.493   4.329   3.041
14596TIP3   OH243664   7.575   1.991   7.395
14596TIP3    H143665   7.485   1.963   7.378
14596TIP3    H243666   7.565   2.078   7.435
14597TIP3   OH243667   5.134   8.939   0.819
14597TIP3    H143668   5.090   8.972   0.741
14597TIP3    H243669   5.093   8.854   0.836
14598TIP3   OH243670   4.903   7.085   6.523
14598TIP3    H143671   4.829   7.145   6.524
14598TIP3    H243672   4.915   7.062   6.430
14599TIP3   OH243673   4.312   8.171   3.429
14599TIP3    H143674   4.227   8.186   3.469
14599TIP3    H243675   4.301   8.092   3.376
14600TIP3   OH243676   0.810   1.561   1.281
14600TIP3    H143677   0.898   1.574   1.318
14600TIP3    H243678   0.814   1.600   1.194
14601TIP3   OH243679   9.254   0.497   7.018
14601TIP3    H143680   9.261   0.591   7.037
14601TIP3    H243681   9.271   0.491   6.924
14602TIP3   OH243682   2.052   6.827   3.742
14602TIP3    H143683   2.093   6.912   3.757
14602TIP3    H243684   2.108   6.765   3.789
14603TIP3   OH243685   5.308   2.301   3.499
14603TIP3    H143686   5.266   2.302   3.412
14603TIP3    H243687   5.242   2.337   3.558
14604TIP3   OH243688   9.444   5.273   6.809
14604TIP3    H143689   9.516   5.257   6.870
14604TIP3    H243690   9.443   5.367   6.796
14605TIP3   OH243691   2.491   4.891   5.911
14605TIP3    H143692   2.565   4.873   5.969
14605TIP3    H243693   2.446   4.965   5.951
14606TIP3   OH243694   7.990   8.311   5.767
14606TIP3    H143695   8.051   8.337   5.836
14606TIP3    H243696   8.012   8.220   5.748
14607TIP3   OH243697   1.370   8.768   3.311
14607TIP3    H143698   1.370   8.758   3.406
14607TIP3    H243699   1.420   8.692   3.279
14608TIP3   OH243700   8.002   8.759   2.824
14608TIP3    H143701   8.066   8.831   2.822
14608TIP3    H243702   8.018   8.710   2.743
14609TIP3   OH243703   2.019   6.953   3.182
14609TIP3    H143704   2.009   6.899   3.260
14609TIP3    H243705   1.929   6.974   3.157
14610TIP3   OH243706   8.226   8.525   5.734
14610TIP3    H143707   8.236   8.616   5.759
14610TIP3    H243708   8.234   8.525   5.638
14611TIP3   OH243709   5.391   0.685   7.522
14611TIP3    H143710   5.387   0.737   7.442
14611TIP3    H243711   5.448   0.736   7.580
14612TIP3   OH243712   4.538   5.141   3.675
14612TIP3    H143713   4.585   5.152   3.758
14612TIP3    H243714   4.487   5.221   3.665
14613TIP3   OH243715   4.661   8.700   4.219
14613TIP3    H143716   4.668   8.606   4.230
14613TIP3    H243717   4.632   8.732   4.305
14614TIP3   OH243718   0.618   2.166   6.078
14614TIP3    H143719   0.583   2.091   6.125
14614TIP3    H243720   0.559   2.238   6.101
14615TIP3   OH243721   5.461   0.426   6.848
14615TIP3    H143722   5.461   0.349   6.792
14615TIP3    H243723   5.422   0.396   6.930
14616TIP3   OH243724   8.752   3.249   7.541
14616TIP3    H143725   8.714   3.177   7.591
14616TIP3    H243726   8.701   3.251   7.460
14617TIP3   OH243727   6.508   7.312   3.428
14617TIP3    H143728   6.460   7.275   3.503
14617TIP3    H243729   6.515   7.239   3.366
14618TIP3   OH243730   1.879   2.607   0.258
14618TIP3    H143731   1.830   2.647   0.331
14618TIP3    H243732   1.914   2.682   0.209
14619TIP3   OH243733   6.969   1.940   6.163
14619TIP3    H143734   7.055   1.977   6.182
14619TIP3    H243735   6.907   2.008   6.189
14620TIP3   OH243736   4.417   7.050   6.845
14620TIP3    H143737   4.372   6.968   6.822
14620TIP3    H243738   4.351   7.100   6.893
14621TIP3   OH243739   1.234   6.659   3.123
14621TIP3    H143740   1.252   6.566   3.108
14621TIP3    H243741   1.304   6.688   3.181
14622TIP3   OH243742   4.575   0.435   4.156
14622TIP3    H143743   4.571   0.340   4.162
14622TIP3    H243744   4.516   0.458   4.084
14623TIP3   OH243745   5.747   5.796   4.038
14623TIP3    H143746   5.739   5.857   3.965
14623TIP3    H243747   5.754   5.852   4.116
14624TIP3   OH243748   0.581   8.560   5.656
14624TIP3    H143749   0.647   8.543   5.589
14624TIP3    H243750   0.605   8.645   5.692
14625TIP3   OH243751   7.731   5.351   7.628
14625TIP3    H143752   7.821   5.376   7.649
14625TIP3    H243753   7.705   5.410   7.557
14626TIP3   OH243754   6.442   4.406   0.776
14626TIP3    H143755   6.384   4.443   0.710
14626TIP3    H243756   6.383   4.376   0.846
14627TIP3   OH243757   3.285   0.129   4.731
14627TIP3    H143758   3.243   0.046   4.708
14627TIP3    H243759   3.351   0.142   4.663
14628TIP3   OH243760   1.750   3.711   3.557
14628TIP3    H143761   1.803   3.631   3.548
14628TIP3    H243762   1.812   3.777   3.587
14629TIP3   OH243763   7.086   2.357   6.092
14629TIP3    H143764   7.008   2.404   6.121
14629TIP3    H243765   7.159   2.410   6.123
14630TIP3   OH243766   1.826   3.333   3.207
14630TIP3    H143767   1.862   3.298   3.126
14630TIP3    H243768   1.732   3.343   3.189
14631TIP3   OH243769   3.862   3.972   3.128
14631TIP3    H143770   3.898   4.009   3.047
14631TIP3    H243771   3.773   4.006   3.133
14632TIP3   OH243772   3.329   3.755   5.706
14632TIP3    H143773   3.396   3.814   5.670
14632TIP3    H243774   3.266   3.744   5.634
14633TIP3   OH243775   9.240   3.991   0.076
14633TIP3    H143776   9.154   3.953   0.095
14633TIP3    H243777   9.286   3.989   0.160
14634TIP3   OH243778   1.772   2.390   2.674
14634TIP3    H143779   1.842   2.443   2.637
14634TIP3    H243780   1.816   2.326   2.729
14635TIP3   OH243781   6.805   1.731   3.816
14635TIP3    H143782   6.865   1.662   3.787
14635TIP3    H243783   6.837   1.755   3.903
14636TIP3   OH243784   0.106   8.808   5.369
14636TIP3    H143785   0.097   8.719   5.336
14636TIP3    H243786   0.067   8.863   5.301
14637TIP3   OH243787   3.885   7.587   4.323
14637TIP3    H143788   3.974   7.550   4.317
14637TIP3    H243789   3.899   7.679   4.346
14638TIP3   OH243790   5.865   3.504   4.203
14638TIP3    H143791   5.834   3.463   4.284
14638TIP3    H243792   5.875   3.431   4.142
14639TIP3   OH243793   7.746   8.315   3.070
14639TIP3    H143794   7.685   8.295   3.140
14639TIP3    H243795   7.803   8.238   3.065
14640TIP3   OH243796   7.728   0.197   7.341
14640TIP3    H143797   7.796   0.245   7.293
14640TIP3    H243798   7.705   0.254   7.414
14641TIP3   OH243799   0.182   1.572   5.289
14641TIP3    H143800   0.097   1.529   5.301
14641TIP3    H243801   0.165   1.664   5.310
14642TIP3   OH243802   8.814   0.714   3.070
14642TIP3    H143803   8.880   0.710   3.139
14642TIP3    H243804   8.733   0.738   3.117
14643TIP3   OH243805   8.166   0.640   6.422
14643TIP3    H143806   8.129   0.640   6.510
14643TIP3    H243807   8.091   0.629   6.364
14644TIP3   OH243808   7.108   4.468   6.452
14644TIP3    H143809   7.031   4.525   6.458
14644TIP3    H243810   7.074   4.386   6.416
14645TIP3   OH243811   0.951   8.280   7.610
14645TIP3    H143812   0.942   8.190   7.579
14645TIP3    H243813   0.944   8.273   7.706
14646TIP3   OH243814   4.878   2.217   7.154
14646TIP3    H143815   4.819   2.186   7.086
14646TIP3    H243816   4.838   2.189   7.236
14647TIP3   OH243817   3.647   6.064   6.299
14647TIP3    H143818   3.639   5.981   6.253
14647TIP3    H243819   3.741   6.082   6.302
14648TIP3   OH243820   2.896   5.921   5.889
14648TIP3    H143821   2.962   5.858   5.918
14648TIP3    H243822   2.829   5.920   5.957
14649TIP3   OH243823   5.578   6.823   1.545
14649TIP3    H143824   5.501   6.767   1.538
14649TIP3    H243825   5.646   6.766   1.582
14650TIP3   OH243826   1.079   1.245   4.369
14650TIP3    H143827   1.068   1.311   4.438
14650TIP3    H243828   1.093   1.296   4.289
14651TIP3   OH243829   9.416   5.041   2.348
14651TIP3    H143830   9.391   4.985   2.275
14651TIP3    H243831   9.347   5.107   2.353
14652TIP3   OH243832   6.065   1.680   0.572
14652TIP3    H143833   6.002   1.751   0.558
14652TIP3    H243834   6.029   1.606   0.523
14653TIP3   OH243835   2.813   0.010   4.232
14653TIP3    H143836   2.904   0.002   4.261
14653TIP3    H243837   2.784  -0.080   4.220
14654TIP3   OH243838   3.444   5.527   2.947
14654TIP3    H143839   3.372   5.466   2.932
14654TIP3    H243840   3.423   5.570   3.030
14655TIP3   OH243841   6.313   3.405   4.109
14655TIP3    H143842   6.234   3.369   4.069
14655TIP3    H243843   6.322   3.492   4.070
14656TIP3   OH243844   5.634   6.962   4.103
14656TIP3    H143845   5.671   7.005   4.025
14656TIP3    H243846   5.655   7.021   4.175
14657TIP3   OH243847   0.684   8.672   0.406
14657TIP3    H143848   0.720   8.665   0.495
14657TIP3    H243849   0.625   8.597   0.398
14658TIP3   OH243850   9.056   3.345   2.031
14658TIP3    H143851   9.074   3.412   2.096
14658TIP3    H243852   9.116   3.365   1.959
14659TIP3   OH243853   5.509   5.025   0.644
14659TIP3    H143854   5.586   5.077   0.670
14659TIP3    H243855   5.461   5.083   0.585
14660TIP3   OH243856   7.542   1.104   1.634
14660TIP3    H143857   7.480   1.115   1.562
14660TIP3    H243858   7.598   1.031   1.607
14661TIP3   OH243859   6.479   5.368   3.575
14661TIP3    H143860   6.459   5.314   3.498
14661TIP3    H243861   6.496   5.456   3.539
14662TIP3   OH243862   7.994   7.730   4.861
14662TIP3    H143863   7.902   7.756   4.861
14662TIP3    H243864   8.029   7.764   4.778
14663TIP3   OH243865   5.655   8.208   5.245
14663TIP3    H143866   5.676   8.286   5.296
14663TIP3    H243867   5.740   8.180   5.210
14664TIP3   OH243868   6.657   8.496   0.812
14664TIP3    H143869   6.690   8.557   0.879
14664TIP3    H243870   6.668   8.409   0.851
14665TIP3   OH243871   1.417   0.350   5.006
14665TIP3    H143872   1.512   0.347   5.017
14665TIP3    H243873   1.402   0.330   4.914
14666TIP3   OH243874   2.296   4.662   6.168
14666TIP3    H143875   2.243   4.643   6.245
14666TIP3    H243876   2.303   4.758   6.166
14667TIP3   OH243877   8.943   3.919   7.395
14667TIP3    H143878   8.878   3.964   7.341
14667TIP3    H243879   8.999   3.874   7.332
14668TIP3   OH243880   2.192   2.074   5.874
14668TIP3    H143881   2.102   2.080   5.906
14668TIP3    H243882   2.200   2.148   5.813
14669TIP3   OH243883   7.607   7.825   1.771
14669TIP3    H143884   7.630   7.801   1.681
14669TIP3    H243885   7.598   7.742   1.817
14670TIP3   OH243886   1.335   6.254   6.859
14670TIP3    H143887   1.254   6.207   6.840
14670TIP3    H243888   1.403   6.188   6.854
14671TIP3   OH243889   5.097   3.339   4.668
14671TIP3    H143890   5.176   3.387   4.691
14671TIP3    H243891   5.057   3.389   4.597
14672TIP3   OH243892   3.596   0.267   7.491
14672TIP3    H143893   3.664   0.202   7.509
14672TIP3    H243894   3.612   0.295   7.401
14673TIP3   OH243895   2.901   1.745   6.390
14673TIP3    H143896   2.832   1.700   6.341
14673TIP3    H243897   2.974   1.683   6.392
14674TIP3   OH243898   5.140   2.252   0.274
14674TIP3    H143899   5.197   2.176   0.279
14674TIP3    H243900   5.114   2.257   0.182
14675TIP3   OH243901   9.440   2.318   6.683
14675TIP3    H143902   9.501   2.265   6.735
14675TIP3    H243903   9.493   2.389   6.648
14676TIP3   OH243904   1.449   1.168   5.690
14676TIP3    H143905   1.470   1.102   5.623
14676TIP3    H243906   1.414   1.242   5.640
14677TIP3   OH243907   5.409   8.655   6.194
14677TIP3    H143908   5.326   8.655   6.146
14677TIP3    H243909   5.391   8.707   6.272
14678TIP3   OH243910   8.277   1.516   4.051
14678TIP3    H143911   8.331   1.489   3.977
14678TIP3    H243912   8.334   1.505   4.127
14679TIP3   OH243913   7.723   6.011   0.077
14679TIP3    H143914   7.772   5.954   0.019
14679TIP3    H243915   7.698   6.085   0.023
14680TIP3   OH243916   3.961   7.490   3.486
14680TIP3    H143917   3.905   7.509   3.561
14680TIP3    H243918   3.904   7.447   3.423
14681TIP3   OH243919   4.133   0.304   7.277
14681TIP3    H143920   4.199   0.277   7.214
14681TIP3    H243921   4.131   0.233   7.341
14682TIP3   OH243922   5.962   3.645   0.354
14682TIP3    H143923   5.976   3.617   0.445
14682TIP3    H243924   5.981   3.568   0.302
14683TIP3   OH243925   4.928   4.316   4.757
14683TIP3    H143926   4.990   4.302   4.828
14683TIP3    H243927   4.935   4.237   4.703
14684TIP3   OH243928   6.620   4.803   4.765
14684TIP3    H143929   6.693   4.744   4.744
14684TIP3    H243930   6.581   4.766   4.844
14685TIP3   OH243931   0.879   7.676   5.522
14685TIP3    H143932   0.818   7.745   5.546
14685TIP3    H243933   0.922   7.709   5.442
14686TIP3   OH243934   4.332   4.179   0.966
14686TIP3    H143935   4.317   4.260   1.014
14686TIP3    H243936   4.398   4.132   1.018
14687TIP3   OH243937   4.137   4.848   6.088
14687TIP3    H143938   4.052   4.810   6.112
14687TIP3    H243939   4.121   4.942   6.081
14688TIP3   OH243940   9.545   4.919   1.334
14688TIP3    H143941   9.591   4.877   1.405
14688TIP3    H243942   9.551   5.013   1.353
14689TIP3   OH243943   2.255   2.250   0.326
14689TIP3    H143944   2.314   2.216   0.258
14689TIP3    H243945   2.172   2.205   0.311
14690TIP3   OH243946   4.559   2.698   1.570
14690TIP3    H143947   4.628   2.642   1.534
14690TIP3    H243948   4.491   2.700   1.502
14691TIP3   OH243949   0.054   8.922   1.180
14691TIP3    H143950   0.012   8.938   1.264
14691TIP3    H243951   0.063   9.009   1.140
14692TIP3   OH243952   6.375   2.531   1.475
14692TIP3    H143953   6.400   2.616   1.511
14692TIP3    H243954   6.295   2.508   1.521
14693TIP3   OH243955   2.845   1.770   5.247
14693TIP3    H143956   2.869   1.752   5.338
14693TIP3    H243957   2.844   1.683   5.206
14694TIP3   OH243958   7.138   6.996   3.793
14694TIP3    H143959   7.233   6.994   3.781
14694TIP3    H243960   7.117   7.089   3.801
14695TIP3   OH243961   2.196   2.880   5.025
14695TIP3    H143962   2.224   2.964   4.988
14695TIP3    H243963   2.203   2.893   5.120
14696TIP3   OH243964   6.925   5.892   3.704
14696TIP3    H143965   7.001   5.836   3.686
14696TIP3    H243966   6.962   5.981   3.708
14697TIP3   OH243967   3.995   8.307   6.678
14697TIP3    H143968   3.987   8.214   6.697
14697TIP3    H243969   4.057   8.340   6.743
14698TIP3   OH243970   8.623   7.953   7.287
14698TIP3    H143971   8.577   8.029   7.323
14698TIP3    H243972   8.596   7.950   7.195
14699TIP3   OH243973   0.481   0.945   1.592
14699TIP3    H143974   0.466   1.034   1.622
14699TIP3    H243975   0.565   0.947   1.548
14700TIP3   OH243976   0.764   9.006   1.626
14700TIP3    H143977   0.847   9.036   1.589
14700TIP3    H243978   0.787   8.971   1.712
14701TIP3   OH243979   8.212   3.300   0.096
14701TIP3    H143980   8.268   3.226   0.072
14701TIP3    H243981   8.169   3.271   0.177
14702TIP3   OH243982   4.668   2.550   7.753
14702TIP3    H143983   4.678   2.498   7.673
14702TIP3    H243984   4.691   2.490   7.824
14703TIP3   OH243985   1.572   6.972   4.484
14703TIP3    H143986   1.525   6.982   4.567
14703TIP3    H243987   1.640   6.906   4.502
14704TIP3   OH243988   5.145   3.633   4.931
14704TIP3    H143989   5.194   3.589   4.861
14704TIP3    H243990   5.128   3.564   4.995
14705TIP3   OH243991   7.070   2.603   2.448
14705TIP3    H143992   7.054   2.654   2.368
14705TIP3    H243993   6.990   2.552   2.460
14706TIP3   OH243994   4.982   0.176   1.808
14706TIP3    H143995   5.027   0.093   1.791
14706TIP3    H243996   5.027   0.213   1.884
14707TIP3   OH243997   9.511   5.150   6.411
14707TIP3    H143998   9.457   5.174   6.486
14707TIP3    H243999   9.568   5.080   6.443
14708TIP3   OH244000   2.152   1.527   2.535
14708TIP3    H144001   2.215   1.599   2.531
14708TIP3    H244002   2.189   1.459   2.479
14709TIP3   OH244003   8.130   6.020   0.269
14709TIP3    H144004   8.196   6.083   0.241
14709TIP3    H244005   8.096   5.983   0.187
14710TIP3   OH244006   3.330   6.875   4.446
14710TIP3    H144007   3.328   6.828   4.363
14710TIP3    H244008   3.412   6.847   4.487
14711TIP3   OH244009   4.042   0.043   0.230
14711TIP3    H144010   4.077   0.031   0.142
14711TIP3    H244011   4.119   0.052   0.286
14712TIP3   OH244012   1.649   3.092   7.319
14712TIP3    H144013   1.635   3.074   7.412
14712TIP3    H244014   1.742   3.075   7.305
14713TIP3   OH244015   1.246   3.691   4.303
14713TIP3    H144016   1.333   3.653   4.314
14713TIP3    H244017   1.188   3.628   4.347
14714TIP3   OH244018   2.620   5.577   6.239
14714TIP3    H144019   2.531   5.576   6.204
14714TIP3    H244020   2.630   5.665   6.276
14715TIP3   OH244021   1.378   7.296   5.323
14715TIP3    H144022   1.369   7.315   5.416
14715TIP3    H244023   1.435   7.364   5.289
14716TIP3   OH244024   7.004   0.167   3.508
14716TIP3    H144025   6.952   0.195   3.433
14716TIP3    H244026   6.963   0.084   3.536
14717TIP3   OH244027   1.184   2.204   3.898
14717TIP3    H144028   1.116   2.230   3.960
14717TIP3    H244029   1.197   2.110   3.914
14718TIP3   OH244030   0.390   4.215   1.165
14718TIP3    H144031   0.381   4.155   1.239
14718TIP3    H244032   0.315   4.274   1.174
14719TIP3   OH244033   4.695   0.455   7.354
14719TIP3    H144034   4.706   0.550   7.347
14719TIP3    H244035   4.602   0.440   7.335
14720TIP3   OH244036   3.782   7.749   7.174
14720TIP3    H144037   3.722   7.818   7.146
14720TIP3    H244038   3.748   7.721   7.259
14721TIP3   OH244039   4.898   7.488   3.877
14721TIP3    H144040   4.876   7.574   3.841
14721TIP3    H244041   4.993   7.483   3.870
14722TIP3   OH244042   7.239   5.405   4.201
14722TIP3    H144043   7.215   5.366   4.117
14722TIP3    H244044   7.238   5.499   4.184
14723TIP3   OH244045   4.759   8.224   7.254
14723TIP3    H144046   4.837   8.266   7.290
14723TIP3    H244047   4.697   8.222   7.326
14724TIP3   OH244048   4.951   2.083   0.949
14724TIP3    H144049   4.902   2.165   0.939
14724TIP3    H244050   4.917   2.044   1.029
14725TIP3   OH244051   2.038   7.644   0.238
14725TIP3    H144052   2.024   7.556   0.204
14725TIP3    H244053   1.958   7.692   0.218
14726TIP3   OH244054   5.295   3.910   7.240
14726TIP3    H144055   5.238   3.833   7.242
14726TIP3    H244056   5.252   3.968   7.177
14727TIP3   OH244057   2.553   4.699   2.616
14727TIP3    H144058   2.492   4.754   2.666
14727TIP3    H244059   2.564   4.621   2.670
14728TIP3   OH244060   6.271   6.113   3.100
14728TIP3    H144061   6.259   6.018   3.093
14728TIP3    H244062   6.182   6.148   3.105
14729TIP3   OH244063   2.804   7.824   5.541
14729TIP3    H144064   2.801   7.890   5.471
14729TIP3    H244065   2.856   7.752   5.504
14730TIP3   OH244066   3.944   7.638   6.224
14730TIP3    H144067   4.021   7.629   6.168
14730TIP3    H244068   3.927   7.550   6.256
14731TIP3   OH244069   3.071   5.638   4.972
14731TIP3    H144070   3.162   5.629   5.001
14731TIP3    H244071   3.042   5.548   4.957
14732TIP3   OH244072   7.866   0.508   2.224
14732TIP3    H144073   7.775   0.529   2.246
14732TIP3    H244074   7.876   0.416   2.251
14733TIP3   OH244075   9.084   7.515   4.485
14733TIP3    H144076   9.108   7.594   4.437
14733TIP3    H244077   9.167   7.470   4.500
14734TIP3   OH244078   4.533   1.055   7.452
14734TIP3    H144079   4.567   1.029   7.538
14734TIP3    H244080   4.557   1.147   7.444
14735TIP3   OH244081   3.480   2.996   7.501
14735TIP3    H144082   3.389   2.977   7.527
14735TIP3    H244083   3.476   3.083   7.462
14736TIP3   OH244084   4.131   2.408   6.120
14736TIP3    H144085   4.059   2.357   6.156
14736TIP3    H244086   4.093   2.454   6.045
14737TIP3   OH244087   2.718   8.298   3.365
14737TIP3    H144088   2.776   8.238   3.411
14737TIP3    H244089   2.651   8.322   3.429
14738TIP3   OH244090   6.817   2.583   7.350
14738TIP3    H144091   6.791   2.656   7.294
14738TIP3    H244092   6.872   2.529   7.293
14739TIP3   OH244093   0.096   4.538   2.382
14739TIP3    H144094   0.101   4.457   2.432
14739TIP3    H244095   0.121   4.606   2.445
14740TIP3   OH244096   5.816   1.600   3.557
14740TIP3    H144097   5.752   1.544   3.602
14740TIP3    H244098   5.767   1.638   3.484
14741TIP3   OH244099   5.993   3.938   4.450
14741TIP3    H144100   6.011   3.908   4.539
14741TIP3    H244101   5.967   3.858   4.403
14742TIP3   OH244102   2.400   3.506   0.870
14742TIP3    H144103   2.481   3.473   0.911
14742TIP3    H244104   2.353   3.548   0.942
14743TIP3   OH244105  -0.004   3.224   6.948
14743TIP3    H144106   0.058   3.234   7.020
14743TIP3    H244107   0.042   3.167   6.885
14744TIP3   OH244108   4.839   7.523   5.698
14744TIP3    H144109   4.755   7.504   5.741
14744TIP3    H244110   4.900   7.538   5.769
14745TIP3   OH244111   5.595   6.126   5.854
14745TIP3    H144112   5.620   6.056   5.794
14745TIP3    H244113   5.523   6.171   5.810
14746TIP3   OH244114   2.996   8.482   1.591
14746TIP3    H144115   3.019   8.443   1.507
14746TIP3    H244116   2.932   8.422   1.629
14747TIP3   OH244117   8.805   4.688   1.051
14747TIP3    H144118   8.781   4.620   0.988
14747TIP3    H244119   8.898   4.672   1.069
14748TIP3   OH244120   8.101   1.800   1.181
14748TIP3    H144121   8.017   1.792   1.227
14748TIP3    H244122   8.098   1.886   1.139
14749TIP3   OH244123   5.819   5.557   2.627
14749TIP3    H144124   5.793   5.468   2.605
14749TIP3    H244125   5.741   5.610   2.610
14750TIP3   OH244126   7.760   5.499   5.036
14750TIP3    H144127   7.727   5.564   5.099
14750TIP3    H244128   7.850   5.481   5.064
14751TIP3   OH244129   9.140   1.213   5.651
14751TIP3    H144130   9.187   1.146   5.701
14751TIP3    H244131   9.208   1.276   5.626
14752TIP3   OH244132   5.076   3.139   0.562
14752TIP3    H144133   5.083   3.110   0.652
14752TIP3    H244134   5.120   3.070   0.511
14753TIP3   OH244135   8.979   0.000   1.798
14753TIP3    H144136   8.957   0.093   1.790
14753TIP3    H244137   8.954  -0.023   1.887
14754TIP3   OH244138   4.620   2.815   4.673
14754TIP3    H144139   4.664   2.741   4.631
14754TIP3    H244140   4.657   2.818   4.762
14755TIP3   OH244141   9.470   1.214   5.216
14755TIP3    H144142   9.549   1.160   5.214
14755TIP3    H244143   9.493   1.289   5.270
14756TIP3   OH244144   8.404   3.898   2.841
14756TIP3    H144145   8.317   3.857   2.840
14756TIP3    H244146   8.389   3.985   2.805
14757TIP3   OH244147   1.078   3.638   0.098
14757TIP3    H144148   0.995   3.654   0.142
14757TIP3    H244149   1.055   3.613   0.009
14758TIP3   OH244150   4.734   4.738   1.514
14758TIP3    H144151   4.671   4.668   1.530
14758TIP3    H244152   4.714   4.768   1.425
14759TIP3   OH244153   9.181   0.101   2.889
14759TIP3    H144154   9.274   0.089   2.910
14759TIP3    H244155   9.180   0.165   2.819
14760TIP3   OH244156   0.046   4.321   5.061
14760TIP3    H144157   0.001   4.393   5.105
14760TIP3    H244158   0.055   4.253   5.128
14761TIP3   OH244159   5.472   8.835   0.513
14761TIP3    H144160   5.464   8.882   0.596
14761TIP3    H244161   5.534   8.764   0.532
14762TIP3   OH244162   5.761   6.565   0.987
14762TIP3    H144163   5.764   6.660   0.983
14762TIP3    H244164   5.840   6.540   1.034
14763TIP3   OH244165   8.617   0.699   6.487
14763TIP3    H144166   8.626   0.721   6.580
14763TIP3    H244167   8.568   0.617   6.487
14764TIP3   OH244168   4.961   8.417   2.424
14764TIP3    H144169   5.005   8.417   2.339
14764TIP3    H244170   4.922   8.330   2.431
14765TIP3   OH244171   7.872   8.177   1.368
14765TIP3    H144172   7.942   8.177   1.434
14765TIP3    H244173   7.908   8.126   1.295
14766TIP3   OH244174   8.066   6.181   6.227
14766TIP3    H144175   8.040   6.120   6.159
14766TIP3    H244176   8.084   6.263   6.181
14767TIP3   OH244177   0.926   5.888   2.720
14767TIP3    H144178   0.875   5.815   2.685
14767TIP3    H244179   0.938   5.947   2.646
14768TIP3   OH244180   3.568   2.758   4.778
14768TIP3    H144181   3.623   2.714   4.842
14768TIP3    H244182   3.583   2.851   4.792
14769TIP3   OH244183   1.218   7.520   5.832
14769TIP3    H144184   1.140   7.575   5.821
14769TIP3    H244185   1.211   7.488   5.922
14770TIP3   OH244186   6.280   3.200   0.119
14770TIP3    H144187   6.306   3.188   0.028
14770TIP3    H244188   6.316   3.285   0.143
14771TIP3   OH244189   2.797   3.158   5.835
14771TIP3    H144190   2.807   3.114   5.750
14771TIP3    H244191   2.748   3.238   5.815
14772TIP3   OH244192   2.334   6.572   4.662
14772TIP3    H144193   2.423   6.568   4.627
14772TIP3    H244194   2.302   6.659   4.637
14773TIP3   OH244195   0.510   2.431   4.543
14773TIP3    H144196   0.473   2.510   4.580
14773TIP3    H244197   0.589   2.460   4.498
14774TIP3   OH244198   8.534   8.152   3.049
14774TIP3    H144199   8.597   8.222   3.065
14774TIP3    H244200   8.449   8.196   3.051
14775TIP3   OH244201   6.875   4.300   3.753
14775TIP3    H144202   6.875   4.358   3.829
14775TIP3    H244203   6.959   4.318   3.710
14776TIP3   OH244204   4.032   1.025   5.044
14776TIP3    H144205   3.999   1.024   4.955
14776TIP3    H244206   3.958   1.055   5.097
14777TIP3   OH244207   3.750   0.875   5.378
14777TIP3    H144208   3.700   0.916   5.307
14777TIP3    H244209   3.684   0.849   5.442
14778TIP3   OH244210   0.616   7.815   4.978
14778TIP3    H144211   0.542   7.784   4.925
14778TIP3    H244212   0.617   7.910   4.964
14779TIP3   OH244213   7.326   0.718   2.822
14779TIP3    H144214   7.238   0.726   2.857
14779TIP3    H244215   7.360   0.807   2.822
14780TIP3   OH244216   8.937   1.637   0.568
14780TIP3    H144217   8.945   1.639   0.472
14780TIP3    H244218   8.855   1.590   0.584
14781TIP3   OH244219   7.365   2.039   0.773
14781TIP3    H144220   7.336   1.985   0.847
14781TIP3    H244221   7.291   2.037   0.712
14782TIP3   OH244222   9.148   3.176   2.297
14782TIP3    H144223   9.219   3.136   2.347
14782TIP3    H244224   9.190   3.243   2.243
14783TIP3   OH244225   5.919   2.285   2.572
14783TIP3    H144226   5.883   2.347   2.508
14783TIP3    H244227   6.008   2.269   2.542
14784TIP3   OH244228   5.936   8.288   4.572
14784TIP3    H144229   5.990   8.318   4.498
14784TIP3    H244230   5.934   8.363   4.632
14785TIP3   OH244231   4.589   8.434   0.971
14785TIP3    H144232   4.632   8.519   0.980
14785TIP3    H244233   4.564   8.430   0.878
14786TIP3   OH244234   2.237   5.537   6.359
14786TIP3    H144235   2.253   5.610   6.419
14786TIP3    H244236   2.260   5.572   6.273
14787TIP3   OH244237   8.440   0.855   4.089
14787TIP3    H144238   8.514   0.855   4.029
14787TIP3    H244239   8.414   0.947   4.095
14788TIP3   OH244240   7.086   1.104   4.669
14788TIP3    H144241   7.151   1.143   4.611
14788TIP3    H244242   7.106   1.010   4.668
14789TIP3   OH244243   9.556   6.036   5.993
14789TIP3    H144244   9.502   6.046   6.072
14789TIP3    H244245   9.550   6.121   5.949
14790TIP3   OH244246   7.258   1.892   2.360
14790TIP3    H144247   7.236   1.933   2.276
14790TIP3    H244248   7.334   1.942   2.391
14791TIP3   OH244249   3.695   2.732   1.461
14791TIP3    H144250   3.770   2.680   1.433
14791TIP3    H244251   3.623   2.669   1.465
14792TIP3   OH244252   1.769   8.463   6.149
14792TIP3    H144253   1.850   8.453   6.100
14792TIP3    H244254   1.742   8.553   6.133
14793TIP3   OH244255   6.808   1.696   7.092
14793TIP3    H144256   6.834   1.701   7.184
14793TIP3    H244257   6.798   1.602   7.076
14794TIP3   OH244258   7.606   6.894   0.266
14794TIP3    H144259   7.623   6.817   0.211
14794TIP3    H244260   7.667   6.884   0.339
14795TIP3   OH244261   2.553   8.653   1.494
14795TIP3    H144262   2.602   8.641   1.575
14795TIP3    H244263   2.506   8.736   1.505
14796TIP3   OH244264   2.312   6.393   3.484
14796TIP3    H144265   2.224   6.370   3.454
14796TIP3    H244266   2.369   6.329   3.441
14797TIP3   OH244267   3.336   7.376   3.935
14797TIP3    H144268   3.338   7.283   3.916
14797TIP3    H244269   3.409   7.390   3.996
14798TIP3   OH244270   5.387   1.041   6.658
14798TIP3    H144271   5.464   1.052   6.602
14798TIP3    H244272   5.406   0.965   6.712
14799TIP3   OH244273   1.281   8.726   5.035
14799TIP3    H144274   1.303   8.806   4.988
14799TIP3    H244275   1.321   8.737   5.121
14800TIP3   OH244276   2.286   1.423   3.033
14800TIP3    H144277   2.361   1.389   3.081
14800TIP3    H244278   2.267   1.355   2.968
14801TIP3   OH244279   3.946   8.386   3.731
14801TIP3    H144280   3.925   8.296   3.757
14801TIP3    H244281   3.980   8.426   3.811
14802TIP3   OH244282   5.887   7.416   0.568
14802TIP3    H144283   5.860   7.418   0.659
14802TIP3    H244284   5.845   7.493   0.529
14803TIP3   OH244285   1.515   4.331   7.210
14803TIP3    H144286   1.469   4.345   7.128
14803TIP3    H244287   1.448   4.340   7.277
14804TIP3   OH244288   6.683   3.893   1.568
14804TIP3    H144289   6.592   3.872   1.547
14804TIP3    H244290   6.699   3.978   1.526
14805TIP3   OH244291   8.111   3.197   3.209
14805TIP3    H144292   8.028   3.161   3.240
14805TIP3    H244293   8.138   3.138   3.140
14806TIP3   OH244294   3.178   7.963   1.111
14806TIP3    H144295   3.222   8.048   1.107
14806TIP3    H244296   3.142   7.959   1.199
14807TIP3   OH244297   8.894   7.166   6.317
14807TIP3    H144298   8.946   7.176   6.397
14807TIP3    H244299   8.805   7.192   6.343
14808TIP3   OH244300   6.095   8.166   2.461
14808TIP3    H144301   6.152   8.226   2.508
14808TIP3    H244302   6.151   8.128   2.393
14809TIP3   OH244303   6.888   1.316   4.889
14809TIP3    H144304   6.871   1.326   4.983
14809TIP3    H244305   6.861   1.399   4.851
14810TIP3   OH244306   4.083   4.342   1.285
14810TIP3    H144307   4.058   4.331   1.193
14810TIP3    H244308   4.040   4.423   1.312
14811TIP3   OH244309   2.487   7.463   7.324
14811TIP3    H144310   2.437   7.426   7.252
14811TIP3    H244311   2.536   7.536   7.285
14812TIP3   OH244312   6.964   4.884   3.827
14812TIP3    H144313   6.906   4.955   3.798
14812TIP3    H244314   7.051   4.911   3.799
14813TIP3   OH244315   7.647   8.227   7.056
14813TIP3    H144316   7.560   8.231   7.016
14813TIP3    H244317   7.631   8.238   7.150
14814TIP3   OH244318   7.177   0.636   3.564
14814TIP3    H144319   7.123   0.712   3.583
14814TIP3    H244320   7.267   0.668   3.568
14815TIP3   OH244321   3.199   7.234   6.719
14815TIP3    H144322   3.212   7.230   6.813
14815TIP3    H244323   3.255   7.166   6.683
14816TIP3   OH244324   0.459   0.974   6.274
14816TIP3    H144325   0.507   1.057   6.278
14816TIP3    H244326   0.405   0.981   6.195
14817TIP3   OH244327   4.721   8.600   6.823
14817TIP3    H144328   4.793   8.555   6.779
14817TIP3    H244329   4.714   8.555   6.907
14818TIP3   OH244330   7.245   2.662   6.555
14818TIP3    H144331   7.260   2.682   6.462
14818TIP3    H244332   7.153   2.684   6.570
14819TIP3   OH244333   6.704   0.444   2.856
14819TIP3    H144334   6.711   0.349   2.848
14819TIP3    H244335   6.672   0.473   2.770
14820TIP3   OH244336   3.201   0.311   7.509
14820TIP3    H144337   3.152   0.393   7.518
14820TIP3    H244338   3.246   0.319   7.425
14821TIP3   OH244339   7.240   2.095   0.157
14821TIP3    H144340   7.241   2.123   0.066
14821TIP3    H244341   7.164   2.138   0.195
14822TIP3   OH244342   7.315   5.812   5.115
14822TIP3    H144343   7.342   5.898   5.148
14822TIP3    H244344   7.393   5.777   5.072
14823TIP3   OH244345   6.798   1.209   3.792
14823TIP3    H144346   6.745   1.275   3.748
14823TIP3    H244347   6.790   1.230   3.885
14824TIP3   OH244348   3.849   7.641   0.635
14824TIP3    H144349   3.870   7.731   0.612
14824TIP3    H244350   3.916   7.616   0.700
14825TIP3   OH244351   3.724   2.231   0.476
14825TIP3    H144352   3.662   2.268   0.413
14825TIP3    H244353   3.685   2.249   0.561
14826TIP3   OH244354   3.854   9.001   6.421
14826TIP3    H144355   3.893   9.088   6.406
14826TIP3    H244356   3.871   8.954   6.339
14827TIP3   OH244357   3.072   8.839   3.501
14827TIP3    H144358   3.003   8.820   3.565
14827TIP3    H244359   3.040   8.801   3.419
14828TIP3   OH244360   4.407   2.785   4.496
14828TIP3    H144361   4.440   2.788   4.586
14828TIP3    H244362   4.456   2.853   4.450
14829TIP3   OH244363   9.396   2.474   4.533
14829TIP3    H144364   9.423   2.442   4.620
14829TIP3    H244365   9.477   2.474   4.482
14830TIP3   OH244366   1.544   1.456   7.479
14830TIP3    H144367   1.557   1.544   7.443
14830TIP3    H244368   1.452   1.437   7.463
14831TIP3   OH244369   7.183   0.191   1.755
14831TIP3    H144370   7.264   0.175   1.804
14831TIP3    H244371   7.114   0.150   1.807
14832TIP3   OH244372   1.643   0.464   1.905
14832TIP3    H144373   1.632   0.430   1.816
14832TIP3    H244374   1.695   0.398   1.950
14833TIP3   OH244375   3.998   8.936   1.318
14833TIP3    H144376   3.945   8.907   1.243
14833TIP3    H244377   4.056   8.862   1.336
14834TIP3   OH244378   1.167   2.051   4.250
14834TIP3    H144379   1.116   2.131   4.267
14834TIP3    H244380   1.134   1.988   4.314
14835TIP3   OH244381   0.350   1.245   0.672
14835TIP3    H144382   0.316   1.159   0.649
14835TIP3    H244383   0.401   1.272   0.596
14836TIP3   OH244384   4.731   0.510   6.243
14836TIP3    H144385   4.706   0.583   6.186
14836TIP3    H244386   4.815   0.480   6.208
14837TIP3   OH244387   0.268   3.688   6.898
14837TIP3    H144388   0.293   3.602   6.865
14837TIP3    H244389   0.190   3.673   6.951
14838TIP3   OH244390   3.527   6.093   1.485
14838TIP3    H144391   3.588   6.073   1.414
14838TIP3    H244392   3.504   6.007   1.521
14839TIP3   OH244393   2.869   3.622   0.232
14839TIP3    H144394   2.948   3.578   0.200
14839TIP3    H244395   2.881   3.714   0.206
14840TIP3   OH244396   7.163   7.800   3.449
14840TIP3    H144397   7.152   7.712   3.414
14840TIP3    H244398   7.202   7.787   3.535
14841TIP3   OH244399   6.486   6.677   3.998
14841TIP3    H144400   6.443   6.649   4.079
14841TIP3    H244401   6.569   6.629   3.997
14842TIP3   OH244402   8.884   1.923   7.032
14842TIP3    H144403   8.966   1.883   7.001
14842TIP3    H244404   8.860   1.984   6.963
14843TIP3   OH244405   5.203   0.845   2.581
14843TIP3    H144406   5.171   0.935   2.577
14843TIP3    H244407   5.190   0.819   2.672
14844TIP3   OH244408   4.994   1.582   7.337
14844TIP3    H144409   4.945   1.570   7.255
14844TIP3    H244410   5.031   1.670   7.331
14845TIP3   OH244411   4.623   8.152   5.398
14845TIP3    H144412   4.549   8.182   5.451
14845TIP3    H244413   4.644   8.227   5.342
14846TIP3   OH244414   5.993   3.121  -0.001
14846TIP3    H144415   5.954   3.142   0.084
14846TIP3    H244416   6.064   3.184  -0.011
14847TIP3   OH244417   1.226   1.715   0.857
14847TIP3    H144418   1.313   1.675   0.862
14847TIP3    H244419   1.242   1.809   0.858
14848TIP3   OH244420   0.686   6.166   5.506
14848TIP3    H144421   0.640   6.235   5.457
14848TIP3    H244422   0.647   6.084   5.475
14849TIP3   OH244423   1.852   0.692   2.642
14849TIP3    H144424   1.947   0.704   2.648
14849TIP3    H244425   1.816   0.757   2.702
14850TIP3   OH244426   4.747   5.956   6.325
14850TIP3    H144427   4.804   6.025   6.292
14850TIP3    H244428   4.804   5.900   6.377
14851TIP3   OH244429   8.725   7.976   1.597
14851TIP3    H144430   8.676   7.959   1.677
14851TIP3    H244431   8.776   7.897   1.583
14852TIP3   OH244432   5.941   7.391   1.633
14852TIP3    H144433   6.026   7.423   1.662
14852TIP3    H244434   5.963   7.322   1.569
14853TIP3   OH244435   8.857   5.084   6.426
14853TIP3    H144436   8.782   5.075   6.367
14853TIP3    H244437   8.820   5.115   6.508
14854TIP3   OH244438   5.358   3.373   5.366
14854TIP3    H144439   5.365   3.279   5.378
14854TIP3    H244440   5.299   3.402   5.436
14855TIP3   OH244441   8.850   5.728   1.408
14855TIP3    H144442   8.850   5.822   1.389
14855TIP3    H244443   8.759   5.709   1.435
14856TIP3   OH244444   1.360   2.019   4.767
14856TIP3    H144445   1.361   2.113   4.785
14856TIP3    H244446   1.353   2.013   4.672
14857TIP3   OH244447   0.578   0.262   4.126
14857TIP3    H144448   0.628   0.196   4.173
14857TIP3    H244449   0.632   0.285   4.051
14858TIP3   OH244450   0.667   7.215   0.559
14858TIP3    H144451   0.713   7.166   0.628
14858TIP3    H244452   0.591   7.253   0.603
14859TIP3   OH244453   9.466   2.072   6.216
14859TIP3    H144454   9.375   2.055   6.193
14859TIP3    H244455   9.462   2.130   6.292
14860TIP3   OH244456   4.913   3.154   7.401
14860TIP3    H144457   4.833   3.152   7.348
14860TIP3    H244458   4.984   3.166   7.338
14861TIP3   OH244459   8.690   5.126   4.849
14861TIP3    H144460   8.647   5.047   4.816
14861TIP3    H244461   8.630   5.197   4.827
14862TIP3   OH244462   6.299   7.487   6.711
14862TIP3    H144463   6.368   7.421   6.722
14862TIP3    H244464   6.314   7.549   6.782
14863TIP3   OH244465   8.803   8.125   2.695
14863TIP3    H144466   8.718   8.158   2.722
14863TIP3    H244467   8.817   8.047   2.749
14864TIP3   OH244468   4.581   0.478   2.342
14864TIP3    H144469   4.573   0.455   2.435
14864TIP3    H244470   4.563   0.397   2.295
14865TIP3   OH244471   2.227   2.694   2.828
14865TIP3    H144472   2.267   2.631   2.768
14865TIP3    H244473   2.296   2.715   2.891
14866TIP3   OH244474   2.628   1.879   4.075
14866TIP3    H144475   2.666   1.955   4.119
14866TIP3    H244476   2.635   1.899   3.982
14867TIP3   OH244477   3.751   8.884   3.258
14867TIP3    H144478   3.763   8.958   3.198
14867TIP3    H244479   3.750   8.807   3.202
14868TIP3   OH244480   7.459   9.001   7.554
14868TIP3    H144481   7.429   8.927   7.607
14868TIP3    H244482   7.397   9.005   7.481
14869TIP3   OH244483   8.590   6.026   6.572
14869TIP3    H144484   8.544   6.013   6.655
14869TIP3    H244485   8.571   5.946   6.522
14870TIP3   OH244486   2.010   1.212   7.467
14870TIP3    H144487   1.936   1.239   7.521
14870TIP3    H244488   1.972   1.191   7.382
14871TIP3   OH244489   0.633   2.497   2.252
14871TIP3    H144490   0.539   2.514   2.255
14871TIP3    H244491   0.646   2.445   2.174
14872TIP3   OH244492   2.748   1.145   0.869
14872TIP3    H144493   2.771   1.236   0.890
14872TIP3    H244494   2.740   1.102   0.954
14873TIP3   OH244495   4.126   3.435   3.170
14873TIP3    H144496   4.197   3.457   3.110
14873TIP3    H244497   4.169   3.426   3.255
14874TIP3   OH244498   0.817   7.049   6.734
14874TIP3    H144499   0.751   6.981   6.718
14874TIP3    H244500   0.766   7.128   6.753
14875TIP3   OH244501   3.703   7.613   1.467
14875TIP3    H144502   3.727   7.704   1.453
14875TIP3    H244503   3.651   7.613   1.547
14876TIP3   OH244504   1.061   2.909   4.674
14876TIP3    H144505   1.026   2.840   4.617
14876TIP3    H244506   1.119   2.959   4.617
14877TIP3   OH244507   9.528   5.549   3.258
14877TIP3    H144508   9.612   5.589   3.236
14877TIP3    H244509   9.523   5.554   3.353
14878TIP3   OH244510   2.568   2.552   3.366
14878TIP3    H144511   2.485   2.514   3.337
14878TIP3    H244512   2.558   2.561   3.461
14879TIP3   OH244513   1.851   7.198   2.234
14879TIP3    H144514   1.768   7.168   2.270
14879TIP3    H244515   1.850   7.168   2.143
14880TIP3   OH244516   9.072   4.219   0.604
14880TIP3    H144517   8.978   4.201   0.598
14880TIP3    H244518   9.091   4.216   0.697
14881TIP3   OH244519   3.916   5.132   2.697
14881TIP3    H144520   3.924   5.079   2.618
14881TIP3    H244521   3.876   5.073   2.761
14882TIP3   OH244522   6.294   8.852   7.304
14882TIP3    H144523   6.249   8.806   7.233
14882TIP3    H244524   6.277   8.798   7.382
14883TIP3   OH244525   0.029   0.683   6.528
14883TIP3    H144526   0.117   0.663   6.557
14883TIP3    H244527  -0.026   0.666   6.604
14884TIP3   OH244528   1.818   6.492   4.855
14884TIP3    H144529   1.874   6.422   4.889
14884TIP3    H244530   1.843   6.569   4.906
14885TIP3   OH244531   3.466   4.962   6.001
14885TIP3    H144532   3.459   4.973   5.906
14885TIP3    H244533   3.432   4.874   6.017
14886TIP3   OH244534   7.611   8.169   0.520
14886TIP3    H144535   7.644   8.101   0.460
14886TIP3    H244536   7.565   8.230   0.463
14887TIP3   OH244537   5.584   3.406   0.210
14887TIP3    H144538   5.569   3.317   0.241
14887TIP3    H244539   5.550   3.462   0.280
14888TIP3   OH244540   7.409   2.842   7.691
14888TIP3    H144541   7.443   2.759   7.725
14888TIP3    H244542   7.335   2.863   7.748
14889TIP3   OH244543   2.764   7.315   4.936
14889TIP3    H144544   2.851   7.274   4.935
14889TIP3    H244545   2.756   7.355   4.849
14890TIP3   OH244546   0.675   2.469   3.846
14890TIP3    H144547   0.589   2.467   3.802
14890TIP3    H244548   0.692   2.562   3.861
14891TIP3   OH244549   6.714   0.619   6.608
14891TIP3    H144550   6.764   0.572   6.675
14891TIP3    H244551   6.770   0.693   6.584
14892TIP3   OH244552   6.946   4.274   3.372
14892TIP3    H144553   6.889   4.334   3.419
14892TIP3    H244554   7.028   4.323   3.362
14893TIP3   OH244555   4.947   3.493   4.511
14893TIP3    H144556   4.885   3.432   4.472
14893TIP3    H244557   4.913   3.580   4.489
14894TIP3   OH244558   7.814   4.069   7.144
14894TIP3    H144559   7.846   4.039   7.059
14894TIP3    H244560   7.889   4.112   7.184
14895TIP3   OH244561   1.712   6.026   0.474
14895TIP3    H144562   1.653   6.101   0.482
14895TIP3    H244563   1.791   6.052   0.522
14896TIP3   OH244564   7.471   2.661   5.791
14896TIP3    H144565   7.516   2.658   5.875
14896TIP3    H244566   7.538   2.636   5.727
14897TIP3   OH244567   9.362   1.024   0.772
14897TIP3    H144568   9.284   1.016   0.827
14897TIP3    H244569   9.433   0.990   0.826
14898TIP3   OH244570   2.886   6.627   5.116
14898TIP3    H144571   2.904   6.544   5.073
14898TIP3    H244572   2.971   6.655   5.151
14899TIP3   OH244573   3.179   4.612   2.387
14899TIP3    H144574   3.166   4.706   2.375
14899TIP3    H244575   3.127   4.572   2.317
14900TIP3   OH244576   6.792   0.002   5.346
14900TIP3    H144577   6.866   0.054   5.376
14900TIP3    H244578   6.730   0.067   5.311
14901TIP3   OH244579   8.129   2.185   7.541
14901TIP3    H144580   8.164   2.118   7.600
14901TIP3    H244581   8.164   2.162   7.455
14902TIP3   OH244582   3.954   8.949   6.667
14902TIP3    H144583   4.043   8.953   6.631
14902TIP3    H244584   3.897   8.967   6.593
14903TIP3   OH244585   3.751   0.975   4.564
14903TIP3    H144586   3.740   0.983   4.659
14903TIP3    H244587   3.759   1.065   4.533
14904TIP3   OH244588   7.347   3.736   0.798
14904TIP3    H144589   7.347   3.661   0.738
14904TIP3    H244590   7.394   3.805   0.750
14905TIP3   OH244591   8.699   5.249   2.289
14905TIP3    H144592   8.667   5.161   2.308
14905TIP3    H244593   8.621   5.297   2.261
14906TIP3   OH244594   9.318   2.473   5.736
14906TIP3    H144595   9.385   2.456   5.802
14906TIP3    H244596   9.255   2.530   5.779
14907TIP3   OH244597   4.193   0.105   6.299
14907TIP3    H144598   4.160   0.126   6.387
14907TIP3    H244599   4.182   0.186   6.249
14908TIP3   OH244600   7.526   4.485   3.896
14908TIP3    H144601   7.451   4.426   3.908
14908TIP3    H244602   7.488   4.573   3.898
14909TIP3   OH244603   7.080   3.257   4.826
14909TIP3    H144604   7.168   3.241   4.793
14909TIP3    H244605   7.031   3.288   4.750
14910TIP3   OH244606   5.068   4.132   5.193
14910TIP3    H144607   5.062   4.198   5.124
14910TIP3    H244608   4.995   4.151   5.252
14911TIP3   OH244609   3.412   2.199   4.165
14911TIP3    H144610   3.451   2.280   4.198
14911TIP3    H244611   3.342   2.179   4.227
14912TIP3   OH244612   9.210   3.162   3.056
14912TIP3    H144613   9.126   3.117   3.065
14912TIP3    H244614   9.207   3.201   2.968
14913TIP3   OH244615   8.150   0.999   6.657
14913TIP3    H144616   8.199   0.926   6.696
14913TIP3    H244617   8.149   0.978   6.563
14914TIP3   OH244618   2.880   5.144   4.743
14914TIP3    H144619   2.829   5.220   4.714
14914TIP3    H244620   2.957   5.144   4.685
14915TIP3   OH244621   8.251   0.551   2.986
14915TIP3    H144622   8.294   0.615   2.929
14915TIP3    H244623   8.200   0.605   3.047
14916TIP3   OH244624   5.060   4.865   4.584
14916TIP3    H144625   5.110   4.904   4.655
14916TIP3    H244626   5.098   4.903   4.504
14917TIP3   OH244627   0.590   5.372   7.764
14917TIP3    H144628   0.535   5.294   7.752
14917TIP3    H244629   0.668   5.340   7.809
14918TIP3   OH244630   3.114   2.131   0.497
14918TIP3    H144631   3.096   2.165   0.585
14918TIP3    H244632   3.193   2.178   0.469
14919TIP3   OH244633   6.067   8.438   2.671
14919TIP3    H144634   6.072   8.390   2.754
14919TIP3    H244635   6.022   8.519   2.693
14920TIP3   OH244636   4.175   5.635   3.531
14920TIP3    H144637   4.147   5.647   3.621
14920TIP3    H244638   4.137   5.551   3.505
14921TIP3   OH244639   1.633   5.522   1.042
14921TIP3    H144640   1.687   5.576   0.984
14921TIP3    H244641   1.694   5.457   1.078
14922TIP3   OH244642   3.576   4.730   2.466
14922TIP3    H144643   3.617   4.646   2.483
14922TIP3    H244644   3.502   4.734   2.526
14923TIP3   OH244645   9.511   1.252   2.631
14923TIP3    H144646   9.511   1.347   2.619
14923TIP3    H244647   9.596   1.233   2.672
14924TIP3   OH244648   6.853   6.490   5.732
14924TIP3    H144649   6.843   6.458   5.642
14924TIP3    H244650   6.911   6.566   5.724
14925TIP3   OH244651   7.586   1.581   3.202
14925TIP3    H144652   7.517   1.516   3.200
14925TIP3    H244653   7.647   1.555   3.132
14926TIP3   OH244654   4.111   0.431   1.421
14926TIP3    H144655   4.044   0.404   1.484
14926TIP3    H244656   4.184   0.459   1.476
14927TIP3   OH244657   7.496   2.624   0.454
14927TIP3    H144658   7.435   2.585   0.392
14927TIP3    H244659   7.441   2.679   0.511
14928TIP3   OH244660   8.716   7.385   7.498
14928TIP3    H144661   8.709   7.409   7.405
14928TIP3    H244662   8.677   7.459   7.545
14929TIP3   OH244663   8.158   6.892   2.614
14929TIP3    H144664   8.217   6.891   2.689
14929TIP3    H244665   8.134   6.800   2.601
14930TIP3   OH244666   9.238   1.973   4.403
14930TIP3    H144667   9.238   2.055   4.453
14930TIP3    H244668   9.284   1.996   4.322
14931TIP3   OH244669   6.281   1.139   4.217
14931TIP3    H144670   6.224   1.148   4.293
14931TIP3    H244671   6.351   1.080   4.246
14932TIP3   OH244672   9.091   7.457   5.448
14932TIP3    H144673   9.004   7.458   5.409
14932TIP3    H244674   9.120   7.366   5.441
14933TIP3   OH244675   4.623   7.850   0.652
14933TIP3    H144676   4.610   7.927   0.597
14933TIP3    H244677   4.654   7.782   0.592
14934TIP3   OH244678   3.841   0.234   0.714
14934TIP3    H144679   3.927   0.261   0.747
14934TIP3    H244680   3.825   0.292   0.640
14935TIP3   OH244681   1.999   2.481   5.848
14935TIP3    H144682   1.997   2.451   5.757
14935TIP3    H244683   2.043   2.410   5.895
14936TIP3   OH244684   6.054   0.243   7.575
14936TIP3    H144685   6.032   0.321   7.626
14936TIP3    H244686   5.972   0.220   7.531
14937TIP3   OH244687   8.495   7.760   7.444
14937TIP3    H144688   8.458   7.798   7.524
14937TIP3    H244689   8.519   7.836   7.391
14938TIP3   OH244690   8.913   2.559   1.130
14938TIP3    H144691   8.985   2.565   1.067
14938TIP3    H244692   8.950   2.594   1.211
14939TIP3   OH244693   1.157   0.313   0.572
14939TIP3    H144694   1.153   0.409   0.571
14939TIP3    H244695   1.070   0.286   0.541
14940TIP3   OH244696   6.966   1.574   2.900
14940TIP3    H144697   7.045   1.609   2.859
14940TIP3    H244698   6.998   1.505   2.958
14941TIP3   OH244699   9.522   0.502   7.127
14941TIP3    H144700   9.434   0.522   7.095
14941TIP3    H244701   9.542   0.416   7.089
14942TIP3   OH244702   3.133   8.347   1.395
14942TIP3    H144703   3.197   8.277   1.378
14942TIP3    H244704   3.164   8.420   1.341
14943TIP3   OH244705   5.038   6.487   2.297
14943TIP3    H144706   5.052   6.437   2.217
14943TIP3    H244707   4.989   6.428   2.354
14944TIP3   OH244708   3.982   0.154   5.864
14944TIP3    H144709   4.045   0.221   5.891
14944TIP3    H244710   4.006   0.134   5.774
14945TIP3   OH244711   5.777   0.893   5.989
14945TIP3    H144712   5.832   0.937   5.925
14945TIP3    H244713   5.696   0.943   5.991
14946TIP3   OH244714   5.828   0.748   7.596
14946TIP3    H144715   5.830   0.686   7.523
14946TIP3    H244716   5.874   0.703   7.667
14947TIP3   OH244717   6.320   4.686   1.408
14947TIP3    H144718   6.381   4.751   1.373
14947TIP3    H244719   6.318   4.617   1.341
14948TIP3   OH244720   3.059   6.980   7.459
14948TIP3    H144721   3.106   6.896   7.467
14948TIP3    H244722   3.045   6.989   7.365
14949TIP3   OH244723   3.953   3.643   2.436
14949TIP3    H144724   3.981   3.697   2.362
14949TIP3    H244725   3.857   3.649   2.434
14950TIP3   OH244726   1.675   6.326   5.198
14950TIP3    H144727   1.718   6.241   5.190
14950TIP3    H244728   1.622   6.319   5.277
14951TIP3   OH244729   3.236   8.649   1.544
14951TIP3    H144730   3.278   8.605   1.470
14951TIP3    H244731   3.153   8.603   1.555
14952TIP3   OH244732   0.963   0.123   7.214
14952TIP3    H144733   1.018   0.201   7.228
14952TIP3    H244734   0.996   0.085   7.133
14953TIP3   OH244735   1.597   2.703   7.455
14953TIP3    H144736   1.537   2.777   7.463
14953TIP3    H244737   1.642   2.700   7.540
14954TIP3   OH244738   0.102   1.548   3.650
14954TIP3    H144739   0.084   1.618   3.587
14954TIP3    H244740   0.197   1.550   3.661
14955TIP3   OH244741   0.884   6.859   6.031
14955TIP3    H144742   0.806   6.905   6.001
14955TIP3    H244743   0.947   6.928   6.052
14956TIP3   OH244744   7.733   6.135   7.422
14956TIP3    H144745   7.803   6.197   7.402
14956TIP3    H244746   7.709   6.096   7.338
14957TIP3   OH244747   3.305   8.261   5.583
14957TIP3    H144748   3.316   8.166   5.590
14957TIP3    H244749   3.391   8.297   5.602
14958TIP3   OH244750   5.351   1.528   3.085
14958TIP3    H144751   5.278   1.581   3.116
14958TIP3    H244752   5.408   1.518   3.160
14959TIP3   OH244753   1.700   6.540   5.742
14959TIP3    H144754   1.617   6.508   5.778
14959TIP3    H244755   1.694   6.523   5.649
14960TIP3   OH244756   5.275   7.511   5.002
14960TIP3    H144757   5.303   7.515   5.094
14960TIP3    H244758   5.248   7.420   4.989
14961TIP3   OH244759   3.743   4.719   2.764
14961TIP3    H144760   3.766   4.699   2.855
14961TIP3    H244761   3.825   4.706   2.716
14962TIP3   OH244762   4.004   7.640   7.068
14962TIP3    H144763   3.999   7.546   7.086
14962TIP3    H244764   3.929   7.677   7.115
14963TIP3   OH244765   5.990   3.464   6.622
14963TIP3    H144766   5.960   3.376   6.600
14963TIP3    H244767   6.029   3.454   6.709
14964TIP3   OH244768   8.295   7.443   3.167
14964TIP3    H144769   8.302   7.512   3.101
14964TIP3    H244770   8.384   7.436   3.203
14965TIP3   OH244771   3.614   5.711   1.423
14965TIP3    H144772   3.709   5.725   1.423
14965TIP3    H244773   3.586   5.737   1.511
14966TIP3   OH244774   4.509   8.457   6.676
14966TIP3    H144775   4.420   8.484   6.700
14966TIP3    H244776   4.565   8.499   6.742
14967TIP3   OH244777   3.898   4.797   6.272
14967TIP3    H144778   3.888   4.880   6.318
14967TIP3    H244779   3.812   4.781   6.232
14968TIP3   OH244780   0.878   2.395   2.823
14968TIP3    H144781   0.807   2.347   2.782
14968TIP3    H244782   0.903   2.461   2.759
14969TIP3   OH244783   7.619   7.944   5.637
14969TIP3    H144784   7.679   8.009   5.674
14969TIP3    H244785   7.642   7.862   5.681
14970TIP3   OH244786   4.375   8.829   5.333
14970TIP3    H144787   4.331   8.836   5.418
14970TIP3    H244788   4.432   8.906   5.329
14971TIP3   OH244789   7.906   3.471   3.352
14971TIP3    H144790   7.945   3.455   3.267
14971TIP3    H244791   7.893   3.384   3.390
14972TIP3   OH244792   4.758   8.651   1.892
14972TIP3    H144793   4.830   8.639   1.954
14972TIP3    H244794   4.786   8.726   1.838
14973TIP3   OH244795   2.999   6.874   2.073
14973TIP3    H144796   2.974   6.791   2.034
14973TIP3    H244797   2.916   6.917   2.093
14974TIP3   OH244798   3.477   6.154   4.499
14974TIP3    H144799   3.405   6.101   4.465
14974TIP3    H244800   3.447   6.183   4.585
14975TIP3   OH244801   6.349   2.665   4.667
14975TIP3    H144802   6.329   2.748   4.710
14975TIP3    H244803   6.427   2.683   4.615
14976TIP3   OH244804   9.085   6.072   2.885
14976TIP3    H144805   9.079   5.979   2.910
14976TIP3    H244806   9.152   6.073   2.816
14977TIP3   OH244807   7.460   3.161   6.152
14977TIP3    H144808   7.483   3.227   6.217
14977TIP3    H244809   7.436   3.084   6.203
14978TIP3   OH244810   5.845   6.791   6.893
14978TIP3    H144811   5.904   6.866   6.900
14978TIP3    H244812   5.766   6.819   6.939
14979TIP3   OH244813   1.339   6.595   1.362
14979TIP3    H144814   1.427   6.626   1.339
14979TIP3    H244815   1.338   6.503   1.335
14980TIP3   OH244816   0.925   5.947   1.703
14980TIP3    H144817   0.934   6.043   1.699
14980TIP3    H244818   0.905   5.921   1.613
14981TIP3   OH244819   6.413   2.553   2.077
14981TIP3    H144820   6.493   2.510   2.108
14981TIP3    H244821   6.438   2.645   2.066
14982TIP3   OH244822   4.815   2.008   2.221
14982TIP3    H144823   4.804   1.956   2.301
14982TIP3    H244824   4.747   2.076   2.227
14983TIP3   OH244825   2.785   2.143   1.448
14983TIP3    H144826   2.781   2.049   1.429
14983TIP3    H244827   2.822   2.181   1.368
14984TIP3   OH244828   3.264   6.925   2.426
14984TIP3    H144829   3.229   6.842   2.459
14984TIP3    H244830   3.322   6.956   2.495
14985TIP3   OH244831   7.760   4.272   2.633
14985TIP3    H144832   7.780   4.293   2.724
14985TIP3    H244833   7.835   4.223   2.602
14986TIP3   OH244834   2.428   2.059   1.430
14986TIP3    H144835   2.488   2.065   1.355
14986TIP3    H244836   2.423   1.966   1.450
14987TIP3   OH244837   7.905   6.674   4.906
14987TIP3    H144838   7.985   6.696   4.859
14987TIP3    H244839   7.928   6.599   4.960
14988TIP3   OH244840   7.664   7.102   5.332
14988TIP3    H144841   7.666   7.025   5.275
14988TIP3    H244842   7.578   7.141   5.317
14989TIP3   OH244843   7.356   3.374   4.485
14989TIP3    H144844   7.313   3.443   4.536
14989TIP3    H244845   7.289   3.347   4.421
14990TIP3   OH244846   6.991   3.307   0.477
14990TIP3    H144847   6.931   3.239   0.507
14990TIP3    H244848   6.959   3.332   0.391
14991TIP3   OH244849   8.669   7.580   6.605
14991TIP3    H144850   8.584   7.593   6.646
14991TIP3    H244851   8.705   7.669   6.595
14992TIP3   OH244852   4.387   0.883   1.038
14992TIP3    H144853   4.396   0.978   1.033
14992TIP3    H244854   4.450   0.849   0.974
14993TIP3   OH244855   3.587   0.353   6.942
14993TIP3    H144856   3.660   0.401   6.904
14993TIP3    H244857   3.522   0.421   6.963
14994TIP3   OH244858   2.809   8.011   0.938
14994TIP3    H144859   2.888   8.060   0.965
14994TIP3    H244860   2.837   7.961   0.861
14995TIP3   OH244861   0.321   5.770   7.277
14995TIP3    H144862   0.301   5.845   7.220
14995TIP3    H244863   0.403   5.794   7.320
14996TIP3   OH244864   6.675   2.080   3.501
14996TIP3    H144865   6.679   2.064   3.596
14996TIP3    H244866   6.734   2.015   3.463
14997TIP3   OH244867   1.595   7.181   3.841
14997TIP3    H144868   1.624   7.184   3.933
14997TIP3    H244869   1.501   7.165   3.846
14998TIP3   OH244870   5.579   7.311   0.944
14998TIP3    H144871   5.547   7.326   1.032
14998TIP3    H244872   5.674   7.316   0.951
14999TIP3   OH244873   3.155   0.542   1.180
14999TIP3    H144874   3.229   0.566   1.123
14999TIP3    H244875   3.096   0.494   1.122
15000TIP3   OH244876   4.597   8.881   0.808
15000TIP3    H144877   4.525   8.874   0.871
15000TIP3    H244878   4.633   8.968   0.824
15001TIP3   OH244879   1.115   1.813   7.096
15001TIP3    H144880   1.059   1.804   7.172
15001TIP3    H244881   1.097   1.901   7.063
15002TIP3   OH244882   1.532   3.348   1.275
15002TIP3    H144883   1.481   3.333   1.354
15002TIP3    H244884   1.592   3.419   1.297
15003TIP3   OH244885   3.170   5.514   0.320
15003TIP3    H144886   3.239   5.483   0.261
15003TIP3    H244887   3.155   5.442   0.381
15004TIP3   OH244888   8.277   1.944   7.396
15004TIP3    H144889   8.251   1.965   7.306
15004TIP3    H244890   8.219   1.872   7.421
15005TIP3   OH244891   5.603   0.440   0.665
15005TIP3    H144892   5.565   0.383   0.598
15005TIP3    H244893   5.593   0.391   0.747
15006TIP3   OH244894   6.644   4.756   2.122
15006TIP3    H144895   6.674   4.666   2.113
15006TIP3    H244896   6.652   4.794   2.035
15007TIP3   OH244897   4.886   1.981   5.782
15007TIP3    H144898   4.922   1.960   5.868
15007TIP3    H244899   4.853   1.897   5.749
15008TIP3   OH244900   2.648   3.859   2.497
15008TIP3    H144901   2.553   3.852   2.496
15008TIP3    H244902   2.665   3.940   2.547
15009TIP3   OH244903   1.579   5.013   7.433
15009TIP3    H144904   1.592   5.093   7.383
15009TIP3    H244905   1.608   5.035   7.522
15010TIP3   OH244906   4.404   4.662   5.095
15010TIP3    H144907   4.391   4.621   5.181
15010TIP3    H244908   4.468   4.607   5.051
15011TIP3   OH244909   5.315   0.243   1.883
15011TIP3    H144910   5.248   0.280   1.940
15011TIP3    H244911   5.392   0.299   1.896
15012TIP3   OH244912   1.001   4.991   3.640
15012TIP3    H144913   1.090   4.988   3.605
15012TIP3    H244914   0.952   4.929   3.586
15013TIP3   OH244915   6.032   7.164   6.486
15013TIP3    H144916   6.020   7.252   6.451
15013TIP3    H244917   5.955   7.116   6.456
15014TIP3   OH244918   4.482   5.790   6.238
15014TIP3    H144919   4.551   5.853   6.256
15014TIP3    H244920   4.431   5.828   6.167
15015TIP3   OH244921   1.269   7.215   0.232
15015TIP3    H144922   1.250   7.243   0.143
15015TIP3    H244923   1.348   7.161   0.223
15016TIP3   OH244924   2.517   7.384   1.251
15016TIP3    H144925   2.591   7.396   1.310
15016TIP3    H244926   2.440   7.410   1.303
15017TIP3   OH244927   9.464   0.105   6.111
15017TIP3    H144928   9.495   0.036   6.169
15017TIP3    H244929   9.454   0.181   6.167
15018TIP3   OH244930   2.274   0.631   0.779
15018TIP3    H144931   2.330   0.709   0.783
15018TIP3    H244932   2.216   0.647   0.704
15019TIP3   OH244933   4.754   0.755   6.111
15019TIP3    H144934   4.757   0.818   6.183
15019TIP3    H244935   4.829   0.777   6.056
15020TIP3   OH244936   5.555   0.752   2.734
15020TIP3    H144937   5.548   0.766   2.828
15020TIP3    H244938   5.590   0.834   2.700
15021TIP3   OH244939   3.308   3.618   6.972
15021TIP3    H144940   3.227   3.606   6.922
15021TIP3    H244941   3.349   3.695   6.933
15022TIP3   OH244942   6.129   0.960   2.517
15022TIP3    H144943   6.220   0.948   2.543
15022TIP3    H244944   6.081   0.967   2.600
15023TIP3   OH244945   1.482   2.696   3.065
15023TIP3    H144946   1.572   2.715   3.091
15023TIP3    H244947   1.444   2.782   3.047
15024TIP3   OH244948   1.910   8.381   4.986
15024TIP3    H144949   1.867   8.465   4.971
15024TIP3    H244950   1.926   8.346   4.898
15025TIP3   OH244951   5.834   6.898   0.160
15025TIP3    H144952   5.899   6.897   0.230
15025TIP3    H244953   5.750   6.887   0.204
15026TIP3   OH244954   6.271   2.159   5.322
15026TIP3    H144955   6.332   2.163   5.248
15026TIP3    H244956   6.209   2.230   5.305
15027TIP3   OH244957   8.223   2.439   5.624
15027TIP3    H144958   8.158   2.421   5.555
15027TIP3    H244959   8.170   2.468   5.698
15028TIP3   OH244960   3.972   3.372   2.518
15028TIP3    H144961   3.982   3.466   2.509
15028TIP3    H244962   4.057   3.336   2.491
15029TIP3   OH244963   2.983   4.716   0.255
15029TIP3    H144964   2.966   4.808   0.238
15029TIP3    H244965   2.919   4.691   0.322
15030TIP3   OH244966   5.874   3.456   6.149
15030TIP3    H144967   5.934   3.509   6.096
15030TIP3    H244968   5.917   3.370   6.154
15031TIP3   OH244969   5.179   0.441   2.290
15031TIP3    H144970   5.239   0.383   2.336
15031TIP3    H244971   5.094   0.425   2.331
15032TIP3   OH244972   2.020   0.831   2.423
15032TIP3    H144973   2.064   0.834   2.507
15032TIP3    H244974   1.945   0.890   2.433
15033TIP3   OH244975   9.272   4.001   1.285
15033TIP3    H144976   9.208   3.936   1.313
15033TIP3    H244977   9.242   4.029   1.199
15034TIP3   OH244978   7.374   5.398   2.924
15034TIP3    H144979   7.468   5.384   2.933
15034TIP3    H244980   7.351   5.353   2.842
15035TIP3   OH244981   1.943   6.050   7.281
15035TIP3    H144982   1.967   5.961   7.308
15035TIP3    H244983   1.872   6.037   7.218
15036TIP3   OH244984   1.090   7.283   5.487
15036TIP3    H144985   1.177   7.321   5.503
15036TIP3    H244986   1.081   7.216   5.555
15037TIP3   OH244987   0.715   0.314   2.301
15037TIP3    H144988   0.645   0.269   2.348
15037TIP3    H244989   0.762   0.364   2.368
15038TIP3   OH244990   3.309   4.403   2.793
15038TIP3    H144991   3.393   4.415   2.748
15038TIP3    H244992   3.244   4.398   2.723
15039TIP3   OH244993   6.731   0.214   0.605
15039TIP3    H144994   6.664   0.278   0.631
15039TIP3    H244995   6.797   0.219   0.675
15040TIP3   OH244996   5.881   1.703   4.068
15040TIP3    H144997   5.974   1.688   4.085
15040TIP3    H244998   5.837   1.627   4.106
15041TIP3   OH244999   2.968   1.513   4.520
15041TIP3    H145000   2.920   1.516   4.437
15041TIP3    H245001   2.908   1.552   4.584
15042TIP3   OH245002   2.364   2.935   0.438
15042TIP3    H145003   2.373   2.979   0.522
15042TIP3    H245004   2.343   3.005   0.376
15043TIP3   OH245005   9.241   3.308   4.624
15043TIP3    H145006   9.177   3.261   4.570
15043TIP3    H245007   9.310   3.334   4.563
15044TIP3   OH245008   1.986   4.444   5.168
15044TIP3    H145009   1.900   4.483   5.152
15044TIP3    H245010   1.970   4.380   5.237
15045TIP3   OH245011   4.813   0.118   4.935
15045TIP3    H145012   4.771   0.064   5.002
15045TIP3    H245013   4.804   0.208   4.966
15046TIP3   OH245014   6.178   3.959   1.927
15046TIP3    H145015   6.246   4.017   1.961
15046TIP3    H245016   6.185   3.880   1.980
15047TIP3   OH245017   6.570   6.075   0.315
15047TIP3    H145018   6.552   6.133   0.389
15047TIP3    H245019   6.640   6.018   0.346
15048TIP3   OH245020   2.613   2.109   2.180
15048TIP3    H145021   2.632   2.167   2.106
15048TIP3    H245022   2.680   2.130   2.245
15049TIP3   OH245023   5.408   2.929   6.603
15049TIP3    H145024   5.338   2.992   6.589
15049TIP3    H245025   5.410   2.916   6.698
15050TIP3   OH245026   8.622   3.656   6.360
15050TIP3    H145027   8.639   3.626   6.449
15050TIP3    H245028   8.573   3.584   6.319
15051TIP3   OH245029   7.858   8.661   6.805
15051TIP3    H145030   7.837   8.643   6.714
15051TIP3    H245031   7.882   8.576   6.842
15052TIP3   OH245032   0.496   2.139   4.552
15052TIP3    H145033   0.508   2.230   4.579
15052TIP3    H245034   0.413   2.112   4.593
15053TIP3   OH245035   6.455   6.081   6.516
15053TIP3    H145036   6.426   6.161   6.472
15053TIP3    H245037   6.551   6.083   6.508
15054TIP3   OH245038   8.265   3.530   6.357
15054TIP3    H145039   8.297   3.562   6.272
15054TIP3    H245040   8.200   3.463   6.335
15055TIP3   OH245041   4.079   5.433   4.715
15055TIP3    H145042   4.014   5.499   4.739
15055TIP3    H245043   4.033   5.376   4.654
15056TIP3   OH245044   4.926   0.421   3.968
15056TIP3    H145045   4.949   0.330   3.950
15056TIP3    H245046   4.924   0.427   4.063
15057TIP3   OH245047   4.701   6.758   2.098
15057TIP3    H145048   4.620   6.753   2.048
15057TIP3    H245049   4.674   6.788   2.185
15058TIP3   OH245050   5.396   0.056   2.630
15058TIP3    H145051   5.421   0.126   2.689
15058TIP3    H245052   5.398  -0.024   2.683
15059TIP3   OH245053   7.199   8.190   0.159
15059TIP3    H145054   7.292   8.174   0.147
15059TIP3    H245055   7.187   8.282   0.136
15060TIP3   OH245056   7.700   8.560   7.365
15060TIP3    H145057   7.780   8.608   7.388
15060TIP3    H245058   7.690   8.573   7.271
15061TIP3   OH245059   5.226   0.405   6.029
15061TIP3    H145060   5.292   0.457   6.075
15061TIP3    H245061   5.257   0.400   5.939
15062TIP3   OH245062   1.319   6.218   3.662
15062TIP3    H145063   1.356   6.270   3.591
15062TIP3    H245064   1.377   6.236   3.737
15063TIP3   OH245065   3.990   3.502   5.710
15063TIP3    H145066   4.016   3.413   5.687
15063TIP3    H245067   3.905   3.492   5.753
15064TIP3   OH245068   7.046   7.338   0.043
15064TIP3    H145069   6.994   7.360  -0.034
15064TIP3    H245070   7.043   7.243   0.048
15065TIP3   OH245071   2.516   1.559   1.713
15065TIP3    H145072   2.527   1.548   1.618
15065TIP3    H245073   2.505   1.654   1.725
15066TIP3   OH245074   1.744   2.030   1.428
15066TIP3    H145075   1.828   2.022   1.472
15066TIP3    H245076   1.679   2.008   1.496
15067TIP3   OH245077   8.579   8.032   0.140
15067TIP3    H145078   8.493   8.024   0.097
15067TIP3    H245079   8.642   8.014   0.070
15068TIP3   OH245080   9.509   7.026   7.190
15068TIP3    H145081   9.569   6.984   7.251
15068TIP3    H245082   9.507   6.968   7.114
15069TIP3   OH245083   7.809   3.683   4.534
15069TIP3    H145084   7.740   3.672   4.469
15069TIP3    H245085   7.763   3.706   4.614
15070TIP3   OH245086   4.507   4.885   5.201
15070TIP3    H145087   4.479   4.811   5.147
15070TIP3    H245088   4.456   4.877   5.281
15071TIP3   OH245089   4.487   0.233   7.722
15071TIP3    H145090   4.455   0.146   7.699
15071TIP3    H245091   4.464   0.288   7.647
15072TIP3   OH245092   5.802   0.160   2.824
15072TIP3    H145093   5.875   0.216   2.848
15072TIP3    H245094   5.804   0.157   2.728
15073TIP3   OH245095   4.215   2.466   0.469
15073TIP3    H145096   4.304   2.431   0.468
15073TIP3    H245097   4.221   2.543   0.527
15074TIP3   OH245098   4.782   6.598   2.755
15074TIP3    H145099   4.835   6.558   2.686
15074TIP3    H245100   4.799   6.545   2.832
15075TIP3   OH245101   4.799   0.053   0.686
15075TIP3    H145102   4.780   0.018   0.773
15075TIP3    H245103   4.891   0.033   0.671
15076TIP3   OH245104   2.516   2.813   7.641
15076TIP3    H145105   2.601   2.821   7.684
15076TIP3    H245106   2.489   2.903   7.624
15077TIP3   OH245107   6.150   8.393   4.390
15077TIP3    H145108   6.197   8.475   4.385
15077TIP3    H245109   6.062   8.413   4.356
15078TIP3   OH245110   4.465   2.007   5.939
15078TIP3    H145111   4.516   2.061   5.879
15078TIP3    H245112   4.374   2.032   5.922
15079TIP3   OH245113   1.443   1.205   4.832
15079TIP3    H145114   1.397   1.237   4.910
15079TIP3    H245115   1.512   1.269   4.817
15080TIP3   OH245116   7.656   0.682   5.963
15080TIP3    H145117   7.605   0.648   5.889
15080TIP3    H245118   7.726   0.617   5.974
15081TIP3   OH245119   7.872   2.877   4.032
15081TIP3    H145120   7.891   2.804   4.091
15081TIP3    H245121   7.779   2.894   4.045
15082TIP3   OH245122   4.862   8.624   0.735
15082TIP3    H145123   4.937   8.580   0.694
15082TIP3    H245124   4.817   8.667   0.662
15083TIP3   OH245125   8.270   2.225   1.109
15083TIP3    H145126   8.365   2.225   1.105
15083TIP3    H245127   8.249   2.170   1.186
15084TIP3   OH245128   0.949   3.865   3.509
15084TIP3    H145129   0.896   3.786   3.501
15084TIP3    H245130   0.886   3.937   3.513
15085TIP3   OH245131   6.887   6.718   6.405
15085TIP3    H145132   6.805   6.691   6.447
15085TIP3    H245133   6.877   6.812   6.391
15086TIP3   OH245134   4.104   6.249   2.124
15086TIP3    H145135   4.109   6.313   2.195
15086TIP3    H245136   4.192   6.211   2.119
15087TIP3   OH245137   2.429   3.806   1.554
15087TIP3    H145138   2.463   3.725   1.516
15087TIP3    H245139   2.334   3.800   1.545
15088TIP3   OH245140   2.767   2.839   2.810
15088TIP3    H145141   2.806   2.860   2.894
15088TIP3    H245142   2.749   2.745   2.813
15089TIP3   OH245143   6.610   5.771   5.099
15089TIP3    H145144   6.671   5.795   5.030
15089TIP3    H245145   6.600   5.851   5.151
15090TIP3   OH245146   5.083   4.939   6.069
15090TIP3    H145147   5.081   4.901   5.981
15090TIP3    H245148   5.023   5.013   6.064
15091TIP3   OH245149   3.917   2.903   5.835
15091TIP3    H145150   3.943   2.988   5.800
15091TIP3    H245151   3.880   2.922   5.921
15092TIP3   OH245152   4.836   1.080   6.846
15092TIP3    H145153   4.769   1.011   6.850
15092TIP3    H245154   4.800   1.152   6.899
15093TIP3   OH245155   7.476   0.681   3.297
15093TIP3    H145156   7.485   0.711   3.387
15093TIP3    H245157   7.441   0.592   3.305
15094TIP3   OH245158   2.099   7.412   1.706
15094TIP3    H145159   2.051   7.335   1.735
15094TIP3    H245160   2.189   7.382   1.695
15095TIP3   OH245161   6.154   6.342   5.557
15095TIP3    H145162   6.240   6.313   5.527
15095TIP3    H245163   6.102   6.348   5.476
15096TIP3   OH245164   6.372   2.500   5.188
15096TIP3    H145165   6.409   2.415   5.166
15096TIP3    H245166   6.289   2.479   5.231
15097TIP3   OH245167   7.875   3.359   0.118
15097TIP3    H145168   7.843   3.275   0.151
15097TIP3    H245169   7.897   3.410   0.197
15098TIP3   OH245170   4.856   5.362   2.967
15098TIP3    H145171   4.897   5.295   2.912
15098TIP3    H245172   4.878   5.444   2.923
15099TIP3   OH245173   6.610   5.392   5.430
15099TIP3    H145174   6.579   5.456   5.365
15099TIP3    H245175   6.598   5.307   5.388
15100TIP3   OH245176   7.130   4.912   7.517
15100TIP3    H145177   7.067   4.846   7.488
15100TIP3    H245178   7.139   4.971   7.442
15101TIP3   OH245179   2.594   3.478   1.749
15101TIP3    H145180   2.669   3.474   1.690
15101TIP3    H245181   2.579   3.388   1.777
15102TIP3   OH245182   0.951   3.408   2.571
15102TIP3    H145183   0.925   3.390   2.481
15102TIP3    H245184   0.870   3.398   2.622
15103TIP3   OH245185   2.292   2.846   3.218
15103TIP3    H145186   2.303   2.831   3.124
15103TIP3    H245187   2.220   2.789   3.243
15104TIP3   OH245188   8.663   8.009   5.405
15104TIP3    H145189   8.639   7.922   5.438
15104TIP3    H245190   8.601   8.068   5.447
15105TIP3   OH245191   3.630   3.045   2.256
15105TIP3    H145192   3.563   3.007   2.313
15105TIP3    H245193   3.677   3.107   2.312
15106TIP3   OH245194   6.126   3.097   4.984
15106TIP3    H145195   6.170   3.061   5.061
15106TIP3    H245196   6.130   3.192   4.997
15107TIP3   OH245197   7.102   6.718   3.236
15107TIP3    H145198   7.191   6.736   3.266
15107TIP3    H245199   7.046   6.747   3.308
15108TIP3   OH245200   5.184   5.025   4.781
15108TIP3    H145201   5.109   5.021   4.842
15108TIP3    H245202   5.229   5.106   4.805
15109TIP3   OH245203   5.912   4.599   4.359
15109TIP3    H145204   5.952   4.643   4.284
15109TIP3    H245205   5.818   4.612   4.347
15110TIP3   OH245206   5.368   5.762   3.811
15110TIP3    H145207   5.317   5.704   3.756
15110TIP3    H245208   5.304   5.800   3.872
15111TIP3   OH245209   4.659   1.319   2.897
15111TIP3    H145210   4.634   1.354   2.983
15111TIP3    H245211   4.725   1.253   2.917
15112TIP3   OH245212   4.632   7.593   6.144
15112TIP3    H145213   4.726   7.583   6.160
15112TIP3    H245214   4.595   7.617   6.228
15113TIP3   OH245215   7.252   4.723   6.381
15113TIP3    H145216   7.213   4.652   6.431
15113TIP3    H245217   7.197   4.730   6.302
15114TIP3   OH245218   3.588   5.106   1.148
15114TIP3    H145219   3.645   5.178   1.121
15114TIP3    H245220   3.502   5.147   1.162
15115TIP3   OH245221   0.429   8.088   6.527
15115TIP3    H145222   0.513   8.092   6.572
15115TIP3    H245223   0.427   8.000   6.487
15116TIP3   OH245224   2.053   1.788   4.933
15116TIP3    H145225   2.009   1.703   4.928
15116TIP3    H245226   2.003   1.836   4.999
15117TIP3   OH245227   8.831   1.228   0.686
15117TIP3    H145228   8.784   1.171   0.748
15117TIP3    H245229   8.762   1.278   0.643
15118TIP3   OH245230   6.476   4.384   1.976
15118TIP3    H145231   6.534   4.385   2.052
15118TIP3    H245232   6.453   4.476   1.962
15119TIP3   OH245233   9.326   2.314   1.893
15119TIP3    H145234   9.366   2.246   1.838
15119TIP3    H245235   9.242   2.277   1.919
15120TIP3   OH245236   8.469   1.284   6.091
15120TIP3    H145237   8.481   1.362   6.036
15120TIP3    H245238   8.539   1.290   6.156
15121TIP3   OH245239   1.873   3.943   1.830
15121TIP3    H145240   1.943   3.928   1.766
15121TIP3    H245241   1.840   3.856   1.851
15122TIP3   OH245242   2.453   5.170   1.074
15122TIP3    H145243   2.425   5.256   1.042
15122TIP3    H245244   2.373   5.130   1.110
15123TIP3   OH245245   0.332   3.160   0.736
15123TIP3    H145246   0.314   3.216   0.812
15123TIP3    H245247   0.298   3.210   0.661
15124TIP3   OH245248   5.205   8.717   3.626
15124TIP3    H145249   5.212   8.712   3.721
15124TIP3    H245250   5.295   8.708   3.595
15125TIP3   OH245251   7.494   0.419   7.175
15125TIP3    H145252   7.457   0.449   7.092
15125TIP3    H245253   7.420   0.422   7.236
15126TIP3   OH245254   0.968   3.943   3.781
15126TIP3    H145255   1.023   3.897   3.844
15126TIP3    H245256   0.982   3.897   3.699
15127TIP3   OH245257   5.273   6.657   2.722
15127TIP3    H145258   5.265   6.599   2.646
15127TIP3    H245259   5.197   6.715   2.716
15128TIP3   OH245260   5.935   4.357   7.401
15128TIP3    H145261   5.900   4.401   7.324
15128TIP3    H245262   6.007   4.303   7.368
15129TIP3   OH245263   0.652   3.751   1.099
15129TIP3    H145264   0.605   3.833   1.086
15129TIP3    H245265   0.661   3.713   1.012
15130TIP3   OH245266   2.514   3.213   1.743
15130TIP3    H145267   2.597   3.173   1.768
15130TIP3    H245268   2.452   3.183   1.809
15131TIP3   OH245269   8.747   2.790   5.652
15131TIP3    H145270   8.802   2.823   5.582
15131TIP3    H245271   8.785   2.706   5.675
15132TIP3   OH245272   7.909   4.410   3.213
15132TIP3    H145273   7.861   4.335   3.177
15132TIP3    H245274   7.841   4.466   3.251
15133TIP3   OH245275   5.164   4.642   7.682
15133TIP3    H145276   5.150   4.548   7.683
15133TIP3    H245277   5.226   4.656   7.610
15134TIP3   OH245278   3.477   4.149   3.439
15134TIP3    H145279   3.427   4.224   3.407
15134TIP3    H245280   3.564   4.184   3.458
15135TIP3   OH245281   1.899   0.042   6.004
15135TIP3    H145282   1.848   0.116   5.969
15135TIP3    H245283   1.845   0.007   6.075
15136TIP3   OH245284   1.045   7.006   3.454
15136TIP3    H145285   1.123   7.046   3.417
15136TIP3    H245286   1.038   6.921   3.410
15137TIP3   OH245287   7.499   1.381   7.029
15137TIP3    H145288   7.475   1.431   6.950
15137TIP3    H245289   7.595   1.386   7.031
15138TIP3   OH245290   5.686   8.777   6.201
15138TIP3    H145291   5.677   8.845   6.268
15138TIP3    H245292   5.605   8.725   6.209
15139TIP3   OH245293   8.534   2.254   1.080
15139TIP3    H145294   8.591   2.208   1.141
15139TIP3    H245295   8.593   2.286   1.011
15140TIP3   OH245296   2.408   5.877   5.227
15140TIP3    H145297   2.351   5.880   5.150
15140TIP3    H245298   2.452   5.962   5.228
15141TIP3   OH245299   6.916   5.770   2.004
15141TIP3    H145300   6.874   5.721   2.074
15141TIP3    H245301   6.992   5.811   2.045
15142TIP3   OH245302   2.065   5.454   2.853
15142TIP3    H145303   2.082   5.368   2.892
15142TIP3    H245304   2.142   5.507   2.876
15143TIP3   OH245305   1.964   4.761   7.139
15143TIP3    H145306   1.888   4.720   7.180
15143TIP3    H245307   1.928   4.807   7.063
15144TIP3   OH245308   4.182   2.057   3.958
15144TIP3    H145309   4.261   2.108   3.941
15144TIP3    H245310   4.200   1.971   3.921
15145TIP3   OH245311   0.666   7.984   6.314
15145TIP3    H145312   0.596   7.922   6.335
15145TIP3    H245313   0.621   8.063   6.286
15146TIP3   OH245314   0.984   6.950   3.148
15146TIP3    H145315   0.973   6.909   3.063
15146TIP3    H245316   1.077   6.941   3.168
15147TIP3   OH245317   9.349   7.993   5.613
15147TIP3    H145318   9.391   7.970   5.530
15147TIP3    H245319   9.338   7.910   5.658
15148TIP3   OH245320   7.556   8.102   1.753
15148TIP3    H145321   7.462   8.099   1.735
15148TIP3    H245322   7.585   8.011   1.742
15149TIP3   OH245323   3.417   5.129   2.886
15149TIP3    H145324   3.483   5.146   2.819
15149TIP3    H245325   3.462   5.075   2.952
15150TIP3   OH245326   8.481   1.513   5.361
15150TIP3    H145327   8.480   1.529   5.455
15150TIP3    H245328   8.541   1.440   5.350
15151TIP3   OH245329   8.286   8.593   0.012
15151TIP3    H145330   8.325   8.518  -0.032
15151TIP3    H245331   8.337   8.604   0.092
15152TIP3   OH245332   1.493   7.533   5.218
15152TIP3    H145333   1.502   7.559   5.127
15152TIP3    H245334   1.448   7.606   5.260
15153TIP3   OH245335   9.018   8.861   1.828
15153TIP3    H145336   9.017   8.834   1.736
15153TIP3    H245337   9.094   8.816   1.865
15154TIP3   OH245338   9.510   4.916   4.334
15154TIP3    H145339   9.475   4.916   4.423
15154TIP3    H245340   9.508   5.008   4.308
15155TIP3   OH245341   0.256   3.264   0.994
15155TIP3    H145342   0.163   3.242   0.984
15155TIP3    H245343   0.288   3.199   1.057
15156TIP3   OH245344   3.609   3.440   5.526
15156TIP3    H145345   3.627   3.529   5.557
15156TIP3    H245346   3.564   3.397   5.600
15157TIP3   OH245347   6.121   0.005   5.421
15157TIP3    H145348   6.033   0.023   5.453
15157TIP3    H245349   6.109  -0.057   5.349
15158TIP3   OH245350   5.636   2.013   7.572
15158TIP3    H145351   5.674   2.051   7.492
15158TIP3    H245352   5.651   2.080   7.639
15159TIP3   OH245353   1.471   5.450   1.459
15159TIP3    H145354   1.412   5.476   1.389
15159TIP3    H245355   1.519   5.530   1.481
15160TIP3   OH245356   3.031   5.939   1.005
15160TIP3    H145357   2.972   5.888   0.950
15160TIP3    H245358   2.985   6.021   1.022
15161TIP3   OH245359   4.576   4.903   1.221
15161TIP3    H145360   4.596   4.986   1.263
15161TIP3    H245361   4.482   4.892   1.232
15162TIP3   OH245362   2.155   1.323   4.085
15162TIP3    H145363   2.111   1.277   4.156
15162TIP3    H245364   2.189   1.403   4.126
15163TIP3   OH245365   8.843   0.329   4.968
15163TIP3    H145366   8.917   0.283   5.007
15163TIP3    H245367   8.771   0.315   5.030
15164TIP3   OH245368   1.116   0.832   5.722
15164TIP3    H145369   1.064   0.892   5.776
15164TIP3    H245370   1.177   0.889   5.675
15165TIP3   OH245371   5.224   1.641   6.962
15165TIP3    H145372   5.317   1.652   6.946
15165TIP3    H245373   5.217   1.566   7.021
15166TIP3   OH245374   2.437   2.163   0.134
15166TIP3    H145375   2.450   2.078   0.177
15166TIP3    H245376   2.509   2.170   0.072
15167TIP3   OH245377   3.572   4.583   1.603
15167TIP3    H145378   3.593   4.661   1.654
15167TIP3    H245379   3.531   4.617   1.524
15168TIP3   OH245380   3.537   8.489   1.616
15168TIP3    H145381   3.587   8.555   1.568
15168TIP3    H245382   3.482   8.539   1.677
15169TIP3   OH245383   9.528   4.240   5.340
15169TIP3    H145384   9.611   4.194   5.353
15169TIP3    H245385   9.546   4.331   5.366
15170TIP3   OH245386   2.556   5.836   6.595
15170TIP3    H145387   2.595   5.772   6.655
15170TIP3    H245388   2.570   5.920   6.638
15171TIP3   OH245389   3.852   6.758   2.042
15171TIP3    H145390   3.812   6.679   2.004
15171TIP3    H245391   3.944   6.753   2.015
15172TIP3   OH245392   0.627   8.185   4.089
15172TIP3    H145393   0.680   8.212   4.013
15172TIP3    H245394   0.540   8.171   4.053
15173TIP3   OH245395   6.570   5.631   4.098
15173TIP3    H145396   6.476   5.619   4.103
15173TIP3    H245397   6.602   5.613   4.187
15174TIP3   OH245398   3.368   4.425   3.181
15174TIP3    H145399   3.310   4.500   3.198
15174TIP3    H245400   3.309   4.350   3.176
15175TIP3   OH245401   3.955   5.137   6.185
15175TIP3    H145402   3.897   5.190   6.130
15175TIP3    H245403   3.898   5.106   6.256
15176TIP3   OH245404   1.823   1.757   3.722
15176TIP3    H145405   1.919   1.758   3.722
15176TIP3    H245406   1.799   1.748   3.630
15177TIP3   OH245407   1.158   7.281   7.424
15177TIP3    H145408   1.089   7.216   7.439
15177TIP3    H245409   1.179   7.315   7.511
15178TIP3   OH245410   7.584   8.709   2.259
15178TIP3    H145411   7.509   8.765   2.243
15178TIP3    H245412   7.571   8.633   2.203
15179TIP3   OH245413   1.265   5.747   1.635
15179TIP3    H145414   1.173   5.742   1.660
15179TIP3    H245415   1.295   5.656   1.635
15180TIP3   OH245416   3.937   2.696   5.647
15180TIP3    H145417   3.923   2.785   5.679
15180TIP3    H245418   3.851   2.668   5.616
15181TIP3   OH245419   5.750   4.189   0.779
15181TIP3    H145420   5.736   4.097   0.802
15181TIP3    H245421   5.845   4.199   0.781
15182TIP3   OH245422   0.524   4.687   1.689
15182TIP3    H145423   0.560   4.665   1.775
15182TIP3    H245424   0.551   4.777   1.673
15183TIP3   OH245425   9.309   5.807   0.292
15183TIP3    H145426   9.324   5.887   0.343
15183TIP3    H245427   9.216   5.810   0.270
15184TIP3   OH245428   3.700   0.654   3.579
15184TIP3    H145429   3.606   0.666   3.589
15184TIP3    H245430   3.732   0.740   3.551
15185TIP3   OH245431   8.703   4.167   2.836
15185TIP3    H145432   8.696   4.233   2.766
15185TIP3    H245433   8.630   4.188   2.895
15186TIP3   OH245434   6.140   0.241   3.200
15186TIP3    H145435   6.148   0.145   3.206
15186TIP3    H245436   6.211   0.274   3.255
15187TIP3   OH245437   1.409   2.394   5.272
15187TIP3    H145438   1.373   2.343   5.344
15187TIP3    H245439   1.433   2.478   5.311
15188TIP3   OH245440   3.177   3.899   5.935
15188TIP3    H145441   3.194   3.849   5.855
15188TIP3    H245442   3.258   3.889   5.986
15189TIP3   OH245443   4.100   5.107   2.309
15189TIP3    H145444   4.184   5.112   2.354
15189TIP3    H245445   4.037   5.087   2.378
15190TIP3   OH245446   1.476   1.835   6.897
15190TIP3    H145447   1.397   1.789   6.870
15190TIP3    H245448   1.522   1.853   6.815
15191TIP3   OH245449   9.445   5.023   7.307
15191TIP3    H145450   9.353   5.003   7.292
15191TIP3    H245451   9.483   5.029   7.219
15192TIP3   OH245452   2.285   4.934   0.145
15192TIP3    H145453   2.327   5.004   0.096
15192TIP3    H245454   2.221   4.978   0.201
15193TIP3   OH245455   2.177   8.991   1.955
15193TIP3    H145456   2.158   9.084   1.939
15193TIP3    H245457   2.225   8.963   1.877
15194TIP3   OH245458   7.972   3.400   4.729
15194TIP3    H145459   8.054   3.351   4.737
15194TIP3    H245460   7.966   3.451   4.810
15195TIP3   OH245461   7.562   5.283   3.764
15195TIP3    H145462   7.502   5.308   3.694
15195TIP3    H245463   7.616   5.361   3.778
15196TIP3   OH245464   4.952   6.257   4.242
15196TIP3    H145465   4.950   6.230   4.150
15196TIP3    H245466   5.002   6.339   4.243
15197TIP3   OH245467   4.712   1.749   4.886
15197TIP3    H145468   4.652   1.824   4.889
15197TIP3    H245469   4.798   1.787   4.904
15198TIP3   OH245470   6.556   0.300   4.887
15198TIP3    H145471   6.596   0.290   4.800
15198TIP3    H245472   6.574   0.391   4.911
15199TIP3   OH245473   5.385   1.699   3.602
15199TIP3    H145474   5.461   1.672   3.551
15199TIP3    H245475   5.311   1.683   3.544
15200TIP3   OH245476   6.089   6.436   0.220
15200TIP3    H145477   6.085   6.468   0.130
15200TIP3    H245478   6.125   6.347   0.211
15201TIP3   OH245479   3.154   4.888   2.430
15201TIP3    H145480   3.095   4.896   2.505
15201TIP3    H245481   3.209   4.967   2.434
15202TIP3   OH245482   4.141   5.867   7.403
15202TIP3    H145483   4.219   5.891   7.454
15202TIP3    H245484   4.133   5.937   7.338
15203TIP3   OH245485   1.344   5.705   6.453
15203TIP3    H145486   1.379   5.654   6.526
15203TIP3    H245487   1.313   5.639   6.391
15204TIP3   OH245488   0.353   3.814   7.451
15204TIP3    H145489   0.355   3.719   7.459
15204TIP3    H245490   0.407   3.846   7.523
15205TIP3   OH245491   9.548   4.307   0.365
15205TIP3    H145492   9.488   4.312   0.439
15205TIP3    H245493   9.635   4.311   0.405
15206TIP3   OH245494   3.294   4.044   1.442
15206TIP3    H145495   3.351   4.073   1.513
15206TIP3    H245496   3.222   4.107   1.442
15207TIP3   OH245497   1.898   1.606   0.393
15207TIP3    H145498   1.931   1.519   0.369
15207TIP3    H245499   1.976   1.662   0.394
15208TIP3   OH245500   2.118   7.195   2.496
15208TIP3    H145501   2.191   7.224   2.441
15208TIP3    H245502   2.048   7.174   2.434
15209TIP3   OH245503   2.480   4.675   2.162
15209TIP3    H145504   2.397   4.669   2.115
15209TIP3    H245505   2.516   4.761   2.138
15210TIP3   OH245506   6.451   1.551   5.532
15210TIP3    H145507   6.372   1.603   5.521
15210TIP3    H245508   6.515   1.592   5.473
15211TIP3   OH245509   3.322   3.090   5.791
15211TIP3    H145510   3.229   3.090   5.768
15211TIP3    H245511   3.327   3.039   5.872
15212TIP3   OH245512   6.266   6.029   5.259
15212TIP3    H145513   6.296   6.015   5.170
15212TIP3    H245514   6.247   5.941   5.292
15213TIP3   OH245515   0.288   0.753   3.740
15213TIP3    H145516   0.331   0.694   3.803
15213TIP3    H245517   0.201   0.715   3.727
15214TIP3   OH245518   3.887   5.131   5.631
15214TIP3    H145519   3.868   5.165   5.543
15214TIP3    H245520   3.851   5.042   5.630
15215TIP3   OH245521   3.440   3.428   7.151
15215TIP3    H145522   3.431   3.494   7.082
15215TIP3    H245523   3.516   3.456   7.201
15216TIP3   OH245524   1.769   0.393   4.049
15216TIP3    H145525   1.763   0.347   4.133
15216TIP3    H245526   1.693   0.450   4.048
15217TIP3   OH245527   5.978   5.350   3.188
15217TIP3    H145528   6.007   5.294   3.260
15217TIP3    H245529   6.040   5.423   3.187
15218TIP3   OH245530   3.185   0.585   3.134
15218TIP3    H145531   3.278   0.580   3.156
15218TIP3    H245532   3.143   0.618   3.213
15219TIP3   OH245533   8.923   6.226   5.832
15219TIP3    H145534   8.879   6.242   5.749
15219TIP3    H245535   9.013   6.254   5.818
15220TIP3   OH245536   4.500   2.161   7.494
15220TIP3    H145537   4.476   2.080   7.540
15220TIP3    H245538   4.428   2.176   7.433
15221TIP3   OH245539   3.573   1.835   4.574
15221TIP3    H145540   3.646   1.775   4.558
15221TIP3    H245541   3.588   1.906   4.511
15222TIP3   OH245542   0.097   1.814   3.026
15222TIP3    H145543   0.176   1.794   3.077
15222TIP3    H245544   0.065   1.728   2.998
15223TIP3   OH245545   0.089   2.916   3.097
15223TIP3    H145546   0.103   2.871   3.180
15223TIP3    H245547   0.018   2.977   3.114
15224TIP3   OH245548   4.006   1.808   6.459
15224TIP3    H145549   3.930   1.857   6.491
15224TIP3    H245550   4.051   1.780   6.539
15225TIP3   OH245551   5.944   5.078   0.300
15225TIP3    H145552   5.962   5.148   0.363
15225TIP3    H245553   5.980   5.110   0.217
15226TIP3   OH245554   8.023   3.443   3.097
15226TIP3    H145555   8.087   3.442   3.026
15226TIP3    H245556   7.946   3.400   3.060
15227TIP3   OH245557   3.028   6.318   4.620
15227TIP3    H145558   3.049   6.292   4.710
15227TIP3    H245559   2.989   6.405   4.629
15228TIP3   OH245560   0.187   8.089   2.914
15228TIP3    H145561   0.224   8.001   2.922
15228TIP3    H245562   0.186   8.106   2.820
15229TIP3   OH245563   0.606   6.103   0.372
15229TIP3    H145564   0.539   6.170   0.389
15229TIP3    H245565   0.687   6.140   0.408
15230TIP3   OH245566   8.862   4.271   6.197
15230TIP3    H145567   8.833   4.341   6.138
15230TIP3    H245568   8.822   4.292   6.281
15231TIP3   OH245569   2.580   7.049   2.786
15231TIP3    H145570   2.643   7.083   2.723
15231TIP3    H245571   2.499   7.039   2.735
15232TIP3   OH245572   1.823   2.991   0.941
15232TIP3    H145573   1.890   3.026   1.000
15232TIP3    H245574   1.785   2.917   0.988
15233TIP3   OH245575   5.987   7.169   1.464
15233TIP3    H145576   6.081   7.148   1.464
15233TIP3    H245577   5.964   7.175   1.371
15234TIP3   OH245578   5.812   1.072   1.025
15234TIP3    H145579   5.742   1.099   1.084
15234TIP3    H245580   5.798   1.124   0.946
15235TIP3   OH245581   3.298   1.957   3.161
15235TIP3    H145582   3.307   1.988   3.071
15235TIP3    H245583   3.342   2.024   3.214
15236TIP3   OH245584   7.190   4.563   1.448
15236TIP3    H145585   7.155   4.475   1.435
15236TIP3    H245586   7.279   4.549   1.481
15237TIP3   OH245587   4.153   0.633   2.416
15237TIP3    H145588   4.164   0.602   2.326
15237TIP3    H245589   4.067   0.601   2.442
15238TIP3   OH245590   9.077   5.368   3.488
15238TIP3    H145591   9.130   5.432   3.536
15238TIP3    H245592   9.122   5.357   3.405
15239TIP3   OH245593   0.525   6.076   1.776
15239TIP3    H145594   0.433   6.057   1.760
15239TIP3    H245595   0.571   5.998   1.746
15240TIP3   OH245596   5.639   0.955   7.292
15240TIP3    H145597   5.554   0.917   7.311
15240TIP3    H245598   5.649   0.944   7.197
15241TIP3   OH245599   5.558   2.264   2.729
15241TIP3    H145600   5.567   2.179   2.685
15241TIP3    H245601   5.601   2.251   2.814
15242TIP3   OH245602   5.272   3.920   6.467
15242TIP3    H145603   5.298   3.947   6.379
15242TIP3    H245604   5.340   3.954   6.524
15243TIP3   OH245605   4.570   4.730   1.801
15243TIP3    H145606   4.511   4.692   1.865
15243TIP3    H245607   4.563   4.673   1.724
15244TIP3   OH245608   1.640   7.927   5.683
15244TIP3    H145609   1.585   7.927   5.762
15244TIP3    H245610   1.608   7.853   5.632
15245TIP3   OH245611   8.596   0.814   3.194
15245TIP3    H145612   8.567   0.887   3.139
15245TIP3    H245613   8.588   0.847   3.284
15246TIP3   OH245614   6.828   8.800   6.338
15246TIP3    H145615   6.734   8.814   6.327
15246TIP3    H245616   6.836   8.706   6.354
15247TIP3   OH245617   8.831   1.746   7.696
15247TIP3    H145618   8.892   1.683   7.657
15247TIP3    H245619   8.759   1.691   7.729
15248TIP3   OH245620   4.283   8.713   6.123
15248TIP3    H145621   4.216   8.717   6.191
15248TIP3    H245622   4.334   8.635   6.145
15249TIP3   OH245623   3.801   3.859   5.814
15249TIP3    H145624   3.877   3.828   5.864
15249TIP3    H245625   3.728   3.851   5.875
15250TIP3   OH245626   0.080   5.907   7.102
15250TIP3    H145627  -0.009   5.940   7.120
15250TIP3    H245628   0.079   5.818   7.136
15251TIP3   OH245629   7.963   1.961   3.648
15251TIP3    H145630   7.968   1.892   3.582
15251TIP3    H245631   7.935   2.038   3.600
15252TIP3   OH245632   6.615   0.429   0.768
15252TIP3    H145633   6.655   0.515   0.780
15252TIP3    H245634   6.539   0.445   0.712
15253TIP3   OH245635   6.348   3.272   7.034
15253TIP3    H145636   6.297   3.209   7.085
15253TIP3    H245637   6.308   3.357   7.054
15254TIP3   OH245638   8.142   4.537   3.822
15254TIP3    H145639   8.150   4.627   3.854
15254TIP3    H245640   8.048   4.522   3.815
15255TIP3   OH245641   2.677   8.132   1.577
15255TIP3    H145642   2.585   8.147   1.558
15255TIP3    H245643   2.723   8.159   1.497
15256TIP3   OH245644   5.675   4.497   7.343
15256TIP3    H145645   5.676   4.582   7.387
15256TIP3    H245646   5.720   4.513   7.259
15257TIP3   OH245647   1.563   7.349   6.105
15257TIP3    H145648   1.565   7.255   6.087
15257TIP3    H245649   1.518   7.355   6.190
15258TIP3   OH245650   4.936   5.774   6.436
15258TIP3    H145651   4.927   5.683   6.464
15258TIP3    H245652   5.004   5.810   6.493
15259TIP3   OH245653   0.675   3.971   2.006
15259TIP3    H145654   0.613   3.983   1.934
15259TIP3    H245655   0.734   4.046   2.000
15260TIP3   OH245656   2.407   0.127   1.672
15260TIP3    H145657   2.390   0.091   1.759
15260TIP3    H245658   2.461   0.060   1.629
15261TIP3   OH245659   5.692   8.516   4.404
15261TIP3    H145660   5.610   8.532   4.451
15261TIP3    H245661   5.757   8.568   4.451
15262TIP3   OH245662   4.959   2.855   4.747
15262TIP3    H145663   4.988   2.946   4.752
15262TIP3    H245664   4.938   2.832   4.837
15263TIP3   OH245665   0.553   8.272   4.852
15263TIP3    H145666   0.504   8.190   4.852
15263TIP3    H245667   0.603   8.270   4.933
15264TIP3   OH245668   9.209   1.301   0.652
15264TIP3    H145669   9.199   1.396   0.651
15264TIP3    H245670   9.303   1.286   0.640
15265TIP3   OH245671   0.771   8.791   3.786
15265TIP3    H145672   0.691   8.836   3.813
15265TIP3    H245673   0.837   8.819   3.849
15266TIP3   OH245674   6.483   1.251   6.142
15266TIP3    H145675   6.572   1.284   6.127
15266TIP3    H245676   6.440   1.320   6.193
15267TIP3   OH245677   4.906   8.817   2.132
15267TIP3    H145678   4.972   8.752   2.106
15267TIP3    H245679   4.904   8.811   2.228
15268TIP3   OH245680   9.188   1.966   5.604
15268TIP3    H145681   9.159   1.888   5.651
15268TIP3    H245682   9.170   2.038   5.663
15269TIP3   OH245683   8.224   4.187   5.527
15269TIP3    H145684   8.213   4.240   5.607
15269TIP3    H245685   8.261   4.248   5.463
15270TIP3   OH245686   4.508   8.722   1.779
15270TIP3    H145687   4.593   8.705   1.821
15270TIP3    H245688   4.507   8.663   1.704
15271TIP3   OH245689   5.526   6.450   4.808
15271TIP3    H145690   5.541   6.532   4.854
15271TIP3    H245691   5.609   6.402   4.817
15272TIP3   OH245692   7.921   8.790   3.102
15272TIP3    H145693   7.904   8.795   3.008
15272TIP3    H245694   8.016   8.804   3.110
15273TIP3   OH245695   1.013   8.685   4.797
15273TIP3    H145696   0.954   8.749   4.837
15273TIP3    H245697   0.967   8.656   4.718
15274TIP3   OH245698   4.181   6.763   5.329
15274TIP3    H145699   4.106   6.814   5.359
15274TIP3    H245700   4.147   6.674   5.318
15275TIP3   OH245701   5.451   5.809   7.299
15275TIP3    H145702   5.531   5.796   7.350
15275TIP3    H245703   5.465   5.758   7.219
15276TIP3   OH245704   0.520   3.491   1.042
15276TIP3    H145705   0.594   3.493   1.103
15276TIP3    H245706   0.507   3.399   1.022
15277TIP3   OH245707   4.120   1.560   0.371
15277TIP3    H145708   4.059   1.552   0.444
15277TIP3    H245709   4.204   1.581   0.412
15278TIP3   OH245710   9.497   5.191   5.884
15278TIP3    H145711   9.490   5.273   5.835
15278TIP3    H245712   9.452   5.209   5.967
15279TIP3   OH245713   3.727   0.296   5.782
15279TIP3    H145714   3.813   0.261   5.804
15279TIP3    H245715   3.707   0.359   5.850
15280TIP3   OH245716   3.325   5.853   0.415
15280TIP3    H145717   3.344   5.766   0.450
15280TIP3    H245718   3.331   5.842   0.320
15281TIP3   OH245719   5.383   6.399   3.069
15281TIP3    H145720   5.453   6.465   3.071
15281TIP3    H245721   5.421   6.326   3.020
15282TIP3   OH245722   3.325   8.862   4.527
15282TIP3    H145723   3.361   8.781   4.563
15282TIP3    H245724   3.235   8.841   4.506
15283TIP3   OH245725   4.040   8.149   3.227
15283TIP3    H145726   3.953   8.138   3.188
15283TIP3    H245727   4.028   8.220   3.291
15284TIP3   OH245728   3.936   6.347   7.624
15284TIP3    H145729   3.974   6.396   7.551
15284TIP3    H245730   3.933   6.256   7.593
15285TIP3   OH245731   4.668   2.734   5.499
15285TIP3    H145732   4.575   2.743   5.480
15285TIP3    H245733   4.671   2.703   5.590
15286TIP3   OH245734   5.551   4.164   1.804
15286TIP3    H145735   5.544   4.249   1.760
15286TIP3    H245736   5.640   4.135   1.785
15287TIP3   OH245737   1.083   1.503   6.816
15287TIP3    H145738   1.053   1.552   6.739
15287TIP3    H245739   1.142   1.563   6.862
15288TIP3   OH245740   7.123   3.570   6.857
15288TIP3    H145741   7.185   3.543   6.925
15288TIP3    H245742   7.045   3.595   6.906
15289TIP3   OH245743   4.306   3.004   4.142
15289TIP3    H145744   4.292   2.976   4.052
15289TIP3    H245745   4.221   2.995   4.184
15290TIP3   OH245746   3.038   3.060   7.198
15290TIP3    H145747   3.086   3.137   7.227
15290TIP3    H245748   3.106   2.994   7.180
15291TIP3   OH245749   8.611   8.544   7.199
15291TIP3    H145750   8.685   8.551   7.259
15291TIP3    H245751   8.581   8.634   7.187
15292TIP3   OH245752   1.345   3.620   2.187
15292TIP3    H145753   1.430   3.606   2.229
15292TIP3    H245754   1.281   3.589   2.252
15293TIP3   OH245755   1.019   1.898   3.072
15293TIP3    H145756   1.093   1.954   3.048
15293TIP3    H245757   1.037   1.871   3.161
15294TIP3   OH245758   4.601   3.315   6.682
15294TIP3    H145759   4.559   3.400   6.673
15294TIP3    H245760   4.557   3.274   6.756
15295TIP3   OH245761   3.605   2.894   7.740
15295TIP3    H145762   3.589   2.916   7.648
15295TIP3    H245763   3.591   2.976   7.787
15296TIP3   OH245764   4.946   8.747   3.557
15296TIP3    H145765   5.037   8.734   3.581
15296TIP3    H245766   4.950   8.788   3.470
15297TIP3   OH245767   5.906   5.422   0.066
15297TIP3    H145768   5.862   5.492   0.018
15297TIP3    H245769   5.968   5.467   0.123
15298TIP3   OH245770   3.571   8.967   3.438
15298TIP3    H145771   3.504   8.999   3.377
15298TIP3    H245772   3.648   8.954   3.383
15299TIP3   OH245773   5.794   5.517   0.889
15299TIP3    H145774   5.710   5.471   0.894
15299TIP3    H245775   5.837   5.500   0.973
15300TIP3   OH245776   5.013   5.677   5.738
15300TIP3    H145777   4.990   5.724   5.818
15300TIP3    H245778   4.990   5.586   5.756
15301TIP3   OH245779   8.618   1.249   4.311
15301TIP3    H145780   8.548   1.222   4.371
15301TIP3    H245781   8.613   1.185   4.240
15302TIP3   OH245782   2.979   2.226   4.625
15302TIP3    H145783   2.925   2.149   4.607
15302TIP3    H245784   3.069   2.193   4.628
15303TIP3   OH245785   8.133   4.278   1.678
15303TIP3    H145786   8.149   4.333   1.754
15303TIP3    H245787   8.128   4.339   1.604
15304TIP3   OH245788   7.936   6.519   3.868
15304TIP3    H145789   7.951   6.576   3.943
15304TIP3    H245790   8.013   6.532   3.813
15305TIP3   OH245791   7.195   3.098   0.356
15305TIP3    H145792   7.132   3.169   0.366
15305TIP3    H245793   7.197   3.054   0.441
15306TIP3   OH245794   7.695   8.413   3.407
15306TIP3    H145795   7.628   8.380   3.347
15306TIP3    H245796   7.751   8.469   3.354
15307TIP3   OH245797   8.556   3.707   0.700
15307TIP3    H145798   8.508   3.625   0.691
15307TIP3    H245799   8.505   3.758   0.763
15308TIP3   OH245800   0.297   8.197   3.697
15308TIP3    H145801   0.345   8.212   3.778
15308TIP3    H245802   0.285   8.102   3.694
15309TIP3   OH245803   6.033   0.050   4.739
15309TIP3    H145804   6.000  -0.016   4.800
15309TIP3    H245805   6.118   0.076   4.776
15310TIP3   OH245806   6.996   1.617   0.507
15310TIP3    H145807   6.993   1.525   0.478
15310TIP3    H245808   6.992   1.667   0.425
15311TIP3   OH245809   9.350   0.989   5.936
15311TIP3    H145810   9.426   1.044   5.955
15311TIP3    H245811   9.336   0.999   5.842
15312TIP3   OH245812   2.900   1.517   5.121
15312TIP3    H145813   2.901   1.429   5.085
15312TIP3    H245814   2.937   1.572   5.051
15313TIP3   OH245815   4.392   4.023   2.490
15313TIP3    H145816   4.343   4.086   2.437
15313TIP3    H245817   4.477   4.015   2.448
15314TIP3   OH245818   0.325   3.045   1.632
15314TIP3    H145819   0.377   3.052   1.552
15314TIP3    H245820   0.296   2.954   1.632
15315TIP3   OH245821   6.879   2.431   4.285
15315TIP3    H145822   6.910   2.411   4.197
15315TIP3    H245823   6.793   2.470   4.272
15316TIP3   OH245824   1.039   4.702   6.733
15316TIP3    H145825   1.132   4.686   6.747
15316TIP3    H245826   1.011   4.754   6.809
15317TIP3   OH245827   9.120   7.065   1.818
15317TIP3    H145828   9.193   7.024   1.866
15317TIP3    H245829   9.044   7.012   1.841
15318TIP3   OH245830   5.444   7.508   6.814
15318TIP3    H145831   5.534   7.539   6.803
15318TIP3    H245832   5.407   7.565   6.881
15319TIP3   OH245833   0.306   5.835   1.528
15319TIP3    H145834   0.390   5.848   1.484
15319TIP3    H245835   0.254   5.911   1.504
15320TIP3   OH245836   7.179   0.120   7.700
15320TIP3    H145837   7.257   0.118   7.645
15320TIP3    H245838   7.181   0.036   7.747
15321TIP3   OH245839   0.608   0.774   1.073
15321TIP3    H145840   0.575   0.857   1.109
15321TIP3    H245841   0.690   0.759   1.120
15322TIP3   OH245842   0.808   1.804   6.745
15322TIP3    H145843   0.754   1.748   6.688
15322TIP3    H245844   0.897   1.791   6.713
15323TIP3   OH245845   8.823   5.041   2.574
15323TIP3    H145846   8.747   5.033   2.516
15323TIP3    H245847   8.899   5.024   2.517
15324TIP3   OH245848   7.625   3.701   6.436
15324TIP3    H145849   7.618   3.787   6.395
15324TIP3    H245850   7.585   3.712   6.522
15325TIP3   OH245851   0.984   2.106   5.612
15325TIP3    H145852   1.026   2.182   5.573
15325TIP3    H245853   0.971   2.129   5.704
15326TIP3   OH245854   2.908   4.215   7.774
15326TIP3    H145855   2.886   4.122   7.769
15326TIP3    H245856   2.831   4.255   7.816
15327TIP3   OH245857   5.030   5.239   3.292
15327TIP3    H145858   4.941   5.220   3.322
15327TIP3    H245859   5.074   5.154   3.291
15328TIP3   OH245860   7.178   6.364   5.764
15328TIP3    H145861   7.236   6.420   5.713
15328TIP3    H245862   7.198   6.275   5.734
15329TIP3   OH245863   7.913   5.936   1.387
15329TIP3    H145864   7.927   5.922   1.480
15329TIP3    H245865   7.877   5.852   1.355
15330TIP3   OH245866   8.000   8.370   5.455
15330TIP3    H145867   8.005   8.385   5.550
15330TIP3    H245868   8.004   8.458   5.417
15331TIP3   OH245869   9.477   2.803   5.652
15331TIP3    H145870   9.499   2.824   5.743
15331TIP3    H245871   9.385   2.776   5.656
15332TIP3   OH245872   2.540   5.785   2.316
15332TIP3    H145873   2.632   5.806   2.333
15332TIP3    H245874   2.512   5.734   2.393
15333TIP3   OH245875   4.019   5.174   6.859
15333TIP3    H145876   3.980   5.130   6.784
15333TIP3    H245877   4.073   5.107   6.900
15334TIP3   OH245878   8.046   4.184   2.249
15334TIP3    H145879   8.129   4.160   2.209
15334TIP3    H245880   7.996   4.224   2.177
15335TIP3   OH245881   1.413   0.931   5.521
15335TIP3    H145882   1.473   0.861   5.546
15335TIP3    H245883   1.369   0.899   5.443
15336TIP3   OH245884   8.351   7.712   6.437
15336TIP3    H145885   8.338   7.801   6.471
15336TIP3    H245886   8.445   7.708   6.418
15337TIP3   OH245887   6.795   6.458   0.081
15337TIP3    H145888   6.717   6.455   0.025
15337TIP3    H245889   6.797   6.547   0.115
15338TIP3   OH245890   4.918   6.806   6.358
15338TIP3    H145891   4.881   6.805   6.270
15338TIP3    H245892   4.875   6.734   6.404
15339TIP3   OH245893   4.356   3.184   0.308
15339TIP3    H145894   4.280   3.134   0.335
15339TIP3    H245895   4.321   3.267   0.274
15340TIP3   OH245896   1.002   1.328   1.583
15340TIP3    H145897   0.932   1.368   1.636
15340TIP3    H245898   1.083   1.368   1.616
15341TIP3   OH245899   7.613   2.856   1.286
15341TIP3    H145900   7.535   2.840   1.234
15341TIP3    H245901   7.582   2.899   1.365
15342TIP3   OH245902   3.291   5.048   3.564
15342TIP3    H145903   3.213   4.993   3.554
15342TIP3    H245904   3.343   5.004   3.632
15343TIP3   OH245905   8.971   5.698   3.749
15343TIP3    H145906   9.011   5.774   3.706
15343TIP3    H245907   8.917   5.657   3.682
15344TIP3   OH245908   0.505   4.370   3.797
15344TIP3    H145909   0.498   4.454   3.752
15344TIP3    H245910   0.429   4.368   3.855
15345TIP3   OH245911   2.642   2.314   2.012
15345TIP3    H145912   2.685   2.390   1.973
15345TIP3    H245913   2.610   2.264   1.937
15346TIP3   OH245914   1.866   1.601   7.453
15346TIP3    H145915   1.868   1.620   7.546
15346TIP3    H245916   1.953   1.567   7.433
15347TIP3   OH245917   5.288   5.921   4.230
15347TIP3    H145918   5.370   5.924   4.279
15347TIP3    H245919   5.230   5.982   4.275
15348TIP3   OH245920   7.310   3.484   7.080
15348TIP3    H145921   7.391   3.503   7.034
15348TIP3    H245922   7.333   3.413   7.141
15349TIP3   OH245923   2.802   5.402   4.701
15349TIP3    H145924   2.774   5.475   4.647
15349TIP3    H245925   2.872   5.437   4.756
15350TIP3   OH245926   4.262   4.300   2.041
15350TIP3    H145927   4.222   4.380   2.075
15350TIP3    H245928   4.333   4.281   2.103
15351TIP3   OH245929   5.950   1.608   6.387
15351TIP3    H145930   5.913   1.695   6.404
15351TIP3    H245931   5.936   1.559   6.468
15352TIP3   OH245932   5.201   0.828   6.648
15352TIP3    H145933   5.285   0.797   6.614
15352TIP3    H245934   5.214   0.922   6.662
15353TIP3   OH245935   1.213   3.122   5.832
15353TIP3    H145936   1.133   3.072   5.842
15353TIP3    H245937   1.265   3.073   5.768
15354TIP3   OH245938   4.906   4.894   2.729
15354TIP3    H145939   4.992   4.852   2.726
15354TIP3    H245940   4.884   4.897   2.822
15355TIP3   OH245941   1.792   7.254   6.543
15355TIP3    H145942   1.817   7.171   6.582
15355TIP3    H245943   1.829   7.320   6.602
15356TIP3   OH245944   8.362   2.058   1.736
15356TIP3    H145945   8.271   2.088   1.734
15356TIP3    H245946   8.410   2.122   1.685
15357TIP3   OH245947   3.475   4.152   0.758
15357TIP3    H145948   3.488   4.095   0.682
15357TIP3    H245949   3.559   4.152   0.803
15358TIP3   OH245950   0.339   1.134   7.516
15358TIP3    H145951   0.386   1.217   7.512
15358TIP3    H245952   0.252   1.154   7.482
15359TIP3   OH245953   5.776   2.764   2.734
15359TIP3    H145954   5.837   2.691   2.721
15359TIP3    H245955   5.727   2.769   2.652
15360TIP3   OH245956   3.465   7.390   4.544
15360TIP3    H145957   3.523   7.467   4.551
15360TIP3    H245958   3.511   7.331   4.484
15361TIP3   OH245959   9.178   0.320   5.363
15361TIP3    H145960   9.204   0.230   5.342
15361TIP3    H245961   9.120   0.311   5.439
15362TIP3   OH245962   1.585   8.721   2.684
15362TIP3    H145963   1.625   8.687   2.763
15362TIP3    H245964   1.546   8.644   2.641
15363TIP3   OH245965   3.780   2.256   3.092
15363TIP3    H145966   3.849   2.288   3.150
15363TIP3    H245967   3.807   2.286   3.005
15364TIP3   OH245968   4.321   6.094   6.311
15364TIP3    H145969   4.239   6.141   6.294
15364TIP3    H245970   4.345   6.119   6.400
15365TIP3   OH245971   6.795   0.301   5.956
15365TIP3    H145972   6.881   0.260   5.961
15365TIP3    H245973   6.749   0.252   5.888
15366TIP3   OH245974   5.390   2.607   1.237
15366TIP3    H145975   5.296   2.625   1.229
15366TIP3    H245976   5.431   2.667   1.173
15367TIP3   OH245977   2.793   6.472   1.865
15367TIP3    H145978   2.770   6.424   1.786
15367TIP3    H245979   2.741   6.430   1.934
15368TIP3   OH245980   1.822   7.909   1.387
15368TIP3    H145981   1.772   7.946   1.314
15368TIP3    H245982   1.771   7.833   1.415
15369TIP3   OH245983   0.900   2.573   7.679
15369TIP3    H145984   0.813   2.539   7.700
15369TIP3    H245985   0.896   2.594   7.586
15370TIP3   OH245986   2.865   6.411   6.900
15370TIP3    H145987   2.800   6.428   6.968
15370TIP3    H245988   2.944   6.454   6.932
15371TIP3   OH245989   1.136   8.276   0.108
15371TIP3    H145990   1.085   8.328   0.045
15371TIP3    H245991   1.225   8.277   0.072
15372TIP3   OH245992   0.257   1.663   1.213
15372TIP3    H145993   0.172   1.669   1.255
15372TIP3    H245994   0.258   1.575   1.173
15373TIP3   OH245995   7.640   7.752   3.969
15373TIP3    H145996   7.594   7.669   3.976
15373TIP3    H245997   7.647   7.767   3.875
15374TIP3   OH245998   8.119   1.139   2.452
15374TIP3    H145999   8.195   1.184   2.415
15374TIP3    H246000   8.093   1.076   2.385
15375TIP3   OH246001   6.000   8.903   6.368
15375TIP3    H146002   6.010   8.859   6.283
15375TIP3    H246003   5.945   8.979   6.349
15376TIP3   OH246004   6.054   7.221   7.234
15376TIP3    H146005   5.998   7.297   7.252
15376TIP3    H246006   6.039   7.162   7.307
15377TIP3   OH246007   3.307   5.001   3.839
15377TIP3    H146008   3.235   5.062   3.825
15377TIP3    H246009   3.269   4.929   3.890
15378TIP3   OH246010   0.134   8.749   4.537
15378TIP3    H146011   0.144   8.827   4.484
15378TIP3    H246012   0.095   8.780   4.619
15379TIP3   OH246013   3.812   6.803   0.514
15379TIP3    H146014   3.872   6.798   0.440
15379TIP3    H246015   3.822   6.719   0.559
15380TIP3   OH246016   7.813   8.998   3.599
15380TIP3    H146017   7.779   9.069   3.545
15380TIP3    H246018   7.885   8.961   3.548
15381TIP3   OH246019   3.018   0.903   0.344
15381TIP3    H146020   2.928   0.933   0.359
15381TIP3    H246021   3.056   0.898   0.431
15382TIP3   OH246022   6.250   2.388   6.477
15382TIP3    H146023   6.200   2.414   6.554
15382TIP3    H246024   6.187   2.343   6.421
15383TIP3   OH246025   5.241   4.550   3.659
15383TIP3    H146026   5.241   4.455   3.668
15383TIP3    H246027   5.208   4.582   3.743
15384TIP3   OH246028   7.312   1.283   5.624
15384TIP3    H146029   7.366   1.257   5.550
15384TIP3    H246030   7.271   1.365   5.597
15385TIP3   OH246031   4.945   0.725   5.289
15385TIP3    H146032   5.032   0.717   5.329
15385TIP3    H246033   4.890   0.760   5.359
15386TIP3   OH246034   8.207   4.269   4.725
15386TIP3    H146035   8.287   4.321   4.728
15386TIP3    H246036   8.222   4.197   4.786
15387TIP3   OH246037   5.052   2.158   5.664
15387TIP3    H146038   4.994   2.203   5.602
15387TIP3    H246039   4.995   2.094   5.707
15388TIP3   OH246040   7.208   8.289   3.188
15388TIP3    H146041   7.187   8.220   3.251
15388TIP3    H246042   7.135   8.289   3.127
15389TIP3   OH246043   2.120   2.372   6.157
15389TIP3    H146044   2.076   2.451   6.126
15389TIP3    H246045   2.214   2.393   6.151
15390TIP3   OH246046   5.962   8.628   0.638
15390TIP3    H146047   5.960   8.714   0.679
15390TIP3    H246048   6.054   8.602   0.641
15391TIP3   OH246049   9.131   1.875   6.919
15391TIP3    H146050   9.149   1.930   6.843
15391TIP3    H246051   9.174   1.792   6.900
15392TIP3   OH246052   9.270   4.692   4.013
15392TIP3    H146053   9.287   4.736   3.930
15392TIP3    H246054   9.227   4.610   3.989
15393TIP3   OH246055   9.092   4.863   0.315
15393TIP3    H146056   9.173   4.894   0.272
15393TIP3    H246057   9.059   4.795   0.256
15394TIP3   OH246058   9.108   3.853   2.999
15394TIP3    H146059   9.024   3.889   2.974
15394TIP3    H246060   9.089   3.800   3.077
15395TIP3   OH246061   2.074   8.488   3.549
15395TIP3    H146062   2.079   8.579   3.518
15395TIP3    H246063   1.983   8.463   3.534
15396TIP3   OH246064   3.135   4.332   0.955
15396TIP3    H146065   3.185   4.270   1.009
15396TIP3    H246066   3.045   4.323   0.985
15397TIP3   OH246067   0.068   7.141   3.523
15397TIP3    H146068  -0.010   7.094   3.555
15397TIP3    H246069   0.107   7.081   3.459
15398TIP3   OH246070   9.434   8.140   4.954
15398TIP3    H146071   9.413   8.060   5.002
15398TIP3    H246072   9.386   8.132   4.872
15399TIP3   OH246073   1.905   1.897   4.007
15399TIP3    H146074   1.908   1.980   3.960
15399TIP3    H246075   1.944   1.834   3.948
15400TIP3   OH246076   3.444   0.599   1.025
15400TIP3    H146077   3.505   0.538   0.985
15400TIP3    H246078   3.499   0.665   1.067
15401TIP3   OH246079   9.359   6.309   4.584
15401TIP3    H146080   9.398   6.222   4.576
15401TIP3    H246081   9.290   6.299   4.650
15402TIP3   OH246082   7.395   0.507   0.635
15402TIP3    H146083   7.445   0.428   0.656
15402TIP3    H246084   7.457   0.579   0.647
15403TIP3   OH246085   3.557   1.208   5.403
15403TIP3    H146086   3.608   1.216   5.484
15403TIP3    H246087   3.568   1.292   5.358
15404TIP3   OH246088   5.300   7.398   7.298
15404TIP3    H146089   5.228   7.438   7.346
15404TIP3    H246090   5.260   7.361   7.220
15405TIP3   OH246091   7.056   5.412   0.282
15405TIP3    H146092   7.119   5.463   0.231
15405TIP3    H246093   7.028   5.471   0.352
15406TIP3   OH246094   6.775   8.426   4.980
15406TIP3    H146095   6.724   8.381   5.047
15406TIP3    H246096   6.735   8.400   4.897
15407TIP3   OH246097   8.515   3.257   2.570
15407TIP3    H146098   8.593   3.280   2.520
15407TIP3    H246099   8.442   3.297   2.521
15408TIP3   OH246100   4.346   2.794   3.581
15408TIP3    H146101   4.360   2.737   3.656
15408TIP3    H246102   4.256   2.776   3.554
15409TIP3   OH246103   3.683   5.690   7.572
15409TIP3    H146104   3.645   5.747   7.638
15409TIP3    H246105   3.657   5.729   7.488
15410TIP3   OH246106   1.426   1.067   2.233
15410TIP3    H146107   1.472   0.988   2.205
15410TIP3    H246108   1.425   1.122   2.154
15411TIP3   OH246109   1.551   8.411   6.828
15411TIP3    H146110   1.510   8.494   6.802
15411TIP3    H246111   1.645   8.428   6.819
15412TIP3   OH246112   4.642   3.329   1.499
15412TIP3    H146113   4.580   3.385   1.545
15412TIP3    H246114   4.657   3.374   1.415
15413TIP3   OH246115   3.819   5.278   4.868
15413TIP3    H146116   3.813   5.184   4.853
15413TIP3    H246117   3.862   5.313   4.790
15414TIP3   OH246118   8.351   4.317   6.087
15414TIP3    H146119   8.419   4.263   6.047
15414TIP3    H246120   8.372   4.317   6.180
15415TIP3   OH246121   8.705   8.321   6.298
15415TIP3    H146122   8.708   8.404   6.250
15415TIP3    H246123   8.745   8.258   6.238
15416TIP3   OH246124   6.058   4.697   7.214
15416TIP3    H146125   6.127   4.649   7.259
15416TIP3    H246126   6.084   4.696   7.122
15417TIP3   OH246127   1.484   2.141   4.301
15417TIP3    H146128   1.515   2.074   4.241
15417TIP3    H246129   1.455   2.213   4.244
15418TIP3   OH246130   4.460   5.134   4.406
15418TIP3    H146131   4.379   5.153   4.453
15418TIP3    H246132   4.529   5.141   4.473
15419TIP3   OH246133   9.247   8.610   3.411
15419TIP3    H146134   9.289   8.613   3.325
15419TIP3    H246135   9.155   8.629   3.394
15420TIP3   OH246136   0.961   2.689   4.550
15420TIP3    H146137   1.027   2.671   4.483
15420TIP3    H246138   0.956   2.608   4.601
15421TIP3   OH246139   4.228   5.591   4.386
15421TIP3    H146140   4.291   5.661   4.369
15421TIP3    H246141   4.266   5.514   4.344
15422TIP3   OH246142   2.036   7.545   5.061
15422TIP3    H146143   1.951   7.535   5.104
15422TIP3    H246144   2.023   7.507   4.974
15423TIP3   OH246145   3.193   0.910   3.010
15423TIP3    H146146   3.107   0.878   3.036
15423TIP3    H246147   3.246   0.831   2.996
15424TIP3   OH246148   4.679   8.242   7.772
15424TIP3    H146149   4.702   8.149   7.762
15424TIP3    H246150   4.609   8.242   7.838
15425TIP3   OH246151   3.596   2.551   7.084
15425TIP3    H146152   3.671   2.593   7.125
15425TIP3    H246153   3.521   2.601   7.115
15426TIP3   OH246154   5.136   7.297   7.095
15426TIP3    H146155   5.171   7.273   7.009
15426TIP3    H246156   5.050   7.255   7.098
15427TIP3   OH246157   1.215   4.761   1.298
15427TIP3    H146158   1.147   4.694   1.294
15427TIP3    H246159   1.248   4.758   1.387
15428TIP3   OH246160   7.139   8.225   6.989
15428TIP3    H146161   7.216   8.172   7.011
15428TIP3    H246162   7.108   8.190   6.906
15429TIP3   OH246163   5.470   3.982   4.990
15429TIP3    H146164   5.389   4.016   4.953
15429TIP3    H246165   5.535   3.995   4.921
15430TIP3   OH246166   0.735   1.414   7.267
15430TIP3    H146167   0.765   1.386   7.181
15430TIP3    H246168   0.721   1.508   7.258
15431TIP3   OH246169   2.083   4.097   7.192
15431TIP3    H146170   2.148   4.167   7.185
15431TIP3    H246171   2.010   4.136   7.239
15432TIP3   OH246172   6.297   7.694   7.605
15432TIP3    H146173   6.273   7.658   7.520
15432TIP3    H246174   6.274   7.787   7.599
15433TIP3   OH246175   1.769   8.072   1.612
15433TIP3    H146176   1.697   8.017   1.644
15433TIP3    H246177   1.806   8.022   1.539
15434TIP3   OH246178   4.197   6.204   4.186
15434TIP3    H146179   4.212   6.150   4.264
15434TIP3    H246180   4.238   6.288   4.207
15435TIP3   OH246181   8.083   4.738   0.976
15435TIP3    H146182   8.151   4.805   0.966
15435TIP3    H246183   8.080   4.694   0.891
15436TIP3   OH246184   9.263   0.802   4.940
15436TIP3    H146185   9.196   0.746   4.979
15436TIP3    H246186   9.275   0.872   5.004
15437TIP3   OH246187   7.357   3.633   5.399
15437TIP3    H146188   7.353   3.597   5.488
15437TIP3    H246189   7.277   3.602   5.357
15438TIP3   OH246190   5.313   0.049   3.529
15438TIP3    H146191   5.284   0.111   3.462
15438TIP3    H246192   5.392   0.010   3.492
15439TIP3   OH246193   5.613   3.172   2.191
15439TIP3    H146194   5.665   3.240   2.233
15439TIP3    H246195   5.533   3.216   2.163
15440TIP3   OH246196   8.297   2.549   7.216
15440TIP3    H146197   8.326   2.505   7.136
15440TIP3    H246198   8.322   2.641   7.203
15441TIP3   OH246199   2.019   0.074   4.749
15441TIP3    H146200   2.109   0.047   4.732
15441TIP3    H246201   2.014   0.164   4.716
15442TIP3   OH246202   4.117   3.228   2.750
15442TIP3    H146203   4.037   3.269   2.782
15442TIP3    H246204   4.126   3.261   2.660
15443TIP3   OH246205   7.914   7.111   5.614
15443TIP3    H146206   7.981   7.043   5.613
15443TIP3    H246207   7.921   7.154   5.529
15444TIP3   OH246208   5.911   7.147   4.176
15444TIP3    H146209   5.948   7.232   4.152
15444TIP3    H246210   5.918   7.144   4.271
15445TIP3   OH246211   4.005   3.064   3.944
15445TIP3    H146212   3.966   2.981   3.918
15445TIP3    H246213   4.007   3.116   3.864
15446TIP3   OH246214   8.650   3.984   2.574
15446TIP3    H146215   8.592   3.910   2.559
15446TIP3    H246216   8.593   4.053   2.609
15447TIP3   OH246217   4.643   7.622   6.756
15447TIP3    H146218   4.563   7.636   6.705
15447TIP3    H246219   4.644   7.693   6.820
15448TIP3   OH246220   7.381   2.691   3.641
15448TIP3    H146221   7.473   2.718   3.632
15448TIP3    H246222   7.386   2.603   3.679
15449TIP3   OH246223   1.495   4.898   3.943
15449TIP3    H146224   1.492   4.993   3.926
15449TIP3    H246225   1.427   4.884   4.009
15450TIP3   OH246226   2.668   7.772   5.951
15450TIP3    H146227   2.710   7.728   6.026
15450TIP3    H246228   2.635   7.700   5.897
15451TIP3   OH246229   1.179   3.078   3.309
15451TIP3    H146230   1.218   2.992   3.327
15451TIP3    H246231   1.252   3.132   3.280
15452TIP3   OH246232   9.498   3.563   3.438
15452TIP3    H146233   9.571   3.531   3.386
15452TIP3    H246234   9.426   3.570   3.376
15453TIP3   OH246235   3.744   3.224   2.423
15453TIP3    H146236   3.831   3.263   2.436
15453TIP3    H246237   3.683   3.293   2.450
15454TIP3   OH246238   5.003   2.270   4.144
15454TIP3    H146239   5.048   2.198   4.099
15454TIP3    H246240   4.958   2.229   4.217
15455TIP3   OH246241   2.027   3.840   7.654
15455TIP3    H146242   2.017   3.898   7.578
15455TIP3    H246243   2.113   3.861   7.689
15456TIP3   OH246244   3.856   2.228   7.150
15456TIP3    H146245   3.893   2.143   7.172
15456TIP3    H246246   3.909   2.292   7.198
15457TIP3   OH246247   0.254   5.020   7.453
15457TIP3    H146248   0.323   4.973   7.500
15457TIP3    H246249   0.177   4.964   7.460
15458TIP3   OH246250   6.362   3.948   3.985
15458TIP3    H146251   6.433   3.883   3.986
15458TIP3    H246252   6.373   3.995   3.903
15459TIP3   OH246253   0.354   6.983   0.906
15459TIP3    H146254   0.445   6.974   0.936
15459TIP3    H246255   0.334   6.898   0.868
15460TIP3   OH246256   7.287   2.713   0.104
15460TIP3    H146257   7.219   2.774   0.073
15460TIP3    H246258   7.330   2.760   0.175
15461TIP3   OH246259   8.891   6.550   3.154
15461TIP3    H146260   8.976   6.556   3.197
15461TIP3    H246261   8.834   6.610   3.203
15462TIP3   OH246262   9.048   7.556   1.671
15462TIP3    H146263   9.137   7.582   1.691
15462TIP3    H246264   9.005   7.548   1.756
15463TIP3   OH246265   6.621   7.291   1.679
15463TIP3    H146266   6.656   7.237   1.608
15463TIP3    H246267   6.694   7.347   1.705
15464TIP3   OH246268   8.097   0.116   4.372
15464TIP3    H146269   8.146   0.117   4.454
15464TIP3    H246270   8.109   0.204   4.335
15465TIP3   OH246271   0.466   3.681   4.267
15465TIP3    H146272   0.400   3.725   4.214
15465TIP3    H246273   0.416   3.623   4.324
15466TIP3   OH246274   1.200   0.883   6.353
15466TIP3    H146275   1.211   0.978   6.353
15466TIP3    H246276   1.165   0.862   6.439
15467TIP3   OH246277   4.393   4.462   1.009
15467TIP3    H146278   4.483   4.470   0.977
15467TIP3    H246279   4.355   4.548   0.994
15468TIP3   OH246280   0.884   3.254   7.529
15468TIP3    H146281   0.821   3.320   7.500
15468TIP3    H246282   0.933   3.297   7.599
15469TIP3   OH246283   3.229   8.869   5.598
15469TIP3    H146284   3.277   8.861   5.680
15469TIP3    H246285   3.289   8.835   5.532
15470TIP3   OH246286   8.902   7.310   3.629
15470TIP3    H146287   8.958   7.362   3.686
15470TIP3    H246288   8.959   7.239   3.598
15471TIP3   OH246289   2.841   2.321   6.547
15471TIP3    H146290   2.882   2.269   6.478
15471TIP3    H246291   2.765   2.269   6.575
15472TIP3   OH246292   0.098   2.549   6.781
15472TIP3    H146293   0.105   2.642   6.804
15472TIP3    H246294   0.143   2.541   6.697
15473TIP3   OH246295   5.011   2.149   1.315
15473TIP3    H146296   4.963   2.087   1.260
15473TIP3    H246297   5.084   2.099   1.351
15474TIP3   OH246298   5.746   4.469   4.855
15474TIP3    H146299   5.808   4.542   4.852
15474TIP3    H246300   5.675   4.496   4.796
15475TIP3   OH246301   2.753   3.330   7.310
15475TIP3    H146302   2.807   3.352   7.235
15475TIP3    H246303   2.772   3.397   7.375
15476TIP3   OH246304   5.069   0.467   5.665
15476TIP3    H146305   5.093   0.559   5.649
15476TIP3    H246306   4.994   0.472   5.724
15477TIP3   OH246307   3.542   2.395   4.764
15477TIP3    H146308   3.614   2.436   4.812
15477TIP3    H246309   3.550   2.302   4.783
15478TIP3   OH246310   6.187   6.938   5.596
15478TIP3    H146311   6.166   7.007   5.658
15478TIP3    H246312   6.191   6.858   5.649
15479TIP3   OH246313   6.117   7.399   7.600
15479TIP3    H146314   6.022   7.400   7.589
15479TIP3    H246315   6.149   7.467   7.541
15480TIP3   OH246316   3.629   6.326   6.458
15480TIP3    H146317   3.723   6.342   6.471
15480TIP3    H246318   3.587   6.406   6.488
15481TIP3   OH246319   8.456   1.553   5.075
15481TIP3    H146320   8.463   1.505   5.158
15481TIP3    H246321   8.376   1.519   5.034
15482TIP3   OH246322   3.472   3.537   7.618
15482TIP3    H146323   3.397   3.594   7.604
15482TIP3    H246324   3.546   3.596   7.631
15483TIP3   OH246325   7.032   3.261   3.800
15483TIP3    H146326   7.100   3.219   3.747
15483TIP3    H246327   6.959   3.274   3.739
15484TIP3   OH246328   7.454   7.285   5.653
15484TIP3    H146329   7.408   7.356   5.698
15484TIP3    H246330   7.396   7.261   5.580
15485TIP3   OH246331   5.597   2.706   5.308
15485TIP3    H146332   5.631   2.769   5.244
15485TIP3    H246333   5.564   2.633   5.254
15486TIP3   OH246334   3.075   4.461   2.180
15486TIP3    H146335   3.139   4.393   2.202
15486TIP3    H246336   3.091   4.481   2.088
15487TIP3   OH246337   9.188   0.522   0.413
15487TIP3    H146338   9.127   0.547   0.483
15487TIP3    H246339   9.199   0.602   0.361
15488TIP3   OH246340   1.953   2.077   7.171
15488TIP3    H146341   1.939   2.063   7.078
15488TIP3    H246342   1.946   1.990   7.210
15489TIP3   OH246343   0.305   1.591   6.210
15489TIP3    H146344   0.241   1.563   6.275
15489TIP3    H246345   0.261   1.578   6.126
15490TIP3   OH246346   6.399   1.958   2.867
15490TIP3    H146347   6.370   1.927   2.782
15490TIP3    H246348   6.444   2.041   2.849
15491TIP3   OH246349   6.466   5.614   7.583
15491TIP3    H146350   6.477   5.709   7.593
15491TIP3    H246351   6.435   5.585   7.669
15492TIP3   OH246352   7.523   6.059   1.622
15492TIP3    H146353   7.616   6.048   1.644
15492TIP3    H246354   7.479   6.054   1.707
15493TIP3   OH246355   2.120   7.889   2.615
15493TIP3    H146356   2.203   7.918   2.654
15493TIP3    H246357   2.146   7.839   2.537
15494TIP3   OH246358   0.922   4.244   5.500
15494TIP3    H146359   0.914   4.164   5.449
15494TIP3    H246360   0.998   4.289   5.464
15495TIP3   OH246361   3.757   1.982   6.942
15495TIP3    H146362   3.759   1.974   7.037
15495TIP3    H246363   3.677   1.935   6.916
15496TIP3   OH246364   8.464   0.100   7.646
15496TIP3    H146365   8.463   0.007   7.668
15496TIP3    H246366   8.495   0.143   7.726
15497TIP3   OH246367   8.885   5.662   4.008
15497TIP3    H146368   8.897   5.674   3.914
15497TIP3    H246369   8.947   5.592   4.031
15498TIP3   OH246370   0.555   4.883   0.676
15498TIP3    H146371   0.576   4.976   0.676
15498TIP3    H246372   0.590   4.851   0.759
15499TIP3   OH246373   1.721   3.152   5.022
15499TIP3    H146374   1.656   3.196   5.077
15499TIP3    H246375   1.745   3.073   5.071
15500TIP3   OH246376   6.139   4.882   0.706
15500TIP3    H146377   6.152   4.944   0.634
15500TIP3    H246378   6.112   4.801   0.663
15501TIP3   OH246379   4.479   4.420   6.222
15501TIP3    H146380   4.397   4.467   6.206
15501TIP3    H246381   4.476   4.397   6.315
15502TIP3   OH246382   2.878   0.896   3.331
15502TIP3    H146383   2.865   0.989   3.345
15502TIP3    H246384   2.798   0.855   3.364
15503TIP3   OH246385   2.901   4.891   6.987
15503TIP3    H146386   2.844   4.881   6.911
15503TIP3    H246387   2.981   4.845   6.964
15504TIP3   OH246388   9.448   0.927   0.256
15504TIP3    H146389   9.381   0.887   0.311
15504TIP3    H246390   9.527   0.930   0.311
15505TIP3   OH246391   5.726   5.828   7.783
15505TIP3    H146392   5.689   5.845   7.696
15505TIP3    H246393   5.804   5.883   7.787
15506TIP3   OH246394   3.198   5.932   1.350
15506TIP3    H146395   3.274   5.874   1.347
15506TIP3    H246396   3.169   5.939   1.259
15507TIP3   OH246397   1.314   0.272   1.308
15507TIP3    H146398   1.293   0.295   1.217
15507TIP3    H246399   1.251   0.321   1.361
15508TIP3   OH246400   4.948   7.539   1.772
15508TIP3    H146401   4.965   7.563   1.681
15508TIP3    H246402   4.856   7.559   1.786
15509TIP3   OH246403   0.033   3.911   4.737
15509TIP3    H146404  -0.010   3.990   4.704
15509TIP3    H246405   0.123   3.939   4.755
15510TIP3   OH246406   1.027   4.671   1.576
15510TIP3    H146407   1.039   4.706   1.664
15510TIP3    H246408   0.949   4.715   1.543
15511TIP3   OH246409   7.060   7.746   6.992
15511TIP3    H146410   7.083   7.746   6.899
15511TIP3    H246411   7.118   7.681   7.031
15512TIP3   OH246412   1.614   6.124   6.827
15512TIP3    H146413   1.555   6.053   6.803
15512TIP3    H246414   1.675   6.131   6.753
15513TIP3   OH246415   4.872   2.731   4.293
15513TIP3    H146416   4.830   2.787   4.359
15513TIP3    H246417   4.899   2.653   4.342
15514TIP3   OH246418   1.389   4.672   2.950
15514TIP3    H146419   1.452   4.706   3.014
15514TIP3    H246420   1.354   4.749   2.906
15515TIP3   OH246421   0.021   7.399   6.658
15515TIP3    H146422  -0.058   7.446   6.686
15515TIP3    H246423   0.016   7.314   6.703
15516TIP3   OH246424   0.120   0.519   1.378
15516TIP3    H146425   0.053   0.533   1.445
15516TIP3    H246426   0.201   0.505   1.427
15517TIP3   OH246427   8.342   3.973   4.658
15517TIP3    H146428   8.322   3.882   4.679
15517TIP3    H246429   8.336   3.978   4.563
15518TIP3   OH246430   6.585   3.159   0.010
15518TIP3    H146431   6.626   3.236  -0.029
15518TIP3    H246432   6.540   3.116  -0.063
15519TIP3   OH246433   8.830   8.160   6.727
15519TIP3    H146434   8.874   8.208   6.797
15519TIP3    H246435   8.822   8.224   6.656
15520TIP3   OH246436   7.819   6.898   1.611
15520TIP3    H146437   7.819   6.974   1.669
15520TIP3    H246438   7.730   6.894   1.576
15521TIP3   OH246439   5.280   6.824   7.177
15521TIP3    H146440   5.227   6.848   7.101
15521TIP3    H246441   5.217   6.795   7.242
15522TIP3   OH246442   2.762   7.138   7.335
15522TIP3    H146443   2.718   7.183   7.264
15522TIP3    H246444   2.825   7.080   7.291
15523TIP3   OH246445   0.221   1.108   2.244
15523TIP3    H146446   0.169   1.088   2.322
15523TIP3    H246447   0.250   1.199   2.257
15524TIP3   OH246448   6.428   0.532   5.527
15524TIP3    H146449   6.485   0.568   5.458
15524TIP3    H246450   6.459   0.442   5.539
15525TIP3   OH246451   3.732   8.545   7.534
15525TIP3    H146452   3.655   8.491   7.515
15525TIP3    H246453   3.704   8.634   7.516
15526TIP3   OH246454   4.632   2.648   6.208
15526TIP3    H146455   4.581   2.716   6.253
15526TIP3    H246456   4.626   2.572   6.265
15527TIP3   OH246457   2.905   6.127   5.076
15527TIP3    H146458   2.959   6.097   5.149
15527TIP3    H246459   2.914   6.058   5.010
15528TIP3   OH246460   2.892   3.405   1.213
15528TIP3    H146461   2.968   3.350   1.194
15528TIP3    H246462   2.862   3.375   1.299
15529TIP3   OH246463   2.865   2.302   1.234
15529TIP3    H146464   2.820   2.372   1.281
15529TIP3    H246465   2.869   2.333   1.143
15530TIP3   OH246466   6.551   1.573   6.290
15530TIP3    H146467   6.542   1.580   6.195
15530TIP3    H246468   6.494   1.501   6.315
15531TIP3   OH246469   0.787   6.381   2.035
15531TIP3    H146470   0.706   6.430   2.047
15531TIP3    H246471   0.788   6.360   1.942
15532TIP3   OH246472   9.417   1.010   5.415
15532TIP3    H146473   9.492   0.963   5.452
15532TIP3    H246474   9.455   1.090   5.380
15533TIP3   OH246475   9.179   6.038   0.747
15533TIP3    H146476   9.103   6.016   0.800
15533TIP3    H246477   9.170   6.132   0.729
15534TIP3   OH246478   1.824   4.947   6.945
15534TIP3    H146479   1.763   4.874   6.955
15534TIP3    H246480   1.817   4.973   6.853
15535TIP3   OH246481   3.658   7.699   2.284
15535TIP3    H146482   3.697   7.614   2.303
15535TIP3    H246483   3.569   7.678   2.255
15536TIP3   OH246484   3.370   4.215   7.317
15536TIP3    H146485   3.421   4.184   7.392
15536TIP3    H246486   3.425   4.282   7.277
15537TIP3   OH246487   8.133   7.322   5.653
15537TIP3    H146488   8.043   7.326   5.684
15537TIP3    H246489   8.178   7.392   5.700
15538TIP3   OH246490   1.705   8.203   7.073
15538TIP3    H146491   1.614   8.189   7.045
15538TIP3    H246492   1.743   8.116   7.077
15539TIP3   OH246493   6.976   8.377   2.297
15539TIP3    H146494   6.889   8.418   2.297
15539TIP3    H246495   6.985   8.339   2.210
15540TIP3   OH246496   8.530   7.043   7.113
15540TIP3    H146497   8.545   7.062   7.206
15540TIP3    H246498   8.592   6.973   7.093
15541TIP3   OH246499   7.693   0.181   2.889
15541TIP3    H146500   7.727   0.259   2.933
15541TIP3    H246501   7.678   0.208   2.799
15542TIP3   OH246502   0.865   6.227   1.518
15542TIP3    H146503   0.908   6.304   1.480
15542TIP3    H246504   0.832   6.179   1.442
15543TIP3   OH246505   6.978   4.819   7.301
15543TIP3    H146506   7.032   4.851   7.229
15543TIP3    H246507   6.888   4.828   7.269
15544TIP3   OH246508   3.043   8.391   0.591
15544TIP3    H146509   3.118   8.379   0.649
15544TIP3    H246510   2.972   8.345   0.634
15545TIP3   OH246511   5.564   3.220   7.565
15545TIP3    H146512   5.631   3.256   7.506
15545TIP3    H246513   5.614   3.179   7.636
15546TIP3   OH246514   6.810   2.920   2.918
15546TIP3    H146515   6.904   2.913   2.905
15546TIP3    H246516   6.789   3.010   2.896
15547TIP3   OH246517   0.238   7.743   4.051
15547TIP3    H146518   0.253   7.785   4.136
15547TIP3    H246519   0.284   7.660   4.058
15548TIP3   OH246520   0.976   6.134   0.526
15548TIP3    H146521   0.952   6.065   0.588
15548TIP3    H246522   0.999   6.087   0.446
15549TIP3   OH246523   4.967   0.077   2.281
15549TIP3    H146524   4.938   0.029   2.358
15549TIP3    H246525   5.057   0.102   2.301
15550TIP3   OH246526   3.391   1.774   3.510
15550TIP3    H146527   3.295   1.783   3.508
15550TIP3    H246528   3.422   1.854   3.552
15551TIP3   OH246529   4.121   3.541   7.651
15551TIP3    H146530   4.203   3.588   7.640
15551TIP3    H246531   4.147   3.454   7.681
15552TIP3   OH246532   5.617   2.380   1.152
15552TIP3    H146533   5.651   2.337   1.231
15552TIP3    H246534   5.613   2.473   1.176
15553TIP3   OH246535   8.973   5.047   2.072
15553TIP3    H146536   8.922   5.110   2.021
15553TIP3    H246537   8.909   4.982   2.101
15554TIP3   OH246538   2.714   0.742   5.806
15554TIP3    H146539   2.757   0.735   5.721
15554TIP3    H246540   2.639   0.683   5.799
15555TIP3   OH246541   6.182   0.949   3.862
15555TIP3    H146542   6.235   0.908   3.931
15555TIP3    H246543   6.111   0.886   3.845
15556TIP3   OH246544   5.052   8.356   5.919
15556TIP3    H146545   5.036   8.331   6.010
15556TIP3    H246546   5.142   8.329   5.902
15557TIP3   OH246547   4.185   6.601   4.835
15557TIP3    H146548   4.267   6.556   4.814
15557TIP3    H246549   4.211   6.670   4.896
15558TIP3   OH246550   7.951   1.822   5.987
15558TIP3    H146551   7.925   1.873   5.911
15558TIP3    H246552   7.962   1.733   5.953
15559TIP3   OH246553   9.011   1.885   3.440
15559TIP3    H146554   9.049   1.840   3.364
15559TIP3    H246555   8.978   1.815   3.496
15560TIP3   OH246556   9.186   0.554   3.704
15560TIP3    H146557   9.188   0.496   3.627
15560TIP3    H246558   9.137   0.630   3.676
15561TIP3   OH246559   7.969   7.045   7.779
15561TIP3    H146560   7.880   7.075   7.796
15561TIP3    H246561   8.024   7.107   7.827
15562TIP3   OH246562   5.961   8.730   6.878
15562TIP3    H146563   6.011   8.754   6.801
15562TIP3    H246564   5.976   8.637   6.890
15563TIP3   OH246565   7.303   7.390   0.517
15563TIP3    H146566   7.335   7.323   0.457
15563TIP3    H246567   7.210   7.372   0.526
15564TIP3   OH246568   7.575   4.790   3.056
15564TIP3    H146569   7.529   4.873   3.059
15564TIP3    H246570   7.664   4.810   3.085
15565TIP3   OH246571   7.409   6.685   4.363
15565TIP3    H146572   7.489   6.640   4.338
15565TIP3    H246573   7.438   6.762   4.412
15566TIP3   OH246574   4.206   2.407   2.621
15566TIP3    H146575   4.216   2.415   2.716
15566TIP3    H246576   4.160   2.487   2.595
15567TIP3   OH246577   2.324   2.369   4.686
15567TIP3    H146578   2.413   2.360   4.652
15567TIP3    H246579   2.305   2.284   4.726
15568TIP3   OH246580   1.350   5.691   0.738
15568TIP3    H146581   1.329   5.649   0.822
15568TIP3    H246582   1.445   5.699   0.739
15569TIP3   OH246583   6.328   3.526   6.643
15569TIP3    H146584   6.324   3.621   6.630
15569TIP3    H246585   6.360   3.492   6.560
15570TIP3   OH246586   7.523   0.686   7.770
15570TIP3    H146587   7.531   0.670   7.676
15570TIP3    H246588   7.431   0.666   7.790
15571TIP3   OH246589   4.406   8.277   5.527
15571TIP3    H146590   4.353   8.207   5.564
15571TIP3    H246591   4.345   8.328   5.474
15572TIP3   OH246592   0.449   2.912   7.138
15572TIP3    H146593   0.457   2.929   7.231
15572TIP3    H246594   0.427   2.996   7.099
15573TIP3   OH246595   2.372   3.213   5.706
15573TIP3    H146596   2.364   3.134   5.760
15573TIP3    H246597   2.285   3.253   5.708
15574TIP3   OH246598   3.647   8.705   0.663
15574TIP3    H146599   3.651   8.669   0.751
15574TIP3    H246600   3.581   8.652   0.618
15575TIP3   OH246601   3.595   1.677   2.413
15575TIP3    H146602   3.521   1.675   2.473
15575TIP3    H246603   3.594   1.765   2.375
15576TIP3   OH246604   0.620   7.101   2.619
15576TIP3    H146605   0.617   7.146   2.535
15576TIP3    H246606   0.700   7.047   2.614
15577TIP3   OH246607   3.277   7.610   2.194
15577TIP3    H146608   3.336   7.648   2.128
15577TIP3    H246609   3.219   7.683   2.217
15578TIP3   OH246610   9.275   5.902   1.780
15578TIP3    H146611   9.295   5.847   1.856
15578TIP3    H246612   9.279   5.991   1.814
15579TIP3   OH246613   3.840   4.525   1.519
15579TIP3    H146614   3.796   4.458   1.571
15579TIP3    H246615   3.772   4.590   1.500
15580TIP3   OH246616   0.483   7.071   4.945
15580TIP3    H146617   0.458   6.996   4.999
15580TIP3    H246618   0.553   7.038   4.889
15581TIP3   OH246619   2.003   2.213   7.537
15581TIP3    H146620   2.048   2.213   7.453
15581TIP3    H246621   1.934   2.279   7.529
15582TIP3   OH246622   5.720   5.340   3.810
15582TIP3    H146623   5.644   5.313   3.759
15582TIP3    H246624   5.684   5.373   3.892
15583TIP3   OH246625   8.123   1.715   0.126
15583TIP3    H146626   8.198   1.658   0.138
15583TIP3    H246627   8.145   1.768   0.050
15584TIP3   OH246628   6.398   3.023   3.299
15584TIP3    H146629   6.419   2.930   3.310
15584TIP3    H246630   6.482   3.064   3.280
15585TIP3   OH246631   3.680   6.941   4.888
15585TIP3    H146632   3.763   6.944   4.840
15585TIP3    H246633   3.702   6.899   4.971
15586TIP3   OH246634   7.650   8.270   4.055
15586TIP3    H146635   7.714   8.280   3.985
15586TIP3    H246636   7.582   8.214   4.018
15587TIP3   OH246637   6.773   1.463   1.315
15587TIP3    H146638   6.833   1.526   1.275
15587TIP3    H246639   6.817   1.378   1.304
15588TIP3   OH246640   7.133   0.257   6.347
15588TIP3    H146641   7.175   0.286   6.265
15588TIP3    H246642   7.116   0.339   6.395
15589TIP3   OH246643   6.944   5.776   0.507
15589TIP3    H146644   6.928   5.806   0.596
15589TIP3    H246645   7.037   5.754   0.505
15590TIP3   OH246646   1.630   3.616   3.786
15590TIP3    H146647   1.672   3.640   3.704
15590TIP3    H246648   1.566   3.549   3.762
15591TIP3   OH246649   2.148   5.081   0.922
15591TIP3    H146650   2.170   5.120   1.007
15591TIP3    H246651   2.056   5.057   0.930
15592TIP3   OH246652   1.371   2.088   0.590
15592TIP3    H146653   1.402   2.056   0.506
15592TIP3    H246654   1.448   2.127   0.631
15593TIP3   OH246655   0.152   3.137   6.075
15593TIP3    H146656   0.228   3.156   6.020
15593TIP3    H246657   0.080   3.184   6.033
15594TIP3   OH246658   5.579   7.769   6.082
15594TIP3    H146659   5.513   7.821   6.036
15594TIP3    H246660   5.662   7.798   6.045
15595TIP3   OH246661   0.317   2.206   2.359
15595TIP3    H146662   0.317   2.128   2.414
15595TIP3    H246663   0.323   2.279   2.421
15596TIP3   OH246664   8.621   4.398   2.041
15596TIP3    H146665   8.687   4.410   2.109
15596TIP3    H246666   8.562   4.332   2.076
15597TIP3   OH246667   3.885   6.442   4.115
15597TIP3    H146668   3.934   6.459   4.196
15597TIP3    H246669   3.842   6.358   4.131
15598TIP3   OH246670   5.768   4.575   0.781
15598TIP3    H146671   5.706   4.619   0.723
15598TIP3    H246672   5.734   4.485   0.788
15599TIP3   OH246673   9.244   1.054   4.183
15599TIP3    H146674   9.252   1.125   4.246
15599TIP3    H246675   9.330   1.049   4.141
15600TIP3   OH246676   1.506   1.106   3.722
15600TIP3    H146677   1.593   1.077   3.693
15600TIP3    H246678   1.450   1.091   3.646
15601TIP3   OH246679   0.850   2.323   6.100
15601TIP3    H146680   0.871   2.392   6.037
15601TIP3    H246681   0.774   2.279   6.063
15602TIP3   OH246682   2.133   0.873   5.273
15602TIP3    H146683   2.098   0.962   5.278
15602TIP3    H246684   2.128   0.850   5.181
15603TIP3   OH246685   9.248   1.118   0.199
15603TIP3    H146686   9.328   1.067   0.208
15603TIP3    H246687   9.195   1.069   0.136
15604TIP3   OH246688   3.285   5.898   4.594
15604TIP3    H146689   3.229   5.899   4.672
15604TIP3    H246690   3.229   5.865   4.524
15605TIP3   OH246691   6.920   8.208   0.311
15605TIP3    H146692   6.944   8.212   0.404
15605TIP3    H246693   6.956   8.288   0.274
15606TIP3   OH246694   1.254   4.630   4.741
15606TIP3    H146695   1.329   4.668   4.788
15606TIP3    H246696   1.208   4.578   4.808
15607TIP3   OH246697   9.048   5.060   2.365
15607TIP3    H146698   9.096   4.986   2.404
15607TIP3    H246699   9.039   5.037   2.272
15608TIP3   OH246700   3.569   0.680   5.149
15608TIP3    H146701   3.515   0.621   5.203
15608TIP3    H246702   3.633   0.623   5.108
15609TIP3   OH246703   6.010   1.509   1.234
15609TIP3    H146704   5.932   1.511   1.179
15609TIP3    H246705   6.009   1.592   1.281
15610TIP3   OH246706   1.081   4.419   5.834
15610TIP3    H146707   1.133   4.366   5.773
15610TIP3    H246708   1.027   4.356   5.880
15611TIP3   OH246709   1.452   4.181   2.995
15611TIP3    H146710   1.486   4.268   3.016
15611TIP3    H246711   1.521   4.121   3.025
15612TIP3   OH246712   0.302   0.261   2.135
15612TIP3    H146713   0.359   0.243   2.060
15612TIP3    H246714   0.338   0.209   2.206
15613TIP3   OH246715   7.211   3.932   6.016
15613TIP3    H146716   7.263   3.965   6.089
15613TIP3    H246717   7.167   3.854   6.051
15614TIP3   OH246718   0.284   6.157   5.605
15614TIP3    H146719   0.189   6.151   5.617
15614TIP3    H246720   0.312   6.220   5.673
15615TIP3   OH246721   1.522   6.365   4.585
15615TIP3    H146722   1.504   6.274   4.608
15615TIP3    H246723   1.491   6.374   4.495
15616TIP3   OH246724   0.612   4.572   4.818
15616TIP3    H146725   0.623   4.586   4.723
15616TIP3    H246726   0.625   4.659   4.856
15617TIP3   OH246727   6.581   1.269   1.192
15617TIP3    H146728   6.672   1.280   1.164
15617TIP3    H246729   6.558   1.352   1.234
15618TIP3   OH246730   6.053   5.133   7.615
15618TIP3    H146731   6.091   5.119   7.702
15618TIP3    H246732   5.967   5.170   7.632
15619TIP3   OH246733   5.000   6.044   6.018
15619TIP3    H146734   4.985   5.961   5.973
15619TIP3    H246735   5.004   6.020   6.110
15620TIP3   OH246736   4.558   2.733   2.480
15620TIP3    H146737   4.470   2.697   2.488
15620TIP3    H246738   4.609   2.665   2.437
15621TIP3   OH246739   9.200   1.428   7.016
15621TIP3    H146740   9.140   1.396   7.084
15621TIP3    H246741   9.252   1.351   6.992
15622TIP3   OH246742   7.224   5.604   7.730
15622TIP3    H146743   7.131   5.627   7.720
15622TIP3    H246744   7.250   5.643   7.813
15623TIP3   OH246745   7.722   8.432   0.371
15623TIP3    H146746   7.752   8.512   0.328
15623TIP3    H246747   7.634   8.417   0.336
15624TIP3   OH246748   9.080   3.167   1.766
15624TIP3    H146749   9.056   3.218   1.689
15624TIP3    H246750   9.020   3.092   1.764
15625TIP3   OH246751   6.678   0.460   3.946
15625TIP3    H146752   6.753   0.508   3.911
15625TIP3    H246753   6.685   0.372   3.909
15626TIP3   OH246754   2.159   8.456   7.645
15626TIP3    H146755   2.220   8.409   7.588
15626TIP3    H246756   2.128   8.530   7.592
15627TIP3   OH246757   3.764   4.277   0.659
15627TIP3    H146758   3.799   4.258   0.572
15627TIP3    H246759   3.772   4.194   0.707
15628TIP3   OH246760   0.229   6.176   2.159
15628TIP3    H146761   0.285   6.155   2.234
15628TIP3    H246762   0.284   6.231   2.103
15629TIP3   OH246763   6.524   1.691   4.017
15629TIP3    H146764   6.562   1.756   3.959
15629TIP3    H246765   6.464   1.641   3.962
15630TIP3   OH246766   3.230   1.697   3.141
15630TIP3    H146767   3.256   1.786   3.161
15630TIP3    H246768   3.135   1.702   3.125
15631TIP3   OH246769   8.943   1.970   2.552
15631TIP3    H146770   8.865   1.920   2.528
15631TIP3    H246771   9.016   1.912   2.528
15632TIP3   OH246772   0.350   5.501   7.721
15632TIP3    H146773   0.315   5.439   7.658
15632TIP3    H246774   0.440   5.472   7.736
15633TIP3   OH246775   0.864   2.210   0.326
15633TIP3    H146776   0.831   2.136   0.378
15633TIP3    H246777   0.799   2.279   0.339
15634TIP3   OH246778   6.992   2.384   5.572
15634TIP3    H146779   6.903   2.350   5.583
15634TIP3    H246780   6.998   2.404   5.479
15635TIP3   OH246781   6.143   1.482   2.443
15635TIP3    H146782   6.108   1.399   2.409
15635TIP3    H246783   6.101   1.492   2.528
15636TIP3   OH246784   0.355   8.910   5.515
15636TIP3    H146785   0.419   8.967   5.559
15636TIP3    H246786   0.408   8.856   5.457
15637TIP3   OH246787   5.471   1.695   0.483
15637TIP3    H146788   5.518   1.776   0.504
15637TIP3    H246789   5.517   1.659   0.407
15638TIP3   OH246790   2.605   8.182   5.238
15638TIP3    H146791   2.691   8.141   5.240
15638TIP3    H246792   2.550   8.121   5.189
15639TIP3   OH246793   7.419   6.290   4.625
15639TIP3    H146794   7.471   6.280   4.704
15639TIP3    H246795   7.387   6.202   4.606
15640TIP3   OH246796   8.374   5.626   2.807
15640TIP3    H146797   8.439   5.565   2.842
15640TIP3    H246798   8.292   5.577   2.806
15641TIP3   OH246799   5.675   8.883   2.747
15641TIP3    H146800   5.730   8.824   2.798
15641TIP3    H246801   5.601   8.904   2.805
15642TIP3   OH246802   7.164   3.536   1.709
15642TIP3    H146803   7.135   3.544   1.618
15642TIP3    H246804   7.215   3.455   1.711
15643TIP3   OH246805   8.568   6.935   0.099
15643TIP3    H146806   8.594   7.026   0.103
15643TIP3    H246807   8.650   6.886   0.106
15644TIP3   OH246808   1.215   5.128   0.783
15644TIP3    H146809   1.281   5.059   0.783
15644TIP3    H246810   1.140   5.090   0.830
15645TIP3   OH246811   6.843   1.121   0.565
15645TIP3    H146812   6.817   1.187   0.500
15645TIP3    H246813   6.806   1.152   0.647
15646TIP3   OH246814   7.314   7.436   7.577
15646TIP3    H146815   7.392   7.392   7.610
15646TIP3    H246816   7.332   7.530   7.590
15647TIP3   OH246817   3.587   5.467   1.298
15647TIP3    H146818   3.598   5.561   1.309
15647TIP3    H246819   3.655   5.428   1.352
15648TIP3   OH246820   6.770   1.607   0.690
15648TIP3    H146821   6.824   1.635   0.763
15648TIP3    H246822   6.832   1.586   0.621
15649TIP3   OH246823   6.913   6.969   2.428
15649TIP3    H146824   6.952   6.951   2.514
15649TIP3    H246825   6.879   6.884   2.399
15650TIP3   OH246826   1.231   6.510   0.301
15650TIP3    H146827   1.285   6.573   0.349
15650TIP3    H246828   1.149   6.507   0.350
15651TIP3   OH246829   7.374   0.935   5.852
15651TIP3    H146830   7.328   0.853   5.833
15651TIP3    H246831   7.418   0.958   5.770
15652TIP3   OH246832   6.113   1.933   2.971
15652TIP3    H146833   6.103   1.872   3.044
15652TIP3    H246834   6.207   1.950   2.967
15653TIP3   OH246835   5.428   7.036   7.772
15653TIP3    H146836   5.396   7.118   7.734
15653TIP3    H246837   5.374   6.968   7.731
15654TIP3   OH246838   6.309   0.510   2.974
15654TIP3    H146839   6.311   0.489   2.881
15654TIP3    H246840   6.380   0.459   3.012
15655TIP3   OH246841   2.967   6.040   7.409
15655TIP3    H146842   2.917   5.972   7.365
15655TIP3    H246843   2.937   6.122   7.371
15656TIP3   OH246844   0.100   4.229   1.656
15656TIP3    H146845   0.183   4.200   1.693
15656TIP3    H246846   0.041   4.237   1.731
15657TIP3   OH246847   5.991   5.464   4.703
15657TIP3    H146848   6.052   5.527   4.742
15657TIP3    H246849   5.922   5.518   4.666
15658TIP3   OH246850   8.456   8.893   6.804
15658TIP3    H146851   8.529   8.831   6.807
15658TIP3    H246852   8.379   8.838   6.790
15659TIP3   OH246853   7.462   4.217   5.156
15659TIP3    H146854   7.513   4.295   5.178
15659TIP3    H246855   7.374   4.249   5.140
15660TIP3   OH246856   3.292   6.293   1.081
15660TIP3    H146857   3.273   6.286   1.174
15660TIP3    H246858   3.211   6.327   1.043
15661TIP3   OH246859   6.499   6.092   6.787
15661TIP3    H146860   6.413   6.125   6.811
15661TIP3    H246861   6.491   6.070   6.694
15662TIP3   OH246862   6.050   0.798   6.842
15662TIP3    H146863   6.030   0.887   6.868
15662TIP3    H246864   6.037   0.796   6.748
15663TIP3   OH246865   5.256   4.560   7.342
15663TIP3    H146866   5.176   4.606   7.318
15663TIP3    H246867   5.226   4.484   7.393
15664TIP3   OH246868   1.773   4.556   7.283
15664TIP3    H146869   1.738   4.502   7.354
15664TIP3    H246870   1.721   4.636   7.286
15665TIP3   OH246871   2.715   0.415   0.578
15665TIP3    H146872   2.744   0.502   0.549
15665TIP3    H246873   2.632   0.431   0.622
15666TIP3   OH246874   6.150   8.087   7.398
15666TIP3    H146875   6.209   8.161   7.383
15666TIP3    H246876   6.062   8.124   7.388
15667TIP3   OH246877   3.404   6.362   3.590
15667TIP3    H146878   3.433   6.329   3.675
15667TIP3    H246879   3.341   6.430   3.612
15668TIP3   OH246880   5.328   1.564   6.667
15668TIP3    H146881   5.327   1.468   6.666
15668TIP3    H246882   5.299   1.588   6.579
15669TIP3   OH246883   1.919   6.838   2.025
15669TIP3    H146884   1.980   6.912   2.027
15669TIP3    H246885   1.897   6.829   1.932
15670TIP3   OH246886   3.040   0.362   4.009
15670TIP3    H146887   3.034   0.384   4.102
15670TIP3    H246888   3.092   0.282   4.006
15671TIP3   OH246889   4.640   5.325   2.384
15671TIP3    H146890   4.709   5.333   2.450
15671TIP3    H246891   4.609   5.415   2.371
15672TIP3   OH246892   6.307   0.248   5.023
15672TIP3    H146893   6.332   0.298   5.101
15672TIP3    H246894   6.379   0.262   4.962
15673TIP3   OH246895   2.837   5.857   5.341
15673TIP3    H146896   2.918   5.890   5.303
15673TIP3    H246897   2.794   5.811   5.269
15674TIP3   OH246898   6.468   2.244   5.174
15674TIP3    H146899   6.527   2.243   5.249
15674TIP3    H246900   6.516   2.197   5.106
15675TIP3   OH246901   6.737   7.419   4.322
15675TIP3    H146902   6.744   7.507   4.284
15675TIP3    H246903   6.688   7.369   4.256
15676TIP3   OH246904   3.165   4.280   0.489
15676TIP3    H146905   3.081   4.248   0.522
15676TIP3    H246906   3.145   4.366   0.451
15677TIP3   OH246907   2.355   2.132   2.054
15677TIP3    H146908   2.293   2.068   2.089
15677TIP3    H246909   2.434   2.082   2.035
15678TIP3   OH246910   5.405   3.080   3.360
15678TIP3    H146911   5.389   3.069   3.267
15678TIP3    H246912   5.479   3.141   3.365
15679TIP3   OH246913   1.751   0.028   4.589
15679TIP3    H146914   1.703  -0.052   4.609
15679TIP3    H246915   1.839   0.012   4.623
15680TIP3   OH246916   5.794   7.366   4.752
15680TIP3    H146917   5.866   7.309   4.779
15680TIP3    H246918   5.836   7.432   4.696
15681TIP3   OH246919   0.032   6.474   2.994
15681TIP3    H146920  -0.050   6.424   2.992
15681TIP3    H246921   0.096   6.412   3.028
15682TIP3   OH246922   5.674   7.837   5.145
15682TIP3    H146923   5.769   7.837   5.129
15682TIP3    H246924   5.638   7.780   5.078
15683TIP3   OH246925   5.918   4.150   7.630
15683TIP3    H146926   5.932   4.243   7.613
15683TIP3    H246927   6.006   4.115   7.645
15684TIP3   OH246928   8.473   3.446   0.663
15684TIP3    H146929   8.546   3.397   0.624
15684TIP3    H246930   8.422   3.380   0.709
15685TIP3   OH246931   5.466   1.291   4.532
15685TIP3    H146932   5.373   1.313   4.534
15685TIP3    H246933   5.480   1.239   4.612
15686TIP3   OH246934   4.204   2.965   2.762
15686TIP3    H146935   4.131   2.932   2.709
15686TIP3    H246936   4.207   3.059   2.742
15687TIP3   OH246937   5.203   0.630   3.027
15687TIP3    H146938   5.111   0.655   3.039
15687TIP3    H246939   5.217   0.560   3.092
15688TIP3   OH246940   1.994   7.499   0.942
15688TIP3    H146941   2.049   7.463   1.011
15688TIP3    H246942   2.055   7.525   0.873
15689TIP3   OH246943   4.836   4.345   0.612
15689TIP3    H146944   4.803   4.426   0.650
15689TIP3    H246945   4.845   4.364   0.519
15690TIP3   OH246946   9.139   5.673   1.696
15690TIP3    H146947   9.201   5.610   1.733
15690TIP3    H246948   9.181   5.758   1.707
15691TIP3   OH246949   6.681   7.947   1.610
15691TIP3    H146950   6.615   7.971   1.544
15691TIP3    H246951   6.754   8.007   1.594
15692TIP3   OH246952   5.787   0.471   6.706
15692TIP3    H146953   5.760   0.408   6.773
15692TIP3    H246954   5.873   0.440   6.677
15693TIP3   OH246955   7.726   7.790   4.218
15693TIP3    H146956   7.680   7.709   4.240
15693TIP3    H246957   7.709   7.803   4.125
15694TIP3   OH246958   6.159   2.443   4.237
15694TIP3    H146959   6.109   2.470   4.314
15694TIP3    H246960   6.110   2.370   4.201
15695TIP3   OH246961   4.988   5.073   2.364
15695TIP3    H146962   4.924   5.082   2.293
15695TIP3    H246963   5.024   5.161   2.375
15696TIP3   OH246964   6.642   7.144   0.846
15696TIP3    H146965   6.685   7.104   0.770
15696TIP3    H246966   6.565   7.187   0.810
15697TIP3   OH246967   2.145   1.574   6.056
15697TIP3    H146968   2.212   1.642   6.048
15697TIP3    H246969   2.073   1.606   6.001
15698TIP3   OH246970   3.288   7.539   7.390
15698TIP3    H146971   3.260   7.630   7.383
15698TIP3    H246972   3.206   7.489   7.396
15699TIP3   OH246973   5.108   7.109   4.140
15699TIP3    H146974   5.034   7.131   4.083
15699TIP3    H246975   5.153   7.037   4.095
15700TIP3   OH246976   7.813   1.112   2.545
15700TIP3    H146977   7.759   1.166   2.487
15700TIP3    H246978   7.901   1.147   2.536
15701TIP3   OH246979   6.409   4.010   0.530
15701TIP3    H146980   6.340   3.957   0.491
15701TIP3    H246981   6.391   4.007   0.624
15702TIP3   OH246982   6.867   3.555   7.016
15702TIP3    H146983   6.869   3.573   7.109
15702TIP3    H246984   6.813   3.476   7.007
15703TIP3   OH246985   5.438   4.346   1.622
15703TIP3    H146986   5.423   4.355   1.528
15703TIP3    H246987   5.426   4.434   1.658
15704TIP3   OH246988   3.302   4.159   0.029
15704TIP3    H146989   3.321   4.139   0.121
15704TIP3    H246990   3.214   4.126   0.015
15705TIP3   OH246991   5.030   0.709   0.840
15705TIP3    H146992   5.069   0.729   0.925
15705TIP3    H246993   5.075   0.766   0.779
15706TIP3   OH246994   2.147   3.325   2.351
15706TIP3    H146995   2.235   3.302   2.380
15706TIP3    H246996   2.109   3.243   2.320
15707TIP3   OH246997   6.532   7.664   1.029
15707TIP3    H146998   6.554   7.757   1.041
15707TIP3    H246999   6.492   7.638   1.112
15708TIP3   OH247000   9.129   6.461   3.020
15708TIP3    H147001   9.050   6.464   3.074
15708TIP3    H247002   9.178   6.540   3.043
15709TIP3   OH247003   4.868   3.804   7.320
15709TIP3    H147004   4.830   3.845   7.398
15709TIP3    H247005   4.803   3.740   7.292
15710TIP3   OH247006   3.140   6.599   1.273
15710TIP3    H147007   3.147   6.504   1.269
15710TIP3    H247008   3.059   6.620   1.226
15711TIP3   OH247009   0.114   2.829   7.436
15711TIP3    H147010   0.050   2.782   7.488
15711TIP3    H247011   0.062   2.885   7.378
15712TIP3   OH247012   1.340   2.372   7.143
15712TIP3    H147013   1.283   2.447   7.130
15712TIP3    H247014   1.281   2.300   7.167
15713TIP3   OH247015   4.933   1.466   3.430
15713TIP3    H147016   4.887   1.388   3.463
15713TIP3    H247017   4.937   1.453   3.336
15714TIP3   OH247018   6.145   4.725   7.580
15714TIP3    H147019   6.195   4.649   7.551
15714TIP3    H247020   6.202   4.769   7.643
15715TIP3   OH247021   1.505   4.511   6.468
15715TIP3    H147022   1.582   4.542   6.420
15715TIP3    H247023   1.497   4.418   6.444
15716TIP3   OH247024   1.039   8.663   6.600
15716TIP3    H147025   0.992   8.704   6.528
15716TIP3    H247026   1.112   8.721   6.618
15717TIP3   OH247027   1.600   0.491   6.241
15717TIP3    H147028   1.640   0.556   6.184
15717TIP3    H247029   1.670   0.428   6.258
15718TIP3   OH247030   3.915   0.486   3.197
15718TIP3    H147031   3.825   0.456   3.207
15718TIP3    H247032   3.943   0.508   3.286
15719TIP3   OH247033   1.151   5.356   7.616
15719TIP3    H147034   1.088   5.315   7.558
15719TIP3    H247035   1.229   5.369   7.562
15720TIP3   OH247036   3.361   5.434   5.400
15720TIP3    H147037   3.295   5.369   5.374
15720TIP3    H247038   3.400   5.399   5.479
15721TIP3   OH247039   8.344   3.682   4.654
15721TIP3    H147040   8.437   3.663   4.661
15721TIP3    H247041   8.304   3.599   4.629
15722TIP3   OH247042   0.407   3.290   3.374
15722TIP3    H147043   0.436   3.294   3.283
15722TIP3    H247044   0.369   3.202   3.382
15723TIP3   OH247045   3.627   6.951   0.828
15723TIP3    H147046   3.600   6.870   0.784
15723TIP3    H247047   3.600   6.938   0.919
15724TIP3   OH247048   1.890   7.278   0.148
15724TIP3    H147049   1.876   7.201   0.094
15724TIP3    H247050   1.803   7.316   0.159
15725TIP3   OH247051   3.249   7.092   3.998
15725TIP3    H147052   3.344   7.086   3.987
15725TIP3    H247053   3.238   7.121   4.089
15726TIP3   OH247054   6.179   6.270   1.599
15726TIP3    H147055   6.274   6.264   1.593
15726TIP3    H247056   6.156   6.218   1.677
15727TIP3   OH247057   3.439   5.825   5.812
15727TIP3    H147058   3.381   5.832   5.735
15727TIP3    H247059   3.425   5.906   5.860
15728TIP3   OH247060   8.374   7.105   3.486
15728TIP3    H147061   8.451   7.160   3.476
15728TIP3    H247062   8.355   7.108   3.580
15729TIP3   OH247063   4.495   4.308   1.792
15729TIP3    H147064   4.544   4.282   1.870
15729TIP3    H247065   4.424   4.245   1.785
15730TIP3   OH247066   6.196   0.563   4.253
15730TIP3    H147067   6.147   0.521   4.182
15730TIP3    H247068   6.164   0.654   4.252
15731TIP3   OH247069   0.841   7.459   1.127
15731TIP3    H147070   0.820   7.367   1.137
15731TIP3    H247071   0.847   7.472   1.032
15732TIP3   OH247072   7.058   7.643   1.493
15732TIP3    H147073   7.022   7.634   1.405
15732TIP3    H247074   7.129   7.579   1.498
15733TIP3   OH247075   0.604   0.765   1.770
15733TIP3    H147076   0.555   0.838   1.732
15733TIP3    H247077   0.682   0.758   1.714
15734TIP3   OH247078   2.884   8.066   2.952
15734TIP3    H147079   2.800   8.083   2.996
15734TIP3    H247080   2.950   8.082   3.020
15735TIP3   OH247081   0.358   0.257   3.169
15735TIP3    H147082   0.407   0.180   3.199
15735TIP3    H247083   0.304   0.281   3.244
15736TIP3   OH247084   8.530   2.036   2.522
15736TIP3    H147085   8.593   1.964   2.528
15736TIP3    H247086   8.451   1.996   2.484
15737TIP3   OH247087   4.262   4.405   0.344
15737TIP3    H147088   4.213   4.327   0.368
15737TIP3    H247089   4.277   4.451   0.427
15738TIP3   OH247090   9.231   2.442   6.167
15738TIP3    H147091   9.232   2.532   6.135
15738TIP3    H247092   9.313   2.432   6.214
15739TIP3   OH247093   1.889   7.652   4.286
15739TIP3    H147094   1.898   7.618   4.375
15739TIP3    H247095   1.802   7.625   4.258
15740TIP3   OH247096   1.265   5.634   3.788
15740TIP3    H147097   1.196   5.661   3.728
15740TIP3    H247098   1.337   5.607   3.731
15741TIP3   OH247099   1.287   2.686   5.173
15741TIP3    H147100   1.366   2.669   5.225
15741TIP3    H247101   1.270   2.779   5.184
15742TIP3   OH247102   8.755   4.901   0.744
15742TIP3    H147103   8.717   4.952   0.673
15742TIP3    H247104   8.815   4.841   0.700
15743TIP3   OH247105   4.485   4.267   2.219
15743TIP3    H147106   4.550   4.214   2.265
15743TIP3    H247107   4.486   4.351   2.264
15744TIP3   OH247108   1.687   5.815   1.132
15744TIP3    H147109   1.767   5.837   1.083
15744TIP3    H247110   1.684   5.719   1.132
15745TIP3   OH247111   9.064   7.712   2.812
15745TIP3    H147112   8.970   7.714   2.829
15745TIP3    H247113   9.103   7.687   2.895
15746TIP3   OH247114   3.688   3.708   1.970
15746TIP3    H147115   3.636   3.655   2.030
15746TIP3    H247116   3.655   3.797   1.983
15747TIP3   OH247117   6.985   0.324   3.216
15747TIP3    H147118   6.895   0.346   3.192
15747TIP3    H247119   7.001   0.374   3.296
15748TIP3   OH247120   2.082   8.109   7.198
15748TIP3    H147121   2.008   8.149   7.244
15748TIP3    H247122   2.052   8.100   7.108
15749TIP3   OH247123   8.690   4.913   3.434
15749TIP3    H147124   8.707   4.837   3.489
15749TIP3    H247125   8.715   4.988   3.489
15750TIP3   OH247126   3.527   8.700   4.195
15750TIP3    H147127   3.494   8.789   4.192
15750TIP3    H247128   3.451   8.647   4.221
15751TIP3   OH247129   7.979   8.444   6.237
15751TIP3    H147130   7.891   8.472   6.210
15751TIP3    H247131   8.038   8.508   6.196
15752TIP3   OH247132   8.043   1.760   0.640
15752TIP3    H147133   8.077   1.815   0.570
15752TIP3    H247134   7.952   1.742   0.615
15753TIP3   OH247135   0.432   4.846   6.623
15753TIP3    H147136   0.371   4.812   6.557
15753TIP3    H247137   0.474   4.768   6.659
15754TIP3   OH247138   9.361   3.066   4.252
15754TIP3    H147139   9.423   3.009   4.297
15754TIP3    H247140   9.415   3.138   4.219
15755TIP3   OH247141   8.796   8.519   0.091
15755TIP3    H147142   8.763   8.580   0.157
15755TIP3    H247143   8.717   8.488   0.045
15756TIP3   OH247144   7.559   5.394   4.043
15756TIP3    H147145   7.522   5.342   4.113
15756TIP3    H247146   7.484   5.416   3.987
15757TIP3   OH247147   0.173   1.116   1.583
15757TIP3    H147148   0.174   1.090   1.675
15757TIP3    H247149   0.117   1.051   1.540
15758TIP3   OH247150   6.473   8.850   3.013
15758TIP3    H147151   6.557   8.805   3.020
15758TIP3    H247152   6.495   8.941   2.995
15759TIP3   OH247153   1.845   1.119   7.254
15759TIP3    H147154   1.807   1.054   7.195
15759TIP3    H247155   1.796   1.109   7.336
15760TIP3   OH247156   3.681   1.039   4.828
15760TIP3    H147157   3.635   0.979   4.886
15760TIP3    H247158   3.718   1.105   4.886
15761TIP3   OH247159   1.304   3.524   1.205
15761TIP3    H147160   1.391   3.492   1.182
15761TIP3    H247161   1.245   3.457   1.169
15762TIP3   OH247162   8.703   3.632   2.293
15762TIP3    H147163   8.704   3.705   2.355
15762TIP3    H247164   8.697   3.673   2.207
15763TIP3   OH247165   1.522   0.869   5.826
15763TIP3    H147166   1.555   0.949   5.868
15763TIP3    H247167   1.584   0.851   5.756
15764TIP3   OH247168   7.305   1.567   2.004
15764TIP3    H147169   7.218   1.569   1.963
15764TIP3    H247170   7.289   1.585   2.096
15765TIP3   OH247171   8.919   5.176   1.641
15765TIP3    H147172   8.947   5.085   1.648
15765TIP3    H247173   8.897   5.202   1.730
15766TIP3   OH247174   6.665   5.293   0.644
15766TIP3    H147175   6.707   5.209   0.662
15766TIP3    H247176   6.667   5.340   0.728
15767TIP3   OH247177   8.926   2.680   1.802
15767TIP3    H147178   9.011   2.659   1.839
15767TIP3    H247179   8.867   2.683   1.878
15768TIP3   OH247180   9.164   7.670   3.068
15768TIP3    H147181   9.222   7.595   3.056
15768TIP3    H247182   9.116   7.652   3.149
15769TIP3   OH247183   4.884   5.158   0.210
15769TIP3    H147184   4.973   5.177   0.179
15769TIP3    H247185   4.875   5.063   0.201
15770TIP3   OH247186   1.290   3.247   5.178
15770TIP3    H147187   1.201   3.277   5.159
15770TIP3    H247188   1.316   3.297   5.255
15771TIP3   OH247189   1.562   0.705   3.488
15771TIP3    H147190   1.637   0.646   3.481
15771TIP3    H247191   1.590   0.785   3.444
15772TIP3   OH247192   3.732   7.430   2.340
15772TIP3    H147193   3.804   7.372   2.316
15772TIP3    H247194   3.655   7.373   2.340
15773TIP3   OH247195   4.349   4.942   1.797
15773TIP3    H147196   4.341   4.998   1.875
15773TIP3    H247197   4.420   4.881   1.818
15774TIP3   OH247198   8.770   2.256   4.761
15774TIP3    H147199   8.739   2.304   4.684
15774TIP3    H247200   8.690   2.226   4.804
15775TIP3   OH247201   5.247   3.919   5.684
15775TIP3    H147202   5.161   3.882   5.662
15775TIP3    H247203   5.249   4.003   5.639
15776TIP3   OH247204   7.597   7.715   4.592
15776TIP3    H147205   7.507   7.683   4.600
15776TIP3    H247206   7.649   7.652   4.643
15777TIP3   OH247207   7.243   3.215   5.720
15777TIP3    H147208   7.229   3.303   5.756
15777TIP3    H247209   7.159   3.191   5.681
15778TIP3   OH247210  -0.006   3.241   4.216
15778TIP3    H147211   0.061   3.177   4.193
15778TIP3    H247212   0.041   3.324   4.226
15779TIP3   OH247213   3.964   3.295   7.336
15779TIP3    H147214   3.885   3.242   7.352
15779TIP3    H247215   3.946   3.377   7.381
15780TIP3   OH247216   0.691   6.485   2.344
15780TIP3    H147217   0.602   6.467   2.315
15780TIP3    H247218   0.695   6.451   2.434
15781TIP3   OH247219   5.509   7.041   6.193
15781TIP3    H147220   5.583   7.032   6.133
15781TIP3    H247221   5.522   6.972   6.258
15782TIP3   OH247222   1.449   4.043   7.675
15782TIP3    H147223   1.541   4.027   7.656
15782TIP3    H247224   1.449   4.111   7.742
15783TIP3   OH247225   2.164   0.070   3.856
15783TIP3    H147226   2.163   0.157   3.816
15783TIP3    H247227   2.072   0.048   3.867
15784TIP3   OH247228   7.377   1.422   3.987
15784TIP3    H147229   7.369   1.517   3.998
15784TIP3    H247230   7.449   1.411   3.925
15785TIP3   OH247231   5.459   6.648   0.907
15785TIP3    H147232   5.469   6.600   0.825
15785TIP3    H247233   5.456   6.740   0.881
15786TIP3   OH247234   7.804   7.246   4.801
15786TIP3    H147235   7.725   7.192   4.795
15786TIP3    H247236   7.822   7.252   4.895
15787TIP3   OH247237   9.205   8.413   0.426
15787TIP3    H147238   9.178   8.495   0.468
15787TIP3    H247239   9.152   8.409   0.346
15788TIP3   OH247240   6.730   3.188   4.886
15788TIP3    H147241   6.635   3.188   4.899
15788TIP3    H247242   6.762   3.260   4.941
15789TIP3   OH247243   7.545   1.500   5.707
15789TIP3    H147244   7.457   1.482   5.740
15789TIP3    H247245   7.599   1.507   5.786
15790TIP3   OH247246   8.943   3.066   3.034
15790TIP3    H147247   8.920   3.108   3.116
15790TIP3    H247248   8.901   3.120   2.967
15791TIP3   OH247249   4.501   7.717   3.779
15791TIP3    H147250   4.573   7.762   3.735
15791TIP3    H247251   4.423   7.769   3.759
15792TIP3   OH247252   0.076   1.796   6.522
15792TIP3    H147253   0.025   1.843   6.588
15792TIP3    H247254   0.058   1.703   6.541
15793TIP3   OH247255   6.241   8.269   1.416
15793TIP3    H147256   6.262   8.327   1.343
15793TIP3    H247257   6.326   8.238   1.447
15794TIP3   OH247258   3.334   6.590   4.010
15794TIP3    H147259   3.424   6.622   4.000
15794TIP3    H247260   3.281   6.657   3.966
15795TIP3   OH247261   8.299   5.385   2.952
15795TIP3    H147262   8.394   5.390   2.965
15795TIP3    H247263   8.287   5.313   2.891
15796TIP3   OH247264   1.785   4.585   5.085
15796TIP3    H147265   1.774   4.599   4.991
15796TIP3    H247266   1.700   4.610   5.123
15797TIP3   OH247267   9.004   5.953   5.091
15797TIP3    H147268   8.943   5.991   5.154
15797TIP3    H247269   9.060   5.895   5.144
15798TIP3   OH247270   3.102   4.823   1.156
15798TIP3    H147271   3.146   4.801   1.073
15798TIP3    H247272   3.171   4.862   1.209
15799TIP3   OH247273   1.778   8.562   1.434
15799TIP3    H147274   1.785   8.503   1.359
15799TIP3    H247275   1.738   8.510   1.503
15800TIP3   OH247276   6.493   2.324   3.642
15800TIP3    H147277   6.507   2.300   3.733
15800TIP3    H247278   6.446   2.407   3.646
15801TIP3   OH247279   0.373   5.196   4.585
15801TIP3    H147280   0.454   5.201   4.635
15801TIP3    H247281   0.304   5.190   4.652
15802TIP3   OH247282   4.446   2.307   0.406
15802TIP3    H147283   4.499   2.236   0.369
15802TIP3    H247284   4.473   2.312   0.498
15803TIP3   OH247285   5.768   1.839   2.418
15803TIP3    H147286   5.783   1.854   2.511
15803TIP3    H247287   5.857   1.832   2.381
15804TIP3   OH247288   9.505   5.563   6.779
15804TIP3    H147289   9.437   5.602   6.834
15804TIP3    H247290   9.510   5.620   6.703
15805TIP3   OH247291   0.946   1.569   6.546
15805TIP3    H147292   0.947   1.550   6.452
15805TIP3    H247293   0.862   1.534   6.576
15806TIP3   OH247294   0.173   7.311   2.131
15806TIP3    H147295   0.210   7.223   2.118
15806TIP3    H247296   0.249   7.365   2.152
15807TIP3   OH247297   3.109   6.410   2.798
15807TIP3    H147298   3.102   6.357   2.878
15807TIP3    H247299   3.202   6.412   2.778
15808TIP3   OH247300   3.919   4.528   6.590
15808TIP3    H147301   3.914   4.436   6.614
15808TIP3    H247302   3.988   4.564   6.645
15809TIP3   OH247303   0.987   2.810   2.094
15809TIP3    H147304   0.962   2.884   2.149
15809TIP3    H247305   1.029   2.849   2.018
15810TIP3   OH247306   2.984   8.871   4.390
15810TIP3    H147307   2.998   8.966   4.385
15810TIP3    H247308   2.894   8.861   4.419
15811TIP3   OH247309   6.093   6.133   3.562
15811TIP3    H147310   6.074   6.075   3.489
15811TIP3    H247311   6.080   6.221   3.528
15812TIP3   OH247312   3.312   7.680   4.447
15812TIP3    H147313   3.405   7.683   4.427
15812TIP3    H247314   3.271   7.654   4.364
15813TIP3   OH247315   0.229   1.221   1.314
15813TIP3    H147316   0.223   1.316   1.330
15813TIP3    H247317   0.205   1.181   1.398
15814TIP3   OH247318   2.364   8.545   5.720
15814TIP3    H147319   2.291   8.485   5.704
15814TIP3    H247320   2.407   8.510   5.798
15815TIP3   OH247321   0.805   2.741   0.307
15815TIP3    H147322   0.732   2.785   0.264
15815TIP3    H247323   0.841   2.808   0.366
15816TIP3   OH247324   8.441   3.111   6.864
15816TIP3    H147325   8.452   3.201   6.834
15816TIP3    H247326   8.513   3.063   6.822
15817TIP3   OH247327   1.770   2.449   2.298
15817TIP3    H147328   1.835   2.498   2.247
15817TIP3    H247329   1.687   2.494   2.279
15818TIP3   OH247330   2.617   5.388   4.945
15818TIP3    H147331   2.662   5.459   4.899
15818TIP3    H247332   2.686   5.323   4.962
15819TIP3   OH247333   4.634   7.615   1.728
15819TIP3    H147334   4.549   7.658   1.714
15819TIP3    H247335   4.669   7.603   1.640
15820TIP3   OH247336   4.990   0.361   2.561
15820TIP3    H147337   5.026   0.274   2.548
15820TIP3    H247338   4.977   0.368   2.655
15821TIP3   OH247339   2.008   7.861   3.870
15821TIP3    H147340   1.968   7.866   3.783
15821TIP3    H247341   2.089   7.912   3.863
15822TIP3   OH247342   3.832   5.963   2.441
15822TIP3    H147343   3.766   5.946   2.374
15822TIP3    H247344   3.784   6.010   2.510
15823TIP3   OH247345   3.189   4.058   1.881
15823TIP3    H147346   3.145   3.972   1.879
15823TIP3    H247347   3.279   4.039   1.856
15824TIP3   OH247348   3.714   0.568   7.659
15824TIP3    H147349   3.806   0.549   7.679
15824TIP3    H247350   3.700   0.529   7.572
15825TIP3   OH247351   4.537   8.942   2.150
15825TIP3    H147352   4.516   8.850   2.134
15825TIP3    H247353   4.615   8.958   2.096
15826TIP3   OH247354   4.516   6.101   1.767
15826TIP3    H147355   4.468   6.183   1.779
15826TIP3    H247356   4.524   6.092   1.672
15827TIP3   OH247357   2.915   3.340   7.066
15827TIP3    H147358   3.006   3.338   7.094
15827TIP3    H247359   2.912   3.285   6.988
15828TIP3   OH247360   3.274   1.714   0.032
15828TIP3    H147361   3.205   1.674   0.084
15828TIP3    H247362   3.346   1.727   0.093
15829TIP3   OH247363   6.033   2.764   7.475
15829TIP3    H147364   6.113   2.739   7.521
15829TIP3    H247365   5.998   2.837   7.525
15830TIP3   OH247366   7.573   4.178   2.442
15830TIP3    H147367   7.548   4.087   2.458
15830TIP3    H247368   7.622   4.204   2.520
15831TIP3   OH247369   1.787   0.730   0.517
15831TIP3    H147370   1.707   0.738   0.569
15831TIP3    H247371   1.771   0.783   0.440
15832TIP3   OH247372   3.651   3.445   4.379
15832TIP3    H147373   3.709   3.464   4.453
15832TIP3    H247374   3.688   3.367   4.339
15833TIP3   OH247375   7.490   4.352   2.966
15833TIP3    H147376   7.446   4.355   3.052
15833TIP3    H247377   7.473   4.438   2.928
15834TIP3   OH247378   6.547   6.208   0.054
15834TIP3    H147379   6.546   6.172   0.142
15834TIP3    H247380   6.521   6.300   0.064
15835TIP3   OH247381   8.481   1.668   7.780
15835TIP3    H147382   8.512   1.746   7.733
15835TIP3    H247383   8.559   1.615   7.793
15836TIP3   OH247384   4.005   5.097   3.729
15836TIP3    H147385   3.942   5.058   3.668
15836TIP3    H247386   4.064   5.025   3.752
15837TIP3   OH247387   8.368   8.625   5.212
15837TIP3    H147388   8.433   8.628   5.142
15837TIP3    H247389   8.302   8.690   5.187
15838TIP3   OH247390   3.348   0.679   5.950
15838TIP3    H147391   3.302   0.737   6.012
15838TIP3    H247392   3.373   0.736   5.878
15839TIP3   OH247393   1.434   6.698   1.619
15839TIP3    H147394   1.496   6.669   1.686
15839TIP3    H247395   1.425   6.623   1.560
15840TIP3   OH247396   5.993   0.126   1.352
15840TIP3    H147397   6.029   0.173   1.277
15840TIP3    H247398   5.935   0.189   1.395
15841TIP3   OH247399   8.719   4.218   3.697
15841TIP3    H147400   8.762   4.302   3.680
15841TIP3    H247401   8.656   4.237   3.767
15842TIP3   OH247402   8.138   1.396   4.314
15842TIP3    H147403   8.061   1.400   4.257
15842TIP3    H247404   8.155   1.302   4.324
15843TIP3   OH247405   0.228   0.552   3.455
15843TIP3    H147406   0.258   0.522   3.541
15843TIP3    H247407   0.170   0.626   3.475
15844TIP3   OH247408   7.985   3.846   2.868
15844TIP3    H147409   7.941   3.763   2.851
15844TIP3    H247410   8.032   3.832   2.951
15845TIP3   OH247411   8.708   0.956   4.263
15845TIP3    H147412   8.733   1.009   4.187
15845TIP3    H247413   8.786   0.955   4.318
15846TIP3   OH247414   8.164   6.605   2.944
15846TIP3    H147415   8.216   6.535   2.904
15846TIP3    H247416   8.114   6.643   2.872
15847TIP3   OH247417   8.404   8.049   4.078
15847TIP3    H147418   8.483   8.026   4.127
15847TIP3    H247419   8.436   8.072   3.991
15848TIP3   OH247420   3.239   6.324   2.182
15848TIP3    H147421   3.144   6.313   2.187
15848TIP3    H247422   3.252   6.408   2.138
15849TIP3   OH247423   5.063   7.720   5.138
15849TIP3    H147424   5.048   7.743   5.047
15849TIP3    H247425   5.049   7.626   5.142
15850TIP3   OH247426   9.524   3.852   3.055
15850TIP3    H147427   9.496   3.930   3.103
15850TIP3    H247428   9.611   3.833   3.089
15851TIP3   OH247429   7.542   7.451   0.663
15851TIP3    H147430   7.599   7.374   0.661
15851TIP3    H247431   7.459   7.421   0.626
15852TIP3   OH247432   5.825   3.170   6.097
15852TIP3    H147433   5.909   3.163   6.051
15852TIP3    H247434   5.765   3.209   6.033
15853TIP3   OH247435   6.318   8.388   7.017
15853TIP3    H147436   6.348   8.422   7.101
15853TIP3    H247437   6.392   8.337   6.984
15854TIP3   OH247438   3.351   6.675   3.051
15854TIP3    H147439   3.422   6.734   3.078
15854TIP3    H247440   3.342   6.690   2.957
15855TIP3   OH247441   4.792   2.348   2.154
15855TIP3    H147442   4.832   2.414   2.097
15855TIP3    H247443   4.704   2.337   2.119
15856TIP3   OH247444   4.140   5.038   0.498
15856TIP3    H147445   4.183   4.978   0.437
15856TIP3    H247446   4.080   5.089   0.444
15857TIP3   OH247447   0.002   7.353   0.488
15857TIP3    H147448   0.087   7.391   0.508
15857TIP3    H247449  -0.058   7.428   0.484
15858TIP3   OH247450   3.656   6.094   2.047
15858TIP3    H147451   3.643   6.189   2.055
15858TIP3    H247452   3.738   6.078   2.093
15859TIP3   OH247453   9.060   7.037   5.176
15859TIP3    H147454   9.103   7.109   5.131
15859TIP3    H247455   8.986   7.077   5.221
15860TIP3   OH247456   1.845   8.225   2.647
15860TIP3    H147457   1.809   8.256   2.564
15860TIP3    H247458   1.832   8.130   2.645
15861TIP3   OH247459   3.527   0.806   6.981
15861TIP3    H147460   3.551   0.880   7.038
15861TIP3    H247461   3.431   0.802   6.987
15862TIP3   OH247462   6.069   6.514   4.663
15862TIP3    H147463   6.151   6.496   4.708
15862TIP3    H247464   6.013   6.554   4.730
15863TIP3   OH247465   6.796   6.345   3.338
15863TIP3    H147466   6.759   6.411   3.280
15863TIP3    H247467   6.880   6.322   3.297
15864TIP3   OH247468   4.291   4.655   1.457
15864TIP3    H147469   4.304   4.706   1.377
15864TIP3    H247470   4.284   4.565   1.427
15865TIP3   OH247471   5.825   6.705   6.590
15865TIP3    H147472   5.891   6.670   6.651
15865TIP3    H247473   5.785   6.778   6.638
15866TIP3   OH247474   4.480   1.945   4.029
15866TIP3    H147475   4.490   1.970   4.121
15866TIP3    H247476   4.485   2.027   3.981
15867TIP3   OH247477   2.021   2.882   6.110
15867TIP3    H147478   2.062   2.944   6.049
15867TIP3    H247479   1.933   2.918   6.125
15868TIP3   OH247480   3.837   1.503   3.456
15868TIP3    H147481   3.802   1.583   3.495
15868TIP3    H247482   3.833   1.520   3.362
15869TIP3   OH247483   8.571   8.657   2.138
15869TIP3    H147484   8.552   8.614   2.222
15869TIP3    H247485   8.506   8.622   2.078
15870TIP3   OH247486   1.954   8.383   0.564
15870TIP3    H147487   1.923   8.398   0.654
15870TIP3    H247488   2.035   8.433   0.558
15871TIP3   OH247489   6.517   7.739   4.348
15871TIP3    H147490   6.528   7.693   4.264
15871TIP3    H247491   6.588   7.707   4.403
15872TIP3   OH247492   0.027   0.643   3.135
15872TIP3    H147493  -0.014   0.567   3.177
15872TIP3    H247494  -0.012   0.719   3.179
15873TIP3   OH247495   4.898   1.202   7.200
15873TIP3    H147496   4.886   1.247   7.283
15873TIP3    H247497   4.858   1.260   7.135
15874TIP3   OH247498   5.799   7.610   5.823
15874TIP3    H147499   5.763   7.568   5.901
15874TIP3    H247500   5.891   7.627   5.845
15875TIP3   OH247501   6.902   2.095   2.606
15875TIP3    H147502   6.994   2.113   2.585
15875TIP3    H247503   6.873   2.173   2.654
15876TIP3   OH247504   8.900   8.493   1.052
15876TIP3    H147505   8.969   8.499   1.119
15876TIP3    H247506   8.898   8.401   1.027
15877TIP3   OH247507   9.434   7.635   2.336
15877TIP3    H147508   9.462   7.726   2.327
15877TIP3    H247509   9.350   7.641   2.382
15878TIP3   OH247510   4.866   6.312   5.368
15878TIP3    H147511   4.951   6.288   5.330
15878TIP3    H247512   4.859   6.258   5.447
15879TIP3   OH247513   0.359   8.647   0.494
15879TIP3    H147514   0.421   8.682   0.557
15879TIP3    H247515   0.404   8.573   0.454
15880TIP3   OH247516   0.415   2.166   7.224
15880TIP3    H147517   0.344   2.213   7.181
15880TIP3    H247518   0.376   2.084   7.253
15881TIP3   OH247519   4.635   2.736   3.608
15881TIP3    H147520   4.559   2.773   3.564
15881TIP3    H247521   4.638   2.779   3.694
15882TIP3   OH247522   5.133   5.487   3.365
15882TIP3    H147523   5.216   5.448   3.394
15882TIP3    H247524   5.091   5.418   3.315
15883TIP3   OH247525   2.605   1.254   6.744
15883TIP3    H147526   2.604   1.281   6.836
15883TIP3    H247527   2.692   1.276   6.713
15884TIP3   OH247528   6.955   7.521   2.517
15884TIP3    H147529   6.863   7.500   2.526
15884TIP3    H247530   6.997   7.439   2.493
15885TIP3   OH247531   0.635   7.338   0.306
15885TIP3    H147532   0.706   7.323   0.368
15885TIP3    H247533   0.557   7.350   0.360
15886TIP3   OH247534   9.242   7.303   4.627
15886TIP3    H147535   9.330   7.275   4.652
15886TIP3    H247536   9.186   7.270   4.697
15887TIP3   OH247537   8.681   3.445   1.285
15887TIP3    H147538   8.589   3.441   1.311
15887TIP3    H247539   8.728   3.468   1.365
15888TIP3   OH247540   0.054   1.566   2.939
15888TIP3    H147541   0.025   1.500   3.003
15888TIP3    H247542  -0.004   1.553   2.864
15889TIP3   OH247543   0.867   1.207   6.191
15889TIP3    H147544   0.952   1.244   6.170
15889TIP3    H247545   0.809   1.282   6.198
15890TIP3   OH247546   3.967   7.871   0.784
15890TIP3    H147547   3.899   7.875   0.852
15890TIP3    H247548   3.955   7.951   0.733
15891TIP3   OH247549   4.224   0.172   5.445
15891TIP3    H147550   4.225   0.197   5.352
15891TIP3    H247551   4.290   0.104   5.452
15892TIP3   OH247552   5.351   8.260   5.367
15892TIP3    H147553   5.414   8.202   5.409
15892TIP3    H247554   5.283   8.274   5.432
15893TIP3   OH247555   9.222   2.766   3.308
15893TIP3    H147556   9.281   2.721   3.368
15893TIP3    H247557   9.273   2.775   3.227
15894TIP3   OH247558   1.724   6.048   7.480
15894TIP3    H147559   1.802   6.029   7.428
15894TIP3    H247560   1.711   6.143   7.470
15895TIP3   OH247561   8.955   8.893   7.181
15895TIP3    H147562   8.931   8.885   7.273
15895TIP3    H247563   8.875   8.874   7.132
15896TIP3   OH247564   0.288   6.544   6.030
15896TIP3    H147565   0.369   6.592   6.047
15896TIP3    H247566   0.263   6.508   6.116
15897TIP3   OH247567   2.405   1.215   6.539
15897TIP3    H147568   2.470   1.161   6.493
15897TIP3    H247569   2.454   1.256   6.610
15898TIP3   OH247570   8.941   8.105   4.962
15898TIP3    H147571   8.906   8.038   5.020
15898TIP3    H247572   8.966   8.178   5.020
15899TIP3   OH247573   8.596   4.744   3.011
15899TIP3    H147574   8.615   4.650   3.009
15899TIP3    H247575   8.585   4.769   2.920
15900TIP3   OH247576   6.723   0.240   5.702
15900TIP3    H147577   6.680   0.279   5.626
15900TIP3    H247578   6.785   0.177   5.664
15901TIP3   OH247579   2.085   6.756   5.388
15901TIP3    H147580   2.074   6.728   5.479
15901TIP3    H247581   2.169   6.719   5.361
15902TIP3   OH247582   5.789   2.861   6.858
15902TIP3    H147583   5.762   2.771   6.873
15902TIP3    H247584   5.709   2.906   6.831
15903TIP3   OH247585   7.691   4.212   3.392
15903TIP3    H147586   7.681   4.180   3.303
15903TIP3    H247587   7.701   4.133   3.445
15904TIP3   OH247588   4.724   2.959   5.884
15904TIP3    H147589   4.808   2.919   5.908
15904TIP3    H247590   4.659   2.892   5.906
15905TIP3   OH247591   4.356   5.826   4.415
15905TIP3    H147592   4.408   5.834   4.495
15905TIP3    H247593   4.395   5.890   4.355
15906TIP3   OH247594   9.267   0.515   1.951
15906TIP3    H147595   9.230   0.561   2.026
15906TIP3    H247596   9.215   0.436   1.942
15907TIP3   OH247597   3.083   6.283   3.052
15907TIP3    H147598   3.015   6.308   3.115
15907TIP3    H247599   3.059   6.195   3.024
15908TIP3   OH247600   2.672   8.414   4.873
15908TIP3    H147601   2.744   8.359   4.844
15908TIP3    H247602   2.712   8.476   4.934
15909TIP3   OH247603   2.838   5.448   6.091
15909TIP3    H147604   2.772   5.510   6.124
15909TIP3    H247605   2.915   5.501   6.073
15910TIP3   OH247606   3.216   5.347   4.842
15910TIP3    H147607   3.294   5.355   4.786
15910TIP3    H247608   3.244   5.383   4.927
15911TIP3   OH247609   2.638   6.680   0.979
15911TIP3    H147610   2.701   6.613   1.006
15911TIP3    H247611   2.565   6.631   0.942
15912TIP3   OH247612   3.436   4.513   1.117
15912TIP3    H147613   3.386   4.437   1.149
15912TIP3    H247614   3.497   4.476   1.053
15913TIP3   OH247615   2.479   2.460   6.441
15913TIP3    H147616   2.445   2.408   6.368
15913TIP3    H247617   2.402   2.505   6.477
15914TIP3   OH247618   2.820   8.193   4.789
15914TIP3    H147619   2.876   8.159   4.720
15914TIP3    H247620   2.845   8.145   4.868
15915TIP3   OH247621   9.417   0.933   2.082
15915TIP3    H147622   9.490   0.916   2.022
15915TIP3    H247623   9.448   1.005   2.137
15916TIP3   OH247624   3.974   4.748   2.373
15916TIP3    H147625   4.067   4.740   2.392
15916TIP3    H247626   3.930   4.703   2.445
15917TIP3   OH247627   1.508   2.876   5.500
15917TIP3    H147628   1.552   2.953   5.464
15917TIP3    H247629   1.572   2.838   5.561
15918TIP3   OH247630   5.720   3.973   3.816
15918TIP3    H147631   5.683   3.888   3.791
15918TIP3    H247632   5.813   3.956   3.830
15919TIP3   OH247633   5.500   3.836   5.390
15919TIP3    H147634   5.505   3.835   5.486
15919TIP3    H247635   5.424   3.891   5.370
15920TIP3   OH247636   4.399   6.113   4.457
15920TIP3    H147637   4.396   6.154   4.543
15920TIP3    H247638   4.455   6.170   4.405
15921TIP3   OH247639   1.882   2.908   0.546
15921TIP3    H147640   1.809   2.848   0.529
15921TIP3    H247641   1.949   2.853   0.586
15922TIP3   OH247642   5.755   0.704   6.334
15922TIP3    H147643   5.721   0.656   6.258
15922TIP3    H247644   5.839   0.739   6.305
15923TIP3   OH247645   1.734   3.111   4.743
15923TIP3    H147646   1.730   3.129   4.837
15923TIP3    H247647   1.673   3.174   4.704
15924TIP3   OH247648   5.501   3.370   6.736
15924TIP3    H147649   5.527   3.461   6.746
15924TIP3    H247650   5.576   3.327   6.696
15925TIP3   OH247651   3.012   4.234   3.460
15925TIP3    H147652   3.045   4.155   3.503
15925TIP3    H247653   3.009   4.300   3.529
15926TIP3   OH247654   2.057   1.752   1.331
15926TIP3    H147655   2.061   1.719   1.242
15926TIP3    H247656   2.008   1.686   1.380
15927TIP3   OH247657   3.478   2.988   3.449
15927TIP3    H147658   3.400   2.972   3.397
15927TIP3    H247659   3.503   3.078   3.429
15928TIP3   OH247660   0.028   8.715   5.991
15928TIP3    H147661   0.101   8.726   6.051
15928TIP3    H247662   0.034   8.625   5.960
15929TIP3   OH247663   5.698   2.605   0.104
15929TIP3    H147664   5.696   2.634   0.195
15929TIP3    H247665   5.752   2.670   0.059
15930TIP3   OH247666   3.450   2.209   4.507
15930TIP3    H147667   3.473   2.294   4.469
15930TIP3    H247668   3.491   2.210   4.594
15931TIP3   OH247669   7.093   4.972   2.721
15931TIP3    H147670   7.030   5.038   2.693
15931TIP3    H247671   7.113   4.921   2.642
15932TIP3   OH247672   4.373   6.569   6.264
15932TIP3    H147673   4.387   6.641   6.203
15932TIP3    H247674   4.289   6.531   6.238
15933TIP3   OH247675   5.755   7.335   6.706
15933TIP3    H147676   5.720   7.273   6.770
15933TIP3    H247677   5.850   7.330   6.718
15934TIP3   OH247678   5.276   6.915   1.457
15934TIP3    H147679   5.302   6.829   1.488
15934TIP3    H247680   5.194   6.900   1.409
15935TIP3   OH247681   6.375   3.192   4.286
15935TIP3    H147682   6.378   3.266   4.225
15935TIP3    H247683   6.282   3.183   4.308
15936TIP3   OH247684   6.127   0.483   4.535
15936TIP3    H147685   6.165   0.510   4.451
15936TIP3    H247686   6.162   0.546   4.598
15937TIP3   OH247687   8.041   2.591   5.835
15937TIP3    H147688   7.968   2.644   5.867
15937TIP3    H247689   8.108   2.598   5.903
15938TIP3   OH247690   0.568   2.210   5.693
15938TIP3    H147691   0.524   2.271   5.753
15938TIP3    H247692   0.597   2.138   5.750
15939TIP3   OH247693   4.162   5.635   4.047
15939TIP3    H147694   4.255   5.652   4.031
15939TIP3    H247695   4.135   5.706   4.105
15940TIP3   OH247696   4.945   5.030   0.639
15940TIP3    H147697   4.969   5.059   0.727
15940TIP3    H247698   4.940   4.935   0.646
15941TIP3   OH247699   2.268   2.158   5.158
15941TIP3    H147700   2.231   2.080   5.118
15941TIP3    H247701   2.199   2.225   5.150
15942TIP3   OH247702   0.281   3.936   4.441
15942TIP3    H147703   0.340   3.877   4.488
15942TIP3    H247704   0.193   3.908   4.466
15943TIP3   OH247705   8.637   7.100   7.556
15943TIP3    H147706   8.560   7.094   7.500
15943TIP3    H247707   8.652   7.194   7.566
15944TIP3   OH247708   1.044   7.057   0.401
15944TIP3    H147709   0.990   7.103   0.465
15944TIP3    H247710   1.067   7.123   0.336
15945TIP3   OH247711   9.094   6.562   7.759
15945TIP3    H147712   9.154   6.626   7.798
15945TIP3    H247713   9.138   6.478   7.771
15946TIP3   OH247714   3.523   8.872   6.691
15946TIP3    H147715   3.453   8.884   6.627
15946TIP3    H247716   3.595   8.834   6.641
15947TIP3   OH247717   0.286   6.541   5.567
15947TIP3    H147718   0.272   6.584   5.482
15947TIP3    H247719   0.376   6.564   5.590
15948TIP3   OH247720   2.257   0.039   6.045
15948TIP3    H147721   2.224   0.113   6.096
15948TIP3    H247722   2.264  -0.033   6.108
15949TIP3   OH247723   6.952   3.952   2.632
15949TIP3    H147724   6.882   3.997   2.679
15949TIP3    H247725   6.959   3.867   2.676
15950TIP3   OH247726   7.106   2.473   4.519
15950TIP3    H147727   7.124   2.428   4.601
15950TIP3    H247728   7.012   2.459   4.504
15951TIP3   OH247729   3.432   8.907   5.090
15951TIP3    H147730   3.492   8.836   5.115
15951TIP3    H247731   3.481   8.956   5.024
15952TIP3   OH247732   7.993   6.807   3.630
15952TIP3    H147733   7.963   6.880   3.685
15952TIP3    H247734   8.076   6.838   3.593
15953TIP3   OH247735   8.545   5.467   7.277
15953TIP3    H147736   8.471   5.417   7.312
15953TIP3    H247737   8.536   5.553   7.317
15954TIP3   OH247738   5.752   4.273   4.516
15954TIP3    H147739   5.763   4.209   4.445
15954TIP3    H247740   5.658   4.273   4.534
15955TIP3   OH247741   6.130   1.771   3.181
15955TIP3    H147742   6.218   1.778   3.217
15955TIP3    H247743   6.084   1.711   3.240
15956TIP3   OH247744   4.046   3.282   6.580
15956TIP3    H147745   4.068   3.267   6.488
15956TIP3    H247746   3.964   3.332   6.577
15957TIP3   OH247747   2.914   2.254   3.018
15957TIP3    H147748   3.000   2.271   3.056
15957TIP3    H247749   2.852   2.278   3.087
15958TIP3   OH247750   4.229   7.396   6.613
15958TIP3    H147751   4.271   7.311   6.628
15958TIP3    H247752   4.214   7.400   6.519
15959TIP3   OH247753   6.841   8.009   5.878
15959TIP3    H147754   6.936   7.997   5.868
15959TIP3    H247755   6.825   8.098   5.847
15960TIP3   OH247756   6.777   3.607   0.737
15960TIP3    H147757   6.779   3.692   0.694
15960TIP3    H247758   6.810   3.624   0.825
15961TIP3   OH247759   1.578   0.691   4.995
15961TIP3    H147760   1.509   0.662   4.936
15961TIP3    H247761   1.609   0.611   5.038
15962TIP3   OH247762   6.443   0.882   5.623
15962TIP3    H147763   6.471   0.791   5.634
15962TIP3    H247764   6.511   0.933   5.666
15963TIP3   OH247765   7.854   8.888   4.903
15963TIP3    H147766   7.809   8.848   4.977
15963TIP3    H247767   7.856   8.982   4.924
15964TIP3   OH247768   2.091   3.297   6.152
15964TIP3    H147769   2.075   3.381   6.108
15964TIP3    H247770   2.017   3.242   6.127
15965TIP3   OH247771   1.264   8.196   2.239
15965TIP3    H147772   1.306   8.280   2.258
15965TIP3    H247773   1.174   8.207   2.272
15966TIP3   OH247774   5.413   2.228   2.206
15966TIP3    H147775   5.349   2.158   2.194
15966TIP3    H247776   5.360   2.304   2.231
15967TIP3   OH247777   8.232   0.673   1.699
15967TIP3    H147778   8.232   0.757   1.654
15967TIP3    H247779   8.295   0.620   1.651
15968TIP3   OH247780   0.434   1.124   6.955
15968TIP3    H147781   0.351   1.126   7.004
15968TIP3    H247782   0.497   1.087   7.017
15969TIP3   OH247783   4.056   4.116   7.330
15969TIP3    H147784   4.077   4.113   7.236
15969TIP3    H247785   4.103   4.042   7.367
15970TIP3   OH247786   1.516   8.939   0.303
15970TIP3    H147787   1.601   8.898   0.323
15970TIP3    H247788   1.463   8.923   0.381
15971TIP3   OH247789   0.735   5.773   3.360
15971TIP3    H147790   0.701   5.704   3.417
15971TIP3    H247791   0.804   5.815   3.412
15972TIP3   OH247792   8.303   5.497   1.365
15972TIP3    H147793   8.279   5.579   1.407
15972TIP3    H247794   8.371   5.459   1.420
15973TIP3   OH247795   2.019   6.319   6.998
15973TIP3    H147796   2.096   6.282   7.042
15973TIP3    H247797   1.978   6.375   7.064
15974TIP3   OH247798   2.255   3.294   3.205
15974TIP3    H147799   2.333   3.313   3.257
15974TIP3    H247800   2.199   3.244   3.264
15975TIP3   OH247801   2.888   6.109   5.680
15975TIP3    H147802   2.805   6.083   5.639
15975TIP3    H247803   2.898   6.048   5.753
15976TIP3   OH247804   8.450   1.756   4.663
15976TIP3    H147805   8.526   1.705   4.633
15976TIP3    H247806   8.375   1.713   4.622
15977TIP3   OH247807   4.305   7.221   4.088
15977TIP3    H147808   4.280   7.311   4.109
15977TIP3    H247809   4.401   7.222   4.089
15978TIP3   OH247810   1.686   0.364   4.991
15978TIP3    H147811   1.712   0.317   4.911
15978TIP3    H247812   1.759   0.423   5.008
15979TIP3   OH247813   4.268   3.584   0.859
15979TIP3    H147814   4.260   3.554   0.768
15979TIP3    H247815   4.327   3.522   0.900
15980TIP3   OH247816   7.956   0.583   6.911
15980TIP3    H147817   7.997   0.664   6.942
15980TIP3    H247818   7.862   0.598   6.922
15981TIP3   OH247819   1.325   2.292   5.557
15981TIP3    H147820   1.393   2.225   5.566
15981TIP3    H247821   1.337   2.349   5.633
15982TIP3   OH247822   5.309   1.616   7.435
15982TIP3    H147823   5.242   1.684   7.443
15982TIP3    H247824   5.353   1.634   7.352
15983TIP3   OH247825   4.424   8.186   1.827
15983TIP3    H147826   4.493   8.126   1.796
15983TIP3    H247827   4.343   8.148   1.795
15984TIP3   OH247828   5.238   5.376   3.806
15984TIP3    H147829   5.203   5.359   3.719
15984TIP3    H247830   5.161   5.397   3.859
15985TIP3   OH247831   1.863   0.240   7.056
15985TIP3    H147832   1.859   0.294   6.977
15985TIP3    H247833   1.795   0.276   7.113
15986TIP3   OH247834   7.616   5.638   0.866
15986TIP3    H147835   7.663   5.605   0.943
15986TIP3    H247836   7.603   5.731   0.885
15987TIP3   OH247837   3.162   8.047   6.568
15987TIP3    H147838   3.239   8.000   6.536
15987TIP3    H247839   3.189   8.082   6.653
15988TIP3   OH247840   7.223   5.302   5.229
15988TIP3    H147841   7.169   5.376   5.200
15988TIP3    H247842   7.302   5.308   5.175
15989TIP3   OH247843   8.778   6.478   0.403
15989TIP3    H147844   8.743   6.410   0.346
15989TIP3    H247845   8.718   6.480   0.478
15990TIP3   OH247846   7.831   7.379   3.958
15990TIP3    H147847   7.849   7.346   3.870
15990TIP3    H247848   7.833   7.474   3.949
15991TIP3   OH247849   7.254   7.832   2.282
15991TIP3    H147850   7.176   7.879   2.312
15991TIP3    H247851   7.221   7.768   2.219
15992TIP3   OH247852   1.938   2.170   5.977
15992TIP3    H147853   1.871   2.237   5.968
15992TIP3    H247854   1.953   2.162   6.071
15993TIP3   OH247855   0.734   3.493   5.193
15993TIP3    H147856   0.745   3.401   5.219
15993TIP3    H247857   0.662   3.492   5.131
15994TIP3   OH247858   3.203   5.378   0.982
15994TIP3    H147859   3.194   5.473   0.990
15994TIP3    H247860   3.114   5.346   0.973
15995TIP3   OH247861   2.966   5.069   4.167
15995TIP3    H147862   3.010   4.984   4.165
15995TIP3    H247863   2.881   5.050   4.207
15996TIP3   OH247864   1.660   6.963   6.257
15996TIP3    H147865   1.664   6.884   6.203
15996TIP3    H247866   1.641   7.033   6.195
15997TIP3   OH247867   7.705   4.074   5.666
15997TIP3    H147868   7.694   3.980   5.673
15997TIP3    H247869   7.740   4.089   5.578
15998TIP3   OH247870   4.183   7.327   3.819
15998TIP3    H147871   4.136   7.307   3.738
15998TIP3    H247872   4.114   7.329   3.886
15999TIP3   OH247873   6.251   8.759   3.177
15999TIP3    H147874   6.274   8.780   3.086
15999TIP3    H247875   6.315   8.693   3.203
16000TIP3   OH247876   4.824   1.214   3.835
16000TIP3    H147877   4.793   1.146   3.774
16000TIP3    H247878   4.809   1.176   3.922
16001TIP3   OH247879   7.805   3.193   4.724
16001TIP3    H147880   7.866   3.264   4.743
16001TIP3    H247881   7.785   3.203   4.631
16002TIP3   OH247882   1.819   1.527   2.768
16002TIP3    H147883   1.839   1.439   2.798
16002TIP3    H247884   1.904   1.569   2.756
16003TIP3   OH247885   3.914   3.231   5.902
16003TIP3    H147886   3.978   3.224   5.831
16003TIP3    H247887   3.837   3.185   5.869
16004TIP3   OH247888   5.170   5.507   3.042
16004TIP3    H147889   5.169   5.486   3.136
16004TIP3    H247890   5.234   5.578   3.035
16005TIP3   OH247891   5.701   2.655   0.385
16005TIP3    H147892   5.644   2.732   0.388
16005TIP3    H247893   5.652   2.588   0.433
16006TIP3   OH247894   9.470   8.307   6.334
16006TIP3    H147895   9.489   8.246   6.405
16006TIP3    H247896   9.376   8.323   6.342
16007TIP3   OH247897   8.503   1.564   1.621
16007TIP3    H147898   8.559   1.632   1.659
16007TIP3    H247899   8.418   1.577   1.663
16008TIP3   OH247900   5.022   7.417   5.165
16008TIP3    H147901   4.939   7.371   5.147
16008TIP3    H247902   5.080   7.389   5.094
16009TIP3   OH247903   7.761   1.677   5.113
16009TIP3    H147904   7.683   1.637   5.072
16009TIP3    H247905   7.781   1.752   5.057
16010TIP3   OH247906   3.844   1.406   1.706
16010TIP3    H147907   3.897   1.331   1.680
16010TIP3    H247908   3.780   1.370   1.767
16011TIP3   OH247909   1.391   7.692   1.086
16011TIP3    H147910   1.352   7.623   1.139
16011TIP3    H247911   1.484   7.690   1.108
16012TIP3   OH247912   5.471   4.377   3.423
16012TIP3    H147913   5.482   4.472   3.431
16012TIP3    H247914   5.400   4.355   3.483
16013TIP3   OH247915   1.067   4.093   1.641
16013TIP3    H147916   1.046   4.122   1.730
16013TIP3    H247917   1.093   4.002   1.650
16014TIP3   OH247918   1.503   6.684   4.414
16014TIP3    H147919   1.439   6.725   4.471
16014TIP3    H247920   1.573   6.654   4.473
16015TIP3   OH247921   0.512   7.980   6.032
16015TIP3    H147922   0.460   8.059   6.041
16015TIP3    H247923   0.515   7.964   5.937
16016TIP3   OH247924   6.406   0.434   4.601
16016TIP3    H147925   6.409   0.483   4.683
16016TIP3    H247926   6.314   0.408   4.592
16017TIP3   OH247927   4.364   2.292   6.576
16017TIP3    H147928   4.335   2.353   6.508
16017TIP3    H247929   4.378   2.209   6.531
16018TIP3   OH247930   8.247   8.152   3.441
16018TIP3    H147931   8.190   8.126   3.513
16018TIP3    H247932   8.240   8.081   3.377
16019TIP3   OH247933   7.144   1.548   7.314
16019TIP3    H147934   7.103   1.631   7.340
16019TIP3    H247935   7.156   1.556   7.219
16020TIP3   OH247936   3.671   8.822   1.876
16020TIP3    H147937   3.585   8.801   1.914
16020TIP3    H247938   3.734   8.792   1.942
16021TIP3   OH247939   5.026   2.307   6.806
16021TIP3    H147940   4.988   2.297   6.719
16021TIP3    H247941   4.951   2.313   6.864
16022TIP3   OH247942   2.365   6.831   3.071
16022TIP3    H147943   2.400   6.873   3.149
16022TIP3    H247944   2.302   6.893   3.035
16023TIP3   OH247945   3.636   5.538   6.353
16023TIP3    H147946   3.592   5.552   6.437
16023TIP3    H247947   3.729   5.538   6.374
16024TIP3   OH247948   7.592   3.809   6.687
16024TIP3    H147949   7.526   3.743   6.709
16024TIP3    H247950   7.556   3.891   6.721
16025TIP3   OH247951   8.244   2.782   1.086
16025TIP3    H147952   8.189   2.705   1.078
16025TIP3    H247953   8.312   2.756   1.148
16026TIP3   OH247954   1.779   5.007   1.942
16026TIP3    H147955   1.802   4.949   1.869
16026TIP3    H247956   1.687   4.987   1.961
16027TIP3   OH247957   4.015   5.266   0.689
16027TIP3    H147958   4.032   5.173   0.705
16027TIP3    H247959   3.989   5.270   0.597
16028TIP3   OH247960   1.030   7.566   6.333
16028TIP3    H147961   1.023   7.659   6.312
16028TIP3    H247962   1.047   7.564   6.428
16029TIP3   OH247963   9.202   2.179   7.459
16029TIP3    H147964   9.227   2.193   7.368
16029TIP3    H247965   9.274   2.131   7.498
16030TIP3   OH247966   1.597   7.942   5.320
16030TIP3    H147967   1.578   8.029   5.355
16030TIP3    H247968   1.566   7.882   5.388
16031TIP3   OH247969   3.657   5.917   2.251
16031TIP3    H147970   3.581   5.963   2.287
16031TIP3    H247971   3.654   5.937   2.157
16032TIP3   OH247972   8.437   4.375   3.745
16032TIP3    H147973   8.344   4.351   3.746
16032TIP3    H247974   8.480   4.307   3.797
16033TIP3   OH247975   9.018   4.529   0.690
16033TIP3    H147976   9.036   4.480   0.771
16033TIP3    H247977   9.034   4.466   0.620
16034TIP3   OH247978   6.260   6.226   6.964
16034TIP3    H147979   6.200   6.221   7.039
16034TIP3    H247980   6.202   6.235   6.888
16035TIP3   OH247981   4.447   7.844   4.898
16035TIP3    H147982   4.515   7.831   4.964
16035TIP3    H247983   4.417   7.755   4.877
16036TIP3   OH247984   2.397   3.057   5.960
16036TIP3    H147985   2.398   2.973   5.913
16036TIP3    H247986   2.476   3.056   6.013
16037TIP3   OH247987   4.637   7.708   0.102
16037TIP3    H147988   4.558   7.654   0.106
16037TIP3    H247989   4.622   7.768   0.029
16038TIP3   OH247990   5.247   6.521   0.509
16038TIP3    H147991   5.320   6.532   0.448
16038TIP3    H247992   5.171   6.554   0.461
16039TIP3   OH247993   7.935   2.842   4.943
16039TIP3    H147994   7.936   2.750   4.918
16039TIP3    H247995   7.869   2.848   5.011
16040TIP3   OH247996   9.336   3.350   2.173
16040TIP3    H147997   9.412   3.300   2.203
16040TIP3    H247998   9.342   3.348   2.077
16041TIP3   OH247999   2.561   8.263   0.562
16041TIP3    H148000   2.516   8.216   0.491
16041TIP3    H248001   2.559   8.355   0.535
16042TIP3   OH248002   5.040   0.669   3.601
16042TIP3    H148003   5.013   0.715   3.522
16042TIP3    H248004   5.090   0.734   3.651
16043TIP3   OH248005   8.120   4.041   7.604
16043TIP3    H148006   8.068   4.013   7.528
16043TIP3    H248007   8.104   4.136   7.609
16044TIP3   OH248008   8.298   1.533   2.945
16044TIP3    H148009   8.305   1.583   2.864
16044TIP3    H248010   8.357   1.577   3.006
16045TIP3   OH248011   4.232   0.966   3.144
16045TIP3    H148012   4.251   1.037   3.083
16045TIP3    H248013   4.242   1.006   3.231
16046TIP3   OH248014   9.195   2.816   2.106
16046TIP3    H148015   9.122   2.875   2.125
16046TIP3    H248016   9.174   2.778   2.021
16047TIP3   OH248017   1.291   2.134   3.090
16047TIP3    H148018   1.247   2.166   3.011
16047TIP3    H248019   1.383   2.157   3.077
16048TIP3   OH248020   4.549   7.430   4.920
16048TIP3    H148021   4.586   7.435   5.008
16048TIP3    H248022   4.625   7.436   4.862
16049TIP3   OH248023   8.349   2.453   1.347
16049TIP3    H148024   8.385   2.526   1.296
16049TIP3    H248025   8.292   2.407   1.286
16050TIP3   OH248026   1.190   2.728   3.685
16050TIP3    H148027   1.227   2.778   3.758
16050TIP3    H248028   1.266   2.695   3.637
16051TIP3   OH248029   8.329   5.938   3.870
16051TIP3    H148030   8.418   5.972   3.864
16051TIP3    H248031   8.338   5.851   3.909
16052TIP3   OH248032   2.851   1.140   2.958
16052TIP3    H148033   2.804   1.147   2.875
16052TIP3    H248034   2.782   1.143   3.025
16053TIP3   OH248035   7.036   4.905   5.200
16053TIP3    H148036   7.110   4.854   5.234
16053TIP3    H248037   7.021   4.870   5.112
16054TIP3   OH248038   2.176   8.736   7.044
16054TIP3    H148039   2.257   8.715   6.998
16054TIP3    H248040   2.108   8.690   6.995
16055TIP3   OH248041   4.020   6.748   2.627
16055TIP3    H148042   3.934   6.708   2.612
16055TIP3    H248043   4.002   6.842   2.632
16056TIP3   OH248044   8.424   8.833   3.010
16056TIP3    H148045   8.411   8.891   3.085
16056TIP3    H248046   8.429   8.745   3.048
16057TIP3   OH248047   1.718   1.388   5.511
16057TIP3    H148048   1.730   1.299   5.479
16057TIP3    H248049   1.768   1.442   5.451
16058TIP3   OH248050   4.915   3.375   2.432
16058TIP3    H148051   4.823   3.349   2.425
16058TIP3    H248052   4.917   3.435   2.507
16059TIP3   OH248053   1.832   7.996   4.244
16059TIP3    H148054   1.777   8.034   4.175
16059TIP3    H248055   1.785   7.918   4.273
16060TIP3   OH248056   8.258   4.731   4.511
16060TIP3    H148057   8.261   4.688   4.597
16060TIP3    H248058   8.316   4.679   4.456
16061TIP3   OH248059   3.395   3.122   1.110
16061TIP3    H148060   3.404   3.202   1.058
16061TIP3    H248061   3.374   3.153   1.198
16062TIP3   OH248062   0.556   3.608   2.675
16062TIP3    H148063   0.486   3.653   2.721
16062TIP3    H248064   0.519   3.523   2.652
16063TIP3   OH248065   8.576   0.559   5.183
16063TIP3    H148066   8.615   0.530   5.265
16063TIP3    H248067   8.495   0.603   5.209
16064TIP3   OH248068   1.336   5.713   2.515
16064TIP3    H148069   1.333   5.624   2.480
16064TIP3    H248070   1.329   5.770   2.438
16065TIP3   OH248071   5.333   0.824   6.034
16065TIP3    H148072   5.387   0.746   6.040
16065TIP3    H248073   5.355   0.875   6.112
16066TIP3   OH248074   0.949   6.399   6.226
16066TIP3    H148075   0.880   6.442   6.176
16066TIP3    H248076   0.965   6.317   6.179
16067TIP3   OH248077   2.351   4.372   3.151
16067TIP3    H148078   2.304   4.431   3.210
16067TIP3    H248079   2.424   4.339   3.204
16068TIP3   OH248080   7.419   4.814   6.710
16068TIP3    H148081   7.435   4.760   6.633
16068TIP3    H248082   7.458   4.765   6.782
16069TIP3   OH248083   4.523   8.732   6.541
16069TIP3    H148084   4.549   8.642   6.563
16069TIP3    H248085   4.518   8.776   6.626
16070TIP3   OH248086   1.881   5.016   4.829
16070TIP3    H148087   1.926   5.095   4.800
16070TIP3    H248088   1.926   4.945   4.782
16071TIP3   OH248089   5.034   8.794   6.231
16071TIP3    H148090   4.953   8.827   6.192
16071TIP3    H248091   5.007   8.754   6.313
16072TIP3   OH248092   5.140   0.529   0.309
16072TIP3    H148093   5.091   0.448   0.322
16072TIP3    H248094   5.080   0.587   0.263
16073TIP3   OH248095   2.866   4.336   3.252
16073TIP3    H148096   2.908   4.295   3.328
16073TIP3    H248097   2.939   4.361   3.196
16074TIP3   OH248098   2.300   6.579   7.243
16074TIP3    H148099   2.307   6.489   7.276
16074TIP3    H248100   2.264   6.569   7.155
16075TIP3   OH248101   2.804   0.718   5.552
16075TIP3    H148102   2.851   0.678   5.479
16075TIP3    H248103   2.736   0.772   5.511
16076TIP3   OH248104   6.667   6.088   5.987
16076TIP3    H148105   6.715   6.011   6.017
16076TIP3    H248106   6.579   6.077   6.023
16077TIP3   OH248107   0.293   0.271   3.934
16077TIP3    H148108   0.231   0.198   3.933
16077TIP3    H248109   0.371   0.236   3.978
16078TIP3   OH248110   6.633   6.083   2.679
16078TIP3    H148111   6.630   5.995   2.716
16078TIP3    H248112   6.666   6.071   2.590
16079TIP3   OH248113   3.036   0.164   2.831
16079TIP3    H148114   2.954   0.127   2.863
16079TIP3    H248115   3.044   0.248   2.876
16080TIP3   OH248116   6.951   1.685   6.116
16080TIP3    H148117   6.859   1.683   6.089
16080TIP3    H248118   6.972   1.779   6.121
16081TIP3   OH248119   0.658   4.244   3.300
16081TIP3    H148120   0.727   4.287   3.250
16081TIP3    H248121   0.702   4.171   3.343
16082TIP3   OH248122   3.680   6.603   7.049
16082TIP3    H148123   3.691   6.615   6.955
16082TIP3    H248124   3.769   6.592   7.082
16083TIP3   OH248125   1.174   8.272   7.383
16083TIP3    H148126   1.255   8.256   7.431
16083TIP3    H248127   1.106   8.270   7.451
16084TIP3   OH248128   3.624   6.083   3.568
16084TIP3    H148129   3.698   6.031   3.599
16084TIP3    H248130   3.611   6.150   3.635
16085TIP3   OH248131   3.973   8.945   7.143
16085TIP3    H148132   4.018   9.027   7.160
16085TIP3    H248133   4.041   8.878   7.149
16086TIP3   OH248134   0.772   6.464   3.568
16086TIP3    H148135   0.686   6.466   3.612
16086TIP3    H248136   0.823   6.402   3.620
16087TIP3   OH248137   7.307   2.730   7.301
16087TIP3    H148138   7.399   2.715   7.281
16087TIP3    H248139   7.278   2.650   7.345
16088TIP3   OH248140   5.820   7.216   5.886
16088TIP3    H148141   5.807   7.161   5.963
16088TIP3    H248142   5.816   7.305   5.919
16089TIP3   OH248143   7.084   0.509   0.309
16089TIP3    H148144   7.179   0.501   0.318
16089TIP3    H248145   7.049   0.467   0.387
16090TIP3   OH248146   5.840   7.483   7.376
16090TIP3    H148147   5.865   7.446   7.291
16090TIP3    H248148   5.834   7.406   7.433
16091TIP3   OH248149   4.711   0.109   1.825
16091TIP3    H148150   4.782   0.150   1.775
16091TIP3    H248151   4.755   0.042   1.878
16092TIP3   OH248152   4.112   3.715   0.050
16092TIP3    H148153   4.149   3.627   0.038
16092TIP3    H248154   4.021   3.707   0.022
16093TIP3   OH248155   6.140   0.107   5.846
16093TIP3    H148156   6.184   0.091   5.762
16093TIP3    H248157   6.060   0.154   5.822
16094TIP3   OH248158   6.076   7.134   0.191
16094TIP3    H148159   6.080   7.128   0.095
16094TIP3    H248160   6.075   7.043   0.220
16095TIP3   OH248161   5.043   2.836   1.551
16095TIP3    H148162   5.092   2.885   1.617
16095TIP3    H248163   5.111   2.790   1.501
16096TIP3   OH248164   7.193   4.649   4.419
16096TIP3    H148165   7.214   4.560   4.448
16096TIP3    H248166   7.224   4.704   4.490
16097TIP3   OH248167   6.537   0.805   3.410
16097TIP3    H148168   6.517   0.711   3.409
16097TIP3    H248169   6.459   0.846   3.373
16098TIP3   OH248170   5.505   2.784   7.224
16098TIP3    H148171   5.548   2.756   7.143
16098TIP3    H248172   5.412   2.769   7.207
16099TIP3   OH248173   1.937   8.689   1.647
16099TIP3    H148174   1.871   8.638   1.693
16099TIP3    H248175   1.902   8.702   1.559
16100TIP3   OH248176   9.399   4.916   4.593
16100TIP3    H148177   9.351   4.881   4.668
16100TIP3    H248178   9.333   4.964   4.543
16101TIP3   OH248179   6.874   0.966   0.979
16101TIP3    H148180   6.901   1.049   0.941
16101TIP3    H248181   6.845   0.988   1.068
16102TIP3   OH248182   9.477   8.446   0.182
16102TIP3    H148183   9.429   8.418   0.103
16102TIP3    H248184   9.569   8.433   0.160
16103TIP3   OH248185   7.057   5.815   5.763
16103TIP3    H148186   7.005   5.895   5.752
16103TIP3    H248187   6.992   5.746   5.779
16104TIP3   OH248188   6.496   5.652   6.420
16104TIP3    H148189   6.559   5.724   6.424
16104TIP3    H248190   6.534   5.591   6.357
16105TIP3   OH248191   5.495   2.761   0.813
16105TIP3    H148192   5.589   2.746   0.825
16105TIP3    H248193   5.458   2.673   0.807
16106TIP3   OH248194   3.871   1.890   4.810
16106TIP3    H148195   3.863   1.835   4.732
16106TIP3    H248196   3.856   1.829   4.883
16107TIP3   OH248197   7.579   4.821   2.472
16107TIP3    H148198   7.494   4.777   2.468
16107TIP3    H248199   7.596   4.830   2.566
16108TIP3   OH248200   1.791   6.059   5.167
16108TIP3    H148201   1.799   6.065   5.072
16108TIP3    H248202   1.868   6.010   5.195
16109TIP3   OH248203   8.671   1.002   1.154
16109TIP3    H148204   8.672   0.925   1.210
16109TIP3    H248205   8.745   0.991   1.096
16110TIP3   OH248206   7.303   7.668   6.381
16110TIP3    H148207   7.354   7.666   6.462
16110TIP3    H248208   7.230   7.607   6.397
16111TIP3   OH248209   8.240   5.362   0.429
16111TIP3    H148210   8.151   5.388   0.408
16111TIP3    H248211   8.293   5.439   0.408
16112TIP3   OH248212   1.392   5.015   5.069
16112TIP3    H148213   1.317   4.973   5.027
16112TIP3    H248214   1.403   5.098   5.022
16113TIP3   OH248215   2.286   1.196   2.597
16113TIP3    H148216   2.352   1.179   2.531
16113TIP3    H248217   2.316   1.276   2.641
16114TIP3   OH248218   5.790   4.800   6.442
16114TIP3    H148219   5.768   4.709   6.458
16114TIP3    H248220   5.881   4.798   6.412
16115TIP3   OH248221   1.785   8.981   4.465
16115TIP3    H148222   1.785   9.050   4.532
16115TIP3    H248223   1.711   9.003   4.409
16116TIP3   OH248224   2.424   6.890   4.978
16116TIP3    H148225   2.371   6.811   4.983
16116TIP3    H248226   2.417   6.919   4.887
16117TIP3   OH248227   5.873   8.035   2.356
16117TIP3    H148228   5.924   8.113   2.336
16117TIP3    H248229   5.793   8.068   2.398
16118TIP3   OH248230   6.027   7.865   5.832
16118TIP3    H148231   6.022   7.961   5.837
16118TIP3    H248232   5.966   7.842   5.762
16119TIP3   OH248233   6.088   1.252   7.582
16119TIP3    H148234   6.005   1.221   7.619
16119TIP3    H248235   6.136   1.284   7.658
16120TIP3   OH248236   6.039   2.307   7.027
16120TIP3    H148237   6.016   2.239   7.090
16120TIP3    H248238   6.133   2.317   7.036
16121TIP3   OH248239   3.375   0.573   5.290
16121TIP3    H148240   3.352   0.486   5.257
16121TIP3    H248241   3.295   0.625   5.279
16122TIP3   OH248242   6.715   6.401   1.603
16122TIP3    H148243   6.785   6.357   1.652
16122TIP3    H248244   6.747   6.491   1.591
16123TIP3   OH248245   6.938   0.726   0.281
16123TIP3    H148246   6.867   0.695   0.225
16123TIP3    H248247   6.986   0.647   0.305
16124TIP3   OH248248   7.897   8.445   2.044
16124TIP3    H148249   7.863   8.454   1.955
16124TIP3    H248250   7.869   8.358   2.071
16125TIP3   OH248251   6.841   7.420   4.030
16125TIP3    H148252   6.783   7.386   3.962
16125TIP3    H248253   6.839   7.515   4.017
16126TIP3   OH248254   1.964   6.618   7.492
16126TIP3    H148255   2.036   6.634   7.553
16126TIP3    H248256   1.894   6.675   7.522
16127TIP3   OH248257   7.409   8.762   1.223
16127TIP3    H148258   7.500   8.790   1.218
16127TIP3    H248259   7.411   8.668   1.210
16128TIP3   OH248260   4.226   0.736   3.854
16128TIP3    H148261   4.174   0.656   3.845
16128TIP3    H248262   4.254   0.757   3.765
16129TIP3   OH248263   1.504   1.945   6.639
16129TIP3    H148264   1.586   1.926   6.593
16129TIP3    H248265   1.521   2.028   6.685
16130TIP3   OH248266   5.430   7.766   1.368
16130TIP3    H148267   5.348   7.776   1.417
16130TIP3    H248268   5.481   7.843   1.390
16131TIP3   OH248269   9.437   4.556   2.676
16131TIP3    H148270   9.497   4.501   2.727
16131TIP3    H248271   9.492   4.626   2.642
16132TIP3   OH248272   6.654   7.361   2.286
16132TIP3    H148273   6.628   7.282   2.238
16132TIP3    H248274   6.733   7.336   2.334
16133TIP3   OH248275   0.761   1.878   1.566
16133TIP3    H148276   0.750   1.893   1.472
16133TIP3    H248277   0.846   1.917   1.586
16134TIP3   OH248278   2.894   8.188   5.490
16134TIP3    H148279   2.815   8.136   5.503
16134TIP3    H248280   2.966   8.130   5.513
16135TIP3   OH248281   9.224   1.498   2.233
16135TIP3    H148282   9.192   1.581   2.268
16135TIP3    H248283   9.309   1.486   2.276
16136TIP3   OH248284   0.755   8.847   1.134
16136TIP3    H148285   0.739   8.937   1.161
16136TIP3    H248286   0.850   8.839   1.128
16137TIP3   OH248287   5.652   7.926   1.160
16137TIP3    H148288   5.729   7.982   1.164
16137TIP3    H248289   5.599   7.951   1.236
16138TIP3   OH248290   0.894   5.853   6.105
16138TIP3    H148291   0.858   5.839   6.017
16138TIP3    H248292   0.824   5.895   6.154
16139TIP3   OH248293   1.818   3.826   0.680
16139TIP3    H148294   1.909   3.820   0.651
16139TIP3    H248295   1.776   3.751   0.639
16140TIP3   OH248296   2.637   8.101   1.142
16140TIP3    H148297   2.559   8.098   1.197
16140TIP3    H248298   2.710   8.111   1.204
16141TIP3   OH248299   0.496   8.415   0.460
16141TIP3    H148300   0.440   8.403   0.537
16141TIP3    H248301   0.546   8.334   0.454
16142TIP3   OH248302   1.631   6.222   3.458
16142TIP3    H148303   1.603   6.152   3.518
16142TIP3    H248304   1.706   6.262   3.502
16143TIP3   OH248305   9.397   3.610   3.143
16143TIP3    H148306   9.429   3.700   3.132
16143TIP3    H248307   9.301   3.618   3.141
16144TIP3   OH248308   6.171   8.132   6.473
16144TIP3    H148309   6.184   8.064   6.406
16144TIP3    H248310   6.115   8.091   6.538
16145TIP3   OH248311   0.164   3.280   7.179
16145TIP3    H148312   0.078   3.274   7.221
16145TIP3    H248313   0.201   3.362   7.211
16146TIP3   OH248314   9.495   8.532   5.047
16146TIP3    H148315   9.422   8.501   4.993
16146TIP3    H248316   9.572   8.486   5.012
16147TIP3   OH248317   0.228   5.704   5.801
16147TIP3    H148318   0.198   5.630   5.853
16147TIP3    H248319   0.151   5.761   5.795
16148TIP3   OH248320   6.100   7.498   2.150
16148TIP3    H148321   6.127   7.588   2.136
16148TIP3    H248322   6.172   7.445   2.116
16149TIP3   OH248323   1.722   0.638   2.213
16149TIP3    H148324   1.721   0.556   2.262
16149TIP3    H248325   1.638   0.640   2.169
16150TIP3   OH248326   2.156   6.323   6.434
16150TIP3    H148327   2.127   6.410   6.461
16150TIP3    H248328   2.090   6.294   6.371
16151TIP3   OH248329   3.802   3.916   6.140
16151TIP3    H148330   3.819   3.996   6.091
16151TIP3    H248331   3.882   3.864   6.130
16152TIP3   OH248332   0.680   0.570   7.763
16152TIP3    H148333   0.671   0.565   7.668
16152TIP3    H248334   0.710   0.660   7.780
16153TIP3   OH248335   8.643   5.611   5.452
16153TIP3    H148336   8.673   5.589   5.540
16153TIP3    H248337   8.551   5.636   5.463
16154TIP3   OH248338   4.516   8.584   1.228
16154TIP3    H148339   4.442   8.562   1.284
16154TIP3    H248340   4.507   8.526   1.153
16155TIP3   OH248341   4.288   3.212   5.611
16155TIP3    H148342   4.376   3.194   5.646
16155TIP3    H248343   4.303   3.269   5.537
16156TIP3   OH248344   2.538   5.137   6.596
16156TIP3    H148345   2.455   5.116   6.553
16156TIP3    H248346   2.514   5.153   6.688
16157TIP3   OH248347   7.731   3.158   4.440
16157TIP3    H148348   7.797   3.219   4.406
16157TIP3    H248349   7.766   3.071   4.417
16158TIP3   OH248350   9.204   7.183   5.496
16158TIP3    H148351   9.281   7.133   5.468
16158TIP3    H248352   9.226   7.213   5.584
16159TIP3   OH248353   0.372   7.903   7.441
16159TIP3    H148354   0.434   7.913   7.369
16159TIP3    H248355   0.286   7.920   7.402
16160TIP3   OH248356   3.702   8.579   0.130
16160TIP3    H148357   3.716   8.663   0.086
16160TIP3    H248358   3.741   8.514   0.073
16161TIP3   OH248359   0.599   5.540   3.365
16161TIP3    H148360   0.598   5.493   3.448
16161TIP3    H248361   0.664   5.493   3.312
16162TIP3   OH248362   1.168   2.374   1.258
16162TIP3    H148363   1.142   2.457   1.220
16162TIP3    H248364   1.250   2.351   1.213
16163TIP3   OH248365   5.268   4.284   3.589
16163TIP3    H148366   5.299   4.194   3.604
16163TIP3    H248367   5.192   4.274   3.533
16164TIP3   OH248368   0.692   2.800   6.469
16164TIP3    H148369   0.665   2.846   6.390
16164TIP3    H248370   0.611   2.789   6.519
16165TIP3   OH248371   1.457   3.179   0.001
16165TIP3    H148372   1.437   3.268   0.032
16165TIP3    H248373   1.527   3.149   0.059
16166TIP3   OH248374   9.542   6.778   0.442
16166TIP3    H148375   9.569   6.714   0.507
16166TIP3    H248376   9.466   6.822   0.481
16167TIP3   OH248377   5.914   3.019   3.885
16167TIP3    H148378   5.909   3.111   3.910
16167TIP3    H248379   6.006   3.006   3.860
16168TIP3   OH248380   4.253   7.964   7.362
16168TIP3    H148381   4.201   8.043   7.381
16168TIP3    H248382   4.193   7.891   7.379
16169TIP3   OH248383   7.811   8.250   0.206
16169TIP3    H148384   7.760   8.327   0.229
16169TIP3    H248385   7.872   8.239   0.280
16170TIP3   OH248386   7.235   3.597   1.113
16170TIP3    H148387   7.152   3.636   1.142
16170TIP3    H248388   7.291   3.671   1.094
16171TIP3   OH248389   5.235   7.379   0.272
16171TIP3    H148390   5.261   7.471   0.276
16171TIP3    H248391   5.148   7.376   0.312
16172TIP3   OH248392   8.730   7.708   2.476
16172TIP3    H148393   8.711   7.771   2.406
16172TIP3    H248394   8.806   7.743   2.521
16173TIP3   OH248395   3.636   0.233   6.412
16173TIP3    H148396   3.679   0.149   6.429
16173TIP3    H248397   3.612   0.265   6.499
16174TIP3   OH248398   1.451   5.964   0.905
16174TIP3    H148399   1.511   5.999   0.971
16174TIP3    H248400   1.382   5.921   0.956
16175TIP3   OH248401   4.764   3.143   3.731
16175TIP3    H148402   4.729   3.068   3.779
16175TIP3    H248403   4.830   3.180   3.790
16176TIP3   OH248404   2.395   7.873   4.718
16176TIP3    H148405   2.309   7.864   4.760
16176TIP3    H248406   2.386   7.950   4.661
16177TIP3   OH248407   1.043   5.122   6.394
16177TIP3    H148408   0.953   5.105   6.420
16177TIP3    H248409   1.082   5.167   6.469
16178TIP3   OH248410   2.137   7.272   0.774
16178TIP3    H148411   2.113   7.220   0.850
16178TIP3    H248412   2.166   7.208   0.709
16179TIP3   OH248413   7.947   2.247   3.563
16179TIP3    H148414   7.979   2.310   3.499
16179TIP3    H248415   7.853   2.241   3.545
16180TIP3   OH248416   4.425   3.609   2.659
16180TIP3    H148417   4.477   3.552   2.716
16180TIP3    H248418   4.467   3.602   2.573
16181TIP3   OH248419   3.656   7.517   0.898
16181TIP3    H148420   3.628   7.460   0.970
16181TIP3    H248421   3.751   7.509   0.897
16182TIP3   OH248422   5.437   4.045   3.593
16182TIP3    H148423   5.493   4.116   3.563
16182TIP3    H248424   5.456   3.972   3.533
16183TIP3   OH248425   6.251   7.500   3.609
16183TIP3    H148426   6.314   7.487   3.680
16183TIP3    H248427   6.305   7.508   3.531
16184TIP3   OH248428   1.386   0.337   0.791
16184TIP3    H148429   1.351   0.389   0.718
16184TIP3    H248430   1.312   0.284   0.820
16185TIP3   OH248431   0.463   5.734   3.060
16185TIP3    H148432   0.549   5.693   3.062
16185TIP3    H248433   0.453   5.772   3.148
16186TIP3   OH248434   3.301   4.711   2.146
16186TIP3    H148435   3.293   4.680   2.236
16186TIP3    H248436   3.227   4.771   2.134
16187TIP3   OH248437   4.805   8.454   6.091
16187TIP3    H148438   4.818   8.493   6.177
16187TIP3    H248439   4.764   8.524   6.040
16188TIP3   OH248440   0.235   1.214   6.263
16188TIP3    H148441   0.249   1.135   6.314
16188TIP3    H248442   0.322   1.253   6.253
16189TIP3   OH248443   5.284   2.123   4.708
16189TIP3    H148444   5.194   2.156   4.717
16189TIP3    H248445   5.338   2.189   4.752
16190TIP3   OH248446   0.048   7.107   2.819
16190TIP3    H148447   0.083   7.088   2.732
16190TIP3    H248448   0.118   7.155   2.863
16191TIP3   OH248449   9.099   7.666   2.181
16191TIP3    H148450   9.153   7.597   2.143
16191TIP3    H248451   9.123   7.666   2.274
16192TIP3   OH248452   8.788   5.925   3.140
16192TIP3    H148453   8.745   5.987   3.199
16192TIP3    H248454   8.716   5.876   3.101
16193TIP3   OH248455   6.315   5.406   2.676
16193TIP3    H148456   6.315   5.327   2.622
16193TIP3    H248457   6.379   5.388   2.745
16194TIP3   OH248458   8.830   4.618   1.312
16194TIP3    H148459   8.798   4.659   1.231
16194TIP3    H248460   8.848   4.690   1.371
16195TIP3   OH248461   7.372   2.173   6.333
16195TIP3    H148462   7.392   2.162   6.426
16195TIP3    H248463   7.342   2.086   6.305
16196TIP3   OH248464   0.307   0.363   0.867
16196TIP3    H148465   0.222   0.340   0.830
16196TIP3    H248466   0.288   0.386   0.958
16197TIP3   OH248467   6.020   7.243   4.423
16197TIP3    H148468   6.085   7.292   4.372
16197TIP3    H248469   5.970   7.311   4.469
16198TIP3   OH248470   3.887   4.525   2.549
16198TIP3    H148471   3.913   4.565   2.632
16198TIP3    H248472   3.903   4.431   2.561
16199TIP3   OH248473   6.015   6.634   5.108
16199TIP3    H148474   6.106   6.652   5.088
16199TIP3    H248475   6.005   6.662   5.199
16200TIP3   OH248476   8.311   4.612   1.460
16200TIP3    H148477   8.309   4.620   1.365
16200TIP3    H248478   8.267   4.529   1.479
16201TIP3   OH248479   8.816   2.126   0.906
16201TIP3    H148480   8.846   2.037   0.924
16201TIP3    H248481   8.809   2.167   0.992
16202TIP3   OH248482   7.931   1.220   0.351
16202TIP3    H148483   7.909   1.312   0.345
16202TIP3    H248484   7.994   1.206   0.280
16203TIP3   OH248485   4.378   1.614   4.689
16203TIP3    H148486   4.459   1.665   4.691
16203TIP3    H248487   4.377   1.566   4.771
16204TIP3   OH248488   7.304   5.874   6.164
16204TIP3    H148489   7.260   5.874   6.249
16204TIP3    H248490   7.281   5.959   6.125
16205TIP3   OH248491   7.210   4.771   3.471
16205TIP3    H148492   7.213   4.694   3.527
16205TIP3    H248493   7.290   4.767   3.419
16206TIP3   OH248494   7.792   0.760   7.635
16206TIP3    H148495   7.745   0.680   7.657
16206TIP3    H248496   7.796   0.810   7.716
16207TIP3   OH248497   0.932   4.362   6.962
16207TIP3    H148498   0.838   4.364   6.980
16207TIP3    H248499   0.969   4.307   7.031
16208TIP3   OH248500   2.012   0.362   1.770
16208TIP3    H148501   2.009   0.425   1.842
16208TIP3    H248502   1.928   0.316   1.775
16209TIP3   OH248503   2.202   2.001   6.679
16209TIP3    H148504   2.228   1.981   6.589
16209TIP3    H248505   2.240   2.087   6.696
16210TIP3   OH248506   4.262   5.285   7.608
16210TIP3    H148507   4.188   5.339   7.635
16210TIP3    H248508   4.231   5.239   7.530
16211TIP3   OH248509   5.000   3.340   0.813
16211TIP3    H148510   5.092   3.332   0.789
16211TIP3    H248511   4.953   3.330   0.730
16212TIP3   OH248512   7.775   5.989   3.902
16212TIP3    H148513   7.786   6.081   3.877
16212TIP3    H248514   7.853   5.946   3.867
16213TIP3   OH248515   6.023   2.891   2.580
16213TIP3    H148516   5.961   2.895   2.508
16213TIP3    H248517   6.069   2.807   2.567
16214TIP3   OH248518   0.817   5.269   4.066
16214TIP3    H148519   0.751   5.338   4.067
16214TIP3    H248520   0.769   5.190   4.092
16215TIP3   OH248521   1.852   6.340   1.633
16215TIP3    H148522   1.803   6.259   1.648
16215TIP3    H248523   1.943   6.311   1.624
16216TIP3   OH248524   4.439   7.066   1.233
16216TIP3    H148525   4.497   7.079   1.158
16216TIP3    H248526   4.464   7.135   1.294
16217TIP3   OH248527   3.908   5.258   4.574
16217TIP3    H148528   3.877   5.170   4.596
16217TIP3    H248529   3.866   5.278   4.490
16218TIP3   OH248530   7.332   2.912   1.949
16218TIP3    H148531   7.240   2.936   1.939
16218TIP3    H248532   7.379   2.979   1.899
16219TIP3   OH248533   8.814   7.813   6.569
16219TIP3    H148534   8.887   7.862   6.531
16219TIP3    H248535   8.743   7.876   6.574
16220TIP3   OH248536   5.117   8.222   0.281
16220TIP3    H148537   5.210   8.208   0.261
16220TIP3    H248538   5.087   8.281   0.211
16221TIP3   OH248539   5.620   6.335   4.524
16221TIP3    H148540   5.713   6.356   4.528
16221TIP3    H248541   5.590   6.373   4.442
16222TIP3   OH248542   7.851   6.961   1.337
16222TIP3    H148543   7.861   6.930   1.427
16222TIP3    H248544   7.771   6.918   1.306
16223TIP3   OH248545   9.549   8.593   0.746
16223TIP3    H148546   9.510   8.549   0.670
16223TIP3    H248547   9.608   8.658   0.707
16224TIP3   OH248548   1.337   0.540   1.618
16224TIP3    H148549   1.284   0.469   1.581
16224TIP3    H248550   1.427   0.507   1.612
16225TIP3   OH248551   9.221   3.681   4.409
16225TIP3    H148552   9.213   3.599   4.360
16225TIP3    H248553   9.274   3.737   4.353
16226TIP3   OH248554   0.190   0.102   3.005
16226TIP3    H148555   0.219   0.175   3.059
16226TIP3    H248556   0.189   0.137   2.916
16227TIP3   OH248557   3.879   8.000   7.375
16227TIP3    H148558   3.916   8.084   7.403
16227TIP3    H248559   3.873   7.948   7.455
16228TIP3   OH248560   1.372   4.338   6.990
16228TIP3    H148561   1.336   4.407   6.934
16228TIP3    H248562   1.323   4.260   6.967
16229TIP3   OH248563   8.123   6.589   2.137
16229TIP3    H148564   8.111   6.502   2.176
16229TIP3    H248565   8.048   6.599   2.079
16230TIP3   OH248566   0.563   0.288   1.516
16230TIP3    H148567   0.623   0.261   1.585
16230TIP3    H248568   0.489   0.328   1.562
16231TIP3   OH248569   1.195   5.770   6.783
16231TIP3    H148570   1.147   5.724   6.714
16231TIP3    H248571   1.214   5.702   6.848
16232TIP3   OH248572   2.329   6.697   4.362
16232TIP3    H148573   2.268   6.737   4.424
16232TIP3    H248574   2.290   6.612   4.341
16233TIP3   OH248575   1.439   7.956   0.043
16233TIP3    H148576   1.389   7.939   0.123
16233TIP3    H248577   1.442   8.051   0.036
16234TIP3   OH248578   7.467   2.771   5.157
16234TIP3    H148579   7.374   2.788   5.168
16234TIP3    H248580   7.505   2.790   5.242
16235TIP3   OH248581   7.014   0.807   1.882
16235TIP3    H148582   7.011   0.900   1.906
16235TIP3    H248583   6.924   0.777   1.890
16236TIP3   OH248584   1.716   6.596   0.602
16236TIP3    H148585   1.778   6.523   0.591
16236TIP3    H248586   1.729   6.650   0.525
16237TIP3   OH248587   4.962   7.717   4.876
16237TIP3    H148588   5.001   7.691   4.793
16237TIP3    H248589   4.922   7.803   4.858
16238TIP3   OH248590   8.459   5.318   4.199
16238TIP3    H148591   8.477   5.255   4.269
16238TIP3    H248592   8.484   5.403   4.235
16239TIP3   OH248593   6.871   8.353   1.102
16239TIP3    H148594   6.888   8.285   1.168
16239TIP3    H248595   6.955   8.399   1.093
16240TIP3   OH248596   6.189   6.539   6.127
16240TIP3    H148597   6.151   6.615   6.170
16240TIP3    H248598   6.156   6.464   6.176
16241TIP3   OH248599   2.018   7.028   5.377
16241TIP3    H148600   2.081   7.040   5.447
16241TIP3    H248601   2.026   6.935   5.354
16242TIP3   OH248602   0.845   5.053   6.141
16242TIP3    H148603   0.887   4.968   6.151
16242TIP3    H248604   0.915   5.111   6.112
16243TIP3   OH248605   4.112   1.893   2.591
16243TIP3    H148606   4.026   1.855   2.611
16243TIP3    H248607   4.174   1.821   2.605
16244TIP3   OH248608   7.687   6.814   4.807
16244TIP3    H148609   7.635   6.748   4.760
16244TIP3    H248610   7.752   6.763   4.855
16245TIP3   OH248611   1.124   7.833   6.019
16245TIP3    H148612   1.060   7.868   5.957
16245TIP3    H248613   1.135   7.742   5.993
16246TIP3   OH248614   9.362   2.020   4.137
16246TIP3    H148615   9.450   1.992   4.112
16246TIP3    H248616   9.304   1.976   4.075
16247TIP3   OH248617   6.513   6.994   4.220
16247TIP3    H148618   6.561   6.920   4.181
16247TIP3    H248619   6.444   6.953   4.272
16248TIP3   OH248620   4.250   4.536   6.080
16248TIP3    H148621   4.206   4.604   6.028
16248TIP3    H248622   4.182   4.507   6.141
16249TIP3   OH248623   6.511   2.778   5.636
16249TIP3    H148624   6.470   2.780   5.549
16249TIP3    H248625   6.596   2.819   5.622
16250TIP3   OH248626   6.000   4.387   4.993
16250TIP3    H148627   5.909   4.414   4.978
16250TIP3    H248628   6.011   4.310   4.937
16251TIP3   OH248629   4.463   4.362   6.503
16251TIP3    H148630   4.420   4.393   6.583
16251TIP3    H248631   4.556   4.356   6.528
16252TIP3   OH248632   6.259   6.351   3.896
16252TIP3    H148633   6.220   6.437   3.911
16252TIP3    H248634   6.335   6.349   3.954
16253TIP3   OH248635   7.608   6.187   6.685
16253TIP3    H148636   7.537   6.199   6.622
16253TIP3    H248637   7.568   6.203   6.770
16254TIP3   OH248638   2.938   2.898   7.432
16254TIP3    H148639   2.936   2.936   7.344
16254TIP3    H248640   2.992   2.820   7.423
16255TIP3   OH248641   7.046   0.325   4.266
16255TIP3    H148642   7.050   0.320   4.361
16255TIP3    H248643   7.066   0.417   4.247
16256TIP3   OH248644   4.675   5.095   6.920
16256TIP3    H148645   4.586   5.130   6.913
16256TIP3    H248646   4.727   5.146   6.858
16257TIP3   OH248647   9.512   3.910   6.273
16257TIP3    H148648   9.451   3.953   6.213
16257TIP3    H248649   9.594   3.905   6.224
16258TIP3   OH248650   4.505   7.112   0.088
16258TIP3    H148651   4.480   7.068   0.007
16258TIP3    H248652   4.576   7.171   0.063
16259TIP3   OH248653   7.166   1.829   0.377
16259TIP3    H148654   7.216   1.747   0.373
16259TIP3    H248655   7.159   1.856   0.286
16260TIP3   OH248656   2.567   3.131   1.449
16260TIP3    H148657   2.605   3.174   1.526
16260TIP3    H248658   2.479   3.168   1.442
16261TIP3   OH248659   5.954   6.036   5.972
16261TIP3    H148660   5.998   6.085   5.902
16261TIP3    H248661   6.021   6.027   6.040
16262TIP3   OH248662   2.086   3.611   3.372
16262TIP3    H148663   2.125   3.667   3.304
16262TIP3    H248664   2.158   3.592   3.431
16263TIP3   OH248665   0.545   2.564   1.344
16263TIP3    H148666   0.450   2.559   1.344
16263TIP3    H248667   0.569   2.571   1.436
16264TIP3   OH248668   3.513   3.318   6.781
16264TIP3    H148669   3.555   3.264   6.715
16264TIP3    H248670   3.577   3.386   6.801
16265TIP3   OH248671   1.592   3.498   7.526
16265TIP3    H148672   1.549   3.571   7.482
16265TIP3    H248673   1.526   3.463   7.585
16266TIP3   OH248674   1.189   5.869   3.185
16266TIP3    H148675   1.169   5.957   3.156
16266TIP3    H248676   1.280   5.874   3.217
16267TIP3   OH248677   5.614   6.872   3.073
16267TIP3    H148678   5.621   6.900   3.164
16267TIP3    H248679   5.532   6.912   3.043
16268TIP3   OH248680   8.855   8.291   3.651
16268TIP3    H148681   8.942   8.328   3.665
16268TIP3    H248682   8.801   8.366   3.624
16269TIP3   OH248683   5.856   7.820   7.035
16269TIP3    H148684   5.876   7.914   7.035
16269TIP3    H248685   5.787   7.811   7.100
16270TIP3   OH248686   3.306   7.276   6.137
16270TIP3    H148687   3.391   7.318   6.122
16270TIP3    H248688   3.319   7.185   6.108
16271TIP3   OH248689   1.055   2.086   7.616
16271TIP3    H148690   1.020   2.134   7.691
16271TIP3    H248691   1.014   2.128   7.540
16272TIP3   OH248692   8.431   4.306   3.285
16272TIP3    H148693   8.459   4.301   3.377
16272TIP3    H248694   8.340   4.336   3.290
16273TIP3   OH248695   0.342   6.684   3.347
16273TIP3    H148696   0.407   6.700   3.278
16273TIP3    H248697   0.369   6.600   3.385
16274TIP3   OH248698   9.148   1.771   4.204
16274TIP3    H148699   9.097   1.706   4.251
16274TIP3    H248700   9.180   1.831   4.272
16275TIP3   OH248701   1.012   8.452   7.111
16275TIP3    H148702   1.071   8.472   7.038
16275TIP3    H248703   0.943   8.518   7.104
16276TIP3   OH248704   2.735   3.791   4.383
16276TIP3    H148705   2.689   3.709   4.405
16276TIP3    H248706   2.813   3.763   4.336
16277TIP3   OH248707   5.968   1.618   7.004
16277TIP3    H148708   6.013   1.651   7.082
16277TIP3    H248709   6.039   1.592   6.945
16278TIP3   OH248710   1.459   6.840   5.919
16278TIP3    H148711   1.445   6.785   5.842
16278TIP3    H248712   1.371   6.861   5.950
16279TIP3   OH248713   9.444   8.315   2.803
16279TIP3    H148714   9.417   8.226   2.827
16279TIP3    H248715   9.491   8.346   2.881
16280TIP3   OH248716   4.430   3.856   3.329
16280TIP3    H148717   4.443   3.949   3.346
16280TIP3    H248718   4.501   3.833   3.269
16281TIP3   OH248719   9.335   0.925   1.077
16281TIP3    H148720   9.354   0.866   1.150
16281TIP3    H248721   9.302   1.005   1.119
16282TIP3   OH248722   6.214   2.614   0.095
16282TIP3    H148723   6.209   2.629   0.190
16282TIP3    H248724   6.150   2.545   0.078
16283TIP3   OH248725   6.052   2.779   6.962
16283TIP3    H148726   5.975   2.808   6.914
16283TIP3    H248727   6.021   2.708   7.019
16284TIP3   OH248728   9.380   1.226   2.887
16284TIP3    H148729   9.317   1.155   2.874
16284TIP3    H248730   9.437   1.222   2.810
16285TIP3   OH248731   4.225   3.745   5.658
16285TIP3    H148732   4.256   3.660   5.688
16285TIP3    H248733   4.221   3.737   5.563
16286TIP3   OH248734   8.673   5.704   0.222
16286TIP3    H148735   8.729   5.762   0.171
16286TIP3    H248736   8.584   5.728   0.195
16287TIP3   OH248737   5.984   7.790   2.285
16287TIP3    H148738   5.937   7.741   2.353
16287TIP3    H248739   5.947   7.878   2.290
16288TIP3   OH248740   5.729   5.450   4.247
16288TIP3    H148741   5.709   5.528   4.298
16288TIP3    H248742   5.824   5.453   4.234
16289TIP3   OH248743   2.355   6.454   7.740
16289TIP3    H148744   2.413   6.388   7.700
16289TIP3    H248745   2.383   6.457   7.832
16290TIP3   OH248746   9.292   8.599   7.121
16290TIP3    H148747   9.335   8.682   7.098
16290TIP3    H248748   9.352   8.532   7.091
16291TIP3   OH248749   1.118   1.006   1.345
16291TIP3    H148750   1.164   0.971   1.421
16291TIP3    H248751   1.111   0.931   1.285
16292TIP3   OH248752   4.061   1.741   2.123
16292TIP3    H148753   4.069   1.646   2.125
16292TIP3    H248754   4.018   1.764   2.205
16293TIP3   OH248755   5.189   0.784   5.443
16293TIP3    H148756   5.236   0.854   5.398
16293TIP3    H248757   5.125   0.829   5.498
16294TIP3   OH248758   6.996   3.396   7.333
16294TIP3    H148759   7.023   3.307   7.359
16294TIP3    H248760   6.903   3.388   7.314
16295TIP3   OH248761   6.396   0.364   7.700
16295TIP3    H148762   6.405   0.269   7.691
16295TIP3    H248763   6.346   0.375   7.781
16296TIP3   OH248764   7.657   1.424   2.957
16296TIP3    H148765   7.695   1.483   2.892
16296TIP3    H248766   7.574   1.397   2.918
16297TIP3   OH248767   2.449   5.295   7.662
16297TIP3    H148768   2.518   5.351   7.699
16297TIP3    H248769   2.370   5.350   7.664
16298TIP3   OH248770   2.906   4.247   2.248
16298TIP3    H148771   2.936   4.334   2.223
16298TIP3    H248772   2.965   4.187   2.203
16299TIP3   OH248773   2.265   1.241   5.572
16299TIP3    H148774   2.285   1.276   5.485
16299TIP3    H248775   2.181   1.282   5.595
16300TIP3   OH248776   8.762   6.750   5.303
16300TIP3    H148777   8.802   6.663   5.296
16300TIP3    H248778   8.723   6.765   5.217
16301TIP3   OH248779   7.661   8.300   5.841
16301TIP3    H148780   7.645   8.345   5.758
16301TIP3    H248781   7.716   8.225   5.818
16302TIP3   OH248782   0.263   7.733   2.532
16302TIP3    H148783   0.295   7.679   2.604
16302TIP3    H248784   0.320   7.810   2.532
16303TIP3   OH248785   7.856   5.796   3.029
16303TIP3    H148786   7.781   5.758   2.984
16303TIP3    H248787   7.920   5.724   3.034
16304TIP3   OH248788   8.414   4.387   0.646
16304TIP3    H148789   8.390   4.432   0.565
16304TIP3    H248790   8.387   4.296   0.633
16305TIP3   OH248791   3.621   2.611   0.494
16305TIP3    H148792   3.705   2.581   0.528
16305TIP3    H248793   3.568   2.629   0.572
16306TIP3   OH248794   6.867   0.602   7.392
16306TIP3    H148795   6.917   0.577   7.314
16306TIP3    H248796   6.833   0.519   7.426
16307TIP3   OH248797   7.493   8.781   1.858
16307TIP3    H148798   7.582   8.817   1.849
16307TIP3    H248799   7.465   8.809   1.945
16308TIP3   OH248800   6.083   5.749   0.382
16308TIP3    H148801   6.047   5.762   0.470
16308TIP3    H248802   6.151   5.816   0.373
16309TIP3   OH248803   6.382   2.824   0.085
16309TIP3    H148804   6.324   2.749   0.100
16309TIP3    H248805   6.342   2.870   0.011
16310TIP3   OH248806   7.609   2.057   0.277
16310TIP3    H148807   7.558   2.013   0.208
16310TIP3    H248808   7.569   2.144   0.284
16311TIP3   OH248809   4.123   6.067   7.201
16311TIP3    H148810   4.211   6.042   7.174
16311TIP3    H248811   4.068   6.046   7.126
16312TIP3   OH248812   7.896   1.175   4.813
16312TIP3    H148813   7.952   1.231   4.867
16312TIP3    H248814   7.949   1.097   4.796
16313TIP3   OH248815   1.925   7.735   6.789
16313TIP3    H148816   2.000   7.789   6.817
16313TIP3    H248817   1.909   7.762   6.699
16314TIP3   OH248818   3.384   1.305   2.211
16314TIP3    H148819   3.352   1.395   2.219
16314TIP3    H248820   3.471   1.308   2.252
16315TIP3   OH248821   5.804   2.725   6.033
16315TIP3    H148822   5.729   2.716   5.974
16315TIP3    H248823   5.869   2.663   6.000
16316TIP3   OH248824   2.607   5.281   5.573
16316TIP3    H148825   2.634   5.295   5.664
16316TIP3    H248826   2.570   5.193   5.572
16317TIP3   OH248827   1.086   7.875   1.696
16317TIP3    H148828   1.169   7.832   1.673
16317TIP3    H248829   1.075   7.858   1.789
16318TIP3   OH248830   7.757   2.097   2.815
16318TIP3    H148831   7.789   2.111   2.725
16318TIP3    H248832   7.828   2.051   2.859
16319TIP3   OH248833   0.390   2.684   4.177
16319TIP3    H148834   0.447   2.644   4.112
16319TIP3    H248835   0.303   2.684   4.137
16320TIP3   OH248836   8.089   0.683   3.988
16320TIP3    H148837   8.167   0.728   4.022
16320TIP3    H248838   8.105   0.678   3.894
16321TIP3   OH248839   6.750   5.983   6.791
16321TIP3    H148840   6.708   5.899   6.771
16321TIP3    H248841   6.677   6.042   6.810
16322TIP3   OH248842   4.459   4.444   4.271
16322TIP3    H148843   4.492   4.422   4.358
16322TIP3    H248844   4.392   4.379   4.254
16323TIP3   OH248845   3.881   3.394   5.283
16323TIP3    H148846   3.858   3.476   5.326
16323TIP3    H248847   3.977   3.395   5.278
16324TIP3   OH248848   3.936   1.899   3.426
16324TIP3    H148849   3.868   1.858   3.479
16324TIP3    H248850   4.016   1.888   3.476
16325TIP3   OH248851   6.165   6.409   2.880
16325TIP3    H148852   6.177   6.492   2.928
16325TIP3    H248853   6.254   6.378   2.864
16326TIP3   OH248854   7.185   8.985   4.585
16326TIP3    H148855   7.193   8.963   4.678
16326TIP3    H248856   7.250   8.930   4.541
16327TIP3   OH248857   4.015   2.903   5.271
16327TIP3    H148858   3.932   2.949   5.276
16327TIP3    H248859   4.017   2.867   5.182
16328TIP3   OH248860   2.472   5.942   3.870
16328TIP3    H148861   2.498   6.033   3.854
16328TIP3    H248862   2.485   5.898   3.786
16329TIP3   OH248863   1.431   2.360   2.867
16329TIP3    H148864   1.406   2.305   2.793
16329TIP3    H248865   1.365   2.430   2.868
16330TIP3   OH248866   4.244   8.910   0.211
16330TIP3    H148867   4.174   8.975   0.204
16330TIP3    H248868   4.308   8.951   0.269
16331TIP3   OH248869   0.483   3.147   3.920
16331TIP3    H148870   0.434   3.113   3.845
16331TIP3    H248871   0.511   3.070   3.968
16332TIP3   OH248872   6.751   5.566   0.016
16332TIP3    H148873   6.696   5.582   0.092
16332TIP3    H248874   6.731   5.476  -0.010
16333TIP3   OH248875   9.045   0.254   5.576
16333TIP3    H148876   9.099   0.301   5.640
16333TIP3    H248877   9.046   0.163   5.606
16334TIP3   OH248878   4.188   6.399   7.003
16334TIP3    H148879   4.231   6.341   7.065
16334TIP3    H248880   4.111   6.349   6.973
16335TIP3   OH248881   1.995   2.609   6.077
16335TIP3    H148882   2.019   2.576   5.991
16335TIP3    H248883   2.029   2.698   6.080
16336TIP3   OH248884   2.756   3.734   6.847
16336TIP3    H148885   2.672   3.773   6.825
16336TIP3    H248886   2.820   3.803   6.830
16337TIP3   OH248887   8.865   2.821   2.698
16337TIP3    H148888   8.909   2.787   2.776
16337TIP3    H248889   8.933   2.822   2.631
16338TIP3   OH248890   7.610   6.164   2.363
16338TIP3    H148891   7.545   6.119   2.418
16338TIP3    H248892   7.589   6.256   2.372
16339TIP3   OH248893   4.655   7.644   7.515
16339TIP3    H148894   4.608   7.561   7.508
16339TIP3    H248895   4.682   7.649   7.607
16340TIP3   OH248896   8.747   6.065   7.017
16340TIP3    H148897   8.796   6.122   7.077
16340TIP3    H248898   8.813   6.032   6.956
16341TIP3   OH248899   8.365   3.243   0.812
16341TIP3    H148900   8.302   3.272   0.878
16341TIP3    H248901   8.429   3.191   0.861
16342TIP3   OH248902   1.777   2.942   7.575
16342TIP3    H148903   1.872   2.946   7.562
16342TIP3    H248904   1.760   2.851   7.598
16343TIP3   OH248905   3.524   6.422   5.008
16343TIP3    H148906   3.521   6.376   5.092
16343TIP3    H248907   3.436   6.459   4.999
16344TIP3   OH248908   3.685   3.230   1.122
16344TIP3    H148909   3.607   3.176   1.138
16344TIP3    H248910   3.651   3.317   1.104
16345TIP3   OH248911   7.564   1.993   1.124
16345TIP3    H148912   7.591   1.952   1.041
16345TIP3    H248913   7.531   2.079   1.098
16346TIP3   OH248914   0.831   4.480   7.716
16346TIP3    H148915   0.914   4.502   7.674
16346TIP3    H248916   0.822   4.543   7.787
16347TIP3   OH248917   3.308   6.785   0.892
16347TIP3    H148918   3.230   6.739   0.861
16347TIP3    H248919   3.274   6.845   0.960
16348TIP3   OH248920   0.530   7.038   3.331
16348TIP3    H148921   0.570   6.954   3.310
16348TIP3    H248922   0.442   7.033   3.296
16349TIP3   OH248923   4.014   2.882   3.397
16349TIP3    H148924   4.044   2.877   3.488
16349TIP3    H248925   4.055   2.962   3.363
16350TIP3   OH248926   4.725   3.772   2.446
16350TIP3    H148927   4.804   3.822   2.426
16350TIP3    H248928   4.741   3.735   2.533
16351TIP3   OH248929   6.932   7.485   3.637
16351TIP3    H148930   6.862   7.543   3.667
16351TIP3    H248931   6.911   7.468   3.545
16352TIP3   OH248932   7.332   6.922   0.359
16352TIP3    H148933   7.323   6.988   0.428
16352TIP3    H248934   7.426   6.909   0.350
16353TIP3   OH248935   1.774   4.144   2.859
16353TIP3    H148936   1.819   4.060   2.860
16353TIP3    H248937   1.681   4.121   2.849
16354TIP3   OH248938   9.471   2.664   0.430
16354TIP3    H148939   9.491   2.685   0.338
16354TIP3    H248940   9.387   2.620   0.427
16355TIP3   OH248941   1.562   6.388   2.541
16355TIP3    H148942   1.491   6.329   2.568
16355TIP3    H248943   1.590   6.354   2.456
16356TIP3   OH248944   9.170   1.045   1.331
16356TIP3    H148945   9.111   1.119   1.343
16356TIP3    H248946   9.225   1.045   1.409
16357TIP3   OH248947   9.372   2.416   7.508
16357TIP3    H148948   9.352   2.506   7.482
16357TIP3    H248949   9.293   2.367   7.483
16358TIP3   OH248950   6.844   5.046   6.793
16358TIP3    H148951   6.842   5.137   6.822
16358TIP3    H248952   6.904   5.045   6.719
16359TIP3   OH248953   1.434   2.460   3.231
16359TIP3    H148954   1.420   2.393   3.164
16359TIP3    H248955   1.471   2.534   3.183
16360TIP3   OH248956   6.321   0.422   0.325
16360TIP3    H148957   6.357   0.450   0.241
16360TIP3    H248958   6.309   0.328   0.316
16361TIP3   OH248959   3.804   1.803   7.444
16361TIP3    H148960   3.713   1.811   7.471
16361TIP3    H248961   3.854   1.845   7.513
16362TIP3   OH248962   6.545   3.016   0.510
16362TIP3    H148963   6.534   2.923   0.528
16362TIP3    H248964   6.527   3.024   0.416
16363TIP3   OH248965   8.782   7.132   3.807
16363TIP3    H148966   8.834   7.198   3.762
16363TIP3    H248967   8.788   7.055   3.750
16364TIP3   OH248968   8.736   6.614   2.922
16364TIP3    H148969   8.701   6.703   2.924
16364TIP3    H248970   8.788   6.606   3.002
16365TIP3   OH248971   0.935   3.375   2.297
16365TIP3    H148972   0.890   3.291   2.287
16365TIP3    H248973   0.906   3.427   2.221
16366TIP3   OH248974   1.229   6.317   0.076
16366TIP3    H148975   1.212   6.238   0.127
16366TIP3    H248976   1.222   6.388   0.139
16367TIP3   OH248977   5.458   0.124   4.428
16367TIP3    H148978   5.410   0.063   4.483
16367TIP3    H248979   5.550   0.109   4.450
16368TIP3   OH248980   7.522   7.320   7.707
16368TIP3    H148981   7.579   7.355   7.775
16368TIP3    H248982   7.573   7.250   7.667
16369TIP3   OH248983   8.665   2.425   1.352
16369TIP3    H148984   8.671   2.468   1.267
16369TIP3    H248985   8.619   2.488   1.408
16370TIP3   OH248986   6.474   8.117   4.579
16370TIP3    H148987   6.550   8.088   4.530
16370TIP3    H248988   6.401   8.066   4.543
16371TIP3   OH248989   7.188   0.838   4.641
16371TIP3    H148990   7.186   0.779   4.566
16371TIP3    H248991   7.135   0.793   4.708
16372TIP3   OH248992   7.060   5.680   2.581
16372TIP3    H148993   7.096   5.694   2.493
16372TIP3    H248994   7.091   5.593   2.606
16373TIP3   OH248995   6.450   2.585   6.533
16373TIP3    H148996   6.382   2.521   6.511
16373TIP3    H248997   6.493   2.604   6.450
16374TIP3   OH248998   6.253   5.078   3.656
16374TIP3    H148999   6.237   5.171   3.669
16374TIP3    H249000   6.166   5.039   3.648
16375TIP3   OH249001   2.398   7.383   2.798
16375TIP3    H149002   2.332   7.363   2.865
16375TIP3    H249003   2.365   7.463   2.756
16376TIP3   OH249004   4.328   3.845   2.118
16376TIP3    H149005   4.311   3.825   2.210
16376TIP3    H249006   4.422   3.866   2.114
16377TIP3   OH249007   2.552   5.023   0.664
16377TIP3    H149008   2.474   4.968   0.654
16377TIP3    H249009   2.517   5.111   0.680
16378TIP3   OH249010   4.534   0.545   4.996
16378TIP3    H149011   4.485   0.626   4.985
16378TIP3    H249012   4.599   0.564   5.064
16379TIP3   OH249013   6.283   0.970   6.912
16379TIP3    H149014   6.351   1.037   6.924
16379TIP3    H249015   6.319   0.892   6.955
16380TIP3   OH249016   0.720   5.286   0.313
16380TIP3    H149017   0.690   5.215   0.371
16380TIP3    H249018   0.694   5.257   0.226
16381TIP3   OH249019   6.506   2.000   1.926
16381TIP3    H149020   6.554   1.930   1.970
16381TIP3    H249021   6.560   2.078   1.941
16382TIP3   OH249022   6.666   5.218   5.202
16382TIP3    H149023   6.665   5.299   5.151
16382TIP3    H249024   6.758   5.203   5.222
16383TIP3   OH249025   1.738   6.571   0.333
16383TIP3    H149026   1.645   6.548   0.327
16383TIP3    H249027   1.750   6.640   0.268
16384TIP3   OH249028   2.318   5.790   6.452
16384TIP3    H149029   2.317   5.875   6.409
16384TIP3    H249030   2.383   5.799   6.522
16385TIP3   OH249031   2.002   5.577   0.522
16385TIP3    H149032   2.052   5.633   0.462
16385TIP3    H249033   2.026   5.607   0.609
16386TIP3   OH249034   8.751   1.228   2.521
16386TIP3    H149035   8.677   1.242   2.580
16386TIP3    H249036   8.721   1.259   2.436
16387TIP3   OH249037   2.827   5.985   0.625
16387TIP3    H149038   2.828   5.984   0.529
16387TIP3    H249039   2.750   6.039   0.647
16388TIP3   OH249040   8.384   6.324   3.926
16388TIP3    H149041   8.401   6.392   3.861
16388TIP3    H249042   8.462   6.268   3.923
16389TIP3   OH249043   2.755   5.633   0.192
16389TIP3    H149044   2.744   5.667   0.281
16389TIP3    H249045   2.740   5.539   0.200
16390TIP3   OH249046   8.042   0.121   2.296
16390TIP3    H149047   8.070   0.112   2.205
16390TIP3    H249048   8.065   0.038   2.337
16391TIP3   OH249049   2.890   0.444   1.077
16391TIP3    H149050   2.850   0.369   1.121
16391TIP3    H249051   2.847   0.449   0.992
16392TIP3   OH249052   8.949   7.698   6.958
16392TIP3    H149053   8.865   7.730   6.993
16392TIP3    H249054   8.957   7.610   6.995
16393TIP3   OH249055   8.133   2.320   3.740
16393TIP3    H149056   8.083   2.274   3.672
16393TIP3    H249057   8.078   2.395   3.764
16394TIP3   OH249058   0.937   1.792   7.305
16394TIP3    H149059   0.974   1.785   7.393
16394TIP3    H249060   0.851   1.749   7.311
16395TIP3   OH249061   7.096   1.039   6.567
16395TIP3    H149062   7.096   1.075   6.656
16395TIP3    H249063   7.063   1.111   6.513
16396TIP3   OH249064   1.203   1.376   0.611
16396TIP3    H149065   1.110   1.368   0.632
16396TIP3    H249066   1.236   1.286   0.611
16397TIP3   OH249067   6.320   4.206   2.309
16397TIP3    H149068   6.392   4.210   2.372
16397TIP3    H249069   6.358   4.163   2.232
16398TIP3   OH249070   7.091   2.355   1.119
16398TIP3    H149071   7.150   2.417   1.076
16398TIP3    H249072   7.045   2.312   1.047
16399TIP3   OH249073   8.063   5.999   4.094
16399TIP3    H149074   8.062   5.915   4.048
16399TIP3    H249075   8.048   6.064   4.025
16400TIP3   OH249076   3.084   2.762   3.807
16400TIP3    H149077   3.063   2.849   3.774
16400TIP3    H249078   3.111   2.713   3.729
16401TIP3   OH249079   5.277   4.989   5.827
16401TIP3    H149080   5.322   5.061   5.873
16401TIP3    H249081   5.191   5.025   5.804
16402TIP3   OH249082   7.097   6.137   2.803
16402TIP3    H149083   7.149   6.057   2.802
16402TIP3    H249084   7.133   6.188   2.875
16403TIP3   OH249085   2.306   8.685   1.944
16403TIP3    H149086   2.271   8.752   2.002
16403TIP3    H249087   2.250   8.689   1.866
16404TIP3   OH249088   2.557   7.859   6.312
16404TIP3    H149089   2.545   7.872   6.406
16404TIP3    H249090   2.478   7.813   6.283
16405TIP3   OH249091   9.117   4.463   3.927
16405TIP3    H149092   9.114   4.516   3.847
16405TIP3    H249093   9.035   4.414   3.926
16406TIP3   OH249094   7.213   2.218   6.931
16406TIP3    H149095   7.257   2.145   6.975
16406TIP3    H249096   7.241   2.211   6.839
16407TIP3   OH249097   3.680   5.016   4.086
16407TIP3    H149098   3.625   4.948   4.123
16407TIP3    H249099   3.618   5.083   4.055
16408TIP3   OH249100   6.687   7.513   2.068
16408TIP3    H149101   6.777   7.534   2.095
16408TIP3    H249102   6.655   7.455   2.136
16409TIP3   OH249103   8.351   7.014   3.999
16409TIP3    H149104   8.305   7.079   4.052
16409TIP3    H249105   8.400   7.065   3.936
16410TIP3   OH249106   1.345   5.449   2.437
16410TIP3    H149107   1.398   5.385   2.390
16410TIP3    H249108   1.348   5.421   2.529
16411TIP3   OH249109   1.716   0.975   5.112
16411TIP3    H149110   1.757   1.037   5.051
16411TIP3    H249111   1.727   1.015   5.198
16412TIP3   OH249112   7.870   1.041   6.801
16412TIP3    H149113   7.956   1.018   6.768
16412TIP3    H249114   7.846   1.120   6.753
16413TIP3   OH249115   3.552   4.376   6.216
16413TIP3    H149116   3.501   4.356   6.294
16413TIP3    H249117   3.530   4.306   6.154
16414TIP3   OH249118   9.559   0.916   2.951
16414TIP3    H149119   9.474   0.934   2.992
16414TIP3    H249120   9.612   0.878   3.021
16415TIP3   OH249121   2.356   4.619   1.264
16415TIP3    H149122   2.340   4.607   1.171
16415TIP3    H249123   2.433   4.677   1.267
16416TIP3   OH249124   0.871   5.371   2.276
16416TIP3    H149125   0.816   5.336   2.346
16416TIP3    H249126   0.829   5.454   2.252
16417TIP3   OH249127   0.584   0.674   5.205
16417TIP3    H149128   0.563   0.711   5.119
16417TIP3    H249129   0.581   0.750   5.265
16418TIP3   OH249130   7.605   0.248   0.933
16418TIP3    H149131   7.677   0.194   0.901
16418TIP3    H249132   7.564   0.196   1.002
16419TIP3   OH249133   7.917   4.017   0.598
16419TIP3    H149134   7.891   4.074   0.525
16419TIP3    H249135   7.834   3.981   0.630
16420TIP3   OH249136   5.257   1.233   0.025
16420TIP3    H149137   5.175   1.279   0.039
16420TIP3    H249138   5.304   1.242   0.108
16421TIP3   OH249139   6.775   1.693   4.387
16421TIP3    H149140   6.843   1.746   4.430
16421TIP3    H249141   6.720   1.756   4.342
16422TIP3   OH249142   4.651   8.786   5.260
16422TIP3    H149143   4.644   8.764   5.167
16422TIP3    H249144   4.618   8.709   5.306
16423TIP3   OH249145   4.975   2.894   6.524
16423TIP3    H149146   5.010   2.972   6.483
16423TIP3    H249147   5.048   2.832   6.525
16424TIP3   OH249148   3.104   2.205   3.218
16424TIP3    H149149   3.178   2.178   3.273
16424TIP3    H249150   3.035   2.229   3.279
16425TIP3   OH249151   8.513   5.706   7.376
16425TIP3    H149152   8.462   5.787   7.376
16425TIP3    H249153   8.514   5.677   7.467
16426TIP3   OH249154   2.229   2.323   1.437
16426TIP3    H149155   2.289   2.250   1.424
16426TIP3    H249156   2.283   2.392   1.476
16427TIP3   OH249157   5.992   8.897   7.107
16427TIP3    H149158   5.933   8.970   7.085
16427TIP3    H249159   6.000   8.847   7.026
16428TIP3   OH249160   4.777   1.189   0.858
16428TIP3    H149161   4.750   1.221   0.771
16428TIP3    H249162   4.847   1.126   0.839
16429TIP3   OH249163   7.595   4.170   1.785
16429TIP3    H149164   7.644   4.098   1.824
16429TIP3    H249165   7.644   4.249   1.809
16430TIP3   OH249166   2.270   0.343   4.226
16430TIP3    H149167   2.187   0.341   4.178
16430TIP3    H249168   2.312   0.260   4.206
16431TIP3   OH249169   7.838   3.138   0.594
16431TIP3    H149170   7.774   3.208   0.579
16431TIP3    H249171   7.785   3.061   0.612
16432TIP3   OH249172   1.940   5.767   0.215
16432TIP3    H149173   1.890   5.690   0.243
16432TIP3    H249174   2.029   5.734   0.200
16433TIP3   OH249175   4.804   5.267   1.953
16433TIP3    H149176   4.795   5.190   2.009
16433TIP3    H249177   4.767   5.338   2.005
16434TIP3   OH249178   1.156   6.871   0.639
16434TIP3    H149179   1.207   6.806   0.590
16434TIP3    H249180   1.109   6.920   0.572
16435TIP3   OH249181   2.581   8.542   5.543
16435TIP3    H149182   2.549   8.532   5.453
16435TIP3    H249183   2.502   8.545   5.596
16436TIP3   OH249184   9.037   8.815   1.280
16436TIP3    H149185   9.079   8.835   1.196
16436TIP3    H249186   8.954   8.775   1.257
16437TIP3   OH249187   6.399   3.203   7.736
16437TIP3    H149188   6.454   3.130   7.766
16437TIP3    H249189   6.417   3.274   7.797
16438TIP3   OH249190   1.038   8.461   1.610
16438TIP3    H149191   1.099   8.431   1.677
16438TIP3    H249192   0.969   8.395   1.609
16439TIP3   OH249193   3.609   3.185   3.318
16439TIP3    H149194   3.699   3.199   3.288
16439TIP3    H249195   3.556   3.240   3.260
16440TIP3   OH249196   2.215   3.557   6.263
16440TIP3    H149197   2.228   3.604   6.181
16440TIP3    H249198   2.131   3.589   6.296
16441TIP3   OH249199   5.852   3.989   1.105
16441TIP3    H149200   5.758   3.971   1.107
16441TIP3    H249201   5.893   3.908   1.134
16442TIP3   OH249202   2.764   4.211   1.860
16442TIP3    H149203   2.735   4.217   1.951
16442TIP3    H249204   2.689   4.242   1.809
16443TIP3   OH249205   3.871   1.902   3.930
16443TIP3    H149206   3.877   1.882   4.023
16443TIP3    H249207   3.929   1.839   3.887
16444TIP3   OH249208   9.427   4.861   5.123
16444TIP3    H149209   9.512   4.830   5.090
16444TIP3    H249210   9.377   4.882   5.045
16445TIP3   OH249211   6.650   7.693   5.780
16445TIP3    H149212   6.736   7.665   5.810
16445TIP3    H249213   6.667   7.769   5.724
16446TIP3   OH249214   2.630   3.171   1.088
16446TIP3    H149215   2.721   3.144   1.098
16446TIP3    H249216   2.594   3.170   1.177
16447TIP3   OH249217   1.259   3.826   5.108
16447TIP3    H149218   1.239   3.761   5.041
16447TIP3    H249219   1.342   3.797   5.146
16448TIP3   OH249220   2.959   5.153   3.488
16448TIP3    H149221   2.893   5.207   3.446
16448TIP3    H249222   2.912   5.074   3.515
16449TIP3   OH249223   2.074   0.231   1.530
16449TIP3    H149224   2.035   0.270   1.608
16449TIP3    H249225   2.000   0.205   1.476
16450TIP3   OH249226   6.405   5.188   5.722
16450TIP3    H149227   6.357   5.191   5.639
16450TIP3    H249228   6.353   5.131   5.778
16451TIP3   OH249229   8.101   2.501   4.519
16451TIP3    H149230   8.185   2.513   4.562
16451TIP3    H249231   8.100   2.566   4.449
16452TIP3   OH249232   8.781   5.300   4.585
16452TIP3    H149233   8.825   5.378   4.619
16452TIP3    H249234   8.691   5.308   4.615
16453TIP3   OH249235   1.306   3.882   3.724
16453TIP3    H149236   1.326   3.908   3.815
16453TIP3    H249237   1.271   3.793   3.732
16454TIP3   OH249238   8.788   0.524   6.835
16454TIP3    H149239   8.835   0.588   6.782
16454TIP3    H249240   8.803   0.552   6.925
16455TIP3   OH249241   0.122   1.128   4.715
16455TIP3    H149242   0.211   1.103   4.742
16455TIP3    H249243   0.070   1.119   4.795
16456TIP3   OH249244   4.477   4.665   4.042
16456TIP3    H149245   4.386   4.697   4.050
16456TIP3    H249246   4.479   4.623   3.956
16457TIP3   OH249247   8.552   6.204   2.971
16457TIP3    H149248   8.639   6.209   2.931
16457TIP3    H249249   8.566   6.163   3.056
16458TIP3   OH249250   4.469   1.141   3.412
16458TIP3    H149251   4.456   1.057   3.368
16458TIP3    H249252   4.563   1.155   3.409
16459TIP3   OH249253   6.331   0.757   7.397
16459TIP3    H149254   6.423   0.742   7.377
16459TIP3    H249255   6.316   0.849   7.373
16460TIP3   OH249256   1.864   5.144   3.831
16460TIP3    H149257   1.922   5.092   3.775
16460TIP3    H249258   1.907   5.229   3.838
16461TIP3   OH249259   7.575   6.007   4.130
16461TIP3    H149260   7.554   5.920   4.096
16461TIP3    H249261   7.639   6.042   4.067
16462TIP3   OH249262   3.176   5.715   1.046
16462TIP3    H149263   3.212   5.747   1.129
16462TIP3    H249264   3.122   5.787   1.014
16463TIP3   OH249265   7.926   5.183   2.878
16463TIP3    H149266   7.951   5.276   2.882
16463TIP3    H249267   7.830   5.185   2.880
16464TIP3   OH249268   2.755   1.119   3.861
16464TIP3    H149269   2.711   1.065   3.796
16464TIP3    H249270   2.838   1.144   3.819
16465TIP3   OH249271   2.211   8.019   4.243
16465TIP3    H149272   2.152   7.991   4.313
16465TIP3    H249273   2.178   7.974   4.165
16466TIP3   OH249274   9.513   7.321   5.217
16466TIP3    H149275   9.532   7.334   5.124
16466TIP3    H249276   9.419   7.307   5.221
16467TIP3   OH249277   8.554   4.113   6.735
16467TIP3    H149278   8.549   4.188   6.676
16467TIP3    H249279   8.633   4.128   6.787
16468TIP3   OH249280   1.122   4.912   0.235
16468TIP3    H149281   1.104   4.865   0.154
16468TIP3    H249282   1.054   4.980   0.238
16469TIP3   OH249283   9.077   1.774   5.263
16469TIP3    H149284   9.024   1.773   5.183
16469TIP3    H249285   9.127   1.855   5.258
16470TIP3   OH249286   6.786   6.258   7.054
16470TIP3    H149287   6.756   6.167   7.058
16470TIP3    H249288   6.706   6.309   7.042
16471TIP3   OH249289   1.393   0.260   4.707
16471TIP3    H149290   1.396   0.256   4.611
16471TIP3    H249291   1.478   0.294   4.732
16472TIP3   OH249292   4.875   6.840   1.093
16472TIP3    H149293   4.870   6.906   1.024
16472TIP3    H249294   4.859   6.757   1.049
16473TIP3   OH249295   5.042   0.183   3.882
16473TIP3    H149296   5.115   0.242   3.863
16473TIP3    H249297   5.074   0.096   3.857
16474TIP3   OH249298   7.954   8.772   3.764
16474TIP3    H149299   7.933   8.860   3.731
16474TIP3    H249300   8.045   8.757   3.736
16475TIP3   OH249301   7.139   0.994   7.187
16475TIP3    H149302   7.203   1.058   7.156
16475TIP3    H249303   7.090   1.040   7.256
16476TIP3   OH249304   7.510   1.663   7.305
16476TIP3    H149305   7.465   1.633   7.384
16476TIP3    H249306   7.603   1.647   7.323
16477TIP3   OH249307   0.879   5.866   3.047
16477TIP3    H149308   0.952   5.882   2.987
16477TIP3    H249309   0.805   5.915   3.010
16478TIP3   OH249310   9.407   4.186   6.360
16478TIP3    H149311   9.405   4.258   6.297
16478TIP3    H249312   9.499   4.157   6.361
16479TIP3   OH249313   0.905   3.012   3.263
16479TIP3    H149314   0.878   2.933   3.309
16479TIP3    H249315   1.000   3.015   3.274
16480TIP3   OH249316   3.332   6.342   7.257
16480TIP3    H149317   3.330   6.404   7.330
16480TIP3    H249318   3.403   6.372   7.201
16481TIP3   OH249319   5.611   1.492   4.734
16481TIP3    H149320   5.549   1.518   4.803
16481TIP3    H249321   5.600   1.397   4.727
16482TIP3   OH249322   3.242   8.412   0.403
16482TIP3    H149323   3.245   8.452   0.316
16482TIP3    H249324   3.153   8.427   0.433
16483TIP3   OH249325   8.796   2.210   3.786
16483TIP3    H149326   8.777   2.287   3.840
16483TIP3    H249327   8.885   2.185   3.810
16484TIP3   OH249328   7.754   2.529   5.278
16484TIP3    H149329   7.776   2.456   5.220
16484TIP3    H249330   7.740   2.488   5.363
16485TIP3   OH249331   0.513   7.356   1.022
16485TIP3    H149332   0.609   7.358   1.019
16485TIP3    H249333   0.492   7.358   1.115
16486TIP3   OH249334   7.617   8.351   2.306
16486TIP3    H149335   7.524   8.335   2.290
16486TIP3    H249336   7.645   8.277   2.361
16487TIP3   OH249337   3.167   8.621   6.947
16487TIP3    H149338   3.257   8.599   6.925
16487TIP3    H249339   3.161   8.607   7.041
16488TIP3   OH249340   1.120   0.789   6.616
16488TIP3    H149341   1.050   0.839   6.657
16488TIP3    H249342   1.198   0.810   6.668
16489TIP3   OH249343   5.792   8.676   3.245
16489TIP3    H149344   5.735   8.753   3.236
16489TIP3    H249345   5.848   8.679   3.167
16490TIP3   OH249346   2.085   8.172   1.471
16490TIP3    H149347   2.102   8.257   1.430
16490TIP3    H249348   1.999   8.182   1.512
16491TIP3   OH249349   9.547   6.041   5.056
16491TIP3    H149350   9.590   6.106   5.000
16491TIP3    H249351   9.615   5.975   5.072
16492TIP3   OH249352   0.490   8.830   1.725
16492TIP3    H149353   0.404   8.840   1.765
16492TIP3    H249354   0.476   8.847   1.632
16493TIP3   OH249355   4.265   7.404   1.802
16493TIP3    H149356   4.326   7.357   1.744
16493TIP3    H249357   4.295   7.382   1.890
16494TIP3   OH249358   0.279   1.041   1.900
16494TIP3    H149359   0.230   0.964   1.871
16494TIP3    H249360   0.249   1.055   1.990
16495TIP3   OH249361   6.608   7.094   3.289
16495TIP3    H149362   6.646   7.008   3.307
16495TIP3    H249363   6.568   7.085   3.202
16496TIP3   OH249364   2.145   8.276   1.070
16496TIP3    H149365   2.204   8.245   1.001
16496TIP3    H249366   2.114   8.361   1.038
16497TIP3   OH249367   7.315   8.482   2.667
16497TIP3    H149368   7.252   8.412   2.651
16497TIP3    H249369   7.384   8.441   2.720
16498TIP3   OH249370   1.500   3.756   0.764
16498TIP3    H149371   1.547   3.813   0.825
16498TIP3    H249372   1.491   3.808   0.685
16499TIP3   OH249373   2.380   7.177   2.633
16499TIP3    H149374   2.286   7.170   2.616
16499TIP3    H249375   2.388   7.252   2.692
16500TIP3   OH249376   7.760   8.129   6.150
16500TIP3    H149377   7.670   8.149   6.124
16500TIP3    H249378   7.795   8.211   6.184
16501TIP3   OH249379   9.054   6.474   0.942
16501TIP3    H149380   9.018   6.526   1.013
16501TIP3    H249381   9.147   6.468   0.961
16502TIP3   OH249382   6.552   6.168   3.556
16502TIP3    H149383   6.599   6.246   3.585
16502TIP3    H249384   6.462   6.182   3.586
16503TIP3   OH249385   8.726   5.974   7.535
16503TIP3    H149386   8.797   5.915   7.511
16503TIP3    H249387   8.743   6.053   7.483
16504TIP3   OH249388   4.966   0.772   7.109
16504TIP3    H149389   4.963   0.863   7.139
16504TIP3    H249390   4.883   0.735   7.137
16505TIP3   OH249391   4.006   4.283   6.242
16505TIP3    H149392   4.023   4.207   6.298
16505TIP3    H249393   3.929   4.324   6.282
16506TIP3   OH249394   3.275   0.307   5.514
16506TIP3    H149395   3.370   0.301   5.509
16506TIP3    H249396   3.257   0.401   5.517
16507TIP3   OH249397   3.352   6.367   2.473
16507TIP3    H149398   3.289   6.402   2.409
16507TIP3    H249399   3.321   6.278   2.489
16508TIP3   OH249400   6.581   3.396   5.842
16508TIP3    H149401   6.524   3.375   5.916
16508TIP3    H249402   6.557   3.333   5.774
16509TIP3   OH249403   1.540   5.143   4.485
16509TIP3    H149404   1.621   5.152   4.435
16509TIP3    H249405   1.569   5.129   4.575
16510TIP3   OH249406   7.213   4.577   0.786
16510TIP3    H149407   7.202   4.666   0.752
16510TIP3    H249408   7.137   4.528   0.752
16511TIP3   OH249409   3.142   5.359   4.275
16511TIP3    H149410   3.184   5.275   4.257
16511TIP3    H249411   3.158   5.373   4.369
16512TIP3   OH249412   7.047   7.480   3.301
16512TIP3    H149413   7.066   7.392   3.333
16512TIP3    H249414   6.956   7.475   3.272
16513TIP3   OH249415   8.061   1.311   6.972
16513TIP3    H149416   8.095   1.298   6.884
16513TIP3    H249417   8.127   1.273   7.030
16514TIP3   OH249418   1.429   7.064   5.176
16514TIP3    H149419   1.441   7.128   5.246
16514TIP3    H249420   1.336   7.043   5.179
16515TIP3   OH249421   7.310   3.551   7.642
16515TIP3    H149422   7.390   3.532   7.592
16515TIP3    H249423   7.241   3.553   7.577
16516TIP3   OH249424   4.349   5.022   5.658
16516TIP3    H149425   4.381   5.007   5.747
16516TIP3    H249426   4.279   5.086   5.669
16517TIP3   OH249427   3.117   8.936   2.177
16517TIP3    H149428   3.076   8.880   2.110
16517TIP3    H249429   3.049   8.947   2.244
16518TIP3   OH249430   8.072   3.939   1.081
16518TIP3    H149431   7.992   3.991   1.083
16518TIP3    H249432   8.108   3.946   1.169
16519TIP3   OH249433   1.142   0.546   3.104
16519TIP3    H149434   1.100   0.616   3.154
16519TIP3    H249435   1.089   0.469   3.122
16520TIP3   OH249436   2.098   1.652   1.082
16520TIP3    H149437   2.182   1.605   1.084
16520TIP3    H249438   2.032   1.583   1.084
16521TIP3   OH249439   9.033   4.429   0.012
16521TIP3    H149440   9.038   4.388  -0.074
16521TIP3    H249441   9.009   4.358   0.071
16522TIP3   OH249442   1.226   3.148   0.224
16522TIP3    H149443   1.229   3.239   0.197
16522TIP3    H249444   1.138   3.118   0.200
16523TIP3   OH249445   2.595   6.177   7.112
16523TIP3    H149446   2.666   6.238   7.133
16523TIP3    H249447   2.544   6.171   7.193
16524TIP3   OH249448   5.396   2.380   0.267
16524TIP3    H149449   5.302   2.368   0.250
16524TIP3    H249450   5.404   2.376   0.362
16525TIP3   OH249451   7.773   8.769   1.819
16525TIP3    H149452   7.828   8.788   1.895
16525TIP3    H249453   7.830   8.782   1.743
16526TIP3   OH249454   4.813   6.724   0.063
16526TIP3    H149455   4.734   6.671   0.056
16526TIP3    H249456   4.796   6.784   0.135
16527TIP3   OH249457   8.678   4.329   7.075
16527TIP3    H149458   8.619   4.356   7.005
16527TIP3    H249459   8.629   4.345   7.155
16528TIP3   OH249460   2.251   4.074   5.187
16528TIP3    H149461   2.179   4.062   5.126
16528TIP3    H249462   2.286   4.161   5.166
16529TIP3   OH249463   6.933   6.086   1.609
16529TIP3    H149464   6.924   6.037   1.528
16529TIP3    H249465   6.897   6.027   1.676
16530TIP3   OH249466   5.159   4.099   7.035
16530TIP3    H149467   5.093   4.144   6.983
16530TIP3    H249468   5.210   4.049   6.971
16531TIP3   OH249469   7.816   0.131   4.435
16531TIP3    H149470   7.893   0.097   4.390
16531TIP3    H249471   7.852   0.192   4.500
16532TIP3   OH249472   4.138   5.747   2.687
16532TIP3    H149473   4.107   5.808   2.620
16532TIP3    H249474   4.115   5.660   2.652
16533TIP3   OH249475   8.776   1.260   5.959
16533TIP3    H149476   8.719   1.296   6.027
16533TIP3    H249477   8.844   1.326   5.947
16534TIP3   OH249478   9.310   8.145   1.967
16534TIP3    H149479   9.326   8.240   1.974
16534TIP3    H249480   9.226   8.139   1.922
16535TIP3   OH249481   4.857   2.868   1.060
16535TIP3    H149482   4.765   2.869   1.086
16535TIP3    H249483   4.901   2.920   1.127
16536TIP3   OH249484   3.232   0.810   6.477
16536TIP3    H149485   3.156   0.840   6.427
16536TIP3    H249486   3.198   0.801   6.567
16537TIP3   OH249487   0.950   6.786   5.705
16537TIP3    H149488   0.965   6.778   5.800
16537TIP3    H249489   1.038   6.791   5.668
16538TIP3   OH249490   5.400   3.079   5.399
16538TIP3    H149491   5.388   3.097   5.493
16538TIP3    H249492   5.341   3.005   5.382
16539TIP3   OH249493   9.444   8.418   6.968
16539TIP3    H149494   9.530   8.447   6.997
16539TIP3    H249495   9.437   8.450   6.878
16540TIP3   OH249496   6.782   0.625   0.523
16540TIP3    H149497   6.693   0.641   0.492
16540TIP3    H249498   6.835   0.691   0.478
16541TIP3   OH249499   5.403   4.874   7.417
16541TIP3    H149500   5.497   4.886   7.404
16541TIP3    H249501   5.385   4.915   7.501
16542TIP3   OH249502   8.613   2.444   6.684
16542TIP3    H149503   8.578   2.463   6.597
16542TIP3    H249504   8.537   2.453   6.743
16543TIP3   OH249505   0.959   1.554   7.592
16543TIP3    H149506   0.913   1.637   7.607
16543TIP3    H249507   1.032   1.556   7.654
16544TIP3   OH249508   6.792   2.885   4.505
16544TIP3    H149509   6.870   2.859   4.457
16544TIP3    H249510   6.812   2.972   4.540
16545TIP3   OH249511   6.180   3.943   1.032
16545TIP3    H149512   6.133   3.904   1.106
16545TIP3    H249513   6.214   4.026   1.067
16546TIP3   OH249514   9.027   4.242   5.205
16546TIP3    H149515   9.018   4.168   5.145
16546TIP3    H249516   8.979   4.313   5.163
16547TIP3   OH249517   4.841   1.065   2.253
16547TIP3    H149518   4.824   1.130   2.321
16547TIP3    H249519   4.937   1.066   2.243
16548TIP3   OH249520   5.555   4.229   6.936
16548TIP3    H149521   5.460   4.232   6.933
16548TIP3    H249522   5.578   4.261   7.023
16549TIP3   OH249523   7.558   3.816   5.403
16549TIP3    H149524   7.501   3.741   5.389
16549TIP3    H249525   7.591   3.806   5.492
16550TIP3   OH249526   7.387   1.120   1.388
16550TIP3    H149527   7.370   1.026   1.381
16550TIP3    H249528   7.398   1.149   1.298
16551TIP3   OH249529   8.282   3.107   5.099
16551TIP3    H149530   8.233   3.083   5.178
16551TIP3    H249531   8.368   3.135   5.132
16552TIP3   OH249532   6.138   5.035   2.658
16552TIP3    H149533   6.083   5.114   2.653
16552TIP3    H249534   6.171   5.035   2.748
16553TIP3   OH249535   2.120   3.783   6.814
16553TIP3    H149536   2.033   3.763   6.847
16553TIP3    H249537   2.155   3.848   6.876
16554TIP3   OH249538   8.271   5.850   2.370
16554TIP3    H149539   8.217   5.904   2.428
16554TIP3    H249540   8.345   5.906   2.348
16555TIP3   OH249541   7.877   6.614   3.500
16555TIP3    H149542   7.795   6.597   3.546
16555TIP3    H249543   7.919   6.683   3.551
16556TIP3   OH249544   2.591   7.663   5.453
16556TIP3    H149545   2.544   7.743   5.476
16556TIP3    H249546   2.673   7.669   5.501
16557TIP3   OH249547   0.747   0.382   0.652
16557TIP3    H149548   0.664   0.341   0.629
16557TIP3    H249549   0.729   0.433   0.730
16558TIP3   OH249550   0.410   8.554   2.929
16558TIP3    H149551   0.331   8.608   2.925
16558TIP3    H249552   0.481   8.613   2.905
16559TIP3   OH249553   1.486   8.012   6.254
16559TIP3    H149554   1.528   8.097   6.267
16559TIP3    H249555   1.557   7.953   6.229
16560TIP3   OH249556   8.029   3.933   5.822
16560TIP3    H149557   7.953   3.986   5.843
16560TIP3    H249558   8.103   3.981   5.860
16561TIP3   OH249559   2.983   5.367   4.950
16561TIP3    H149560   2.937   5.287   4.976
16561TIP3    H249561   3.059   5.336   4.900
16562TIP3   OH249562   3.938   7.004   2.227
16562TIP3    H149563   4.030   6.979   2.221
16562TIP3    H249564   3.905   6.994   2.137
16563TIP3   OH249565   3.730   5.001   6.391
16563TIP3    H149566   3.663   5.066   6.412
16563TIP3    H249567   3.687   4.943   6.328
16564TIP3   OH249568   8.381   2.159   3.782
16564TIP3    H149569   8.333   2.077   3.776
16564TIP3    H249570   8.314   2.227   3.790
16565TIP3   OH249571   2.663   7.614   4.410
16565TIP3    H149572   2.690   7.522   4.406
16565TIP3    H249573   2.591   7.615   4.473
16566TIP3   OH249574   8.307   1.154   7.533
16566TIP3    H149575   8.261   1.083   7.488
16566TIP3    H249576   8.336   1.116   7.615
16567TIP3   OH249577   3.759   3.885   7.318
16567TIP3    H149578   3.850   3.861   7.339
16567TIP3    H249579   3.707   3.814   7.355
16568TIP3   OH249580   5.410   7.272   5.865
16568TIP3    H149581   5.416   7.185   5.826
16568TIP3    H249582   5.319   7.299   5.850
16569TIP3   OH249583   7.700   3.793   3.069
16569TIP3    H149584   7.670   3.808   3.159
16569TIP3    H249585   7.787   3.753   3.079
16570TIP3   OH249586   7.011   2.837   0.021
16570TIP3    H149587   6.958   2.839   0.101
16570TIP3    H249588   6.963   2.779  -0.038
16571TIP3   OH249589   4.156   6.349   0.076
16571TIP3    H149590   4.094   6.364   0.005
16571TIP3    H249591   4.164   6.434   0.119
16572TIP3   OH249592   0.401   0.564   3.917
16572TIP3    H149593   0.406   0.606   4.003
16572TIP3    H249594   0.343   0.489   3.930
16573TIP3   OH249595   7.677   4.907   2.198
16573TIP3    H149596   7.605   4.952   2.154
16573TIP3    H249597   7.641   4.886   2.285
16574TIP3   OH249598   3.885   3.906   3.400
16574TIP3    H149599   3.863   3.940   3.313
16574TIP3    H249600   3.976   3.932   3.414
16575TIP3   OH249601   9.545   3.217   2.266
16575TIP3    H149602   9.523   3.130   2.231
16575TIP3    H249603   9.604   3.198   2.339
16576TIP3   OH249604   1.828   1.635   0.665
16576TIP3    H149605   1.855   1.606   0.578
16576TIP3    H249606   1.805   1.554   0.711
16577TIP3   OH249607   0.674   1.697   2.414
16577TIP3    H149608   0.643   1.787   2.421
16577TIP3    H249609   0.642   1.667   2.329
16578TIP3   OH249610   8.881   6.293   0.845
16578TIP3    H149611   8.950   6.357   0.862
16578TIP3    H249612   8.800   6.337   0.871
16579TIP3   OH249613   0.995   6.708   4.891
16579TIP3    H149614   0.927   6.702   4.957
16579TIP3    H249615   1.047   6.628   4.902
16580TIP3   OH249616   0.845   6.235   3.723
16580TIP3    H149617   0.810   6.163   3.775
16580TIP3    H249618   0.861   6.305   3.786
16581TIP3   OH249619   7.876   7.568   1.102
16581TIP3    H149620   7.847   7.554   1.192
16581TIP3    H249621   7.957   7.619   1.110
16582TIP3   OH249622   3.651   4.557   7.674
16582TIP3    H149623   3.663   4.462   7.677
16582TIP3    H249624   3.681   4.582   7.587
16583TIP3   OH249625   0.321   8.992   3.505
16583TIP3    H149626   0.263   8.947   3.566
16583TIP3    H249627   0.409   8.976   3.539
16584TIP3   OH249628   7.023   2.541   7.547
16584TIP3    H149629   6.953   2.579   7.494
16584TIP3    H249630   7.087   2.509   7.484
16585TIP3   OH249631   3.060   1.409   2.074
16585TIP3    H149632   3.102   1.383   2.156
16585TIP3    H249633   3.126   1.460   2.028
16586TIP3   OH249634   5.850   4.331   6.941
16586TIP3    H149635   5.778   4.275   6.911
16586TIP3    H249636   5.927   4.275   6.940
16587TIP3   OH249637   1.571   4.729   1.069
16587TIP3    H149638   1.498   4.671   1.049
16587TIP3    H249639   1.632   4.675   1.120
16588TIP3   OH249640   1.242   4.974   2.576
16588TIP3    H149641   1.246   4.974   2.672
16588TIP3    H249642   1.180   4.904   2.555
16589TIP3   OH249643   3.641   4.122   3.023
16589TIP3    H149644   3.549   4.145   3.036
16589TIP3    H249645   3.689   4.197   3.058
16590TIP3   OH249646   8.658   0.254   5.148
16590TIP3    H149647   8.579   0.277   5.198
16590TIP3    H249648   8.647   0.161   5.127
16591TIP3   OH249649   1.656   3.081   0.221
16591TIP3    H149650   1.660   3.089   0.316
16591TIP3    H249651   1.734   3.126   0.189
16592TIP3   OH249652   0.426   0.571   0.747
16592TIP3    H149653   0.396   0.503   0.807
16592TIP3    H249654   0.521   0.563   0.748
16593TIP3   OH249655   2.510   0.895   4.541
16593TIP3    H149656   2.559   0.885   4.622
16593TIP3    H249657   2.422   0.863   4.561
16594TIP3   OH249658   1.397   6.472   4.312
16594TIP3    H149659   1.333   6.511   4.253
16594TIP3    H249660   1.451   6.545   4.342
16595TIP3   OH249661   0.674   2.998   5.707
16595TIP3    H149662   0.633   3.030   5.788
16595TIP3    H249663   0.600   2.974   5.651
16596TIP3   OH249664   1.564   8.076   3.144
16596TIP3    H149665   1.618   8.037   3.075
16596TIP3    H249666   1.590   8.030   3.224
16597TIP3   OH249667   6.293   6.425   3.268
16597TIP3    H149668   6.352   6.350   3.260
16597TIP3    H249669   6.211   6.387   3.300
16598TIP3   OH249670   5.080   5.824   6.676
16598TIP3    H149671   5.140   5.798   6.746
16598TIP3    H249672   5.108   5.913   6.653
16599TIP3   OH249673   6.745   4.498   6.474
16599TIP3    H149674   6.805   4.437   6.429
16599TIP3    H249675   6.683   4.441   6.519
16600TIP3   OH249676   4.022   7.482   5.437
16600TIP3    H149677   4.071   7.562   5.421
16600TIP3    H249678   3.964   7.474   5.361
16601TIP3   OH249679   1.542   0.933   4.828
16601TIP3    H149680   1.536   1.027   4.842
16601TIP3    H249681   1.551   0.896   4.917
16602TIP3   OH249682   9.283   5.697   0.035
16602TIP3    H149683   9.197   5.659   0.051
16602TIP3    H249684   9.316   5.721   0.122
16603TIP3   OH249685   2.820   1.647   1.422
16603TIP3    H149686   2.729   1.624   1.444
16603TIP3    H249687   2.870   1.627   1.501
16604TIP3   OH249688   0.760   5.660   1.884
16604TIP3    H149689   0.677   5.698   1.858
16604TIP3    H249690   0.747   5.565   1.873
16605TIP3   OH249691   5.413   7.550   1.692
16605TIP3    H149692   5.350   7.501   1.744
16605TIP3    H249693   5.397   7.642   1.714
16606TIP3   OH249694   5.868   5.034   6.567
16606TIP3    H149695   5.829   5.036   6.655
16606TIP3    H249696   5.826   4.959   6.524
16607TIP3   OH249697   8.299   5.544   4.826
16607TIP3    H149698   8.345   5.468   4.788
16607TIP3    H249699   8.357   5.618   4.808
16608TIP3   OH249700   6.116   6.990   7.403
16608TIP3    H149701   6.116   6.896   7.421
16608TIP3    H249702   6.201   7.021   7.436
16609TIP3   OH249703   6.958   8.920   1.886
16609TIP3    H149704   6.959   8.959   1.798
16609TIP3    H249705   6.873   8.945   1.922
16610TIP3   OH249706   8.952   0.888   1.625
16610TIP3    H149707   8.993   0.820   1.679
16610TIP3    H249708   8.879   0.920   1.678
16611TIP3   OH249709   4.566   1.939   0.221
16611TIP3    H149710   4.599   2.024   0.252
16611TIP3    H249711   4.510   1.908   0.292
16612TIP3   OH249712   6.402   4.558   2.245
16612TIP3    H149713   6.477   4.558   2.305
16612TIP3    H249714   6.425   4.621   2.178
16613TIP3   OH249715   5.382   0.818   3.637
16613TIP3    H149716   5.439   0.892   3.656
16613TIP3    H249717   5.441   0.743   3.632
16614TIP3   OH249718   4.539   2.504   7.024
16614TIP3    H149719   4.541   2.597   7.047
16614TIP3    H249720   4.528   2.503   6.929
16615TIP3   OH249721   7.889   2.088   3.891
16615TIP3    H149722   7.811   2.086   3.836
16615TIP3    H249723   7.953   2.034   3.845
16616TIP3   OH249724   7.624   3.637   2.102
16616TIP3    H149725   7.615   3.664   2.011
16616TIP3    H249726   7.585   3.708   2.153
16617TIP3   OH249727   8.749   0.585   0.712
16617TIP3    H149728   8.810   0.536   0.767
16617TIP3    H249729   8.664   0.576   0.756
16618TIP3   OH249730   7.577   2.112   5.702
16618TIP3    H149731   7.488   2.097   5.671
16618TIP3    H249732   7.633   2.088   5.628
16619TIP3   OH249733   3.742   3.497   6.824
16619TIP3    H149734   3.741   3.591   6.806
16619TIP3    H249735   3.757   3.492   6.919
16620TIP3   OH249736   5.523   1.128   5.393
16620TIP3    H149737   5.534   1.195   5.325
16620TIP3    H249738   5.523   1.177   5.475
16621TIP3   OH249739   6.388   7.445   0.483
16621TIP3    H149740   6.300   7.434   0.447
16621TIP3    H249741   6.404   7.540   0.478
16622TIP3   OH249742   7.361   1.996   7.005
16622TIP3    H149743   7.450   2.026   6.987
16622TIP3    H249744   7.369   1.901   7.013
16623TIP3   OH249745   7.000   7.256   3.755
16623TIP3    H149746   7.066   7.293   3.812
16623TIP3    H249747   6.968   7.330   3.702
16624TIP3   OH249748   3.380   4.644   4.793
16624TIP3    H149749   3.333   4.620   4.873
16624TIP3    H249750   3.312   4.668   4.730
16625TIP3   OH249751   3.859   8.269   2.063
16625TIP3    H149752   3.812   8.187   2.052
16625TIP3    H249753   3.873   8.301   1.973
16626TIP3   OH249754   5.188   2.599   4.430
16626TIP3    H149755   5.240   2.662   4.480
16626TIP3    H249756   5.116   2.576   4.489
16627TIP3   OH249757   3.661   0.311   0.489
16627TIP3    H149758   3.580   0.267   0.513
16627TIP3    H249759   3.658   0.316   0.393
16628TIP3   OH249760   5.256   4.599   5.756
16628TIP3    H149761   5.328   4.656   5.728
16628TIP3    H249762   5.285   4.511   5.734
16629TIP3   OH249763   7.156   7.446   7.354
16629TIP3    H149764   7.068   7.423   7.383
16629TIP3    H249765   7.201   7.475   7.433
16630TIP3   OH249766   0.793   4.757   5.848
16630TIP3    H149767   0.730   4.790   5.912
16630TIP3    H249768   0.877   4.759   5.894
16631TIP3   OH249769   7.610   4.340   6.701
16631TIP3    H149770   7.665   4.381   6.768
16631TIP3    H249771   7.537   4.402   6.689
16632TIP3   OH249772   2.222   7.465   6.681
16632TIP3    H149773   2.273   7.462   6.600
16632TIP3    H249774   2.167   7.543   6.672
16633TIP3   OH249775   4.726   0.310   3.226
16633TIP3    H149776   4.754   0.377   3.287
16633TIP3    H249777   4.669   0.252   3.277
16634TIP3   OH249778   3.774   6.939   6.951
16634TIP3    H149779   3.852   6.935   7.006
16634TIP3    H249780   3.704   6.969   7.010
16635TIP3   OH249781   1.571   7.475   0.443
16635TIP3    H149782   1.642   7.501   0.501
16635TIP3    H249783   1.522   7.556   0.427
16636TIP3   OH249784   9.538   8.548   7.506
16636TIP3    H149785   9.616   8.570   7.454
16636TIP3    H249786   9.500   8.472   7.461
16637TIP3   OH249787   5.762   3.926   7.658
16637TIP3    H149788   5.817   3.997   7.624
16637TIP3    H249789   5.726   3.962   7.739
16638TIP3   OH249790   8.107   6.145   1.420
16638TIP3    H149791   8.082   6.093   1.343
16638TIP3    H249792   8.024   6.172   1.458
16639TIP3   OH249793   0.545   7.383   0.740
16639TIP3    H149794   0.519   7.334   0.817
16639TIP3    H249795   0.601   7.453   0.773
16640TIP3   OH249796   1.494   2.950   5.814
16640TIP3    H149797   1.489   2.862   5.776
16640TIP3    H249798   1.523   2.935   5.904
16641TIP3   OH249799   1.259   5.551   6.943
16641TIP3    H149800   1.244   5.613   7.014
16641TIP3    H249801   1.189   5.487   6.951
16642TIP3   OH249802   3.641   6.750   1.491
16642TIP3    H149803   3.557   6.793   1.508
16642TIP3    H249804   3.644   6.741   1.396
16643TIP3   OH249805   6.438   4.330   3.216
16643TIP3    H149806   6.370   4.263   3.224
16643TIP3    H249807   6.514   4.283   3.182
16644TIP3   OH249808   9.011   6.846   6.088
16644TIP3    H149809   8.918   6.840   6.108
16644TIP3    H249810   9.033   6.761   6.051
16645TIP3   OH249811   0.706   6.003   7.146
16645TIP3    H149812   0.720   6.059   7.069
16645TIP3    H249813   0.783   6.018   7.201
16646TIP3   OH249814   1.239   2.685   7.125
16646TIP3    H149815   1.179   2.753   7.095
16646TIP3    H249816   1.312   2.687   7.063
16647TIP3   OH249817   7.775   7.854   2.492
16647TIP3    H149818   7.805   7.919   2.556
16647TIP3    H249819   7.709   7.802   2.539
16648TIP3   OH249820   8.052   3.937   5.532
16648TIP3    H149821   8.094   4.015   5.496
16648TIP3    H249822   8.061   3.945   5.626
16649TIP3   OH249823   6.053   4.233   4.779
16649TIP3    H149824   6.023   4.294   4.712
16649TIP3    H249825   6.142   4.209   4.751
16650TIP3   OH249826   7.140   2.115   5.189
16650TIP3    H149827   7.160   2.202   5.223
16650TIP3    H249828   7.193   2.109   5.109
16651TIP3   OH249829   3.394   7.984   5.613
16651TIP3    H149830   3.360   7.895   5.626
16651TIP3    H249831   3.434   8.007   5.697
16652TIP3   OH249832   6.540   8.394   4.480
16652TIP3    H149833   6.584   8.377   4.397
16652TIP3    H249834   6.487   8.316   4.495
16653TIP3   OH249835   1.780   5.891   4.649
16653TIP3    H149836   1.764   5.961   4.586
16653TIP3    H249837   1.821   5.935   4.724
16654TIP3   OH249838   4.509   6.470   6.989
16654TIP3    H149839   4.475   6.384   6.964
16654TIP3    H249840   4.559   6.453   7.070
16655TIP3   OH249841   2.941   6.723   6.198
16655TIP3    H149842   2.943   6.633   6.230
16655TIP3    H249843   2.862   6.728   6.145
16656TIP3   OH249844   4.274   2.548   4.417
16656TIP3    H149845   4.213   2.517   4.484
16656TIP3    H249846   4.339   2.599   4.466
16657TIP3   OH249847   6.583   6.426   6.968
16657TIP3    H149848   6.515   6.438   7.034
16657TIP3    H249849   6.601   6.514   6.935
16658TIP3   OH249850   0.997   0.059   5.485
16658TIP3    H149851   1.038   0.008   5.555
16658TIP3    H249852   0.903   0.048   5.499
16659TIP3   OH249853   6.597   3.660   1.303
16659TIP3    H149854   6.545   3.696   1.374
16659TIP3    H249855   6.617   3.735   1.247
16660TIP3   OH249856   6.431   2.668   3.948
16660TIP3    H149857   6.442   2.762   3.963
16660TIP3    H249858   6.416   2.631   4.035
16661TIP3   OH249859   8.737   7.445   5.677
16661TIP3    H149860   8.768   7.535   5.669
16661TIP3    H249861   8.696   7.426   5.592
16662TIP3   OH249862   5.103   5.760   5.474
16662TIP3    H149863   5.059   5.720   5.400
16662TIP3    H249864   5.073   5.709   5.550
16663TIP3   OH249865   0.542   1.496   4.809
16663TIP3    H149866   0.452   1.463   4.807
16663TIP3    H249867   0.546   1.557   4.735
16664TIP3   OH249868   0.953   8.225   0.839
16664TIP3    H149869   0.987   8.301   0.792
16664TIP3    H249870   0.859   8.228   0.824
16665TIP3   OH249871   4.202   2.256   1.080
16665TIP3    H149872   4.117   2.216   1.061
16665TIP3    H249873   4.260   2.182   1.097
16666TIP3   OH249874   3.840   3.444   6.536
16666TIP3    H149875   3.862   3.502   6.464
16666TIP3    H249876   3.760   3.480   6.574
16667TIP3   OH249877   8.076   7.024   3.165
16667TIP3    H149878   8.117   7.105   3.194
16667TIP3    H249879   8.137   6.955   3.193
16668TIP3   OH249880   7.807   1.401   7.043
16668TIP3    H149881   7.895   1.383   7.011
16668TIP3    H249882   7.797   1.348   7.121
16669TIP3   OH249883   1.239   1.020   1.608
16669TIP3    H149884   1.327   0.983   1.599
16669TIP3    H249885   1.224   1.023   1.702
16670TIP3   OH249886   7.865   7.107   6.079
16670TIP3    H149887   7.824   7.086   5.994
16670TIP3    H249888   7.792   7.107   6.141
16671TIP3   OH249889   4.514   2.761   0.883
16671TIP3    H149890   4.502   2.746   0.789
16671TIP3    H249891   4.607   2.748   0.897
16672TIP3   OH249892   6.701   3.056   5.484
16672TIP3    H149893   6.717   3.069   5.577
16672TIP3    H249894   6.742   3.132   5.442
16673TIP3   OH249895   0.150   4.449   5.421
16673TIP3    H149896   0.160   4.393   5.498
16673TIP3    H249897   0.208   4.408   5.355
16674TIP3   OH249898   7.837   2.176   1.202
16674TIP3    H149899   7.835   2.104   1.264
16674TIP3    H249900   7.806   2.138   1.119
16675TIP3   OH249901   1.035   1.743   4.967
16675TIP3    H149902   1.032   1.668   5.027
16675TIP3    H249903   0.974   1.719   4.897
16676TIP3   OH249904   1.134   3.646   3.353
16676TIP3    H149905   1.108   3.598   3.432
16676TIP3    H249906   1.129   3.738   3.378
16677TIP3   OH249907   9.140   5.704   7.129
16677TIP3    H149908   9.130   5.736   7.218
16677TIP3    H249909   9.097   5.770   7.074
16678TIP3   OH249910   0.588   7.239   5.328
16678TIP3    H149911   0.492   7.233   5.329
16678TIP3    H249912   0.615   7.207   5.414
16679TIP3   OH249913   3.008   2.694   6.266
16679TIP3    H149914   2.945   2.715   6.197
16679TIP3    H249915   2.979   2.609   6.300
16680TIP3   OH249916   9.076   3.112   0.420
16680TIP3    H149917   9.071   3.059   0.341
16680TIP3    H249918   8.990   3.155   0.426
16681TIP3   OH249919   1.210   8.100   0.772
16681TIP3    H149920   1.130   8.140   0.808
16681TIP3    H249921   1.181   8.014   0.742
16682TIP3   OH249922   2.982   6.464   4.365
16682TIP3    H149923   3.043   6.431   4.299
16682TIP3    H249924   2.986   6.400   4.436
16683TIP3   OH249925   4.247   0.194   0.596
16683TIP3    H149926   4.213   0.279   0.570
16683TIP3    H249927   4.171   0.136   0.594
16684TIP3   OH249928   8.029   7.161   1.304
16684TIP3    H149929   8.083   7.092   1.264
16684TIP3    H249930   7.954   7.114   1.340
16685TIP3   OH249931   9.036   6.168   1.194
16685TIP3    H149932   8.987   6.093   1.227
16685TIP3    H249933   9.064   6.142   1.106
16686TIP3   OH249934   1.343   8.869   2.502
16686TIP3    H149935   1.383   8.783   2.504
16686TIP3    H249936   1.387   8.915   2.430
16687TIP3   OH249937   1.995   7.773   0.697
16687TIP3    H149938   2.021   7.773   0.605
16687TIP3    H249939   2.070   7.737   0.744
16688TIP3   OH249940   6.179   2.531   5.759
16688TIP3    H149941   6.201   2.624   5.753
16688TIP3    H249942   6.133   2.512   5.677
16689TIP3   OH249943   5.910   4.682   4.872
16689TIP3    H149944   5.897   4.757   4.930
16689TIP3    H249945   5.960   4.717   4.798
16690TIP3   OH249946   7.362   7.778   1.481
16690TIP3    H149947   7.331   7.706   1.536
16690TIP3    H249948   7.454   7.757   1.466
16691TIP3   OH249949   4.807   1.262   5.819
16691TIP3    H149950   4.851   1.270   5.735
16691TIP3    H249951   4.750   1.185   5.810
16692TIP3   OH249952   3.694   1.131   6.307
16692TIP3    H149953   3.662   1.062   6.249
16692TIP3    H249954   3.774   1.096   6.345
16693TIP3   OH249955   2.703   6.757   6.076
16693TIP3    H149956   2.614   6.764   6.110
16693TIP3    H249957   2.719   6.840   6.032
16694TIP3   OH249958   1.594   6.527   1.905
16694TIP3    H149959   1.514   6.476   1.911
16694TIP3    H249960   1.568   6.616   1.929
16695TIP3   OH249961   2.795   4.535   6.419
16695TIP3    H149962   2.871   4.540   6.360
16695TIP3    H249963   2.768   4.443   6.415
16696TIP3   OH249964   4.528   8.580   0.374
16696TIP3    H149965   4.590   8.607   0.442
16696TIP3    H249966   4.442   8.594   0.414
16697TIP3   OH249967   2.873   3.071   0.038
16697TIP3    H149968   2.897   3.033   0.122
16697TIP3    H249969   2.905   3.007  -0.026
16698TIP3   OH249970   4.459   8.956   6.732
16698TIP3    H149971   4.538   8.973   6.784
16698TIP3    H249972   4.419   9.043   6.721
16699TIP3   OH249973   4.891   5.246   4.770
16699TIP3    H149974   4.859   5.251   4.680
16699TIP3    H249975   4.872   5.156   4.797
16700TIP3   OH249976   9.321   6.010   1.081
16700TIP3    H149977   9.303   5.958   1.003
16700TIP3    H249978   9.277   5.962   1.152
16701TIP3   OH249979   5.741   0.599   3.290
16701TIP3    H149980   5.807   0.534   3.312
16701TIP3    H249981   5.695   0.561   3.215
16702TIP3   OH249982   5.132   5.874   2.654
16702TIP3    H149983   5.052   5.871   2.706
16702TIP3    H249984   5.203   5.875   2.718
16703TIP3   OH249985   2.442   3.828   4.485
16703TIP3    H149986   2.535   3.810   4.471
16703TIP3    H249987   2.435   3.850   4.578
16704TIP3   OH249988   1.288   0.688   2.862
16704TIP3    H149989   1.224   0.757   2.849
16704TIP3    H249990   1.241   0.607   2.842
16705TIP3   OH249991   7.436   7.110   6.434
16705TIP3    H149992   7.385   7.037   6.469
16705TIP3    H249993   7.371   7.173   6.405
16706TIP3   OH249994   3.006   0.493   7.480
16706TIP3    H149995   2.944   0.421   7.470
16706TIP3    H249996   2.962   0.556   7.537
16707TIP3   OH249997   4.604   2.962   7.561
16707TIP3    H149998   4.635   3.007   7.482
16707TIP3    H249999   4.623   2.870   7.545
16708TIP3   OH250000   8.360   5.494   6.791
16708TIP3    H150001   8.308   5.564   6.752
16708TIP3    H250002   8.382   5.527   6.878
16709TIP3   OH250003   4.911   7.469   0.105
16709TIP3    H150004   4.937   7.400   0.044
16709TIP3    H250005   4.842   7.428   0.159
16710TIP3   OH250006   3.869   5.277   1.845
16710TIP3    H150007   3.786   5.258   1.801
16710TIP3    H250008   3.908   5.191   1.862
16711TIP3   OH250009   7.176   3.928   2.932
16711TIP3    H150010   7.083   3.916   2.912
16711TIP3    H250011   7.188   3.884   3.017
16712TIP3   OH250012   1.431   3.742   1.632
16712TIP3    H150013   1.405   3.669   1.688
16712TIP3    H250014   1.426   3.819   1.689
16713TIP3   OH250015   7.169   5.992   3.426
16713TIP3    H150016   7.099   5.939   3.390
16713TIP3    H250017   7.149   5.999   3.519
16714TIP3   OH250018   7.990   4.822   4.492
16714TIP3    H150019   8.082   4.812   4.518
16714TIP3    H250020   7.962   4.903   4.534
16715TIP3   OH250021   7.284   8.709   4.219
16715TIP3    H150022   7.224   8.774   4.183
16715TIP3    H250023   7.323   8.667   4.142
16716TIP3   OH250024   7.296   1.477   1.664
16716TIP3    H150025   7.346   1.558   1.669
16716TIP3    H250026   7.330   1.423   1.736
16717TIP3   OH250027   0.686   1.914   3.759
16717TIP3    H150028   0.750   1.965   3.809
16717TIP3    H250029   0.618   1.892   3.823
16718TIP3   OH250030   1.533   2.650   1.594
16718TIP3    H150031   1.497   2.586   1.656
16718TIP3    H250032   1.482   2.730   1.609
16719TIP3   OH250033   3.927   2.765   0.899
16719TIP3    H150034   3.837   2.794   0.913
16719TIP3    H250035   3.970   2.838   0.853
16720TIP3   OH250036   8.891   0.807   3.723
16720TIP3    H150037   8.960   0.770   3.668
16720TIP3    H250038   8.831   0.849   3.661
16721TIP3   OH250039   4.465   0.023   2.720
16721TIP3    H150040   4.518  -0.050   2.688
16721TIP3    H250041   4.497   0.099   2.672
16722TIP3   OH250042   8.523   5.249   0.137
16722TIP3    H150043   8.593   5.191   0.105
16722TIP3    H250044   8.454   5.189   0.167
16723TIP3   OH250045   6.708   0.969   3.889
16723TIP3    H150046   6.732   1.049   3.842
16723TIP3    H250047   6.639   0.929   3.835
16724TIP3   OH250048   5.758   4.445   3.644
16724TIP3    H150049   5.700   4.518   3.623
16724TIP3    H250050   5.764   4.396   3.562
16725TIP3   OH250051   2.551   8.747   2.165
16725TIP3    H150052   2.547   8.773   2.257
16725TIP3    H250053   2.551   8.830   2.117
16726TIP3   OH250054   1.152   0.157   6.811
16726TIP3    H150055   1.080   0.120   6.862
16726TIP3    H250056   1.122   0.155   6.721
16727TIP3   OH250057   2.562   1.046   6.107
16727TIP3    H150058   2.628   1.020   6.043
16727TIP3    H250059   2.480   1.011   6.073
16728TIP3   OH250060   6.403   6.596   1.821
16728TIP3    H150061   6.311   6.577   1.842
16728TIP3    H250062   6.447   6.512   1.831
16729TIP3   OH250063   4.714   3.617   5.322
16729TIP3    H150064   4.643   3.596   5.384
16729TIP3    H250065   4.794   3.598   5.371
16730TIP3   OH250066   4.562   1.315   3.676
16730TIP3    H150067   4.517   1.238   3.712
16730TIP3    H250068   4.616   1.280   3.605
16731TIP3   OH250069   7.763   3.641   7.243
16731TIP3    H150070   7.716   3.704   7.189
16731TIP3    H250071   7.815   3.590   7.180
16732TIP3   OH250072   3.687   7.176   2.185
16732TIP3    H150073   3.620   7.155   2.250
16732TIP3    H250074   3.738   7.095   2.176
16733TIP3   OH250075   4.189   2.434   3.120
16733TIP3    H150076   4.234   2.393   3.046
16733TIP3    H250077   4.258   2.474   3.172
16734TIP3   OH250078   3.591   3.753   5.172
16734TIP3    H150079   3.592   3.742   5.267
16734TIP3    H250080   3.508   3.712   5.144
16735TIP3   OH250081   1.804   5.209   7.575
16735TIP3    H150082   1.852   5.127   7.564
16735TIP3    H250083   1.781   5.235   7.486
16736TIP3   OH250084   5.141   4.502   0.332
16736TIP3    H150085   5.197   4.451   0.391
16736TIP3    H250086   5.067   4.444   0.314
16737TIP3   OH250087   1.668   3.643   2.216
16737TIP3    H150088   1.634   3.681   2.297
16737TIP3    H250089   1.723   3.570   2.244
16738TIP3   OH250090   4.937   4.185   2.486
16738TIP3    H150091   5.006   4.211   2.425
16738TIP3    H250092   4.968   4.104   2.525
16739TIP3   OH250093   5.877   4.039   4.896
16739TIP3    H150094   5.899   4.101   4.826
16739TIP3    H250095   5.842   4.094   4.966
16740TIP3   OH250096   8.813   2.788   6.117
16740TIP3    H150097   8.820   2.719   6.183
16740TIP3    H250098   8.812   2.741   6.033
16741TIP3   OH250099   0.762   5.500   6.479
16741TIP3    H150100   0.681   5.449   6.484
16741TIP3    H250101   0.816   5.454   6.414
16742TIP3   OH250102   8.343   8.071   1.705
16742TIP3    H150103   8.432   8.059   1.739
16742TIP3    H250104   8.353   8.075   1.610
16743TIP3   OH250105   4.272   7.255   5.710
16743TIP3    H150106   4.205   7.318   5.737
16743TIP3    H250107   4.223   7.176   5.688
16744TIP3   OH250108   7.765   4.969   1.709
16744TIP3    H150109   7.781   5.062   1.724
16744TIP3    H250110   7.703   4.966   1.637
16745TIP3   OH250111   9.533   2.940   7.209
16745TIP3    H150112   9.568   2.939   7.121
16745TIP3    H250113   9.439   2.925   7.197
16746TIP3   OH250114   1.603   3.683   6.149
16746TIP3    H150115   1.670   3.706   6.213
16746TIP3    H250116   1.534   3.641   6.201
16747TIP3   OH250117   3.783   7.885   2.957
16747TIP3    H150118   3.870   7.866   2.923
16747TIP3    H250119   3.730   7.810   2.933
16748TIP3   OH250120   7.936   7.749   5.730
16748TIP3    H150121   7.887   7.715   5.655
16748TIP3    H250122   7.872   7.750   5.801
16749TIP3   OH250123   6.218   1.288   2.719
16749TIP3    H150124   6.289   1.258   2.776
16749TIP3    H250125   6.245   1.376   2.692
16750TIP3   OH250126   3.550   1.882   0.755
16750TIP3    H150127   3.561   1.804   0.700
16750TIP3    H250128   3.475   1.862   0.810
16751TIP3   OH250129   4.275   6.810   5.591
16751TIP3    H150130   4.244   6.753   5.521
16751TIP3    H250131   4.239   6.773   5.671
16752TIP3   OH250132   1.568   0.134   1.266
16752TIP3    H150133   1.496   0.193   1.290
16752TIP3    H250134   1.593   0.162   1.178
16753TIP3   OH250135   1.047   1.186   3.263
16753TIP3    H150136   1.031   1.274   3.229
16753TIP3    H250137   1.003   1.184   3.348
16754TIP3   OH250138   2.129   7.427   7.077
16754TIP3    H150139   2.072   7.387   7.012
16754TIP3    H250140   2.217   7.417   7.041
16755TIP3   OH250141   9.450   0.855   4.740
16755TIP3    H150142   9.506   0.908   4.797
16755TIP3    H250143   9.389   0.812   4.799
16756TIP3   OH250144   4.922   6.880   4.511
16756TIP3    H150145   4.958   6.807   4.562
16756TIP3    H250146   4.842   6.905   4.557
16757TIP3   OH250147   0.701   3.378   3.052
16757TIP3    H150148   0.763   3.356   3.122
16757TIP3    H250149   0.752   3.425   2.987
16758TIP3   OH250150   5.492   4.616   5.401
16758TIP3    H150151   5.560   4.649   5.343
16758TIP3    H250152   5.511   4.656   5.486
16759TIP3   OH250153   6.370   7.500   0.833
16759TIP3    H150154   6.409   7.561   0.895
16759TIP3    H250155   6.292   7.546   0.800
16760TIP3   OH250156   6.337   0.244   7.097
16760TIP3    H150157   6.243   0.265   7.098
16760TIP3    H250158   6.355   0.221   7.006
16761TIP3   OH250159   2.132   7.159   1.028
16761TIP3    H150160   2.117   7.149   1.122
16761TIP3    H250161   2.179   7.241   1.019
16762TIP3   OH250162   7.611   7.723   7.773
16762TIP3    H150163   7.673   7.686   7.711
16762TIP3    H250164   7.641   7.812   7.787
16763TIP3   OH250165   1.077   8.308   5.950
16763TIP3    H150166   1.046   8.398   5.954
16763TIP3    H250167   1.039   8.265   6.027
16764TIP3   OH250168   8.351   6.913   0.301
16764TIP3    H150169   8.384   6.909   0.212
16764TIP3    H250170   8.332   7.006   0.316
16765TIP3   OH250171   2.367   0.128   3.629
16765TIP3    H150172   2.304   0.061   3.602
16765TIP3    H250173   2.411   0.090   3.705
16766TIP3   OH250174   4.639   8.346   6.471
16766TIP3    H150175   4.586   8.377   6.545
16766TIP3    H250176   4.682   8.425   6.438
16767TIP3   OH250177   4.900   1.942   4.900
16767TIP3    H150178   4.990   1.973   4.906
16767TIP3    H250179   4.851   2.019   4.870
16768TIP3   OH250180   8.849   6.270   3.409
16768TIP3    H150181   8.921   6.331   3.426
16768TIP3    H250182   8.773   6.311   3.451
16769TIP3   OH250183   5.160   1.990   4.286
16769TIP3    H150184   5.075   1.969   4.246
16769TIP3    H250185   5.222   1.938   4.235
16770TIP3   OH250186   9.268   6.578   0.266
16770TIP3    H150187   9.315   6.501   0.233
16770TIP3    H250188   9.192   6.587   0.208
16771TIP3   OH250189   5.354   8.461   1.258
16771TIP3    H150190   5.271   8.502   1.235
16771TIP3    H250191   5.363   8.477   1.352
16772TIP3   OH250192   5.975   6.158   4.917
16772TIP3    H150193   5.973   6.218   4.842
16772TIP3    H250194   5.978   6.215   4.993
16773TIP3   OH250195   4.739   4.132   5.927
16773TIP3    H150196   4.648   4.153   5.948
16773TIP3    H250197   4.786   4.144   6.010
16774TIP3   OH250198   0.335   8.582   6.564
16774TIP3    H150199   0.244   8.563   6.588
16774TIP3    H250200   0.327   8.626   6.479
16775TIP3   OH250201   5.254   6.878   4.498
16775TIP3    H150202   5.240   6.903   4.590
16775TIP3    H250203   5.188   6.927   4.450
16776TIP3   OH250204   3.674   2.273   0.791
16776TIP3    H150205   3.704   2.252   0.879
16776TIP3    H250206   3.651   2.366   0.795
16777TIP3   OH250207   3.979   2.502   3.858
16777TIP3    H150208   3.924   2.479   3.783
16777TIP3    H250209   3.961   2.435   3.923
16778TIP3   OH250210   3.751   6.084   3.940
16778TIP3    H150211   3.820   6.100   4.004
16778TIP3    H250212   3.684   6.035   3.989
16779TIP3   OH250213   8.261   6.116   4.283
16779TIP3    H150214   8.174   6.105   4.324
16779TIP3    H250215   8.250   6.084   4.194
16780TIP3   OH250216   4.715   6.433   4.915
16780TIP3    H150217   4.786   6.374   4.942
16780TIP3    H250218   4.720   6.433   4.819
16781TIP3   OH250219   3.986   3.705   0.739
16781TIP3    H150220   4.037   3.740   0.666
16781TIP3    H250221   4.037   3.730   0.817
16782TIP3   OH250222   6.285   0.158   0.557
16782TIP3    H150223   6.374   0.125   0.546
16782TIP3    H250224   6.231   0.096   0.508
16783TIP3   OH250225   8.029   5.188   4.951
16783TIP3    H150226   8.108   5.184   4.897
16783TIP3    H250227   7.966   5.235   4.897
16784TIP3   OH250228   4.786   0.058   5.224
16784TIP3    H150229   4.848   0.122   5.258
16784TIP3    H250230   4.708   0.110   5.204
16785TIP3   OH250231   8.989   5.339   4.883
16785TIP3    H150232   9.019   5.406   4.944
16785TIP3    H250233   8.973   5.262   4.939
16786TIP3   OH250234   7.231   5.666   0.777
16786TIP3    H150235   7.215   5.602   0.847
16786TIP3    H250236   7.293   5.622   0.719
16787TIP3   OH250237   0.496   1.408   3.745
16787TIP3    H150238   0.470   1.328   3.698
16787TIP3    H250239   0.500   1.475   3.677
16788TIP3   OH250240   3.915   7.481   6.674
16788TIP3    H150241   3.938   7.569   6.706
16788TIP3    H250242   3.894   7.432   6.753
16789TIP3   OH250243   7.123   1.250   2.489
16789TIP3    H150244   7.120   1.340   2.456
16789TIP3    H250245   7.173   1.202   2.423
16790TIP3   OH250246   0.057   1.060   3.608
16790TIP3    H150247   0.004   1.014   3.673
16790TIP3    H250248   0.081   1.142   3.650
16791TIP3   OH250249   3.108   8.641   4.521
16791TIP3    H150250   3.056   8.711   4.482
16791TIP3    H250251   3.107   8.658   4.615
16792TIP3   OH250252   3.908   1.387   7.598
16792TIP3    H150253   3.813   1.382   7.586
16792TIP3    H250254   3.922   1.373   7.691
16793TIP3   OH250255   3.204   1.785   0.657
16793TIP3    H150256   3.242   1.831   0.732
16793TIP3    H250257   3.122   1.832   0.640
16794TIP3   OH250258   4.982   1.019   4.374
16794TIP3    H150259   4.945   1.037   4.288
16794TIP3    H250260   4.945   1.086   4.431
16795TIP3   OH250261   8.517   2.190   1.507
16795TIP3    H150262   8.538   2.208   1.416
16795TIP3    H250263   8.593   2.221   1.556
16796TIP3   OH250264   3.233   3.630   5.460
16796TIP3    H150265   3.318   3.646   5.419
16796TIP3    H250266   3.192   3.563   5.407
16797TIP3   OH250267   1.721   7.692   7.210
16797TIP3    H150268   1.811   7.674   7.239
16797TIP3    H250269   1.667   7.637   7.266
16798TIP3   OH250270   9.228   0.848   3.927
16798TIP3    H150271   9.193   0.789   3.860
16798TIP3    H250272   9.177   0.929   3.916
16799TIP3   OH250273   5.517   4.554   2.503
16799TIP3    H150274   5.529   4.461   2.522
16799TIP3    H250275   5.582   4.573   2.434
16800TIP3   OH250276   3.628   2.883   3.163
16800TIP3    H150277   3.550   2.856   3.116
16800TIP3    H250278   3.603   2.964   3.207
16801TIP3   OH250279   4.681   4.763   2.973
16801TIP3    H150280   4.723   4.801   3.050
16801TIP3    H250281   4.670   4.671   2.994
16802TIP3   OH250282   3.444   3.204   4.077
16802TIP3    H150283   3.472   3.136   4.015
16802TIP3    H250284   3.351   3.186   4.092
16803TIP3   OH250285   0.449   1.097   0.267
16803TIP3    H150286   0.445   1.008   0.302
16803TIP3    H250287   0.358   1.117   0.244
16804TIP3   OH250288   4.879   3.459   3.074
16804TIP3    H150289   4.880   3.394   3.004
16804TIP3    H250290   4.803   3.435   3.128
16805TIP3   OH250291   8.305   2.028   4.653
16805TIP3    H150292   8.339   2.048   4.566
16805TIP3    H250293   8.320   1.934   4.663
16806TIP3   OH250294   2.858   3.910   7.471
16806TIP3    H150295   2.773   3.928   7.430
16806TIP3    H250296   2.920   3.960   7.419
16807TIP3   OH250297   4.377   3.253   7.149
16807TIP3    H150298   4.305   3.275   7.208
16807TIP3    H250299   4.433   3.330   7.148
16808TIP3   OH250300   8.207   2.947   4.619
16808TIP3    H150301   8.122   2.981   4.591
16808TIP3    H250302   8.229   2.879   4.554
16809TIP3   OH250303   2.208   0.148   5.793
16809TIP3    H150304   2.167   0.098   5.723
16809TIP3    H250305   2.197   0.094   5.871
16810TIP3   OH250306   2.369   6.048   7.338
16810TIP3    H150307   2.382   5.974   7.279
16810TIP3    H250308   2.301   6.020   7.399
16811TIP3   OH250309   8.032   2.608   7.241
16811TIP3    H150310   8.018   2.514   7.246
16811TIP3    H250311   8.128   2.618   7.242
16812TIP3   OH250312   9.376   7.491   4.361
16812TIP3    H150313   9.461   7.525   4.335
16812TIP3    H250314   9.348   7.547   4.434
16813TIP3   OH250315   4.603   6.541   7.592
16813TIP3    H150316   4.653   6.460   7.594
16813TIP3    H250317   4.640   6.591   7.519
16814TIP3   OH250318   0.693   4.092   5.893
16814TIP3    H150319   0.706   4.173   5.943
16814TIP3    H250320   0.738   4.108   5.810
16815TIP3   OH250321   1.993   8.454   5.992
16815TIP3    H150322   1.988   8.436   5.898
16815TIP3    H250323   1.978   8.548   5.999
16816TIP3   OH250324   4.692   5.418   6.215
16816TIP3    H150325   4.706   5.326   6.238
16816TIP3    H250326   4.674   5.418   6.121
16817TIP3   OH250327   4.204   4.385   6.912
16817TIP3    H150328   4.234   4.362   6.824
16817TIP3    H250329   4.169   4.473   6.903
16818TIP3   OH250330   6.071   3.181   6.965
16818TIP3    H150331   6.128   3.254   6.984
16818TIP3    H250332   6.125   3.103   6.980
16819TIP3   OH250333   5.033   3.164   1.522
16819TIP3    H150334   5.103   3.105   1.548
16819TIP3    H250335   5.059   3.249   1.558
16820TIP3   OH250336   4.405   5.830   0.895
16820TIP3    H150337   4.373   5.827   0.805
16820TIP3    H250338   4.353   5.764   0.941
16821TIP3   OH250339   2.327   5.811   1.918
16821TIP3    H150340   2.386   5.754   1.968
16821TIP3    H250341   2.283   5.752   1.857
16822TIP3   OH250342   8.114   8.709   6.088
16822TIP3    H150343   8.062   8.728   6.010
16822TIP3    H250344   8.094   8.781   6.148
16823TIP3   OH250345   4.399   8.533   3.531
16823TIP3    H150346   4.479   8.585   3.532
16823TIP3    H250347   4.380   8.521   3.438
16824TIP3   OH250348   8.906   2.131   7.480
16824TIP3    H150349   8.937   2.059   7.534
16824TIP3    H250350   8.985   2.183   7.461
16825TIP3   OH250351   9.476   8.011   3.616
16825TIP3    H150352   9.530   8.085   3.591
16825TIP3    H250353   9.507   7.988   3.704
16826TIP3   OH250354   1.663   6.975   1.188
16826TIP3    H150355   1.682   7.063   1.154
16826TIP3    H250356   1.708   6.972   1.273
16827TIP3   OH250357   1.775   2.020   0.808
16827TIP3    H150358   1.857   2.056   0.844
16827TIP3    H250359   1.763   1.938   0.854
16828TIP3   OH250360   8.083   5.135   6.892
16828TIP3    H150361   8.175   5.155   6.908
16828TIP3    H250362   8.046   5.217   6.859
16829TIP3   OH250363   4.112   8.472   4.388
16829TIP3    H150364   4.057   8.505   4.317
16829TIP3    H250365   4.162   8.548   4.417
16830TIP3   OH250366   8.981   7.702   0.729
16830TIP3    H150367   8.954   7.788   0.760
16830TIP3    H250368   8.910   7.643   0.755
16831TIP3   OH250369   5.824   1.449   7.723
16831TIP3    H150370   5.870   1.455   7.640
16831TIP3    H250371   5.745   1.398   7.703
16832TIP3   OH250372   8.606   1.136   6.355
16832TIP3    H150373   8.515   1.118   6.378
16832TIP3    H250374   8.637   1.055   6.315
16833TIP3   OH250375   1.159   7.862   1.137
16833TIP3    H150376   1.228   7.797   1.132
16833TIP3    H250377   1.204   7.946   1.134
16834TIP3   OH250378   6.641   3.537   4.201
16834TIP3    H150379   6.600   3.512   4.118
16834TIP3    H250380   6.734   3.547   4.180
16835TIP3   OH250381   0.076   3.903   4.102
16835TIP3    H150382   0.013   3.950   4.047
16835TIP3    H250383   0.129   3.972   4.141
16836TIP3   OH250384   1.744   4.381   3.186
16836TIP3    H150385   1.774   4.395   3.276
16836TIP3    H250386   1.663   4.331   3.195
16837TIP3   OH250387   4.282   7.873   2.969
16837TIP3    H150388   4.323   7.789   2.990
16837TIP3    H250389   4.189   7.852   2.956
16838TIP3   OH250390   4.848   2.137   2.678
16838TIP3    H150391   4.866   2.175   2.592
16838TIP3    H250392   4.778   2.074   2.663
16839TIP3   OH250393   4.999   8.080   5.903
16839TIP3    H150394   5.065   8.120   5.959
16839TIP3    H250395   4.917   8.092   5.950
16840TIP3   OH250396   6.468   9.004   5.243
16840TIP3    H150397   6.401   9.072   5.233
16840TIP3    H250398   6.549   9.053   5.260
16841TIP3   OH250399   1.076   0.428   7.439
16841TIP3    H150400   1.143   0.495   7.451
16841TIP3    H250401   1.118   0.347   7.466
16842TIP3   OH250402   2.269   6.509   2.861
16842TIP3    H150403   2.247   6.586   2.808
16842TIP3    H250404   2.192   6.452   2.855
16843TIP3   OH250405   6.345   6.226   1.872
16843TIP3    H150406   6.284   6.296   1.894
16843TIP3    H250407   6.295   6.145   1.887
16844TIP3   OH250408   0.502   3.183   2.149
16844TIP3    H150409   0.551   3.150   2.074
16844TIP3    H250410   0.569   3.199   2.216
16845TIP3   OH250411   0.345   5.308   7.521
16845TIP3    H150412   0.405   5.237   7.496
16845TIP3    H250413   0.308   5.339   7.439
16846TIP3   OH250414   2.995   8.654   3.752
16846TIP3    H150415   2.999   8.656   3.848
16846TIP3    H250416   2.923   8.594   3.733
16847TIP3   OH250417   7.864   8.160   2.063
16847TIP3    H150418   7.785   8.110   2.085
16847TIP3    H250419   7.866   8.160   1.967
16848TIP3   OH250420   1.213   0.680   5.210
16848TIP3    H150421   1.220   0.606   5.150
16848TIP3    H250422   1.275   0.744   5.176
16849TIP3   OH250423   3.734   3.255   6.336
16849TIP3    H150424   3.767   3.333   6.380
16849TIP3    H250425   3.797   3.239   6.265
16850TIP3   OH250426   6.153   6.745   1.589
16850TIP3    H150427   6.239   6.730   1.550
16850TIP3    H250428   6.163   6.827   1.637
16851TIP3   OH250429   0.726   4.525   3.436
16851TIP3    H150430   0.690   4.440   3.409
16851TIP3    H250431   0.809   4.532   3.389
16852TIP3   OH250432   5.516   8.780   2.542
16852TIP3    H150433   5.576   8.794   2.615
16852TIP3    H250434   5.570   8.739   2.475
16853TIP3   OH250435   9.054   5.569   0.132
16853TIP3    H150436   9.022   5.583   0.043
16853TIP3    H250437   9.071   5.475   0.137
16854TIP3   OH250438   8.579   3.857   6.665
16854TIP3    H150439   8.552   3.939   6.706
16854TIP3    H250440   8.497   3.810   6.650
16855TIP3   OH250441   8.309   6.444   0.883
16855TIP3    H150442   8.256   6.524   0.874
16855TIP3    H250443   8.279   6.405   0.965
16856TIP3   OH250444   1.918   7.678   5.388
16856TIP3    H150445   1.839   7.624   5.395
16856TIP3    H250446   1.956   7.677   5.476
16857TIP3   OH250447   0.109   1.947   3.341
16857TIP3    H150448   0.105   2.028   3.391
16857TIP3    H250449   0.028   1.947   3.288
16858TIP3   OH250450   3.150   2.554   3.591
16858TIP3    H150451   3.209   2.480   3.579
16858TIP3    H250452   3.074   2.534   3.535
16859TIP3   OH250453   7.594   3.868   1.457
16859TIP3    H150454   7.522   3.823   1.501
16859TIP3    H250455   7.670   3.812   1.471
16860TIP3   OH250456   7.139   2.053   0.556
16860TIP3    H150457   7.060   2.094   0.521
16860TIP3    H250458   7.156   1.979   0.498
16861TIP3   OH250459   4.496   3.662   2.326
16861TIP3    H150460   4.545   3.653   2.244
16861TIP3    H250461   4.562   3.688   2.390
16862TIP3   OH250462   6.794   4.639   3.730
16862TIP3    H150463   6.863   4.704   3.743
16862TIP3    H250464   6.740   4.645   3.808
16863TIP3   OH250465   6.699   3.328   0.801
16863TIP3    H150466   6.774   3.339   0.860
16863TIP3    H250467   6.664   3.416   0.791
16864TIP3   OH250468   9.095   4.336   0.893
16864TIP3    H150469   9.034   4.291   0.952
16864TIP3    H250470   9.181   4.301   0.917
16865TIP3   OH250471   9.399   8.499   6.696
16865TIP3    H150472   9.306   8.479   6.706
16865TIP3    H250473   9.405   8.594   6.708
16866TIP3   OH250474   8.098   5.280   0.931
16866TIP3    H150475   8.097   5.358   0.987
16866TIP3    H250476   8.172   5.294   0.872
16867TIP3   OH250477   6.441   1.607   7.107
16867TIP3    H150478   6.483   1.655   7.035
16867TIP3    H250479   6.397   1.675   7.159
16868TIP3   OH250480   3.391   4.196   3.018
16868TIP3    H150481   3.299   4.172   3.001
16868TIP3    H250482   3.398   4.286   2.987
16869TIP3   OH250483   3.306   8.378   3.926
16869TIP3    H150484   3.272   8.467   3.936
16869TIP3    H250485   3.233   8.321   3.951
16870TIP3   OH250486   3.947   4.983   4.103
16870TIP3    H150487   3.853   4.993   4.089
16870TIP3    H250488   3.978   4.939   4.024
16871TIP3   OH250489   0.883   4.832   6.968
16871TIP3    H150490   0.895   4.895   7.039
16871TIP3    H250491   0.791   4.843   6.942
16872TIP3   OH250492   3.098   5.926   7.625
16872TIP3    H150493   3.040   5.947   7.552
16872TIP3    H250494   3.042   5.929   7.702
16873TIP3   OH250495   1.304   7.274   6.223
16873TIP3    H150496   1.239   7.211   6.194
16873TIP3    H250497   1.354   7.226   6.290
16874TIP3   OH250498   0.712   5.893   0.218
16874TIP3    H150499   0.640   5.846   0.175
16874TIP3    H250500   0.669   5.961   0.270
16875TIP3   OH250501   7.895   8.079   7.072
16875TIP3    H150502   7.854   7.993   7.070
16875TIP3    H250503   7.825   8.140   7.050
16876TIP3   OH250504   4.215   3.328   4.778
16876TIP3    H150505   4.276   3.372   4.720
16876TIP3    H250506   4.146   3.296   4.720
16877TIP3   OH250507   2.388   6.346   0.166
16877TIP3    H150508   2.474   6.338   0.124
16877TIP3    H250509   2.339   6.405   0.109
16878TIP3   OH250510   2.642   2.297   7.508
16878TIP3    H150511   2.655   2.297   7.413
16878TIP3    H250512   2.555   2.258   7.520
16879TIP3   OH250513   0.071   8.253   4.610
16879TIP3    H150514   0.155   8.209   4.599
16879TIP3    H250515   0.082   8.337   4.567
16880TIP3   OH250516   7.053   7.563   0.696
16880TIP3    H150517   7.062   7.485   0.640
16880TIP3    H250518   7.010   7.627   0.640
16881TIP3   OH250519   7.797   4.555   6.358
16881TIP3    H150520   7.828   4.464   6.354
16881TIP3    H250521   7.806   4.587   6.268
16882TIP3   OH250522   1.258   3.188   3.018
16882TIP3    H150523   1.321   3.144   3.075
16882TIP3    H250524   1.176   3.142   3.033
16883TIP3   OH250525   7.876   2.048   0.259
16883TIP3    H150526   7.783   2.050   0.283
16883TIP3    H250527   7.909   2.134   0.285
16884TIP3   OH250528   5.033   4.811   5.817
16884TIP3    H150529   5.054   4.864   5.740
16884TIP3    H250530   5.100   4.743   5.818
16885TIP3   OH250531   5.752   0.029   0.456
16885TIP3    H150532   5.776   0.121   0.469
16885TIP3    H250533   5.676   0.031   0.398
16886TIP3   OH250534   0.006   8.368   1.909
16886TIP3    H150535   0.088   8.412   1.931
16886TIP3    H250536   0.022   8.331   1.823
16887TIP3   OH250537   7.256   4.056   3.545
16887TIP3    H150538   7.163   4.047   3.523
16887TIP3    H250539   7.283   3.967   3.571
16888TIP3   OH250540   3.288   4.126   5.656
16888TIP3    H150541   3.201   4.131   5.695
16888TIP3    H250542   3.289   4.042   5.610
16889TIP3   OH250543   4.207   0.623   0.155
16889TIP3    H150544   4.156   0.545   0.176
16889TIP3    H250545   4.298   0.596   0.168
16890TIP3   OH250546   4.609   0.680   6.463
16890TIP3    H150547   4.650   0.630   6.393
16890TIP3    H250548   4.527   0.711   6.425
16891TIP3   OH250549   6.941   1.907   7.643
16891TIP3    H150550   7.024   1.929   7.686
16891TIP3    H250551   6.929   1.976   7.578
16892TIP3   OH250552   0.133   2.016   1.686
16892TIP3    H150553   0.176   2.008   1.600
16892TIP3    H250554   0.199   2.057   1.742
16893TIP3   OH250555   9.098   1.561   3.020
16893TIP3    H150556   9.027   1.497   3.029
16893TIP3    H250557   9.174   1.509   2.994
16894TIP3   OH250558   0.382   3.393   2.574
16894TIP3    H150559   0.325   3.410   2.498
16894TIP3    H250560   0.363   3.302   2.598
16895TIP3   OH250561   6.700   1.188   3.132
16895TIP3    H150562   6.607   1.187   3.153
16895TIP3    H250563   6.709   1.256   3.065
16896TIP3   OH250564   2.755   7.106   1.420
16896TIP3    H150565   2.685   7.114   1.485
16896TIP3    H250566   2.767   7.195   1.388
16897TIP3   OH250567   7.215   6.696   0.278
16897TIP3    H150568   7.238   6.781   0.315
16897TIP3    H250569   7.146   6.663   0.336
16898TIP3   OH250570   0.777   2.889   3.491
16898TIP3    H150571   0.817   2.944   3.558
16898TIP3    H250572   0.712   2.945   3.449
16899TIP3   OH250573   8.924   1.194   3.673
16899TIP3    H150574   8.851   1.256   3.677
16899TIP3    H250575   8.997   1.244   3.638
16900TIP3   OH250576   7.568   3.543   7.429
16900TIP3    H150577   7.634   3.573   7.367
16900TIP3    H250578   7.619   3.506   7.501
16901TIP3   OH250579   1.716   0.987   1.105
16901TIP3    H150580   1.620   0.983   1.099
16901TIP3    H250581   1.732   1.029   1.190
16902TIP3   OH250582   8.393   6.653   2.462
16902TIP3    H150583   8.407   6.605   2.380
16902TIP3    H250584   8.301   6.638   2.483
16903TIP3   OH250585   6.989   8.508   0.556
16903TIP3    H150586   7.031   8.440   0.503
16903TIP3    H250587   6.953   8.461   0.631
16904TIP3   OH250588   7.878   0.300   3.546
16904TIP3    H150589   7.831   0.377   3.513
16904TIP3    H250590   7.822   0.267   3.617
16905TIP3   OH250591   8.780   3.208   2.870
16905TIP3    H150592   8.693   3.181   2.840
16905TIP3    H250593   8.764   3.248   2.956
16906TIP3   OH250594   4.067   7.779   7.350
16906TIP3    H150595   4.010   7.849   7.319
16906TIP3    H250596   4.015   7.699   7.338
16907TIP3   OH250597   3.095   2.511   1.459
16907TIP3    H150598   3.153   2.553   1.395
16907TIP3    H250599   3.011   2.554   1.448
16908TIP3   OH250600   2.033   5.749   4.587
16908TIP3    H150601   1.996   5.689   4.651
16908TIP3    H250602   1.959   5.775   4.533
16909TIP3   OH250603   5.799   7.004   6.416
16909TIP3    H150604   5.828   6.946   6.346
16909TIP3    H250605   5.772   6.945   6.487
16910TIP3   OH250606   0.264   6.356   5.190
16910TIP3    H150607   0.304   6.278   5.153
16910TIP3    H250608   0.307   6.429   5.146
16911TIP3   OH250609   6.150   0.349   4.046
16911TIP3    H150610   6.100   0.268   4.041
16911TIP3    H250611   6.171   0.370   3.955
16912TIP3   OH250612   7.001   5.110   5.523
16912TIP3    H150613   7.063   5.169   5.566
16912TIP3    H250614   6.971   5.158   5.446
16913TIP3   OH250615   5.561   7.833   0.902
16913TIP3    H150616   5.581   7.743   0.926
16913TIP3    H250617   5.612   7.886   0.963
16914TIP3   OH250618   0.198   3.769   2.623
16914TIP3    H150619   0.139   3.831   2.580
16914TIP3    H250620   0.242   3.725   2.551
16915TIP3   OH250621   2.411   1.945   0.326
16915TIP3    H150622   2.316   1.954   0.334
16915TIP3    H250623   2.424   1.855   0.295
16916TIP3   OH250624   1.690   4.565   1.234
16916TIP3    H150625   1.783   4.577   1.251
16916TIP3    H250626   1.647   4.596   1.314
16917TIP3   OH250627   3.812   4.185   7.482
16917TIP3    H150628   3.865   4.250   7.528
16917TIP3    H250629   3.866   4.157   7.408
16918TIP3   OH250630   5.716   0.287   6.301
16918TIP3    H150631   5.690   0.368   6.345
16918TIP3    H250632   5.799   0.263   6.343
16919TIP3   OH250633   1.933   8.325   0.848
16919TIP3    H150634   1.845   8.322   0.886
16919TIP3    H250635   1.967   8.235   0.859
16920TIP3   OH250636   1.534   6.263   0.522
16920TIP3    H150637   1.525   6.333   0.458
16920TIP3    H250638   1.450   6.216   0.518
16921TIP3   OH250639   9.106   7.294   1.207
16921TIP3    H150640   9.147   7.329   1.286
16921TIP3    H250641   9.013   7.287   1.228
16922TIP3   OH250642   6.091   7.596   2.674
16922TIP3    H150643   6.012   7.602   2.619
16922TIP3    H250644   6.159   7.640   2.622
16923TIP3   OH250645   9.169   6.075   6.474
16923TIP3    H150646   9.167   6.107   6.564
16923TIP3    H250647   9.153   6.153   6.421
16924TIP3   OH250648   1.325   8.950   1.108
16924TIP3    H150649   1.265   8.931   1.180
16924TIP3    H250650   1.287   9.027   1.064
16925TIP3   OH250651   1.414   0.704   0.505
16925TIP3    H150652   1.323   0.716   0.532
16925TIP3    H250653   1.461   0.779   0.543
16926TIP3   OH250654   4.188   0.105   1.504
16926TIP3    H150655   4.265   0.159   1.523
16926TIP3    H250656   4.127   0.165   1.461
16927TIP3   OH250657   2.695   3.193   6.364
16927TIP3    H150658   2.694   3.274   6.416
16927TIP3    H250659   2.658   3.219   6.279
16928TIP3   OH250660   6.128   5.652   4.498
16928TIP3    H150661   6.197   5.703   4.456
16928TIP3    H250662   6.163   5.632   4.585
16929TIP3   OH250663   7.793   1.353   2.407
16929TIP3    H150664   7.866   1.353   2.344
16929TIP3    H250665   7.788   1.445   2.436
16930TIP3   OH250666   3.419   0.048   3.216
16930TIP3    H150667   3.406  -0.021   3.150
16930TIP3    H250668   3.457   0.003   3.291
16931TIP3   OH250669   7.593   3.384   3.310
16931TIP3    H150670   7.541   3.463   3.320
16931TIP3    H250671   7.680   3.408   3.342
16932TIP3   OH250672   4.183   0.617   0.631
16932TIP3    H150673   4.098   0.661   0.629
16932TIP3    H250674   4.166   0.529   0.597
16933TIP3   OH250675   0.825   2.645   1.946
16933TIP3    H150676   0.877   2.699   2.007
16933TIP3    H250677   0.744   2.694   1.934
16934TIP3   OH250678   5.599   6.186   3.733
16934TIP3    H150679   5.559   6.213   3.650
16934TIP3    H250680   5.693   6.182   3.714
16935TIP3   OH250681   9.185   5.102   1.283
16935TIP3    H150682   9.140   5.187   1.283
16935TIP3    H250683   9.118   5.040   1.255
16936TIP3   OH250684   9.254   3.373   3.257
16936TIP3    H150685   9.246   3.297   3.199
16936TIP3    H250686   9.346   3.399   3.251
16937TIP3   OH250687   6.830   1.448   1.032
16937TIP3    H150688   6.836   1.535   0.990
16937TIP3    H250689   6.821   1.467   1.125
16938TIP3   OH250690   4.193   8.340   6.455
16938TIP3    H150691   4.128   8.285   6.499
16938TIP3    H250692   4.249   8.277   6.409
16939TIP3   OH250693   4.554   1.380   5.809
16939TIP3    H150694   4.592   1.387   5.721
16939TIP3    H250695   4.624   1.407   5.868
16940TIP3   OH250696   6.732   6.801   7.383
16940TIP3    H150697   6.777   6.717   7.392
16940TIP3    H250698   6.683   6.795   7.302
16941TIP3   OH250699   7.685   2.556   4.984
16941TIP3    H150700   7.634   2.621   4.934
16941TIP3    H250701   7.685   2.590   5.074
16942TIP3   OH250702   8.851   5.739   2.386
16942TIP3    H150703   8.869   5.674   2.318
16942TIP3    H250704   8.845   5.687   2.467
16943TIP3   OH250705   6.589   1.080   2.179
16943TIP3    H150706   6.682   1.079   2.154
16943TIP3    H250707   6.590   1.060   2.273
16944TIP3   OH250708   2.285   5.967   6.892
16944TIP3    H150709   2.306   5.884   6.935
16944TIP3    H250710   2.362   5.987   6.839
16945TIP3   OH250711   9.109   3.503   7.106
16945TIP3    H150712   9.177   3.440   7.130
16945TIP3    H250713   9.059   3.517   7.187
16946TIP3   OH250714   1.461   6.475   7.094
16946TIP3    H150715   1.438   6.393   7.138
16946TIP3    H250716   1.462   6.453   7.001
16947TIP3   OH250717   0.669   6.135   2.338
16947TIP3    H150718   0.734   6.201   2.314
16947TIP3    H250719   0.702   6.097   2.419
16948TIP3   OH250720   8.539   7.579   6.102
16948TIP3    H150721   8.617   7.633   6.112
16948TIP3    H250722   8.558   7.522   6.028
16949TIP3   OH250723   7.492   7.625   4.226
16949TIP3    H150724   7.488   7.559   4.158
16949TIP3    H250725   7.448   7.585   4.301
16950TIP3   OH250726   1.427   1.665   2.852
16950TIP3    H150727   1.480   1.593   2.885
16950TIP3    H250728   1.415   1.723   2.928
16951TIP3   OH250729   6.763   6.798   5.018
16951TIP3    H150730   6.699   6.769   4.954
16951TIP3    H250731   6.745   6.891   5.031
16952TIP3   OH250732   5.056   3.765   4.626
16952TIP3    H150733   5.048   3.681   4.671
16952TIP3    H250734   4.968   3.803   4.632
16953TIP3   OH250735   1.255   6.893   2.741
16953TIP3    H150736   1.342   6.932   2.735
16953TIP3    H250737   1.219   6.901   2.653
16954TIP3   OH250738   0.476   4.653   1.205
16954TIP3    H150739   0.424   4.627   1.129
16954TIP3    H250740   0.433   4.609   1.279
16955TIP3   OH250741   9.429   8.743   7.665
16955TIP3    H150742   9.451   8.655   7.634
16955TIP3    H250743   9.346   8.764   7.624
16956TIP3   OH250744   8.731   8.869   6.988
16956TIP3    H150745   8.732   8.846   6.896
16956TIP3    H250746   8.712   8.963   6.990
16957TIP3   OH250747   2.526   4.817   7.260
16957TIP3    H150748   2.600   4.777   7.307
16957TIP3    H250749   2.451   4.804   7.318
16958TIP3   OH250750   0.597   3.591   5.405
16958TIP3    H150751   0.661   3.559   5.342
16958TIP3    H250752   0.638   3.580   5.491
16959TIP3   OH250753   4.478   8.909   3.225
16959TIP3    H150754   4.417   8.978   3.197
16959TIP3    H250755   4.459   8.897   3.318
16960TIP3   OH250756   1.419   2.467   1.782
16960TIP3    H150757   1.324   2.467   1.792
16960TIP3    H250758   1.446   2.379   1.808
16961TIP3   OH250759   6.677   1.457   3.309
16961TIP3    H150760   6.730   1.526   3.269
16961TIP3    H250761   6.587   1.479   3.288
16962TIP3   OH250762   7.819   6.301   1.044
16962TIP3    H150763   7.886   6.233   1.052
16962TIP3    H250764   7.738   6.253   1.028
16963TIP3   OH250765   4.525   8.521   3.952
16963TIP3    H150766   4.477   8.463   3.892
16963TIP3    H250767   4.616   8.516   3.922
16964TIP3   OH250768   8.767   5.763   7.213
16964TIP3    H150769   8.776   5.738   7.305
16964TIP3    H250770   8.836   5.829   7.199
16965TIP3   OH250771   7.442   6.425   3.757
16965TIP3    H150772   7.390   6.494   3.716
16965TIP3    H250773   7.532   6.444   3.729
16966TIP3   OH250774   3.527   8.940   0.106
16966TIP3    H150775   3.546   8.994   0.183
16966TIP3    H250776   3.605   8.886   0.096
16967TIP3   OH250777   0.808   2.934   4.254
16967TIP3    H150778   0.894   2.891   4.257
16967TIP3    H250779   0.807   2.991   4.331
16968TIP3   OH250780   2.443   4.104   2.344
16968TIP3    H150781   2.526   4.062   2.320
16968TIP3    H250782   2.379   4.034   2.339
16969TIP3   OH250783   4.571   0.870   0.844
16969TIP3    H150784   4.595   0.858   0.752
16969TIP3    H250785   4.654   0.870   0.891
16970TIP3   OH250786   8.772   6.689   2.530
16970TIP3    H150787   8.738   6.626   2.594
16970TIP3    H250788   8.808   6.634   2.460
16971TIP3   OH250789   0.815   1.498   6.260
16971TIP3    H150790   0.784   1.461   6.343
16971TIP3    H250791   0.744   1.554   6.231
16972TIP3   OH250792   5.155   7.412   5.407
16972TIP3    H150793   5.215   7.424   5.334
16972TIP3    H250794   5.122   7.500   5.426
16973TIP3   OH250795   5.647   0.573   5.497
16973TIP3    H150796   5.721   0.620   5.535
16973TIP3    H250797   5.608   0.636   5.437
16974TIP3   OH250798   8.959   0.585   2.605
16974TIP3    H150799   8.957   0.591   2.700
16974TIP3    H250800   8.917   0.665   2.574
16975TIP3   OH250801   3.146   3.478   2.421
16975TIP3    H150802   3.177   3.410   2.362
16975TIP3    H250803   3.070   3.440   2.464
16976TIP3   OH250804   0.627   1.971   0.863
16976TIP3    H150805   0.719   1.945   0.863
16976TIP3    H250806   0.623   2.047   0.922
16977TIP3   OH250807   7.360   8.312   5.846
16977TIP3    H150808   7.372   8.406   5.861
16977TIP3    H250809   7.447   8.275   5.860
16978TIP3   OH250810   5.413   5.775   4.640
16978TIP3    H150811   5.391   5.867   4.657
16978TIP3    H250812   5.383   5.759   4.551
16979TIP3   OH250813   4.141   4.663   7.130
16979TIP3    H150814   4.099   4.643   7.046
16979TIP3    H250815   4.148   4.578   7.174
16980TIP3   OH250816   1.154   2.429   1.845
16980TIP3    H150817   1.105   2.350   1.824
16980TIP3    H250818   1.119   2.457   1.930
16981TIP3   OH250819   3.967   0.705   5.371
16981TIP3    H150820   3.899   0.773   5.375
16981TIP3    H250821   3.981   0.679   5.462
16982TIP3   OH250822   1.316   1.470   2.295
16982TIP3    H150823   1.337   1.543   2.237
16982TIP3    H250824   1.391   1.411   2.288
16983TIP3   OH250825   5.461   7.056   3.788
16983TIP3    H150826   5.370   7.084   3.801
16983TIP3    H250827   5.513   7.130   3.820
16984TIP3   OH250828   6.218   3.254   2.860
16984TIP3    H150829   6.240   3.237   2.768
16984TIP3    H250830   6.137   3.204   2.874
16985TIP3   OH250831   4.074   4.959   0.835
16985TIP3    H150832   4.147   4.921   0.785
16985TIP3    H250833   4.089   4.930   0.925
16986TIP3   OH250834   1.799   7.442   5.981
16986TIP3    H150835   1.730   7.411   6.039
16986TIP3    H250836   1.855   7.365   5.968
16987TIP3   OH250837   1.449   8.145   6.994
16987TIP3    H150838   1.462   8.065   7.044
16987TIP3    H250839   1.420   8.209   7.059
16988TIP3   OH250840   6.657   1.807   5.551
16988TIP3    H150841   6.596   1.788   5.480
16988TIP3    H250842   6.606   1.792   5.631
16989TIP3   OH250843   6.872   1.908   2.792
16989TIP3    H150844   6.874   1.966   2.716
16989TIP3    H250845   6.963   1.902   2.820
16990TIP3   OH250846   4.193   5.334   1.003
16990TIP3    H150847   4.117   5.294   1.046
16990TIP3    H250848   4.171   5.333   0.910
16991TIP3   OH250849   3.352   5.556   2.481
16991TIP3    H150850   3.376   5.470   2.516
16991TIP3    H250851   3.376   5.618   2.550
16992TIP3   OH250852   3.151   7.883   4.502
16992TIP3    H150853   3.229   7.827   4.507
16992TIP3    H250854   3.090   7.843   4.563
16993TIP3   OH250855   5.982   2.816   4.784
16993TIP3    H150856   5.938   2.781   4.861
16993TIP3    H250857   5.975   2.746   4.719
16994TIP3   OH250858   9.289   7.186   7.288
16994TIP3    H150859   9.284   7.165   7.381
16994TIP3    H250860   9.361   7.133   7.254
16995TIP3   OH250861   9.337   5.649   4.507
16995TIP3    H150862   9.286   5.620   4.582
16995TIP3    H250863   9.338   5.574   4.448
16996TIP3   OH250864   6.778   8.700   6.995
16996TIP3    H150865   6.853   8.664   7.044
16996TIP3    H250866   6.733   8.755   7.058
16997TIP3   OH250867   1.990   4.904   5.475
16997TIP3    H150868   2.037   4.830   5.435
16997TIP3    H250869   1.916   4.864   5.519
16998TIP3   OH250870   6.375   3.033   5.967
16998TIP3    H150871   6.381   2.937   5.966
16998TIP3    H250872   6.285   3.051   5.994
16999TIP3   OH250873   4.196   1.055   2.534
16999TIP3    H150874   4.106   1.085   2.543
16999TIP3    H250875   4.246   1.108   2.596
17000TIP3   OH250876   0.124   8.441   6.669
17000TIP3    H150877   0.139   8.348   6.683
17000TIP3    H250878   0.029   8.449   6.658
17001TIP3   OH250879   6.871   2.551   6.790
17001TIP3    H150880   6.921   2.631   6.805
17001TIP3    H250881   6.926   2.481   6.826
17002TIP3   OH250882   2.763   4.874   4.004
17002TIP3    H150883   2.740   4.793   3.958
17002TIP3    H250884   2.790   4.845   4.091
17003TIP3   OH250885   2.836   2.754   1.650
17003TIP3    H150886   2.887   2.730   1.727
17003TIP3    H250887   2.820   2.671   1.605
17004TIP3   OH250888   5.542   0.593   3.591
17004TIP3    H150889   5.628   0.563   3.622
17004TIP3    H250890   5.482   0.522   3.613
17005TIP3   OH250891   4.995   2.201   4.454
17005TIP3    H150892   5.078   2.168   4.419
17005TIP3    H250893   5.016   2.228   4.543
17006TIP3   OH250894   3.947   1.882   1.911
17006TIP3    H150895   3.877   1.816   1.909
17006TIP3    H250896   3.999   1.860   1.988
17007TIP3   OH250897   6.861   2.568   2.683
17007TIP3    H150898   6.876   2.660   2.661
17007TIP3    H250899   6.820   2.530   2.605
17008TIP3   OH250900   3.624   3.528   2.207
17008TIP3    H150901   3.669   3.474   2.142
17008TIP3    H250902   3.624   3.475   2.286
17009TIP3   OH250903   7.013   2.781   4.043
17009TIP3    H150904   6.989   2.731   3.965
17009TIP3    H250905   7.062   2.720   4.098
17010TIP3   OH250906   6.062   3.361   0.287
17010TIP3    H150907   6.056   3.380   0.193
17010TIP3    H250908   5.978   3.319   0.307
17011TIP3   OH250909   4.325   5.103   6.911
17011TIP3    H150910   4.308   5.090   6.818
17011TIP3    H250911   4.322   5.015   6.949
17012TIP3   OH250912   1.181   5.310   0.597
17012TIP3    H150913   1.213   5.273   0.514
17012TIP3    H250914   1.206   5.244   0.663
17013TIP3   OH250915   1.532   4.083   2.735
17013TIP3    H150916   1.483   4.095   2.816
17013TIP3    H250917   1.474   4.118   2.667
17014TIP3   OH250918   0.656   6.969   7.553
17014TIP3    H150919   0.681   6.980   7.645
17014TIP3    H250920   0.583   7.030   7.541
17015TIP3   OH250921   3.381   4.027   3.694
17015TIP3    H150922   3.408   4.068   3.776
17015TIP3    H250923   3.435   4.069   3.627
17016TIP3   OH250924   6.498   3.698   7.804
17016TIP3    H150925   6.515   3.737   7.890
17016TIP3    H250926   6.456   3.768   7.754
17017TIP3   OH250927   6.527   3.169   2.564
17017TIP3    H150928   6.483   3.117   2.631
17017TIP3    H250929   6.487   3.256   2.572
17018TIP3   OH250930   5.216   1.421   4.491
17018TIP3    H150931   5.175   1.356   4.433
17018TIP3    H250932   5.186   1.397   4.578
17019TIP3   OH250933   4.500   8.376   5.132
17019TIP3    H150934   4.484   8.295   5.083
17019TIP3    H250935   4.430   8.435   5.105
17020TIP3   OH250936   7.728   1.603   1.705
17020TIP3    H150937   7.689   1.536   1.649
17020TIP3    H250938   7.655   1.637   1.757
17021TIP3   OH250939   8.974   2.810   3.593
17021TIP3    H150940   8.986   2.849   3.506
17021TIP3    H250941   9.059   2.820   3.636
17022TIP3   OH250942   7.892   0.444   1.786
17022TIP3    H150943   7.855   0.406   1.706
17022TIP3    H250944   7.923   0.368   1.836
17023TIP3   OH250945   5.588   8.951   6.425
17023TIP3    H150946   5.622   9.011   6.490
17023TIP3    H250947   5.507   8.991   6.395
17024TIP3   OH250948   7.861   4.234   0.409
17024TIP3    H150949   7.808   4.203   0.335
17024TIP3    H250950   7.856   4.330   0.404
17025TIP3   OH250951   0.685   1.424   4.158
17025TIP3    H150952   0.635   1.343   4.160
17025TIP3    H250953   0.658   1.468   4.077
17026TIP3   OH250954   3.688   6.681   0.051
17026TIP3    H150955   3.776   6.654   0.025
17026TIP3    H250956   3.670   6.632   0.131
17027TIP3   OH250957   9.351   0.745   2.938
17027TIP3    H150958   9.445   0.728   2.931
17027TIP3    H250959   9.310   0.676   2.887
17028TIP3   OH250960   2.936   1.868   2.870
17028TIP3    H150961   2.938   1.809   2.945
17028TIP3    H250962   3.029   1.879   2.847
17029TIP3   OH250963   6.250   5.745   5.020
17029TIP3    H150964   6.319   5.811   5.027
17029TIP3    H250965   6.169   5.795   5.019
17030TIP3   OH250966   8.749   5.419   0.731
17030TIP3    H150967   8.759   5.485   0.800
17030TIP3    H250968   8.671   5.446   0.682
17031TIP3   OH250969   9.075   1.793   0.055
17031TIP3    H150970   9.165   1.810   0.025
17031TIP3    H250971   9.052   1.710   0.013
17032TIP3   OH250972   1.146   8.616   5.543
17032TIP3    H150973   1.184   8.664   5.617
17032TIP3    H250974   1.099   8.544   5.584
17033TIP3   OH250975   0.412   5.132   3.245
17033TIP3    H150976   0.380   5.099   3.161
17033TIP3    H250977   0.332   5.154   3.294
17034TIP3   OH250978   3.204   8.636   4.041
17034TIP3    H150979   3.229   8.588   4.120
17034TIP3    H250980   3.121   8.678   4.064
17035TIP3   OH250981   4.611   7.399   5.219
17035TIP3    H150982   4.625   7.378   5.311
17035TIP3    H250983   4.662   7.478   5.204
17036TIP3   OH250984   5.324   0.930   2.871
17036TIP3    H150985   5.243   0.979   2.882
17036TIP3    H250986   5.379   0.958   2.944
17037TIP3   OH250987   5.799   5.725   5.040
17037TIP3    H150988   5.752   5.759   4.964
17037TIP3    H250989   5.759   5.639   5.055
17038TIP3   OH250990   5.880   3.875   0.480
17038TIP3    H150991   5.923   3.811   0.424
17038TIP3    H250992   5.898   3.845   0.569
17039TIP3   OH250993   8.076   7.134   0.941
17039TIP3    H150994   8.143   7.067   0.932
17039TIP3    H250995   8.096   7.177   1.024
17040TIP3   OH250996   7.728   7.126   2.358
17040TIP3    H150997   7.732   7.093   2.448
17040TIP3    H250998   7.817   7.155   2.339
17041TIP3   OH250999   9.000   4.039   4.577
17041TIP3    H151000   9.044   4.045   4.492
17041TIP3    H251001   8.954   4.122   4.586
17042TIP3   OH251002   3.716   4.271   5.121
17042TIP3    H151003   3.802   4.302   5.093
17042TIP3    H251004   3.654   4.331   5.079
17043TIP3   OH251005   8.478   8.618   3.370
17043TIP3    H151006   8.440   8.534   3.397
17043TIP3    H251007   8.484   8.668   3.452
17044TIP3   OH251008   8.977   1.777   5.942
17044TIP3    H151009   9.068   1.797   5.964
17044TIP3    H251010   8.956   1.835   5.870
17045TIP3   OH251011   0.894   3.859   2.795
17045TIP3    H151012   0.906   3.920   2.722
17045TIP3    H251013   0.800   3.855   2.808
17046TIP3   OH251014   4.672   1.839   1.587
17046TIP3    H151015   4.642   1.897   1.517
17046TIP3    H251016   4.593   1.795   1.618
17047TIP3   OH251017   7.091   7.211   3.359
17047TIP3    H151018   7.029   7.178   3.293
17047TIP3    H251019   7.117   7.133   3.408
17048TIP3   OH251020   5.380   5.918   3.154
17048TIP3    H151021   5.422   5.979   3.093
17048TIP3    H251022   5.350   5.973   3.226
17049TIP3   OH251023   9.070   2.468   7.163
17049TIP3    H151024   9.134   2.539   7.163
17049TIP3    H251025   9.007   2.492   7.095
17050TIP3   OH251026   8.714   3.896   1.911
17050TIP3    H151027   8.680   3.950   1.840
17050TIP3    H251028   8.803   3.927   1.926
17051TIP3   OH251029   1.593   2.779   2.161
17051TIP3    H151030   1.595   2.712   2.230
17051TIP3    H251031   1.638   2.854   2.200
17052TIP3   OH251032   0.016   5.679   7.726
17052TIP3    H151033  -0.025   5.761   7.753
17052TIP3    H251034   0.034   5.691   7.632
17053TIP3   OH251035   6.326   2.787   6.670
17053TIP3    H151036   6.343   2.711   6.614
17053TIP3    H251037   6.307   2.750   6.756
17054TIP3   OH251038   4.840   3.954   5.166
17054TIP3    H151039   4.864   3.994   5.249
17054TIP3    H251040   4.924   3.940   5.122
17055TIP3   OH251041   4.373   3.682   6.784
17055TIP3    H151042   4.354   3.766   6.741
17055TIP3    H251043   4.311   3.678   6.857
17056TIP3   OH251044   3.599   4.867   5.129
17056TIP3    H151045   3.586   4.947   5.179
17056TIP3    H251046   3.539   4.804   5.168
17057TIP3   OH251047   3.710   2.020   2.852
17057TIP3    H151048   3.790   1.968   2.865
17057TIP3    H251049   3.722   2.097   2.908
17058TIP3   OH251050   1.846   6.631   3.850
17058TIP3    H151051   1.900   6.674   3.784
17058TIP3    H251052   1.795   6.701   3.890
17059TIP3   OH251053   4.917   2.598   5.128
17059TIP3    H151054   4.896   2.573   5.038
17059TIP3    H251055   4.874   2.531   5.182
17060TIP3   OH251056   4.429   6.056   4.729
17060TIP3    H151057   4.500   6.058   4.793
17060TIP3    H251058   4.450   5.981   4.673
17061TIP3   OH251059   6.148   2.441   7.513
17061TIP3    H151060   6.055   2.435   7.533
17061TIP3    H251061   6.192   2.439   7.598
17062TIP3   OH251062   1.886   8.520   5.396
17062TIP3    H151063   1.902   8.601   5.445
17062TIP3    H251064   1.791   8.508   5.399
17063TIP3   OH251065   0.088   2.625   2.765
17063TIP3    H151066   0.124   2.537   2.757
17063TIP3    H251067  -0.007   2.611   2.770
17064TIP3   OH251068   0.680   5.008   3.546
17064TIP3    H151069   0.727   4.933   3.511
17064TIP3    H251070   0.738   5.083   3.530
17065TIP3   OH251071   5.493   0.314   0.919
17065TIP3    H151072   5.516   0.347   1.006
17065TIP3    H251073   5.401   0.340   0.908
17066TIP3   OH251074   0.342   6.565   6.941
17066TIP3    H151075   0.353   6.482   6.988
17066TIP3    H251076   0.279   6.545   6.872
17067TIP3   OH251077   4.761   7.859   2.625
17067TIP3    H151078   4.719   7.908   2.555
17067TIP3    H251079   4.800   7.783   2.582
17068TIP3   OH251080   1.029   4.259   6.473
17068TIP3    H151081   0.950   4.214   6.504
17068TIP3    H251082   1.065   4.302   6.550
17069TIP3   OH251083   4.550   2.326   5.012
17069TIP3    H151084   4.587   2.298   5.096
17069TIP3    H251085   4.602   2.280   4.947
17070TIP3   OH251086   4.695   6.554   2.413
17070TIP3    H151087   4.709   6.510   2.329
17070TIP3    H251088   4.658   6.486   2.470
17071TIP3   OH251089   3.719   1.072   0.266
17071TIP3    H151090   3.631   1.086   0.300
17071TIP3    H251091   3.768   1.150   0.292
17072TIP3   OH251092   9.047   2.251   4.775
17072TIP3    H151093   9.065   2.334   4.819
17072TIP3    H251094   8.953   2.252   4.760
17073TIP3   OH251095   1.026   6.493   7.453
17073TIP3    H151096   1.024   6.585   7.479
17073TIP3    H251097   1.086   6.452   7.516
17074TIP3   OH251098   2.802   6.882   4.211
17074TIP3    H151099   2.726   6.825   4.201
17074TIP3    H251100   2.766   6.964   4.245
17075TIP3   OH251101   1.116   3.107   6.892
17075TIP3    H151102   1.097   3.148   6.808
17075TIP3    H251103   1.096   3.014   6.878
17076TIP3   OH251104   2.415   3.716   5.520
17076TIP3    H151105   2.468   3.731   5.442
17076TIP3    H251106   2.339   3.773   5.509
17077TIP3   OH251107   0.965   7.170   4.289
17077TIP3    H151108   0.946   7.172   4.383
17077TIP3    H251109   1.005   7.255   4.271
17078TIP3   OH251110   4.711   0.641   1.483
17078TIP3    H151111   4.650   0.586   1.532
17078TIP3    H251112   4.656   0.703   1.435
17079TIP3   OH251113   1.215   3.269   1.792
17079TIP3    H151114   1.200   3.317   1.874
17079TIP3    H251115   1.132   3.225   1.775
17080TIP3   OH251116   8.769   3.196   0.719
17080TIP3    H151117   8.838   3.248   0.760
17080TIP3    H251118   8.714   3.168   0.792
17081TIP3   OH251119   7.216   5.746   4.739
17081TIP3    H151120   7.179   5.779   4.657
17081TIP3    H251121   7.171   5.796   4.807
17082TIP3   OH251122   8.394   2.423   7.002
17082TIP3    H151123   8.345   2.440   6.921
17082TIP3    H251124   8.431   2.335   6.989
17083TIP3   OH251125   4.608   7.587   6.448
17083TIP3    H151126   4.632   7.497   6.469
17083TIP3    H251127   4.522   7.599   6.488
17084TIP3   OH251128   9.164   6.274   7.670
17084TIP3    H151129   9.230   6.208   7.689
17084TIP3    H251130   9.171   6.290   7.576
17085TIP3   OH251131   8.207   1.960   3.736
17085TIP3    H151132   8.214   1.910   3.817
17085TIP3    H251133   8.115   1.951   3.710
17086TIP3   OH251134   3.966   0.168   4.372
17086TIP3    H151135   3.897   0.117   4.331
17086TIP3    H251136   4.032   0.103   4.399
17087TIP3   OH251137   6.786   5.628   5.355
17087TIP3    H151138   6.707   5.575   5.343
17087TIP3    H251139   6.841   5.606   5.280
17088TIP3   OH251140   3.882   6.881   7.753
17088TIP3    H151141   3.836   6.965   7.763
17088TIP3    H251142   3.944   6.897   7.682
17089TIP3   OH251143   0.345   1.060   7.799
17089TIP3    H151144   0.356   1.085   7.707
17089TIP3    H251145   0.429   1.021   7.824
17090TIP3   OH251146   5.540   6.198   6.118
17090TIP3    H151147   5.565   6.142   6.045
17090TIP3    H251148   5.455   6.166   6.146
17091TIP3   OH251149   4.223   2.849   3.925
17091TIP3    H151150   4.166   2.785   3.968
17091TIP3    H251151   4.302   2.800   3.904
17092TIP3   OH251152   4.714   0.485   7.744
17092TIP3    H151153   4.767   0.421   7.696
17092TIP3    H251154   4.687   0.439   7.823
17093TIP3   OH251155   7.693   8.782   1.112
17093TIP3    H151156   7.742   8.844   1.058
17093TIP3    H251157   7.682   8.705   1.056
17094TIP3   OH251158   7.397   1.908   6.627
17094TIP3    H151159   7.303   1.923   6.625
17094TIP3    H251160   7.419   1.899   6.719
17095TIP3   OH251161   5.924   6.397   5.406
17095TIP3    H151162   5.925   6.368   5.315
17095TIP3    H251163   5.885   6.324   5.454
17096TIP3   OH251164   7.085   8.718   0.350
17096TIP3    H151165   7.178   8.695   0.340
17096TIP3    H251166   7.040   8.634   0.351
17097TIP3   OH251167   5.913   0.670   1.062
17097TIP3    H151168   5.914   0.720   1.144
17097TIP3    H251169   5.880   0.733   0.997
17098TIP3   OH251170   1.000   4.366   3.446
17098TIP3    H151171   0.978   4.351   3.354
17098TIP3    H251172   1.006   4.278   3.484
17099TIP3   OH251173   8.420   1.504   3.759
17099TIP3    H151174   8.345   1.556   3.729
17099TIP3    H251175   8.490   1.525   3.697
17100TIP3   OH251176   4.776   4.375   7.109
17100TIP3    H151177   4.818   4.291   7.127
17100TIP3    H251178   4.724   4.359   7.031
17101TIP3   OH251179   2.348   3.019   0.702
17101TIP3    H151180   2.311   2.951   0.758
17101TIP3    H251181   2.392   3.079   0.763
17102TIP3   OH251182   7.397   7.687   6.110
17102TIP3    H151183   7.453   7.763   6.092
17102TIP3    H251184   7.355   7.709   6.194
17103TIP3   OH251185   0.967   0.074   3.968
17103TIP3    H151186   1.044   0.100   3.917
17103TIP3    H251187   0.999   0.073   4.059
17104TIP3   OH251188   4.416   3.229   6.172
17104TIP3    H151189   4.493   3.211   6.120
17104TIP3    H251190   4.360   3.152   6.160
17105TIP3   OH251191   2.656   0.093   1.952
17105TIP3    H151192   2.729   0.057   2.003
17105TIP3    H251193   2.635   0.024   1.889
17106TIP3   OH251194   1.554   5.457   6.007
17106TIP3    H151195   1.524   5.530   6.062
17106TIP3    H251196   1.630   5.422   6.054
17107TIP3   OH251197   4.201   7.161   1.627
17107TIP3    H151198   4.250   7.086   1.660
17107TIP3    H251199   4.109   7.137   1.637
17108TIP3   OH251200   6.182   1.921   6.031
17108TIP3    H151201   6.089   1.940   6.014
17108TIP3    H251202   6.181   1.875   6.116
17109TIP3   OH251203   6.846   8.537   6.386
17109TIP3    H151204   6.820   8.478   6.315
17109TIP3    H251205   6.892   8.480   6.448
17110TIP3   OH251206   4.546   0.183   2.521
17110TIP3    H151207   4.477   0.179   2.454
17110TIP3    H251208   4.628   0.183   2.471
17111TIP3   OH251209   6.998   1.360   0.112
17111TIP3    H151210   7.052   1.288   0.079
17111TIP3    H251211   6.917   1.318   0.140
17112TIP3   OH251212   9.285   7.045   2.087
17112TIP3    H151213   9.260   7.078   2.174
17112TIP3    H251214   9.380   7.056   2.084
17113TIP3   OH251215   2.225   6.484   4.222
17113TIP3    H151216   2.226   6.432   4.303
17113TIP3    H251217   2.233   6.418   4.152
17114TIP3   OH251218   1.958   2.608   4.628
17114TIP3    H151219   1.881   2.625   4.683
17114TIP3    H251220   1.938   2.526   4.584
17115TIP3   OH251221   1.568   6.218   7.226
17115TIP3    H151222   1.487   6.173   7.250
17115TIP3    H251223   1.623   6.149   7.189
17116TIP3   OH251224   5.331   5.626   2.268
17116TIP3    H151225   5.265   5.569   2.228
17116TIP3    H251226   5.308   5.627   2.361
17117TIP3   OH251227   8.665   5.734   6.157
17117TIP3    H151228   8.694   5.801   6.094
17117TIP3    H251229   8.590   5.773   6.201
17118TIP3   OH251230   0.687   8.119   7.753
17118TIP3    H151231   0.675   8.026   7.772
17118TIP3    H251232   0.668   8.127   7.659
17119TIP3   OH251233   9.283   5.617   0.786
17119TIP3    H151234   9.271   5.630   0.881
17119TIP3    H251235   9.310   5.526   0.778
17120TIP3   OH251236   0.234   5.724   1.773
17120TIP3    H151237   0.251   5.772   1.692
17120TIP3    H251238   0.158   5.670   1.755
17121TIP3   OH251239   6.526   4.353   3.558
17121TIP3    H151240   6.460   4.368   3.491
17121TIP3    H251241   6.478   4.359   3.641
17122TIP3   OH251242   7.090   2.854   7.431
17122TIP3    H151243   7.177   2.822   7.406
17122TIP3    H251244   7.081   2.937   7.385
17123TIP3   OH251245   6.515   1.507   0.211
17123TIP3    H151246   6.597   1.539   0.250
17123TIP3    H251247   6.446   1.551   0.260
17124TIP3   OH251248   5.720   1.741   6.769
17124TIP3    H151249   5.710   1.648   6.787
17124TIP3    H251250   5.656   1.784   6.826
17125TIP3   OH251251   8.967   3.474   2.798
17125TIP3    H151252   8.998   3.429   2.719
17125TIP3    H251253   8.872   3.480   2.786
17126TIP3   OH251254   2.500   7.957   2.088
17126TIP3    H151255   2.552   7.879   2.069
17126TIP3    H251256   2.508   7.968   2.183
17127TIP3   OH251257   6.143   6.101   2.757
17127TIP3    H151258   6.205   6.036   2.725
17127TIP3    H251259   6.191   6.184   2.752
17128TIP3   OH251260   0.412   5.417   0.066
17128TIP3    H151261   0.330   5.434   0.018
17128TIP3    H251262   0.396   5.454   0.153
17129TIP3   OH251263   4.507   6.975   7.362
17129TIP3    H151264   4.432   6.923   7.391
17129TIP3    H251265   4.469   7.039   7.302
17130TIP3   OH251266   6.199   0.848   7.787
17130TIP3    H151267   6.187   0.770   7.733
17130TIP3    H251268   6.248   0.909   7.731
17131TIP3   OH251269   1.918   2.235   2.859
17131TIP3    H151270   1.983   2.205   2.922
17131TIP3    H251271   1.901   2.159   2.803
17132TIP3   OH251272   3.189   5.204   3.121
17132TIP3    H151273   3.269   5.250   3.094
17132TIP3    H251274   3.140   5.269   3.171
17133TIP3   OH251275   4.835   3.450   5.695
17133TIP3    H151276   4.784   3.426   5.618
17133TIP3    H251277   4.778   3.429   5.769
17134TIP3   OH251278   4.792   0.410   1.350
17134TIP3    H151279   4.812   0.354   1.425
17134TIP3    H251280   4.767   0.494   1.389
17135TIP3   OH251281   0.670   7.273   2.076
17135TIP3    H151282   0.579   7.301   2.069
17135TIP3    H251283   0.683   7.256   2.170
17136TIP3   OH251284   9.330   7.545   1.627
17136TIP3    H151285   9.361   7.544   1.718
17136TIP3    H251286   9.386   7.611   1.584
17137TIP3   OH251287   3.511   1.583   3.335
17137TIP3    H151288   3.480   1.626   3.415
17137TIP3    H251289   3.527   1.493   3.361
17138TIP3   OH251290   6.064   0.258   2.947
17138TIP3    H151291   6.105   0.245   3.033
17138TIP3    H251292   6.106   0.193   2.891
17139TIP3   OH251293   9.475   4.782   6.351
17139TIP3    H151294   9.526   4.834   6.413
17139TIP3    H251295   9.525   4.701   6.339
17140TIP3   OH251296   6.270   6.372   2.518
17140TIP3    H151297   6.308   6.444   2.568
17140TIP3    H251298   6.345   6.327   2.479
17141TIP3   OH251299   4.458   6.591   2.902
17141TIP3    H151300   4.551   6.616   2.903
17141TIP3    H251301   4.413   6.664   2.943
17142TIP3   OH251302   0.017   2.926   4.382
17142TIP3    H151303   0.026   2.867   4.457
17142TIP3    H251304   0.062   3.006   4.408
17143TIP3   OH251305   6.044   1.662   1.965
17143TIP3    H151306   6.033   1.572   1.997
17143TIP3    H251307   6.139   1.676   1.964
17144TIP3   OH251308   0.987   2.325   6.818
17144TIP3    H151309   1.063   2.371   6.782
17144TIP3    H251310   0.935   2.301   6.742
17145TIP3   OH251311   4.392   2.441   4.676
17145TIP3    H151312   4.330   2.371   4.698
17145TIP3    H251313   4.444   2.405   4.604
17146TIP3   OH251314   0.154   0.258   2.731
17146TIP3    H151315   0.083   0.279   2.670
17146TIP3    H251316   0.199   0.341   2.745
17147TIP3   OH251317   1.353   2.989   1.864
17147TIP3    H151318   1.351   3.002   1.959
17147TIP3    H251319   1.408   2.912   1.851
17148TIP3   OH251320   6.111   2.069   3.277
17148TIP3    H151321   6.067   2.008   3.335
17148TIP3    H251322   6.161   2.013   3.217
17149TIP3   OH251323   8.721   3.207   0.139
17149TIP3    H151324   8.754   3.122   0.109
17149TIP3    H251325   8.769   3.224   0.220
17150TIP3   OH251326   0.054   4.050   1.268
17150TIP3    H151327   0.137   4.092   1.289
17150TIP3    H251328   0.055   3.968   1.317
17151TIP3   OH251329   3.433   3.368   1.009
17151TIP3    H151330   3.371   3.420   0.957
17151TIP3    H251331   3.477   3.433   1.064
17152TIP3   OH251332   4.547   4.509   4.557
17152TIP3    H151333   4.613   4.542   4.617
17152TIP3    H251334   4.464   4.535   4.597
17153TIP3   OH251335   6.735   0.395   0.265
17153TIP3    H151336   6.729   0.399   0.360
17153TIP3    H251337   6.738   0.487   0.237
17154TIP3   OH251338   6.160   5.857   1.459
17154TIP3    H151339   6.148   5.884   1.550
17154TIP3    H251340   6.197   5.769   1.464
17155TIP3   OH251341   4.574   3.575   6.615
17155TIP3    H151342   4.549   3.614   6.531
17155TIP3    H251343   4.503   3.599   6.675
17156TIP3   OH251344   1.944   6.392   0.299
17156TIP3    H151345   1.925   6.350   0.215
17156TIP3    H251346   1.879   6.461   0.306
17157TIP3   OH251347   4.142   6.269   3.137
17157TIP3    H151348   4.185   6.334   3.081
17157TIP3    H251349   4.050   6.295   3.136
17158TIP3   OH251350   3.217   7.383   1.008
17158TIP3    H151351   3.135   7.421   1.039
17158TIP3    H251352   3.192   7.297   0.975
17159TIP3   OH251353   1.427   3.695   0.292
17159TIP3    H151354   1.380   3.707   0.209
17159TIP3    H251355   1.370   3.735   0.358
17160TIP3   OH251356   6.062   0.297   1.786
17160TIP3    H151357   6.134   0.236   1.770
17160TIP3    H251358   5.983   0.246   1.769
17161TIP3   OH251359   6.998   4.350   0.525
17161TIP3    H151360   7.083   4.355   0.569
17161TIP3    H251361   6.994   4.261   0.490
17162TIP3   OH251362   1.805   2.672   6.413
17162TIP3    H151363   1.760   2.607   6.360
17162TIP3    H251364   1.772   2.658   6.502
17163TIP3   OH251365   1.003   6.527   2.152
17163TIP3    H151366   0.935   6.460   2.149
17163TIP3    H251367   1.029   6.531   2.244
17164TIP3   OH251368   3.690   8.945   6.927
17164TIP3    H151369   3.753   8.883   6.890
17164TIP3    H251370   3.621   8.952   6.860
17165TIP3   OH251371   2.580   7.101   6.436
17165TIP3    H151372   2.536   7.103   6.351
17165TIP3    H251373   2.631   7.020   6.436
17166TIP3   OH251374   3.953   7.625   5.152
17166TIP3    H151375   4.029   7.682   5.157
17166TIP3    H251376   3.895   7.668   5.089
17167TIP3   OH251377   1.862   4.897   5.855
17167TIP3    H151378   1.931   4.835   5.832
17167TIP3    H251379   1.783   4.859   5.816
17168TIP3   OH251380   4.270   8.302   7.148
17168TIP3    H151381   4.323   8.354   7.208
17168TIP3    H251382   4.221   8.243   7.205
17169TIP3   OH251383   0.661   8.464   6.107
17169TIP3    H151384   0.619   8.499   6.185
17169TIP3    H251385   0.608   8.497   6.034
17170TIP3   OH251386   5.160   8.675   3.897
17170TIP3    H151387   5.076   8.667   3.941
17170TIP3    H251388   5.220   8.619   3.947
17171TIP3   OH251389   3.757   8.809   0.026
17171TIP3    H151390   3.769   8.839  -0.064
17171TIP3    H251391   3.807   8.872   0.079
17172TIP3   OH251392   8.008   4.287   7.553
17172TIP3    H151393   7.938   4.258   7.495
17172TIP3    H251394   8.022   4.379   7.530
17173TIP3   OH251395   7.124   5.870   0.064
17173TIP3    H151396   7.165   5.901   0.145
17173TIP3    H251397   7.052   5.815   0.093
17174TIP3   OH251398   1.807   8.352   1.242
17174TIP3    H151399   1.725   8.392   1.214
17174TIP3    H251400   1.798   8.260   1.218
17175TIP3   OH251401   6.266   8.721   2.521
17175TIP3    H151402   6.282   8.809   2.557
17175TIP3    H251403   6.335   8.710   2.455
17176TIP3   OH251404   5.203   2.608   3.189
17176TIP3    H151405   5.174   2.693   3.223
17176TIP3    H251406   5.169   2.606   3.099
17177TIP3   OH251407   5.607   7.229   4.306
17177TIP3    H151408   5.513   7.215   4.292
17177TIP3    H251409   5.628   7.304   4.250
17178TIP3   OH251410   2.127   5.626   3.483
17178TIP3    H151411   2.078   5.570   3.543
17178TIP3    H251412   2.094   5.714   3.501
17179TIP3   OH251413   8.134   6.097   3.321
17179TIP3    H151414   8.170   6.171   3.272
17179TIP3    H251415   8.048   6.081   3.280
17180TIP3   OH251416   0.077   0.466   4.014
17180TIP3    H151417  -0.007   0.456   3.969
17180TIP3    H251418   0.064   0.542   4.071
17181TIP3   OH251419   6.116   1.990   5.596
17181TIP3    H151420   6.067   2.018   5.518
17181TIP3    H251421   6.157   1.908   5.570
17182TIP3   OH251422   8.093   5.119   3.092
17182TIP3    H151423   8.174   5.108   3.041
17182TIP3    H251424   8.030   5.153   3.029
17183TIP3   OH251425   4.143   7.262   7.457
17183TIP3    H151426   4.138   7.210   7.538
17183TIP3    H251427   4.144   7.353   7.487
17184TIP3   OH251428   4.755   5.535   5.186
17184TIP3    H151429   4.718   5.524   5.099
17184TIP3    H251430   4.739   5.451   5.229
17185TIP3   OH251431   0.539   1.535   5.487
17185TIP3    H151432   0.568   1.486   5.410
17185TIP3    H251433   0.613   1.589   5.511
17186TIP3   OH251434   2.408   2.738   6.646
17186TIP3    H151435   2.361   2.664   6.608
17186TIP3    H251436   2.492   2.703   6.674
17187TIP3   OH251437   7.011   4.390   7.778
17187TIP3    H151438   7.086   4.444   7.752
17187TIP3    H251439   6.991   4.339   7.699
17188TIP3   OH251440   1.941   7.407   4.153
17188TIP3    H151441   1.851   7.411   4.186
17188TIP3    H251442   1.991   7.462   4.213
17189TIP3   OH251443   5.476   5.299   7.314
17189TIP3    H151444   5.448   5.282   7.404
17189TIP3    H251445   5.569   5.318   7.321
17190TIP3   OH251446   9.365   2.056   2.515
17190TIP3    H151447   9.307   2.058   2.592
17190TIP3    H251448   9.307   2.077   2.441
17191TIP3   OH251449   0.586   5.167   4.731
17191TIP3    H151450   0.631   5.098   4.683
17191TIP3    H251451   0.576   5.133   4.820
17192TIP3   OH251452   9.007   2.668   0.476
17192TIP3    H151453   8.977   2.704   0.559
17192TIP3    H251454   8.938   2.606   0.451
17193TIP3   OH251455   4.047   5.125   0.208
17193TIP3    H151456   4.072   5.044   0.162
17193TIP3    H251457   3.951   5.123   0.208
17194TIP3   OH251458   7.578   5.953   4.816
17194TIP3    H151459   7.668   5.928   4.797
17194TIP3    H251460   7.546   5.991   4.735
17195TIP3   OH251461   5.254   0.579   2.579
17195TIP3    H151462   5.164   0.561   2.606
17195TIP3    H251463   5.252   0.666   2.541
17196TIP3   OH251464   4.241   5.097   5.979
17196TIP3    H151465   4.313   5.035   5.988
17196TIP3    H251466   4.268   5.173   6.030
17197TIP3   OH251467   3.014   7.140   3.436
17197TIP3    H151468   2.977   7.068   3.487
17197TIP3    H251469   3.002   7.114   3.345
17198TIP3   OH251470   9.452   3.711   2.395
17198TIP3    H151471   9.399   3.728   2.318
17198TIP3    H251472   9.438   3.618   2.415
17199TIP3   OH251473   7.250   7.907   5.340
17199TIP3    H151474   7.302   7.908   5.260
17199TIP3    H251475   7.171   7.859   5.316
17200TIP3   OH251476   0.981   7.670   5.810
17200TIP3    H151477   0.942   7.755   5.832
17200TIP3    H251478   0.973   7.664   5.715
17201TIP3   OH251479   8.764   3.467   1.020
17201TIP3    H151480   8.839   3.421   0.984
17201TIP3    H251481   8.773   3.458   1.115
17202TIP3   OH251482   8.160   3.407   6.859
17202TIP3    H151483   8.188   3.325   6.900
17202TIP3    H251484   8.197   3.404   6.771
17203TIP3   OH251485   0.104   1.041   1.170
17203TIP3    H151486   0.018   1.059   1.209
17203TIP3    H251487   0.163   1.102   1.215
17204TIP3   OH251488   7.699   8.169   2.814
17204TIP3    H151489   7.728   8.210   2.896
17204TIP3    H251490   7.606   8.152   2.827
17205TIP3   OH251491   8.575   6.707   7.671
17205TIP3    H151492   8.502   6.652   7.699
17205TIP3    H251493   8.567   6.711   7.575
17206TIP3   OH251494   9.518   1.014   6.290
17206TIP3    H151495   9.450   1.075   6.261
17206TIP3    H251496   9.557   0.982   6.209
17207TIP3   OH251497   0.145   0.953   6.497
17207TIP3    H151498   0.130   0.861   6.522
17207TIP3    H251499   0.085   0.967   6.423
17208TIP3   OH251500   9.001   6.617   1.168
17208TIP3    H151501   8.961   6.551   1.224
17208TIP3    H251502   8.958   6.699   1.192
17209TIP3   OH251503   6.328   1.699   2.001
17209TIP3    H151504   6.397   1.671   1.941
17209TIP3    H251505   6.362   1.679   2.088
17210TIP3   OH251506   5.620   4.421   0.503
17210TIP3    H151507   5.700   4.451   0.459
17210TIP3    H251508   5.549   4.465   0.456
17211TIP3   OH251509   5.816   1.177   0.476
17211TIP3    H151510   5.811   1.155   0.383
17211TIP3    H251511   5.882   1.119   0.511
17212TIP3   OH251512   1.216   3.530   0.886
17212TIP3    H151513   1.267   3.505   0.809
17212TIP3    H251514   1.129   3.552   0.851
17213TIP3   OH251515   0.910   5.784   5.071
17213TIP3    H151516   0.965   5.717   5.030
17213TIP3    H251517   0.823   5.744   5.074
17214TIP3   OH251518   6.219   8.406   4.908
17214TIP3    H151519   6.244   8.369   4.823
17214TIP3    H251520   6.278   8.481   4.919
17215TIP3   OH251521   1.752   8.597   1.826
17215TIP3    H151522   1.679   8.541   1.800
17215TIP3    H251523   1.797   8.548   1.895
17216TIP3   OH251524   8.971   1.385   4.727
17216TIP3    H151525   8.940   1.384   4.818
17216TIP3    H251526   8.894   1.361   4.675
17217TIP3   OH251527   0.783   4.565   6.727
17217TIP3    H151528   0.874   4.582   6.704
17217TIP3    H251529   0.753   4.645   6.768
17218TIP3   OH251530   5.303   5.881   2.850
17218TIP3    H151531   5.389   5.839   2.847
17218TIP3    H251532   5.286   5.894   2.943
17219TIP3   OH251533   3.346   7.876   4.835
17219TIP3    H151534   3.339   7.961   4.879
17219TIP3    H251535   3.312   7.892   4.747
17220TIP3   OH251536   3.971   2.591   4.344
17220TIP3    H151537   3.959   2.672   4.395
17220TIP3    H251538   4.001   2.527   4.409
17221TIP3   OH251539   8.886   2.939   0.108
17221TIP3    H151540   8.956   2.875   0.095
17221TIP3    H251541   8.835   2.904   0.181
17222TIP3   OH251542   7.285   7.612   1.811
17222TIP3    H151543   7.251   7.525   1.790
17222TIP3    H251544   7.378   7.608   1.787
17223TIP3   OH251545   9.057   7.083   3.926
17223TIP3    H151546   9.090   7.092   4.015
17223TIP3    H251547   8.965   7.107   3.932
17224TIP3   OH251548   9.296   2.525   7.781
17224TIP3    H151549   9.245   2.451   7.746
17224TIP3    H251550   9.359   2.484   7.840
17225TIP3   OH251551   2.532   1.855   2.217
17225TIP3    H151552   2.566   1.829   2.303
17225TIP3    H251553   2.574   1.939   2.198
17226TIP3   OH251554   3.827   5.640   7.039
17226TIP3    H151555   3.798   5.559   6.997
17226TIP3    H251556   3.880   5.610   7.113
17227TIP3   OH251557   4.637   5.705   1.041
17227TIP3    H151558   4.673   5.636   0.985
17227TIP3    H251559   4.596   5.767   0.980
17228TIP3   OH251560   2.768   7.970   0.486
17228TIP3    H151561   2.690   7.942   0.439
17228TIP3    H251562   2.776   7.909   0.559
17229TIP3   OH251563   8.860   6.679   7.263
17229TIP3    H151564   8.952   6.656   7.247
17229TIP3    H251565   8.811   6.627   7.199
17230TIP3   OH251566   8.580   6.579   5.909
17230TIP3    H151567   8.500   6.536   5.878
17230TIP3    H251568   8.625   6.607   5.830
17231TIP3   OH251569   9.426   5.173   7.772
17231TIP3    H151570   9.396   5.231   7.842
17231TIP3    H251571   9.497   5.123   7.812
17232TIP3   OH251572   7.195   6.442   6.544
17232TIP3    H151573   7.135   6.386   6.593
17232TIP3    H251574   7.247   6.486   6.611
17233TIP3   OH251575   6.904   0.456   6.709
17233TIP3    H151576   6.907   0.393   6.637
17233TIP3    H251577   6.989   0.500   6.706
17234TIP3   OH251578   1.491   4.807   6.746
17234TIP3    H151579   1.410   4.758   6.761
17234TIP3    H251580   1.494   4.870   6.818
17235TIP3   OH251581   0.573   1.165   3.944
17235TIP3    H151582   0.546   1.212   3.865
17235TIP3    H251583   0.538   1.076   3.932
17236TIP3   OH251584   2.248   6.266   4.020
17236TIP3    H151585   2.283   6.246   3.933
17236TIP3    H251586   2.221   6.181   4.055
17237TIP3   OH251587   9.079   8.525   6.913
17237TIP3    H151588   9.059   8.615   6.886
17237TIP3    H251589   9.143   8.535   6.983
17238TIP3   OH251590   7.600   0.956   4.221
17238TIP3    H151591   7.627   0.868   4.248
17238TIP3    H251592   7.669   1.014   4.254
17239TIP3   OH251593   5.298   1.491   0.544
17239TIP3    H151594   5.349   1.572   0.540
17239TIP3    H251595   5.279   1.479   0.637
17240TIP3   OH251596   0.897   1.513   4.654
17240TIP3    H151597   0.837   1.460   4.601
17240TIP3    H251598   0.841   1.560   4.715
17241TIP3   OH251599   8.797   8.239   0.571
17241TIP3    H151600   8.746   8.180   0.627
17241TIP3    H251601   8.735   8.267   0.504
17242TIP3   OH251602   3.115   1.547   7.131
17242TIP3    H151603   3.129   1.470   7.076
17242TIP3    H251604   3.023   1.569   7.119
17243TIP3   OH251605   9.291   1.234   1.016
17243TIP3    H151606   9.251   1.208   0.933
17243TIP3    H251607   9.227   1.292   1.057
17244TIP3   OH251608   6.227   4.477   7.039
17244TIP3    H151609   6.298   4.533   7.072
17244TIP3    H251610   6.209   4.510   6.952
17245TIP3   OH251611   6.532   3.096   0.804
17245TIP3    H151612   6.580   3.177   0.818
17245TIP3    H251613   6.572   3.056   0.727
17246TIP3   OH251614   1.055   3.030   6.092
17246TIP3    H151615   1.146   3.010   6.114
17246TIP3    H251616   1.006   3.007   6.171
17247TIP3   OH251617   6.047   5.083   5.000
17247TIP3    H151618   6.101   5.151   4.960
17247TIP3    H251619   6.051   5.101   5.094
17248TIP3   OH251620   7.073   4.095   0.089
17248TIP3    H151621   7.065   4.013   0.040
17248TIP3    H251622   7.114   4.156   0.027
17249TIP3   OH251623   6.705   0.889   3.127
17249TIP3    H151624   6.694   0.866   3.219
17249TIP3    H251625   6.706   0.985   3.127
17250TIP3   OH251626   7.768   0.233   2.264
17250TIP3    H151627   7.834   0.170   2.295
17250TIP3    H251628   7.685   0.187   2.272
17251TIP3   OH251629   5.173   5.916   4.542
17251TIP3    H151630   5.184   6.004   4.508
17251TIP3    H251631   5.163   5.861   4.464
17252TIP3   OH251632   6.566   4.282   0.113
17252TIP3    H151633   6.606   4.196   0.103
17252TIP3    H251634   6.473   4.264   0.124
17253TIP3   OH251635   1.008   3.257   4.866
17253TIP3    H151636   0.989   3.320   4.935
17253TIP3    H251637   1.010   3.172   4.910
17254TIP3   OH251638   5.657   6.361   7.785
17254TIP3    H151639   5.577   6.372   7.734
17254TIP3    H251640   5.638   6.287   7.843
17255TIP3   OH251641   7.082   2.503   0.008
17255TIP3    H151642   7.143   2.573   0.031
17255TIP3    H251643   7.032   2.488   0.088
17256TIP3   OH251644   5.782   2.307   4.585
17256TIP3    H151645   5.791   2.377   4.521
17256TIP3    H251646   5.695   2.270   4.568
17257TIP3   OH251647   9.022   4.820   2.489
17257TIP3    H151648   9.095   4.778   2.444
17257TIP3    H251649   9.020   4.779   2.575
17258TIP3   OH251650   2.424   1.137   0.354
17258TIP3    H151651   2.474   1.084   0.415
17258TIP3    H251652   2.333   1.123   0.379
17259TIP3   OH251653   7.409   5.577   1.117
17259TIP3    H151654   7.322   5.617   1.120
17259TIP3    H251655   7.400   5.504   1.057
17260TIP3   OH251656   7.209   8.694   5.130
17260TIP3    H151657   7.294   8.655   5.106
17260TIP3    H251658   7.192   8.758   5.061
17261TIP3   OH251659   2.042   0.524   2.426
17261TIP3    H151660   2.057   0.490   2.514
17261TIP3    H251661   1.980   0.596   2.438
17262TIP3   OH251662   6.964   7.977   4.008
17262TIP3    H151663   6.975   8.046   3.943
17262TIP3    H251664   7.019   8.004   4.082
17263TIP3   OH251665   2.811   1.364   1.736
17263TIP3    H151666   2.833   1.443   1.785
17263TIP3    H251667   2.883   1.353   1.674
17264TIP3   OH251668   8.202   0.980   7.365
17264TIP3    H151669   8.187   0.919   7.438
17264TIP3    H251670   8.222   0.923   7.291
17265TIP3   OH251671   6.204   5.445   5.818
17265TIP3    H151672   6.274   5.402   5.866
17265TIP3    H251673   6.190   5.390   5.741
17266TIP3   OH251674   3.641   6.257   3.774
17266TIP3    H151675   3.674   6.205   3.848
17266TIP3    H251676   3.719   6.285   3.728
17267TIP3   OH251677   5.995   6.959   7.119
17267TIP3    H151678   6.039   6.958   7.204
17267TIP3    H251679   6.065   6.949   7.055
17268TIP3   OH251680   8.026   5.525   6.504
17268TIP3    H151681   7.955   5.559   6.450
17268TIP3    H251682   8.011   5.564   6.590
17269TIP3   OH251683   4.353   2.458   5.578
17269TIP3    H151684   4.312   2.484   5.660
17269TIP3    H251685   4.282   2.458   5.514
17270TIP3   OH251686   0.097   7.445   2.770
17270TIP3    H151687   0.174   7.502   2.775
17270TIP3    H251688   0.128   7.360   2.802
17271TIP3   OH251689   6.162   4.436   2.322
17271TIP3    H151690   6.222   4.508   2.301
17271TIP3    H251691   6.214   4.357   2.306
17272TIP3   OH251692   3.925   4.380   4.970
17272TIP3    H151693   4.016   4.412   4.968
17272TIP3    H251694   3.933   4.285   4.970
17273TIP3   OH251695   8.729   7.740   4.821
17273TIP3    H151696   8.751   7.763   4.731
17273TIP3    H251697   8.639   7.708   4.816
17274TIP3   OH251698   4.700   1.029   2.016
17274TIP3    H151699   4.690   1.117   1.979
17274TIP3    H251700   4.770   1.038   2.081
17275TIP3   OH251701   3.396   2.670   1.971
17275TIP3    H151702   3.319   2.723   1.992
17275TIP3    H251703   3.468   2.713   2.017
17276TIP3   OH251704   5.497   8.597   2.885
17276TIP3    H151705   5.420   8.618   2.937
17276TIP3    H251706   5.568   8.588   2.950
17277TIP3   OH251707   5.958   6.096   1.186
17277TIP3    H151708   5.977   6.177   1.138
17277TIP3    H251709   5.901   6.123   1.257
17278TIP3   OH251710   8.298   7.235   4.889
17278TIP3    H151711   8.268   7.162   4.835
17278TIP3    H251712   8.360   7.282   4.833
17279TIP3   OH251713   9.082   4.946   5.499
17279TIP3    H151714   9.041   4.862   5.479
17279TIP3    H251715   9.010   5.001   5.529
17280TIP3   OH251716   1.312   2.986   3.689
17280TIP3    H151717   1.351   2.951   3.609
17280TIP3    H251718   1.374   3.052   3.719
17281TIP3   OH251719   1.342   5.835   2.255
17281TIP3    H151720   1.376   5.889   2.183
17281TIP3    H251721   1.290   5.768   2.211
17282TIP3   OH251722   7.974   0.377   0.170
17282TIP3    H151723   7.895   0.324   0.166
17282TIP3    H251724   7.973   0.416   0.258
17283TIP3   OH251725   1.832   0.137   1.762
17283TIP3    H151726   1.894   0.064   1.763
17283TIP3    H251727   1.792   0.132   1.675
17284TIP3   OH251728   7.251   8.462   4.866
17284TIP3    H151729   7.261   8.513   4.786
17284TIP3    H251730   7.157   8.460   4.883
17285TIP3   OH251731   1.155   0.551   2.302
17285TIP3    H151732   1.132   0.467   2.262
17285TIP3    H251733   1.250   0.553   2.303
17286TIP3   OH251734   4.090   0.541   2.768
17286TIP3    H151735   4.047   0.469   2.814
17286TIP3    H251736   4.181   0.539   2.798
17287TIP3   OH251737   0.440   7.198   4.136
17287TIP3    H151738   0.412   7.109   4.113
17287TIP3    H251739   0.512   7.185   4.197
17288TIP3   OH251740   2.514   4.351   0.170
17288TIP3    H151741   2.494   4.374   0.079
17288TIP3    H251742   2.556   4.429   0.206
17289TIP3   OH251743   8.606   2.185   5.474
17289TIP3    H151744   8.659   2.263   5.459
17289TIP3    H251745   8.622   2.130   5.397
17290TIP3   OH251746   8.781   6.666   5.745
17290TIP3    H151747   8.762   6.620   5.663
17290TIP3    H251748   8.876   6.666   5.751
17291TIP3   OH251749   9.267   3.753   3.975
17291TIP3    H151750   9.197   3.808   3.940
17291TIP3    H251751   9.290   3.793   4.058
17292TIP3   OH251752   3.014   5.014   5.206
17292TIP3    H151753   3.092   4.991   5.155
17292TIP3    H251754   2.959   4.935   5.203
17293TIP3   OH251755   8.602   7.489   2.567
17293TIP3    H151756   8.648   7.569   2.541
17293TIP3    H251757   8.538   7.475   2.497
17294TIP3   OH251758   3.339   3.174   5.348
17294TIP3    H151759   3.413   3.114   5.356
17294TIP3    H251760   3.376   3.254   5.311
17295TIP3   OH251761   3.946   1.957   1.335
17295TIP3    H151762   3.891   2.014   1.281
17295TIP3    H251763   3.965   1.882   1.278
17296TIP3   OH251764   8.873   5.545   3.511
17296TIP3    H151765   8.944   5.481   3.514
17296TIP3    H251766   8.819   5.525   3.587
17297TIP3   OH251767   5.441   3.622   2.927
17297TIP3    H151768   5.424   3.623   3.021
17297TIP3    H251769   5.355   3.628   2.886
17298TIP3   OH251770   3.262   1.355   1.379
17298TIP3    H151771   3.260   1.382   1.470
17298TIP3    H251772   3.355   1.343   1.359
17299TIP3   OH251773   0.209   4.042   6.224
17299TIP3    H151774   0.164   4.112   6.177
17299TIP3    H251775   0.267   4.086   6.285
17300TIP3   OH251776   0.440   6.320   5.434
17300TIP3    H151777   0.421   6.230   5.460
17300TIP3    H251778   0.353   6.358   5.416
17301TIP3   OH251779   3.293   4.866   1.371
17301TIP3    H151780   3.227   4.841   1.436
17301TIP3    H251781   3.320   4.954   1.398
17302TIP3   OH251782   7.886   8.058   3.784
17302TIP3    H151783   7.852   8.139   3.822
17302TIP3    H251784   7.817   8.029   3.724
17303TIP3   OH251785   7.949   3.429   5.603
17303TIP3    H151786   8.027   3.477   5.578
17303TIP3    H251787   7.893   3.494   5.646
17304TIP3   OH251788   1.972   5.083   2.138
17304TIP3    H151789   1.920   5.069   2.060
17304TIP3    H251790   1.922   5.041   2.208
17305TIP3   OH251791   7.366   3.393   0.457
17305TIP3    H151792   7.398   3.465   0.512
17305TIP3    H251793   7.276   3.416   0.437
17306TIP3   OH251794   8.740   0.175   1.318
17306TIP3    H151795   8.753   0.115   1.391
17306TIP3    H251796   8.708   0.120   1.246
17307TIP3   OH251797   7.194   4.326   4.443
17307TIP3    H151798   7.105   4.325   4.476
17307TIP3    H251799   7.184   4.329   4.347
17308TIP3   OH251800   7.280   3.739   1.372
17308TIP3    H151801   7.316   3.802   1.435
17308TIP3    H251802   7.252   3.794   1.298
17309TIP3   OH251803   2.073   0.498   7.267
17309TIP3    H151804   2.023   0.523   7.189
17309TIP3    H251805   2.011   0.449   7.321
17310TIP3   OH251806   5.659   7.646   3.109
17310TIP3    H151807   5.626   7.562   3.077
17310TIP3    H251808   5.751   7.647   3.084
17311TIP3   OH251809   4.475   0.909   2.540
17311TIP3    H151810   4.558   0.882   2.500
17311TIP3    H251811   4.428   0.827   2.555
17312TIP3   OH251812   1.070   2.992   3.797
17312TIP3    H151813   1.007   3.053   3.759
17312TIP3    H251814   1.154   3.015   3.756
17313TIP3   OH251815   7.366   3.826   0.346
17313TIP3    H151816   7.423   3.777   0.406
17313TIP3    H251817   7.315   3.884   0.402
17314TIP3   OH251818   6.260   4.057   1.341
17314TIP3    H151819   6.250   4.131   1.401
17314TIP3    H251820   6.335   4.081   1.286
17315TIP3   OH251821   2.647   8.429   7.116
17315TIP3    H151822   2.653   8.336   7.094
17315TIP3    H251823   2.687   8.474   7.041
17316TIP3   OH251824   7.456   5.689   2.072
17316TIP3    H151825   7.482   5.760   2.130
17316TIP3    H251826   7.521   5.689   2.002
17317TIP3   OH251827   2.676   8.143   3.102
17317TIP3    H151828   2.587   8.114   3.122
17317TIP3    H251829   2.712   8.170   3.186
17318TIP3   OH251830   5.629   5.734   2.381
17318TIP3    H151831   5.610   5.647   2.345
17318TIP3    H251832   5.660   5.785   2.307
17319TIP3   OH251833   6.946   6.243   6.191
17319TIP3    H151834   6.919   6.334   6.184
17319TIP3    H251835   6.974   6.219   6.102
17320TIP3   OH251836   7.633   3.652   2.359
17320TIP3    H151837   7.698   3.583   2.376
17320TIP3    H251838   7.576   3.616   2.292
17321TIP3   OH251839   4.244   6.781   1.160
17321TIP3    H151840   4.200   6.722   1.100
17321TIP3    H251841   4.174   6.836   1.195
17322TIP3   OH251842   4.050   3.772   5.880
17322TIP3    H151843   4.026   3.688   5.843
17322TIP3    H251844   4.116   3.807   5.820
17323TIP3   OH251845   6.735   7.824   3.965
17323TIP3    H151846   6.655   7.869   3.937
17323TIP3    H251847   6.799   7.894   3.980
17324TIP3   OH251848   4.089   0.652   5.767
17324TIP3    H151849   4.099   0.568   5.812
17324TIP3    H251850   4.034   0.704   5.826
17325TIP3   OH251851   5.654   6.846   1.131
17325TIP3    H151852   5.582   6.907   1.117
17325TIP3    H251853   5.712   6.860   1.056
17326TIP3   OH251854   5.969   3.499   0.601
17326TIP3    H151855   6.036   3.531   0.661
17326TIP3    H251856   5.997   3.410   0.579
17327TIP3   OH251857   6.333   7.319   1.486
17327TIP3    H151858   6.296   7.236   1.457
17327TIP3    H251859   6.427   7.302   1.492
17328TIP3   OH251860   2.990   5.567   6.959
17328TIP3    H151861   3.020   5.492   7.010
17328TIP3    H251862   2.900   5.582   6.988
17329TIP3   OH251863   9.076   5.950   3.633
17329TIP3    H151864   9.118   6.023   3.678
17329TIP3    H251865   9.118   5.948   3.547
17330TIP3   OH251866   2.916   4.211   1.108
17330TIP3    H151867   2.968   4.205   1.188
17330TIP3    H251868   2.860   4.134   1.110
17331TIP3   OH251869   0.720   6.841   3.293
17331TIP3    H151870   0.743   6.818   3.383
17331TIP3    H251871   0.801   6.875   3.256
17332TIP3   OH251872   2.037   5.705   7.198
17332TIP3    H151873   2.066   5.673   7.283
17332TIP3    H251874   1.959   5.653   7.177
17333TIP3   OH251875   1.201   0.782   3.501
17333TIP3    H151876   1.140   0.843   3.542
17333TIP3    H251877   1.267   0.764   3.568
17334TIP3   OH251878   6.373   0.740   7.078
17334TIP3    H151879   6.400   0.674   7.013
17334TIP3    H251880   6.434   0.728   7.151
17335TIP3   OH251881   7.992   1.831   7.145
17335TIP3    H151882   8.051   1.782   7.202
17335TIP3    H251883   7.914   1.776   7.138
17336TIP3   OH251884   3.642   0.702   2.132
17336TIP3    H151885   3.646   0.692   2.037
17336TIP3    H251886   3.558   0.745   2.148
17337TIP3   OH251887   6.294   3.094   0.555
17337TIP3    H151888   6.386   3.072   0.568
17337TIP3    H251889   6.269   3.048   0.475
17338TIP3   OH251890   7.371   6.005   0.713
17338TIP3    H151891   7.409   5.928   0.671
17338TIP3    H251892   7.359   5.980   0.805
17339TIP3   OH251893   8.942   4.243   0.195
17339TIP3    H151894   9.027   4.215   0.228
17339TIP3    H251895   8.882   4.174   0.223
17340TIP3   OH251896   0.469   0.269   4.747
17340TIP3    H151897   0.547   0.295   4.698
17340TIP3    H251898   0.402   0.333   4.722
17341TIP3   OH251899   1.357   1.378   5.284
17341TIP3    H151900   1.389   1.414   5.367
17341TIP3    H251901   1.381   1.286   5.286
17342TIP3   OH251902   6.791   5.296   3.336
17342TIP3    H151903   6.820   5.206   3.353
17342TIP3    H251904   6.769   5.330   3.423
17343TIP3   OH251905   3.936   5.509   2.236
17343TIP3    H151906   3.874   5.541   2.301
17343TIP3    H251907   3.908   5.548   2.154
17344TIP3   OH251908   3.950   8.565   4.196
17344TIP3    H151909   3.877   8.507   4.217
17344TIP3    H251910   3.911   8.653   4.199
17345TIP3   OH251911   4.336   0.630   5.251
17345TIP3    H151912   4.394   0.555   5.261
17345TIP3    H251913   4.311   0.654   5.340
17346TIP3   OH251914   5.775   8.328   7.170
17346TIP3    H151915   5.683   8.343   7.191
17346TIP3    H251916   5.801   8.406   7.122
17347TIP3   OH251917   2.528   1.828   5.336
17347TIP3    H151918   2.604   1.811   5.280
17347TIP3    H251919   2.563   1.828   5.425
17348TIP3   OH251920   0.083   1.511   4.753
17348TIP3    H151921   0.025   1.579   4.717
17348TIP3    H251922   0.064   1.510   4.847
17349TIP3   OH251923   9.318   4.906   6.174
17349TIP3    H151924   9.240   4.945   6.214
17349TIP3    H251925   9.350   4.845   6.241
17350TIP3   OH251926   4.566   1.556   5.074
17350TIP3    H151927   4.625   1.563   5.000
17350TIP3    H251928   4.500   1.624   5.059
17351TIP3   OH251929   5.747   1.510   5.671
17351TIP3    H151930   5.722   1.422   5.700
17351TIP3    H251931   5.821   1.534   5.727
17352TIP3   OH251932   3.318   4.152   6.795
17352TIP3    H151933   3.352   4.085   6.736
17352TIP3    H251934   3.392   4.172   6.853
17353TIP3   OH251935   7.418   3.969   3.090
17353TIP3    H151936   7.404   3.882   3.127
17353TIP3    H251937   7.383   3.964   3.001
17354TIP3   OH251938   9.402   4.488   2.235
17354TIP3    H151939   9.481   4.540   2.250
17354TIP3    H251940   9.435   4.402   2.209
17355TIP3   OH251941   4.775   8.774   6.112
17355TIP3    H151942   4.730   8.754   6.030
17355TIP3    H251943   4.717   8.742   6.181
17356TIP3   OH251944   7.381   6.278   6.878
17356TIP3    H151945   7.427   6.260   6.959
17356TIP3    H251946   7.323   6.203   6.865
17357TIP3   OH251947   2.515   7.935   0.845
17357TIP3    H151948   2.519   7.892   0.759
17357TIP3    H251949   2.435   7.902   0.885
17358TIP3   OH251950   4.656   7.125   1.054
17358TIP3    H151951   4.737   7.129   1.003
17358TIP3    H251952   4.619   7.039   1.036
17359TIP3   OH251953   7.439   6.097   1.132
17359TIP3    H151954   7.501   6.132   1.068
17359TIP3    H251955   7.494   6.070   1.206
17360TIP3   OH251956   8.684   4.999   7.143
17360TIP3    H151957   8.600   5.035   7.173
17360TIP3    H251958   8.745   5.019   7.214
17361TIP3   OH251959   6.022   8.121   0.195
17361TIP3    H151960   6.036   8.213   0.217
17361TIP3    H251961   5.927   8.111   0.192
17362TIP3   OH251962   4.836   7.195   0.717
17362TIP3    H151963   4.796   7.118   0.676
17362TIP3    H251964   4.863   7.249   0.643
17363TIP3   OH251965   6.625   7.879   0.084
17363TIP3    H151966   6.675   7.940   0.030
17363TIP3    H251967   6.536   7.913   0.082
17364TIP3   OH251968   3.275   7.948   6.202
17364TIP3    H151969   3.273   7.855   6.227
17364TIP3    H251970   3.184   7.970   6.184
17365TIP3   OH251971   1.164   0.774   6.995
17365TIP3    H151972   1.156   0.680   6.979
17365TIP3    H251973   1.174   0.782   7.089
17366TIP3   OH251974   5.631   6.598   5.243
17366TIP3    H151975   5.725   6.585   5.255
17366TIP3    H251976   5.622   6.690   5.220
17367TIP3   OH251977   5.899   8.074   5.361
17367TIP3    H151978   5.879   7.980   5.359
17367TIP3    H251979   5.982   8.081   5.314
17368TIP3   OH251980   0.311   5.983   3.422
17368TIP3    H151981   0.234   5.927   3.430
17368TIP3    H251982   0.380   5.924   3.391
17369TIP3   OH251983   3.375   4.704   6.830
17369TIP3    H151984   3.346   4.700   6.739
17369TIP3    H251985   3.347   4.620   6.867
17370TIP3   OH251986   1.056   2.997   4.950
17370TIP3    H151987   1.135   2.995   5.005
17370TIP3    H251988   1.085   2.960   4.866
17371TIP3   OH251989   1.658   5.651   6.283
17371TIP3    H151990   1.565   5.676   6.289
17371TIP3    H251991   1.693   5.705   6.213
17372TIP3   OH251992   5.056   6.852   1.306
17372TIP3    H151993   5.007   6.792   1.362
17372TIP3    H251994   4.992   6.883   1.242
17373TIP3   OH251995   6.820   6.841   1.018
17373TIP3    H151996   6.839   6.933   1.001
17373TIP3    H251997   6.748   6.820   0.958
17374TIP3   OH251998   3.243   0.241   4.402
17374TIP3    H151999   3.169   0.231   4.462
17374TIP3    H252000   3.301   0.304   4.445
17375TIP3   OH252001   1.403   8.815   0.078
17375TIP3    H152002   1.430   8.855   0.160
17375TIP3    H252003   1.457   8.736   0.071
17376TIP3   OH252004   1.170   2.246   1.520
17376TIP3    H152005   1.155   2.296   1.439
17376TIP3    H252006   1.119   2.166   1.508
17377TIP3   OH252007   4.173   2.898   4.940
17377TIP3    H152008   4.092   2.889   4.889
17377TIP3    H252009   4.235   2.839   4.896
17378TIP3   OH252010   6.295   8.063   5.558
17378TIP3    H152011   6.284   7.968   5.567
17378TIP3    H252012   6.373   8.073   5.504
17379TIP3   OH252013   8.259   1.208   0.979
17379TIP3    H152014   8.324   1.153   1.023
17379TIP3    H252015   8.180   1.198   1.032
17380TIP3   OH252016   1.296   5.242   5.793
17380TIP3    H152017   1.271   5.253   5.702
17380TIP3    H252018   1.250   5.163   5.822
17381TIP3   OH252019   0.301   5.634   2.049
17381TIP3    H152020   0.277   5.725   2.027
17381TIP3    H252021   0.351   5.642   2.130
17382TIP3   OH252022   4.284   5.914   5.026
17382TIP3    H152023   4.289   5.819   5.040
17382TIP3    H252024   4.371   5.946   5.050
17383TIP3   OH252025   3.785   1.603   6.502
17383TIP3    H152026   3.856   1.623   6.441
17383TIP3    H252027   3.808   1.517   6.538
17384TIP3   OH252028   7.139   5.435   0.902
17384TIP3    H152029   7.114   5.392   0.820
17384TIP3    H252030   7.213   5.384   0.935
17385TIP3   OH252031   6.784   0.191   5.080
17385TIP3    H152032   6.782   0.129   5.007
17385TIP3    H252033   6.694   0.192   5.113
17386TIP3   OH252034   5.616   6.210   1.200
17386TIP3    H152035   5.609   6.131   1.252
17386TIP3    H252036   5.671   6.269   1.252
17387TIP3   OH252037   5.966   7.714   3.213
17387TIP3    H152038   5.966   7.696   3.119
17387TIP3    H252039   5.972   7.627   3.253
17388TIP3   OH252040   8.646   8.722   4.759
17388TIP3    H152041   8.731   8.702   4.800
17388TIP3    H252042   8.658   8.810   4.722
17389TIP3   OH252043   5.916   0.704   0.097
17389TIP3    H152044   5.901   0.732   0.007
17389TIP3    H252045   5.831   0.712   0.140
17390TIP3   OH252046   3.029   4.990   7.343
17390TIP3    H152047   3.058   5.054   7.409
17390TIP3    H252048   3.031   4.906   7.389
17391TIP3   OH252049   2.762   0.350   6.690
17391TIP3    H152050   2.796   0.348   6.601
17391TIP3    H252051   2.688   0.412   6.687
17392TIP3   OH252052   3.756   6.650   4.321
17392TIP3    H152053   3.804   6.728   4.296
17392TIP3    H252054   3.824   6.585   4.339
17393TIP3   OH252055   2.555   9.002   2.048
17393TIP3    H152056   2.597   9.026   2.131
17393TIP3    H252057   2.477   9.057   2.044
17394TIP3   OH252058   0.399   3.182   7.060
17394TIP3    H152059   0.472   3.244   7.066
17394TIP3    H252060   0.331   3.219   7.117
17395TIP3   OH252061   1.902   3.168   2.179
17395TIP3    H152062   1.915   3.242   2.120
17395TIP3    H252063   1.927   3.091   2.128
17396TIP3   OH252064   9.322   1.925   6.489
17396TIP3    H152065   9.313   2.020   6.476
17396TIP3    H252066   9.358   1.916   6.577
17397TIP3   OH252067   0.706   5.626   7.789
17397TIP3    H152068   0.784   5.570   7.783
17397TIP3    H252069   0.632   5.565   7.785
17398TIP3   OH252070   8.950   6.596   2.073
17398TIP3    H152071   8.925   6.599   1.981
17398TIP3    H252072   9.009   6.671   2.084
17399TIP3   OH252073   0.100   3.565   3.744
17399TIP3    H152074   0.136   3.524   3.665
17399TIP3    H252075   0.166   3.630   3.770
17400TIP3   OH252076   6.209   3.854   4.171
17400TIP3    H152077   6.170   3.934   4.207
17400TIP3    H252078   6.256   3.883   4.093
17401TIP3   OH252079   0.254   0.184   5.950
17401TIP3    H152080   0.190   0.160   5.883
17401TIP3    H252081   0.339   0.162   5.911
17402TIP3   OH252082   0.403   0.034   2.263
17402TIP3    H152083   0.371  -0.016   2.187
17402TIP3    H252084   0.496   0.010   2.269
17403TIP3   OH252085   6.085   4.186   5.809
17403TIP3    H152086   5.998   4.156   5.781
17403TIP3    H252087   6.144   4.116   5.783
17404TIP3   OH252088   2.952   2.529   5.629
17404TIP3    H152089   3.021   2.562   5.571
17404TIP3    H252090   2.876   2.585   5.609
17405TIP3   OH252091   1.050   0.244   3.541
17405TIP3    H152092   1.109   0.319   3.539
17405TIP3    H252093   1.005   0.245   3.457
17406TIP3   OH252094   2.831   2.017   3.908
17406TIP3    H152095   2.909   1.983   3.950
17406TIP3    H252096   2.822   2.106   3.941
17407TIP3   OH252097   6.937   7.736   0.507
17407TIP3    H152098   6.851   7.706   0.536
17407TIP3    H252099   6.918   7.796   0.435
17408TIP3   OH252100   1.024   1.527   2.341
17408TIP3    H152101   1.118   1.520   2.325
17408TIP3    H252102   0.996   1.601   2.286
17409TIP3   OH252103   2.681   7.547   0.755
17409TIP3    H152104   2.730   7.519   0.832
17409TIP3    H252105   2.636   7.468   0.725
17410TIP3   OH252106   4.967   0.238   5.843
17410TIP3    H152107   4.953   0.288   5.923
17410TIP3    H252108   5.033   0.173   5.867
17411TIP3   OH252109   3.779   5.430   2.554
17411TIP3    H152110   3.791   5.511   2.504
17411TIP3    H252111   3.860   5.420   2.604
17412TIP3   OH252112   4.759   8.017   6.266
17412TIP3    H152113   4.706   7.972   6.332
17412TIP3    H252114   4.770   7.953   6.196
17413TIP3   OH252115   0.506   5.416   6.541
17413TIP3    H152116   0.485   5.368   6.461
17413TIP3    H252117   0.476   5.359   6.612
17414TIP3   OH252118   0.601   5.871   3.730
17414TIP3    H152119   0.649   5.941   3.685
17414TIP3    H252120   0.640   5.790   3.698
17415TIP3   OH252121   7.200   7.100   6.084
17415TIP3    H152122   7.271   7.117   6.022
17415TIP3    H252123   7.235   7.032   6.142
17416TIP3   OH252124   8.438   0.264   1.956
17416TIP3    H152125   8.361   0.255   2.013
17416TIP3    H252126   8.402   0.296   1.874
17417TIP3   OH252127   3.346   3.573   6.385
17417TIP3    H152128   3.295   3.582   6.466
17417TIP3    H252129   3.381   3.484   6.388
17418TIP3   OH252130   4.955   1.951   3.883
17418TIP3    H152131   5.023   2.011   3.914
17418TIP3    H252132   5.003   1.879   3.841
17419TIP3   OH252133   4.604   5.675   2.984
17419TIP3    H152134   4.558   5.655   3.066
17419TIP3    H252135   4.677   5.731   3.011
17420TIP3   OH252136   8.739   1.301   2.908
17420TIP3    H152137   8.831   1.326   2.894
17420TIP3    H252138   8.743   1.210   2.937
17421TIP3   OH252139   2.477   7.882   4.313
17421TIP3    H152140   2.420   7.901   4.238
17421TIP3    H252141   2.437   7.807   4.356
17422TIP3   OH252142   9.344   1.430   4.098
17422TIP3    H152143   9.439   1.415   4.102
17422TIP3    H252144   9.317   1.430   4.190
17423TIP3   OH252145   8.331   3.189   7.438
17423TIP3    H152146   8.247   3.171   7.396
17423TIP3    H252147   8.377   3.246   7.376
17424TIP3   OH252148   4.622   3.800   5.115
17424TIP3    H152149   4.656   3.711   5.130
17424TIP3    H252150   4.697   3.857   5.129
17425TIP3   OH252151   1.417   5.400   4.525
17425TIP3    H152152   1.428   5.326   4.465
17425TIP3    H252153   1.323   5.417   4.524
17426TIP3   OH252154   5.371   1.628   5.171
17426TIP3    H152155   5.382   1.602   5.079
17426TIP3    H252156   5.357   1.722   5.168
17427TIP3   OH252157   5.311   2.497   7.347
17427TIP3    H152158   5.230   2.506   7.397
17427TIP3    H252159   5.379   2.488   7.413
17428TIP3   OH252160   7.340   7.378   7.180
17428TIP3    H152161   7.263   7.400   7.233
17428TIP3    H252162   7.412   7.376   7.243
17429TIP3   OH252163   9.053   1.708   1.166
17429TIP3    H152164   8.975   1.665   1.200
17429TIP3    H252165   9.087   1.759   1.240
17430TIP3   OH252166   2.853   2.368   6.882
17430TIP3    H152167   2.793   2.305   6.920
17430TIP3    H252168   2.805   2.405   6.807
17431TIP3   OH252169   1.275   0.639   7.485
17431TIP3    H152170   1.202   0.674   7.536
17431TIP3    H252171   1.319   0.716   7.449
17432TIP3   OH252172   2.106   1.487   7.428
17432TIP3    H152173   2.089   1.404   7.382
17432TIP3    H252174   2.156   1.461   7.505
17433TIP3   OH252175   2.923   6.590   4.612
17433TIP3    H152176   2.877   6.652   4.555
17433TIP3    H252177   2.909   6.623   4.700
17434TIP3   OH252178   3.119   3.394   5.336
17434TIP3    H152179   3.055   3.428   5.274
17434TIP3    H252180   3.139   3.306   5.304
17435TIP3   OH252181   0.340   2.887   0.127
17435TIP3    H152182   0.316   2.806   0.171
17435TIP3    H252183   0.305   2.956   0.184
17436TIP3   OH252184   3.342   0.492   1.384
17436TIP3    H152185   3.425   0.459   1.418
17436TIP3    H252186   3.339   0.460   1.294
17437TIP3   OH252187   8.232   6.520   4.079
17437TIP3    H152188   8.250   6.458   4.009
17437TIP3    H252189   8.258   6.605   4.043
17438TIP3   OH252190   1.005   3.245   7.286
17438TIP3    H152191   0.961   3.248   7.372
17438TIP3    H252192   1.092   3.282   7.302
17439TIP3   OH252193   7.893   3.458   1.511
17439TIP3    H152194   7.938   3.457   1.427
17439TIP3    H252195   7.910   3.372   1.549
17440TIP3   OH252196   8.633   6.484   2.715
17440TIP3    H152197   8.541   6.511   2.723
17440TIP3    H252198   8.677   6.528   2.788
17441TIP3   OH252199   2.267   0.966   6.140
17441TIP3    H152200   2.214   0.928   6.070
17441TIP3    H252201   2.248   0.911   6.217
17442TIP3   OH252202   9.107   6.417   3.584
17442TIP3    H152203   9.185   6.388   3.632
17442TIP3    H252204   9.066   6.481   3.642
17443TIP3   OH252205   3.854   1.866   0.167
17443TIP3    H152206   3.859   1.885   0.261
17443TIP3    H252207   3.913   1.791   0.155
17444TIP3   OH252208   3.019   1.134   2.042
17444TIP3    H152209   3.057   1.220   2.027
17444TIP3    H252210   2.924   1.148   2.034
17445TIP3   OH252211   7.353   1.290   1.880
17445TIP3    H152212   7.321   1.201   1.866
17445TIP3    H252213   7.309   1.320   1.960
17446TIP3   OH252214   3.078   5.810   0.353
17446TIP3    H152215   3.162   5.816   0.399
17446TIP3    H252216   3.068   5.717   0.333
17447TIP3   OH252217   5.769   3.928   6.519
17447TIP3    H152218   5.741   3.842   6.550
17447TIP3    H252219   5.824   3.962   6.589
17448TIP3   OH252220   8.856   6.483   5.330
17448TIP3    H152221   8.902   6.482   5.413
17448TIP3    H252222   8.921   6.454   5.266
17449TIP3   OH252223   2.817   8.226   1.374
17449TIP3    H152224   2.907   8.194   1.366
17449TIP3    H252225   2.818   8.312   1.332
17450TIP3   OH252226   3.215   5.081   2.627
17450TIP3    H152227   3.144   5.100   2.689
17450TIP3    H252228   3.257   5.002   2.663
17451TIP3   OH252229   7.806   9.005   2.932
17451TIP3    H152230   7.762   8.986   2.849
17451TIP3    H252231   7.886   9.051   2.906
17452TIP3   OH252232   0.830   1.967   4.198
17452TIP3    H152233   0.741   1.993   4.178
17452TIP3    H252234   0.833   1.964   4.294
17453TIP3   OH252235   0.147   8.426   7.120
17453TIP3    H152236   0.165   8.381   7.203
17453TIP3    H252237   0.180   8.367   7.053
17454TIP3   OH252238   7.499   3.199   5.883
17454TIP3    H152239   7.467   3.202   5.973
17454TIP3    H252240   7.420   3.195   5.829
17455TIP3   OH252241   0.754   2.257   1.593
17455TIP3    H152242   0.822   2.256   1.660
17455TIP3    H252243   0.799   2.234   1.512
17456TIP3   OH252244   2.319   4.973   4.046
17456TIP3    H152245   2.259   4.997   4.116
17456TIP3    H252246   2.309   4.878   4.036
17457TIP3   OH252247   0.322   1.879   4.082
17457TIP3    H152248   0.373   1.934   4.022
17457TIP3    H252249   0.380   1.806   4.104
17458TIP3   OH252250   6.456   1.982   5.434
17458TIP3    H152251   6.392   2.054   5.437
17458TIP3    H252252   6.475   1.971   5.341
17459TIP3   OH252253   0.261   4.048   2.272
17459TIP3    H152254   0.351   4.021   2.287
17459TIP3    H252255   0.213   4.017   2.349
17460TIP3   OH252256   6.656   8.200   0.399
17460TIP3    H152257   6.733   8.159   0.361
17460TIP3    H252258   6.631   8.268   0.336
17461TIP3   OH252259   6.888   4.409   4.002
17461TIP3    H152260   6.911   4.499   3.983
17461TIP3    H252261   6.807   4.415   4.053
17462TIP3   OH252262   7.450   7.543   3.047
17462TIP3    H152263   7.442   7.479   2.976
17462TIP3    H252264   7.368   7.534   3.096
17463TIP3   OH252265   2.631   0.117   2.305
17463TIP3    H152266   2.596   0.036   2.340
17463TIP3    H252267   2.554   0.170   2.286
17464TIP3   OH252268   4.715   6.842   5.217
17464TIP3    H152269   4.761   6.869   5.297
17464TIP3    H252270   4.623   6.839   5.242
17465TIP3   OH252271   2.015   4.580   2.761
17465TIP3    H152272   1.981   4.493   2.780
17465TIP3    H252273   2.012   4.587   2.666
17466TIP3   OH252274   5.956   6.160   1.478
17466TIP3    H152275   5.928   6.088   1.534
17466TIP3    H252276   6.032   6.197   1.522
17467TIP3   OH252277   1.761   5.547   2.490
17467TIP3    H152278   1.728   5.636   2.503
17467TIP3    H252279   1.810   5.552   2.407
17468TIP3   OH252280   8.893   0.128   2.424
17468TIP3    H152281   8.951   0.053   2.408
17468TIP3    H252282   8.904   0.147   2.517
17469TIP3   OH252283   1.444   1.453   0.712
17469TIP3    H152284   1.429   1.460   0.806
17469TIP3    H252285   1.356   1.448   0.674
17470TIP3   OH252286   4.877   1.479   7.811
17470TIP3    H152287   4.833   1.543   7.755
17470TIP3    H252288   4.850   1.394   7.776
17471TIP3   OH252289   2.587   3.600   3.367
17471TIP3    H152290   2.541   3.517   3.380
17471TIP3    H252291   2.615   3.626   3.455
17472TIP3   OH252292   6.788   2.479   0.495
17472TIP3    H152293   6.699   2.449   0.515
17472TIP3    H252294   6.793   2.566   0.534
17473TIP3   OH252295   9.141   6.558   6.919
17473TIP3    H152296   9.188   6.511   6.851
17473TIP3    H252297   9.049   6.552   6.894
17474TIP3   OH252298   5.734   2.979   2.887
17474TIP3    H152299   5.658   3.021   2.847
17474TIP3    H252300   5.755   2.907   2.829
17475TIP3   OH252301   3.972   7.396   7.261
17475TIP3    H152302   3.937   7.453   7.329
17475TIP3    H252303   4.035   7.340   7.305
17476TIP3   OH252304   1.548   8.375   3.982
17476TIP3    H152305   1.614   8.414   4.038
17476TIP3    H252306   1.468   8.424   4.001
17477TIP3   OH252307   0.574   3.895   7.282
17477TIP3    H152308   0.576   3.963   7.349
17477TIP3    H252309   0.498   3.841   7.305
17478TIP3   OH252310   3.766   7.247   1.484
17478TIP3    H152311   3.695   7.206   1.534
17478TIP3    H252312   3.832   7.268   1.550
17479TIP3   OH252313   3.702   2.732   4.161
17479TIP3    H152314   3.788   2.719   4.203
17479TIP3    H252315   3.722   2.746   4.069
17480TIP3   OH252316   3.784   2.280   7.466
17480TIP3    H152317   3.808   2.338   7.393
17480TIP3    H252318   3.749   2.338   7.533
17481TIP3   OH252319   8.270   8.709   0.975
17481TIP3    H152320   8.279   8.684   0.883
17481TIP3    H252321   8.311   8.795   0.980
17482TIP3   OH252322   4.885   0.094   1.142
17482TIP3    H152323   4.911   0.165   1.202
17482TIP3    H252324   4.930   0.114   1.060
17483TIP3   OH252325   5.251   3.175   6.590
17483TIP3    H152326   5.169   3.204   6.551
17483TIP3    H252327   5.305   3.254   6.595
17484TIP3   OH252328   5.438   0.665   6.711
17484TIP3    H152329   5.526   0.694   6.688
17484TIP3    H252330   5.452   0.587   6.765
17485TIP3   OH252331   6.701   7.921   6.092
17485TIP3    H152332   6.716   7.998   6.146
17485TIP3    H252333   6.726   7.948   6.003
17486TIP3   OH252334   1.914   8.837   3.598
17486TIP3    H152335   1.876   8.856   3.512
17486TIP3    H252336   1.972   8.912   3.615
17487TIP3   OH252337   3.009   5.168   2.381
17487TIP3    H152338   3.075   5.236   2.369
17487TIP3    H252339   2.950   5.178   2.306
17488TIP3   OH252340   9.336   2.200   6.960
17488TIP3    H152341   9.407   2.259   6.932
17488TIP3    H252342   9.307   2.237   7.043
17489TIP3   OH252343   2.672   4.447   2.806
17489TIP3    H152344   2.612   4.411   2.741
17489TIP3    H252345   2.759   4.418   2.778
17490TIP3   OH252346   2.478   5.691   2.666
17490TIP3    H152347   2.420   5.657   2.598
17490TIP3    H252348   2.551   5.630   2.669
17491TIP3   OH252349   8.384   3.890   5.719
17491TIP3    H152350   8.309   3.940   5.686
17491TIP3    H252351   8.453   3.955   5.731
17492TIP3   OH252352   1.901   4.383   6.328
17492TIP3    H152353   1.837   4.328   6.373
17492TIP3    H252354   1.933   4.328   6.256
17493TIP3   OH252355   3.447   2.744   3.674
17493TIP3    H152356   3.505   2.670   3.693
17493TIP3    H252357   3.489   2.789   3.600
17494TIP3   OH252358   2.650   3.779   5.682
17494TIP3    H152359   2.602   3.801   5.761
17494TIP3    H252360   2.584   3.741   5.624
17495TIP3   OH252361   5.919   8.949   3.439
17495TIP3    H152362   5.936   8.941   3.533
17495TIP3    H252363   5.843   9.007   3.434
17496TIP3   OH252364   5.885   1.815   7.608
17496TIP3    H152365   5.801   1.782   7.575
17496TIP3    H252366   5.865   1.847   7.696
17497TIP3   OH252367   5.048   1.400   5.917
17497TIP3    H152368   4.978   1.349   5.877
17497TIP3    H252369   5.041   1.382   6.010
17498TIP3   OH252370   5.153   7.147   7.742
17498TIP3    H152371   5.067   7.179   7.771
17498TIP3    H252372   5.162   7.182   7.653
17499TIP3   OH252373   3.349   8.823   5.865
17499TIP3    H152374   3.436   8.811   5.827
17499TIP3    H252375   3.332   8.742   5.912
17500TIP3   OH252376   4.105   3.012   7.469
17500TIP3    H152377   4.192   2.985   7.499
17500TIP3    H252378   4.048   2.938   7.490
17501TIP3   OH252379   4.692   8.136   1.693
17501TIP3    H152380   4.758   8.097   1.749
17501TIP3    H252381   4.688   8.228   1.720
17502TIP3   OH252382   7.075   8.551   1.752
17502TIP3    H152383   7.041   8.614   1.688
17502TIP3    H252384   7.167   8.539   1.727
17503TIP3   OH252385   5.927   8.961   4.340
17503TIP3    H152386   5.897   8.887   4.287
17503TIP3    H252387   5.888   9.038   4.298
17504TIP3   OH252388   0.168   7.996   1.611
17504TIP3    H152389   0.204   8.031   1.529
17504TIP3    H252390   0.097   7.939   1.583
17505TIP3   OH252391   7.452   0.752   3.891
17505TIP3    H152392   7.429   0.659   3.891
17505TIP3    H252393   7.457   0.775   3.798
17506TIP3   OH252394   1.488   2.947   2.956
17506TIP3    H152395   1.565   2.990   2.919
17506TIP3    H252396   1.452   3.012   3.017
17507TIP3   OH252397   3.618   1.700   5.916
17507TIP3    H152398   3.681   1.654   5.972
17507TIP3    H252399   3.601   1.782   5.962
17508TIP3   OH252400   4.711   4.440   0.143
17508TIP3    H152401   4.670   4.377   0.202
17508TIP3    H252402   4.727   4.392   0.062
17509TIP3   OH252403   7.223   5.424   4.574
17509TIP3    H152404   7.172   5.352   4.536
17509TIP3    H252405   7.170   5.455   4.647
17510TIP3   OH252406   9.522   0.571   0.141
17510TIP3    H152407   9.516   0.529   0.055
17510TIP3    H252408   9.520   0.665   0.122
17511TIP3   OH252409   4.256   3.498   2.318
17511TIP3    H152410   4.261   3.586   2.356
17511TIP3    H252411   4.166   3.491   2.286
17512TIP3   OH252412   5.017   7.694   7.659
17512TIP3    H152413   4.993   7.755   7.728
17512TIP3    H252414   4.967   7.615   7.678
17513TIP3   OH252415   6.721   4.057   2.755
17513TIP3    H152416   6.735   4.134   2.809
17513TIP3    H252417   6.663   4.001   2.807
17514TIP3   OH252418   7.207   3.995   4.238
17514TIP3    H152419   7.277   3.994   4.302
17514TIP3    H252420   7.201   4.087   4.211
17515TIP3   OH252421   6.106   8.491   6.541
17515TIP3    H152422   6.176   8.543   6.500
17515TIP3    H252423   6.027   8.520   6.496
17516TIP3   OH252424   6.374   4.390   3.837
17516TIP3    H152425   6.300   4.413   3.780
17516TIP3    H252426   6.340   4.401   3.926
17517TIP3   OH252427   6.911   2.841   2.613
17517TIP3    H152428   6.873   2.816   2.528
17517TIP3    H252429   6.901   2.937   2.616
17518TIP3   OH252430   0.454   8.321   3.517
17518TIP3    H152431   0.389   8.297   3.583
17518TIP3    H252432   0.418   8.288   3.434
17519TIP3   OH252433   0.410   0.310   5.513
17519TIP3    H152434   0.490   0.331   5.561
17519TIP3    H252435   0.415   0.364   5.434
17520TIP3   OH252436   0.907   6.803   1.566
17520TIP3    H152437   0.866   6.753   1.637
17520TIP3    H252438   0.868   6.890   1.573
17521TIP3   OH252439   3.960   7.322   1.659
17521TIP3    H152440   3.929   7.319   1.749
17521TIP3    H252441   4.050   7.290   1.663
17522TIP3   OH252442   2.430   6.953   1.485
17522TIP3    H152443   2.455   6.866   1.517
17522TIP3    H252444   2.484   7.014   1.536
17523TIP3   OH252445   2.446   2.100   2.637
17523TIP3    H152446   2.512   2.031   2.647
17523TIP3    H252447   2.422   2.097   2.545
17524TIP3   OH252448   7.503   0.766   6.696
17524TIP3    H152449   7.418   0.794   6.660
17524TIP3    H252450   7.542   0.847   6.730
17525TIP3   OH252451   9.473   4.142   7.583
17525TIP3    H152452   9.455   4.233   7.559
17525TIP3    H252453   9.388   4.108   7.611
17526TIP3   OH252454   8.707   1.686   4.992
17526TIP3    H152455   8.700   1.604   4.942
17526TIP3    H252456   8.617   1.719   4.996
17527TIP3   OH252457   7.538   2.132   6.552
17527TIP3    H152458   7.541   2.176   6.637
17527TIP3    H252459   7.496   2.048   6.570
17528TIP3   OH252460   3.570   5.032   3.398
17528TIP3    H152461   3.640   5.082   3.440
17528TIP3    H252462   3.493   5.046   3.453
17529TIP3   OH252463   8.829   0.137   0.974
17529TIP3    H152464   8.796   0.056   1.012
17529TIP3    H252465   8.754   0.175   0.929
17530TIP3   OH252466   4.775   5.558   1.500
17530TIP3    H152467   4.740   5.621   1.563
17530TIP3    H252468   4.775   5.475   1.548
17531TIP3   OH252469   6.648   3.242   2.323
17531TIP3    H152470   6.600   3.190   2.387
17531TIP3    H252471   6.676   3.320   2.372
17532TIP3   OH252472   3.791   6.395   4.582
17532TIP3    H152473   3.733   6.422   4.653
17532TIP3    H252474   3.879   6.403   4.618
17533TIP3   OH252475   8.061   0.941   4.766
17533TIP3    H152476   8.128   0.988   4.717
17533TIP3    H252477   8.041   0.864   4.713
17534TIP3   OH252478   5.818   4.622   2.573
17534TIP3    H152479   5.853   4.698   2.621
17534TIP3    H252480   5.880   4.551   2.593
17535TIP3   OH252481   1.551   5.155   3.787
17535TIP3    H152482   1.581   5.086   3.729
17535TIP3    H252483   1.630   5.190   3.826
17536TIP3   OH252484   0.295   0.905   5.650
17536TIP3    H152485   0.314   0.843   5.720
17536TIP3    H252486   0.321   0.990   5.686
17537TIP3   OH252487   0.259   3.789   0.150
17537TIP3    H152488   0.258   3.757   0.240
17537TIP3    H252489   0.173   3.766   0.115
17538TIP3   OH252490   8.709   2.732   4.199
17538TIP3    H152491   8.676   2.734   4.289
17538TIP3    H252492   8.797   2.696   4.206
17539TIP3   OH252493   0.076   2.869   6.619
17539TIP3    H152494   0.153   2.906   6.576
17539TIP3    H252495   0.013   2.942   6.622
17540TIP3   OH252496   2.162   2.642   0.203
17540TIP3    H152497   2.076   2.600   0.206
17540TIP3    H252498   2.202   2.611   0.122
17541TIP3   OH252499   9.487   2.700   7.625
17541TIP3    H152500   9.439   2.695   7.543
17541TIP3    H252501   9.447   2.633   7.681
17542TIP3   OH252502   1.491   4.722   4.853
17542TIP3    H152503   1.572   4.716   4.802
17542TIP3    H252504   1.516   4.695   4.942
17543TIP3   OH252505   7.307   7.461   6.767
17543TIP3    H152506   7.231   7.419   6.726
17543TIP3    H252507   7.339   7.396   6.830
17544TIP3   OH252508   6.217   4.358   6.415
17544TIP3    H152509   6.142   4.335   6.360
17544TIP3    H252510   6.251   4.439   6.376
17545TIP3   OH252511   1.444   0.935   1.123
17545TIP3    H152512   1.371   0.995   1.140
17545TIP3    H252513   1.403   0.850   1.108
17546TIP3   OH252514   8.456   6.587   0.682
17546TIP3    H152515   8.399   6.581   0.758
17546TIP3    H252516   8.475   6.680   0.674
17547TIP3   OH252517   2.581   1.446   3.546
17547TIP3    H152518   2.618   1.458   3.458
17547TIP3    H252519   2.507   1.507   3.549
17548TIP3   OH252520   6.013   3.077   2.259
17548TIP3    H152521   5.950   3.055   2.191
17548TIP3    H252522   6.078   3.131   2.215
17549TIP3   OH252523   2.160   7.684   4.742
17549TIP3    H152524   2.064   7.692   4.740
17549TIP3    H252525   2.183   7.653   4.655
17550TIP3   OH252526   2.487   0.423   3.930
17550TIP3    H152527   2.502   0.336   3.893
17550TIP3    H252528   2.547   0.427   4.005
17551TIP3   OH252529   9.124   2.683   5.552
17551TIP3    H152530   9.193   2.665   5.488
17551TIP3    H252531   9.086   2.597   5.571
17552TIP3   OH252532   9.182   6.190   2.380
17552TIP3    H152533   9.108   6.198   2.440
17552TIP3    H252534   9.256   6.228   2.428
17553TIP3   OH252535   4.374   6.763   3.117
17553TIP3    H152536   4.415   6.689   3.161
17553TIP3    H252537   4.436   6.835   3.129
17554TIP3   OH252538   2.412   5.076   2.558
17554TIP3    H152539   2.435   4.988   2.590
17554TIP3    H252540   2.375   5.120   2.635
17555TIP3   OH252541   7.223   5.891   2.798
17555TIP3    H152542   7.203   5.835   2.722
17555TIP3    H252543   7.225   5.830   2.872
17556TIP3   OH252544   8.118   1.626   5.072
17556TIP3    H152545   8.067   1.680   5.012
17556TIP3    H252546   8.202   1.615   5.029
17557TIP3   OH252547   6.201   6.054   6.141
17557TIP3    H152548   6.291   6.053   6.172
17557TIP3    H252549   6.155   5.994   6.199
17558TIP3   OH252550   8.140   6.604   2.584
17558TIP3    H152551   8.069   6.634   2.640
17558TIP3    H252552   8.154   6.513   2.608
17559TIP3   OH252553   8.419   6.052   2.757
17559TIP3    H152554   8.496   6.094   2.795
17559TIP3    H252555   8.424   5.962   2.789
17560TIP3   OH252556   5.806   7.974   7.796
17560TIP3    H152557   5.882   7.920   7.817
17560TIP3    H252558   5.731   7.915   7.806
17561TIP3   OH252559   3.426   1.280   4.787
17561TIP3    H152560   3.369   1.347   4.748
17561TIP3    H252561   3.436   1.215   4.718
17562TIP3   OH252562   9.511   6.544   1.905
17562TIP3    H152563   9.510   6.588   1.990
17562TIP3    H252564   9.584   6.482   1.911
17563TIP3   OH252565   0.253   5.659   2.941
17563TIP3    H152566   0.170   5.697   2.970
17563TIP3    H252567   0.320   5.711   2.984
17564TIP3   OH252568   2.323   7.683   4.177
17564TIP3    H152569   2.230   7.691   4.155
17564TIP3    H252570   2.368   7.691   4.093
17565TIP3   OH252571   2.065   0.106   7.385
17565TIP3    H152572   2.099   0.171   7.447
17565TIP3    H252573   1.970   0.119   7.386
17566TIP3   OH252574   9.383   4.214   6.740
17566TIP3    H152575   9.431   4.132   6.756
17566TIP3    H252576   9.332   4.228   6.819
17567TIP3   OH252577   2.817   8.652   1.120
17567TIP3    H152578   2.837   8.691   1.205
17567TIP3    H252579   2.826   8.723   1.057
17568TIP3   OH252580   5.516   8.827   5.467
17568TIP3    H152581   5.579   8.891   5.500
17568TIP3    H252582   5.431   8.859   5.500
17569TIP3   OH252583   8.176   4.387   3.298
17569TIP3    H152584   8.088   4.403   3.266
17569TIP3    H252585   8.185   4.444   3.375
17570TIP3   OH252586   9.290   4.698   2.044
17570TIP3    H152587   9.383   4.688   2.020
17570TIP3    H252588   9.249   4.618   2.014
17571TIP3   OH252589   7.129   0.335   2.977
17571TIP3    H152590   7.078   0.290   2.909
17571TIP3    H252591   7.071   0.336   3.053
17572TIP3   OH252592   6.375   0.582   1.202
17572TIP3    H152593   6.345   0.523   1.271
17572TIP3    H252594   6.306   0.580   1.136
17573TIP3   OH252595   5.721   0.243   6.864
17573TIP3    H152596   5.669   0.208   6.937
17573TIP3    H252597   5.811   0.220   6.887
17574TIP3   OH252598   1.216   5.908   0.667
17574TIP3    H152599   1.254   5.820   0.667
17574TIP3    H252600   1.249   5.948   0.747
17575TIP3   OH252601   8.227   4.604   1.169
17575TIP3    H152602   8.310   4.636   1.134
17575TIP3    H252603   8.161   4.659   1.127
17576TIP3   OH252604   3.965   0.743   1.556
17576TIP3    H152605   4.046   0.795   1.549
17576TIP3    H252606   3.973   0.697   1.639
17577TIP3   OH252607   4.586   1.408   1.398
17577TIP3    H152608   4.646   1.333   1.403
17577TIP3    H252609   4.610   1.462   1.473
17578TIP3   OH252610   7.967   5.394   0.367
17578TIP3    H152611   8.001   5.425   0.283
17578TIP3    H252612   7.872   5.405   0.360
17579TIP3   OH252613   5.042   4.075   1.354
17579TIP3    H152614   5.054   4.052   1.446
17579TIP3    H252615   4.983   4.150   1.355
17580TIP3   OH252616   8.535   7.005   0.988
17580TIP3    H152617   8.622   7.034   0.960
17580TIP3    H252618   8.540   7.004   1.084
17581TIP3   OH252619   4.335   0.638   4.518
17581TIP3    H152620   4.246   0.631   4.552
17581TIP3    H252621   4.389   0.589   4.580
17582TIP3   OH252622   1.082   7.737   3.140
17582TIP3    H152623   1.042   7.792   3.207
17582TIP3    H252624   1.028   7.751   3.062
17583TIP3   OH252625   8.243   3.078   5.735
17583TIP3    H152626   8.285   3.009   5.683
17583TIP3    H252627   8.152   3.048   5.745
17584TIP3   OH252628   9.066   5.320   2.523
17584TIP3    H152629   9.126   5.269   2.469
17584TIP3    H252630   9.046   5.263   2.597
17585TIP3   OH252631   1.244   4.420   2.739
17585TIP3    H152632   1.200   4.375   2.811
17585TIP3    H252633   1.322   4.458   2.778
17586TIP3   OH252634   2.402   8.650   6.519
17586TIP3    H152635   2.481   8.679   6.475
17586TIP3    H252636   2.357   8.596   6.454
17587TIP3   OH252637   0.034   0.857   5.561
17587TIP3    H152638   0.032   0.763   5.543
17587TIP3    H252639   0.127   0.877   5.574
17588TIP3   OH252640   7.042   1.644   5.569
17588TIP3    H152641   7.112   1.706   5.549
17588TIP3    H252642   6.990   1.689   5.636
17589TIP3   OH252643   3.146   6.718   7.023
17589TIP3    H152644   3.067   6.746   6.978
17589TIP3    H252645   3.157   6.626   6.998
17590TIP3   OH252646   0.268   1.837   6.325
17590TIP3    H152647   0.220   1.822   6.407
17590TIP3    H252648   0.235   1.769   6.266
17591TIP3   OH252649   1.537   0.550   7.655
17591TIP3    H152650   1.460   0.606   7.661
17591TIP3    H252651   1.604   0.594   7.707
17592TIP3   OH252652   7.958   1.750   1.723
17592TIP3    H152653   7.894   1.684   1.699
17592TIP3    H252654   7.908   1.832   1.730
17593TIP3   OH252655   5.560   2.997   5.766
17593TIP3    H152656   5.485   3.048   5.737
17593TIP3    H252657   5.583   3.034   5.851
17594TIP3   OH252658   6.122   1.263   4.500
17594TIP3    H152659   6.109   1.322   4.425
17594TIP3    H252660   6.206   1.291   4.537
17595TIP3   OH252661   8.024   1.246   3.377
17595TIP3    H152662   8.022   1.226   3.283
17595TIP3    H252663   7.968   1.179   3.416
17596TIP3   OH252664   2.969   4.961   6.269
17596TIP3    H152665   2.939   5.052   6.277
17596TIP3    H252666   2.985   4.949   6.175
17597TIP3   OH252667   4.472   3.345   0.532
17597TIP3    H152668   4.532   3.375   0.464
17597TIP3    H252669   4.423   3.273   0.490
17598TIP3   OH252670   3.795   2.237   6.763
17598TIP3    H152671   3.765   2.174   6.829
17598TIP3    H252672   3.714   2.277   6.731
17599TIP3   OH252673   8.271   7.140   1.669
17599TIP3    H152674   8.224   7.073   1.719
17599TIP3    H252675   8.338   7.092   1.621
17600TIP3   OH252676   3.717   5.746   1.886
17600TIP3    H152677   3.740   5.764   1.794
17600TIP3    H252678   3.625   5.771   1.893
17601TIP3   OH252679   2.972   1.661   3.030
17601TIP3    H152680   2.902   1.643   3.093
17601TIP3    H252681   2.964   1.591   2.965
17602TIP3   OH252682   2.332   0.374   1.761
17602TIP3    H152683   2.240   0.354   1.774
17602TIP3    H252684   2.369   0.295   1.722
17603TIP3   OH252685   4.526   4.050   5.021
17603TIP3    H152686   4.546   3.961   5.048
17603TIP3    H252687   4.457   4.041   4.955
17604TIP3   OH252688   0.190   7.192   0.209
17604TIP3    H152689   0.132   7.267   0.193
17604TIP3    H252690   0.231   7.175   0.125
17605TIP3   OH252691   9.075   3.293   3.854
17605TIP3    H152692   9.063   3.369   3.911
17605TIP3    H252693   9.131   3.234   3.904
17606TIP3   OH252694   3.352   7.373   1.702
17606TIP3    H152695   3.421   7.427   1.662
17606TIP3    H252696   3.390   7.344   1.785
17607TIP3   OH252697   0.808   1.639   3.313
17607TIP3    H152698   0.798   1.721   3.361
17607TIP3    H252699   0.903   1.625   3.308
17608TIP3   OH252700   6.394   7.999   6.973
17608TIP3    H152701   6.405   8.052   6.894
17608TIP3    H252702   6.457   8.036   7.035
17609TIP3   OH252703   6.961   8.771   5.395
17609TIP3    H152704   6.987   8.680   5.385
17609TIP3    H252705   6.865   8.768   5.402
17610TIP3   OH252706   4.501   1.136   2.401
17610TIP3    H152707   4.579   1.089   2.431
17610TIP3    H252708   4.428   1.081   2.428
17611TIP3   OH252709   3.985   5.202   6.499
17611TIP3    H152710   4.035   5.240   6.571
17611TIP3    H252711   4.047   5.145   6.453
17612TIP3   OH252712   8.046   4.129   0.217
17612TIP3    H152713   8.009   4.192   0.279
17612TIP3    H252714   8.059   4.050   0.269
17613TIP3   OH252715   5.682   4.706   4.436
17613TIP3    H152716   5.630   4.781   4.408
17613TIP3    H252717   5.729   4.737   4.514
17614TIP3   OH252718   5.101   6.455   3.050
17614TIP3    H152719   5.087   6.526   3.113
17614TIP3    H252720   5.194   6.433   3.059
17615TIP3   OH252721   5.805   8.728   3.985
17615TIP3    H152722   5.764   8.768   3.908
17615TIP3    H252723   5.859   8.658   3.950
17616TIP3   OH252724   1.695   6.784   6.627
17616TIP3    H152725   1.662   6.740   6.549
17616TIP3    H252726   1.649   6.743   6.699
17617TIP3   OH252727   3.877   4.843   0.116
17617TIP3    H152728   3.811   4.780   0.088
17617TIP3    H252729   3.871   4.914   0.053
17618TIP3   OH252730   4.212   8.513   5.809
17618TIP3    H152731   4.168   8.591   5.842
17618TIP3    H252732   4.222   8.457   5.886
17619TIP3   OH252733   4.496   6.561   5.525
17619TIP3    H152734   4.468   6.552   5.617
17619TIP3    H252735   4.524   6.473   5.500
17620TIP3   OH252736   7.493   8.688   3.117
17620TIP3    H152737   7.424   8.754   3.112
17620TIP3    H252738   7.506   8.659   3.027
17621TIP3   OH252739   8.837   4.174   1.160
17621TIP3    H152740   8.810   4.153   1.249
17621TIP3    H252741   8.755   4.194   1.114
17622TIP3   OH252742   7.134   7.479   4.619
17622TIP3    H152743   7.077   7.460   4.545
17622TIP3    H252744   7.123   7.404   4.678
17623TIP3   OH252745   0.450   1.145   3.627
17623TIP3    H152746   0.482   1.100   3.549
17623TIP3    H252747   0.370   1.190   3.597
17624TIP3   OH252748   1.561   6.902   4.988
17624TIP3    H152749   1.536   6.926   4.899
17624TIP3    H252750   1.510   6.961   5.044
17625TIP3   OH252751   6.059   5.152   3.369
17625TIP3    H152752   6.040   5.097   3.293
17625TIP3    H252753   5.980   5.148   3.423
17626TIP3   OH252754   5.087   6.444   6.637
17626TIP3    H152755   5.144   6.475   6.567
17626TIP3    H252756   5.012   6.503   6.636
17627TIP3   OH252757   8.369   4.234   7.133
17627TIP3    H152758   8.363   4.166   7.065
17627TIP3    H252759   8.442   4.206   7.188
17628TIP3   OH252760   2.787   2.591   7.130
17628TIP3    H152761   2.741   2.588   7.046
17628TIP3    H252762   2.750   2.667   7.176
17629TIP3   OH252763   1.728   0.717   1.216
17629TIP3    H152764   1.754   0.659   1.144
17629TIP3    H252765   1.735   0.805   1.179
17630TIP3   OH252766   3.747   4.595   5.921
17630TIP3    H152767   3.829   4.557   5.953
17630TIP3    H252768   3.699   4.618   6.001
17631TIP3   OH252769   8.765   7.335   6.726
17631TIP3    H152770   8.762   7.420   6.681
17631TIP3    H252771   8.693   7.340   6.790
17632TIP3   OH252772   1.248   1.764   5.495
17632TIP3    H152773   1.183   1.796   5.432
17632TIP3    H252774   1.332   1.775   5.449
17633TIP3   OH252775   3.521   2.760   0.695
17633TIP3    H152776   3.564   2.803   0.769
17633TIP3    H252777   3.473   2.830   0.651
17634TIP3   OH252778   6.293   0.798   1.356
17634TIP3    H152779   6.340   0.875   1.326
17634TIP3    H252780   6.333   0.725   1.308
17635TIP3   OH252781   8.774   4.051   3.485
17635TIP3    H152782   8.820   3.976   3.523
17635TIP3    H252783   8.750   4.105   3.561
17636TIP3   OH252784   1.641   5.301   2.501
17636TIP3    H152785   1.684   5.385   2.480
17636TIP3    H252786   1.556   5.326   2.538
17637TIP3   OH252787   6.101   6.304   4.216
17637TIP3    H152788   6.114   6.272   4.305
17637TIP3    H252789   6.185   6.289   4.172
17638TIP3   OH252790   4.397   3.346   5.292
17638TIP3    H152791   4.422   3.364   5.201
17638TIP3    H252792   4.463   3.283   5.322
17639TIP3   OH252793   1.808   6.118   6.610
17639TIP3    H152794   1.883   6.065   6.637
17639TIP3    H252795   1.840   6.208   6.613
17640TIP3   OH252796   7.745   4.930   6.840
17640TIP3    H152797   7.729   4.999   6.776
17640TIP3    H252798   7.666   4.875   6.838
17641TIP3   OH252799   0.946   2.535   1.694
17641TIP3    H152800   0.902   2.542   1.779
17641TIP3    H252801   1.035   2.506   1.715
17642TIP3   OH252802   6.557   6.540   1.215
17642TIP3    H152803   6.518   6.627   1.216
17642TIP3    H252804   6.504   6.491   1.152
17643TIP3   OH252805   1.325   3.874   7.191
17643TIP3    H152806   1.337   3.893   7.098
17643TIP3    H252807   1.413   3.879   7.228
17644TIP3   OH252808   0.906   4.051   6.792
17644TIP3    H152809   0.880   4.053   6.699
17644TIP3    H252810   0.826   4.073   6.839
17645TIP3   OH252811   2.772   1.632   1.842
17645TIP3    H152812   2.803   1.597   1.925
17645TIP3    H252813   2.679   1.610   1.840
17646TIP3   OH252814   4.559   6.831   7.730
17646TIP3    H152815   4.523   6.747   7.700
17646TIP3    H252816   4.624   6.806   7.797
17647TIP3   OH252817   2.291   0.019   2.654
17647TIP3    H152818   2.362   0.038   2.592
17647TIP3    H252819   2.331  -0.037   2.720
17648TIP3   OH252820   7.932   6.552   7.569
17648TIP3    H152821   7.842   6.586   7.563
17648TIP3    H252822   7.934   6.503   7.652
17649TIP3   OH252823   7.055   8.131   4.867
17649TIP3    H152824   7.139   8.132   4.913
17649TIP3    H252825   6.992   8.098   4.931
17650TIP3   OH252826   6.811   7.711   4.264
17650TIP3    H152827   6.835   7.797   4.299
17650TIP3    H252828   6.868   7.650   4.309
17651TIP3   OH252829   5.140   5.167   0.133
17651TIP3    H152830   5.195   5.228   0.083
17651TIP3    H252831   5.186   5.157   0.217
17652TIP3   OH252832   8.180   2.058   7.130
17652TIP3    H152833   8.101   2.012   7.158
17652TIP3    H252834   8.228   1.994   7.078
17653TIP3   OH252835   6.417   5.867   3.539
17653TIP3    H152836   6.502   5.907   3.557
17653TIP3    H252837   6.372   5.931   3.483
17654TIP3   OH252838   0.140   7.381   0.889
17654TIP3    H152839   0.049   7.396   0.861
17654TIP3    H252840   0.167   7.303   0.839
17655TIP3   OH252841   9.455   6.282   6.927
17655TIP3    H152842   9.503   6.271   7.009
17655TIP3    H252843   9.509   6.237   6.862
17656TIP3   OH252844   5.001   2.184   6.562
17656TIP3    H152845   4.945   2.107   6.552
17656TIP3    H252846   5.017   2.213   6.472
17657TIP3   OH252847   3.880   8.679   0.323
17657TIP3    H152848   3.968   8.662   0.291
17657TIP3    H252849   3.823   8.626   0.267
17658TIP3   OH252850   4.050   0.410   0.495
17658TIP3    H152851   4.046   0.371   0.408
17658TIP3    H252852   3.966   0.456   0.505
17659TIP3   OH252853   5.690   3.993   4.574
17659TIP3    H152854   5.763   3.940   4.606
17659TIP3    H252855   5.682   4.063   4.639
17660TIP3   OH252856   7.698   2.294   5.873
17660TIP3    H152857   7.650   2.252   5.802
17660TIP3    H252858   7.661   2.256   5.953
17661TIP3   OH252859   1.892   8.042   6.330
17661TIP3    H152860   1.865   8.064   6.241
17661TIP3    H252861   1.919   7.950   6.324
17662TIP3   OH252862   7.964   1.250   5.365
17662TIP3    H152863   7.875   1.267   5.334
17662TIP3    H252864   8.016   1.324   5.333
17663TIP3   OH252865   6.772   2.434   5.229
17663TIP3    H152866   6.723   2.454   5.310
17663TIP3    H252867   6.790   2.520   5.191
17664TIP3   OH252868   6.097   0.998   4.876
17664TIP3    H152869   6.082   1.093   4.877
17664TIP3    H252870   6.190   0.988   4.856
17665TIP3   OH252871   3.518   7.297   5.909
17665TIP3    H152872   3.613   7.289   5.908
17665TIP3    H252873   3.500   7.382   5.869
17666TIP3   OH252874   0.192   0.386   4.424
17666TIP3    H152875   0.164   0.477   4.424
17666TIP3    H252876   0.154   0.349   4.503
17667TIP3   OH252877   8.792   8.379   6.560
17667TIP3    H152878   8.756   8.353   6.475
17667TIP3    H252879   8.853   8.450   6.539
17668TIP3   OH252880   3.072   4.859   3.662
17668TIP3    H152881   3.044   4.777   3.702
17668TIP3    H252882   3.032   4.927   3.716
17669TIP3   OH252883   8.653   5.320   1.966
17669TIP3    H152884   8.574   5.267   1.975
17669TIP3    H252885   8.620   5.408   1.946
17670TIP3   OH252886   1.323   5.733   0.048
17670TIP3    H152887   1.292   5.796  -0.018
17670TIP3    H252888   1.296   5.648   0.013
17671TIP3   OH252889   7.658   0.283   6.515
17671TIP3    H152890   7.595   0.345   6.479
17671TIP3    H252891   7.630   0.268   6.605
17672TIP3   OH252892   4.541   1.985   0.999
17672TIP3    H152893   4.556   1.892   1.015
17672TIP3    H252894   4.490   2.015   1.075
17673TIP3   OH252895   9.364   6.493   0.509
17673TIP3    H152896   9.321   6.563   0.459
17673TIP3    H252897   9.443   6.533   0.543
17674TIP3   OH252898   1.299   5.827   1.357
17674TIP3    H152899   1.282   5.792   1.445
17674TIP3    H252900   1.394   5.842   1.355
17675TIP3   OH252901   8.384   2.102   6.686
17675TIP3    H152902   8.356   2.158   6.614
17675TIP3    H252903   8.306   2.054   6.711
17676TIP3   OH252904   4.282   2.326   2.885
17676TIP3    H152905   4.377   2.330   2.901
17676TIP3    H252906   4.270   2.244   2.837
17677TIP3   OH252907   6.666   0.237   4.248
17677TIP3    H152908   6.711   0.312   4.287
17677TIP3    H252909   6.585   0.273   4.213
17678TIP3   OH252910   8.006   5.434   1.468
17678TIP3    H152911   8.079   5.404   1.522
17678TIP3    H252912   8.042   5.506   1.417
17679TIP3   OH252913   5.452   1.232   7.290
17679TIP3    H152914   5.428   1.170   7.221
17679TIP3    H252915   5.424   1.189   7.371
17680TIP3   OH252916   7.062   6.125   3.697
17680TIP3    H152917   7.156   6.142   3.702
17680TIP3    H252918   7.023   6.194   3.750
17681TIP3   OH252919   1.816   8.016   7.729
17681TIP3    H152920   1.802   8.001   7.636
17681TIP3    H252921   1.833   7.929   7.765
17682TIP3   OH252922   0.415   1.481   2.622
17682TIP3    H152923   0.351   1.456   2.688
17682TIP3    H252924   0.425   1.403   2.568
17683TIP3   OH252925   2.563   0.230   1.389
17683TIP3    H152926   2.508   0.198   1.318
17683TIP3    H252927   2.572   0.156   1.449
17684TIP3   OH252928   7.769   5.486   1.049
17684TIP3    H152929   7.837   5.436   1.093
17684TIP3    H252930   7.719   5.421   0.999
17685TIP3   OH252931   6.692   8.216   0.940
17685TIP3    H152932   6.763   8.252   0.993
17685TIP3    H252933   6.720   8.126   0.921
17686TIP3   OH252934   1.582   8.959   0.956
17686TIP3    H152935   1.533   8.884   0.990
17686TIP3    H252936   1.591   9.017   1.031
17687TIP3   OH252937   4.598   5.498   1.914
17687TIP3    H152938   4.570   5.535   1.830
17687TIP3    H252939   4.559   5.411   1.916
17688TIP3   OH252940   2.440   2.617   1.961
17688TIP3    H152941   2.533   2.596   1.951
17688TIP3    H252942   2.395   2.539   1.929
17689TIP3   OH252943   5.152   6.504   4.481
17689TIP3    H152944   5.227   6.534   4.532
17689TIP3    H252945   5.170   6.536   4.392
17690TIP3   OH252946   8.387   7.912   2.008
17690TIP3    H152947   8.388   7.817   1.991
17690TIP3    H252948   8.294   7.935   2.010
17691TIP3   OH252949   6.722   1.152   0.153
17691TIP3    H152950   6.764   1.098   0.221
17691TIP3    H252951   6.704   1.090   0.082
17692TIP3   OH252952   8.649   6.878   2.087
17692TIP3    H152953   8.602   6.886   2.004
17692TIP3    H252954   8.585   6.905   2.153
17693TIP3   OH252955   0.880   3.503   1.125
17693TIP3    H152956   0.901   3.596   1.120
17693TIP3    H252957   0.859   3.488   1.218
17694TIP3   OH252958   6.886   5.456   7.564
17694TIP3    H152959   6.856   5.384   7.620
17694TIP3    H252960   6.809   5.481   7.514
17695TIP3   OH252961   7.592   3.423   5.637
17695TIP3    H152962   7.628   3.392   5.554
17695TIP3    H252963   7.518   3.479   5.612
17696TIP3   OH252964   2.611   7.745   1.957
17696TIP3    H152965   2.640   7.807   1.891
17696TIP3    H252966   2.626   7.658   1.919
17697TIP3   OH252967   4.065   6.123   7.480
17697TIP3    H152968   4.125   6.196   7.493
17697TIP3    H252969   4.061   6.111   7.385
17698TIP3   OH252970   1.639   3.493   2.972
17698TIP3    H152971   1.713   3.506   2.913
17698TIP3    H252972   1.600   3.580   2.981
17699TIP3   OH252973   4.726   8.851   4.005
17699TIP3    H152974   4.662   8.922   4.003
17699TIP3    H252975   4.695   8.793   4.075
17700TIP3   OH252976   0.485   2.112   1.203
17700TIP3    H152977   0.511   2.145   1.118
17700TIP3    H252978   0.518   2.176   1.266
17701TIP3   OH252979   3.910   6.395   6.065
17701TIP3    H152980   3.865   6.430   6.142
17701TIP3    H252981   3.852   6.326   6.033
17702TIP3   OH252982   8.183   8.155   2.141
17702TIP3    H152983   8.115   8.088   2.153
17702TIP3    H252984   8.171   8.185   2.051
17703TIP3   OH252985   6.686   4.093   1.002
17703TIP3    H152986   6.671   4.153   0.929
17703TIP3    H252987   6.775   4.111   1.031
17704TIP3   OH252988   2.263   1.536   5.166
17704TIP3    H152989   2.270   1.626   5.200
17704TIP3    H252990   2.317   1.536   5.087
17705TIP3   OH252991   2.052   1.724   3.331
17705TIP3    H152992   2.027   1.744   3.241
17705TIP3    H252993   2.014   1.795   3.383
17706TIP3   OH252994   1.731   4.583   4.802
17706TIP3    H152995   1.734   4.595   4.707
17706TIP3    H252996   1.769   4.497   4.817
17707TIP3   OH252997   6.854   2.631   2.941
17707TIP3    H152998   6.884   2.718   2.915
17707TIP3    H252999   6.846   2.582   2.859
17708TIP3   OH253000   3.651   0.063   0.096
17708TIP3    H153001   3.693  -0.004   0.042
17708TIP3    H253002   3.705   0.067   0.175
17709TIP3   OH253003   3.154   6.455   3.802
17709TIP3    H153004   3.182   6.527   3.746
17709TIP3    H253005   3.215   6.456   3.876
17710TIP3   OH253006   5.996   6.797   2.332
17710TIP3    H153007   5.926   6.829   2.276
17710TIP3    H253008   5.972   6.706   2.351
17711TIP3   OH253009   4.158   0.170   3.260
17711TIP3    H153010   4.089   0.209   3.314
17711TIP3    H253011   4.179   0.088   3.304
17712TIP3   OH253012   5.842   4.635   0.517
17712TIP3    H153013   5.873   4.703   0.457
17712TIP3    H253014   5.772   4.677   0.566
17713TIP3   OH253015   0.941   6.090   5.887
17713TIP3    H153016   0.924   5.996   5.875
17713TIP3    H253017   0.854   6.130   5.885
17714TIP3   OH253018   4.576   0.295   6.836
17714TIP3    H153019   4.624   0.338   6.765
17714TIP3    H253020   4.635   0.300   6.911
17715TIP3   OH253021   2.826   3.207   2.796
17715TIP3    H153022   2.855   3.134   2.741
17715TIP3    H253023   2.865   3.190   2.882
17716TIP3   OH253024   2.283   3.980   7.651
17716TIP3    H153025   2.272   4.062   7.603
17716TIP3    H253026   2.367   3.989   7.696
17717TIP3   OH253027   7.807   3.899   7.671
17717TIP3    H153028   7.842   3.819   7.712
17717TIP3    H253029   7.870   3.921   7.603
17718TIP3   OH253030   9.545   4.258   3.982
17718TIP3    H153031   9.459   4.279   4.018
17718TIP3    H253032   9.534   4.172   3.942
17719TIP3   OH253033   0.208   0.293   7.355
17719TIP3    H153034   0.240   0.289   7.265
17719TIP3    H253035   0.128   0.240   7.354
17720TIP3   OH253036   0.547   0.992   1.962
17720TIP3    H153037   0.457   1.025   1.968
17720TIP3    H253038   0.543   0.922   1.897
17721TIP3   OH253039   8.404   8.073   7.433
17721TIP3    H153040   8.470   8.089   7.500
17721TIP3    H253041   8.394   8.157   7.388
17722TIP3   OH253042   1.938   4.327   2.709
17722TIP3    H153043   1.865   4.367   2.662
17722TIP3    H253044   1.897   4.259   2.763
17723TIP3   OH253045   3.981   5.066   1.628
17723TIP3    H153046   3.895   5.105   1.611
17723TIP3    H253047   4.044   5.125   1.586
17724TIP3   OH253048   4.621   5.888   0.599
17724TIP3    H153049   4.608   5.819   0.664
17724TIP3    H253050   4.714   5.910   0.605
17725TIP3   OH253051   5.703   0.006   5.016
17725TIP3    H153052   5.613   0.029   4.997
17725TIP3    H253053   5.729   0.064   5.087
17726TIP3   OH253054   0.202   8.952   1.540
17726TIP3    H153055   0.106   8.953   1.533
17726TIP3    H253056   0.229   9.039   1.511
17727TIP3   OH253057   4.622   8.089   4.853
17727TIP3    H153058   4.568   8.137   4.916
17727TIP3    H253059   4.705   8.076   4.898
17728TIP3   OH253060   6.908   6.941   0.678
17728TIP3    H153061   6.890   6.875   0.611
17728TIP3    H253062   6.854   7.016   0.653
17729TIP3   OH253063   5.676   6.790   2.568
17729TIP3    H153064   5.735   6.864   2.580
17729TIP3    H253065   5.597   6.812   2.617
17730TIP3   OH253066   3.720   6.147   3.102
17730TIP3    H153067   3.756   6.206   3.169
17730TIP3    H253068   3.631   6.128   3.132
17731TIP3   OH253069   3.320   2.571   1.241
17731TIP3    H153070   3.408   2.567   1.203
17731TIP3    H253071   3.262   2.543   1.170
17732TIP3   OH253072   2.922   2.673   4.722
17732TIP3    H153073   2.831   2.671   4.751
17732TIP3    H253074   2.972   2.702   4.798
17733TIP3   OH253075   7.892   6.263   2.405
17733TIP3    H153076   7.879   6.295   2.494
17733TIP3    H253077   7.819   6.204   2.389
17734TIP3   OH253078   2.943   8.983   3.229
17734TIP3    H153079   2.986   8.950   3.150
17734TIP3    H253080   2.916   8.904   3.276
17735TIP3   OH253081   2.757   5.599   7.110
17735TIP3    H153082   2.719   5.570   7.193
17735TIP3    H253083   2.704   5.675   7.084
17736TIP3   OH253084   5.241   3.698   1.515
17736TIP3    H153085   5.149   3.680   1.498
17736TIP3    H253086   5.288   3.626   1.471
17737TIP3   OH253087   0.330   4.660   7.205
17737TIP3    H153088   0.306   4.569   7.186
17737TIP3    H253089   0.420   4.655   7.236
17738TIP3   OH253090   5.374   7.627   5.872
17738TIP3    H153091   5.316   7.670   5.809
17738TIP3    H253092   5.315   7.585   5.935
17739TIP3   OH253093   8.171   1.633   1.423
17739TIP3    H153094   8.108   1.670   1.361
17739TIP3    H253095   8.218   1.708   1.459
17740TIP3   OH253096   7.351   5.302   1.004
17740TIP3    H153097   7.440   5.286   1.034
17740TIP3    H253098   7.308   5.217   1.011
17741TIP3   OH253099   2.850   4.168   2.960
17741TIP3    H153100   2.829   4.145   3.051
17741TIP3    H253101   2.786   4.236   2.938
17742TIP3   OH253102   6.108   4.285   7.187
17742TIP3    H153103   6.167   4.210   7.198
17742TIP3    H253104   6.157   4.346   7.132
17743TIP3   OH253105   3.757   0.539   1.281
17743TIP3    H153106   3.840   0.549   1.234
17743TIP3    H253107   3.723   0.628   1.290
17744TIP3   OH253108   1.279   3.964   4.298
17744TIP3    H153109   1.350   3.980   4.361
17744TIP3    H253110   1.256   3.872   4.311
17745TIP3   OH253111   8.378   2.905   5.943
17745TIP3    H153112   8.459   2.856   5.929
17745TIP3    H253113   8.382   2.976   5.879
17746TIP3   OH253114   4.184   7.592   3.323
17746TIP3    H153115   4.244   7.600   3.397
17746TIP3    H253116   4.097   7.587   3.364
17747TIP3   OH253117   0.610   3.149   0.197
17747TIP3    H153118   0.679   3.201   0.237
17747TIP3    H253119   0.529   3.180   0.239
17748TIP3   OH253120   8.472   4.287   1.501
17748TIP3    H153121   8.545   4.346   1.481
17748TIP3    H253122   8.507   4.228   1.568
17749TIP3   OH253123   9.308   4.811   0.139
17749TIP3    H153124   9.310   4.716   0.130
17749TIP3    H253125   9.377   4.831   0.202
17750TIP3   OH253126   7.714   8.551   7.084
17750TIP3    H153127   7.806   8.578   7.082
17750TIP3    H253128   7.703   8.497   7.006
17751TIP3   OH253129   3.293   5.247   1.926
17751TIP3    H153130   3.293   5.172   1.866
17751TIP3    H253131   3.212   5.294   1.906
17752TIP3   OH253132   9.025   4.925   1.728
17752TIP3    H153133   9.094   4.863   1.704
17752TIP3    H253134   8.966   4.874   1.784
17753TIP3   OH253135   8.693   7.976   3.535
17753TIP3    H153136   8.684   7.995   3.442
17753TIP3    H253137   8.720   7.884   3.538
17754TIP3   OH253138   3.570   1.846   3.292
17754TIP3    H153139   3.575   1.750   3.295
17754TIP3    H253140   3.484   1.867   3.329
17755TIP3   OH253141   4.084   6.055   5.133
17755TIP3    H153142   4.173   6.022   5.114
17755TIP3    H253143   4.033   6.029   5.057
17756TIP3   OH253144   0.099   2.190   3.458
17756TIP3    H153145   0.144   2.275   3.455
17756TIP3    H253146   0.013   2.211   3.494
17757TIP3   OH253147   9.149   5.364   2.857
17757TIP3    H153148   9.129   5.306   2.783
17757TIP3    H253149   9.150   5.451   2.819
17758TIP3   OH253150   8.306   6.684   6.723
17758TIP3    H153151   8.310   6.618   6.654
17758TIP3    H253152   8.243   6.749   6.691
17759TIP3   OH253153   8.769   6.049   4.055
17759TIP3    H153154   8.753   5.969   4.004
17759TIP3    H253155   8.799   6.017   4.140
17760TIP3   OH253156   7.346   1.618   0.359
17760TIP3    H153157   7.371   1.621   0.267
17760TIP3    H253158   7.423   1.584   0.404
17761TIP3   OH253159   1.458   2.108   1.359
17761TIP3    H153160   1.507   2.190   1.360
17761TIP3    H253161   1.485   2.063   1.439
17762TIP3   OH253162   1.281   2.496   2.480
17762TIP3    H153163   1.300   2.577   2.526
17762TIP3    H253164   1.345   2.433   2.514
17763TIP3   OH253165   6.825   3.614   2.561
17763TIP3    H153166   6.862   3.590   2.476
17763TIP3    H253167   6.894   3.596   2.624
17764TIP3   OH253168   6.459   6.689   0.405
17764TIP3    H153169   6.432   6.765   0.456
17764TIP3    H253170   6.547   6.668   0.438
17765TIP3   OH253171   6.950   6.776   3.452
17765TIP3    H153172   6.955   6.758   3.546
17765TIP3    H253173   6.857   6.779   3.433
17766TIP3   OH253174   5.925   3.242   3.649
17766TIP3    H153175   5.988   3.181   3.687
17766TIP3    H253176   5.975   3.291   3.584
17767TIP3   OH253177   0.604   6.310   7.409
17767TIP3    H153178   0.648   6.232   7.442
17767TIP3    H253179   0.627   6.380   7.470
17768TIP3   OH253180   7.363   5.098   7.278
17768TIP3    H153181   7.383   5.150   7.356
17768TIP3    H253182   7.271   5.118   7.259
17769TIP3   OH253183   5.894   4.617   1.638
17769TIP3    H153184   5.873   4.687   1.575
17769TIP3    H253185   5.942   4.662   1.708
17770TIP3   OH253186   0.920   0.548   7.161
17770TIP3    H153187   0.998   0.513   7.203
17770TIP3    H253188   0.874   0.471   7.126
17771TIP3   OH253189   9.121   6.833   2.441
17771TIP3    H153190   9.065   6.811   2.516
17771TIP3    H253191   9.112   6.758   2.382
17772TIP3   OH253192  -0.004   1.522   2.592
17772TIP3    H153193   0.072   1.492   2.542
17772TIP3    H253194   0.020   1.610   2.620
17773TIP3   OH253195   9.257   4.168   6.997
17773TIP3    H153196   9.192   4.196   7.061
17773TIP3    H253197   9.291   4.085   7.032
17774TIP3   OH253198   2.410   5.849   0.567
17774TIP3    H153199   2.350   5.920   0.589
17774TIP3    H253200   2.471   5.887   0.504
17775TIP3   OH253201   8.583   6.160   4.613
17775TIP3    H153202   8.558   6.252   4.627
17775TIP3    H253203   8.677   6.163   4.596
17776TIP3   OH253204   0.102   1.084   4.464
17776TIP3    H153205   0.140   1.124   4.542
17776TIP3    H253206   0.108   0.990   4.480
17777TIP3   OH253207   5.185   1.348   2.434
17777TIP3    H153208   5.191   1.282   2.503
17777TIP3    H253209   5.163   1.299   2.355
17778TIP3   OH253210   7.889   1.057   0.790
17778TIP3    H153211   7.947   0.997   0.835
17778TIP3    H253212   7.941   1.091   0.717
17779TIP3   OH253213   3.768   2.382   4.919
17779TIP3    H153214   3.742   2.307   4.971
17779TIP3    H253215   3.825   2.346   4.851
17780TIP3   OH253216   9.059   5.246   7.635
17780TIP3    H153217   8.986   5.220   7.578
17780TIP3    H253218   9.054   5.342   7.637
17781TIP3   OH253219   5.785   4.958   3.166
17781TIP3    H153220   5.723   4.912   3.222
17781TIP3    H253221   5.740   5.040   3.143
17782TIP3   OH253222   4.931   6.074   1.755
17782TIP3    H153223   4.870   6.105   1.688
17782TIP3    H253224   4.934   6.146   1.819
17783TIP3   OH253225   2.077   8.882   0.771
17783TIP3    H153226   2.078   8.869   0.676
17783TIP3    H253227   1.987   8.907   0.790
17784TIP3   OH253228   7.541   8.055   3.922
17784TIP3    H153229   7.611   8.002   3.959
17784TIP3    H253230   7.515   8.008   3.842
17785TIP3   OH253231   0.667   3.003   0.539
17785TIP3    H153232   0.629   2.932   0.488
17785TIP3    H253233   0.598   3.069   0.543
17786TIP3   OH253234   2.894   3.523   0.842
17786TIP3    H153235   2.894   3.520   0.938
17786TIP3    H253236   2.827   3.588   0.820
17787TIP3   OH253237   6.292   5.885   2.690
17787TIP3    H153238   6.381   5.858   2.712
17787TIP3    H253239   6.254   5.808   2.646
17788TIP3   OH253240   3.267   4.238   4.111
17788TIP3    H153241   3.332   4.192   4.058
17788TIP3    H253242   3.215   4.168   4.151
17789TIP3   OH253243   6.500   2.293   3.913
17789TIP3    H153244   6.428   2.231   3.903
17789TIP3    H253245   6.474   2.351   3.984
17790TIP3   OH253246   4.113   1.284   1.171
17790TIP3    H153247   4.098   1.274   1.077
17790TIP3    H253248   4.078   1.370   1.192
17791TIP3   OH253249   9.474   1.697   0.864
17791TIP3    H153250   9.566   1.721   0.877
17791TIP3    H253251   9.469   1.605   0.892
17792TIP3   OH253252   6.803   5.028   0.579
17792TIP3    H153253   6.859   5.081   0.522
17792TIP3    H253254   6.841   4.940   0.576
17793TIP3   OH253255   7.636   7.176   6.232
17793TIP3    H153256   7.672   7.248   6.283
17793TIP3    H253257   7.577   7.130   6.292
17794TIP3   OH253258   8.643   3.372   6.318
17794TIP3    H153259   8.561   3.323   6.313
17794TIP3    H253260   8.697   3.322   6.378
17795TIP3   OH253261   7.211   6.162   5.083
17795TIP3    H153262   7.263   6.197   5.156
17795TIP3    H253263   7.154   6.097   5.124
17796TIP3   OH253264   1.382   4.948   4.773
17796TIP3    H153265   1.454   5.010   4.773
17796TIP3    H253266   1.418   4.869   4.815
17797TIP3   OH253267   8.166   2.357   2.643
17797TIP3    H153268   8.155   2.374   2.550
17797TIP3    H253269   8.176   2.444   2.682
17798TIP3   OH253270   5.021   3.283   5.336
17798TIP3    H153271   5.003   3.191   5.322
17798TIP3    H253272   5.046   3.289   5.429
17799TIP3   OH253273   4.479   5.598   3.229
17799TIP3    H153274   4.413   5.574   3.165
17799TIP3    H253275   4.462   5.540   3.304
17800TIP3   OH253276   6.125   8.199   3.303
17800TIP3    H153277   6.157   8.124   3.353
17800TIP3    H253278   6.199   8.260   3.301
17801TIP3   OH253279   5.726   7.177   3.532
17801TIP3    H153280   5.713   7.158   3.439
17801TIP3    H253281   5.722   7.091   3.574
17802TIP3   OH253282   5.976   0.771   6.154
17802TIP3    H153283   5.914   0.797   6.086
17802TIP3    H253284   6.045   0.725   6.106
17803TIP3   OH253285   7.662   3.559   4.781
17803TIP3    H153286   7.664   3.491   4.714
17803TIP3    H253287   7.728   3.531   4.845
17804TIP3   OH253288   6.083   1.223   6.525
17804TIP3    H153289   6.010   1.255   6.471
17804TIP3    H253290   6.140   1.177   6.463
17805TIP3   OH253291   2.375   1.244   7.196
17805TIP3    H153292   2.390   1.249   7.291
17805TIP3    H253293   2.347   1.332   7.172
17806TIP3   OH253294   2.854   5.178   2.136
17806TIP3    H153295   2.794   5.117   2.092
17806TIP3    H253296   2.908   5.214   2.065
17807TIP3   OH253297   1.765   6.469   6.072
17807TIP3    H153298   1.735   6.390   6.028
17807TIP3    H253299   1.773   6.443   6.164
17808TIP3   OH253300   1.456   1.636   2.573
17808TIP3    H153301   1.524   1.571   2.590
17808TIP3    H253302   1.423   1.659   2.659
17809TIP3   OH253303   0.227   0.608   7.297
17809TIP3    H153304   0.239   0.516   7.322
17809TIP3    H253305   0.153   0.606   7.236
17810TIP3   OH253306   9.023   0.929   7.360
17810TIP3    H153307   9.090   0.977   7.408
17810TIP3    H253308   8.941   0.952   7.404
17811TIP3   OH253309   2.809   8.116   7.457
17811TIP3    H153310   2.737   8.103   7.396
17811TIP3    H253311   2.790   8.200   7.499
17812TIP3   OH253312   8.051   2.255   0.370
17812TIP3    H153313   8.047   2.342   0.408
17812TIP3    H253314   8.138   2.249   0.330
17813TIP3   OH253315   8.880   1.004   6.018
17813TIP3    H153316   8.833   1.087   6.004
17813TIP3    H253317   8.848   0.946   5.950
17814TIP3   OH253318   1.339   6.796   4.632
17814TIP3    H153319   1.268   6.780   4.571
17814TIP3    H253320   1.338   6.721   4.692
17815TIP3   OH253321   2.057   2.306   7.078
17815TIP3    H153322   1.999   2.363   7.028
17815TIP3    H253323   2.000   2.237   7.112
17816TIP3   OH253324   5.495   6.003   3.451
17816TIP3    H153325   5.478   6.097   3.446
17816TIP3    H253326   5.430   5.969   3.512
17817TIP3   OH253327   5.526   8.847   4.997
17817TIP3    H153328   5.551   8.900   5.072
17817TIP3    H253329   5.430   8.843   5.001
17818TIP3   OH253330   7.246   1.828   7.652
17818TIP3    H153331   7.284   1.915   7.645
17818TIP3    H253332   7.239   1.813   7.747
17819TIP3   OH253333   5.642   0.962   2.293
17819TIP3    H153334   5.597   1.036   2.252
17819TIP3    H253335   5.571   0.909   2.331
17820TIP3   OH253336   9.517   7.671   5.805
17820TIP3    H153337   9.503   7.587   5.849
17820TIP3    H253338   9.440   7.724   5.829
17821TIP3   OH253339   4.290   1.475   3.215
17821TIP3    H153340   4.371   1.518   3.187
17821TIP3    H253341   4.311   1.439   3.301
17822TIP3   OH253342   8.052   3.352   6.284
17822TIP3    H153343   7.958   3.347   6.267
17822TIP3    H253344   8.093   3.321   6.204
17823TIP3   OH253345   8.806   5.131   0.124
17823TIP3    H153346   8.865   5.192   0.079
17823TIP3    H253347   8.847   5.117   0.210
17824TIP3   OH253348   6.166   1.378   1.940
17824TIP3    H153349   6.255   1.413   1.951
17824TIP3    H253350   6.163   1.349   1.849
17825TIP3   OH253351   2.718   4.180   4.648
17825TIP3    H153352   2.766   4.105   4.614
17825TIP3    H253353   2.642   4.141   4.693
17826TIP3   OH253354   8.445   0.321   7.455
17826TIP3    H153355   8.436   0.242   7.508
17826TIP3    H253356   8.513   0.372   7.498
17827TIP3   OH253357   1.801   4.270   6.651
17827TIP3    H153358   1.794   4.249   6.744
17827TIP3    H253359   1.794   4.366   6.648
17828TIP3   OH253360   4.103   7.953   2.616
17828TIP3    H153361   4.065   8.017   2.676
17828TIP3    H253362   4.035   7.939   2.550
17829TIP3   OH253363   1.453   5.371   0.406
17829TIP3    H153364   1.369   5.326   0.398
17829TIP3    H253365   1.488   5.341   0.490
17830TIP3   OH253366   3.748   0.114   5.309
17830TIP3    H153367   3.806   0.040   5.295
17830TIP3    H253368   3.802   0.179   5.353
17831TIP3   OH253369   5.113   7.787   1.820
17831TIP3    H153370   5.082   7.810   1.908
17831TIP3    H253371   5.082   7.698   1.806
17832TIP3   OH253372   2.826   2.478   1.625
17832TIP3    H153373   2.771   2.401   1.616
17832TIP3    H253374   2.916   2.444   1.626
17833TIP3   OH253375   0.901   6.288   2.306
17833TIP3    H153376   0.871   6.372   2.341
17833TIP3    H253377   0.996   6.299   2.297
17834TIP3   OH253378   4.144   6.648   7.122
17834TIP3    H153379   4.237   6.670   7.130
17834TIP3    H253380   4.143   6.571   7.066
17835TIP3   OH253381   3.940   4.635   5.318
17835TIP3    H153382   4.006   4.571   5.292
17835TIP3    H253383   3.907   4.671   5.236
17836TIP3   OH253384   3.916   0.431   1.962
17836TIP3    H153385   3.913   0.512   1.911
17836TIP3    H253386   3.869   0.367   1.907
17837TIP3   OH253387   4.029   2.363   4.504
17837TIP3    H153388   3.942   2.397   4.526
17837TIP3    H253389   4.071   2.347   4.589
17838TIP3   OH253390   0.469   8.801   6.707
17838TIP3    H153391   0.383   8.769   6.679
17838TIP3    H253392   0.512   8.723   6.743
17839TIP3   OH253393   9.214   8.825   1.484
17839TIP3    H153394   9.152   8.791   1.419
17839TIP3    H253395   9.190   8.918   1.493
17840TIP3   OH253396   1.622   5.892   6.556
17840TIP3    H153397   1.621   5.839   6.476
17840TIP3    H253398   1.685   5.962   6.537
17841TIP3   OH253399   6.443   1.137   3.185
17841TIP3    H153400   6.375   1.204   3.184
17841TIP3    H253401   6.404   1.064   3.232
17842TIP3   OH253402   3.950   2.782   7.538
17842TIP3    H153403   3.947   2.704   7.593
17842TIP3    H253404   3.859   2.796   7.511
17843TIP3   OH253405   5.781   3.061   3.145
17843TIP3    H153406   5.708   3.120   3.161
17843TIP3    H253407   5.764   3.025   3.058
17844TIP3   OH253408   5.828   4.157   1.676
17844TIP3    H153409   5.859   4.221   1.740
17844TIP3    H253410   5.855   4.192   1.591
17845TIP3   OH253411   7.502   2.471   7.197
17845TIP3    H153412   7.454   2.483   7.115
17845TIP3    H253413   7.535   2.558   7.218
17846TIP3   OH253414   1.337   7.872   3.205
17846TIP3    H153415   1.402   7.832   3.262
17846TIP3    H253416   1.255   7.828   3.228
17847TIP3   OH253417   2.625   3.171   0.379
17847TIP3    H153418   2.720   3.185   0.373
17847TIP3    H253419   2.592   3.251   0.418
17848TIP3   OH253420   2.228   7.939   5.732
17848TIP3    H153421   2.272   7.872   5.784
17848TIP3    H253422   2.229   7.905   5.643
17849TIP3   OH253423   6.271   7.133   6.077
17849TIP3    H153424   6.353   7.167   6.114
17849TIP3    H253425   6.203   7.161   6.137
17850TIP3   OH253426   9.066   0.953   0.356
17850TIP3    H153427   9.009   0.964   0.432
17850TIP3    H253428   9.110   1.038   0.346
17851TIP3   OH253429   8.473   7.443   1.655
17851TIP3    H153430   8.462   7.395   1.737
17851TIP3    H253431   8.414   7.400   1.593
17852TIP3   OH253432   6.014   4.436   0.553
17852TIP3    H153433   5.949   4.506   0.547
17852TIP3    H253434   6.051   4.430   0.465
17853TIP3   OH253435   9.520   1.812   7.034
17853TIP3    H153436   9.581   1.839   7.103
17853TIP3    H253437   9.459   1.753   7.078
17854TIP3   OH253438   5.759   1.730   5.129
17854TIP3    H153439   5.751   1.634   5.125
17854TIP3    H253440   5.851   1.745   5.150
17855TIP3   OH253441   3.621   0.972   2.335
17855TIP3    H153442   3.576   0.958   2.252
17855TIP3    H253443   3.551   0.996   2.396
17856TIP3   OH253444   0.176   0.284   6.265
17856TIP3    H153445   0.137   0.223   6.327
17856TIP3    H253446   0.200   0.360   6.318
17857TIP3   OH253447   0.528   5.086   7.709
17857TIP3    H153448   0.587   5.084   7.634
17857TIP3    H253449   0.552   5.010   7.761
17858TIP3   OH253450   6.357   0.106   3.929
17858TIP3    H153451   6.341   0.016   3.960
17858TIP3    H253452   6.405   0.147   4.000
17859TIP3   OH253453   1.490   0.686   1.366
17859TIP3    H153454   1.500   0.593   1.344
17859TIP3    H253455   1.558   0.730   1.314
17860TIP3   OH253456   0.350   3.040   3.691
17860TIP3    H153457   0.256   3.034   3.708
17860TIP3    H253458   0.356   3.052   3.596
17861TIP3   OH253459   0.532   4.619   3.628
17861TIP3    H153460   0.562   4.687   3.688
17861TIP3    H253461   0.610   4.595   3.578
17862TIP3   OH253462   8.465   1.400   6.598
17862TIP3    H153463   8.431   1.321   6.556
17862TIP3    H253464   8.445   1.471   6.537
17863TIP3   OH253465   7.554   1.599   2.228
17863TIP3    H153466   7.570   1.515   2.183
17863TIP3    H253467   7.472   1.631   2.190
17864TIP3   OH253468   1.879   5.052   0.968
17864TIP3    H153469   1.787   5.065   0.949
17864TIP3    H253470   1.879   5.001   1.050
17865TIP3   OH253471   6.145   4.617   4.513
17865TIP3    H153472   6.083   4.610   4.440
17865TIP3    H253473   6.105   4.679   4.573
17866TIP3   OH253474   4.106   4.460   3.340
17866TIP3    H153475   4.128   4.477   3.249
17866TIP3    H253476   4.046   4.386   3.337
17867TIP3   OH253477   0.557   7.325   3.525
17867TIP3    H153478   0.574   7.241   3.568
17867TIP3    H253479   0.637   7.375   3.537
17868TIP3   OH253480   7.217   4.044   5.270
17868TIP3    H153481   7.173   3.969   5.230
17868TIP3    H253482   7.304   4.046   5.229
17869TIP3   OH253483   7.950   5.051   7.751
17869TIP3    H153484   7.963   5.114   7.681
17869TIP3    H253485   7.896   4.982   7.713
17870TIP3   OH253486   1.413   0.252   6.818
17870TIP3    H153487   1.336   0.198   6.833
17870TIP3    H253488   1.378   0.337   6.791
17871TIP3   OH253489   4.300   0.281   3.069
17871TIP3    H153490   4.319   0.341   3.140
17871TIP3    H253491   4.224   0.231   3.099
17872TIP3   OH253492   5.423   6.988   1.057
17872TIP3    H153493   5.393   7.043   0.984
17872TIP3    H253494   5.416   7.044   1.134
17873TIP3   OH253495   4.312   0.328   7.528
17873TIP3    H153496   4.254   0.380   7.583
17873TIP3    H253497   4.311   0.373   7.443
17874TIP3   OH253498   7.472   6.761   5.683
17874TIP3    H153499   7.553   6.711   5.672
17874TIP3    H253500   7.502   6.849   5.708
17875TIP3   OH253501   6.958   0.199   0.756
17875TIP3    H153502   6.927   0.109   0.758
17875TIP3    H253503   6.958   0.226   0.848
17876TIP3   OH253504   5.332   3.766   2.366
17876TIP3    H153505   5.336   3.861   2.356
17876TIP3    H253506   5.365   3.750   2.454
17877TIP3   OH253507   7.699   0.408   4.470
17877TIP3    H153508   7.620   0.356   4.457
17877TIP3    H253509   7.712   0.409   4.565
17878TIP3   OH253510   0.859   2.531   6.577
17878TIP3    H153511   0.827   2.538   6.667
17878TIP3    H253512   0.923   2.602   6.570
17879TIP3   OH253513   3.474   1.633   6.447
17879TIP3    H153514   3.467   1.698   6.517
17879TIP3    H253515   3.566   1.635   6.420
17880TIP3   OH253516   0.903   4.799   0.418
17880TIP3    H153517   0.991   4.762   0.418
17880TIP3    H253518   0.910   4.877   0.473
17881TIP3   OH253519   8.707   3.357   4.171
17881TIP3    H153520   8.717   3.402   4.087
17881TIP3    H253521   8.659   3.277   4.150
17882TIP3   OH253522   9.312   3.291   4.025
17882TIP3    H153523   9.363   3.365   3.991
17882TIP3    H253524   9.277   3.323   4.108
17883TIP3   OH253525   2.915   0.333   0.323
17883TIP3    H153526   2.949   0.403   0.379
17883TIP3    H253527   2.993   0.292   0.286
17884TIP3   OH253528   8.286   0.908   1.544
17884TIP3    H153529   8.280   0.994   1.585
17884TIP3    H253530   8.379   0.897   1.525
17885TIP3   OH253531   7.035   8.935   2.204
17885TIP3    H153532   7.121   8.937   2.244
17885TIP3    H253533   7.042   8.868   2.136
17886TIP3   OH253534   3.349   3.143   3.684
17886TIP3    H153535   3.288   3.070   3.672
17886TIP3    H253536   3.435   3.102   3.694
17887TIP3   OH253537   5.740   0.084   3.120
17887TIP3    H153538   5.801   0.050   3.186
17887TIP3    H253539   5.730   0.012   3.057
17888TIP3   OH253540   2.261   7.286   6.095
17888TIP3    H153541   2.224   7.216   6.149
17888TIP3    H253542   2.200   7.296   6.023
17889TIP3   OH253543   9.056   3.412   3.461
17889TIP3    H153544   9.099   3.353   3.523
17889TIP3    H253545   9.112   3.412   3.384
17890TIP3   OH253546   6.159   7.377   0.311
17890TIP3    H153547   6.143   7.297   0.259
17890TIP3    H253548   6.089   7.376   0.376
17891TIP3   OH253549   7.160   1.006   4.212
17891TIP3    H153550   7.158   1.097   4.185
17891TIP3    H253551   7.234   1.000   4.272
17892TIP3   OH253552   7.425   6.611   5.032
17892TIP3    H153553   7.359   6.545   5.055
17892TIP3    H253554   7.413   6.680   5.097
17893TIP3   OH253555   8.404   6.027   6.199
17893TIP3    H153556   8.339   6.094   6.181
17893TIP3    H253557   8.481   6.075   6.230
17894TIP3   OH253558   6.466   1.468   3.659
17894TIP3    H153559   6.518   1.545   3.636
17894TIP3    H253560   6.505   1.397   3.607
17895TIP3   OH253561   1.034   0.471   4.293
17895TIP3    H153562   1.033   0.520   4.211
17895TIP3    H253563   1.114   0.418   4.288
17896TIP3   OH253564   7.349   2.301   4.327
17896TIP3    H153565   7.383   2.305   4.237
17896TIP3    H253566   7.346   2.392   4.356
17897TIP3   OH253567   0.172   2.282   4.775
17897TIP3    H153568   0.253   2.256   4.819
17897TIP3    H253569   0.105   2.225   4.814
17898TIP3   OH253570   3.125   3.042   2.837
17898TIP3    H153571   3.209   2.996   2.844
17898TIP3    H253572   3.068   2.981   2.790
17899TIP3   OH253573   6.460   6.702   2.982
17899TIP3    H153574   6.515   6.685   2.906
17899TIP3    H253575   6.372   6.679   2.953
17900TIP3   OH253576   2.975   1.364   4.881
17900TIP3    H153577   3.067   1.359   4.855
17900TIP3    H253578   2.927   1.321   4.809
17901TIP3   OH253579   8.511   2.536   1.139
17901TIP3    H153580   8.502   2.444   1.115
17901TIP3    H253581   8.534   2.580   1.058
17902TIP3   OH253582   4.055   5.372   2.727
17902TIP3    H153583   4.079   5.392   2.636
17902TIP3    H253584   4.010   5.288   2.722
17903TIP3   OH253585   1.526   4.190   1.690
17903TIP3    H153586   1.461   4.166   1.624
17903TIP3    H253587   1.610   4.174   1.648
17904TIP3   OH253588   5.112   8.569   1.178
17904TIP3    H153589   5.033   8.617   1.204
17904TIP3    H253590   5.116   8.578   1.083
17905TIP3   OH253591   2.090   4.312   5.812
17905TIP3    H153592   2.118   4.366   5.738
17905TIP3    H253593   2.136   4.350   5.888
17906TIP3   OH253594   1.551   3.966   0.076
17906TIP3    H153595   1.641   3.937   0.091
17906TIP3    H253596   1.514   3.901   0.016
17907TIP3   OH253597   7.811   5.500   3.843
17907TIP3    H153598   7.763   5.528   3.920
17907TIP3    H253599   7.903   5.498   3.871
17908TIP3   OH253600   0.023   0.310   0.788
17908TIP3    H153601  -0.053   0.291   0.733
17908TIP3    H253602  -0.012   0.361   0.860
17909TIP3   OH253603   7.864   1.973   1.875
17909TIP3    H153604   7.789   2.021   1.909
17909TIP3    H253605   7.931   1.980   1.943
17910TIP3   OH253606   3.654   6.956   7.428
17910TIP3    H153607   3.714   6.881   7.435
17910TIP3    H253608   3.661   7.000   7.513
17911TIP3   OH253609   6.124   7.841   4.891
17911TIP3    H153610   6.041   7.826   4.846
17911TIP3    H253611   6.102   7.898   4.964
17912TIP3   OH253612   6.982   6.508   7.713
17912TIP3    H153613   7.064   6.557   7.713
17912TIP3    H253614   6.951   6.514   7.622
17913TIP3   OH253615   6.639   5.435   3.165
17913TIP3    H153616   6.576   5.462   3.232
17913TIP3    H253617   6.708   5.391   3.213
17914TIP3   OH253618   5.869   0.605   1.371
17914TIP3    H153619   5.776   0.625   1.376
17914TIP3    H253620   5.874   0.512   1.394
17915TIP3   OH253621   7.616   0.428   1.350
17915TIP3    H153622   7.534   0.387   1.379
17915TIP3    H253623   7.598   0.456   1.260
17916TIP3   OH253624   3.867   1.485   0.882
17916TIP3    H153625   3.910   1.534   0.813
17916TIP3    H253626   3.807   1.547   0.922
17917TIP3   OH253627   1.154   8.937   1.340
17917TIP3    H153628   1.110   9.012   1.380
17917TIP3    H253629   1.179   8.882   1.414
17918TIP3   OH253630   0.432   0.654   1.294
17918TIP3    H153631   0.495   0.682   1.228
17918TIP3    H253632   0.348   0.690   1.264
17919TIP3   OH253633   2.450   0.431   3.303
17919TIP3    H153634   2.420   0.342   3.322
17919TIP3    H253635   2.375   0.474   3.262
17920TIP3   OH253636   7.149   0.640   6.943
17920TIP3    H153637   7.081   0.684   6.994
17920TIP3    H253638   7.125   0.547   6.946
17921TIP3   OH253639   5.815   5.282   4.978
17921TIP3    H153640   5.781   5.289   4.889
17921TIP3    H253641   5.907   5.259   4.967
17922TIP3   OH253642   6.992   4.009   1.618
17922TIP3    H153643   6.932   4.022   1.545
17922TIP3    H253644   6.935   4.005   1.695
17923TIP3   OH253645   1.546   6.255   3.819
17923TIP3    H153646   1.548   6.303   3.902
17923TIP3    H253647   1.612   6.298   3.765
17924TIP3   OH253648   7.746   5.905   0.999
17924TIP3    H153649   7.816   5.967   1.020
17924TIP3    H253650   7.747   5.842   1.071
17925TIP3   OH253651   0.894   8.447   0.230
17925TIP3    H153652   0.917   8.419   0.318
17925TIP3    H253653   0.868   8.366   0.186
17926TIP3   OH253654   7.670   3.341   7.642
17926TIP3    H153655   7.731   3.372   7.710
17926TIP3    H253656   7.598   3.301   7.692
17927TIP3   OH253657   9.304   8.367   3.495
17927TIP3    H153658   9.282   8.458   3.475
17927TIP3    H253659   9.339   8.332   3.413
17928TIP3   OH253660   4.389   6.838   0.461
17928TIP3    H153661   4.471   6.887   0.466
17928TIP3    H253662   4.381   6.812   0.370
17929TIP3   OH253663   7.570   5.220   1.626
17929TIP3    H153664   7.604   5.133   1.606
17929TIP3    H253665   7.479   5.218   1.595
17930TIP3   OH253666   9.238   5.362   5.618
17930TIP3    H153667   9.174   5.413   5.669
17930TIP3    H253668   9.320   5.370   5.668
17931TIP3   OH253669   2.370   8.729   7.775
17931TIP3    H153670   2.463   8.732   7.795
17931TIP3    H253671   2.366   8.693   7.686
17932TIP3   OH253672   1.105   1.281   2.175
17932TIP3    H153673   1.127   1.338   2.100
17932TIP3    H253674   1.160   1.314   2.246
17933TIP3   OH253675   0.429   7.450   0.457
17933TIP3    H153676   0.370   7.523   0.437
17933TIP3    H253677   0.417   7.433   0.550
17934TIP3   OH253678   2.014   2.824   4.830
17934TIP3    H153679   2.082   2.830   4.763
17934TIP3    H253680   2.057   2.854   4.910
17935TIP3   OH253681   4.512   8.131   2.104
17935TIP3    H153682   4.467   8.174   2.030
17935TIP3    H253683   4.516   8.039   2.079
17936TIP3   OH253684   8.036   4.729   2.817
17936TIP3    H153685   7.995   4.684   2.743
17936TIP3    H253686   8.011   4.677   2.893
17937TIP3   OH253687   9.170   1.707   0.849
17937TIP3    H153688   9.151   1.633   0.791
17937TIP3    H253689   9.266   1.714   0.847
17938TIP3   OH253690   3.280   6.016   4.979
17938TIP3    H153691   3.248   6.060   4.901
17938TIP3    H253692   3.306   5.929   4.949
17939TIP3   OH253693   4.712   7.862   6.875
17939TIP3    H153694   4.696   7.880   6.967
17939TIP3    H253695   4.670   7.934   6.828
17940TIP3   OH253696   9.424   3.495   7.186
17940TIP3    H153697   9.458   3.406   7.190
17940TIP3    H253698   9.349   3.496   7.245
17941TIP3   OH253699   5.390   8.855   7.071
17941TIP3    H153700   5.335   8.931   7.051
17941TIP3    H253701   5.476   8.892   7.090
17942TIP3   OH253702   0.945   5.986   5.533
17942TIP3    H153703   0.909   5.946   5.454
17942TIP3    H253704   0.900   6.070   5.541
17943TIP3   OH253705   2.531   0.134   5.827
17943TIP3    H153706   2.443   0.169   5.837
17943TIP3    H253707   2.522   0.041   5.848
17944TIP3   OH253708   3.295   5.778   6.218
17944TIP3    H153709   3.283   5.728   6.299
17944TIP3    H253710   3.312   5.711   6.151
17945TIP3   OH253711   8.415   2.390   2.276
17945TIP3    H153712   8.464   2.343   2.344
17945TIP3    H253713   8.450   2.479   2.278
17946TIP3   OH253714   7.043   8.037   5.561
17946TIP3    H153715   6.994   8.069   5.486
17946TIP3    H253716   7.082   8.115   5.600
17947TIP3   OH253717   2.085   7.794   7.449
17947TIP3    H153718   2.057   7.741   7.374
17947TIP3    H253719   2.146   7.737   7.497
17948TIP3   OH253720   2.929   0.416   2.012
17948TIP3    H153721   3.024   0.403   2.019
17948TIP3    H253722   2.891   0.356   2.076
17949TIP3   OH253723   3.790   2.260   7.754
17949TIP3    H153724   3.862   2.212   7.795
17949TIP3    H253725   3.771   2.212   7.674
17950TIP3   OH253726   9.422   3.792   5.338
17950TIP3    H153727   9.411   3.874   5.289
17950TIP3    H253728   9.351   3.736   5.307
17951TIP3   OH253729   9.236   1.248   4.789
17951TIP3    H153730   9.241   1.299   4.870
17951TIP3    H253731   9.143   1.252   4.764
17952TIP3   OH253732   0.799   2.248   7.785
17952TIP3    H153733   0.805   2.268   7.878
17952TIP3    H253734   0.746   2.319   7.748
17953TIP3   OH253735   5.377   5.642   0.225
17953TIP3    H153736   5.342   5.668   0.140
17953TIP3    H253737   5.455   5.696   0.236
17954TIP3   OH253738   9.164   0.998   5.439
17954TIP3    H153739   9.164   0.933   5.509
17954TIP3    H253740   9.255   1.003   5.411
17955TIP3   OH253741   4.080   0.356   0.218
17955TIP3    H153742   4.019   0.310   0.159
17955TIP3    H253743   4.162   0.308   0.209
17956TIP3   OH253744   3.413   8.014   7.708
17956TIP3    H153745   3.358   7.937   7.720
17956TIP3    H253746   3.501   7.985   7.731
17957TIP3   OH253747   7.790   6.336   0.243
17957TIP3    H153748   7.846   6.273   0.288
17957TIP3    H253749   7.703   6.321   0.280
17958TIP3   OH253750   4.748   2.139   7.379
17958TIP3    H153751   4.655   2.141   7.400
17958TIP3    H253752   4.782   2.065   7.429
17959TIP3   OH253753   3.152   2.138   5.849
17959TIP3    H153754   3.231   2.119   5.798
17959TIP3    H253755   3.128   2.054   5.889
17960TIP3   OH253756   3.442   3.068   4.336
17960TIP3    H153757   3.455   3.125   4.260
17960TIP3    H253758   3.368   3.012   4.313
17961TIP3   OH253759   3.340   7.189   1.223
17961TIP3    H153760   3.297   7.275   1.230
17961TIP3    H253761   3.269   7.126   1.230
17962TIP3   OH253762   2.710   2.533   6.719
17962TIP3    H153763   2.697   2.607   6.778
17962TIP3    H253764   2.732   2.572   6.635
17963TIP3   OH253765   7.192   5.593   1.816
17963TIP3    H153766   7.115   5.555   1.858
17963TIP3    H253767   7.191   5.555   1.728
17964TIP3   OH253768   3.304   2.361   0.079
17964TIP3    H153769   3.330   2.454   0.083
17964TIP3    H253770   3.387   2.314   0.067
17965TIP3   OH253771   7.055   1.640   4.303
17965TIP3    H153772   7.127   1.674   4.355
17965TIP3    H253773   6.991   1.712   4.298
17966TIP3   OH253774   6.915   6.081   4.946
17966TIP3    H153775   6.935   6.052   5.035
17966TIP3    H253776   6.998   6.114   4.912
17967TIP3   OH253777   7.692   7.877   0.637
17967TIP3    H153778   7.761   7.861   0.572
17967TIP3    H253779   7.705   7.810   0.704
17968TIP3   OH253780   1.319   8.566   2.545
17968TIP3    H153781   1.301   8.488   2.598
17968TIP3    H253782   1.237   8.615   2.546
17969TIP3   OH253783   5.132   7.129   6.650
17969TIP3    H153784   5.151   7.036   6.636
17969TIP3    H253785   5.048   7.143   6.607
17970TIP3   OH253786   6.479   5.049   7.560
17970TIP3    H153787   6.569   5.050   7.592
17970TIP3    H253788   6.451   5.140   7.566
17971TIP3   OH253789   3.038   8.236   3.974
17971TIP3    H153790   3.005   8.297   4.041
17971TIP3    H253791   3.008   8.150   4.004
17972TIP3   OH253792   5.907   8.057   1.233
17972TIP3    H153793   5.963   8.011   1.294
17972TIP3    H253794   5.935   8.149   1.239
17973TIP3   OH253795   0.126   0.304   3.368
17973TIP3    H153796   0.049   0.304   3.311
17973TIP3    H253797   0.143   0.396   3.386
17974TIP3   OH253798   2.942   4.034   5.649
17974TIP3    H153799   2.917   3.951   5.691
17974TIP3    H253800   2.950   4.096   5.722
17975TIP3   OH253801   5.666   7.697   2.311
17975TIP3    H153802   5.584   7.739   2.340
17975TIP3    H253803   5.713   7.765   2.264
17976TIP3   OH253804   1.308   8.546   7.653
17976TIP3    H153805   1.216   8.548   7.626
17976TIP3    H253806   1.327   8.453   7.664
17977TIP3   OH253807   3.975   4.283   6.678
17977TIP3    H153808   4.071   4.285   6.673
17977TIP3    H253809   3.949   4.217   6.615
17978TIP3   OH253810   3.220   1.277   6.163
17978TIP3    H153811   3.298   1.320   6.129
17978TIP3    H253812   3.253   1.216   6.229
17979TIP3   OH253813   2.117   8.922   5.984
17979TIP3    H153814   2.035   8.970   5.981
17979TIP3    H253815   2.115   8.876   6.068
17980TIP3   OH253816   2.329   2.498   0.904
17980TIP3    H153817   2.404   2.450   0.869
17980TIP3    H253818   2.339   2.491   0.999
17981TIP3   OH253819   1.227   2.733   2.677
17981TIP3    H153820   1.151   2.791   2.680
17981TIP3    H253821   1.301   2.792   2.659
17982TIP3   OH253822   4.003   6.971   1.636
17982TIP3    H153823   3.979   6.881   1.656
17982TIP3    H253824   3.994   6.978   1.540
17983TIP3   OH253825   5.162   6.999   4.739
17983TIP3    H153826   5.083   6.954   4.768
17983TIP3    H253827   5.227   6.981   4.808
17984TIP3   OH253828   3.996   7.307   1.976
17984TIP3    H153829   4.030   7.220   1.954
17984TIP3    H253830   4.063   7.345   2.032
17985TIP3   OH253831   1.828   7.936   7.433
17985TIP3    H153832   1.858   8.001   7.370
17985TIP3    H253833   1.903   7.878   7.445
17986TIP3   OH253834   3.405   0.201   1.257
17986TIP3    H153835   3.344   0.193   1.183
17986TIP3    H253836   3.348   0.210   1.333
17987TIP3   OH253837   5.493   3.805   1.813
17987TIP3    H153838   5.587   3.819   1.824
17987TIP3    H253839   5.473   3.843   1.728
17988TIP3   OH253840   8.261   6.765   3.937
17988TIP3    H153841   8.306   6.849   3.939
17988TIP3    H253842   8.276   6.731   3.849
17989TIP3   OH253843   3.000   8.702   7.198
17989TIP3    H153844   3.053   8.780   7.216
17989TIP3    H253845   2.993   8.701   7.102
17990TIP3   OH253846   1.458   8.743   6.800
17990TIP3    H153847   1.420   8.690   6.731
17990TIP3    H253848   1.393   8.743   6.870
17991TIP3   OH253849   1.387   4.436   5.525
17991TIP3    H153850   1.335   4.499   5.576
17991TIP3    H253851   1.350   4.351   5.549
17992TIP3   OH253852   8.716   4.475   6.097
17992TIP3    H153853   8.648   4.541   6.110
17992TIP3    H253854   8.775   4.514   6.033
17993TIP3   OH253855   9.080   2.424   5.592
17993TIP3    H153856   9.154   2.454   5.644
17993TIP3    H253857   9.119   2.367   5.526
17994TIP3   OH253858   7.305   2.065   3.326
17994TIP3    H153859   7.375   2.110   3.277
17994TIP3    H253860   7.310   1.974   3.297
17995TIP3   OH253861   0.904   8.214   7.178
17995TIP3    H153862   0.966   8.143   7.193
17995TIP3    H253863   0.958   8.293   7.173
17996TIP3   OH253864   0.401   0.821   0.296
17996TIP3    H153865   0.365   0.797   0.210
17996TIP3    H253866   0.345   0.774   0.358
17997TIP3   OH253867   0.639   5.679   5.060
17997TIP3    H153868   0.623   5.707   4.970
17997TIP3    H253869   0.568   5.719   5.111
17998TIP3   OH253870   5.368   3.344   0.842
17998TIP3    H153871   5.402   3.258   0.868
17998TIP3    H253872   5.333   3.381   0.923
17999TIP3   OH253873   0.849   4.575   1.800
17999TIP3    H153874   0.928   4.613   1.838
17999TIP3    H253875   0.777   4.624   1.840
18000TIP3   OH253876   3.334   8.318   6.493
18000TIP3    H153877   3.255   8.316   6.547
18000TIP3    H253878   3.391   8.382   6.536
18001TIP3   OH253879   7.194   7.634   2.098
18001TIP3    H153880   7.215   7.632   2.004
18001TIP3    H253881   7.241   7.558   2.134
18002TIP3   OH253882   1.789   1.683   7.712
18002TIP3    H153883   1.693   1.683   7.705
18002TIP3    H253884   1.810   1.769   7.750
18003TIP3   OH253885   3.029   7.987   3.298
18003TIP3    H153886   3.079   7.928   3.354
18003TIP3    H253887   2.945   7.943   3.286
18004TIP3   OH253888   0.390   4.438   1.371
18004TIP3    H153889   0.322   4.374   1.395
18004TIP3    H253890   0.472   4.394   1.395
18005TIP3   OH253891   8.045   2.760   2.092
18005TIP3    H153892   8.066   2.678   2.048
18005TIP3    H253893   7.951   2.772   2.077
18006TIP3   OH253894   7.398   8.955   0.044
18006TIP3    H153895   7.390   8.996   0.130
18006TIP3    H253896   7.396   9.028  -0.018
18007TIP3   OH253897   3.675   3.732   7.689
18007TIP3    H153898   3.737   3.660   7.701
18007TIP3    H253899   3.729   3.811   7.693
18008TIP3   OH253900   0.298   6.523   6.328
18008TIP3    H153901   0.313   6.451   6.389
18008TIP3    H253902   0.269   6.596   6.382
18009TIP3   OH253903   2.353   7.473   0.660
18009TIP3    H153904   2.346   7.380   0.637
18009TIP3    H253905   2.274   7.513   0.624
18010TIP3   OH253906   6.944   5.325   6.544
18010TIP3    H153907   6.945   5.232   6.565
18010TIP3    H253908   6.988   5.331   6.459
18011TIP3   OH253909   2.493   1.324   3.196
18011TIP3    H153910   2.545   1.244   3.188
18011TIP3    H253911   2.556   1.395   3.185
18012TIP3   OH253912   3.575   5.004   3.725
18012TIP3    H153913   3.631   4.936   3.763
18012TIP3    H253914   3.494   5.000   3.774
18013TIP3   OH253915   9.298   6.952   1.145
18013TIP3    H153916   9.282   6.869   1.099
18013TIP3    H253917   9.363   6.997   1.091
18014TIP3   OH253918   5.032   4.766   2.956
18014TIP3    H153919   4.989   4.682   2.941
18014TIP3    H253920   5.106   4.766   2.896
18015TIP3   OH253921   5.122   7.020   2.168
18015TIP3    H153922   5.065   6.955   2.126
18015TIP3    H253923   5.156   6.975   2.245
18016TIP3   OH253924   7.152   4.589   2.175
18016TIP3    H153925   7.071   4.543   2.198
18016TIP3    H253926   7.172   4.560   2.086
18017TIP3   OH253927   5.128   3.701   7.364
18017TIP3    H153928   5.163   3.647   7.293
18017TIP3    H253929   5.043   3.730   7.332
18018TIP3   OH253930   9.383   2.793   2.458
18018TIP3    H153931   9.400   2.845   2.536
18018TIP3    H253932   9.415   2.848   2.386
18019TIP3   OH253933   4.239   5.321   0.286
18019TIP3    H153934   4.188   5.396   0.255
18019TIP3    H253935   4.184   5.245   0.266
18020TIP3   OH253936   8.773   4.634   3.849
18020TIP3    H153937   8.784   4.670   3.937
18020TIP3    H253938   8.834   4.559   3.845
18021TIP3   OH253939   2.625   7.295   0.688
18021TIP3    H153940   2.549   7.271   0.635
18021TIP3    H253941   2.700   7.280   0.631
18022TIP3   OH253942   3.073   8.577   4.996
18022TIP3    H153943   2.980   8.564   4.979
18022TIP3    H253944   3.076   8.650   5.058
18023TIP3   OH253945   7.993   0.678   1.866
18023TIP3    H153946   8.050   0.708   1.796
18023TIP3    H253947   7.962   0.592   1.837
18024TIP3   OH253948   9.368   6.334   6.513
18024TIP3    H153949   9.416   6.252   6.510
18024TIP3    H253950   9.312   6.332   6.435
18025TIP3   OH253951   0.580   7.697   3.423
18025TIP3    H153952   0.534   7.771   3.462
18025TIP3    H253953   0.559   7.701   3.330
18026TIP3   OH253954   1.337   0.852   6.818
18026TIP3    H153955   1.389   0.923   6.856
18026TIP3    H253956   1.274   0.829   6.887
18027TIP3   OH253957   0.857   0.727   3.477
18027TIP3    H153958   0.833   0.645   3.520
18027TIP3    H253959   0.802   0.729   3.398
18028TIP3   OH253960   2.937   4.274   3.892
18028TIP3    H153961   2.981   4.189   3.904
18028TIP3    H253962   2.919   4.278   3.798
18029TIP3   OH253963   3.054   8.918   0.383
18029TIP3    H153964   3.122   8.925   0.317
18029TIP3    H253965   3.097   8.877   0.458
18030TIP3   OH253966   7.042   1.216   1.012
18030TIP3    H153967   6.998   1.301   1.011
18030TIP3    H253968   7.018   1.177   1.096
18031TIP3   OH253969   3.107   4.485   2.599
18031TIP3    H153970   3.107   4.567   2.648
18031TIP3    H253971   3.131   4.510   2.510
18032TIP3   OH253972   3.465   3.300   0.688
18032TIP3    H153973   3.545   3.351   0.693
18032TIP3    H253974   3.397   3.359   0.720
18033TIP3   OH253975   7.258   8.406   0.823
18033TIP3    H153976   7.173   8.384   0.784
18033TIP3    H253977   7.242   8.406   0.917
18034TIP3   OH253978   8.773   0.646   7.081
18034TIP3    H153979   8.721   0.725   7.096
18034TIP3    H253980   8.864   0.676   7.086
18035TIP3   OH253981   3.832   0.934   6.814
18035TIP3    H153982   3.767   0.985   6.862
18035TIP3    H253983   3.910   0.936   6.869
18036TIP3   OH253984   7.435   1.670   6.449
18036TIP3    H153985   7.480   1.709   6.374
18036TIP3    H253986   7.399   1.745   6.496
18037TIP3   OH253987   2.682   2.475   1.344
18037TIP3    H153988   2.745   2.539   1.378
18037TIP3    H253989   2.602   2.490   1.396
18038TIP3   OH253990   8.037   7.215   2.034
18038TIP3    H153991   8.037   7.287   2.097
18038TIP3    H253992   8.036   7.136   2.088
18039TIP3   OH253993   1.297   4.360   3.554
18039TIP3    H153994   1.267   4.272   3.577
18039TIP3    H253995   1.301   4.360   3.459
18040TIP3   OH253996   6.319   6.250   3.664
18040TIP3    H153997   6.241   6.202   3.636
18040TIP3    H253998   6.296   6.287   3.749
18041TIP3   OH253999   3.733   6.045   5.124
18041TIP3    H154000   3.789   6.118   5.099
18041TIP3    H254001   3.723   5.993   5.044
18042TIP3   OH254002   4.651   8.649   3.527
18042TIP3    H154003   4.725   8.677   3.473
18042TIP3    H254004   4.684   8.652   3.616
18043TIP3   OH254005   6.304   8.574   5.562
18043TIP3    H154006   6.294   8.581   5.657
18043TIP3    H254007   6.388   8.616   5.544
18044TIP3   OH254008   6.672   4.940   0.235
18044TIP3    H154009   6.629   4.954   0.320
18044TIP3    H254010   6.620   4.992   0.174
18045TIP3   OH254011   8.784   1.439   3.712
18045TIP3    H154012   8.865   1.485   3.693
18045TIP3    H254013   8.716   1.490   3.668
18046TIP3   OH254014   6.875   7.113   0.971
18046TIP3    H154015   6.799   7.133   0.917
18046TIP3    H254016   6.939   7.181   0.950
18047TIP3   OH254017   7.535   4.374   0.633
18047TIP3    H154018   7.577   4.346   0.714
18047TIP3    H254019   7.503   4.293   0.593
18048TIP3   OH254020   8.659   6.885   5.829
18048TIP3    H154021   8.625   6.858   5.914
18048TIP3    H254022   8.703   6.808   5.794
18049TIP3   OH254023   5.799   7.305   2.485
18049TIP3    H154024   5.820   7.358   2.408
18049TIP3    H254025   5.781   7.218   2.450
18050TIP3   OH254026   5.957   8.967   4.828
18050TIP3    H154027   5.927   8.903   4.892
18050TIP3    H254028   5.980   8.915   4.751
18051TIP3   OH254029   1.778   5.698   5.141
18051TIP3    H154030   1.786   5.604   5.127
18051TIP3    H254031   1.722   5.728   5.070
18052TIP3   OH254032   1.436   6.142   6.221
18052TIP3    H154033   1.413   6.149   6.128
18052TIP3    H254034   1.375   6.077   6.255
18053TIP3   OH254035   9.446   7.179   2.479
18053TIP3    H154036   9.522   7.140   2.523
18053TIP3    H254037   9.459   7.273   2.488
18054TIP3   OH254038   5.669   0.700   0.768
18054TIP3    H154039   5.652   0.619   0.720
18054TIP3    H254040   5.584   0.724   0.806
18055TIP3   OH254041   1.223   1.093   1.122
18055TIP3    H154042   1.212   1.186   1.104
18055TIP3    H254043   1.192   1.082   1.212
18056TIP3   OH254044   4.873   5.999   0.872
18056TIP3    H154045   4.784   5.986   0.906
18056TIP3    H254046   4.865   6.076   0.815
18057TIP3   OH254047   2.962   1.207   3.588
18057TIP3    H154048   2.943   1.202   3.494
18057TIP3    H254049   2.899   1.270   3.622
18058TIP3   OH254050   1.227   5.481   1.355
18058TIP3    H154051   1.158   5.499   1.291
18058TIP3    H254052   1.184   5.494   1.440
18059TIP3   OH254053   2.717   5.366   1.869
18059TIP3    H154054   2.623   5.350   1.868
18059TIP3    H254055   2.737   5.390   1.959
18060TIP3   OH254056   4.143   5.911   0.084
18060TIP3    H154057   4.184   5.995   0.063
18060TIP3    H254058   4.057   5.914   0.043
18061TIP3   OH254059   3.073   4.759   1.519
18061TIP3    H154060   3.032   4.673   1.508
18061TIP3    H254061   3.007   4.821   1.489
18062TIP3   OH254062   7.686   8.927   2.698
18062TIP3    H154063   7.713   8.855   2.641
18062TIP3    H254064   7.593   8.938   2.680
18063TIP3   OH254065   4.967   6.565   6.191
18063TIP3    H154066   4.990   6.499   6.257
18063TIP3    H254067   4.874   6.581   6.205
18064TIP3   OH254068   7.372   3.031   7.504
18064TIP3    H154069   7.385   2.957   7.563
18064TIP3    H254070   7.422   3.008   7.426
18065TIP3   OH254071   4.953   7.771   6.740
18065TIP3    H154072   4.866   7.783   6.778
18065TIP3    H254073   4.988   7.693   6.782
18066TIP3   OH254074   7.805   5.702   1.232
18066TIP3    H154075   7.817   5.623   1.178
18066TIP3    H254076   7.718   5.692   1.270
18067TIP3   OH254077   0.253   4.546   3.626
18067TIP3    H154078   0.211   4.612   3.681
18067TIP3    H254079   0.347   4.561   3.637
18068TIP3   OH254080   2.667   7.910   3.538
18068TIP3    H154081   2.703   7.835   3.584
18068TIP3    H254082   2.691   7.896   3.446
18069TIP3   OH254083   8.808   8.680   3.678
18069TIP3    H154084   8.876   8.664   3.743
18069TIP3    H254085   8.752   8.747   3.717
18070TIP3   OH254086   3.364   6.110   7.423
18070TIP3    H154087   3.360   6.180   7.358
18070TIP3    H254088   3.402   6.152   7.500
18071TIP3   OH254089   3.452   7.778   0.250
18071TIP3    H154090   3.386   7.733   0.197
18071TIP3    H254091   3.473   7.716   0.319
18072TIP3   OH254092   7.026   2.309   2.120
18072TIP3    H154093   6.984   2.394   2.133
18072TIP3    H254094   7.086   2.324   2.047
18073TIP3   OH254095   8.050   3.369   4.112
18073TIP3    H154096   7.967   3.416   4.127
18073TIP3    H254097   8.117   3.427   4.147
18074TIP3   OH254098   3.986   7.567   2.283
18074TIP3    H154099   3.933   7.531   2.355
18074TIP3    H254100   4.048   7.625   2.325
18075TIP3   OH254101   1.314   6.151   0.407
18075TIP3    H154102   1.292   6.099   0.329
18075TIP3    H254103   1.298   6.092   0.480
18076TIP3   OH254104   9.428   5.851   5.589
18076TIP3    H154105   9.370   5.795   5.538
18076TIP3    H254106   9.491   5.885   5.526
18077TIP3   OH254107   6.587   8.759   5.974
18077TIP3    H154108   6.611   8.793   6.060
18077TIP3    H254109   6.562   8.836   5.924
18078TIP3   OH254110   0.394   2.650   5.707
18078TIP3    H154111   0.470   2.609   5.748
18078TIP3    H254112   0.331   2.578   5.697
18079TIP3   OH254113   0.087   6.688   3.190
18079TIP3    H154114   0.038   6.665   3.111
18079TIP3    H254115   0.118   6.603   3.224
18080TIP3   OH254116   5.852   2.370   3.385
18080TIP3    H154117   5.770   2.328   3.360
18080TIP3    H254118   5.914   2.346   3.316
18081TIP3   OH254119   2.116   1.663   4.524
18081TIP3    H154120   2.186   1.680   4.587
18081TIP3    H254121   2.091   1.750   4.492
18082TIP3   OH254122   7.933   1.738   3.463
18082TIP3    H154123   7.844   1.708   3.481
18082TIP3    H254124   7.989   1.665   3.490
18083TIP3   OH254125   1.604   7.483   4.899
18083TIP3    H154126   1.620   7.389   4.894
18083TIP3    H254127   1.530   7.498   4.840
18084TIP3   OH254128   4.120   2.000   5.180
18084TIP3    H154129   4.094   1.919   5.136
18084TIP3    H254130   4.070   2.000   5.261
18085TIP3   OH254131   6.989   1.724   3.488
18085TIP3    H154132   6.950   1.709   3.574
18085TIP3    H254133   7.066   1.666   3.485
18086TIP3   OH254134   9.024   8.307   0.680
18086TIP3    H154135   8.942   8.286   0.636
18086TIP3    H254136   9.060   8.380   0.629
18087TIP3   OH254137   3.534   8.100   4.790
18087TIP3    H154138   3.573   8.099   4.877
18087TIP3    H254139   3.563   8.018   4.749
18088TIP3   OH254140   6.746   7.516   5.349
18088TIP3    H154141   6.822   7.533   5.405
18088TIP3    H254142   6.702   7.442   5.391
18089TIP3   OH254143   2.625   2.725   2.223
18089TIP3    H154144   2.653   2.730   2.315
18089TIP3    H254145   2.707   2.730   2.173
18090TIP3   OH254146   7.367   5.167   1.297
18090TIP3    H154147   7.395   5.085   1.337
18090TIP3    H254148   7.284   5.146   1.255
18091TIP3   OH254149   6.344   4.106   4.707
18091TIP3    H154150   6.397   4.070   4.778
18091TIP3    H254151   6.308   4.030   4.663
18092TIP3   OH254152   8.398   6.418   5.725
18092TIP3    H154153   8.449   6.428   5.644
18092TIP3    H254154   8.308   6.408   5.695
18093TIP3   OH254155   2.341   6.224   1.485
18093TIP3    H154156   2.356   6.144   1.536
18093TIP3    H254157   2.395   6.213   1.407
18094TIP3   OH254158   0.232   1.936   4.633
18094TIP3    H154159   0.233   1.843   4.656
18094TIP3    H254160   0.235   1.936   4.537
18095TIP3   OH254161   1.640   1.308   5.160
18095TIP3    H154162   1.609   1.395   5.134
18095TIP3    H254163   1.636   1.256   5.080
18096TIP3   OH254164   7.507   8.556   6.698
18096TIP3    H154165   7.569   8.585   6.631
18096TIP3    H254166   7.555   8.490   6.748
18097TIP3   OH254167   0.903   1.392   1.912
18097TIP3    H154168   0.879   1.479   1.881
18097TIP3    H254169   0.998   1.395   1.922
18098TIP3   OH254170   7.734   4.011   4.759
18098TIP3    H154171   7.692   3.982   4.840
18098TIP3    H254172   7.827   4.014   4.779
18099TIP3   OH254173   2.888   8.420   4.160
18099TIP3    H154174   2.803   8.392   4.193
18099TIP3    H254175   2.890   8.515   4.176
18100TIP3   OH254176   6.118   4.846   6.969
18100TIP3    H154177   6.072   4.829   6.887
18100TIP3    H254178   6.145   4.938   6.963
18101TIP3   OH254179   9.409   3.433   2.458
18101TIP3    H154180   9.436   3.342   2.446
18101TIP3    H254181   9.314   3.427   2.472
18102TIP3   OH254182   3.369   6.236   6.373
18102TIP3    H154183   3.299   6.173   6.390
18102TIP3    H254184   3.327   6.322   6.380
18103TIP3   OH254185   5.388   6.901   3.536
18103TIP3    H154186   5.380   6.958   3.613
18103TIP3    H254187   5.362   6.815   3.567
18104TIP3   OH254188   5.196   8.155   7.161
18104TIP3    H154189   5.282   8.147   7.120
18104TIP3    H254190   5.166   8.065   7.173
18105TIP3   OH254191   7.593   2.527   0.992
18105TIP3    H154192   7.571   2.451   0.939
18105TIP3    H254193   7.622   2.490   1.076
18106TIP3   OH254194   5.277   3.851   6.912
18106TIP3    H154195   5.254   3.785   6.846
18106TIP3    H254196   5.266   3.806   6.996
18107TIP3   OH254197   6.042   0.280   3.720
18107TIP3    H154198   6.053   0.229   3.801
18107TIP3    H254199   6.094   0.233   3.655
18108TIP3   OH254200   4.897   6.641   3.789
18108TIP3    H154201   4.831   6.580   3.822
18108TIP3    H254202   4.960   6.585   3.743
18109TIP3   OH254203   9.184   6.874   4.996
18109TIP3    H154204   9.150   6.926   5.068
18109TIP3    H254205   9.131   6.899   4.920
18110TIP3   OH254206   1.030   0.898   4.832
18110TIP3    H154207   1.066   0.898   4.743
18110TIP3    H254208   1.104   0.926   4.887
18111TIP3   OH254209   8.856   8.915   0.559
18111TIP3    H154210   8.932   8.884   0.609
18111TIP3    H254211   8.829   8.995   0.604
18112TIP3   OH254212   4.082   7.563   1.198
18112TIP3    H154213   4.130   7.536   1.277
18112TIP3    H254214   4.037   7.643   1.223
18113TIP3   OH254215   1.068   7.849   0.722
18113TIP3    H154216   1.042   7.793   0.795
18113TIP3    H254217   1.129   7.796   0.671
18114TIP3   OH254218   7.820   3.736   1.908
18114TIP3    H154219   7.893   3.745   1.846
18114TIP3    H254220   7.820   3.818   1.957
18115TIP3   OH254221   7.167   5.953   3.085
18115TIP3    H154222   7.091   5.894   3.085
18115TIP3    H254223   7.231   5.910   3.140
18116TIP3   OH254224   4.269   2.881   0.532
18116TIP3    H154225   4.225   2.964   0.518
18116TIP3    H254226   4.296   2.852   0.445
18117TIP3   OH254227   7.856   7.469   0.862
18117TIP3    H154228   7.887   7.477   0.952
18117TIP3    H254229   7.901   7.393   0.827
18118TIP3   OH254230   8.195   5.579   7.241
18118TIP3    H154231   8.260   5.648   7.232
18118TIP3    H254232   8.198   5.533   7.157
18119TIP3   OH254233   6.154   1.434   5.220
18119TIP3    H154234   6.243   1.459   5.194
18119TIP3    H254235   6.102   1.444   5.140
18120TIP3   OH254236   7.703   4.286   4.703
18120TIP3    H154237   7.700   4.306   4.797
18120TIP3    H254238   7.716   4.191   4.699
18121TIP3   OH254239   0.704   8.389   4.273
18121TIP3    H154240   0.660   8.316   4.230
18121TIP3    H254241   0.780   8.350   4.315
18122TIP3   OH254242   7.250   8.432   2.004
18122TIP3    H154243   7.307   8.444   2.079
18122TIP3    H254244   7.163   8.416   2.042
18123TIP3   OH254245   2.049   6.120   6.785
18123TIP3    H154246   2.007   6.174   6.851
18123TIP3    H254247   2.104   6.059   6.834
18124TIP3   OH254248   9.080   7.724   4.697
18124TIP3    H154249   9.023   7.782   4.646
18124TIP3    H254250   9.087   7.645   4.644
18125TIP3   OH254251   0.395   0.969   3.856
18125TIP3    H154252   0.353   0.888   3.825
18125TIP3    H254253   0.411   1.019   3.776
18126TIP3   OH254254   9.238   3.596   5.236
18126TIP3    H154255   9.264   3.636   5.153
18126TIP3    H254256   9.161   3.543   5.214
18127TIP3   OH254257   7.371   7.610   4.675
18127TIP3    H154258   7.291   7.560   4.692
18127TIP3    H254259   7.402   7.637   4.761
18128TIP3   OH254260   3.570   0.277   6.673
18128TIP3    H154261   3.532   0.258   6.759
18128TIP3    H254262   3.615   0.361   6.684
18129TIP3   OH254263   5.160   8.470   7.604
18129TIP3    H154264   5.125   8.489   7.517
18129TIP3    H254265   5.250   8.443   7.588
18130TIP3   OH254266   5.156   7.547   2.090
18130TIP3    H154267   5.194   7.486   2.153
18130TIP3    H254268   5.094   7.495   2.040
18131TIP3   OH254269   7.281   4.192   1.340
18131TIP3    H154270   7.269   4.112   1.289
18131TIP3    H254271   7.346   4.168   1.406
18132TIP3   OH254272   0.573   1.733   0.265
18132TIP3    H154273   0.629   1.713   0.190
18132TIP3    H254274   0.630   1.780   0.326
18133TIP3   OH254275   3.333   4.783   7.210
18133TIP3    H154276   3.347   4.814   7.300
18133TIP3    H254277   3.390   4.839   7.157
18134TIP3   OH254278   4.385   2.403   1.698
18134TIP3    H154279   4.458   2.463   1.680
18134TIP3    H254280   4.308   2.460   1.700
18135TIP3   OH254281   7.111   2.360   2.599
18135TIP3    H154282   7.126   2.452   2.579
18135TIP3    H254283   7.143   2.349   2.689
18136TIP3   OH254284   8.791   5.772   6.800
18136TIP3    H154285   8.848   5.846   6.819
18136TIP3    H254286   8.786   5.769   6.704
18137TIP3   OH254287   0.693   0.611   0.824
18137TIP3    H154288   0.740   0.658   0.755
18137TIP3    H254289   0.709   0.662   0.904
18138TIP3   OH254290   0.723   7.626   2.534
18138TIP3    H154291   0.669   7.649   2.609
18138TIP3    H254292   0.746   7.534   2.548
18139TIP3   OH254293   5.190   0.387   7.719
18139TIP3    H154294   5.252   0.449   7.758
18139TIP3    H254295   5.217   0.302   7.753
18140TIP3   OH254296   1.738   1.473   7.253
18140TIP3    H154297   1.803   1.514   7.310
18140TIP3    H254298   1.660   1.465   7.307
18141TIP3   OH254299   9.457   6.519   5.855
18141TIP3    H154300   9.367   6.506   5.826
18141TIP3    H254301   9.457   6.607   5.893
18142TIP3   OH254302   0.400   4.520   6.623
18142TIP3    H154303   0.385   4.503   6.715
18142TIP3    H254304   0.472   4.463   6.599
18143TIP3   OH254305   2.348   2.849   6.890
18143TIP3    H154306   2.371   2.859   6.798
18143TIP3    H254307   2.380   2.928   6.933
18144TIP3   OH254308   5.346   6.207   3.875
18144TIP3    H154309   5.383   6.131   3.920
18144TIP3    H254310   5.397   6.215   3.794
18145TIP3   OH254311   5.648   2.743   5.820
18145TIP3    H154312   5.607   2.829   5.814
18145TIP3    H254313   5.574   2.681   5.821
18146TIP3   OH254314   6.752   5.258   4.618
18146TIP3    H154315   6.816   5.312   4.665
18146TIP3    H254316   6.797   5.175   4.602
18147TIP3   OH254317   6.576   9.010   0.421
18147TIP3    H154318   6.634   9.085   0.415
18147TIP3    H254319   6.634   8.936   0.439
18148TIP3   OH254320   2.130   8.841   4.047
18148TIP3    H154321   2.197   8.813   4.109
18148TIP3    H254322   2.170   8.827   3.961
18149TIP3   OH254323   0.404   4.946   3.446
18149TIP3    H154324   0.470   4.979   3.506
18149TIP3    H254325   0.391   5.016   3.382
18150TIP3   OH254326   6.658   3.586   2.937
18150TIP3    H154327   6.706   3.539   2.870
18150TIP3    H254328   6.718   3.591   3.012
18151TIP3   OH254329   8.061   2.619   0.057
18151TIP3    H154330   8.024   2.532   0.072
18151TIP3    H254331   8.023   2.647  -0.026
18152TIP3   OH254332   9.536   6.639   7.437
18152TIP3    H154333   9.571   6.588   7.510
18152TIP3    H254334   9.610   6.650   7.377
18153TIP3   OH254335   5.161   8.802   5.779
18153TIP3    H154336   5.199   8.764   5.859
18153TIP3    H254337   5.103   8.733   5.746
18154TIP3   OH254338   1.236   6.358   7.218
18154TIP3    H154339   1.177   6.418   7.174
18154TIP3    H254340   1.179   6.292   7.257
18155TIP3   OH254341   0.903   5.253   5.256
18155TIP3    H154342   0.921   5.273   5.348
18155TIP3    H254343   0.807   5.251   5.251
18156TIP3   OH254344   7.526   5.132   2.086
18156TIP3    H154345   7.455   5.148   2.024
18156TIP3    H254346   7.576   5.213   2.087
18157TIP3   OH254347   6.381   8.604   1.993
18157TIP3    H154348   6.394   8.579   1.901
18157TIP3    H254349   6.458   8.570   2.038
18158TIP3   OH254350   6.734   4.717   0.034
18158TIP3    H154351   6.785   4.666  -0.028
18158TIP3    H254352   6.682   4.776  -0.020
18159TIP3   OH254353   7.921   1.454   4.971
18159TIP3    H154354   7.951   1.507   5.045
18159TIP3    H254355   7.882   1.516   4.910
18160TIP3   OH254356   0.201   4.931   4.521
18160TIP3    H154357   0.124   4.982   4.496
18160TIP3    H254358   0.212   4.949   4.614
18161TIP3   OH254359   8.110   3.518   0.864
18161TIP3    H154360   8.153   3.443   0.906
18161TIP3    H254361   8.066   3.480   0.787
18162TIP3   OH254362   4.799   4.690   2.556
18162TIP3    H154363   4.818   4.748   2.630
18162TIP3    H254364   4.865   4.713   2.490
18163TIP3   OH254365   4.709   4.881   0.975
18163TIP3    H154366   4.661   4.902   1.055
18163TIP3    H254367   4.787   4.834   1.006
18164TIP3   OH254368   6.982   7.245   6.018
18164TIP3    H154369   7.062   7.207   6.054
18164TIP3    H254370   6.996   7.340   6.026
18165TIP3   OH254371   9.511   6.532   5.517
18165TIP3    H154372   9.585   6.486   5.557
18165TIP3    H254373   9.524   6.521   5.423
18166TIP3   OH254374   6.786   1.245   4.608
18166TIP3    H154375   6.849   1.291   4.552
18166TIP3    H254376   6.825   1.246   4.695
18167TIP3   OH254377   0.863   5.668   0.241
18167TIP3    H154378   0.953   5.700   0.237
18167TIP3    H254379   0.810   5.747   0.246
18168TIP3   OH254380   1.958   2.831   6.979
18168TIP3    H154381   1.985   2.747   7.016
18168TIP3    H254382   1.990   2.829   6.889
18169TIP3   OH254383   2.861   7.779   3.770
18169TIP3    H154384   2.915   7.740   3.838
18169TIP3    H254385   2.872   7.720   3.695
18170TIP3   OH254386   2.929   4.752   4.222
18170TIP3    H154387   2.942   4.773   4.314
18170TIP3    H254388   2.876   4.672   4.224
18171TIP3   OH254389   8.361   6.914   1.489
18171TIP3    H154390   8.332   6.875   1.572
18171TIP3    H254391   8.445   6.871   1.471
18172TIP3   OH254392   5.912   2.534   4.762
18172TIP3    H154393   5.891   2.442   4.749
18172TIP3    H254394   5.983   2.534   4.826
18173TIP3   OH254395   9.424   3.963   1.044
18173TIP3    H154396   9.419   3.868   1.055
18173TIP3    H254397   9.442   3.998   1.131
18174TIP3   OH254398   1.624   3.518   6.557
18174TIP3    H154399   1.594   3.530   6.647
18174TIP3    H254400   1.675   3.437   6.559
18175TIP3   OH254401   8.183   0.797   7.593
18175TIP3    H154402   8.133   0.825   7.669
18175TIP3    H254403   8.127   0.731   7.551
18176TIP3   OH254404   5.649   3.413   5.493
18176TIP3    H154405   5.570   3.375   5.454
18176TIP3    H254406   5.619   3.492   5.537
18177TIP3   OH254407   4.503   8.180   6.089
18177TIP3    H154408   4.590   8.193   6.052
18177TIP3    H254409   4.515   8.188   6.183
18178TIP3   OH254410   1.277   7.123   4.907
18178TIP3    H154411   1.265   7.193   4.970
18178TIP3    H254412   1.218   7.053   4.935
18179TIP3   OH254413   7.406   8.563   3.986
18179TIP3    H154414   7.412   8.513   3.905
18179TIP3    H254415   7.493   8.556   4.026
18180TIP3   OH254416   2.991   8.537   2.022
18180TIP3    H154417   2.936   8.615   2.025
18180TIP3    H254418   3.070   8.561   2.071
18181TIP3   OH254419   4.523   8.918   7.136
18181TIP3    H154420   4.532   8.901   7.230
18181TIP3    H254421   4.605   8.887   7.098
18182TIP3   OH254422   8.501   5.422   6.548
18182TIP3    H154423   8.466   5.458   6.629
18182TIP3    H254424   8.483   5.489   6.482
18183TIP3   OH254425   9.118   3.012   2.585
18183TIP3    H154426   9.032   3.052   2.569
18183TIP3    H254427   9.116   2.930   2.536
18184TIP3   OH254428   0.804   1.648   5.530
18184TIP3    H154429   0.786   1.742   5.531
18184TIP3    H254430   0.875   1.637   5.593
18185TIP3   OH254431   3.057   7.485   0.688
18185TIP3    H154432   2.980   7.478   0.632
18185TIP3    H254433   3.115   7.414   0.659
18186TIP3   OH254434   2.006   2.993   1.941
18186TIP3    H154435   1.970   2.930   1.878
18186TIP3    H254436   1.993   3.078   1.899
18187TIP3   OH254437   4.921   2.395   1.315
18187TIP3    H154438   4.957   2.307   1.311
18187TIP3    H254439   4.976   2.440   1.380
18188TIP3   OH254440   6.758   2.753   7.119
18188TIP3    H154441   6.738   2.791   7.033
18188TIP3    H254442   6.743   2.823   7.181
18189TIP3   OH254443   1.016   8.871   1.070
18189TIP3    H154444   1.084   8.877   1.136
18189TIP3    H254445   1.062   8.872   0.987
18190TIP3   OH254446   2.631   4.524   1.978
18190TIP3    H154447   2.674   4.555   1.899
18190TIP3    H254448   2.550   4.575   1.984
18191TIP3   OH254449   9.494   5.746   3.494
18191TIP3    H154450   9.470   5.805   3.565
18191TIP3    H254451   9.507   5.803   3.418
18192TIP3   OH254452   5.715   8.335   3.995
18192TIP3    H154453   5.690   8.401   3.930
18192TIP3    H254454   5.666   8.360   4.074
18193TIP3   OH254455   5.499   1.129   0.924
18193TIP3    H154456   5.502   1.134   0.828
18193TIP3    H254457   5.530   1.041   0.945
18194TIP3   OH254458   8.191   7.230   3.306
18194TIP3    H154459   8.285   7.222   3.322
18194TIP3    H254460   8.184   7.299   3.239
18195TIP3   OH254461   5.639   4.255   5.720
18195TIP3    H154462   5.653   4.284   5.630
18195TIP3    H254463   5.719   4.280   5.766
18196TIP3   OH254464   2.170   3.358   0.404
18196TIP3    H154465   2.124   3.422   0.459
18196TIP3    H254466   2.222   3.306   0.466
18197TIP3   OH254467   1.112   7.540   0.298
18197TIP3    H154468   1.160   7.459   0.278
18197TIP3    H254469   1.025   7.526   0.261
18198TIP3   OH254470   8.053   7.560   5.891
18198TIP3    H154471   8.028   7.620   5.821
18198TIP3    H254472   8.144   7.583   5.910
18199TIP3   OH254473   3.784   4.980   1.000
18199TIP3    H154474   3.752   5.019   0.918
18199TIP3    H254475   3.714   4.996   1.063
18200TIP3   OH254476   4.960   0.277   5.275
18200TIP3    H154477   5.014   0.262   5.352
18200TIP3    H254478   4.898   0.345   5.302
18201TIP3   OH254479   6.724   0.730   0.796
18201TIP3    H154480   6.797   0.771   0.842
18201TIP3    H254481   6.748   0.733   0.703
18202TIP3   OH254482   3.741   3.937   6.438
18202TIP3    H154483   3.753   3.946   6.344
18202TIP3    H254484   3.670   3.873   6.447
18203TIP3   OH254485   4.690   7.298   0.253
18203TIP3    H154486   4.664   7.227   0.312
18203TIP3    H254487   4.620   7.363   0.263
18204TIP3   OH254488   0.066   5.441   2.874
18204TIP3    H154489  -0.006   5.483   2.828
18204TIP3    H254490   0.131   5.510   2.885
18205TIP3   OH254491   1.906   2.065   4.355
18205TIP3    H154492   1.811   2.070   4.343
18205TIP3    H254493   1.942   2.110   4.278
18206TIP3   OH254494   3.981   1.124   3.682
18206TIP3    H154495   4.000   1.210   3.646
18206TIP3    H254496   3.894   1.132   3.721
18207TIP3   OH254497   6.306   6.890   4.353
18207TIP3    H154498   6.220   6.852   4.333
18207TIP3    H254499   6.293   6.932   4.439
18208TIP3   OH254500   3.112   0.015   1.404
18208TIP3    H154501   3.057   0.040   1.330
18208TIP3    H254502   3.052   0.014   1.479
18209TIP3   OH254503   0.375   3.517   2.004
18209TIP3    H154504   0.368   3.589   2.067
18209TIP3    H254505   0.300   3.529   1.945
18210TIP3   OH254506   6.978   1.805   2.159
18210TIP3    H154507   7.028   1.812   2.078
18210TIP3    H254508   7.034   1.755   2.218
18211TIP3   OH254509   9.214   7.209   0.488
18211TIP3    H154510   9.175   7.248   0.566
18211TIP3    H254511   9.188   7.117   0.492
18212TIP3   OH254512   4.794   0.264   5.647
18212TIP3    H154513   4.766   0.337   5.701
18212TIP3    H254514   4.888   0.255   5.666
18213TIP3   OH254515   6.353   8.227   5.175
18213TIP3    H154516   6.378   8.135   5.160
18213TIP3    H254517   6.330   8.231   5.268
18214TIP3   OH254518   4.215   2.798   5.719
18214TIP3    H154519   4.121   2.787   5.707
18214TIP3    H254520   4.245   2.715   5.756
18215TIP3   OH254521   6.998   3.387   4.583
18215TIP3    H154522   7.040   3.378   4.497
18215TIP3    H254523   6.930   3.453   4.570
18216TIP3   OH254524   4.990   7.422   6.460
18216TIP3    H154525   4.923   7.438   6.527
18216TIP3    H254526   5.011   7.508   6.426
18217TIP3   OH254527   5.593   4.140   2.694
18217TIP3    H154528   5.563   4.081   2.625
18217TIP3    H254529   5.673   4.178   2.659
18218TIP3   OH254530   1.816   8.068   1.131
18218TIP3    H154531   1.861   8.076   1.047
18218TIP3    H254532   1.775   7.982   1.129
18219TIP3   OH254533   9.148   7.360   1.473
18219TIP3    H154534   9.069   7.308   1.487
18219TIP3    H254535   9.149   7.422   1.546
18220TIP3   OH254536   4.145   3.912   7.482
18220TIP3    H154537   4.107   3.919   7.569
18220TIP3    H254538   4.232   3.875   7.496
18221TIP3   OH254539   6.985   1.266   6.472
18221TIP3    H154540   6.895   1.253   6.442
18221TIP3    H254541   7.007   1.354   6.443
18222TIP3   OH254542   7.056   0.249   5.177
18222TIP3    H154543   7.122   0.180   5.182
18222TIP3    H254544   6.976   0.203   5.151
18223TIP3   OH254545   1.342   0.031   1.520
18223TIP3    H154546   1.302   0.072   1.444
18223TIP3    H254547   1.368  -0.056   1.489
18224TIP3   OH254548   6.758   7.980   4.679
18224TIP3    H154549   6.791   8.064   4.647
18224TIP3    H254550   6.831   7.920   4.669
18225TIP3   OH254551   0.206   0.754   5.229
18225TIP3    H154552   0.277   0.790   5.282
18225TIP3    H254553   0.238   0.667   5.202
18226TIP3   OH254554   1.954   6.978   0.410
18226TIP3    H154555   1.902   6.917   0.463
18226TIP3    H254556   1.985   6.925   0.337
18227TIP3   OH254557   2.767   1.643   6.635
18227TIP3    H154558   2.841   1.616   6.689
18227TIP3    H254559   2.806   1.687   6.560
18228TIP3   OH254560   2.351   5.466   5.525
18228TIP3    H154561   2.431   5.420   5.551
18228TIP3    H254562   2.282   5.427   5.578
18229TIP3   OH254563   5.462   3.486   3.329
18229TIP3    H154564   5.550   3.495   3.293
18229TIP3    H254565   5.422   3.572   3.313
18230TIP3   OH254566   4.943   5.583   4.588
18230TIP3    H154567   4.962   5.611   4.677
18230TIP3    H254568   4.881   5.648   4.555
18231TIP3   OH254569   3.912   8.440   0.756
18231TIP3    H154570   3.888   8.481   0.840
18231TIP3    H254571   3.942   8.513   0.702
18232TIP3   OH254572   0.965   0.779   5.096
18232TIP3    H154573   0.886   0.833   5.103
18232TIP3    H254574   1.016   0.821   5.026
18233TIP3   OH254575   1.802   0.369   0.817
18233TIP3    H154576   1.791   0.385   0.724
18233TIP3    H254577   1.888   0.328   0.825
18234TIP3   OH254578   3.372   2.414   3.562
18234TIP3    H154579   3.461   2.448   3.568
18234TIP3    H254580   3.374   2.333   3.613
18235TIP3   OH254581   9.087   5.227   0.063
18235TIP3    H154582   9.159   5.281   0.031
18235TIP3    H254583   9.126   5.172   0.131
18236TIP3   OH254584   3.377   5.460   0.665
18236TIP3    H154585   3.345   5.528   0.724
18236TIP3    H254586   3.427   5.507   0.599
18237TIP3   OH254587   5.567   6.365   1.514
18237TIP3    H154588   5.565   6.319   1.598
18237TIP3    H254589   5.593   6.455   1.535
18238TIP3   OH254590   8.316   8.105   4.479
18238TIP3    H154591   8.355   8.183   4.438
18238TIP3    H254592   8.223   8.113   4.460
18239TIP3   OH254593   4.467   0.923   7.207
18239TIP3    H154594   4.458   0.843   7.258
18239TIP3    H254595   4.503   0.987   7.270
18240TIP3   OH254596   9.070   1.428   1.054
18240TIP3    H154597   9.031   1.446   0.969
18240TIP3    H254598   9.094   1.514   1.088
18241TIP3   OH254599   8.746   7.687   7.142
18241TIP3    H154600   8.708   7.775   7.147
18241TIP3    H254601   8.695   7.643   7.074
18242TIP3   OH254602   9.146   1.365   2.603
18242TIP3    H154603   9.215   1.430   2.590
18242TIP3    H254604   9.073   1.398   2.550
18243TIP3   OH254605   1.010   3.625   1.777
18243TIP3    H154606   0.971   3.681   1.844
18243TIP3    H254607   0.983   3.537   1.800
18244TIP3   OH254608   7.744   1.252   3.145
18244TIP3    H154609   7.834   1.225   3.128
18244TIP3    H254610   7.726   1.320   3.080
18245TIP3   OH254611   1.591   3.228   3.006
18245TIP3    H154612   1.660   3.219   2.941
18245TIP3    H254613   1.562   3.319   2.997
18246TIP3   OH254614   8.440   2.966   5.551
18246TIP3    H154615   8.416   2.881   5.587
18246TIP3    H254616   8.527   2.953   5.512
18247TIP3   OH254617   1.001   8.009   7.502
18247TIP3    H154618   0.945   7.972   7.434
18247TIP3    H254619   1.090   7.998   7.468
18248TIP3   OH254620   2.944   7.378   2.017
18248TIP3    H154621   2.904   7.321   2.083
18248TIP3    H254622   2.871   7.423   1.976
18249TIP3   OH254623   7.300   8.403   2.326
18249TIP3    H154624   7.286   8.494   2.301
18249TIP3    H254625   7.213   8.371   2.350
18250TIP3   OH254626   3.318   1.600   2.261
18250TIP3    H154627   3.309   1.671   2.198
18250TIP3    H254628   3.313   1.643   2.346
18251TIP3   OH254629   2.557   7.419   5.106
18251TIP3    H154630   2.479   7.365   5.121
18251TIP3    H254631   2.605   7.374   5.037
18252TIP3   OH254632   3.208   6.389   0.280
18252TIP3    H154633   3.227   6.426   0.367
18252TIP3    H254634   3.213   6.294   0.293
18253TIP3   OH254635   1.157   4.714   3.329
18253TIP3    H154636   1.177   4.632   3.285
18253TIP3    H254637   1.121   4.688   3.414
18254TIP3   OH254638   7.238   1.649   2.260
18254TIP3    H154639   7.229   1.570   2.314
18254TIP3    H254640   7.261   1.718   2.322
18255TIP3   OH254641   8.439   5.062   1.888
18255TIP3    H154642   8.430   5.056   1.983
18255TIP3    H254643   8.530   5.036   1.871
18256TIP3   OH254644   1.423   8.699   1.583
18256TIP3    H154645   1.386   8.785   1.605
18256TIP3    H254646   1.443   8.660   1.668
18257TIP3   OH254647   1.457   3.526   6.323
18257TIP3    H154648   1.439   3.440   6.284
18257TIP3    H254649   1.488   3.505   6.411
18258TIP3   OH254650   2.971   2.666   7.743
18258TIP3    H154651   2.907   2.734   7.723
18258TIP3    H254652   3.055   2.712   7.747
18259TIP3   OH254653   8.307   0.987   3.857
18259TIP3    H154654   8.284   1.056   3.919
18259TIP3    H254655   8.395   0.960   3.882
18260TIP3   OH254656   6.293   8.692   2.854
18260TIP3    H154657   6.350   8.747   2.908
18260TIP3    H254658   6.285   8.739   2.771
18261TIP3   OH254659   4.292   1.678   1.342
18261TIP3    H154660   4.226   1.733   1.299
18261TIP3    H254661   4.375   1.705   1.303
18262TIP3   OH254662   8.291   5.442   5.958
18262TIP3    H154663   8.348   5.484   5.893
18262TIP3    H254664   8.212   5.418   5.909
18263TIP3   OH254665   7.029   5.123   0.905
18263TIP3    H154666   7.061   5.180   0.834
18263TIP3    H254667   6.935   5.115   0.889
18264TIP3   OH254668   3.584   0.031   6.042
18264TIP3    H154669   3.548   0.020   5.954
18264TIP3    H254670   3.558   0.120   6.067
18265TIP3   OH254671   0.663   2.406   0.403
18265TIP3    H154672   0.669   2.494   0.440
18265TIP3    H254673   0.569   2.394   0.385
18266TIP3   OH254674   7.313   4.887   1.916
18266TIP3    H154675   7.346   4.810   1.869
18266TIP3    H254676   7.364   4.960   1.879
18267TIP3   OH254677   7.536   8.248   1.990
18267TIP3    H154678   7.528   8.186   2.062
18267TIP3    H254679   7.480   8.212   1.921
18268TIP3   OH254680   2.899   6.690   1.142
18268TIP3    H154681   2.839   6.763   1.154
18268TIP3    H254682   2.937   6.704   1.055
18269TIP3   OH254683   2.066   0.359   4.073
18269TIP3    H154684   2.094   0.419   4.004
18269TIP3    H254685   1.986   0.318   4.039
18270TIP3   OH254686   3.241   7.168   6.984
18270TIP3    H154687   3.313   7.174   7.046
18270TIP3    H254688   3.164   7.197   7.034
18271TIP3   OH254689   5.386   1.840   2.204
18271TIP3    H154690   5.374   1.752   2.241
18271TIP3    H254691   5.333   1.897   2.260
18272TIP3   OH254692   4.569   2.415   6.383
18272TIP3    H154693   4.526   2.460   6.455
18272TIP3    H254694   4.498   2.369   6.337
18273TIP3   OH254695   9.023   8.268   6.938
18273TIP3    H154696   9.022   8.364   6.946
18273TIP3    H254697   9.114   8.244   6.957
18274TIP3   OH254698   4.685   2.383   3.893
18274TIP3    H154699   4.709   2.455   3.952
18274TIP3    H254700   4.727   2.405   3.810
18275TIP3   OH254701   6.236   8.374   7.426
18275TIP3    H154702   6.251   8.446   7.366
18275TIP3    H254703   6.176   8.409   7.491
18276TIP3   OH254704   7.896   6.891   6.434
18276TIP3    H154705   7.815   6.930   6.467
18276TIP3    H254706   7.891   6.800   6.461
18277TIP3   OH254707   0.610   5.470   0.826
18277TIP3    H154708   0.702   5.489   0.806
18277TIP3    H254709   0.613   5.435   0.915
18278TIP3   OH254710   4.575   8.052   3.414
18278TIP3    H154711   4.609   8.121   3.357
18278TIP3    H254712   4.486   8.079   3.434
18279TIP3   OH254713   8.807   1.497   7.071
18279TIP3    H154714   8.780   1.415   7.115
18279TIP3    H254715   8.747   1.505   6.997
18280TIP3   OH254716   3.361   8.138   4.400
18280TIP3    H154717   3.336   8.196   4.471
18280TIP3    H254718   3.279   8.101   4.368
18281TIP3   OH254719   7.559   2.973   2.129
18281TIP3    H154720   7.650   2.955   2.105
18281TIP3    H254721   7.508   2.911   2.078
18282TIP3   OH254722   0.393   2.246   4.938
18282TIP3    H154723   0.390   2.302   5.016
18282TIP3    H254724   0.476   2.269   4.895
18283TIP3   OH254725   6.708   0.798   1.492
18283TIP3    H154726   6.770   0.742   1.539
18283TIP3    H254727   6.637   0.813   1.554
18284TIP3   OH254728   3.208   2.747   2.154
18284TIP3    H154729   3.281   2.711   2.205
18284TIP3    H254730   3.138   2.761   2.218
18285TIP3   OH254731   4.044   8.268   3.493
18285TIP3    H154732   4.077   8.349   3.455
18285TIP3    H254733   4.009   8.294   3.579
18286TIP3   OH254734   1.844   3.007   4.145
18286TIP3    H154735   1.901   3.015   4.069
18286TIP3    H254736   1.883   3.065   4.211
18287TIP3   OH254737   4.619   1.298   6.560
18287TIP3    H154738   4.652   1.243   6.489
18287TIP3    H254739   4.542   1.252   6.593
18288TIP3   OH254740   2.816   1.424   3.691
18288TIP3    H154741   2.802   1.505   3.741
18288TIP3    H254742   2.742   1.421   3.630
18289TIP3   OH254743   4.153   0.129   6.584
18289TIP3    H154744   4.061   0.124   6.609
18289TIP3    H254745   4.201   0.106   6.664
18290TIP3   OH254746   8.590   6.959   1.808
18290TIP3    H154747   8.582   7.004   1.724
18290TIP3    H254748   8.682   6.931   1.812
18291TIP3   OH254749   6.202   6.300   5.286
18291TIP3    H154750   6.204   6.206   5.268
18291TIP3    H254751   6.293   6.328   5.275
18292TIP3   OH254752   1.088   2.823   7.376
18292TIP3    H154753   1.096   2.795   7.285
18292TIP3    H254754   1.018   2.888   7.375
18293TIP3   OH254755   7.623   2.279   1.844
18293TIP3    H154756   7.611   2.188   1.870
18293TIP3    H254757   7.546   2.300   1.791
18294TIP3   OH254758   3.876   0.694   5.988
18294TIP3    H154759   3.785   0.695   5.958
18294TIP3    H254760   3.890   0.782   6.025
18295TIP3   OH254761   5.779   2.497   6.609
18295TIP3    H154762   5.804   2.427   6.669
18295TIP3    H254763   5.851   2.560   6.613
18296TIP3   OH254764   4.147   6.339   5.045
18296TIP3    H154765   4.162   6.344   5.140
18296TIP3    H254766   4.122   6.428   5.020
18297TIP3   OH254767   1.575   7.233   7.641
18297TIP3    H154768   1.541   7.243   7.552
18297TIP3    H254769   1.549   7.313   7.686
18298TIP3   OH254770   2.619   3.124   5.115
18298TIP3    H154771   2.556   3.154   5.181
18298TIP3    H254772   2.594   3.033   5.098
18299TIP3   OH254773   8.627   4.030   7.721
18299TIP3    H154774   8.640   4.091   7.649
18299TIP3    H254775   8.549   4.061   7.766
18300TIP3   OH254776   5.005   2.841   7.003
18300TIP3    H154777   5.062   2.882   7.067
18300TIP3    H254778   4.997   2.904   6.932
18301TIP3   OH254779   7.143   1.949   6.556
18301TIP3    H154780   7.167   1.889   6.486
18301TIP3    H254781   7.050   1.967   6.541
18302TIP3   OH254782   3.278   7.416   0.372
18302TIP3    H154783   3.227   7.338   0.393
18302TIP3    H254784   3.212   7.485   0.358
18303TIP3   OH254785   0.936   4.206   3.893
18303TIP3    H154786   0.953   4.132   3.835
18303TIP3    H254787   0.891   4.271   3.839
18304TIP3   OH254788   6.699   3.876   1.158
18304TIP3    H154789   6.691   3.948   1.095
18304TIP3    H254790   6.753   3.912   1.228
18305TIP3   OH254791   0.343   5.730   2.654
18305TIP3    H154792   0.278   5.753   2.720
18305TIP3    H254793   0.390   5.656   2.691
18306TIP3   OH254794   2.485   5.984   1.555
18306TIP3    H154795   2.473   5.891   1.534
18306TIP3    H254796   2.578   6.000   1.540
18307TIP3   OH254797   1.091   0.093   3.203
18307TIP3    H154798   1.060   0.095   3.113
18307TIP3    H254799   1.159   0.025   3.204
18308TIP3   OH254800   4.075   8.136   4.931
18308TIP3    H154801   4.090   8.229   4.917
18308TIP3    H254802   4.097   8.121   5.023
18309TIP3   OH254803   7.232   8.530   7.750
18309TIP3    H154804   7.188   8.453   7.786
18309TIP3    H254805   7.213   8.526   7.656
18310TIP3   OH254806   3.959   3.746   5.192
18310TIP3    H154807   3.952   3.699   5.109
18310TIP3    H254808   3.918   3.687   5.255
18311TIP3   OH254809   8.995   4.500   3.190
18311TIP3    H154810   8.950   4.569   3.142
18311TIP3    H254811   8.930   4.430   3.198
18312TIP3   OH254812   3.786   0.777   3.921
18312TIP3    H154813   3.769   0.683   3.919
18312TIP3    H254814   3.880   0.784   3.938
18313TIP3   OH254815   3.290   8.913   6.545
18313TIP3    H154816   3.245   8.965   6.611
18313TIP3    H254817   3.293   8.970   6.468
18314TIP3   OH254818   4.027   6.945   4.653
18314TIP3    H154819   4.090   6.995   4.705
18314TIP3    H254820   3.983   6.888   4.718
18315TIP3   OH254821   7.842   4.135   5.897
18315TIP3    H154822   7.803   4.131   5.809
18315TIP3    H254823   7.797   4.208   5.940
18316TIP3   OH254824   2.017   5.812   4.957
18316TIP3    H154825   1.922   5.823   4.951
18316TIP3    H254826   2.034   5.804   5.051
18317TIP3   OH254827   2.717   6.243   2.827
18317TIP3    H154828   2.623   6.256   2.840
18317TIP3    H254829   2.723   6.169   2.766
18318TIP3   OH254830   3.362   4.775   5.753
18318TIP3    H154831   3.335   4.739   5.838
18318TIP3    H254832   3.348   4.704   5.691
18319TIP3   OH254833   7.957   3.338   4.424
18319TIP3    H154834   8.018   3.264   4.417
18319TIP3    H254835   7.982   3.382   4.505
18320TIP3   OH254836   8.296   7.993   6.469
18320TIP3    H154837   8.295   8.060   6.536
18320TIP3    H254838   8.228   8.020   6.407
18321TIP3   OH254839   2.083   1.393   0.350
18321TIP3    H154840   2.113   1.387   0.259
18321TIP3    H254841   2.069   1.302   0.377
18322TIP3   OH254842   2.503   8.168   4.930
18322TIP3    H154843   2.555   8.248   4.925
18322TIP3    H254844   2.413   8.199   4.937
18323TIP3   OH254845   2.224   7.926   2.019
18323TIP3    H154846   2.316   7.905   2.036
18323TIP3    H254847   2.223   8.019   2.000
18324TIP3   OH254848   3.426   3.906   4.519
18324TIP3    H154849   3.467   3.963   4.584
18324TIP3    H254850   3.420   3.960   4.440
18325TIP3   OH254851   8.259   8.932   7.653
18325TIP3    H154852   8.306   8.849   7.649
18325TIP3    H254853   8.298   8.978   7.727
18326TIP3   OH254854   5.115   2.438   1.764
18326TIP3    H154855   5.029   2.460   1.800
18326TIP3    H254856   5.109   2.345   1.743
18327TIP3   OH254857   0.206   5.369   3.461
18327TIP3    H154858   0.169   5.437   3.518
18327TIP3    H254859   0.252   5.418   3.392
18328TIP3   OH254860   2.587   8.245   0.850
18328TIP3    H154861   2.589   8.334   0.886
18328TIP3    H254862   2.595   8.258   0.755
18329TIP3   OH254863   0.466   2.712   1.680
18329TIP3    H154864   0.396   2.647   1.674
18329TIP3    H254865   0.546   2.661   1.664
18330TIP3   OH254866   7.001   3.661   1.880
18330TIP3    H154867   7.028   3.659   1.972
18330TIP3    H254868   7.069   3.613   1.834
18331TIP3   OH254869   5.148   7.541   4.467
18331TIP3    H154870   5.127   7.487   4.542
18331TIP3    H254871   5.244   7.545   4.466
18332TIP3   OH254872   2.136   6.706   1.580
18332TIP3    H154873   2.180   6.621   1.585
18332TIP3    H254874   2.082   6.700   1.501
18333TIP3   OH254875   7.843   7.135   1.818
18333TIP3    H154876   7.753   7.130   1.849
18333TIP3    H254877   7.893   7.163   1.895
18334TIP3   OH254878   6.194   7.926   6.245
18334TIP3    H154879   6.200   7.831   6.252
18334TIP3    H254880   6.253   7.949   6.174
18335TIP3   OH254881   5.465   4.372   7.727
18335TIP3    H154882   5.487   4.437   7.659
18335TIP3    H254883   5.370   4.360   7.719
18336TIP3   OH254884   5.684   0.471   5.846
18336TIP3    H154885   5.599   0.486   5.805
18336TIP3    H254886   5.746   0.513   5.786
18337TIP3   OH254887   5.000   5.007   4.981
18337TIP3    H154888   4.991   5.068   5.054
18337TIP3    H254889   4.910   4.978   4.963
18338TIP3   OH254890   1.850   3.349   6.323
18338TIP3    H154891   1.927   3.405   6.320
18338TIP3    H254892   1.849   3.314   6.412
18339TIP3   OH254893   6.514   1.886   0.299
18339TIP3    H154894   6.602   1.924   0.291
18339TIP3    H254895   6.504   1.867   0.392
18340TIP3   OH254896   3.113   3.999   3.132
18340TIP3    H154897   3.149   3.924   3.180
18340TIP3    H254898   3.048   3.961   3.074
18341TIP3   OH254899   3.664   4.519   5.333
18341TIP3    H154900   3.694   4.558   5.251
18341TIP3    H254901   3.693   4.580   5.401
18342TIP3   OH254902   1.689   4.466   6.077
18342TIP3    H154903   1.766   4.496   6.126
18342TIP3    H254904   1.628   4.539   6.083
18343TIP3   OH254905   6.356   4.879   1.652
18343TIP3    H154906   6.386   4.959   1.609
18343TIP3    H254907   6.338   4.818   1.580
18344TIP3   OH254908   2.618   7.828   0.272
18344TIP3    H154909   2.531   7.826   0.233
18344TIP3    H254910   2.645   7.737   0.277
18345TIP3   OH254911   7.722   6.840   4.105
18345TIP3    H154912   7.641   6.790   4.105
18345TIP3    H254913   7.704   6.914   4.046
18346TIP3   OH254914   5.839   6.290   6.329
18346TIP3    H154915   5.806   6.203   6.307
18346TIP3    H254916   5.775   6.325   6.391
18347TIP3   OH254917   5.793   7.097   3.917
18347TIP3    H154918   5.753   7.170   3.869
18347TIP3    H254919   5.843   7.139   3.988
18348TIP3   OH254920   8.579   4.722   4.528
18348TIP3    H154921   8.541   4.809   4.531
18348TIP3    H254922   8.671   4.736   4.505
18349TIP3   OH254923   0.204   6.957   4.267
18349TIP3    H154924   0.138   7.008   4.314
18349TIP3    H254925   0.286   7.006   4.278
18350TIP3   OH254926   2.783   8.798   3.372
18350TIP3    H154927   2.724   8.778   3.444
18350TIP3    H254928   2.784   8.719   3.318
18351TIP3   OH254929   5.534   6.492   2.812
18351TIP3    H154930   5.456   6.545   2.795
18351TIP3    H254931   5.570   6.527   2.893
18352TIP3   OH254932   6.178   3.641   2.474
18352TIP3    H154933   6.267   3.646   2.440
18352TIP3    H254934   6.163   3.548   2.490
18353TIP3   OH254935   3.523   4.346   1.346
18353TIP3    H154936   3.546   4.280   1.280
18353TIP3    H254937   3.593   4.411   1.340
18354TIP3   OH254938   1.279   2.804   1.238
18354TIP3    H154939   1.331   2.857   1.177
18354TIP3    H254940   1.231   2.867   1.291
18355TIP3   OH254941   5.966   8.435   6.866
18355TIP3    H154942   5.883   8.404   6.831
18355TIP3    H254943   6.023   8.358   6.865
18356TIP3   OH254944   5.326   8.932   3.400
18356TIP3    H154945   5.279   8.980   3.468
18356TIP3    H254946   5.388   8.877   3.448
18357TIP3   OH254947   8.647   7.960   6.950
18357TIP3    H154948   8.634   7.951   6.856
18357TIP3    H254949   8.741   7.980   6.960
18358TIP3   OH254950   7.278   4.608   5.143
18358TIP3    H154951   7.370   4.626   5.163
18358TIP3    H254952   7.273   4.513   5.134
18359TIP3   OH254953   6.058   4.839   6.393
18359TIP3    H154954   6.122   4.903   6.361
18359TIP3    H254955   6.095   4.808   6.475
18360TIP3   OH254956   0.574   7.384   2.361
18360TIP3    H154957   0.651   7.336   2.392
18360TIP3    H254958   0.521   7.318   2.316
18361TIP3   OH254959   0.161   2.725   6.386
18361TIP3    H154960   0.100   2.744   6.456
18361TIP3    H254961   0.176   2.810   6.343
18362TIP3   OH254962   8.218   1.967   7.768
18362TIP3    H154963   8.199   1.883   7.810
18362TIP3    H254964   8.300   1.996   7.809
18363TIP3   OH254965   1.418   3.176   3.266
18363TIP3    H154966   1.435   3.270   3.262
18363TIP3    H254967   1.505   3.136   3.266
18364TIP3   OH254968   5.517   8.343   6.185
18364TIP3    H154969   5.514   8.394   6.104
18364TIP3    H254970   5.427   8.340   6.216
18365TIP3   OH254971   1.673   7.982   2.907
18365TIP3    H154972   1.724   7.903   2.926
18365TIP3    H254973   1.611   7.954   2.839
18366TIP3   OH254974   9.039   8.763   7.699
18366TIP3    H154975   9.070   8.850   7.727
18366TIP3    H254976   9.061   8.706   7.773
18367TIP3   OH254977   8.849   3.597   5.118
18367TIP3    H154978   8.916   3.529   5.108
18367TIP3    H254979   8.767   3.554   5.090
18368TIP3   OH254980   6.127   2.531   6.680
18368TIP3    H154981   6.082   2.485   6.751
18368TIP3    H254982   6.073   2.609   6.665
18369TIP3   OH254983   1.046   3.026   3.028
18369TIP3    H154984   0.991   3.051   3.103
18369TIP3    H254985   1.066   2.934   3.042
18370TIP3   OH254986   5.147   8.845   7.249
18370TIP3    H154987   5.127   8.922   7.196
18370TIP3    H254988   5.242   8.833   7.240
18371TIP3   OH254989   5.897   0.138   5.499
18371TIP3    H154990   5.823   0.168   5.447
18371TIP3    H254991   5.895   0.191   5.579
18372TIP3   OH254992   3.400   2.930   2.380
18372TIP3    H154993   3.379   3.023   2.384
18372TIP3    H254994   3.320   2.886   2.409
18373TIP3   OH254995   2.910   1.452   4.277
18373TIP3    H154996   2.919   1.524   4.214
18373TIP3    H254997   2.828   1.409   4.252
18374TIP3   OH254998   0.950   2.112   6.224
18374TIP3    H154999   0.894   2.189   6.221
18374TIP3    H255000   0.996   2.112   6.140
18375TIP3   OH255001   1.791   7.757   2.036
18375TIP3    H155002   1.885   7.750   2.055
18375TIP3    H255003   1.766   7.842   2.072
18376TIP3   OH255004   3.044   0.613   6.166
18376TIP3    H155005   2.960   0.655   6.149
18376TIP3    H255006   3.046   0.601   6.261
18377TIP3   OH255007   3.659   4.361   0.912
18377TIP3    H155008   3.723   4.343   0.843
18377TIP3    H255009   3.586   4.403   0.866
18378TIP3   OH255010   8.301   4.924   0.974
18378TIP3    H155011   8.324   4.965   0.890
18378TIP3    H255012   8.303   4.995   1.037
18379TIP3   OH255013   9.013   1.700   0.314
18379TIP3    H155014   9.041   1.630   0.256
18379TIP3    H255015   9.056   1.779   0.281
18380TIP3   OH255016   1.328   7.078   2.198
18380TIP3    H155017   1.333   6.995   2.150
18380TIP3    H255018   1.276   7.135   2.141
18381TIP3   OH255019   8.534   4.836   6.446
18381TIP3    H155020   8.580   4.888   6.380
18381TIP3    H255021   8.586   4.846   6.525
18382TIP3   OH255022   7.711   5.749   5.128
18382TIP3    H155023   7.764   5.807   5.184
18382TIP3    H255024   7.706   5.795   5.045
18383TIP3   OH255025   2.959   2.079   2.087
18383TIP3    H155026   3.046   2.110   2.115
18383TIP3    H255027   2.909   2.074   2.169
18384TIP3   OH255028   7.408   7.132   5.907
18384TIP3    H155029   7.465   7.179   5.968
18384TIP3    H255030   7.370   7.200   5.852
18385TIP3   OH255031   1.593   6.091   3.224
18385TIP3    H155032   1.640   6.123   3.301
18385TIP3    H255033   1.504   6.126   3.235
18386TIP3   OH255034   2.429   2.839   5.783
18386TIP3    H155035   2.374   2.769   5.818
18386TIP3    H255036   2.518   2.805   5.788
18387TIP3   OH255037   6.984   0.888   6.205
18387TIP3    H155038   7.061   0.845   6.167
18387TIP3    H255039   6.999   0.981   6.191
18388TIP3   OH255040   2.793   6.366   4.769
18388TIP3    H155041   2.795   6.328   4.682
18388TIP3    H255042   2.703   6.357   4.798
18389TIP3   OH255043   5.317   7.501   1.350
18389TIP3    H155044   5.404   7.540   1.339
18389TIP3    H255045   5.334   7.411   1.375
18390TIP3   OH255046   8.752   2.680   7.307
18390TIP3    H155047   8.847   2.690   7.300
18390TIP3    H255048   8.739   2.587   7.321
18391TIP3   OH255049   7.111   3.562   0.555
18391TIP3    H155050   7.063   3.481   0.538
18391TIP3    H255051   7.094   3.582   0.647
18392TIP3   OH255052   5.703   3.002   4.223
18392TIP3    H155053   5.651   2.923   4.240
18392TIP3    H255054   5.702   3.049   4.307
18393TIP3   OH255055   8.830   5.324   7.431
18393TIP3    H155056   8.770   5.250   7.427
18393TIP3    H255057   8.911   5.290   7.393
18394TIP3   OH255058   9.282   3.640   5.654
18394TIP3    H155059   9.359   3.639   5.597
18394TIP3    H255060   9.224   3.705   5.614
18395TIP3   OH255061   6.803   2.241   1.721
18395TIP3    H155062   6.830   2.160   1.763
18395TIP3    H255063   6.720   2.264   1.763
18396TIP3   OH255064   9.278   6.909   5.841
18396TIP3    H155065   9.300   6.863   5.922
18396TIP3    H255066   9.331   6.866   5.774
18397TIP3   OH255067   1.959   8.281   7.717
18397TIP3    H155068   1.931   8.286   7.626
18397TIP3    H255069   2.035   8.340   7.721
18398TIP3   OH255070   4.959   4.491   3.083
18398TIP3    H155071   5.029   4.458   3.028
18398TIP3    H255072   4.883   4.498   3.025
18399TIP3   OH255073   8.361   4.929   4.218
18399TIP3    H155074   8.339   4.838   4.196
18399TIP3    H255075   8.304   4.981   4.161
18400TIP3   OH255076   1.739   0.856   2.860
18400TIP3    H155077   1.644   0.862   2.872
18400TIP3    H255078   1.760   0.928   2.800
18401TIP3   OH255079   6.045   7.876   2.564
18401TIP3    H155080   6.136   7.894   2.539
18401TIP3    H255081   5.993   7.929   2.504
18402TIP3   OH255082   8.482   2.793   6.988
18402TIP3    H155083   8.556   2.745   6.950
18402TIP3    H255084   8.489   2.881   6.949
18403TIP3   OH255085   3.025   8.135   5.189
18403TIP3    H155086   2.946   8.103   5.146
18403TIP3    H255087   3.002   8.140   5.282
18404TIP3   OH255088   1.491   3.540   2.600
18404TIP3    H155089   1.506   3.597   2.525
18404TIP3    H255090   1.408   3.571   2.637
18405TIP3   OH255091   3.140   6.220   3.675
18405TIP3    H155092   3.140   6.303   3.724
18405TIP3    H255093   3.218   6.225   3.621
18406TIP3   OH255094   8.781   0.540   1.332
18406TIP3    H155095   8.756   0.573   1.245
18406TIP3    H255096   8.704   0.492   1.362
18407TIP3   OH255097   9.352   7.660   1.032
18407TIP3    H155098   9.269   7.668   1.079
18407TIP3    H255099   9.413   7.625   1.097
18408TIP3   OH255100   2.144   3.751   4.899
18408TIP3    H155101   2.230   3.737   4.938
18408TIP3    H255102   2.160   3.748   4.804
18409TIP3   OH255103   8.309   3.104   1.798
18409TIP3    H155104   8.280   3.096   1.707
18409TIP3    H255105   8.378   3.171   1.796
18410TIP3   OH255106   0.407   6.051   1.195
18410TIP3    H155107   0.370   5.966   1.172
18410TIP3    H255108   0.492   6.053   1.152
18411TIP3   OH255109   4.942   6.102   3.623
18411TIP3    H155110   4.905   6.026   3.577
18411TIP3    H255111   4.867   6.159   3.640
18412TIP3   OH255112   8.770   4.146   1.437
18412TIP3    H155113   8.717   4.107   1.506
18412TIP3    H255114   8.742   4.238   1.435
18413TIP3   OH255115   2.649   4.533   4.986
18413TIP3    H155116   2.685   4.622   4.982
18413TIP3    H255117   2.725   4.476   4.975
18414TIP3   OH255118   8.198   0.635   0.726
18414TIP3    H155119   8.192   0.543   0.753
18414TIP3    H255120   8.178   0.685   0.804
18415TIP3   OH255121   7.528   0.278   0.629
18415TIP3    H155122   7.563   0.270   0.718
18415TIP3    H255123   7.603   0.265   0.572
18416TIP3   OH255124   9.459   5.441   7.266
18416TIP3    H155125   9.415   5.380   7.206
18416TIP3    H255126   9.448   5.401   7.352
18417TIP3   OH255127   9.558   3.089   3.470
18417TIP3    H155128   9.470   3.092   3.507
18417TIP3    H255129   9.549   3.126   3.382
18418TIP3   OH255130   8.039   8.281   0.759
18418TIP3    H155131   8.009   8.275   0.850
18418TIP3    H255132   7.996   8.208   0.715
18419TIP3   OH255133   2.585   8.545   0.500
18419TIP3    H155134   2.631   8.487   0.441
18419TIP3    H255135   2.621   8.632   0.482
18420TIP3   OH255136   5.051   0.689   6.857
18420TIP3    H155137   5.012   0.717   6.940
18420TIP3    H255138   5.099   0.766   6.826
18421TIP3   OH255139   7.059   0.163   5.983
18421TIP3    H155140   7.140   0.207   6.007
18421TIP3    H255141   7.081   0.070   5.984
18422TIP3   OH255142   9.276   5.430   4.368
18422TIP3    H155143   9.285   5.345   4.411
18422TIP3    H255144   9.244   5.409   4.280
18423TIP3   OH255145   7.809   5.918   5.346
18423TIP3    H155146   7.842   5.989   5.291
18423TIP3    H255147   7.721   5.946   5.372
18424TIP3   OH255148   7.798   0.035   5.030
18424TIP3    H155149   7.752   0.062   4.951
18424TIP3    H255150   7.803  -0.061   5.024
18425TIP3   OH255151   1.261   0.045   7.784
18425TIP3    H155152   1.223   0.061   7.698
18425TIP3    H255153   1.244  -0.048   7.802
18426TIP3   OH255154   9.547   0.068   5.573
18426TIP3    H155155   9.527  -0.008   5.519
18426TIP3    H255156   9.616   0.114   5.524
18427TIP3   OH255157   7.685   6.621   6.063
18427TIP3    H155158   7.652   6.711   6.069
18427TIP3    H255159   7.703   6.596   6.153
18428TIP3   OH255160   3.101   1.514   0.820
18428TIP3    H155161   3.052   1.590   0.851
18428TIP3    H255162   3.034   1.449   0.799
18429TIP3   OH255163   0.994   7.721   4.247
18429TIP3    H155164   1.025   7.632   4.233
18429TIP3    H255165   0.957   7.748   4.163
18430TIP3   OH255166   4.344   8.540   0.697
18430TIP3    H155167   4.309   8.485   0.766
18430TIP3    H255168   4.279   8.536   0.627
18431TIP3   OH255169   7.919   8.200   3.488
18431TIP3    H155170   7.955   8.279   3.528
18431TIP3    H255171   7.953   8.201   3.399
18432TIP3   OH255172   0.765   8.133   2.467
18432TIP3    H155173   0.692   8.151   2.526
18432TIP3    H255174   0.742   8.176   2.385
18433TIP3   OH255175   4.998   2.194   3.700
18433TIP3    H155176   5.008   2.111   3.654
18433TIP3    H255177   5.056   2.186   3.777
18434TIP3   OH255178   8.114   7.558   3.974
18434TIP3    H155179   8.202   7.537   4.006
18434TIP3    H255180   8.060   7.561   4.053
18435TIP3   OH255181   5.447   4.596   7.541
18435TIP3    H155182   5.534   4.624   7.513
18435TIP3    H255183   5.390   4.618   7.468
18436TIP3   OH255184   3.631   1.086   3.557
18436TIP3    H155185   3.647   1.115   3.647
18436TIP3    H255186   3.715   1.056   3.525
18437TIP3   OH255187   8.200   4.083   3.195
18437TIP3    H155188   8.219   4.128   3.278
18437TIP3    H255189   8.183   4.154   3.133
18438TIP3   OH255190   7.212   4.521   2.852
18438TIP3    H155191   7.293   4.569   2.831
18438TIP3    H255192   7.148   4.554   2.789
18439TIP3   OH255193   7.507   5.025   3.866
18439TIP3    H155194   7.537   5.107   3.827
18439TIP3    H255195   7.476   5.050   3.953
18440TIP3   OH255196   1.018   3.642   7.329
18440TIP3    H155197   0.939   3.633   7.276
18440TIP3    H255198   0.996   3.707   7.395
18441TIP3   OH255199   1.220   3.404   5.800
18441TIP3    H155200   1.279   3.459   5.851
18441TIP3    H255201   1.252   3.315   5.812
18442TIP3   OH255202   0.819   1.631   4.308
18442TIP3    H155203   0.899   1.667   4.270
18442TIP3    H255204   0.766   1.606   4.232
18443TIP3   OH255205   8.993   5.360   6.357
18443TIP3    H155206   8.938   5.358   6.436
18443TIP3    H255207   8.932   5.341   6.285
18444TIP3   OH255208   8.211   3.397   6.598
18444TIP3    H155209   8.247   3.439   6.520
18444TIP3    H255210   8.233   3.304   6.588
18445TIP3   OH255211   8.798   3.288   6.524
18445TIP3    H155212   8.798   3.292   6.620
18445TIP3    H255213   8.881   3.246   6.502
18446TIP3   OH255214   2.449   2.342   5.038
18446TIP3    H155215   2.373   2.285   5.026
18446TIP3    H255216   2.502   2.299   5.104
18447TIP3   OH255217   9.251   4.093   2.779
18447TIP3    H155218   9.289   4.080   2.866
18447TIP3    H255219   9.327   4.102   2.721
18448TIP3   OH255220   1.461   8.419   5.637
18448TIP3    H155221   1.537   8.430   5.694
18448TIP3    H255222   1.491   8.446   5.551
18449TIP3   OH255223   4.573   4.796   3.432
18449TIP3    H155224   4.566   4.891   3.442
18449TIP3    H255225   4.482   4.767   3.422
18450TIP3   OH255226   3.862   1.366   0.527
18450TIP3    H155227   3.799   1.303   0.562
18450TIP3    H255228   3.891   1.416   0.604
18451TIP3   OH255229   4.170   6.387   2.375
18451TIP3    H155230   4.091   6.440   2.384
18451TIP3    H255231   4.171   6.333   2.454
18452TIP3   OH255232   4.351   4.112   3.526
18452TIP3    H155233   4.400   4.091   3.606
18452TIP3    H255234   4.407   4.174   3.479
18453TIP3   OH255235   2.447   8.565   4.775
18453TIP3    H155236   2.432   8.506   4.701
18453TIP3    H255237   2.525   8.530   4.819
18454TIP3   OH255238   6.741   6.260   2.885
18454TIP3    H155239   6.673   6.235   2.822
18454TIP3    H255240   6.817   6.208   2.858
18455TIP3   OH255241   4.560   5.022   0.777
18455TIP3    H155242   4.488   5.041   0.836
18455TIP3    H255243   4.614   4.959   0.824
18456TIP3   OH255244   0.407   4.191   6.381
18456TIP3    H155245   0.406   4.141   6.463
18456TIP3    H255246   0.457   4.270   6.402
18457TIP3   OH255247   4.727   2.509   5.333
18457TIP3    H155248   4.727   2.604   5.349
18457TIP3    H255249   4.680   2.472   5.407
18458TIP3   OH255250   5.084   5.849   4.798
18458TIP3    H155251   5.126   5.820   4.717
18458TIP3    H255252   5.046   5.934   4.777
18459TIP3   OH255253   4.559   5.577   2.380
18459TIP3    H155254   4.470   5.567   2.345
18459TIP3    H255255   4.558   5.662   2.424
18460TIP3   OH255256   0.294   5.948   2.371
18460TIP3    H155257   0.339   5.883   2.426
18460TIP3    H255258   0.356   5.965   2.300
18461TIP3   OH255259   4.392   7.943   1.074
18461TIP3    H155260   4.407   7.953   1.168
18461TIP3    H255261   4.434   8.020   1.034
18462TIP3   OH255262   7.281   3.244   6.825
18462TIP3    H155263   7.199   3.287   6.801
18462TIP3    H255264   7.270   3.220   6.916
18463TIP3   OH255265   1.237   2.176   0.960
18463TIP3    H155266   1.296   2.232   1.011
18463TIP3    H255267   1.250   2.204   0.869
18464TIP3   OH255268   4.857   4.147   5.379
18464TIP3    H155269   4.781   4.182   5.332
18464TIP3    H255270   4.839   4.168   5.471
18465TIP3   OH255271   0.597   7.210   7.084
18465TIP3    H155272   0.611   7.116   7.096
18465TIP3    H255273   0.538   7.216   7.009
18466TIP3   OH255274   5.978   8.097   0.557
18466TIP3    H155275   5.981   8.189   0.531
18466TIP3    H255276   5.948   8.051   0.479
18467TIP3   OH255277   0.511   2.406   6.142
18467TIP3    H155278   0.572   2.441   6.207
18467TIP3    H255279   0.426   2.443   6.167
18468TIP3   OH255280   8.469   2.866   0.227
18468TIP3    H155281   8.432   2.785   0.262
18468TIP3    H255282   8.564   2.850   0.224
18469TIP3   OH255283   5.083   6.483   3.578
18469TIP3    H155284   5.079   6.420   3.506
18469TIP3    H255285   5.091   6.430   3.657
18470TIP3   OH255286   4.644   2.142   5.786
18470TIP3    H155287   4.683   2.055   5.788
18470TIP3    H255288   4.662   2.174   5.697
18471TIP3   OH255289   8.771   6.828   6.265
18471TIP3    H155290   8.682   6.832   6.301
18471TIP3    H255291   8.822   6.887   6.320
18472TIP3   OH255292   8.385   1.058   2.273
18472TIP3    H155293   8.371   0.978   2.323
18472TIP3    H255294   8.479   1.058   2.253
18473TIP3   OH255295   3.054   2.505   6.506
18473TIP3    H155296   2.977   2.459   6.538
18473TIP3    H255297   3.082   2.560   6.579
18474TIP3   OH255298   8.922   1.820   3.770
18474TIP3    H155299   8.864   1.877   3.719
18474TIP3    H255300   8.924   1.860   3.857
18475TIP3   OH255301   3.186   8.798   5.151
18475TIP3    H155302   3.262   8.853   5.134
18475TIP3    H255303   3.204   8.757   5.236
18476TIP3   OH255304   5.240   5.239   4.068
18476TIP3    H155305   5.156   5.257   4.026
18476TIP3    H255306   5.297   5.310   4.037
18477TIP3   OH255307   7.306   2.014   7.328
18477TIP3    H155308   7.318   1.994   7.235
18477TIP3    H255309   7.348   2.099   7.340
18478TIP3   OH255310   2.003   3.935   6.039
18478TIP3    H155311   1.912   3.918   6.016
18478TIP3    H255312   2.017   3.885   6.120
18479TIP3   OH255313   7.988   0.003   6.566
18479TIP3    H155314   7.975  -0.024   6.657
18479TIP3    H255315   7.949   0.090   6.560
18480TIP3   OH255316   2.517   5.877   0.820
18480TIP3    H155317   2.433   5.860   0.863
18480TIP3    H255318   2.503   5.850   0.729
18481TIP3   OH255319   0.692   4.339   7.076
18481TIP3    H155320   0.634   4.278   7.121
18481TIP3    H255321   0.638   4.416   7.059
18482TIP3   OH255322   6.239   4.749   3.289
18482TIP3    H155323   6.328   4.721   3.269
18482TIP3    H255324   6.237   4.755   3.385
18483TIP3   OH255325   6.619   7.440   0.706
18483TIP3    H155326   6.587   7.379   0.639
18483TIP3    H255327   6.541   7.461   0.758
18484TIP3   OH255328   3.923   6.498   7.181
18484TIP3    H155329   3.948   6.449   7.103
18484TIP3    H255330   3.969   6.582   7.173
18485TIP3   OH255331   1.045   3.276   3.448
18485TIP3    H155332   1.078   3.315   3.529
18485TIP3    H255333   1.121   3.229   3.412
18486TIP3   OH255334   5.072   0.001   6.330
18486TIP3    H155335   5.090   0.075   6.273
18486TIP3    H255336   5.067   0.038   6.418
18487TIP3   OH255337   6.472   4.923   5.991
18487TIP3    H155338   6.455   4.918   6.086
18487TIP3    H255339   6.385   4.936   5.953
18488TIP3   OH255340   5.975   4.654   4.075
18488TIP3    H155341   5.912   4.587   4.047
18488TIP3    H255342   6.060   4.613   4.061
18489TIP3   OH255343   6.482   4.634   7.037
18489TIP3    H155344   6.423   4.702   7.005
18489TIP3    H255345   6.563   4.649   6.988
18490TIP3   OH255346   6.614   2.216   5.397
18490TIP3    H155347   6.580   2.130   5.421
18490TIP3    H255348   6.709   2.206   5.400
18491TIP3   OH255349   1.344   5.587   4.782
18491TIP3    H155350   1.346   5.682   4.775
18491TIP3    H255351   1.406   5.557   4.715
18492TIP3   OH255352   7.994   1.812   5.563
18492TIP3    H155353   8.072   1.767   5.595
18492TIP3    H255354   7.993   1.795   5.469
18493TIP3   OH255355   6.004   7.592   7.064
18493TIP3    H155356   5.922   7.543   7.061
18493TIP3    H255357   5.977   7.684   7.060
18494TIP3   OH255358   4.889   3.613   3.402
18494TIP3    H155359   4.801   3.619   3.441
18494TIP3    H255360   4.940   3.680   3.447
18495TIP3   OH255361   2.954   1.614   1.188
18495TIP3    H155362   2.905   1.655   1.116
18495TIP3    H255363   2.911   1.645   1.267
18496TIP3   OH255364   6.635   3.554   0.269
18496TIP3    H155365   6.612   3.538   0.361
18496TIP3    H255366   6.730   3.542   0.266
18497TIP3   OH255367   7.976   1.709   4.159
18497TIP3    H155368   8.003   1.617   4.160
18497TIP3    H255369   7.971   1.734   4.251
18498TIP3   OH255370   4.604   4.188   0.234
18498TIP3    H155371   4.637   4.104   0.203
18498TIP3    H255372   4.616   4.184   0.329
18499TIP3   OH255373   8.018   1.930   4.620
18499TIP3    H155374   7.955   1.931   4.548
18499TIP3    H255375   8.048   2.020   4.626
18500TIP3   OH255376   0.309   6.092   0.593
18500TIP3    H155377   0.376   6.119   0.656
18500TIP3    H255378   0.325   5.999   0.579
18501TIP3   OH255379   3.361   4.918   0.721
18501TIP3    H155380   3.442   4.887   0.762
18501TIP3    H255381   3.372   5.013   0.717
18502TIP3   OH255382   1.858   4.254   0.852
18502TIP3    H155383   1.903   4.188   0.800
18502TIP3    H255384   1.910   4.259   0.933
18503TIP3   OH255385   2.587   4.819   1.210
18503TIP3    H155386   2.549   4.852   1.128
18503TIP3    H255387   2.671   4.782   1.183
18504TIP3   OH255388   2.687   6.238   0.318
18504TIP3    H155389   2.781   6.246   0.306
18504TIP3    H255390   2.651   6.315   0.275
18505TIP3   OH255391   7.993   4.763   3.629
18505TIP3    H155392   8.027   4.690   3.578
18505TIP3    H255393   8.050   4.837   3.608
18506TIP3   OH255394   9.483   8.894   3.174
18506TIP3    H155395   9.530   8.915   3.093
18506TIP3    H255396   9.471   8.800   3.171
18507TIP3   OH255397   6.237   4.010   5.664
18507TIP3    H155398   6.198   4.032   5.579
18507TIP3    H255399   6.332   4.020   5.650
18508TIP3   OH255400   4.455   1.873   7.412
18508TIP3    H155401   4.481   1.783   7.394
18508TIP3    H255402   4.523   1.906   7.471
18509TIP3   OH255403   4.602   3.413   2.570
18509TIP3    H155404   4.552   3.370   2.639
18509TIP3    H255405   4.603   3.350   2.498
18510TIP3   OH255406   4.049   6.572   3.663
18510TIP3    H155407   4.040   6.655   3.616
18510TIP3    H255408   4.064   6.598   3.754
18511TIP3   OH255409   3.762   2.838   1.714
18511TIP3    H155410   3.741   2.802   1.627
18511TIP3    H255411   3.731   2.929   1.710
18512TIP3   OH255412   0.130   7.340   1.573
18512TIP3    H155413   0.070   7.343   1.499
18512TIP3    H255414   0.082   7.379   1.645
18513TIP3   OH255415   9.373   0.120   3.679
18513TIP3    H155416   9.352   0.189   3.616
18513TIP3    H255417   9.290   0.075   3.695
18514TIP3   OH255418   7.188   0.686   0.665
18514TIP3    H155419   7.263   0.626   0.662
18514TIP3    H255420   7.126   0.645   0.725
18515TIP3   OH255421   4.890   2.547   6.672
18515TIP3    H155422   4.871   2.496   6.593
18515TIP3    H255423   4.841   2.502   6.741
18516TIP3   OH255424   7.280   6.393   7.791
18516TIP3    H155425   7.261   6.487   7.799
18516TIP3    H255426   7.263   6.373   7.699
18517TIP3   OH255427   3.884   7.393   4.526
18517TIP3    H155428   3.864   7.448   4.450
18517TIP3    H255429   3.891   7.305   4.490
18518TIP3   OH255430   0.418   2.796   2.698
18518TIP3    H155431   0.337   2.807   2.649
18518TIP3    H255432   0.459   2.719   2.659
18519TIP3   OH255433   2.237   2.782   0.873
18519TIP3    H155434   2.165   2.786   0.936
18519TIP3    H255435   2.296   2.716   0.908
18520TIP3   OH255436   8.127   3.132   4.400
18520TIP3    H155437   8.218   3.154   4.381
18520TIP3    H255438   8.104   3.067   4.333
18521TIP3   OH255439   1.586   2.242   0.705
18521TIP3    H155440   1.646   2.299   0.657
18521TIP3    H255441   1.642   2.173   0.741
18522TIP3   OH255442   0.639   5.837   1.674
18522TIP3    H155443   0.595   5.761   1.712
18522TIP3    H255444   0.600   5.846   1.587
18523TIP3   OH255445   6.254   5.968   6.699
18523TIP3    H155446   6.174   5.988   6.650
18523TIP3    H255447   6.324   6.006   6.646
18524TIP3   OH255448   1.691   4.128   7.171
18524TIP3    H155449   1.617   4.187   7.188
18524TIP3    H255450   1.673   4.051   7.223
18525TIP3   OH255451   1.931   0.038   3.185
18525TIP3    H155452   1.862   0.090   3.227
18525TIP3    H255453   2.004   0.099   3.174
18526TIP3   OH255454   4.937   5.597   6.209
18526TIP3    H155455   4.929   5.668   6.273
18526TIP3    H255456   4.882   5.527   6.245
18527TIP3   OH255457   5.722   7.209   0.395
18527TIP3    H155458   5.781   7.277   0.427
18527TIP3    H255459   5.635   7.239   0.422
18528TIP3   OH255460   8.804   7.951   2.925
18528TIP3    H155461   8.737   7.984   2.986
18528TIP3    H255462   8.787   7.857   2.921
18529TIP3   OH255463   3.007   7.831   4.774
18529TIP3    H155464   3.027   7.759   4.714
18529TIP3    H255465   2.942   7.795   4.833
18530TIP3   OH255466   4.145   2.083   6.610
18530TIP3    H155467   4.168   2.091   6.703
18530TIP3    H255468   4.229   2.070   6.566
18531TIP3   OH255469   2.212   5.033   5.590
18531TIP3    H155470   2.271   5.076   5.529
18531TIP3    H255471   2.153   4.982   5.535
18532TIP3   OH255472   1.638   5.024   4.709
18532TIP3    H155473   1.648   4.939   4.666
18532TIP3    H255474   1.716   5.032   4.764
18533TIP3   OH255475   6.621   2.029   2.611
18533TIP3    H155476   6.649   2.054   2.699
18533TIP3    H255477   6.662   2.093   2.553
18534TIP3   OH255478   3.066   8.683   0.685
18534TIP3    H155479   3.136   8.668   0.749
18534TIP3    H255480   3.004   8.612   0.701
18535TIP3   OH255481   8.184   1.572   5.466
18535TIP3    H155482   8.142   1.641   5.415
18535TIP3    H255483   8.241   1.527   5.404
18536TIP3   OH255484   9.207   6.315   0.701
18536TIP3    H155485   9.188   6.401   0.740
18536TIP3    H255486   9.271   6.334   0.632
18537TIP3   OH255487   2.115   6.415   4.558
18537TIP3    H155488   2.150   6.351   4.496
18537TIP3    H255489   2.192   6.466   4.585
18538TIP3   OH255490   5.294   5.061   7.611
18538TIP3    H155491   5.259   5.145   7.644
18538TIP3    H255492   5.242   5.042   7.533
18539TIP3   OH255493   6.914   4.781   2.962
18539TIP3    H155494   6.954   4.866   2.948
18539TIP3    H255495   6.822   4.794   2.941
18540TIP3   OH255496   1.410   0.383   5.376
18540TIP3    H155497   1.378   0.425   5.455
18540TIP3    H255498   1.337   0.328   5.347
18541TIP3   OH255499   6.382   7.045   5.865
18541TIP3    H155500   6.440   7.117   5.840
18541TIP3    H255501   6.327   7.081   5.934
18542TIP3   OH255502   9.484   0.857   7.293
18542TIP3    H155503   9.428   0.836   7.219
18542TIP3    H255504   9.558   0.904   7.254
18543TIP3   OH255505   0.833   5.074   6.563
18543TIP3    H155506   0.878   5.124   6.631
18543TIP3    H255507   0.741   5.100   6.572
18544TIP3   OH255508   3.513   7.196   4.334
18544TIP3    H155509   3.549   7.108   4.343
18544TIP3    H255510   3.420   7.186   4.355
18545TIP3   OH255511   0.550   2.804   5.403
18545TIP3    H155512   0.557   2.741   5.331
18545TIP3    H255513   0.557   2.751   5.482
18546TIP3   OH255514   5.301   6.152   2.893
18546TIP3    H155515   5.315   6.174   2.801
18546TIP3    H255516   5.371   6.091   2.915
18547TIP3   OH255517   5.275   6.475   1.072
18547TIP3    H155518   5.227   6.558   1.065
18547TIP3    H255519   5.207   6.408   1.071
18548TIP3   OH255520   8.276   0.386   4.361
18548TIP3    H155521   8.224   0.396   4.282
18548TIP3    H255522   8.367   0.391   4.331
18549TIP3   OH255523   1.617   3.081   1.659
18549TIP3    H155524   1.576   3.151   1.711
18549TIP3    H255525   1.555   3.009   1.662
18550TIP3   OH255526   6.812   4.683   1.714
18550TIP3    H155527   6.870   4.712   1.785
18550TIP3    H255528   6.731   4.733   1.727
18551TIP3   OH255529   6.927   6.841   0.330
18551TIP3    H155530   6.856   6.816   0.272
18551TIP3    H255531   6.900   6.811   0.417
18552TIP3   OH255532   0.209   1.944   4.341
18552TIP3    H155533   0.264   1.933   4.264
18552TIP3    H255534   0.163   1.860   4.350
18553TIP3   OH255535   9.528   2.469   0.598
18553TIP3    H155536   9.548   2.398   0.537
18553TIP3    H255537   9.507   2.543   0.542
18554TIP3   OH255538   1.709   0.265   4.723
18554TIP3    H155539   1.726   0.183   4.677
18554TIP3    H255540   1.705   0.332   4.655
18555TIP3   OH255541   2.612   1.415   2.491
18555TIP3    H155542   2.613   1.320   2.503
18555TIP3    H255543   2.653   1.429   2.405
18556TIP3   OH255544   5.247   6.231   6.225
18556TIP3    H155545   5.225   6.275   6.143
18556TIP3    H255546   5.264   6.140   6.201
18557TIP3   OH255547   4.197   4.442   2.611
18557TIP3    H155548   4.104   4.419   2.612
18557TIP3    H255549   4.240   4.368   2.654
18558TIP3   OH255550   5.373   0.627   4.195
18558TIP3    H155551   5.286   0.587   4.194
18558TIP3    H255552   5.429   0.560   4.234
18559TIP3   OH255553   6.359   5.353   0.777
18559TIP3    H155554   6.399   5.403   0.706
18559TIP3    H255555   6.362   5.262   0.747
18560TIP3   OH255556   8.960   7.991   4.230
18560TIP3    H155557   8.948   7.956   4.319
18560TIP3    H255558   9.032   8.053   4.238
18561TIP3   OH255559   7.799   6.728   4.361
18561TIP3    H155560   7.851   6.659   4.321
18561TIP3    H255561   7.751   6.767   4.288
18562TIP3   OH255562   0.510   7.321   7.355
18562TIP3    H155563   0.522   7.304   7.262
18562TIP3    H255564   0.597   7.305   7.394
18563TIP3   OH255565   0.557   7.763   3.894
18563TIP3    H155566   0.599   7.684   3.927
18563TIP3    H255567   0.480   7.731   3.846
18564TIP3   OH255568   5.451   5.779   6.598
18564TIP3    H155569   5.363   5.773   6.560
18564TIP3    H255570   5.462   5.872   6.619
18565TIP3   OH255571   7.341   5.663   2.951
18565TIP3    H155572   7.318   5.672   3.044
18565TIP3    H255573   7.355   5.569   2.939
18566TIP3   OH255574   3.058   5.893   2.105
18566TIP3    H155575   3.151   5.891   2.126
18566TIP3    H255576   3.039   5.985   2.085
18567TIP3   OH255577   7.819   4.912   3.074
18567TIP3    H155578   7.845   4.979   3.010
18567TIP3    H255579   7.895   4.904   3.131
18568TIP3   OH255580   1.374   3.283   6.207
18568TIP3    H155581   1.290   3.299   6.165
18568TIP3    H255582   1.355   3.217   6.274
18569TIP3   OH255583   6.709   8.004   3.694
18569TIP3    H155584   6.799   7.970   3.695
18569TIP3    H255585   6.717   8.091   3.656
18570TIP3   OH255586   8.767   1.466   3.122
18570TIP3    H155587   8.723   1.410   3.186
18570TIP3    H255588   8.740   1.431   3.037
18571TIP3   OH255589   2.160   1.623   0.738
18571TIP3    H155590   2.109   1.553   0.778
18571TIP3    H255591   2.098   1.696   0.730
18572TIP3   OH255592   2.169   2.553   5.431
18572TIP3    H155593   2.205   2.599   5.507
18572TIP3    H255594   2.239   2.554   5.366
18573TIP3   OH255595   5.727   0.364   3.915
18573TIP3    H155596   5.655   0.315   3.954
18573TIP3    H255597   5.712   0.359   3.821
18574TIP3   OH255598   5.382   4.845   4.733
18574TIP3    H155599   5.337   4.928   4.749
18574TIP3    H255600   5.364   4.826   4.641
18575TIP3   OH255601   0.165   2.033   5.840
18575TIP3    H155602   0.128   1.985   5.914
18575TIP3    H255603   0.258   2.011   5.841
18576TIP3   OH255604   1.388   7.182   2.436
18576TIP3    H155605   1.375   7.122   2.362
18576TIP3    H255606   1.438   7.255   2.398
18577TIP3   OH255607   2.485   4.448   1.520
18577TIP3    H155608   2.467   4.541   1.526
18577TIP3    H255609   2.454   4.412   1.603
18578TIP3   OH255610   9.274   0.302   2.406
18578TIP3    H155611   9.186   0.306   2.442
18578TIP3    H255612   9.296   0.209   2.405
18579TIP3   OH255613   9.428   6.468   6.146
18579TIP3    H155614   9.442   6.509   6.060
18579TIP3    H255615   9.388   6.537   6.199
18580TIP3   OH255616   1.080   6.467   4.005
18580TIP3    H155617   1.072   6.509   4.091
18580TIP3    H255618   1.027   6.522   3.947
18581TIP3   OH255619   2.381   0.841   3.146
18581TIP3    H155620   2.449   0.907   3.147
18581TIP3    H255621   2.301   0.889   3.127
18582TIP3   OH255622   4.753   3.440   5.056
18582TIP3    H155623   4.802   3.509   5.011
18582TIP3    H255624   4.734   3.477   5.142
18583TIP3   OH255625   7.292   7.777   4.980
18583TIP3    H155626   7.334   7.853   5.021
18583TIP3    H255627   7.356   7.706   4.990
18584TIP3   OH255628   4.103   7.025   7.260
18584TIP3    H155629   4.109   7.096   7.323
18584TIP3    H255630   4.186   6.978   7.269
18585TIP3   OH255631   5.090   3.651   5.240
18585TIP3    H155632   5.030   3.588   5.282
18585TIP3    H255633   5.173   3.639   5.286
18586TIP3   OH255634   8.667   4.999   5.561
18586TIP3    H155635   8.662   4.948   5.480
18586TIP3    H255636   8.576   5.008   5.590
18587TIP3   OH255637   3.574   6.205   2.855
18587TIP3    H155638   3.642   6.265   2.885
18587TIP3    H255639   3.574   6.135   2.920
18588TIP3   OH255640   2.314   6.485   1.577
18588TIP3    H155641   2.338   6.407   1.527
18588TIP3    H255642   2.274   6.452   1.657
18589TIP3   OH255643   3.233   8.627   2.695
18589TIP3    H155644   3.328   8.637   2.692
18589TIP3    H255645   3.214   8.558   2.632
18590TIP3   OH255646   1.629   2.315   5.802
18590TIP3    H155647   1.552   2.364   5.831
18590TIP3    H255648   1.609   2.224   5.825
18591TIP3   OH255649   6.239   3.968   7.517
18591TIP3    H155650   6.268   3.970   7.426
18591TIP3    H255651   6.320   3.967   7.568
18592TIP3   OH255652   7.626   4.958   4.925
18592TIP3    H155653   7.656   4.926   4.840
18592TIP3    H255654   7.588   5.044   4.907
18593TIP3   OH255655   4.092   7.032   5.704
18593TIP3    H155656   4.079   6.941   5.730
18593TIP3    H255657   4.023   7.080   5.749
18594TIP3   OH255658   2.855   4.398   3.665
18594TIP3    H155659   2.904   4.461   3.718
18594TIP3    H255660   2.797   4.451   3.612
18595TIP3   OH255661   0.632   0.777   4.948
18595TIP3    H155662   0.674   0.744   4.868
18595TIP3    H255663   0.542   0.747   4.942
18596TIP3   OH255664   6.986   7.308   6.986
18596TIP3    H155665   6.907   7.335   7.033
18596TIP3    H255666   6.966   7.323   6.894
18597TIP3   OH255667   4.992   5.815   5.049
18597TIP3    H155668   5.044   5.814   4.968
18597TIP3    H255669   5.023   5.891   5.097
18598TIP3   OH255670   6.787   5.905   1.801
18598TIP3    H155671   6.834   5.874   1.878
18598TIP3    H255672   6.706   5.943   1.835
18599TIP3   OH255673   7.447   7.018   0.800
18599TIP3    H155674   7.385   6.946   0.813
18599TIP3    H255675   7.394   7.097   0.804
18600TIP3   OH255676   1.981   6.235   1.903
18600TIP3    H155677   2.003   6.197   1.988
18600TIP3    H255678   1.888   6.258   1.911
18601TIP3   OH255679   1.860   6.385   4.447
18601TIP3    H155680   1.828   6.474   4.434
18601TIP3    H255681   1.950   6.396   4.478
18602TIP3   OH255682   8.061   6.811   7.638
18602TIP3    H155683   7.974   6.775   7.620
18602TIP3    H255684   8.049   6.906   7.636
18603TIP3   OH255685   3.622   0.718   5.790
18603TIP3    H155686   3.585   0.645   5.840
18603TIP3    H255687   3.547   0.774   5.770
18604TIP3   OH255688   4.106   4.983   5.296
18604TIP3    H155689   4.181   4.944   5.342
18604TIP3    H255690   4.145   5.054   5.245
18605TIP3   OH255691   4.473   8.044   6.593
18605TIP3    H155692   4.556   8.077   6.626
18605TIP3    H255693   4.421   8.027   6.672
18606TIP3   OH255694   4.763   7.209   7.195
18606TIP3    H155695   4.813   7.269   7.250
18606TIP3    H255696   4.691   7.263   7.161
18607TIP3   OH255697   0.297   1.689   3.150
18607TIP3    H155698   0.369   1.645   3.105
18607TIP3    H255699   0.330   1.702   3.239
18608TIP3   OH255700   7.964   8.941   5.321
18608TIP3    H155701   7.939   9.013   5.263
18608TIP3    H255702   7.976   8.981   5.407
18609TIP3   OH255703   7.624   0.925   6.864
18609TIP3    H155704   7.612   0.896   6.954
18609TIP3    H255705   7.711   0.965   6.863
18610TIP3   OH255706   3.202   6.128   1.545
18610TIP3    H155707   3.294   6.155   1.540
18610TIP3    H255708   3.192   6.064   1.475
18611TIP3   OH255709   5.593   3.776   7.029
18611TIP3    H155710   5.648   3.778   7.107
18611TIP3    H255711   5.624   3.849   6.975
18612TIP3   OH255712   6.645   7.112   2.135
18612TIP3    H155713   6.630   7.083   2.045
18612TIP3    H255714   6.602   7.046   2.189
18613TIP3   OH255715   2.122   3.815   5.794
18613TIP3    H155716   2.039   3.857   5.773
18613TIP3    H255717   2.186   3.861   5.740
18614TIP3   OH255718   3.296   1.272   2.737
18614TIP3    H155719   3.270   1.182   2.719
18614TIP3    H255720   3.223   1.325   2.704
18615TIP3   OH255721   8.590   2.262   3.551
18615TIP3    H155722   8.521   2.328   3.556
18615TIP3    H255723   8.614   2.245   3.642
18616TIP3   OH255724   4.055   6.078   3.992
18616TIP3    H155725   4.100   6.129   4.059
18616TIP3    H255726   4.079   6.119   3.909
18617TIP3   OH255727   1.119   5.616   4.972
18617TIP3    H155728   1.155   5.582   4.889
18617TIP3    H255729   1.134   5.546   5.035
18618TIP3   OH255730   6.317   0.285   6.835
18618TIP3    H155731   6.341   0.312   6.746
18618TIP3    H255732   6.260   0.355   6.866
18619TIP3   OH255733   1.056   8.492   4.251
18619TIP3    H155734   1.071   8.410   4.205
18619TIP3    H255735   1.078   8.473   4.342
18620TIP3   OH255736   1.147   5.406   4.512
18620TIP3    H155737   1.073   5.355   4.545
18620TIP3    H255738   1.117   5.440   4.427
18621TIP3   OH255739   1.316   0.526   6.693
18621TIP3    H155740   1.251   0.506   6.625
18621TIP3    H255741   1.264   0.535   6.773
18622TIP3   OH255742   1.755   0.272   6.305
18622TIP3    H155743   1.753   0.187   6.261
18622TIP3    H255744   1.840   0.273   6.350
18623TIP3   OH255745   2.458   8.603   3.077
18623TIP3    H155746   2.452   8.509   3.063
18623TIP3    H255747   2.544   8.627   3.043
18624TIP3   OH255748   5.328   5.176   7.104
18624TIP3    H155749   5.308   5.099   7.157
18624TIP3    H255750   5.407   5.212   7.144
18625TIP3   OH255751   5.514   0.777   3.009
18625TIP3    H155752   5.534   0.705   3.068
18625TIP3    H255753   5.420   0.769   2.993
18626TIP3   OH255754   4.376   8.377   3.795
18626TIP3    H155755   4.365   8.438   3.723
18626TIP3    H255756   4.287   8.347   3.816
18627TIP3   OH255757   1.648   3.847   2.700
18627TIP3    H155758   1.563   3.811   2.726
18627TIP3    H255759   1.642   3.941   2.720
18628TIP3   OH255760   8.903   6.258   7.750
18628TIP3    H155761   8.912   6.202   7.827
18628TIP3    H255762   8.993   6.278   7.724
18629TIP3   OH255763   5.477   6.262   0.490
18629TIP3    H155764   5.513   6.186   0.444
18629TIP3    H255765   5.444   6.318   0.421
18630TIP3   OH255766   6.523   3.722   4.770
18630TIP3    H155767   6.484   3.756   4.690
18630TIP3    H255768   6.618   3.728   4.755
18631TIP3   OH255769   0.353   5.557   3.705
18631TIP3    H155770   0.387   5.468   3.698
18631TIP3    H255771   0.260   5.549   3.686
18632TIP3   OH255772   8.946   2.744   0.738
18632TIP3    H155773   8.869   2.799   0.724
18632TIP3    H255774   8.934   2.708   0.826
18633TIP3   OH255775   1.172   5.455   2.952
18633TIP3    H155776   1.212   5.473   3.038
18633TIP3    H255777   1.170   5.541   2.909
18634TIP3   OH255778   8.608   7.488   4.899
18634TIP3    H155779   8.539   7.496   4.832
18634TIP3    H255780   8.563   7.449   4.974
18635TIP3   OH255781   4.331   2.462   5.137
18635TIP3    H155782   4.401   2.527   5.130
18635TIP3    H255783   4.372   2.381   5.105
18636TIP3   OH255784   2.144   0.268   2.359
18636TIP3    H155785   2.149   0.363   2.369
18636TIP3    H255786   2.075   0.255   2.294
18637TIP3   OH255787   5.656   7.251   5.053
18637TIP3    H155788   5.639   7.280   4.964
18637TIP3    H255789   5.680   7.158   5.044
18638TIP3   OH255790   4.354   4.313   7.650
18638TIP3    H155791   4.403   4.384   7.608
18638TIP3    H255792   4.290   4.357   7.705
18639TIP3   OH255793   5.001   0.031   2.727
18639TIP3    H155794   4.968   0.006   2.640
18639TIP3    H255795   4.923   0.036   2.782
18640TIP3   OH255796   3.220   2.108   4.609
18640TIP3    H155797   3.227   2.166   4.685
18640TIP3    H255798   3.290   2.137   4.550
18641TIP3   OH255799   5.837   8.721   4.551
18641TIP3    H155800   5.826   8.786   4.482
18641TIP3    H255801   5.809   8.766   4.631
18642TIP3   OH255802   0.655   7.272   6.653
18642TIP3    H155803   0.619   7.202   6.599
18642TIP3    H255804   0.664   7.347   6.593
18643TIP3   OH255805   3.640   4.839   1.731
18643TIP3    H155806   3.675   4.869   1.814
18643TIP3    H255807   3.716   4.838   1.672
18644TIP3   OH255808   3.346   2.770   3.917
18644TIP3    H155809   3.258   2.739   3.894
18644TIP3    H255810   3.400   2.745   3.842
18645TIP3   OH255811   8.003   3.893   1.724
18645TIP3    H155812   8.003   3.972   1.778
18645TIP3    H255813   8.095   3.870   1.715
18646TIP3   OH255814   6.644   7.845   2.490
18646TIP3    H155815   6.739   7.837   2.492
18646TIP3    H255816   6.616   7.790   2.416
18647TIP3   OH255817   2.271   6.714   5.954
18647TIP3    H155818   2.336   6.781   5.972
18647TIP3    H255819   2.321   6.633   5.944
18648TIP3   OH255820   8.715   8.380   2.142
18648TIP3    H155821   8.640   8.432   2.171
18648TIP3    H255822   8.773   8.377   2.219
18649TIP3   OH255823   4.545   5.774   7.550
18649TIP3    H155824   4.509   5.695   7.591
18649TIP3    H255825   4.610   5.805   7.613
18650TIP3   OH255826   3.498   1.240   0.278
18650TIP3    H155827   3.483   1.334   0.292
18650TIP3    H255828   3.472   1.199   0.360
18651TIP3   OH255829   1.772   7.015   4.766
18651TIP3    H155830   1.710   7.058   4.708
18651TIP3    H255831   1.817   6.952   4.710
18652TIP3   OH255832   8.845   7.385   4.586
18652TIP3    H155833   8.916   7.448   4.575
18652TIP3    H255834   8.861   7.347   4.672
18653TIP3   OH255835   1.904   1.760   6.035
18653TIP3    H155836   1.865   1.805   5.960
18653TIP3    H255837   1.920   1.829   6.099
18654TIP3   OH255838   9.172   3.728   2.551
18654TIP3    H155839   9.190   3.661   2.617
18654TIP3    H255840   9.115   3.790   2.596
18655TIP3   OH255841   0.495   7.983   2.661
18655TIP3    H155842   0.476   8.072   2.632
18655TIP3    H255843   0.421   7.959   2.717
18656TIP3   OH255844   5.838   8.901   5.456
18656TIP3    H155845   5.832   8.826   5.515
18656TIP3    H255846   5.783   8.968   5.496
18657TIP3   OH255847   4.204   0.396   6.206
18657TIP3    H155848   4.299   0.399   6.190
18657TIP3    H255849   4.165   0.394   6.119
18658TIP3   OH255850   8.313   1.127   3.275
18658TIP3    H155851   8.300   1.157   3.185
18658TIP3    H255852   8.252   1.053   3.285
18659TIP3   OH255853   5.850   8.225   7.677
18659TIP3    H155854   5.890   8.198   7.594
18659TIP3    H255855   5.822   8.143   7.718
18660TIP3   OH255856   6.482   4.200   5.809
18660TIP3    H155857   6.454   4.240   5.727
18660TIP3    H255858   6.556   4.145   5.785
18661TIP3   OH255859   7.305   6.960   7.738
18661TIP3    H155860   7.323   7.001   7.653
18661TIP3    H255861   7.224   7.001   7.768
18662TIP3   OH255862   1.176   0.483   3.531
18662TIP3    H155863   1.260   0.438   3.520
18662TIP3    H255864   1.199   0.576   3.524
18663TIP3   OH255865   9.395   4.416   3.741
18663TIP3    H155866   9.453   4.459   3.804
18663TIP3    H255867   9.408   4.465   3.660
18664TIP3   OH255868   7.767   0.299   5.098
18664TIP3    H155869   7.829   0.229   5.121
18664TIP3    H255870   7.685   0.274   5.140
18665TIP3   OH255871   0.662   7.665   5.323
18665TIP3    H155872   0.663   7.699   5.234
18665TIP3    H255873   0.652   7.570   5.312
18666TIP3   OH255874   2.053   5.971   7.692
18666TIP3    H155875   2.038   5.952   7.784
18666TIP3    H255876   2.106   6.051   7.692
18667TIP3   OH255877   9.069   6.297   7.403
18667TIP3    H155878   9.058   6.386   7.435
18667TIP3    H255879   9.137   6.304   7.335
18668TIP3   OH255880   6.850   5.474   2.100
18668TIP3    H155881   6.875   5.394   2.054
18668TIP3    H255882   6.928   5.499   2.149
18669TIP3   OH255883   5.672   5.810   1.746
18669TIP3    H155884   5.718   5.797   1.663
18669TIP3    H255885   5.580   5.819   1.720
18670TIP3   OH255886   0.903   6.050   7.799
18670TIP3    H155887   0.984   6.101   7.802
18670TIP3    H255888   0.922   5.973   7.854
18671TIP3   OH255889   1.189   0.009   5.265
18671TIP3    H155890   1.108   0.010   5.316
18671TIP3    H255891   1.215   0.101   5.258
18672TIP3   OH255892   4.533   2.204   6.788
18672TIP3    H155893   4.508   2.251   6.708
18672TIP3    H255894   4.569   2.120   6.757
18673TIP3   OH255895   1.239   6.758   0.885
18673TIP3    H155896   1.218   6.810   0.807
18673TIP3    H255897   1.302   6.693   0.853
18674TIP3   OH255898   3.250   6.879   1.878
18674TIP3    H155899   3.303   6.946   1.922
18674TIP3    H255900   3.166   6.883   1.924
18675TIP3   OH255901   1.954   1.979   6.920
18675TIP3    H155902   2.049   1.968   6.924
18675TIP3    H255903   1.932   1.959   6.829
18676TIP3   OH255904   6.887   3.461   0.242
18676TIP3    H155905   6.893   3.417   0.157
18676TIP3    H255906   6.971   3.506   0.252
18677TIP3   OH255907   5.697   5.627   0.027
18677TIP3    H155908   5.740   5.686   0.089
18677TIP3    H255909   5.717   5.665  -0.059
18678TIP3   OH255910   1.476   5.543   5.222
18678TIP3    H155911   1.426   5.524   5.142
18678TIP3    H255912   1.481   5.459   5.268
18679TIP3   OH255913   6.168   5.878   0.966
18679TIP3    H155914   6.100   5.887   1.033
18679TIP3    H255915   6.221   5.957   0.975
18680TIP3   OH255916   5.837   3.243   0.743
18680TIP3    H155917   5.904   3.232   0.675
18680TIP3    H255918   5.788   3.320   0.717
18681TIP3   OH255919   7.973   4.647   5.839
18681TIP3    H155920   7.995   4.684   5.754
18681TIP3    H255921   8.037   4.576   5.851
18682TIP3   OH255922   7.690   3.079   2.370
18682TIP3    H155923   7.668   3.018   2.299
18682TIP3    H255924   7.719   3.158   2.325
18683TIP3   OH255925   1.122   3.615   6.371
18683TIP3    H155926   1.189   3.653   6.427
18683TIP3    H255927   1.047   3.601   6.429
18684TIP3   OH255928   6.308   5.934   0.201
18684TIP3    H155929   6.313   5.854   0.148
18684TIP3    H255930   6.388   5.934   0.253
18685TIP3   OH255931   8.640   0.087   1.901
18685TIP3    H155932   8.561   0.128   1.935
18685TIP3    H255933   8.699   0.082   1.977
18686TIP3   OH255934   8.823   2.795   6.538
18686TIP3    H155935   8.877   2.855   6.589
18686TIP3    H255936   8.874   2.778   6.458
18687TIP3   OH255937   0.623   6.336   6.012
18687TIP3    H155938   0.666   6.291   6.084
18687TIP3    H255939   0.608   6.269   5.946
18688TIP3   OH255940   0.369   7.632   3.750
18688TIP3    H155941   0.310   7.598   3.817
18688TIP3    H255942   0.363   7.570   3.678
18689TIP3   OH255943   0.797   7.907   2.112
18689TIP3    H155944   0.706   7.901   2.141
18689TIP3    H255945   0.846   7.856   2.176
18690TIP3   OH255946   4.956   5.168   6.066
18690TIP3    H155947   4.982   5.259   6.048
18690TIP3    H255948   4.905   5.174   6.147
18691TIP3   OH255949   3.318   0.855   0.393
18691TIP3    H155950   3.228   0.872   0.366
18691TIP3    H255951   3.325   0.759   0.393
18692TIP3   OH255952   9.306   1.536   4.892
18692TIP3    H155953   9.240   1.504   4.953
18692TIP3    H255954   9.270   1.517   4.805
18693TIP3   OH255955   9.504   8.295   1.204
18693TIP3    H155956   9.476   8.351   1.132
18693TIP3    H255957   9.579   8.340   1.242
18694TIP3   OH255958   2.796   8.446   7.387
18694TIP3    H155959   2.722   8.483   7.338
18694TIP3    H255960   2.780   8.473   7.477
18695TIP3   OH255961   2.563   3.131   6.726
18695TIP3    H155962   2.656   3.150   6.731
18695TIP3    H255963   2.521   3.217   6.734
18696TIP3   OH255964   8.034   5.367   6.111
18696TIP3    H155965   8.106   5.341   6.054
18696TIP3    H255966   7.956   5.357   6.056
18697TIP3   OH255967   3.746   7.235   6.417
18697TIP3    H155968   3.818   7.297   6.428
18697TIP3    H255969   3.787   7.149   6.433
18698TIP3   OH255970   0.067   4.315   5.679
18698TIP3    H155971   0.057   4.262   5.758
18698TIP3    H255972   0.110   4.395   5.708
18699TIP3   OH255973   0.310   0.635   3.058
18699TIP3    H155974   0.215   0.623   3.061
18699TIP3    H255975   0.344   0.584   3.132
18700TIP3   OH255976   8.321   0.259   6.870
18700TIP3    H155977   8.389   0.325   6.877
18700TIP3    H255978   8.362   0.178   6.901
18701TIP3   OH255979   6.955   0.393   0.088
18701TIP3    H155980   7.030   0.419   0.141
18701TIP3    H255981   6.888   0.368   0.152
18702TIP3   OH255982   8.703   6.174   1.078
18702TIP3    H155983   8.721   6.089   1.037
18702TIP3    H255984   8.696   6.235   1.005
18703TIP3   OH255985   2.556   4.164   2.902
18703TIP3    H155986   2.518   4.201   2.981
18703TIP3    H255987   2.488   4.172   2.836
18704TIP3   OH255988   0.169   8.284   0.449
18704TIP3    H155989   0.157   8.353   0.513
18704TIP3    H255990   0.154   8.203   0.498
18705TIP3   OH255991   7.641   0.746   6.258
18705TIP3    H155992   7.630   0.795   6.177
18705TIP3    H255993   7.555   0.709   6.276
18706TIP3   OH255994   1.552   6.449   7.641
18706TIP3    H155995   1.499   6.483   7.569
18706TIP3    H255996   1.630   6.412   7.599
18707TIP3   OH255997   2.453   0.796   0.188
18707TIP3    H155998   2.411   0.821   0.270
18707TIP3    H255999   2.528   0.743   0.215
18708TIP3   OH256000   2.327   2.535   2.614
18708TIP3    H156001   2.280   2.542   2.531
18708TIP3    H256002   2.406   2.587   2.601
18709TIP3   OH256003   3.622   7.659   2.860
18709TIP3    H156004   3.528   7.674   2.847
18709TIP3    H256005   3.652   7.625   2.775
18710TIP3   OH256006   4.970   3.922   5.594
18710TIP3    H156007   5.011   3.948   5.512
18710TIP3    H256008   4.982   3.997   5.652
18711TIP3   OH256009   4.346   5.358   6.025
18711TIP3    H156010   4.436   5.327   6.011
18711TIP3    H256011   4.342   5.441   5.978
18712TIP3   OH256012   5.099   2.489   3.515
18712TIP3    H156013   5.150   2.562   3.550
18712TIP3    H256014   5.098   2.503   3.421
18713TIP3   OH256015   5.938   4.921   7.362
18713TIP3    H156016   5.981   4.846   7.322
18713TIP3    H256017   5.992   4.996   7.338
18714TIP3   OH256018   4.834   3.123   4.979
18714TIP3    H156019   4.744   3.140   5.010
18714TIP3    H256020   4.860   3.044   5.026
18715TIP3   OH256021   1.613   3.140   2.496
18715TIP3    H156022   1.692   3.192   2.483
18715TIP3    H256023   1.568   3.181   2.570
18716TIP3   OH256024   5.612   3.339   2.644
18716TIP3    H156025   5.663   3.393   2.704
18716TIP3    H256026   5.575   3.401   2.581
18717TIP3   OH256027   8.483   5.919   3.587
18717TIP3    H156028   8.461   6.006   3.554
18717TIP3    H256029   8.572   5.929   3.622
18718TIP3   OH256030   2.964   5.940   4.192
18718TIP3    H156031   2.997   5.850   4.190
18718TIP3    H256032   2.982   5.971   4.281
18719TIP3   OH256033   1.412   0.218   1.721
18719TIP3    H156034   1.400   0.135   1.675
18719TIP3    H256035   1.325   0.241   1.754
18720TIP3   OH256036   6.740   3.503   4.661
18720TIP3    H156037   6.767   3.536   4.576
18720TIP3    H256038   6.657   3.459   4.644
18721TIP3   OH256039   7.570   4.889   7.390
18721TIP3    H156040   7.601   4.883   7.300
18721TIP3    H256041   7.621   4.960   7.428
18722TIP3   OH256042   3.986   3.617   1.641
18722TIP3    H156043   4.048   3.579   1.579
18722TIP3    H256044   4.039   3.640   1.717
18723TIP3   OH256045   7.983   7.781   2.323
18723TIP3    H156046   7.940   7.818   2.401
18723TIP3    H256047   8.052   7.725   2.358
18724TIP3   OH256048   8.558   7.869   2.656
18724TIP3    H156049   8.611   7.796   2.624
18724TIP3    H256050   8.592   7.946   2.609
18725TIP3   OH256051   2.582   2.918   0.911
18725TIP3    H156052   2.514   2.875   0.962
18725TIP3    H256053   2.603   2.998   0.959
18726TIP3   OH256054   4.800   4.523   2.852
18726TIP3    H156055   4.826   4.490   2.767
18726TIP3    H256056   4.719   4.573   2.835
18727TIP3   OH256057   6.758   5.146   2.094
18727TIP3    H156058   6.746   5.203   2.171
18727TIP3    H256059   6.681   5.089   2.095
18728TIP3   OH256060   7.954   2.703   6.323
18728TIP3    H156061   8.004   2.783   6.307
18728TIP3    H256062   8.006   2.634   6.283
18729TIP3   OH256063   7.394   1.745   1.645
18729TIP3    H156064   7.343   1.821   1.672
18729TIP3    H256065   7.450   1.777   1.574
18730TIP3   OH256066   4.249   8.370   2.238
18730TIP3    H156067   4.327   8.398   2.286
18730TIP3    H256068   4.176   8.400   2.293
18731TIP3   OH256069   3.224   7.707   6.934
18731TIP3    H156070   3.146   7.654   6.949
18731TIP3    H256071   3.237   7.705   6.839
18732TIP3   OH256072   1.148   8.063   7.175
18732TIP3    H156073   1.197   7.983   7.192
18732TIP3    H256074   1.176   8.124   7.243
18733TIP3   OH256075   4.763   7.227   1.539
18733TIP3    H156076   4.742   7.134   1.543
18733TIP3    H256077   4.830   7.240   1.606
18734TIP3   OH256078   4.868   5.669   7.733
18734TIP3    H156079   4.799   5.734   7.744
18734TIP3    H256080   4.928   5.709   7.670
18735TIP3   OH256081   7.976   3.739   3.279
18735TIP3    H156082   7.983   3.654   3.322
18735TIP3    H256083   8.058   3.748   3.230
18736TIP3   OH256084   2.804   8.649   6.529
18736TIP3    H156085   2.885   8.644   6.579
18736TIP3    H256086   2.806   8.574   6.471
18737TIP3   OH256087   2.451   6.610   6.808
18737TIP3    H156088   2.545   6.622   6.793
18737TIP3    H256089   2.442   6.518   6.830
18738TIP3   OH256090   0.602   5.756   0.752
18738TIP3    H156091   0.556   5.681   0.790
18738TIP3    H256092   0.595   5.743   0.657
18739TIP3   OH256093   4.255   6.925   0.037
18739TIP3    H156094   4.184   6.936   0.101
18739TIP3    H256095   4.227   6.973  -0.040
18740TIP3   OH256096   7.428   7.750   6.614
18740TIP3    H156097   7.515   7.786   6.600
18740TIP3    H256098   7.412   7.761   6.708
18741TIP3   OH256099   1.029   4.353   1.770
18741TIP3    H156100   0.982   4.436   1.762
18741TIP3    H256101   1.043   4.342   1.865
18742TIP3   OH256102   3.125   2.692   6.740
18742TIP3    H156103   3.058   2.681   6.808
18742TIP3    H256104   3.090   2.760   6.683
18743TIP3   OH256105   0.908   4.668   5.444
18743TIP3    H156106   1.000   4.694   5.444
18743TIP3    H256107   0.903   4.597   5.380
18744TIP3   OH256108   8.344   6.656   4.671
18744TIP3    H156109   8.251   6.647   4.691
18744TIP3    H256110   8.347   6.713   4.594
18745TIP3   OH256111   2.559   6.084   0.975
18745TIP3    H156112   2.552   5.992   0.949
18745TIP3    H256113   2.636   6.087   1.031
18746TIP3   OH256114   2.946   6.999   7.198
18746TIP3    H156115   2.929   6.972   7.108
18746TIP3    H256116   2.977   7.090   7.190
18747TIP3   OH256117   1.601   4.468   3.667
18747TIP3    H156118   1.553   4.392   3.633
18747TIP3    H256119   1.598   4.458   3.762
18748TIP3   OH256120   4.499   2.302   1.300
18748TIP3    H156121   4.513   2.356   1.379
18748TIP3    H256122   4.561   2.337   1.236
18749TIP3   OH256123   0.791   1.090   7.313
18749TIP3    H156124   0.810   1.105   7.221
18749TIP3    H256125   0.792   1.177   7.353
18750TIP3   OH256126   7.950   6.400   5.029
18750TIP3    H156127   7.908   6.337   4.971
18750TIP3    H256128   7.995   6.346   5.094
18751TIP3   OH256129   7.635   8.221   3.606
18751TIP3    H156130   7.690   8.149   3.575
18751TIP3    H256131   7.658   8.295   3.549
18752TIP3   OH256132   5.050   5.984   6.272
18752TIP3    H156133   5.136   5.987   6.231
18752TIP3    H256134   5.066   6.010   6.363
18753TIP3   OH256135   5.430   8.117   6.731
18753TIP3    H156136   5.378   8.037   6.742
18753TIP3    H256137   5.459   8.114   6.640
18754TIP3   OH256138   8.250   6.324   3.549
18754TIP3    H156139   8.201   6.368   3.480
18754TIP3    H256140   8.252   6.387   3.621
18755TIP3   OH256141   3.428   3.426   4.829
18755TIP3    H156142   3.351   3.460   4.874
18755TIP3    H256143   3.501   3.473   4.869
18756TIP3   OH256144   0.754   4.285   6.091
18756TIP3    H156145   0.782   4.203   6.132
18756TIP3    H256146   0.823   4.348   6.115
18757TIP3   OH256147   6.452   8.359   3.696
18757TIP3    H156148   6.539   8.340   3.662
18757TIP3    H256149   6.436   8.289   3.760
18758TIP3   OH256150   9.341   3.047   3.890
18758TIP3    H156151   9.360   3.067   3.799
18758TIP3    H256152   9.327   3.133   3.931
18759TIP3   OH256153   6.810   4.056   1.349
18759TIP3    H156154   6.789   4.149   1.358
18759TIP3    H256155   6.883   4.054   1.287
18760TIP3   OH256156   6.772   4.401   7.289
18760TIP3    H156157   6.759   4.463   7.360
18760TIP3    H256158   6.819   4.328   7.329
18761TIP3   OH256159   6.065   1.392   4.268
18761TIP3    H156160   6.096   1.460   4.208
18761TIP3    H256161   5.979   1.367   4.234
18762TIP3   OH256162   5.351   0.157   0.057
18762TIP3    H156163   5.440   0.193   0.056
18762TIP3    H256164   5.330   0.141  -0.035
18763TIP3   OH256165   5.568   0.159   2.134
18763TIP3    H156166   5.551   0.239   2.086
18763TIP3    H256167   5.578   0.187   2.225
18764TIP3   OH256168   2.496   8.931   6.846
18764TIP3    H156169   2.513   8.923   6.753
18764TIP3    H256170   2.403   8.910   6.855
18765TIP3   OH256171   8.643   1.848   2.014
18765TIP3    H156172   8.715   1.795   2.047
18765TIP3    H256173   8.569   1.788   2.010
18766TIP3   OH256174   0.195   6.240   1.109
18766TIP3    H156175   0.260   6.177   1.142
18766TIP3    H256176   0.206   6.237   1.014
18767TIP3   OH256177   2.872   6.723   7.237
18767TIP3    H156178   2.929   6.688   7.305
18767TIP3    H256179   2.902   6.813   7.223
18768TIP3   OH256180   1.307   2.840   3.919
18768TIP3    H156181   1.289   2.885   3.836
18768TIP3    H256182   1.267   2.896   3.985
18769TIP3   OH256183   3.683   4.298   2.682
18769TIP3    H156184   3.610   4.237   2.678
18769TIP3    H256185   3.646   4.379   2.715
18770TIP3   OH256186   8.734   6.029   3.631
18770TIP3    H156187   8.783   6.109   3.650
18770TIP3    H256188   8.752   6.013   3.538
18771TIP3   OH256189   7.564   2.767   4.486
18771TIP3    H156190   7.644   2.812   4.457
18771TIP3    H256191   7.591   2.717   4.563
18772TIP3   OH256192   1.751   7.016   3.395
18772TIP3    H156193   1.703   6.978   3.321
18772TIP3    H256194   1.704   7.097   3.415
18773TIP3   OH256195   2.973   0.461   2.554
18773TIP3    H156196   2.918   0.399   2.601
18773TIP3    H256197   3.054   0.413   2.536
18774TIP3   OH256198   0.215   6.491   2.010
18774TIP3    H156199   0.217   6.558   1.942
18774TIP3    H256200   0.307   6.463   2.018
18775TIP3   OH256201   2.008   3.649   1.941
18775TIP3    H156202   1.930   3.651   1.997
18775TIP3    H256203   1.973   3.648   1.852
18776TIP3   OH256204   3.528   7.110   0.417
18776TIP3    H156205   3.535   7.174   0.346
18776TIP3    H256206   3.533   7.162   0.497
18777TIP3   OH256207   3.032   2.494   0.792
18777TIP3    H156208   3.111   2.529   0.750
18777TIP3    H256209   2.960   2.544   0.753
18778TIP3   OH256210   0.018   6.118   3.961
18778TIP3    H156211   0.083   6.174   4.005
18778TIP3    H256212   0.048   6.029   3.977
18779TIP3   OH256213   7.738   3.511   0.840
18779TIP3    H156214   7.832   3.494   0.831
18779TIP3    H256215   7.720   3.501   0.933
18780TIP3   OH256216   3.790   1.618   4.523
18780TIP3    H156217   3.833   1.569   4.452
18780TIP3    H256218   3.781   1.554   4.593
18781TIP3   OH256219   5.529   6.450   6.197
18781TIP3    H156220   5.518   6.358   6.173
18781TIP3    H256221   5.593   6.448   6.268
18782TIP3   OH256222   3.907   7.074   5.041
18782TIP3    H156223   3.917   7.101   5.132
18782TIP3    H256224   3.833   7.126   5.009
18783TIP3   OH256225   6.964   8.929   3.862
18783TIP3    H156226   6.976   9.009   3.811
18783TIP3    H256227   6.904   8.954   3.932
18784TIP3   OH256228   9.083   8.301   3.254
18784TIP3    H156229   9.072   8.222   3.307
18784TIP3    H256230   9.176   8.303   3.233
18785TIP3   OH256231   9.364   1.584   7.168
18785TIP3    H156232   9.307   1.519   7.126
18785TIP3    H256233   9.434   1.532   7.207
18786TIP3   OH256234   4.305   3.431   4.299
18786TIP3    H156235   4.379   3.397   4.250
18786TIP3    H256236   4.287   3.364   4.366
18787TIP3   OH256237   4.229   1.775   0.658
18787TIP3    H156238   4.260   1.761   0.569
18787TIP3    H256239   4.309   1.787   0.710
18788TIP3   OH256240   2.086   7.435   5.778
18788TIP3    H156241   2.068   7.347   5.813
18788TIP3    H256242   2.080   7.424   5.683
18789TIP3   OH256243   8.504   3.209   5.770
18789TIP3    H156244   8.410   3.205   5.789
18789TIP3    H256245   8.514   3.289   5.718
18790TIP3   OH256246   0.004   7.795   4.400
18790TIP3    H156247   0.098   7.776   4.400
18790TIP3    H256248  -0.002   7.889   4.383
18791TIP3   OH256249   0.650   7.624   2.076
18791TIP3    H156250   0.633   7.545   2.126
18791TIP3    H256251   0.575   7.633   2.017
18792TIP3   OH256252   6.728   1.496   7.484
18792TIP3    H156253   6.651   1.550   7.466
18792TIP3    H256254   6.741   1.446   7.404
18793TIP3   OH256255   8.505   0.757   2.122
18793TIP3    H156256   8.548   0.672   2.135
18793TIP3    H256257   8.418   0.746   2.161
18794TIP3   OH256258   3.488   1.819   7.217
18794TIP3    H156259   3.494   1.907   7.253
18794TIP3    H256260   3.404   1.786   7.249
18795TIP3   OH256261   4.829   1.839   6.630
18795TIP3    H156262   4.887   1.839   6.706
18795TIP3    H256263   4.741   1.851   6.667
18796TIP3   OH256264   7.118   2.516   5.073
18796TIP3    H156265   7.055   2.580   5.108
18796TIP3    H256266   7.134   2.545   4.983
18797TIP3   OH256267   2.418   0.420   0.666
18797TIP3    H156268   2.432   0.472   0.587
18797TIP3    H256269   2.324   0.425   0.682
18798TIP3   OH256270   4.321   1.894   0.407
18798TIP3    H156271   4.250   1.958   0.418
18798TIP3    H256272   4.291   1.838   0.335
18799TIP3   OH256273   2.949   3.784   5.465
18799TIP3    H156274   2.991   3.849   5.410
18799TIP3    H256275   2.859   3.816   5.476
18800TIP3   OH256276   6.822   3.769   6.827
18800TIP3    H156277   6.834   3.717   6.906
18800TIP3    H256278   6.808   3.705   6.757
18801TIP3   OH256279   4.987   7.365   2.769
18801TIP3    H156280   4.934   7.395   2.843
18801TIP3    H256281   4.995   7.270   2.781
18802TIP3   OH256282   1.666   2.683   3.386
18802TIP3    H156283   1.733   2.691   3.318
18802TIP3    H256284   1.644   2.590   3.388
18803TIP3   OH256285   9.383   5.825   5.130
18803TIP3    H156286   9.296   5.840   5.166
18803TIP3    H256287   9.428   5.909   5.139
18804TIP3   OH256288   1.026   4.176   7.170
18804TIP3    H156289   0.979   4.245   7.218
18804TIP3    H256290   1.031   4.103   7.231
18805TIP3   OH256291   7.612   7.853   3.699
18805TIP3    H156292   7.643   7.785   3.639
18805TIP3    H256293   7.539   7.894   3.653
18806TIP3   OH256294   3.827   0.507   5.243
18806TIP3    H156295   3.871   0.571   5.299
18806TIP3    H256296   3.847   0.535   5.154
18807TIP3   OH256297   5.346   6.647   1.529
18807TIP3    H156298   5.302   6.563   1.517
18807TIP3    H256299   5.345   6.663   1.623
18808TIP3   OH256300   4.848   4.232   3.175
18808TIP3    H156301   4.761   4.259   3.206
18808TIP3    H256302   4.894   4.315   3.159
18809TIP3   OH256303   7.958   5.715   5.789
18809TIP3    H156304   7.910   5.784   5.742
18809TIP3    H256305   7.892   5.649   5.808
18810TIP3   OH256306   3.316   5.847   2.140
18810TIP3    H156307   3.378   5.896   2.195
18810TIP3    H256308   3.346   5.756   2.147
18811TIP3   OH256309   9.021   1.416   5.906
18811TIP3    H156310   9.099   1.444   5.954
18811TIP3    H256311   9.036   1.323   5.888
18812TIP3   OH256312   5.591   6.933   3.337
18812TIP3    H156313   5.505   6.951   3.374
18812TIP3    H256314   5.627   7.020   3.317
18813TIP3   OH256315   3.931   6.241   1.621
18813TIP3    H156316   3.982   6.257   1.701
18813TIP3    H256317   3.841   6.230   1.652
18814TIP3   OH256318   6.911   3.396   1.226
18814TIP3    H156319   6.889   3.485   1.252
18814TIP3    H256320   6.826   3.353   1.213
18815TIP3   OH256321   4.826   7.723   0.516
18815TIP3    H156322   4.877   7.683   0.587
18815TIP3    H256323   4.756   7.661   0.498
18816TIP3   OH256324   3.855   8.086   4.622
18816TIP3    H156325   3.926   8.057   4.564
18816TIP3    H256326   3.829   8.172   4.587
18817TIP3   OH256327   2.070   8.871   6.629
18817TIP3    H156328   2.119   8.894   6.549
18817TIP3    H256329   1.996   8.820   6.598
18818TIP3   OH256330   5.474   5.399   4.913
18818TIP3    H156331   5.501   5.457   4.985
18818TIP3    H256332   5.522   5.431   4.837
18819TIP3   OH256333   5.760   4.056   3.349
18819TIP3    H156334   5.820   4.029   3.418
18819TIP3    H256335   5.765   4.152   3.349
18820TIP3   OH256336   3.224   7.666   6.643
18820TIP3    H156337   3.317   7.670   6.618
18820TIP3    H256338   3.183   7.613   6.575
18821TIP3   OH256339   2.185   4.272   2.556
18821TIP3    H156340   2.138   4.288   2.475
18821TIP3    H256341   2.117   4.269   2.624
18822TIP3   OH256342   5.055   0.835   6.099
18822TIP3    H156343   5.050   0.747   6.136
18822TIP3    H256344   5.148   0.849   6.082
18823TIP3   OH256345   0.932   0.163   0.502
18823TIP3    H156346   0.853   0.184   0.552
18823TIP3    H256347   0.949   0.071   0.522
18824TIP3   OH256348   0.955   4.436   0.416
18824TIP3    H156349   0.934   4.463   0.506
18824TIP3    H256350   0.871   4.442   0.369
18825TIP3   OH256351   8.982   8.290   5.182
18825TIP3    H156352   9.011   8.359   5.241
18825TIP3    H256353   8.958   8.218   5.239
18826TIP3   OH256354   5.480   0.220   1.560
18826TIP3    H156355   5.430   0.265   1.628
18826TIP3    H256356   5.559   0.272   1.549
18827TIP3   OH256357   9.014   1.888   3.006
18827TIP3    H156358   9.104   1.883   3.038
18827TIP3    H256359   9.020   1.865   2.913
18828TIP3   OH256360   2.188   6.370   6.743
18828TIP3    H156361   2.134   6.403   6.671
18828TIP3    H256362   2.127   6.322   6.799
18829TIP3   OH256363   0.590   5.871   2.725
18829TIP3    H156364   0.506   5.838   2.693
18829TIP3    H256365   0.648   5.795   2.721
18830TIP3   OH256366   4.227   0.637   5.509
18830TIP3    H156367   4.239   0.553   5.552
18830TIP3    H256368   4.188   0.693   5.575
18831TIP3   OH256369   5.266   3.074   0.057
18831TIP3    H156370   5.273   3.112   0.144
18831TIP3    H256371   5.247   2.982   0.072
18832TIP3   OH256372   2.676   6.731   7.019
18832TIP3    H156373   2.690   6.680   6.939
18832TIP3    H256374   2.763   6.768   7.038
18833TIP3   OH256375   2.523   3.421   5.122
18833TIP3    H156376   2.493   3.345   5.172
18833TIP3    H256377   2.612   3.399   5.096
18834TIP3   OH256378   5.270   8.597   2.106
18834TIP3    H156379   5.311   8.512   2.119
18834TIP3    H256380   5.179   8.578   2.087
18835TIP3   OH256381   5.928   0.884   7.310
18835TIP3    H156382   5.839   0.891   7.275
18835TIP3    H256383   5.926   0.934   7.391
18836TIP3   OH256384   0.317   3.031   7.530
18836TIP3    H156385   0.335   2.974   7.604
18836TIP3    H256386   0.274   2.975   7.465
18837TIP3   OH256387   5.676   5.326   6.001
18837TIP3    H156388   5.747   5.387   5.981
18837TIP3    H256389   5.709   5.273   6.073
18838TIP3   OH256390   6.841   7.982   0.977
18838TIP3    H156391   6.886   7.926   0.914
18838TIP3    H256392   6.836   7.929   1.057
18839TIP3   OH256393   7.394   5.428   3.259
18839TIP3    H156394   7.479   5.454   3.294
18839TIP3    H256395   7.410   5.344   3.216
18840TIP3   OH256396   1.680   4.394   0.573
18840TIP3    H156397   1.775   4.383   0.566
18840TIP3    H256398   1.647   4.307   0.596
18841TIP3   OH256399   0.104   7.106   4.930
18841TIP3    H156400   0.140   7.035   4.878
18841TIP3    H256401   0.169   7.123   4.998
18842TIP3   OH256402   7.432   4.096   2.799
18842TIP3    H156403   7.426   4.173   2.856
18842TIP3    H256404   7.379   4.120   2.722
18843TIP3   OH256405   1.855   6.125   5.684
18843TIP3    H156406   1.790   6.062   5.652
18843TIP3    H256407   1.914   6.139   5.610
18844TIP3   OH256408   1.960   6.432   7.258
18844TIP3    H156409   2.015   6.377   7.313
18844TIP3    H256410   1.990   6.521   7.276
18845TIP3   OH256411   2.390   3.386   7.352
18845TIP3    H156412   2.454   3.430   7.295
18845TIP3    H256413   2.321   3.356   7.293
18846TIP3   OH256414   0.438   4.552   2.022
18846TIP3    H156415   0.359   4.550   2.076
18846TIP3    H256416   0.464   4.460   2.015
18847TIP3   OH256417   9.320   3.280   0.034
18847TIP3    H156418   9.279   3.194   0.038
18847TIP3    H256419   9.251   3.338   0.003
18848TIP3   OH256420   8.389   4.550   5.829
18848TIP3    H156421   8.392   4.545   5.925
18848TIP3    H256422   8.411   4.641   5.809
18849TIP3   OH256423   8.641   0.651   1.110
18849TIP3    H156424   8.558   0.606   1.120
18849TIP3    H256425   8.638   0.690   1.023
18850TIP3   OH256426   2.876   8.175   3.549
18850TIP3    H156427   2.967   8.206   3.550
18850TIP3    H256428   2.881   8.086   3.585
18851TIP3   OH256429   4.545   6.667   3.356
18851TIP3    H156430   4.451   6.686   3.365
18851TIP3    H256431   4.588   6.749   3.381
18852TIP3   OH256432   7.585   6.452   6.571
18852TIP3    H156433   7.632   6.534   6.583
18852TIP3    H256434   7.649   6.384   6.594
18853TIP3   OH256435   2.280   7.681   4.984
18853TIP3    H156436   2.288   7.776   4.989
18853TIP3    H256437   2.230   7.665   4.904
18854TIP3   OH256438   2.891   3.859   2.720
18854TIP3    H156439   2.807   3.904   2.713
18854TIP3    H256440   2.956   3.925   2.696
18855TIP3   OH256441   2.566   4.570   0.302
18855TIP3    H156442   2.651   4.612   0.301
18855TIP3    H256443   2.514   4.623   0.363
18856TIP3   OH256444   2.145   1.270   7.807
18856TIP3    H156445   2.215   1.324   7.770
18856TIP3    H256446   2.068   1.326   7.808
18857TIP3   OH256447   1.965   2.541   3.428
18857TIP3    H156448   2.030   2.535   3.498
18857TIP3    H256449   1.907   2.466   3.443
18858TIP3   OH256450   1.247   5.849   1.094
18858TIP3    H156451   1.285   5.766   1.065
18858TIP3    H256452   1.262   5.850   1.189
18859TIP3   OH256453   6.114   4.944   6.645
18859TIP3    H156454   6.053   4.977   6.579
18859TIP3    H256455   6.066   4.875   6.689
18860TIP3   OH256456   8.788   4.023   0.258
18860TIP3    H156457   8.720   3.987   0.202
18860TIP3    H256458   8.821   3.948   0.307
18861TIP3   OH256459   8.918   0.714   6.669
18861TIP3    H156460   8.989   0.768   6.702
18861TIP3    H256461   8.856   0.776   6.632
18862TIP3   OH256462   2.082   0.625   7.547
18862TIP3    H156463   2.123   0.664   7.470
18862TIP3    H256464   2.092   0.690   7.616
18863TIP3   OH256465   6.313   2.288   6.063
18863TIP3    H156466   6.320   2.277   6.158
18863TIP3    H256467   6.337   2.379   6.048
18864TIP3   OH256468   3.417   0.749   6.276
18864TIP3    H156469   3.459   0.663   6.283
18864TIP3    H256470   3.362   0.755   6.353
18865TIP3   OH256471   1.991   5.265   4.775
18865TIP3    H156472   2.038   5.250   4.693
18865TIP3    H256473   2.012   5.354   4.800
18866TIP3   OH256474   5.366   1.601   7.751
18866TIP3    H156475   5.333   1.566   7.669
18866TIP3    H256476   5.415   1.679   7.726
18867TIP3   OH256477   1.947   4.374   4.495
18867TIP3    H156478   1.872   4.323   4.525
18867TIP3    H256479   2.008   4.374   4.569
18868TIP3   OH256480   5.919   8.140   1.891
18868TIP3    H156481   5.995   8.084   1.879
18868TIP3    H256482   5.854   8.105   1.830
18869TIP3   OH256483   2.404   5.589   0.656
18869TIP3    H156484   2.367   5.672   0.626
18869TIP3    H256485   2.363   5.574   0.741
18870TIP3   OH256486   6.364   3.721   0.371
18870TIP3    H156487   6.361   3.626   0.360
18870TIP3    H256488   6.283   3.743   0.417
18871TIP3   OH256489   1.468   6.023   5.179
18871TIP3    H156490   1.452   5.942   5.227
18871TIP3    H256491   1.555   6.051   5.206
18872TIP3   OH256492   6.268   7.905   3.783
18872TIP3    H156493   6.220   7.833   3.743
18872TIP3    H256494   6.224   7.984   3.750
18873TIP3   OH256495   0.898   6.512   1.448
18873TIP3    H156496   0.932   6.552   1.367
18873TIP3    H256497   0.803   6.515   1.438
18874TIP3   OH256498   3.897   0.688   1.825
18874TIP3    H156499   3.926   0.763   1.877
18874TIP3    H256500   3.802   0.686   1.838
18875TIP3   OH256501   3.705   7.281   4.709
18875TIP3    H156502   3.753   7.332   4.644
18875TIP3    H256503   3.691   7.342   4.782
18876TIP3   OH256504   1.487   3.951   6.256
18876TIP3    H156505   1.470   3.900   6.177
18876TIP3    H256506   1.400   3.972   6.290
18877TIP3   OH256507   9.081   6.092   0.381
18877TIP3    H156508   9.126   6.174   0.366
18877TIP3    H256509   9.138   6.044   0.441
18878TIP3   OH256510   1.957   3.895   7.056
18878TIP3    H156511   1.894   3.946   7.004
18878TIP3    H256512   2.019   3.960   7.089
18879TIP3   OH256513   2.253   3.173   4.226
18879TIP3    H156514   2.286   3.201   4.141
18879TIP3    H256515   2.302   3.093   4.246
18880TIP3   OH256516   3.881   0.362   7.361
18880TIP3    H156517   3.973   0.355   7.335
18880TIP3    H256518   3.832   0.333   7.285
18881TIP3   OH256519   4.833   7.809   5.752
18881TIP3    H156520   4.772   7.736   5.761
18881TIP3    H256521   4.920   7.769   5.760
18882TIP3   OH256522   8.822   8.277   7.598
18882TIP3    H156523   8.879   8.353   7.606
18882TIP3    H256524   8.880   8.202   7.612
18883TIP3   OH256525   2.501   3.867   4.745
18883TIP3    H156526   2.548   3.817   4.812
18883TIP3    H256527   2.470   3.945   4.790
18884TIP3   OH256528   8.612   6.656   7.041
18884TIP3    H156529   8.622   6.692   6.952
18884TIP3    H256530   8.611   6.561   7.027
18885TIP3   OH256531   8.883   6.893   0.100
18885TIP3    H156532   8.853   6.935   0.019
18885TIP3    H256533   8.862   6.955   0.169
18886TIP3   OH256534   8.696   5.324   3.961
18886TIP3    H156535   8.685   5.359   4.049
18886TIP3    H256536   8.669   5.233   3.967
18887TIP3   OH256537   7.627   1.112   6.525
18887TIP3    H156538   7.687   1.051   6.482
18887TIP3    H256539   7.685   1.173   6.571
18888TIP3   OH256540   9.157   4.750   3.083
18888TIP3    H156541   9.079   4.694   3.084
18888TIP3    H256542   9.225   4.697   3.042
18889TIP3   OH256543   1.632   5.382   7.079
18889TIP3    H156544   1.592   5.464   7.048
18889TIP3    H256545   1.674   5.345   7.001
18890TIP3   OH256546   0.277   6.785   7.638
18890TIP3    H156547   0.346   6.779   7.571
18890TIP3    H256548   0.211   6.723   7.610
18891TIP3   OH256549   5.605   3.012   3.950
18891TIP3    H156550   5.596   3.032   4.043
18891TIP3    H256551   5.691   2.970   3.942
18892TIP3   OH256552   7.767   4.558   3.806
18892TIP3    H156553   7.684   4.530   3.844
18892TIP3    H256554   7.747   4.638   3.759
18893TIP3   OH256555   1.434   4.023   4.767
18893TIP3    H156556   1.473   3.976   4.840
18893TIP3    H256557   1.375   4.087   4.807
18894TIP3   OH256558   0.941   3.026   7.734
18894TIP3    H156559   0.915   2.947   7.781
18894TIP3    H256560   0.865   3.084   7.741
18895TIP3   OH256561   7.134   1.809   7.413
18895TIP3    H156562   7.154   1.787   7.504
18895TIP3    H256563   7.199   1.875   7.389
18896TIP3   OH256564   0.307   7.344   1.376
18896TIP3    H156565   0.257   7.339   1.457
18896TIP3    H256566   0.257   7.403   1.320
18897TIP3   OH256567   2.015   5.049   1.666
18897TIP3    H156568   2.033   5.092   1.582
18897TIP3    H256569   1.949   4.983   1.646
18898TIP3   OH256570   2.308   7.930   7.264
18898TIP3    H156571   2.384   7.983   7.290
18898TIP3    H256572   2.236   7.992   7.258
18899TIP3   OH256573   9.228   6.683   5.174
18899TIP3    H156574   9.205   6.751   5.110
18899TIP3    H256575   9.289   6.626   5.127
18900TIP3   OH256576   1.747   0.798   7.466
18900TIP3    H156577   1.663   0.805   7.421
18900TIP3    H256578   1.812   0.800   7.396
18901TIP3   OH256579   0.703   7.317   5.103
18901TIP3    H156580   0.788   7.358   5.119
18901TIP3    H256581   0.678   7.282   5.189
18902TIP3   OH256582   0.914   1.761   3.715
18902TIP3    H156583   0.976   1.826   3.681
18902TIP3    H256584   0.831   1.808   3.720
18903TIP3   OH256585   0.311   1.384   4.616
18903TIP3    H156586   0.391   1.371   4.564
18903TIP3    H256587   0.241   1.353   4.559
18904TIP3   OH256588   1.949   5.360   5.458
18904TIP3    H156589   1.861   5.348   5.421
18904TIP3    H256590   1.997   5.409   5.392
18905TIP3   OH256591   5.936   0.213   6.434
18905TIP3    H156592   5.966   0.144   6.375
18905TIP3    H256593   5.930   0.171   6.520
18906TIP3   OH256594   1.816   8.321   3.387
18906TIP3    H156595   1.892   8.299   3.334
18906TIP3    H256596   1.835   8.285   3.473
18907TIP3   OH256597   1.986   3.195   4.253
18907TIP3    H156598   2.078   3.170   4.245
18907TIP3    H256599   1.983   3.285   4.220
18908TIP3   OH256600   5.786   4.020   5.525
18908TIP3    H156601   5.706   3.993   5.569
18908TIP3    H256602   5.835   3.938   5.514
18909TIP3   OH256603   0.813   1.974   0.450
18909TIP3    H156604   0.845   1.885   0.437
18909TIP3    H256605   0.841   1.998   0.539
18910TIP3   OH256606   3.351   1.267   0.971
18910TIP3    H156607   3.430   1.222   1.003
18910TIP3    H256608   3.280   1.229   1.022
18911TIP3   OH256609   7.502   3.574   1.380
18911TIP3    H156610   7.420   3.620   1.363
18911TIP3    H256611   7.520   3.527   1.298
18912TIP3   OH256612   5.284   4.095   4.350
18912TIP3    H156613   5.346   4.026   4.372
18912TIP3    H256614   5.311   4.125   4.263
18913TIP3   OH256615   7.904   2.918   1.289
18913TIP3    H156616   7.946   2.842   1.329
18913TIP3    H256617   7.810   2.899   1.294
18914TIP3   OH256618   0.159   7.183   3.175
18914TIP3    H156619   0.236   7.232   3.205
18914TIP3    H256620   0.093   7.250   3.157
18915TIP3   OH256621   1.055   6.163   6.136
18915TIP3    H156622   1.031   6.126   6.051
18915TIP3    H256623   1.148   6.184   6.127
18916TIP3   OH256624   7.187   4.479   7.138
18916TIP3    H156625   7.240   4.457   7.062
18916TIP3    H256626   7.097   4.473   7.107
18917TIP3   OH256627   3.999   1.363   2.313
18917TIP3    H156628   4.010   1.400   2.225
18917TIP3    H256629   3.927   1.413   2.351
18918TIP3   OH256630   4.493   0.081   7.128
18918TIP3    H156631   4.515   0.051   7.040
18918TIP3    H256632   4.403   0.113   7.120
18919TIP3   OH256633   5.708   2.717   1.567
18919TIP3    H156634   5.707   2.802   1.610
18919TIP3    H256635   5.648   2.726   1.493
18920TIP3   OH256636   7.637   4.861   7.113
18920TIP3    H156637   7.630   4.911   7.032
18920TIP3    H256638   7.719   4.813   7.104
18921TIP3   OH256639   4.136   1.938   7.374
18921TIP3    H156640   4.107   1.988   7.451
18921TIP3    H256641   4.210   1.886   7.406
18922TIP3   OH256642   9.441   7.274   4.114
18922TIP3    H156643   9.423   7.217   4.039
18922TIP3    H256644   9.536   7.275   4.121
18923TIP3   OH256645   8.690   5.840   5.727
18923TIP3    H156646   8.655   5.751   5.727
18923TIP3    H256647   8.776   5.831   5.768
18924TIP3   OH256648   7.337   0.433   4.150
18924TIP3    H156649   7.424   0.471   4.135
18924TIP3    H256650   7.295   0.434   4.065
18925TIP3   OH256651   8.238   2.480   4.100
18925TIP3    H156652   8.191   2.396   4.096
18925TIP3    H256653   8.261   2.498   4.009
18926TIP3   OH256654   7.187   0.067   4.143
18926TIP3    H156655   7.280   0.091   4.140
18926TIP3    H256656   7.187  -0.028   4.136
18927TIP3   OH256657   8.112   6.535   3.410
18927TIP3    H156658   8.028   6.558   3.448
18927TIP3    H256659   8.138   6.612   3.359
18928TIP3   OH256660   8.785   3.233   6.791
18928TIP3    H156661   8.843   3.298   6.830
18928TIP3    H256662   8.697   3.269   6.803
18929TIP3   OH256663   9.161   3.848   0.365
18929TIP3    H156664   9.067   3.865   0.358
18929TIP3    H256665   9.184   3.876   0.453
18930TIP3   OH256666   4.991   3.013   2.012
18930TIP3    H156667   4.926   3.079   2.036
18930TIP3    H256668   5.060   3.023   2.078
18931TIP3   OH256669   3.358   5.611   4.229
18931TIP3    H156670   3.369   5.626   4.135
18931TIP3    H256671   3.363   5.515   4.239
18932TIP3   OH256672   3.261   1.428   1.664
18932TIP3    H156673   3.190   1.491   1.678
18932TIP3    H256674   3.339   1.473   1.695
18933TIP3   OH256675   1.004   5.766   1.894
18933TIP3    H156676   0.941   5.702   1.860
18933TIP3    H256677   0.995   5.841   1.835
18934TIP3   OH256678   3.324   0.310   7.282
18934TIP3    H156679   3.347   0.219   7.296
18934TIP3    H256680   3.380   0.338   7.209
18935TIP3   OH256681   1.351   3.891   3.175
18935TIP3    H156682   1.395   3.940   3.244
18935TIP3    H256683   1.310   3.958   3.120
18936TIP3   OH256684   1.614   6.697   3.098
18936TIP3    H156685   1.675   6.707   3.171
18936TIP3    H256686   1.543   6.644   3.134
18937TIP3   OH256687   7.566   6.193   6.062
18937TIP3    H156688   7.588   6.164   6.151
18937TIP3    H256689   7.514   6.273   6.075
18938TIP3   OH256690   1.572   4.818   5.766
18938TIP3    H156691   1.569   4.722   5.766
18938TIP3    H256692   1.634   4.840   5.696
18939TIP3   OH256693   2.362   2.023   2.979
18939TIP3    H156694   2.301   1.999   3.049
18939TIP3    H256695   2.314   2.009   2.898
18940TIP3   OH256696   5.901   5.581   3.964
18940TIP3    H156697   5.917   5.509   4.025
18940TIP3    H256698   5.862   5.650   4.017
18941TIP3   OH256699   6.292   6.757   6.573
18941TIP3    H156700   6.379   6.797   6.584
18941TIP3    H256701   6.246   6.775   6.655
18942TIP3   OH256702   8.093   5.491   4.253
18942TIP3    H156703   8.081   5.488   4.158
18942TIP3    H256704   8.055   5.575   4.279
18943TIP3   OH256705   3.408   7.547   7.052
18943TIP3    H156706   3.342   7.548   6.982
18943TIP3    H256707   3.404   7.634   7.091
18944TIP3   OH256708   6.924   6.430   4.426
18944TIP3    H156709   6.944   6.338   4.406
18944TIP3    H256710   6.970   6.446   4.509
18945TIP3   OH256711   4.203   1.700   7.095
18945TIP3    H156712   4.203   1.794   7.112
18945TIP3    H256713   4.117   1.683   7.056
18946TIP3   OH256714   3.362   8.168   7.023
18946TIP3    H156715   3.417   8.240   7.056
18946TIP3    H256716   3.299   8.152   7.093
18947TIP3   OH256717   9.403   6.976   3.564
18947TIP3    H156718   9.397   7.018   3.650
18947TIP3    H256719   9.400   6.883   3.582
18948TIP3   OH256720   1.551   0.116   7.052
18948TIP3    H156721   1.571   0.207   7.030
18948TIP3    H256722   1.582   0.066   6.977
18949TIP3   OH256723   4.443   0.233   1.468
18949TIP3    H156724   4.491   0.217   1.387
18949TIP3    H256725   4.500   0.290   1.519
18950TIP3   OH256726   6.507   4.106   4.422
18950TIP3    H156727   6.469   4.129   4.337
18950TIP3    H256728   6.432   4.101   4.481
18951TIP3   OH256729   5.130   8.559   6.400
18951TIP3    H156730   5.196   8.626   6.381
18951TIP3    H256731   5.138   8.544   6.494
18952TIP3   OH256732   2.830   4.885   4.710
18952TIP3    H156733   2.798   4.844   4.789
18952TIP3    H256734   2.841   4.977   4.733
18953TIP3   OH256735   4.081   8.518   3.372
18953TIP3    H156736   4.031   8.569   3.435
18953TIP3    H256737   4.152   8.575   3.344
18954TIP3   OH256738   0.605   7.024   5.936
18954TIP3    H156739   0.615   7.025   6.031
18954TIP3    H256740   0.532   7.084   5.919
18955TIP3   OH256741   8.123   6.147   7.227
18955TIP3    H156742   8.051   6.209   7.212
18955TIP3    H256743   8.079   6.064   7.243
18956TIP3   OH256744   9.112   8.215   4.334
18956TIP3    H156745   9.199   8.239   4.366
18956TIP3    H256746   9.076   8.297   4.300
18957TIP3   OH256747   1.255   2.551   2.877
18957TIP3    H156748   1.228   2.600   2.799
18957TIP3    H256749   1.279   2.618   2.940
18958TIP3   OH256750   9.012   8.147   2.436
18958TIP3    H156751   9.071   8.167   2.509
18958TIP3    H256752   8.951   8.083   2.472
18959TIP3   OH256753   3.475   2.616   0.119
18959TIP3    H156754   3.389   2.648   0.145
18959TIP3    H256755   3.478   2.626   0.024
18960TIP3   OH256756   3.774   3.133   7.548
18960TIP3    H156757   3.767   3.126   7.644
18960TIP3    H256758   3.866   3.154   7.533
18961TIP3   OH256759   7.280   6.397   3.414
18961TIP3    H156760   7.304   6.459   3.483
18961TIP3    H256761   7.362   6.352   3.393
18962TIP3   OH256762   6.443   8.076   3.560
18962TIP3    H156763   6.483   7.991   3.538
18962TIP3    H256764   6.501   8.140   3.519
18963TIP3   OH256765   7.613   3.067   7.351
18963TIP3    H156766   7.592   3.015   7.274
18963TIP3    H256767   7.685   3.020   7.393
18964TIP3   OH256768   9.234   9.011   3.045
18964TIP3    H156769   9.191   8.934   3.082
18964TIP3    H256770   9.163   9.062   3.005
18965TIP3   OH256771   4.032   1.355   3.563
18965TIP3    H156772   3.976   1.423   3.525
18965TIP3    H256773   4.119   1.372   3.528
18966TIP3   OH256774   1.728   0.655   1.612
18966TIP3    H156775   1.811   0.607   1.612
18966TIP3    H256776   1.661   0.587   1.617
18967TIP3   OH256777   2.918   5.992   6.224
18967TIP3    H156778   2.887   5.901   6.220
18967TIP3    H256779   2.862   6.039   6.162
18968TIP3   OH256780   0.150   4.428   7.175
18968TIP3    H156781   0.169   4.424   7.269
18968TIP3    H256782   0.099   4.350   7.157
18969TIP3   OH256783   0.548   5.910   7.436
18969TIP3    H156784   0.607   5.964   7.488
18969TIP3    H256785   0.486   5.874   7.500
18970TIP3   OH256786   1.771   4.977   6.333
18970TIP3    H156787   1.720   4.996   6.254
18970TIP3    H256788   1.705   4.954   6.399
18971TIP3   OH256789   0.827   7.793   3.067
18971TIP3    H156790   0.776   7.842   3.132
18971TIP3    H256791   0.764   7.731   3.029
18972TIP3   OH256792   5.967   2.151   2.270
18972TIP3    H156793   5.923   2.079   2.317
18972TIP3    H256794   5.895   2.207   2.241
18973TIP3   OH256795   6.107   1.250   1.281
18973TIP3    H156796   6.188   1.274   1.327
18973TIP3    H256797   6.055   1.330   1.282
18974TIP3   OH256798   5.519   1.030   3.144
18974TIP3    H156799   5.424   1.032   3.156
18974TIP3    H256800   5.537   0.945   3.104
18975TIP3   OH256801   3.637   5.750   3.416
18975TIP3    H156802   3.716   5.801   3.397
18975TIP3    H256803   3.565   5.813   3.405
18976TIP3   OH256804   8.381   0.344   3.099
18976TIP3    H156805   8.319   0.397   3.049
18976TIP3    H256806   8.432   0.408   3.149
18977TIP3   OH256807   0.160   4.473   2.031
18977TIP3    H156808   0.207   4.392   2.055
18977TIP3    H256809   0.120   4.453   1.947
18978TIP3   OH256810   6.367   5.724   0.035
18978TIP3    H156811   6.383   5.633   0.058
18978TIP3    H256812   6.436   5.746  -0.027
18979TIP3   OH256813   7.142   3.626   5.142
18979TIP3    H156814   7.098   3.543   5.125
18979TIP3    H256815   7.128   3.677   5.063
18980TIP3   OH256816   6.126   8.960   0.900
18980TIP3    H156817   6.129   9.022   0.827
18980TIP3    H256818   6.130   9.015   0.979
18981TIP3   OH256819   5.970   5.092   3.670
18981TIP3    H156820   5.906   5.113   3.603
18981TIP3    H256821   6.020   5.172   3.683
18982TIP3   OH256822   6.700   1.557   4.806
18982TIP3    H156823   6.659   1.496   4.868
18982TIP3    H256824   6.627   1.593   4.756
18983TIP3   OH256825   7.169   2.048   2.721
18983TIP3    H156826   7.218   1.988   2.777
18983TIP3    H256827   7.157   2.127   2.774
18984TIP3   OH256828   4.600   8.319   5.710
18984TIP3    H156829   4.636   8.235   5.738
18984TIP3    H256830   4.544   8.299   5.635
18985TIP3   OH256831   6.912   1.231   1.281
18985TIP3    H156832   6.883   1.153   1.330
18985TIP3    H256833   7.000   1.249   1.315
18986TIP3   OH256834   4.351   8.914   4.240
18986TIP3    H156835   4.274   8.864   4.267
18986TIP3    H256836   4.376   8.964   4.317
18987TIP3   OH256837   5.013   3.406   7.578
18987TIP3    H156838   5.000   3.315   7.606
18987TIP3    H256839   4.929   3.431   7.540
18988TIP3   OH256840   8.877   7.061   0.842
18988TIP3    H156841   8.909   6.992   0.784
18988TIP3    H256842   8.947   7.071   0.907
18989TIP3   OH256843   5.350   4.131   7.422
18989TIP3    H156844   5.371   4.066   7.489
18989TIP3    H256845   5.354   4.083   7.340
18990TIP3   OH256846   6.276   2.346   3.383
18990TIP3    H156847   6.207   2.335   3.318
18990TIP3    H256848   6.230   2.362   3.465
18991TIP3   OH256849   8.018   8.910   3.446
18991TIP3    H156850   8.062   8.826   3.437
18991TIP3    H256851   8.014   8.945   3.357
18992TIP3   OH256852   2.581   3.418   0.509
18992TIP3    H156853   2.655   3.476   0.493
18992TIP3    H256854   2.505   3.476   0.505
18993TIP3   OH256855   1.593   3.060   1.223
18993TIP3    H156856   1.608   3.149   1.256
18993TIP3    H256857   1.560   3.073   1.134
18994TIP3   OH256858   0.886   8.174   1.102
18994TIP3    H156859   0.918   8.132   1.022
18994TIP3    H256860   0.904   8.267   1.089
18995TIP3   OH256861   5.617   1.426   3.236
18995TIP3    H156862   5.691   1.366   3.223
18995TIP3    H256863   5.564   1.382   3.303
18996TIP3   OH256864   7.722   3.391   3.075
18996TIP3    H156865   7.680   3.425   2.996
18996TIP3    H256866   7.650   3.375   3.135
18997TIP3   OH256867   3.845   3.698   1.022
18997TIP3    H156868   3.886   3.624   0.979
18997TIP3    H256869   3.890   3.775   0.987
18998TIP3   OH256870   8.525   3.343   1.785
18998TIP3    H156871   8.514   3.370   1.876
18998TIP3    H256872   8.533   3.425   1.737
18999TIP3   OH256873   3.043   2.256   0.222
18999TIP3    H156874   3.058   2.162   0.215
18999TIP3    H256875   3.069   2.291   0.136
19000TIP3   OH256876   1.399   5.123   1.701
19000TIP3    H156877   1.375   5.209   1.735
19000TIP3    H256878   1.485   5.137   1.661
19001TIP3   OH256879   9.373   1.489   4.394
19001TIP3    H156880   9.414   1.443   4.468
19001TIP3    H256881   9.281   1.496   4.418
19002TIP3   OH256882   6.661   0.572   1.261
19002TIP3    H156883   6.566   0.570   1.268
19002TIP3    H256884   6.692   0.575   1.351
19003TIP3   OH256885   7.671   6.972   3.029
19003TIP3    H156886   7.714   7.030   3.091
19003TIP3    H256887   7.742   6.922   2.989
19004TIP3   OH256888   7.786   7.467   1.402
19004TIP3    H156889   7.749   7.449   1.488
19004TIP3    H256890   7.827   7.384   1.375
19005TIP3   OH256891   8.275   1.390   3.380
19005TIP3    H156892   8.329   1.341   3.318
19005TIP3    H256893   8.201   1.332   3.399
19006TIP3   OH256894   8.395   0.312   4.740
19006TIP3    H156895   8.364   0.347   4.823
19006TIP3    H256896   8.450   0.380   4.703
19007TIP3   OH256897   1.222   6.446   6.163
19007TIP3    H156898   1.136   6.417   6.195
19007TIP3    H256899   1.201   6.517   6.102
19008TIP3   OH256900   1.726   1.893   0.234
19008TIP3    H156901   1.747   1.904   0.326
19008TIP3    H256902   1.763   1.808   0.211
19009TIP3   OH256903   2.090   7.604   6.007
19009TIP3    H156904   2.058   7.677   5.954
19009TIP3    H256905   2.086   7.529   5.948
19010TIP3   OH256906   1.794   7.010   6.714
19010TIP3    H156907   1.750   6.938   6.669
19010TIP3    H256908   1.883   6.977   6.729
19011TIP3   OH256909   7.516   2.237   6.078
19011TIP3    H156910   7.445   2.213   6.019
19011TIP3    H256911   7.500   2.186   6.157
19012TIP3   OH256912   5.499   2.587   5.084
19012TIP3    H156913   5.508   2.605   4.990
19012TIP3    H256914   5.537   2.500   5.096
19013TIP3   OH256915   1.807   0.824   4.250
19013TIP3    H156916   1.885   0.786   4.291
19013TIP3    H256917   1.840   0.902   4.205
19014TIP3   OH256918   0.501   5.655   1.814
19014TIP3    H156919   0.480   5.574   1.767
19014TIP3    H256920   0.416   5.697   1.828
19015TIP3   OH256921   4.143   5.747   6.440
19015TIP3    H156922   4.144   5.652   6.427
19015TIP3    H256923   4.234   5.769   6.458
19016TIP3   OH256924   5.728   1.025   0.115
19016TIP3    H156925   5.674   1.078   0.174
19016TIP3    H256926   5.713   0.934   0.144
19017TIP3   OH256927   0.635   4.115   2.961
19017TIP3    H156928   0.646   4.173   2.886
19017TIP3    H256929   0.542   4.120   2.982
19018TIP3   OH256930   3.891   1.058   6.546
19018TIP3    H156931   3.963   1.001   6.519
19018TIP3    H256932   3.856   1.017   6.625
19019TIP3   OH256933   2.846   2.747   2.029
19019TIP3    H156934   2.880   2.791   1.951
19019TIP3    H256935   2.875   2.801   2.102
19020TIP3   OH256936   1.494   2.726   6.451
19020TIP3    H156937   1.521   2.655   6.394
19020TIP3    H256938   1.554   2.798   6.430
19021TIP3   OH256939   0.805   3.026   6.644
19021TIP3    H156940   0.754   3.089   6.593
19021TIP3    H256941   0.881   3.076   6.675
19022TIP3   OH256942   2.214   6.042   4.209
19022TIP3    H156943   2.123   6.013   4.212
19022TIP3    H256944   2.262   5.972   4.166
19023TIP3   OH256945   1.263   2.472   4.705
19023TIP3    H156946   1.292   2.555   4.669
19023TIP3    H256947   1.202   2.495   4.775
19024TIP3   OH256948   5.071   6.257   1.104
19024TIP3    H156949   4.982   6.264   1.069
19024TIP3    H256950   5.102   6.172   1.074
19025TIP3   OH256951   2.500   2.028   3.640
19025TIP3    H156952   2.555   1.964   3.596
19025TIP3    H256953   2.558   2.103   3.656
19026TIP3   OH256954   3.108   0.263   5.291
19026TIP3    H156955   3.171   0.325   5.329
19026TIP3    H256956   3.123   0.182   5.340
19027TIP3   OH256957   7.476   4.159   1.077
19027TIP3    H156958   7.384   4.178   1.064
19027TIP3    H256959   7.477   4.075   1.124
19028TIP3   OH256960   6.967   7.122   7.443
19028TIP3    H156961   6.909   7.069   7.389
19028TIP3    H256962   6.937   7.212   7.431
19029TIP3   OH256963   3.505   2.915   1.384
19029TIP3    H156964   3.546   2.845   1.435
19029TIP3    H256965   3.534   2.996   1.427
19030TIP3   OH256966   6.783   2.823   3.174
19030TIP3    H156967   6.816   2.843   3.086
19030TIP3    H256968   6.709   2.764   3.159
19031TIP3   OH256969   2.391   0.103   4.099
19031TIP3    H156970   2.470   0.097   4.045
19031TIP3    H256971   2.322   0.063   4.046
19032TIP3   OH256972   8.815   3.649   2.572
19032TIP3    H156973   8.762   3.691   2.639
19032TIP3    H256974   8.808   3.707   2.496
19033TIP3   OH256975   7.614   3.425   1.586
19033TIP3    H156976   7.582   3.483   1.517
19033TIP3    H256977   7.706   3.449   1.596
19034TIP3   OH256978   3.699   6.434   3.387
19034TIP3    H156979   3.668   6.435   3.478
19034TIP3    H256980   3.639   6.374   3.343
19035TIP3   OH256981   0.104   2.336   2.770
19035TIP3    H156982   0.182   2.282   2.758
19035TIP3    H256983   0.068   2.308   2.854
19036TIP3   OH256984   1.329   0.718   4.835
19036TIP3    H156985   1.377   0.705   4.754
19036TIP3    H256986   1.307   0.811   4.834
19037TIP3   OH256987   1.433   8.571   4.516
19037TIP3    H156988   1.385   8.648   4.547
19037TIP3    H256989   1.521   8.603   4.496
19038TIP3   OH256990   8.219   8.930   0.006
19038TIP3    H156991   8.288   8.865  -0.007
19038TIP3    H256992   8.192   8.919   0.098
19039TIP3   OH256993   7.218   2.779   5.736
19039TIP3    H156994   7.281   2.735   5.792
19039TIP3    H256995   7.146   2.802   5.796
19040TIP3   OH256996   7.160   8.990   3.377
19040TIP3    H156997   7.147   8.984   3.471
19040TIP3    H256998   7.146   8.901   3.344
19041TIP3   OH256999   3.090   1.070   0.145
19041TIP3    H157000   3.141   1.145   0.176
19041TIP3    H257001   3.063   1.025   0.224
19042TIP3   OH257002   3.761   4.419   1.199
19042TIP3    H157003   3.750   4.405   1.105
19042TIP3    H257004   3.845   4.464   1.207
19043TIP3   OH257005   6.104   5.642   3.490
19043TIP3    H157006   6.192   5.635   3.527
19043TIP3    H257007   6.113   5.610   3.400
19044TIP3   OH257008   3.785   4.257   2.157
19044TIP3    H157009   3.748   4.306   2.231
19044TIP3    H257010   3.878   4.248   2.178
19045TIP3   OH257011   5.727   1.356   1.464
19045TIP3    H157012   5.676   1.308   1.529
19045TIP3    H257013   5.772   1.424   1.514
19046TIP3   OH257014   5.232   4.409   5.414
19046TIP3    H157015   5.325   4.428   5.427
19046TIP3    H257016   5.189   4.494   5.424
19047TIP3   OH257017   6.712   7.947   1.948
19047TIP3    H157018   6.676   7.884   1.886
19047TIP3    H257019   6.736   8.023   1.894
19048TIP3   OH257020   4.225   3.291   7.418
19048TIP3    H157021   4.142   3.259   7.383
19048TIP3    H257022   4.214   3.288   7.513
19049TIP3   OH257023   8.903   8.071   2.176
19049TIP3    H157024   8.900   8.078   2.081
19049TIP3    H257025   8.951   8.149   2.205
19050TIP3   OH257026   6.475   5.082   0.089
19050TIP3    H157027   6.384   5.057   0.100
19050TIP3    H257028   6.501   5.044   0.005
19051TIP3   OH257029   0.376   4.254   3.215
19051TIP3    H157030   0.467   4.264   3.241
19051TIP3    H257031   0.377   4.189   3.145
19052TIP3   OH257032   6.258   8.760   5.089
19052TIP3    H157033   6.272   8.669   5.114
19052TIP3    H257034   6.323   8.778   5.021
19053TIP3   OH257035   0.680   4.543   0.264
19053TIP3    H157036   0.587   4.566   0.270
19053TIP3    H257037   0.723   4.624   0.238
19054TIP3   OH257038   4.126   8.833   0.478
19054TIP3    H157039   4.100   8.876   0.396
19054TIP3    H257040   4.130   8.905   0.541
19055TIP3   OH257041   0.026   0.671   0.953
19055TIP3    H157042  -0.031   0.645   0.880
19055TIP3    H257043  -0.014   0.630   1.029
19056TIP3   OH257044   4.844   6.483   7.432
19056TIP3    H157045   4.895   6.546   7.484
19056TIP3    H257046   4.877   6.397   7.458
19057TIP3   OH257047   2.313   8.687   2.564
19057TIP3    H157048   2.394   8.728   2.536
19057TIP3    H257049   2.272   8.656   2.483
19058TIP3   OH257050   0.747   6.073   3.945
19058TIP3    H157051   0.749   5.997   3.886
19058TIP3    H257052   0.672   6.056   4.003
19059TIP3   OH257053   9.282   7.527   6.767
19059TIP3    H157054   9.191   7.557   6.764
19059TIP3    H257055   9.287   7.460   6.699
19060TIP3   OH257056   3.152   5.187   7.483
19060TIP3    H157057   3.210   5.224   7.417
19060TIP3    H257058   3.128   5.261   7.539
19061TIP3   OH257059   5.077   7.279   3.442
19061TIP3    H157060   5.002   7.237   3.484
19061TIP3    H257061   5.152   7.224   3.466
19062TIP3   OH257062   7.009   3.679   5.382
19062TIP3    H157063   7.043   3.667   5.293
19062TIP3    H257064   6.919   3.708   5.369
19063TIP3   OH257065   3.307   5.214   6.930
19063TIP3    H157066   3.263   5.151   6.987
19063TIP3    H257067   3.248   5.223   6.855
19064TIP3   OH257068   1.728   8.653   6.790
19064TIP3    H157069   1.641   8.693   6.784
19064TIP3    H257070   1.772   8.679   6.709
19065TIP3   OH257071   6.850   4.285   6.370
19065TIP3    H157072   6.860   4.204   6.421
19065TIP3    H257073   6.860   4.257   6.279
19066TIP3   OH257074   2.812   3.102   1.654
19066TIP3    H157075   2.791   3.136   1.741
19066TIP3    H257076   2.825   3.009   1.667
19067TIP3   OH257077   5.622   0.335   2.377
19067TIP3    H157078   5.650   0.426   2.387
19067TIP3    H257079   5.528   0.337   2.396
19068TIP3   OH257080   8.707   2.244   7.618
19068TIP3    H157081   8.623   2.217   7.582
19068TIP3    H257082   8.771   2.218   7.552
19069TIP3   OH257083   8.285   3.111   1.251
19069TIP3    H157084   8.267   3.041   1.188
19069TIP3    H257085   8.343   3.171   1.204
19070TIP3   OH257086   7.064   4.151   5.919
19070TIP3    H157087   7.132   4.215   5.897
19070TIP3    H257088   7.112   4.072   5.944
19071TIP3   OH257089   0.482   3.637   0.450
19071TIP3    H157090   0.433   3.609   0.528
19071TIP3    H257091   0.415   3.661   0.386
19072TIP3   OH257092   8.924   1.517   2.534
19072TIP3    H157093   8.831   1.533   2.552
19072TIP3    H257094   8.953   1.594   2.486
19073TIP3   OH257095   3.445   5.340   3.187
19073TIP3    H157096   3.435   5.432   3.213
19073TIP3    H257097   3.409   5.290   3.261
19074TIP3   OH257098   8.624   8.563   0.326
19074TIP3    H157099   8.546   8.596   0.281
19074TIP3    H257100   8.607   8.469   0.336
19075TIP3   OH257101   9.426   1.968   3.219
19075TIP3    H157102   9.383   1.957   3.134
19075TIP3    H257103   9.423   2.062   3.235
19076TIP3   OH257104   8.828   4.170   5.387
19076TIP3    H157105   8.899   4.232   5.405
19076TIP3    H257106   8.844   4.141   5.297
19077TIP3   OH257107   0.700   0.173   2.043
19077TIP3    H157108   0.616   0.128   2.040
19077TIP3    H257109   0.698   0.221   2.126
19078TIP3   OH257110   8.827   6.735   3.980
19078TIP3    H157111   8.823   6.780   3.896
19078TIP3    H257112   8.916   6.749   4.011
19079TIP3   OH257113   7.060   0.384   6.944
19079TIP3    H157114   6.996   0.394   6.874
19079TIP3    H257115   7.034   0.304   6.989
19080TIP3   OH257116   8.138   8.190   1.869
19080TIP3    H157117   8.050   8.178   1.834
19080TIP3    H257118   8.192   8.128   1.819
19081TIP3   OH257119   8.910   2.577   4.267
19081TIP3    H157120   8.899   2.485   4.241
19081TIP3    H257121   8.905   2.576   4.362
19082TIP3   OH257122   6.774   4.224   7.677
19082TIP3    H157123   6.851   4.245   7.624
19082TIP3    H257124   6.807   4.167   7.746
19083TIP3   OH257125   0.345   6.857   7.229
19083TIP3    H157126   0.440   6.844   7.229
19083TIP3    H257127   0.331   6.929   7.168
19084TIP3   OH257128   2.888   7.973   5.016
19084TIP3    H157129   2.802   7.973   5.058
19084TIP3    H257130   2.881   7.906   4.948
19085TIP3   OH257131   3.879   4.373   5.583
19085TIP3    H157132   3.809   4.428   5.617
19085TIP3    H257133   3.944   4.435   5.551
19086TIP3   OH257134   4.034   1.253   0.906
19086TIP3    H157135   3.977   1.181   0.879
19086TIP3    H257136   3.983   1.332   0.887
19087TIP3   OH257137   5.515   4.205   6.024
19087TIP3    H157138   5.548   4.278   5.973
19087TIP3    H257139   5.453   4.161   5.965
19088TIP3   OH257140   3.700   8.283   2.310
19088TIP3    H157141   3.686   8.248   2.223
19088TIP3    H257142   3.750   8.363   2.296
19089TIP3   OH257143   7.907   1.362   0.747
19089TIP3    H157144   7.877   1.348   0.836
19089TIP3    H257145   7.838   1.325   0.692
19090TIP3   OH257146   1.858   1.272   2.847
19090TIP3    H157147   1.802   1.194   2.844
19090TIP3    H257148   1.947   1.237   2.850
19091TIP3   OH257149   3.833   7.557   0.028
19091TIP3    H157150   3.859   7.649   0.029
19091TIP3    H257151   3.751   7.554   0.077
19092TIP3   OH257152   6.844   5.796   4.916
19092TIP3    H157153   6.898   5.852   4.972
19092TIP3    H257154   6.877   5.708   4.931
19093TIP3   OH257155   5.606   4.346   6.301
19093TIP3    H157156   5.642   4.285   6.236
19093TIP3    H257157   5.519   4.311   6.320
19094TIP3   OH257158   3.815   4.946   1.898
19094TIP3    H157159   3.838   4.892   1.973
19094TIP3    H257160   3.898   4.964   1.854
19095TIP3   OH257161   8.612   5.198   1.031
19095TIP3    H157162   8.649   5.118   0.994
19095TIP3    H257163   8.684   5.236   1.082
19096TIP3   OH257164   8.966   0.094   4.616
19096TIP3    H157165   8.985   0.019   4.673
19096TIP3    H257166   8.893   0.065   4.562
19097TIP3   OH257167   0.099   7.874   6.039
19097TIP3    H157168   0.048   7.817   6.097
19097TIP3    H257169   0.179   7.825   6.022
19098TIP3   OH257170   4.663   3.750   7.003
19098TIP3    H157171   4.695   3.782   6.918
19098TIP3    H257172   4.709   3.667   7.016
19099TIP3   OH257173   3.654   8.631   5.865
19099TIP3    H157174   3.610   8.604   5.946
19099TIP3    H257175   3.747   8.631   5.888
19100TIP3   OH257176   2.169   5.131   0.356
19100TIP3    H157177   2.126   5.196   0.412
19100TIP3    H257178   2.204   5.182   0.283
19101TIP3   OH257179   0.844   7.620   3.508
19101TIP3    H157180   0.842   7.535   3.552
19101TIP3    H257181   0.759   7.627   3.465
19102TIP3   OH257182   7.578   0.688   0.705
19102TIP3    H157183   7.538   0.730   0.782
19102TIP3    H257184   7.588   0.759   0.642
19103TIP3   OH257185   1.671   5.309   1.800
19103TIP3    H157186   1.760   5.301   1.833
19103TIP3    H257187   1.681   5.326   1.706
19104TIP3   OH257188   4.989   8.917   1.263
19104TIP3    H157189   4.910   8.956   1.226
19104TIP3    H257190   4.968   8.824   1.274
19105TIP3   OH257191   2.380   3.051   7.594
19105TIP3    H157192   2.303   3.107   7.604
19105TIP3    H257193   2.449   3.112   7.567
19106TIP3   OH257194   7.428   6.775   4.105
19106TIP3    H157195   7.430   6.826   4.186
19106TIP3    H257196   7.348   6.802   4.061
19107TIP3   OH257197   4.250   2.750   2.975
19107TIP3    H157198   4.177   2.796   2.933
19107TIP3    H257199   4.213   2.666   3.002
19108TIP3   OH257200   2.173   6.478   1.312
19108TIP3    H157201   2.123   6.557   1.335
19108TIP3    H257202   2.262   6.496   1.344
19109TIP3   OH257203   9.551   8.481   1.001
19109TIP3    H157204   9.597   8.544   1.056
19109TIP3    H257205   9.538   8.527   0.918
19110TIP3   OH257206   0.258   2.337   4.280
19110TIP3    H157207   0.303   2.285   4.213
19110TIP3    H257208   0.212   2.272   4.333
19111TIP3   OH257209   3.011   5.676   6.702
19111TIP3    H157210   3.017   5.626   6.783
19111TIP3    H257211   2.956   5.751   6.724
19112TIP3   OH257212   1.085   3.311   6.287
19112TIP3    H157213   0.997   3.272   6.286
19112TIP3    H257214   1.070   3.405   6.279
19113TIP3   OH257215   1.571   6.560   3.551
19113TIP3    H157216   1.594   6.514   3.632
19113TIP3    H257217   1.505   6.505   3.510
19114TIP3   OH257218   0.438   3.050   4.351
19114TIP3    H157219   0.356   3.056   4.302
19114TIP3    H257220   0.434   2.964   4.393
19115TIP3   OH257221   9.375   6.641   2.901
19115TIP3    H157222   9.362   6.588   2.822
19115TIP3    H257223   9.466   6.624   2.926
19116TIP3   OH257224   8.495   8.361   0.717
19116TIP3    H157225   8.485   8.314   0.634
19116TIP3    H257226   8.406   8.375   0.748
19117TIP3   OH257227   4.428   7.561   3.539
19117TIP3    H157228   4.473   7.548   3.622
19117TIP3    H257229   4.424   7.656   3.529
19118TIP3   OH257230   4.587   5.583   6.396
19118TIP3    H157231   4.638   5.521   6.344
19118TIP3    H257232   4.549   5.643   6.332
19119TIP3   OH257233   7.755   9.015   4.170
19119TIP3    H157234   7.752   9.007   4.265
19119TIP3    H257235   7.684   8.958   4.139
19120TIP3   OH257236   8.629   3.005   6.175
19120TIP3    H157237   8.670   2.965   6.098
19120TIP3    H257238   8.703   3.036   6.227
19121TIP3   OH257239   6.895   2.163   7.502
19121TIP3    H157240   6.950   2.164   7.423
19121TIP3    H257241   6.935   2.227   7.560
19122TIP3   OH257242   5.160   1.288   4.223
19122TIP3    H157243   5.205   1.206   4.246
19122TIP3    H257244   5.157   1.288   4.128
19123TIP3   OH257245   7.766   4.235   6.149
19123TIP3    H157246   7.852   4.253   6.188
19123TIP3    H257247   7.703   4.274   6.209
19124TIP3   OH257248   1.591   2.582   2.581
19124TIP3    H157249   1.576   2.626   2.665
19124TIP3    H257250   1.639   2.502   2.604
19125TIP3   OH257251   6.595   1.262   7.669
19125TIP3    H157252   6.593   1.167   7.654
19125TIP3    H257253   6.521   1.296   7.619
19126TIP3   OH257254   7.386   0.352   2.507
19126TIP3    H157255   7.374   0.364   2.413
19126TIP3    H257256   7.346   0.429   2.546
19127TIP3   OH257257   4.790   3.847   5.810
19127TIP3    H157258   4.777   3.937   5.840
19127TIP3    H257259   4.833   3.856   5.725
19128TIP3   OH257260   9.289   2.608   0.740
19128TIP3    H157261   9.357   2.551   0.704
19128TIP3    H257262   9.336   2.684   0.774
19129TIP3   OH257263   2.075   4.608   0.332
19129TIP3    H157264   2.087   4.519   0.297
19129TIP3    H257265   1.982   4.613   0.351
19130TIP3   OH257266   7.798   6.200   2.983
19130TIP3    H157267   7.820   6.143   3.056
19130TIP3    H257268   7.744   6.145   2.926
19131TIP3   OH257269   7.929   2.376   0.072
19131TIP3    H157270   7.984   2.298   0.071
19131TIP3    H257271   7.862   2.360   0.006
19132TIP3   OH257272   0.239   4.677   1.438
19132TIP3    H157273   0.163   4.681   1.496
19132TIP3    H257274   0.273   4.589   1.450
19133TIP3   OH257275   2.513   2.291   1.162
19133TIP3    H157276   2.551   2.229   1.101
19133TIP3    H257277   2.589   2.329   1.208
19134TIP3   OH257278   6.443   4.988   4.863
19134TIP3    H157279   6.473   4.902   4.834
19134TIP3    H257280   6.383   5.018   4.795
19135TIP3   OH257281   0.586   8.772   2.870
19135TIP3    H157282   0.609   8.796   2.959
19135TIP3    H257283   0.646   8.821   2.815
19136TIP3   OH257284   4.219   5.109   7.379
19136TIP3    H157285   4.167   5.141   7.305
19136TIP3    H257286   4.164   5.041   7.418
19137TIP3   OH257287   1.244   8.096   1.981
19137TIP3    H157288   1.254   8.137   2.067
19137TIP3    H257289   1.150   8.080   1.972
19138TIP3   OH257290   9.410   2.400   0.231
19138TIP3    H157291   9.332   2.416   0.284
19138TIP3    H257292   9.451   2.486   0.222
19139TIP3   OH257293   8.093   1.405   1.555
19139TIP3    H157294   8.126   1.478   1.503
19139TIP3    H257295   8.045   1.447   1.626
19140TIP3   OH257296   8.217   4.672   1.755
19140TIP3    H157297   8.245   4.685   1.664
19140TIP3    H257298   8.147   4.736   1.768
19141TIP3   OH257299   4.154   2.167   4.363
19141TIP3    H157300   4.103   2.231   4.413
19141TIP3    H257301   4.091   2.127   4.304
19142TIP3   OH257302   4.735   6.301   3.605
19142TIP3    H157303   4.672   6.265   3.542
19142TIP3    H257304   4.727   6.395   3.597
19143TIP3   OH257305   0.146   0.493   2.151
19143TIP3    H157306   0.106   0.507   2.237
19143TIP3    H257307   0.181   0.404   2.155
19144TIP3   OH257308   5.312   2.048   0.230
19144TIP3    H157309   5.305   2.025   0.137
19144TIP3    H257310   5.400   2.020   0.256
19145TIP3   OH257311   5.187   8.702   4.225
19145TIP3    H157312   5.103   8.693   4.180
19145TIP3    H257313   5.185   8.790   4.261
19146TIP3   OH257314   0.817   4.188   1.299
19146TIP3    H157315   0.765   4.196   1.219
19146TIP3    H257316   0.857   4.101   1.293
19147TIP3   OH257317   1.778   3.142   6.164
19147TIP3    H157318   1.791   3.228   6.204
19147TIP3    H257319   1.769   3.082   6.239
19148TIP3   OH257320   4.138   4.421   5.355
19148TIP3    H157321   4.138   4.336   5.399
19148TIP3    H257322   4.217   4.464   5.387
19149TIP3   OH257323   2.473   4.739   4.691
19149TIP3    H157324   2.386   4.734   4.653
19149TIP3    H257325   2.527   4.780   4.624
19150TIP3   OH257326   1.619   0.585   0.677
19150TIP3    H157327   1.663   0.532   0.611
19150TIP3    H257328   1.528   0.591   0.648
19151TIP3   OH257329   7.223   1.900   0.962
19151TIP3    H157330   7.140   1.904   1.008
19151TIP3    H257331   7.276   1.838   1.012
19152TIP3   OH257332   1.134   5.474   2.226
19152TIP3    H157333   1.058   5.422   2.255
19152TIP3    H257334   1.202   5.454   2.290
19153TIP3   OH257335   6.969   8.605   2.946
19153TIP3    H157336   7.017   8.643   3.020
19153TIP3    H257337   7.024   8.533   2.916
19154TIP3   OH257338   3.127   1.369   6.912
19154TIP3    H157339   3.164   1.287   6.945
19154TIP3    H257340   3.146   1.367   6.818
19155TIP3   OH257341   1.859   0.318   5.609
19155TIP3    H157342   1.955   0.319   5.608
19155TIP3    H257343   1.835   0.306   5.517
19156TIP3   OH257344   0.565   8.735   2.111
19156TIP3    H157345   0.655   8.767   2.104
19156TIP3    H257346   0.569   8.646   2.076
19157TIP3   OH257347   1.984   7.497   3.592
19157TIP3    H157348   1.920   7.566   3.610
19157TIP3    H257349   2.052   7.510   3.658
19158TIP3   OH257350   3.405   3.259   2.676
19158TIP3    H157351   3.390   3.249   2.582
19158TIP3    H257352   3.413   3.354   2.689
19159TIP3   OH257353   2.127   0.920   4.301
19159TIP3    H157354   2.103   1.012   4.313
19159TIP3    H257355   2.212   0.922   4.259
19160TIP3   OH257356   2.439   8.532   0.735
19160TIP3    H157357   2.514   8.532   0.795
19160TIP3    H257358   2.479   8.541   0.648
19161TIP3   OH257359   6.789   7.966   0.588
19161TIP3    H157360   6.854   7.920   0.642
19161TIP3    H257361   6.745   7.896   0.540
19162TIP3   OH257362   7.194   4.728   5.770
19162TIP3    H157363   7.167   4.636   5.779
19162TIP3    H257364   7.135   4.764   5.704
19163TIP3   OH257365   2.075   1.472   3.210
19163TIP3    H157366   2.147   1.472   3.147
19163TIP3    H257367   2.071   1.562   3.243
19164TIP3   OH257368   7.551   7.036   1.844
19164TIP3    H157369   7.560   7.060   1.937
19164TIP3    H257370   7.457   7.042   1.827
19165TIP3   OH257371   8.042   4.006   2.465
19165TIP3    H157372   8.041   4.076   2.400
19165TIP3    H257373   7.960   3.959   2.450
19166TIP3   OH257374   3.466   5.424   4.701
19166TIP3    H157375   3.510   5.458   4.779
19166TIP3    H257376   3.476   5.494   4.636
19167TIP3   OH257377   6.439   1.075   5.943
19167TIP3    H157378   6.450   1.139   6.013
19167TIP3    H257379   6.517   1.019   5.950
19168TIP3   OH257380   2.443   6.868   7.018
19168TIP3    H157381   2.487   6.801   6.966
19168TIP3    H257382   2.487   6.865   7.103
19169TIP3   OH257383   0.442   8.680   4.541
19169TIP3    H157384   0.360   8.705   4.499
19169TIP3    H257385   0.447   8.737   4.618
19170TIP3   OH257386   8.392   2.683   3.442
19170TIP3    H157387   8.483   2.691   3.415
19170TIP3    H257388   8.342   2.720   3.370
19171TIP3   OH257389   6.276   1.040   7.575
19171TIP3    H157390   6.206   1.095   7.611
19171TIP3    H257391   6.269   1.053   7.480
19172TIP3   OH257392   5.863   0.236   6.087
19172TIP3    H157393   5.794   0.275   6.141
19172TIP3    H257394   5.879   0.300   6.018
19173TIP3   OH257395   8.925   2.151   5.090
19173TIP3    H157396   8.849   2.111   5.132
19173TIP3    H257397   8.962   2.080   5.037
19174TIP3   OH257398   7.960   7.322   7.466
19174TIP3    H157399   8.035   7.381   7.476
19174TIP3    H257400   7.978   7.272   7.387
19175TIP3   OH257401   8.602   5.639   4.554
19175TIP3    H157402   8.544   5.682   4.617
19175TIP3    H257403   8.676   5.610   4.607
19176TIP3   OH257404   4.095   1.239   0.133
19176TIP3    H157405   4.059   1.226   0.221
19176TIP3    H257406   4.188   1.256   0.147
19177TIP3   OH257407   4.756   4.994   5.951
19177TIP3    H157408   4.725   5.084   5.941
19177TIP3    H257409   4.813   4.998   6.028
19178TIP3   OH257410   6.119   1.083   2.883
19178TIP3    H157411   6.145   1.129   2.803
19178TIP3    H257412   6.082   1.152   2.939
19179TIP3   OH257413   1.898   1.076   3.398
19179TIP3    H157414   1.952   1.149   3.428
19179TIP3    H257415   1.895   1.086   3.303
19180TIP3   OH257416   5.700   3.184   6.596
19180TIP3    H157417   5.794   3.180   6.612
19180TIP3    H257418   5.665   3.107   6.641
19181TIP3   OH257419   2.902   2.634   5.345
19181TIP3    H157420   2.812   2.621   5.375
19181TIP3    H257421   2.913   2.572   5.273
19182TIP3   OH257422   2.474   8.669   6.952
19182TIP3    H157423   2.557   8.709   6.926
19182TIP3    H257424   2.414   8.690   6.880
19183TIP3   OH257425   2.982   0.949   1.831
19183TIP3    H157426   2.952   1.004   1.903
19183TIP3    H257427   3.009   0.867   1.872
19184TIP3   OH257428   8.067   7.038   4.064
19184TIP3    H157429   8.063   7.076   4.152
19184TIP3    H257430   8.124   6.962   4.073
19185TIP3   OH257431   7.197   5.612   6.241
19185TIP3    H157432   7.183   5.561   6.321
19185TIP3    H257433   7.281   5.657   6.256
19186TIP3   OH257434   5.994   5.677   2.818
19186TIP3    H157435   6.049   5.606   2.849
19186TIP3    H257436   5.945   5.640   2.745
19187TIP3   OH257437   2.476   8.268   7.665
19187TIP3    H157438   2.431   8.311   7.592
19187TIP3    H257439   2.438   8.181   7.668
19188TIP3   OH257440   1.535   3.712   3.285
19188TIP3    H157441   1.542   3.743   3.375
19188TIP3    H257442   1.455   3.751   3.251
19189TIP3   OH257443   1.254   8.967   4.626
19189TIP3    H157444   1.247   9.004   4.538
19189TIP3    H257445   1.298   8.883   4.613
19190TIP3   OH257446   0.691   3.471   0.369
19190TIP3    H157447   0.617   3.531   0.362
19190TIP3    H257448   0.679   3.428   0.454
19191TIP3   OH257449   2.864   5.714   3.317
19191TIP3    H157450   2.858   5.707   3.412
19191TIP3    H257451   2.785   5.669   3.285
19192TIP3   OH257452   4.820   5.054   1.700
19192TIP3    H157453   4.772   5.021   1.776
19192TIP3    H257454   4.882   4.984   1.680
19193TIP3   OH257455   0.694   3.665   2.051
19193TIP3    H157456   0.625   3.651   2.116
19193TIP3    H257457   0.696   3.760   2.038
19194TIP3   OH257458   7.594   1.415   6.216
19194TIP3    H157459   7.546   1.485   6.171
19194TIP3    H257460   7.529   1.346   6.228
19195TIP3   OH257461   7.011   4.266   1.376
19195TIP3    H157462   7.087   4.208   1.386
19195TIP3    H257463   6.984   4.286   1.466
19196TIP3   OH257464   4.265   6.717   7.686
19196TIP3    H157465   4.302   6.758   7.764
19196TIP3    H257466   4.185   6.674   7.717
19197TIP3   OH257467   2.941   3.250   6.119
19197TIP3    H157468   3.015   3.199   6.085
19197TIP3    H257469   2.977   3.294   6.197
19198TIP3   OH257470   4.066   5.134   2.023
19198TIP3    H157471   4.055   5.130   2.118
19198TIP3    H257472   4.161   5.141   2.009
19199TIP3   OH257473   2.992   5.711   4.472
19199TIP3    H157474   2.938   5.767   4.527
19199TIP3    H257475   2.931   5.670   4.411
19200TIP3   OH257476   5.096   4.965   3.320
19200TIP3    H157477   5.179   4.971   3.271
19200TIP3    H257478   5.123   4.945   3.409
19201TIP3   OH257479   7.615   8.509   2.877
19201TIP3    H157480   7.603   8.443   2.945
19201TIP3    H257481   7.710   8.510   2.862
19202TIP3   OH257482   0.994   8.925   3.352
19202TIP3    H157483   1.026   8.910   3.441
19202TIP3    H257484   1.050   8.870   3.297
19203TIP3   OH257485   5.388   4.006   1.632
19203TIP3    H157486   5.294   4.018   1.627
19203TIP3    H257487   5.415   4.056   1.708
19204TIP3   OH257488   6.919   4.170   5.339
19204TIP3    H157489   6.951   4.210   5.258
19204TIP3    H257490   6.984   4.102   5.359
19205TIP3   OH257491   8.596   0.148   1.632
19205TIP3    H157492   8.636   0.121   1.715
19205TIP3    H257493   8.580   0.065   1.586
19206TIP3   OH257494   6.258   0.705   6.049
19206TIP3    H157495   6.291   0.730   6.136
19206TIP3    H257496   6.337   0.682   5.999
19207TIP3   OH257497   7.337   2.980   5.569
19207TIP3    H157498   7.303   3.065   5.597
19207TIP3    H257499   7.320   2.922   5.644
19208TIP3   OH257500   2.287   6.793   0.851
19208TIP3    H157501   2.329   6.837   0.924
19208TIP3    H257502   2.201   6.836   0.844
19209TIP3   OH257503   5.872   6.449   3.755
19209TIP3    H157504   5.807   6.481   3.818
19209TIP3    H257505   5.854   6.355   3.750
19210TIP3   OH257506   7.649   2.054   3.759
19210TIP3    H157507   7.672   2.102   3.679
19210TIP3    H257508   7.689   1.968   3.748
19211TIP3   OH257509   4.870   4.319   2.199
19211TIP3    H157510   4.909   4.402   2.226
19211TIP3    H257511   4.944   4.258   2.195
19212TIP3   OH257512   7.540   6.286   0.377
19212TIP3    H157513   7.565   6.305   0.467
19212TIP3    H257514   7.497   6.366   0.346
19213TIP3   OH257515   8.603   8.333   2.794
19213TIP3    H157516   8.645   8.350   2.878
19213TIP3    H257517   8.529   8.394   2.790
19214TIP3   OH257518   2.988   5.890   3.129
19214TIP3    H157519   2.912   5.942   3.105
19214TIP3    H257520   2.953   5.822   3.186
19215TIP3   OH257521   9.479   3.517   6.607
19215TIP3    H157522   9.396   3.469   6.615
19215TIP3    H257523   9.475   3.556   6.519
19216TIP3   OH257524   0.538   4.151   2.559
19216TIP3    H157525   0.588   4.071   2.543
19216TIP3    H257526   0.456   4.121   2.598
19217TIP3   OH257527   5.252   2.030   0.684
19217TIP3    H157528   5.239   2.001   0.775
19217TIP3    H257529   5.232   1.953   0.631
19218TIP3   OH257530   1.162   8.183   0.366
19218TIP3    H157531   1.095   8.214   0.426
19218TIP3    H257532   1.147   8.231   0.285
19219TIP3   OH257533   6.069   1.868   4.576
19219TIP3    H157534   6.087   1.778   4.551
19219TIP3    H257535   6.125   1.920   4.518
19220TIP3   OH257536   3.937   8.133   0.649
19220TIP3    H157537   3.887   8.106   0.572
19220TIP3    H257538   3.916   8.226   0.660
19221TIP3   OH257539   6.858   2.201   1.040
19221TIP3    H157540   6.808   2.238   0.967
19221TIP3    H257541   6.798   2.206   1.115
19222TIP3   OH257542   2.231   7.163   7.794
19222TIP3    H157543   2.143   7.145   7.827
19222TIP3    H257544   2.235   7.117   7.711
19223TIP3   OH257545   3.428   1.762   2.061
19223TIP3    H157546   3.498   1.771   2.126
19223TIP3    H257547   3.401   1.852   2.043
19224TIP3   OH257548   4.491   0.916   3.243
19224TIP3    H157549   4.417   0.900   3.184
19224TIP3    H257550   4.555   0.963   3.189
19225TIP3   OH257551   6.206   7.978   3.451
19225TIP3    H157552   6.287   7.986   3.501
19225TIP3    H257553   6.142   7.946   3.515
19226TIP3   OH257554   6.146   0.545   6.324
19226TIP3    H157555   6.062   0.582   6.299
19226TIP3    H257556   6.210   0.610   6.297
19227TIP3   OH257557   1.021   5.177   2.147
19227TIP3    H157558   1.079   5.169   2.223
19227TIP3    H257559   0.971   5.257   2.163
19228TIP3   OH257560   6.376   6.186   5.520
19228TIP3    H157561   6.327   6.121   5.471
19228TIP3    H257562   6.405   6.140   5.599
19229TIP3   OH257563   5.315   2.783   5.152
19229TIP3    H157564   5.240   2.755   5.203
19229TIP3    H257565   5.378   2.712   5.161
19230TIP3   OH257566   0.760   5.338   4.399
19230TIP3    H157567   0.771   5.432   4.387
19230TIP3    H257568   0.675   5.318   4.361
19231TIP3   OH257569   8.175   5.136   4.087
19231TIP3    H157570   8.100   5.102   4.037
19231TIP3    H257571   8.239   5.161   4.020
19232TIP3   OH257572   6.762   2.833   4.175
19232TIP3    H157573   6.858   2.829   4.169
19232TIP3    H257574   6.737   2.895   4.106
19233TIP3   OH257575   2.448   2.359   2.771
19233TIP3    H157576   2.463   2.271   2.736
19233TIP3    H257577   2.366   2.387   2.731
19234TIP3   OH257578   2.301   2.458   3.355
19234TIP3    H157579   2.219   2.478   3.311
19234TIP3    H257580   2.309   2.362   3.348
19235TIP3   OH257581   4.192   6.393   0.866
19235TIP3    H157582   4.121   6.453   0.886
19235TIP3    H257583   4.196   6.333   0.940
19236TIP3   OH257584   7.306   5.842   3.866
19236TIP3    H157585   7.293   5.931   3.898
19236TIP3    H257586   7.399   5.838   3.845
19237TIP3   OH257587   8.286   3.415   4.562
19237TIP3    H157588   8.335   3.346   4.516
19237TIP3    H257589   8.249   3.371   4.638
19238TIP3   OH257590   5.614   0.565   7.027
19238TIP3    H157591   5.582   0.504   6.961
19238TIP3    H257592   5.577   0.533   7.110
19239TIP3   OH257593   8.042   8.000   6.798
19239TIP3    H157594   8.060   8.094   6.790
19239TIP3    H257595   8.074   7.977   6.885
19240TIP3   OH257596   6.519   8.962   5.788
19240TIP3    H157597   6.453   9.007   5.735
19240TIP3    H257598   6.602   8.982   5.744
19241TIP3   OH257599   3.507   7.899   0.553
19241TIP3    H157600   3.475   7.881   0.465
19241TIP3    H257601   3.489   7.819   0.602
19242TIP3   OH257602   7.102   2.889   2.830
19242TIP3    H157603   7.067   2.890   2.741
19242TIP3    H257604   7.188   2.848   2.822
19243TIP3   OH257605   6.255   4.505   4.066
19243TIP3    H157606   6.316   4.558   4.117
19243TIP3    H257607   6.198   4.464   4.131
19244TIP3   OH257608   3.232   6.694   6.660
19244TIP3    H157609   3.252   6.787   6.673
19244TIP3    H257610   3.310   6.648   6.689
19245TIP3   OH257611   4.400   2.137   5.502
19245TIP3    H157612   4.347   2.058   5.498
19245TIP3    H257613   4.354   2.200   5.447
19246TIP3   OH257614   2.525   5.308   4.582
19246TIP3    H157615   2.609   5.325   4.624
19246TIP3    H257616   2.460   5.322   4.651
19247TIP3   OH257617   0.649   7.857   5.534
19247TIP3    H157618   0.604   7.841   5.616
19247TIP3    H257619   0.651   7.771   5.491
19248TIP3   OH257620   5.522   0.104   4.771
19248TIP3    H157621   5.573   0.158   4.709
19248TIP3    H257622   5.557   0.016   4.760
19249TIP3   OH257623   0.791   4.006   3.151
19249TIP3    H157624   0.780   3.914   3.125
19249TIP3    H257625   0.733   4.054   3.091
19250TIP3   OH257626   3.740   8.677   5.598
19250TIP3    H157627   3.716   8.656   5.688
19250TIP3    H257628   3.814   8.737   5.606
19251TIP3   OH257629   7.036   7.199   1.932
19251TIP3    H157630   6.964   7.208   1.994
19251TIP3    H257631   7.023   7.269   1.869
19252TIP3   OH257632   2.069   0.038   1.948
19252TIP3    H157633   2.156   0.070   1.972
19252TIP3    H257634   2.008   0.096   1.993
19253TIP3   OH257635   4.903   5.868   2.489
19253TIP3    H157636   4.976   5.860   2.551
19253TIP3    H257637   4.899   5.783   2.446
19254TIP3   OH257638   9.117   5.442   3.800
19254TIP3    H157639   9.047   5.381   3.775
19254TIP3    H257640   9.081   5.529   3.785
19255TIP3   OH257641   9.393   2.010   5.461
19255TIP3    H157642   9.458   1.970   5.519
19255TIP3    H257643   9.309   1.994   5.505
19256TIP3   OH257644   0.511   8.159   3.005
19256TIP3    H157645   0.531   8.234   3.060
19256TIP3    H257646   0.513   8.084   3.064
19257TIP3   OH257647   0.369   3.289   4.881
19257TIP3    H157648   0.274   3.287   4.870
19257TIP3    H257649   0.388   3.212   4.935
19258TIP3   OH257650   6.235   5.427   7.153
19258TIP3    H157651   6.256   5.441   7.061
19258TIP3    H257652   6.320   5.433   7.198
19259TIP3   OH257653   7.534   6.329   0.650
19259TIP3    H157654   7.443   6.319   0.679
19259TIP3    H257655   7.554   6.421   0.663
19260TIP3   OH257656   2.971   2.985   1.368
19260TIP3    H157657   2.980   2.959   1.460
19260TIP3    H257658   3.047   2.945   1.324
19261TIP3   OH257659   2.165   6.049   5.321
19261TIP3    H157660   2.104   5.983   5.289
19261TIP3    H257661   2.231   6.056   5.252
19262TIP3   OH257662   7.731   2.004   4.588
19262TIP3    H157663   7.744   2.050   4.505
19262TIP3    H257664   7.676   1.929   4.566
19263TIP3   OH257665   3.792   6.658   7.409
19263TIP3    H157666   3.862   6.607   7.369
19263TIP3    H257667   3.713   6.635   7.360
19264TIP3   OH257668   5.494   2.348   1.556
19264TIP3    H157669   5.498   2.280   1.623
19264TIP3    H257670   5.421   2.322   1.500
19265TIP3   OH257671   2.013   8.633   4.816
19265TIP3    H157672   2.082   8.596   4.871
19265TIP3    H257673   1.958   8.682   4.877
19266TIP3   OH257674   0.852   3.967   0.270
19266TIP3    H157675   0.886   3.921   0.347
19266TIP3    H257676   0.928   3.982   0.215
19267TIP3   OH257677   4.177   3.691   1.315
19267TIP3    H157678   4.213   3.651   1.395
19267TIP3    H257679   4.112   3.628   1.284
19268TIP3   OH257680   1.905   5.993   2.289
19268TIP3    H157681   1.882   6.030   2.373
19268TIP3    H257682   1.959   5.916   2.311
19269TIP3   OH257683   2.441   7.680   1.212
19269TIP3    H157684   2.501   7.731   1.267
19269TIP3    H257685   2.493   7.605   1.183
19270TIP3   OH257686   5.691   3.476   0.616
19270TIP3    H157687   5.634   3.520   0.554
19270TIP3    H257688   5.779   3.490   0.582
19271TIP3   OH257689   7.222   0.744   6.139
19271TIP3    H157690   7.236   0.839   6.136
19271TIP3    H257691   7.209   0.719   6.048
19272TIP3   OH257692   4.732   8.207   0.125
19272TIP3    H157693   4.677   8.195   0.047
19272TIP3    H257694   4.798   8.138   0.119
19273TIP3   OH257695   2.258   7.278   2.272
19273TIP3    H157696   2.193   7.344   2.246
19273TIP3    H257697   2.343   7.320   2.256
19274TIP3   OH257698   0.435   0.145   6.193
19274TIP3    H157699   0.510   0.100   6.153
19274TIP3    H257700   0.384   0.177   6.119
19275TIP3   OH257701   6.228   4.896   0.098
19275TIP3    H157702   6.135   4.896   0.075
19275TIP3    H257703   6.267   4.829   0.042
19276TIP3   OH257704   8.277   1.482   4.864
19276TIP3    H157705   8.270   1.388   4.850
19276TIP3    H257706   8.250   1.521   4.781
19277TIP3   OH257707   8.047   5.946   4.372
19277TIP3    H157708   8.037   5.966   4.278
19277TIP3    H257709   8.070   5.854   4.374
19278TIP3   OH257710   5.706   5.907   0.455
19278TIP3    H157711   5.702   5.864   0.540
19278TIP3    H257712   5.620   5.947   0.444
19279TIP3   OH257713   6.851   3.571   4.426
19279TIP3    H157714   6.894   3.639   4.478
19279TIP3    H257715   6.877   3.591   4.336
19280TIP3   OH257716   5.301   5.504   1.499
19280TIP3    H157717   5.347   5.587   1.482
19280TIP3    H257718   5.226   5.506   1.438
19281TIP3   OH257719   1.830   7.566   4.565
19281TIP3    H157720   1.882   7.609   4.633
19281TIP3    H257721   1.825   7.474   4.592
19282TIP3   OH257722   1.882   7.671   2.322
19282TIP3    H157723   1.950   7.674   2.254
19282TIP3    H257724   1.819   7.739   2.295
19283TIP3   OH257725   3.123   4.723   6.242
19283TIP3    H157726   3.196   4.745   6.300
19283TIP3    H257727   3.053   4.784   6.267
19284TIP3   OH257728   4.891   6.249   1.966
19284TIP3    H157729   4.842   6.199   2.031
19284TIP3    H257730   4.840   6.329   1.954
19285TIP3   OH257731   2.501   2.262   3.063
19285TIP3    H157732   2.443   2.187   3.057
19285TIP3    H257733   2.490   2.308   2.979
19286TIP3   OH257734   4.828   5.020   4.594
19286TIP3    H157735   4.900   4.956   4.593
19286TIP3    H257736   4.852   5.083   4.526
19287TIP3   OH257737   1.896   8.945   4.077
19287TIP3    H157738   1.920   9.036   4.097
19287TIP3    H257739   1.980   8.900   4.069
19288TIP3   OH257740   3.966   1.889   1.591
19288TIP3    H157741   3.942   1.922   1.504
19288TIP3    H257742   3.944   1.796   1.589
19289TIP3   OH257743   5.984   8.564   5.236
19289TIP3    H157744   5.896   8.528   5.222
19289TIP3    H257745   6.043   8.495   5.206
19290TIP3   OH257746   1.821   0.088   5.103
19290TIP3    H157747   1.869   0.043   5.034
19290TIP3    H257748   1.881   0.157   5.132
19291TIP3   OH257749   4.267   6.632   3.448
19291TIP3    H157750   4.189   6.688   3.444
19291TIP3    H257751   4.291   6.632   3.540
19292TIP3   OH257752   5.929   8.528   3.799
19292TIP3    H157753   5.999   8.582   3.761
19292TIP3    H257754   5.976   8.454   3.839
19293TIP3   OH257755   3.897   4.457   0.420
19293TIP3    H157756   3.941   4.472   0.503
19293TIP3    H257757   3.945   4.511   0.357
19294TIP3   OH257758   2.343   1.938   3.834
19294TIP3    H157759   2.359   2.018   3.884
19294TIP3    H257760   2.390   1.951   3.752
19295TIP3   OH257761   2.370   7.430   6.418
19295TIP3    H157762   2.390   7.434   6.324
19295TIP3    H257763   2.456   7.436   6.461
19296TIP3   OH257764   7.660   4.077   4.502
19296TIP3    H157765   7.670   4.051   4.593
19296TIP3    H257766   7.566   4.075   4.486
19297TIP3   OH257767   5.899   6.609   4.858
19297TIP3    H157768   5.866   6.693   4.825
19297TIP3    H257769   5.930   6.629   4.947
19298TIP3   OH257770   0.162   5.170   1.924
19298TIP3    H157771   0.141   5.259   1.893
19298TIP3    H257772   0.077   5.126   1.928
19299TIP3   OH257773   8.047   3.563   7.053
19299TIP3    H157774   8.105   3.505   7.004
19299TIP3    H257775   7.959   3.527   7.038
19300TIP3   OH257776   7.748   7.500   4.716
19300TIP3    H157777   7.752   7.405   4.722
19300TIP3    H257778   7.822   7.530   4.769
19301TIP3   OH257779   4.987   4.358   7.504
19301TIP3    H157780   4.910   4.321   7.547
19301TIP3    H257781   4.973   4.453   7.509
19302TIP3   OH257782   9.048   6.550   6.065
19302TIP3    H157783   9.062   6.482   6.132
19302TIP3    H257784   8.953   6.553   6.053
19303TIP3   OH257785   7.088   2.653   0.469
19303TIP3    H157786   7.108   2.568   0.508
19303TIP3    H257787   7.152   2.713   0.508
19304TIP3   OH257788   8.125   0.923   3.361
19304TIP3    H157789   8.037   0.898   3.332
19304TIP3    H257790   8.116   0.933   3.456
19305TIP3   OH257791   0.777   1.703   4.803
19305TIP3    H157792   0.800   1.792   4.777
19305TIP3    H257793   0.702   1.713   4.860
19306TIP3   OH257794   7.474   4.404   3.266
19306TIP3    H157795   7.558   4.442   3.241
19306TIP3    H257796   7.488   4.309   3.263
19307TIP3   OH257797   4.233   5.222   4.560
19307TIP3    H157798   4.156   5.175   4.528
19307TIP3    H257799   4.200   5.308   4.586
19308TIP3   OH257800   8.515   6.524   1.956
19308TIP3    H157801   8.479   6.435   1.956
19308TIP3    H257802   8.568   6.529   1.877
19309TIP3   OH257803   0.479   0.278   1.076
19309TIP3    H157804   0.434   0.335   1.139
19309TIP3    H257805   0.453   0.312   0.990
19310TIP3   OH257806   5.567   4.154   6.543
19310TIP3    H157807   5.504   4.226   6.538
19310TIP3    H257808   5.534   4.098   6.614
19311TIP3   OH257809   1.031   4.597   3.552
19311TIP3    H157810   0.945   4.601   3.594
19311TIP3    H257811   1.037   4.508   3.519
19312TIP3   OH257812   2.692   5.634   4.861
19312TIP3    H157813   2.642   5.627   4.780
19312TIP3    H257814   2.665   5.718   4.899
19313TIP3   OH257815   9.544   6.208   2.719
19313TIP3    H157816   9.569   6.138   2.660
19313TIP3    H257817   9.604   6.280   2.698
19314TIP3   OH257818   7.338   4.633   3.240
19314TIP3    H157819   7.389   4.553   3.254
19314TIP3    H257820   7.343   4.648   3.146
19315TIP3   OH257821   5.301   0.639   0.506
19315TIP3    H157822   5.253   0.617   0.427
19315TIP3    H257823   5.351   0.717   0.483
19316TIP3   OH257824   5.403   7.292   3.253
19316TIP3    H157825   5.431   7.303   3.343
19316TIP3    H257826   5.482   7.310   3.201
19317TIP3   OH257827   7.991   6.050   1.102
19317TIP3    H157828   7.967   6.003   1.182
19317TIP3    H257829   8.070   6.007   1.071
19318TIP3   OH257830   0.502   7.324   3.887
19318TIP3    H157831   0.420   7.319   3.839
19318TIP3    H257832   0.478   7.302   3.977
19319TIP3   OH257833   5.084   7.205   0.101
19319TIP3    H157834   5.140   7.248   0.166
19319TIP3    H257835   5.033   7.141   0.152
19320TIP3   OH257836   7.156   2.064   2.161
19320TIP3    H157837   7.103   2.005   2.107
19320TIP3    H257838   7.112   2.149   2.154
19321TIP3   OH257839   4.635   4.673   0.340
19321TIP3    H157840   4.673   4.589   0.313
19321TIP3    H257841   4.616   4.718   0.258
19322TIP3   OH257842   2.008   6.094   1.209
19322TIP3    H157843   1.987   6.020   1.153
19322TIP3    H257844   2.037   6.163   1.149
19323TIP3   OH257845   9.242   4.792   3.377
19323TIP3    H157846   9.220   4.702   3.401
19323TIP3    H257847   9.198   4.806   3.293
19324TIP3   OH257848   6.561   0.999   0.885
19324TIP3    H157849   6.477   0.998   0.929
19324TIP3    H257850   6.615   0.937   0.933
19325TIP3   OH257851   2.728   2.617   4.340
19325TIP3    H157852   2.778   2.556   4.285
19325TIP3    H257853   2.686   2.677   4.278
19326TIP3   OH257854   9.330   1.335   0.040
19326TIP3    H157855   9.325   1.418   0.087
19326TIP3    H257856   9.262   1.281   0.080
19327TIP3   OH257857   7.905   1.983   7.804
19327TIP3    H157858   7.899   1.900   7.756
19327TIP3    H257859   7.987   2.023   7.774
19328TIP3   OH257860   9.469   7.787   7.658
19328TIP3    H157861   9.481   7.716   7.595
19328TIP3    H257862   9.543   7.845   7.643
19329TIP3   OH257863   9.004   7.780   2.534
19329TIP3    H157864   9.011   7.733   2.618
19329TIP3    H257865   9.094   7.785   2.502
19330TIP3   OH257866   0.193   1.500   4.287
19330TIP3    H157867   0.118   1.446   4.264
19330TIP3    H257868   0.155   1.584   4.312
19331TIP3   OH257869   9.261   5.290   2.271
19331TIP3    H157870   9.300   5.357   2.214
19331TIP3    H257871   9.173   5.278   2.237
19332TIP3   OH257872   7.709   0.785   4.991
19332TIP3    H157873   7.727   0.763   4.900
19332TIP3    H257874   7.759   0.865   5.007
19333TIP3   OH257875   7.474   3.423   3.626
19333TIP3    H157876   7.570   3.428   3.622
19333TIP3    H257877   7.446   3.514   3.635
19334TIP3   OH257878   5.999   2.687   4.364
19334TIP3    H157879   5.951   2.763   4.397
19334TIP3    H257880   6.018   2.709   4.273
19335TIP3   OH257881   2.523   5.732   7.439
19335TIP3    H157882   2.449   5.782   7.474
19335TIP3    H257883   2.600   5.767   7.484
19336TIP3   OH257884   8.538   8.116   2.161
19336TIP3    H157885   8.538   8.208   2.133
19336TIP3    H257886   8.476   8.073   2.103
19337TIP3   OH257887   9.018   8.785   0.295
19337TIP3    H157888   8.929   8.806   0.267
19337TIP3    H257889   9.009   8.760   0.387
19338TIP3   OH257890   9.564   2.508   3.670
19338TIP3    H157891   9.531   2.573   3.733
19338TIP3    H257892   9.535   2.424   3.705
19339TIP3   OH257893   5.649   4.555   6.470
19339TIP3    H157894   5.618   4.502   6.396
19339TIP3    H257895   5.714   4.500   6.513
19340TIP3   OH257896   9.541   1.430   5.407
19340TIP3    H157897   9.611   1.428   5.472
19340TIP3    H257898   9.462   1.452   5.458
19341TIP3   OH257899   8.279   4.383   0.278
19341TIP3    H157900   8.219   4.451   0.309
19341TIP3    H257901   8.364   4.409   0.315
19342TIP3   OH257902   6.692   3.970   3.308
19342TIP3    H157903   6.614   3.913   3.305
19342TIP3    H257904   6.713   3.976   3.401
19343TIP3   OH257905   8.768   8.911   2.860
19343TIP3    H157906   8.723   8.830   2.884
19343TIP3    H257907   8.799   8.947   2.943
19344TIP3   OH257908   1.952   0.298   2.170
19344TIP3    H157909   1.865   0.318   2.206
19344TIP3    H257910   1.973   0.374   2.116
19345TIP3   OH257911   4.099   5.723   7.615
19345TIP3    H157912   4.146   5.780   7.675
19345TIP3    H257913   4.086   5.776   7.536
19346TIP3   OH257914   5.748   3.616   6.323
19346TIP3    H157915   5.794   3.686   6.277
19346TIP3    H257916   5.776   3.536   6.279
19347TIP3   OH257917   9.332   7.328   3.761
19347TIP3    H157918   9.351   7.245   3.805
19347TIP3    H257919   9.412   7.348   3.712
19348TIP3   OH257920   2.256   1.879   6.944
19348TIP3    H157921   2.258   1.906   6.852
19348TIP3    H257922   2.325   1.931   6.985
19349TIP3   OH257923   3.708   5.274   0.184
19349TIP3    H157924   3.655   5.207   0.227
19349TIP3    H257925   3.694   5.260   0.090
19350TIP3   OH257926   7.792   2.730   3.661
19350TIP3    H157927   7.778   2.710   3.568
19350TIP3    H257928   7.727   2.677   3.707
19351TIP3   OH257929   7.714   2.907   0.705
19351TIP3    H157930   7.752   2.825   0.676
19351TIP3    H257931   7.684   2.890   0.795
19352TIP3   OH257932   4.530   2.199   1.825
19352TIP3    H157933   4.478   2.261   1.774
19352TIP3    H257934   4.544   2.242   1.909
19353TIP3   OH257935   8.430   5.779   4.783
19353TIP3    H157936   8.354   5.835   4.800
19353TIP3    H257937   8.505   5.837   4.792
19354TIP3   OH257938   6.497   7.666   2.315
19354TIP3    H157939   6.523   7.574   2.324
19354TIP3    H257940   6.437   7.681   2.388
19355TIP3   OH257941   6.073   0.724   2.363
19355TIP3    H157942   5.983   0.720   2.331
19355TIP3    H257943   6.079   0.808   2.408
19356TIP3   OH257944   4.066   4.873   7.503
19356TIP3    H157945   4.019   4.920   7.571
19356TIP3    H257946   4.156   4.869   7.535
19357TIP3   OH257947   9.012   6.716   4.673
19357TIP3    H157948   8.962   6.695   4.594
19357TIP3    H257949   9.101   6.685   4.654
19358TIP3   OH257950   0.895   7.924   4.400
19358TIP3    H157951   0.814   7.931   4.350
19358TIP3    H257952   0.922   7.833   4.389
19359TIP3   OH257953   6.822   1.447   6.936
19359TIP3    H157954   6.863   1.461   6.851
19359TIP3    H257955   6.866   1.369   6.972
19360TIP3   OH257956   4.203   7.494   2.674
19360TIP3    H157957   4.244   7.410   2.694
19360TIP3    H257958   4.274   7.547   2.638
19361TIP3   OH257959   7.913   4.347   3.849
19361TIP3    H157960   7.874   4.434   3.838
19361TIP3    H257961   7.858   4.290   3.796
19362TIP3   OH257962   9.347   6.685   4.109
19362TIP3    H157963   9.387   6.743   4.174
19362TIP3    H257964   9.346   6.737   4.029
19363TIP3   OH257965   7.328   3.929   6.266
19363TIP3    H157966   7.287   3.985   6.333
19363TIP3    H257967   7.420   3.954   6.267
19364TIP3   OH257968   7.542   8.212   3.248
19364TIP3    H157969   7.477   8.282   3.249
19364TIP3    H257970   7.512   8.151   3.180
19365TIP3   OH257971   8.240   4.038   4.418
19365TIP3    H157972   8.189   4.065   4.342
19365TIP3    H257973   8.286   3.959   4.390
19366TIP3   OH257974   2.477   7.745   7.520
19366TIP3    H157975   2.393   7.753   7.566
19366TIP3    H257976   2.483   7.652   7.498
19367TIP3   OH257977   3.495   3.005   5.607
19367TIP3    H157978   3.431   3.042   5.669
19367TIP3    H257979   3.443   2.980   5.531
19368TIP3   OH257980   3.145   4.835   0.568
19368TIP3    H157981   3.190   4.847   0.652
19368TIP3    H257982   3.215   4.816   0.506
19369TIP3   OH257983   3.336   8.333   3.663
19369TIP3    H157984   3.376   8.410   3.623
19369TIP3    H257985   3.370   8.331   3.753
19370TIP3   OH257986   6.696   7.188   4.155
19370TIP3    H157987   6.642   7.111   4.171
19370TIP3    H257988   6.737   7.171   4.071
19371TIP3   OH257989   5.425   5.851   1.618
19371TIP3    H157990   5.404   5.846   1.524
19371TIP3    H257991   5.342   5.873   1.660
19372TIP3   OH257992   8.583   5.799   2.778
19372TIP3    H157993   8.591   5.844   2.694
19372TIP3    H257994   8.532   5.720   2.759
19373TIP3   OH257995   2.338   7.620   5.621
19373TIP3    H157996   2.360   7.587   5.708
19373TIP3    H257997   2.382   7.559   5.561
19374TIP3   OH257998   3.502   6.466   0.254
19374TIP3    H157999   3.576   6.475   0.314
19374TIP3    H258000   3.431   6.431   0.309
19375TIP3   OH258001   2.926   2.376   2.042
19375TIP3    H158002   2.938   2.418   2.127
19375TIP3    H258003   2.875   2.298   2.061
19376TIP3   OH258004   3.610   8.143   2.065
19376TIP3    H158005   3.616   8.162   1.972
19376TIP3    H258006   3.524   8.176   2.092
19377TIP3   OH258007   1.244   2.946   4.484
19377TIP3    H158008   1.179   2.963   4.417
19377TIP3    H258009   1.316   3.006   4.465
19378TIP3   OH258010   3.547   1.248   6.540
19378TIP3    H158011   3.507   1.172   6.582
19378TIP3    H258012   3.575   1.216   6.454
19379TIP3   OH258013   2.895   0.146   3.727
19379TIP3    H158014   2.869   0.216   3.787
19379TIP3    H258015   2.827   0.147   3.659
19380TIP3   OH258016   0.741   4.690   1.265
19380TIP3    H158017   0.778   4.667   1.350
19380TIP3    H258018   0.648   4.669   1.272
19381TIP3   OH258019   0.244   5.611   6.768
19381TIP3    H158020   0.212   5.590   6.855
19381TIP3    H258021   0.208   5.543   6.712
19382TIP3   OH258022   1.543   1.451   6.059
19382TIP3    H158023   1.574   1.407   5.979
19382TIP3    H258024   1.463   1.496   6.031
19383TIP3   OH258025   1.938   4.650   1.299
19383TIP3    H158026   1.990   4.672   1.376
19383TIP3    H258027   2.001   4.610   1.239
19384TIP3   OH258028   5.685   4.907   2.567
19384TIP3    H158029   5.775   4.893   2.595
19384TIP3    H258030   5.647   4.819   2.566
19385TIP3   OH258031   4.680   0.502   1.875
19385TIP3    H158032   4.662   0.592   1.905
19385TIP3    H258033   4.693   0.452   1.956
19386TIP3   OH258034   7.943   2.736   6.856
19386TIP3    H158035   7.943   2.653   6.808
19386TIP3    H258036   8.035   2.757   6.869
19387TIP3   OH258037   5.674   6.912   6.679
19387TIP3    H158038   5.670   6.982   6.744
19387TIP3    H258039   5.594   6.924   6.627
19388TIP3   OH258040   2.593   3.455   5.455
19388TIP3    H158041   2.687   3.468   5.445
19388TIP3    H258042   2.581   3.443   5.550
19389TIP3   OH258043   8.072   3.385   2.143
19389TIP3    H158044   7.978   3.395   2.131
19389TIP3    H258045   8.092   3.298   2.110
19390TIP3   OH258046   8.905   8.644   2.744
19390TIP3    H158047   8.849   8.646   2.822
19390TIP3    H258048   8.924   8.552   2.730
19391TIP3   OH258049   5.040   4.639   6.652
19391TIP3    H158050   5.085   4.607   6.573
19391TIP3    H258051   5.061   4.732   6.655
19392TIP3   OH258052   7.086   5.700   2.279
19392TIP3    H158053   7.132   5.621   2.255
19392TIP3    H258054   7.127   5.770   2.227
19393TIP3   OH258055   7.615   4.651   4.277
19393TIP3    H158056   7.643   4.570   4.319
19393TIP3    H258057   7.670   4.658   4.199
19394TIP3   OH258058   1.185   5.481   6.419
19394TIP3    H158059   1.143   5.543   6.479
19394TIP3    H258060   1.127   5.478   6.343
19395TIP3   OH258061   5.408   1.117   2.687
19395TIP3    H158062   5.390   1.036   2.735
19395TIP3    H258063   5.322   1.148   2.659
19396TIP3   OH258064   0.317   0.697   2.013
19396TIP3    H158065   0.316   0.641   1.935
19396TIP3    H258066   0.278   0.643   2.082
19397TIP3   OH258067   3.725   2.497   5.508
19397TIP3    H158068   3.725   2.487   5.603
19397TIP3    H258069   3.633   2.510   5.485
19398TIP3   OH258070   8.855   1.021   0.535
19398TIP3    H158071   8.859   0.951   0.600
19398TIP3    H258072   8.867   1.101   0.585
19399TIP3   OH258073   0.145   1.916   1.363
19399TIP3    H158074   0.089   1.955   1.297
19399TIP3    H258075   0.145   1.822   1.344
19400TIP3   OH258076   1.909   3.156   0.149
19400TIP3    H158077   1.966   3.221   0.106
19400TIP3    H258078   1.921   3.173   0.242
19401TIP3   OH258079   2.054   6.591   6.454
19401TIP3    H158080   2.096   6.673   6.426
19401TIP3    H258081   2.002   6.615   6.530
19402TIP3   OH258082   3.755   6.864   3.487
19402TIP3    H158083   3.728   6.792   3.431
19402TIP3    H258084   3.723   6.943   3.443
19403TIP3   OH258085   1.460   1.716   6.194
19403TIP3    H158086   1.434   1.731   6.285
19403TIP3    H258087   1.550   1.684   6.200
19404TIP3   OH258088   0.500   3.206   3.120
19404TIP3    H158089   0.444   3.175   3.049
19404TIP3    H258090   0.570   3.255   3.076
19405TIP3   OH258091   6.573   1.391   2.396
19405TIP3    H158092   6.589   1.320   2.458
19405TIP3    H258093   6.561   1.468   2.451
19406TIP3   OH258094   0.930   7.940   2.576
19406TIP3    H158095   0.876   7.891   2.637
19406TIP3    H258096   0.878   8.016   2.553
19407TIP3   OH258097   6.568   2.848   6.549
19407TIP3    H158098   6.574   2.793   6.471
19407TIP3    H258099   6.479   2.834   6.582
19408TIP3   OH258100   8.730   6.800   0.407
19408TIP3    H158101   8.647   6.768   0.372
19408TIP3    H258102   8.771   6.723   0.445
19409TIP3   OH258103   9.445   4.859   1.839
19409TIP3    H158104   9.466   4.941   1.883
19409TIP3    H258105   9.481   4.791   1.896
19410TIP3   OH258106   9.293   8.540   3.953
19410TIP3    H158107   9.332   8.549   3.866
19410TIP3    H258108   9.328   8.458   3.987
19411TIP3   OH258109   2.317   7.310   0.182
19411TIP3    H158110   2.249   7.291   0.246
19411TIP3    H258111   2.395   7.267   0.216
19412TIP3   OH258112   6.675   8.844   7.721
19412TIP3    H158113   6.694   8.886   7.805
19412TIP3    H258114   6.607   8.779   7.742
19413TIP3   OH258115   0.308   1.675   4.702
19413TIP3    H158116   0.271   1.683   4.790
19413TIP3    H258117   0.280   1.589   4.672
19414TIP3   OH258118   5.771   7.523   3.777
19414TIP3    H158119   5.856   7.532   3.820
19414TIP3    H258120   5.708   7.559   3.840
19415TIP3   OH258121   1.541   0.320   7.480
19415TIP3    H158122   1.540   0.410   7.515
19415TIP3    H258123   1.627   0.286   7.505
19416TIP3   OH258124   8.996   8.276   5.869
19416TIP3    H158125   9.044   8.216   5.811
19416TIP3    H258126   8.995   8.359   5.821
19417TIP3   OH258127   0.122   8.444   5.847
19417TIP3    H158128   0.103   8.386   5.920
19417TIP3    H258129   0.042   8.496   5.835
19418TIP3   OH258130   8.963   0.642   5.641
19418TIP3    H158131   9.040   0.695   5.660
19418TIP3    H258132   8.949   0.652   5.547
19419TIP3   OH258133   5.124   6.933   3.390
19419TIP3    H158134   5.058   6.872   3.359
19419TIP3    H258135   5.207   6.886   3.380
19420TIP3   OH258136   3.330   1.344   7.167
19420TIP3    H158137   3.276   1.423   7.171
19420TIP3    H258138   3.333   1.312   7.257
19421TIP3   OH258139   5.244   7.127   5.393
19421TIP3    H158140   5.190   7.206   5.384
19421TIP3    H258141   5.329   7.152   5.357
19422TIP3   OH258142   4.915   4.725   1.062
19422TIP3    H158143   4.936   4.709   0.970
19422TIP3    H258144   4.948   4.648   1.108
19423TIP3   OH258145   5.020   7.933   7.186
19423TIP3    H158146   4.956   7.928   7.115
19423TIP3    H258147   4.974   7.900   7.263
19424TIP3   OH258148   2.165   7.050   0.639
19424TIP3    H158149   2.086   7.042   0.586
19424TIP3    H258150   2.148   6.994   0.715
19425TIP3   OH258151   7.051   5.790   6.068
19425TIP3    H158152   7.123   5.745   6.112
19425TIP3    H258153   7.088   5.874   6.043
19426TIP3   OH258154   3.648   4.056   4.617
19426TIP3    H158155   3.687   4.122   4.559
19426TIP3    H258156   3.595   4.107   4.678
19427TIP3   OH258157   5.247   7.006   2.852
19427TIP3    H158158   5.239   7.099   2.870
19427TIP3    H258159   5.162   6.979   2.819
19428TIP3   OH258160   4.847   6.604   6.589
19428TIP3    H158161   4.817   6.691   6.615
19428TIP3    H258162   4.772   6.547   6.606
19429TIP3   OH258163   6.809   5.885   7.800
19429TIP3    H158164   6.851   5.800   7.791
19429TIP3    H258165   6.794   5.915   7.711
19430TIP3   OH258166   5.215   8.357   2.716
19430TIP3    H158167   5.299   8.396   2.693
19430TIP3    H258168   5.237   8.279   2.767
19431TIP3   OH258169   7.421   8.062   2.249
19431TIP3    H158170   7.451   8.061   2.340
19431TIP3    H258171   7.350   7.997   2.246
19432TIP3   OH258172   7.562   1.823   6.223
19432TIP3    H158173   7.603   1.909   6.231
19432TIP3    H258174   7.609   1.781   6.152
19433TIP3   OH258175   5.921   4.855   2.690
19433TIP3    H158176   5.958   4.826   2.773
19433TIP3    H258177   5.984   4.920   2.657
19434TIP3   OH258178   3.496   7.134   3.896
19434TIP3    H158179   3.544   7.052   3.900
19434TIP3    H258180   3.556   7.195   3.852
19435TIP3   OH258181   8.158   2.522   6.404
19435TIP3    H158182   8.217   2.479   6.343
19435TIP3    H258183   8.203   2.603   6.428
19436TIP3   OH258184   2.714   0.659   0.234
19436TIP3    H158185   2.738   0.731   0.176
19436TIP3    H258186   2.738   0.580   0.185
19437TIP3   OH258187   1.831   3.503   1.455
19437TIP3    H158188   1.887   3.541   1.522
19437TIP3    H258189   1.742   3.515   1.489
19438TIP3   OH258190   1.722   5.085   2.339
19438TIP3    H158191   1.633   5.054   2.355
19438TIP3    H258192   1.720   5.177   2.366
19439TIP3   OH258193   5.779   5.872   6.529
19439TIP3    H158194   5.761   5.778   6.522
19439TIP3    H258195   5.763   5.905   6.441
19440TIP3   OH258196   0.231   0.568   6.323
19440TIP3    H158197   0.142   0.603   6.318
19440TIP3    H258198   0.258   0.586   6.413
19441TIP3   OH258199   2.529   0.611   7.514
19441TIP3    H158200   2.464   0.560   7.467
19441TIP3    H258201   2.478   0.676   7.563
19442TIP3   OH258202   8.808   5.128   6.942
19442TIP3    H158203   8.785   5.188   7.013
19442TIP3    H258204   8.778   5.042   6.972
19443TIP3   OH258205   7.854   4.244   0.872
19443TIP3    H158206   7.767   4.253   0.833
19443TIP3    H258207   7.842   4.182   0.944
19444TIP3   OH258208   8.537   3.616   7.270
19444TIP3    H158209   8.583   3.545   7.226
19444TIP3    H258210   8.561   3.606   7.362
19445TIP3   OH258211   0.507   5.245   6.275
19445TIP3    H158212   0.488   5.157   6.242
19445TIP3    H258213   0.599   5.242   6.299
19446TIP3   OH258214   3.304   0.387   2.750
19446TIP3    H158215   3.299   0.295   2.777
19446TIP3    H258216   3.235   0.430   2.800
19447TIP3   OH258217   4.211   6.905   2.201
19447TIP3    H158218   4.254   6.832   2.246
19447TIP3    H258219   4.268   6.924   2.126
19448TIP3   OH258220   7.516   6.888   6.011
19448TIP3    H158221   7.459   6.952   5.970
19448TIP3    H258222   7.498   6.896   6.105
19449TIP3   OH258223   7.637   2.383   2.370
19449TIP3    H158224   7.549   2.380   2.409
19449TIP3    H258225   7.626   2.436   2.291
19450TIP3   OH258226   9.235   0.751   0.254
19450TIP3    H158227   9.173   0.814   0.290
19450TIP3    H258228   9.217   0.750   0.160
19451TIP3   OH258229   0.838   5.059   7.125
19451TIP3    H158230   0.785   5.134   7.099
19451TIP3    H258231   0.844   5.065   7.221
19452TIP3   OH258232   8.160   0.155   2.642
19452TIP3    H158233   8.134   0.210   2.569
19452TIP3    H258234   8.142   0.208   2.720
19453TIP3   OH258235   9.273   8.177   4.746
19453TIP3    H158236   9.210   8.239   4.783
19453TIP3    H258237   9.302   8.219   4.665
19454TIP3   OH258238   0.975   3.536   0.488
19454TIP3    H158239   0.946   3.601   0.424
19454TIP3    H258240   0.942   3.568   0.572
19455TIP3   OH258241   9.370   5.844   4.808
19455TIP3    H158242   9.359   5.833   4.902
19455TIP3    H258243   9.383   5.755   4.774
19456TIP3   OH258244   6.451   6.956   3.091
19456TIP3    H158245   6.475   6.863   3.099
19456TIP3    H258246   6.367   6.962   3.137
19457TIP3   OH258247   0.787   0.645   2.640
19457TIP3    H158248   0.737   0.611   2.715
19457TIP3    H258249   0.807   0.735   2.665
19458TIP3   OH258250   6.130   1.333   0.412
19458TIP3    H158251   6.073   1.406   0.435
19458TIP3    H258252   6.218   1.370   0.410
19459TIP3   OH258253   3.172   0.862   2.416
19459TIP3    H158254   3.111   0.841   2.345
19459TIP3    H258255   3.121   0.850   2.496
19460TIP3   OH258256   4.125   3.841   0.489
19460TIP3    H158257   4.128   3.851   0.394
19460TIP3    H258258   4.168   3.920   0.523
19461TIP3   OH258259   8.265   8.357   5.196
19461TIP3    H158260   8.295   8.445   5.218
19461TIP3    H258261   8.330   8.324   5.134
19462TIP3   OH258262   0.105   8.353   0.719
19462TIP3    H158263   0.046   8.280   0.698
19462TIP3    H258264   0.046   8.426   0.737
19463TIP3   OH258265   3.060   5.505   4.051
19463TIP3    H158266   3.090   5.455   4.127
19463TIP3    H258267   3.139   5.552   4.021
19464TIP3   OH258268   8.594   4.372   6.568
19464TIP3    H158269   8.685   4.361   6.541
19464TIP3    H258270   8.599   4.407   6.656
19465TIP3   OH258271   3.661   2.467   3.973
19465TIP3    H158272   3.722   2.421   4.031
19465TIP3    H258273   3.611   2.524   4.032
19466TIP3   OH258274   2.058   4.030   3.507
19466TIP3    H158275   2.032   3.984   3.587
19466TIP3    H258276   2.090   4.115   3.537
19467TIP3   OH258277   7.311   5.048   4.700
19467TIP3    H158278   7.216   5.052   4.712
19467TIP3    H258279   7.342   5.132   4.734
19468TIP3   OH258280   8.391   0.476   1.582
19468TIP3    H158281   8.485   0.472   1.568
19468TIP3    H258282   8.354   0.441   1.500
19469TIP3   OH258283   1.878   8.856   5.756
19469TIP3    H158284   1.905   8.812   5.675
19469TIP3    H258285   1.793   8.818   5.776
19470TIP3   OH258286   1.838   4.060   4.775
19470TIP3    H158287   1.861   4.064   4.682
19470TIP3    H258288   1.817   3.968   4.791
19471TIP3   OH258289   1.820   6.685   2.529
19471TIP3    H158290   1.765   6.729   2.594
19471TIP3    H258291   1.860   6.756   2.479
19472TIP3   OH258292   5.342   7.972   1.036
19472TIP3    H158293   5.410   7.969   0.968
19472TIP3    H258294   5.371   8.042   1.095
19473TIP3   OH258295   0.775   7.209   2.351
19473TIP3    H158296   0.794   7.116   2.337
19473TIP3    H258297   0.846   7.239   2.407
19474TIP3   OH258298   8.312   3.679   1.246
19474TIP3    H158299   8.251   3.683   1.172
19474TIP3    H258300   8.396   3.657   1.207
19475TIP3   OH258301   5.979   6.388   1.101
19475TIP3    H158302   6.066   6.410   1.135
19475TIP3    H258303   5.922   6.391   1.177
19476TIP3   OH258304   1.476   3.824   3.536
19476TIP3    H158305   1.547   3.774   3.575
19476TIP3    H258306   1.431   3.865   3.610
19477TIP3   OH258307   3.012   0.105   7.467
19477TIP3    H158308   3.088   0.159   7.490
19477TIP3    H258309   2.951   0.167   7.426
19478TIP3   OH258310   2.373   3.681   7.741
19478TIP3    H158311   2.338   3.594   7.758
19478TIP3    H258312   2.378   3.722   7.828
19479TIP3   OH258313   8.234   3.922   7.302
19479TIP3    H158314   8.264   3.890   7.387
19479TIP3    H258315   8.257   3.852   7.241
19480TIP3   OH258316   3.463   8.625   0.274
19480TIP3    H158317   3.546   8.595   0.238
19480TIP3    H258318   3.456   8.581   0.359
19481TIP3   OH258319   6.711   6.327   6.717
19481TIP3    H158320   6.665   6.390   6.662
19481TIP3    H258321   6.647   6.306   6.786
19482TIP3   OH258322   0.535   6.836   1.555
19482TIP3    H158323   0.592   6.823   1.631
19482TIP3    H258324   0.573   6.780   1.487
19483TIP3   OH258325   5.844   2.373   3.859
19483TIP3    H158326   5.841   2.416   3.774
19483TIP3    H258327   5.936   2.347   3.869
19484TIP3   OH258328   3.120   6.939   3.263
19484TIP3    H158329   3.103   6.853   3.301
19484TIP3    H258330   3.213   6.938   3.242
19485TIP3   OH258331   4.931   4.350   3.560
19485TIP3    H158332   4.909   4.426   3.506
19485TIP3    H258333   4.967   4.388   3.640
19486TIP3   OH258334   9.445   2.958   1.868
19486TIP3    H158335   9.371   2.994   1.918
19486TIP3    H258336   9.480   3.032   1.819
19487TIP3   OH258337   6.614   2.803   1.345
19487TIP3    H158338   6.673   2.816   1.419
19487TIP3    H258339   6.665   2.834   1.269
19488TIP3   OH258340   9.408   3.425   5.376
19488TIP3    H158341   9.352   3.487   5.330
19488TIP3    H258342   9.355   3.395   5.450
19489TIP3   OH258343   0.352   7.181   4.695
19489TIP3    H158344   0.357   7.116   4.625
19489TIP3    H258345   0.343   7.129   4.775
19490TIP3   OH258346   9.302   6.124   1.958
19490TIP3    H158347   9.266   6.167   2.036
19490TIP3    H258348   9.388   6.092   1.987
19491TIP3   OH258349   4.699   8.091   1.429
19491TIP3    H158350   4.657   8.169   1.394
19491TIP3    H258351   4.709   8.110   1.523
19492TIP3   OH258352   2.247   6.826   4.622
19492TIP3    H158353   2.181   6.887   4.589
19492TIP3    H258354   2.313   6.882   4.663
19493TIP3   OH258355   8.269   3.376   7.241
19493TIP3    H158356   8.190   3.324   7.255
19493TIP3    H258357   8.308   3.340   7.161
19494TIP3   OH258358   2.335   1.680   0.232
19494TIP3    H158359   2.329   1.623   0.308
19494TIP3    H258360   2.254   1.665   0.184
19495TIP3   OH258361   4.233   8.356   0.940
19495TIP3    H158362   4.143   8.325   0.941
19495TIP3    H258363   4.278   8.303   1.005
19496TIP3   OH258364   9.507   3.383   1.133
19496TIP3    H158365   9.422   3.370   1.176
19496TIP3    H258366   9.557   3.304   1.153
19497TIP3   OH258367   1.777   3.145   5.573
19497TIP3    H158368   1.802   3.054   5.559
19497TIP3    H258369   1.751   3.148   5.666
19498TIP3   OH258370   7.020   4.848   1.236
19498TIP3    H158371   7.012   4.844   1.331
19498TIP3    H258372   7.073   4.772   1.212
19499TIP3   OH258373   6.624   3.300   1.878
19499TIP3    H158374   6.592   3.328   1.793
19499TIP3    H258375   6.665   3.378   1.916
19500TIP3   OH258376   1.744   8.867   5.296
19500TIP3    H158377   1.673   8.903   5.242
19500TIP3    H258378   1.809   8.937   5.300
19501TIP3   OH258379   4.072   0.270   6.950
19501TIP3    H158380   4.003   0.329   6.981
19501TIP3    H258381   4.055   0.187   6.996
19502TIP3   OH258382   2.901   0.903   2.728
19502TIP3    H158383   2.870   0.849   2.801
19502TIP3    H258384   2.881   0.851   2.650
19503TIP3   OH258385   5.735   2.627   0.732
19503TIP3    H158386   5.779   2.708   0.709
19503TIP3    H258387   5.798   2.558   0.711
19504TIP3   OH258388   9.377   4.985   3.547
19504TIP3    H158389   9.304   5.037   3.579
19504TIP3    H258390   9.337   4.921   3.488
19505TIP3   OH258391   1.294   1.343   2.642
19505TIP3    H158392   1.388   1.358   2.653
19505TIP3    H258393   1.287   1.301   2.556
19506TIP3   OH258394   2.233   0.011   1.458
19506TIP3    H158395   2.326   0.036   1.451
19506TIP3    H258396   2.187   0.093   1.474
19507TIP3   OH258397   7.007   3.531   3.566
19507TIP3    H158398   7.057   3.450   3.570
19507TIP3    H258399   7.064   3.597   3.607
19508TIP3   OH258400   7.438   0.442   6.095
19508TIP3    H158401   7.521   0.401   6.118
19508TIP3    H258402   7.425   0.509   6.162
19509TIP3   OH258403   4.654   3.041   7.286
19509TIP3    H158404   4.612   3.099   7.222
19509TIP3    H258405   4.681   2.965   7.235
19510TIP3   OH258406   5.715   4.651   3.246
19510TIP3    H158407   5.785   4.688   3.300
19510TIP3    H258408   5.762   4.611   3.172
19511TIP3   OH258409   9.118   5.915   4.704
19511TIP3    H158410   9.202   5.873   4.721
19511TIP3    H258411   9.134   5.970   4.627
19512TIP3   OH258412   2.059   5.111   6.449
19512TIP3    H158413   2.014   5.026   6.450
19512TIP3    H258414   2.000   5.169   6.496
19513TIP3   OH258415   0.091   6.958   6.772
19513TIP3    H158416   0.067   6.912   6.691
19513TIP3    H258417   0.167   7.011   6.747
19514TIP3   OH258418   5.953   3.970   7.322
19514TIP3    H158419   5.973   3.893   7.376
19514TIP3    H258420   6.034   4.020   7.321
19515TIP3   OH258421   8.042   6.870   2.361
19515TIP3    H158422   8.063   6.904   2.274
19515TIP3    H258423   8.095   6.923   2.420
19516TIP3   OH258424   2.140   2.561   1.615
19516TIP3    H158425   2.219   2.518   1.649
19516TIP3    H258426   2.114   2.622   1.684
19517TIP3   OH258427   0.306   7.190   5.410
19517TIP3    H158428   0.269   7.272   5.444
19517TIP3    H258429   0.350   7.151   5.485
19518TIP3   OH258430   4.238   4.552   2.183
19518TIP3    H158431   4.231   4.648   2.179
19518TIP3    H258432   4.297   4.536   2.257
19519TIP3   OH258433   5.917   1.949   7.350
19519TIP3    H158434   5.924   2.039   7.380
19519TIP3    H258435   5.907   1.898   7.431
19520TIP3   OH258436   5.619   8.481   3.785
19520TIP3    H158437   5.703   8.483   3.739
19520TIP3    H258438   5.602   8.572   3.808
19521TIP3   OH258439   8.594   7.547   6.954
19521TIP3    H158440   8.538   7.555   6.877
19521TIP3    H258441   8.600   7.453   6.971
19522TIP3   OH258442   3.006   6.618   2.003
19522TIP3    H158443   2.953   6.573   1.936
19522TIP3    H258444   2.988   6.570   2.084
19523TIP3   OH258445   6.006   2.340   6.368
19523TIP3    H158446   6.010   2.267   6.305
19523TIP3    H258447   5.951   2.308   6.439
19524TIP3   OH258448   5.354   0.496   2.812
19524TIP3    H158449   5.297   0.539   2.876
19524TIP3    H258450   5.333   0.538   2.728
19525TIP3   OH258451   2.067   7.453   0.586
19525TIP3    H158452   2.000   7.395   0.550
19525TIP3    H258453   2.113   7.400   0.651
19526TIP3   OH258454   1.680   6.300   2.275
19526TIP3    H158455   1.696   6.208   2.255
19526TIP3    H258456   1.767   6.338   2.286
19527TIP3   OH258457   8.103   8.682   2.565
19527TIP3    H158458   8.064   8.722   2.487
19527TIP3    H258459   8.076   8.590   2.561
19528TIP3   OH258460   4.303   0.605   1.765
19528TIP3    H158461   4.303   0.700   1.776
19528TIP3    H258462   4.323   0.590   1.673
19529TIP3   OH258463   0.767   8.967   5.190
19529TIP3    H158464   0.766   8.904   5.119
19529TIP3    H258465   0.823   9.038   5.158
19530TIP3   OH258466   2.513   7.223   4.050
19530TIP3    H158467   2.424   7.252   4.031
19530TIP3    H258468   2.521   7.140   4.001
19531TIP3   OH258469   0.959   5.136   0.234
19531TIP3    H158470   0.971   5.230   0.248
19531TIP3    H258471   0.927   5.129   0.145
19532TIP3   OH258472   3.796   8.036   3.172
19532TIP3    H158473   3.792   7.980   3.250
19532TIP3    H258474   3.790   7.975   3.098
19533TIP3   OH258475   2.770   3.624   2.037
19533TIP3    H158476   2.733   3.663   1.958
19533TIP3    H258477   2.725   3.668   2.109
19534TIP3   OH258478   4.631   4.213   2.695
19534TIP3    H158479   4.700   4.278   2.687
19534TIP3    H258480   4.677   4.132   2.717
19535TIP3   OH258481   3.081   1.933   7.416
19535TIP3    H158482   3.103   1.985   7.339
19535TIP3    H258483   3.023   1.990   7.467
19536TIP3   OH258484   0.210   5.926   4.071
19536TIP3    H158485   0.240   5.948   4.160
19536TIP3    H258486   0.290   5.904   4.024
19537TIP3   OH258487   7.290   4.260   5.743
19537TIP3    H158488   7.295   4.246   5.649
19537TIP3    H258489   7.245   4.344   5.753
19538TIP3   OH258490   9.547   5.082   0.209
19538TIP3    H158491   9.595   5.061   0.289
19538TIP3    H258492   9.565   5.175   0.193
19539TIP3   OH258493   7.861   6.265   6.442
19539TIP3    H158494   7.926   6.260   6.372
19539TIP3    H258495   7.912   6.287   6.520
19540TIP3   OH258496   0.074   6.609   2.666
19540TIP3    H158497   0.096   6.516   2.670
19540TIP3    H258498   0.146   6.653   2.711
19541TIP3   OH258499   4.914   6.262   2.466
19541TIP3    H158500   4.975   6.213   2.521
19541TIP3    H258501   4.830   6.255   2.513
19542TIP3   OH258502   4.965   0.999   0.750
19542TIP3    H158503   5.045   0.964   0.790
19542TIP3    H258504   4.996   1.057   0.681
19543TIP3   OH258505   2.978   1.396   3.931
19543TIP3    H158506   3.009   1.453   3.861
19543TIP3    H258507   2.883   1.402   3.926
19544TIP3   OH258508   8.673   0.938   4.591
19544TIP3    H158509   8.611   0.865   4.594
19544TIP3    H258510   8.754   0.900   4.556
19545TIP3   OH258511   6.693   0.718   5.647
19545TIP3    H158512   6.706   0.723   5.553
19545TIP3    H258513   6.682   0.624   5.665
19546TIP3   OH258514   6.406   4.016   7.740
19546TIP3    H158515   6.456   4.066   7.675
19546TIP3    H258516   6.443   4.042   7.824
19547TIP3   OH258517   3.919   0.488   3.477
19547TIP3    H158518   3.907   0.395   3.496
19547TIP3    H258519   3.845   0.532   3.519
19548TIP3   OH258520   7.803   7.697   6.660
19548TIP3    H158521   7.762   7.612   6.674
19548TIP3    H258522   7.779   7.749   6.737
19549TIP3   OH258523   8.262   3.784   3.848
19549TIP3    H158524   8.241   3.776   3.941
19549TIP3    H258525   8.346   3.738   3.838
19550TIP3   OH258526   9.555   0.507   1.921
19550TIP3    H158527   9.463   0.509   1.948
19550TIP3    H258528   9.604   0.502   2.003
19551TIP3   OH258529   8.139   6.956   6.139
19551TIP3    H158530   8.208   6.901   6.101
19551TIP3    H258531   8.078   6.893   6.179
19552TIP3   OH258532   2.182   1.030   7.620
19552TIP3    H158533   2.186   1.084   7.699
19552TIP3    H258534   2.133   1.084   7.558
19553TIP3   OH258535   0.688   0.094   2.461
19553TIP3    H158536   0.763   0.061   2.410
19553TIP3    H258537   0.631   0.018   2.470
19554TIP3   OH258538   9.193   3.199   0.853
19554TIP3    H158539   9.243   3.187   0.772
19554TIP3    H258540   9.197   3.113   0.897
19555TIP3   OH258541   3.080   8.152   0.370
19555TIP3    H158542   3.109   8.225   0.424
19555TIP3    H258543   3.047   8.193   0.290
19556TIP3   OH258544   7.976   3.133   5.341
19556TIP3    H158545   8.060   3.097   5.368
19556TIP3    H258546   7.998   3.197   5.273
19557TIP3   OH258547   4.552   4.611   5.927
19557TIP3    H158548   4.560   4.571   6.014
19557TIP3    H258549   4.633   4.586   5.882
19558TIP3   OH258550   7.175   4.524   5.452
19558TIP3    H158551   7.259   4.561   5.480
19558TIP3    H258552   7.145   4.582   5.382
19559TIP3   OH258553   0.756   8.300   3.866
19559TIP3    H158554   0.820   8.356   3.910
19559TIP3    H258555   0.748   8.337   3.778
19560TIP3   OH258556   2.432   3.862   5.233
19560TIP3    H158557   2.370   3.935   5.231
19560TIP3    H258558   2.377   3.785   5.220
19561TIP3   OH258559   7.422   5.564   4.483
19561TIP3    H158560   7.352   5.501   4.497
19561TIP3    H258561   7.502   5.514   4.501
19562TIP3   OH258562   0.794   6.447   7.271
19562TIP3    H158563   0.728   6.390   7.310
19562TIP3    H258564   0.839   6.486   7.346
19563TIP3   OH258565   2.741   3.483   7.695
19563TIP3    H158566   2.786   3.507   7.614
19563TIP3    H258567   2.684   3.558   7.714
19564TIP3   OH258568   6.018   0.454   7.724
19564TIP3    H158569   6.048   0.431   7.811
19564TIP3    H258570   6.095   0.494   7.682
19565TIP3   OH258571   2.604   0.932   7.089
19565TIP3    H158572   2.620   1.018   7.129
19565TIP3    H258573   2.546   0.888   7.151
19566TIP3   OH258574   7.476   3.214   2.990
19566TIP3    H158575   7.491   3.167   2.909
19566TIP3    H258576   7.410   3.280   2.968
19567TIP3   OH258577   1.132   3.379   5.505
19567TIP3    H158578   1.106   3.286   5.505
19567TIP3    H258579   1.166   3.394   5.593
19568TIP3   OH258580   2.216   2.222   6.834
19568TIP3    H158581   2.300   2.269   6.829
19568TIP3    H258582   2.171   2.262   6.908
19569TIP3   OH258583   7.053   1.591   1.911
19569TIP3    H158584   6.961   1.590   1.938
19569TIP3    H258585   7.053   1.553   1.823
19570TIP3   OH258586   4.725   8.205   4.618
19570TIP3    H158587   4.659   8.214   4.549
19570TIP3    H258588   4.682   8.154   4.686
19571TIP3   OH258589   2.016   3.225   3.905
19571TIP3    H158590   1.927   3.257   3.891
19571TIP3    H258591   2.064   3.256   3.828
19572TIP3   OH258592   7.747   4.968   0.797
19572TIP3    H158593   7.792   5.041   0.841
19572TIP3    H258594   7.685   4.936   0.862
19573TIP3   OH258595   0.507   4.977   2.042
19573TIP3    H158596   0.599   4.978   2.068
19573TIP3    H258597   0.471   5.058   2.076
19574TIP3   OH258598   2.545   5.514   7.268
19574TIP3    H158599   2.552   5.587   7.330
19574TIP3    H258600   2.554   5.436   7.321
19575TIP3   OH258601   2.642   7.452   3.774
19575TIP3    H158602   2.674   7.531   3.816
19575TIP3    H258603   2.623   7.479   3.684
19576TIP3   OH258604   8.587   4.978   0.066
19576TIP3    H158605   8.677   5.008   0.085
19576TIP3    H258606   8.593   4.883   0.064
19577TIP3   OH258607   4.566   8.667   6.267
19577TIP3    H158608   4.522   8.582   6.257
19577TIP3    H258609   4.560   8.686   6.361
19578TIP3   OH258610   1.389   8.511   2.937
19578TIP3    H158611   1.343   8.553   2.864
19578TIP3    H258612   1.432   8.435   2.899
19579TIP3   OH258613   8.899   3.941   6.925
19579TIP3    H158614   8.828   4.004   6.910
19579TIP3    H258615   8.956   3.951   6.849
19580TIP3   OH258616   5.888   0.377   0.782
19580TIP3    H158617   5.980   0.403   0.769
19580TIP3    H258618   5.845   0.458   0.810
19581TIP3   OH258619   1.178   6.042   3.987
19581TIP3    H158620   1.139   6.049   3.899
19581TIP3    H258621   1.245   6.110   3.988
19582TIP3   OH258622   6.351   5.132   2.482
19582TIP3    H158623   6.292   5.190   2.433
19582TIP3    H258624   6.294   5.063   2.516
19583TIP3   OH258625   4.860   6.844   2.821
19583TIP3    H158626   4.817   6.764   2.793
19583TIP3    H258627   4.898   6.823   2.906
19584TIP3   OH258628   1.061   2.020   4.619
19584TIP3    H158629   1.082   2.109   4.592
19584TIP3    H258630   0.965   2.018   4.623
19585TIP3   OH258631   3.557   7.330   7.670
19585TIP3    H158632   3.502   7.350   7.746
19585TIP3    H258633   3.605   7.411   7.653
19586TIP3   OH258634   1.768   0.897   1.516
19586TIP3    H158635   1.839   0.868   1.458
19586TIP3    H258636   1.749   0.821   1.570
19587TIP3   OH258637   1.235   3.450   0.222
19587TIP3    H158638   1.258   3.508   0.294
19587TIP3    H258639   1.157   3.490   0.183
19588TIP3   OH258640   2.276   3.510   5.399
19588TIP3    H158641   2.357   3.528   5.446
19588TIP3    H258642   2.212   3.570   5.437
19589TIP3   OH258643   6.581   5.413   1.746
19589TIP3    H158644   6.569   5.436   1.654
19589TIP3    H258645   6.592   5.496   1.791
19590TIP3   OH258646   9.218   2.232   5.065
19590TIP3    H158647   9.127   2.218   5.040
19590TIP3    H258648   9.247   2.147   5.100
19591TIP3   OH258649   9.131   5.709   6.776
19591TIP3    H158650   9.079   5.764   6.834
19591TIP3    H258651   9.204   5.680   6.830
19592TIP3   OH258652   0.685   8.830   0.870
19592TIP3    H158653   0.718   8.801   0.955
19592TIP3    H258654   0.715   8.921   0.863
19593TIP3   OH258655   3.140   0.988   4.046
19593TIP3    H158656   3.137   1.079   4.074
19593TIP3    H258657   3.063   0.948   4.088
19594TIP3   OH258658   5.683   2.912   3.352
19594TIP3    H158659   5.716   2.930   3.264
19594TIP3    H258660   5.672   2.998   3.392
19595TIP3   OH258661   4.175   0.872   7.493
19595TIP3    H158662   4.140   0.949   7.538
19595TIP3    H258663   4.214   0.819   7.562
19596TIP3   OH258664   6.864   7.044   4.465
19596TIP3    H158665   6.908   7.042   4.550
19596TIP3    H258666   6.773   7.020   4.483
19597TIP3   OH258667   3.344   2.526   4.592
19597TIP3    H158668   3.418   2.511   4.651
19597TIP3    H258669   3.304   2.606   4.624
19598TIP3   OH258670   8.121   3.150   1.996
19598TIP3    H158671   8.045   3.094   1.980
19598TIP3    H258672   8.181   3.130   1.925
19599TIP3   OH258673   0.217   7.032   7.031
19599TIP3    H158674   0.149   7.039   6.964
19599TIP3    H258675   0.242   7.122   7.050
19600TIP3   OH258676   9.378   2.167   0.651
19600TIP3    H158677   9.347   2.091   0.603
19600TIP3    H258678   9.432   2.215   0.587
19601TIP3   OH258679   1.768   8.830   3.865
19601TIP3    H158680   1.825   8.870   3.931
19601TIP3    H258681   1.827   8.812   3.791
19602TIP3   OH258682   7.410   2.383   2.107
19602TIP3    H158683   7.339   2.388   2.043
19602TIP3    H258684   7.378   2.432   2.182
19603TIP3   OH258685   0.727   5.654   3.116
19603TIP3    H158686   0.756   5.741   3.089
19603TIP3    H258687   0.742   5.651   3.210
19604TIP3   OH258688   5.390   5.243   4.703
19604TIP3    H158689   5.401   5.284   4.789
19604TIP3    H258690   5.350   5.312   4.649
19605TIP3   OH258691   4.018   0.915   0.338
19605TIP3    H158692   3.995   0.908   0.431
19605TIP3    H258693   4.005   1.007   0.317
19606TIP3   OH258694   3.152   8.737   2.979
19606TIP3    H158695   3.069   8.765   2.941
19606TIP3    H258696   3.211   8.729   2.904
19607TIP3   OH258697   7.093   6.639   1.793
19607TIP3    H158698   7.122   6.707   1.853
19607TIP3    H258699   7.173   6.595   1.764
19608TIP3   OH258700   6.290   4.151   3.682
19608TIP3    H158701   6.321   4.238   3.656
19608TIP3    H258702   6.212   4.169   3.735
19609TIP3   OH258703   5.667   4.282   2.103
19609TIP3    H158704   5.666   4.378   2.095
19609TIP3    H258705   5.597   4.252   2.044
19610TIP3   OH258706   1.578   0.211   5.495
19610TIP3    H158707   1.622   0.272   5.436
19610TIP3    H258708   1.487   0.242   5.497
19611TIP3   OH258709   4.474   2.961   2.799
19611TIP3    H158710   4.379   2.956   2.788
19611TIP3    H258711   4.486   3.022   2.871
19612TIP3   OH258712   6.957   3.008   7.071
19612TIP3    H158713   6.965   3.008   7.166
19612TIP3    H258714   7.036   2.966   7.040
19613TIP3   OH258715   3.346   3.572   3.323
19613TIP3    H158716   3.307   3.499   3.274
19613TIP3    H258717   3.324   3.554   3.414
19614TIP3   OH258718   9.037   2.752   2.493
19614TIP3    H158719   9.108   2.689   2.475
19614TIP3    H258720   8.977   2.741   2.419
19615TIP3   OH258721   3.057   0.218   7.094
19615TIP3    H158722   2.988   0.159   7.122
19615TIP3    H258723   3.061   0.285   7.163
19616TIP3   OH258724   7.475   8.360   0.274
19616TIP3    H158725   7.407   8.418   0.240
19616TIP3    H258726   7.485   8.293   0.206
19617TIP3   OH258727   5.156   3.404   1.626
19617TIP3    H158728   5.239   3.450   1.635
19617TIP3    H258729   5.094   3.457   1.676
19618TIP3   OH258730   7.389   6.213   6.493
19618TIP3    H158731   7.352   6.296   6.524
19618TIP3    H258732   7.335   6.189   6.418
19619TIP3   OH258733   8.073   2.472   7.570
19619TIP3    H158734   8.073   2.517   7.486
19619TIP3    H258735   8.095   2.381   7.549
19620TIP3   OH258736   7.552   7.358   6.015
19620TIP3    H158737   7.630   7.399   5.978
19620TIP3    H258738   7.583   7.313   6.094
19621TIP3   OH258739   6.153   6.930   2.944
19621TIP3    H158740   6.074   6.985   2.947
19621TIP3    H258741   6.182   6.925   3.035
19622TIP3   OH258742   0.851   8.280   1.558
19622TIP3    H158743   0.806   8.331   1.490
19622TIP3    H258744   0.827   8.189   1.539
19623TIP3   OH258745   2.660   3.066   6.085
19623TIP3    H158746   2.716   3.025   6.152
19623TIP3    H258747   2.714   3.133   6.046
19624TIP3   OH258748   2.906   7.848   0.694
19624TIP3    H158749   2.897   7.762   0.654
19624TIP3    H258750   2.954   7.832   0.775
19625TIP3   OH258751   1.485   2.892   2.589
19625TIP3    H158752   1.544   2.963   2.565
19625TIP3    H258753   1.542   2.827   2.631
19626TIP3   OH258754   3.175   3.144   4.123
19626TIP3    H158755   3.155   3.063   4.169
19626TIP3    H258756   3.121   3.210   4.166
19627TIP3   OH258757   2.799   6.516   6.537
19627TIP3    H158758   2.807   6.436   6.486
19627TIP3    H258759   2.709   6.545   6.522
19628TIP3   OH258760   8.414   1.080   6.686
19628TIP3    H158761   8.321   1.063   6.702
19628TIP3    H258762   8.442   1.009   6.629
19629TIP3   OH258763   7.746   2.005   5.484
19629TIP3    H158764   7.810   2.074   5.501
19629TIP3    H258765   7.726   2.014   5.391
19630TIP3   OH258766   3.112   7.716   6.053
19630TIP3    H158767   3.129   7.646   6.116
19630TIP3    H258768   3.168   7.696   5.978
19631TIP3   OH258769   5.487   1.251   5.623
19631TIP3    H158770   5.447   1.328   5.664
19631TIP3    H258771   5.561   1.229   5.679
19632TIP3   OH258772   2.993   3.133   5.039
19632TIP3    H158773   3.061   3.077   5.002
19632TIP3    H258774   2.947   3.169   4.963
19633TIP3   OH258775   0.948   3.314   3.167
19633TIP3    H158776   0.992   3.326   3.251
19633TIP3    H258777   0.995   3.371   3.106
19634TIP3   OH258778   4.462   4.897   3.769
19634TIP3    H158779   4.435   4.960   3.702
19634TIP3    H258780   4.505   4.950   3.836
19635TIP3   OH258781   1.024   5.071   4.837
19635TIP3    H158782   1.083   5.142   4.815
19635TIP3    H258783   1.018   5.073   4.933
19636TIP3   OH258784   8.343   1.161   1.862
19636TIP3    H158785   8.366   1.068   1.857
19636TIP3    H258786   8.285   1.167   1.938
19637TIP3   OH258787   0.194   4.386   3.359
19637TIP3    H158788   0.239   4.431   3.430
19637TIP3    H258789   0.264   4.343   3.310
19638TIP3   OH258790   6.845   7.959   6.654
19638TIP3    H158791   6.856   7.867   6.630
19638TIP3    H258792   6.775   7.958   6.720
19639TIP3   OH258793   3.207   5.186   5.338
19639TIP3    H158794   3.160   5.113   5.295
19639TIP3    H258795   3.162   5.264   5.307
19640TIP3   OH258796   5.057   5.296   0.596
19640TIP3    H158797   5.012   5.330   0.519
19640TIP3    H258798   5.008   5.217   0.619
19641TIP3   OH258799   6.074   8.949   6.015
19641TIP3    H158800   6.115   9.029   6.048
19641TIP3    H258801   6.130   8.922   5.942
19642TIP3   OH258802   3.566   5.150   5.259
19642TIP3    H158803   3.523   5.155   5.344
19642TIP3    H258804   3.658   5.169   5.277
19643TIP3   OH258805   3.762   2.670   2.788
19643TIP3    H158806   3.783   2.741   2.848
19643TIP3    H258807   3.846   2.643   2.751
19644TIP3   OH258808   4.446   2.016   3.708
19644TIP3    H158809   4.466   2.084   3.772
19644TIP3    H258810   4.451   1.935   3.758
19645TIP3   OH258811   7.738   2.903   4.334
19645TIP3    H158812   7.683   2.923   4.259
19645TIP3    H258813   7.815   2.860   4.297
19646TIP3   OH258814   4.736   5.273   7.117
19646TIP3    H158815   4.810   5.326   7.087
19646TIP3    H258816   4.718   5.213   7.044
19647TIP3   OH258817   0.396   0.302   5.055
19647TIP3    H158818   0.431   0.312   4.967
19647TIP3    H258819   0.316   0.251   5.044
19648TIP3   OH258820   3.598   6.498   4.760
19648TIP3    H158821   3.535   6.446   4.712
19648TIP3    H258822   3.584   6.474   4.852
19649TIP3   OH258823   0.128   5.577   0.367
19649TIP3    H158824   0.074   5.547   0.294
19649TIP3    H258825   0.210   5.529   0.359
19650TIP3   OH258826   8.110   4.467   6.055
19650TIP3    H158827   8.196   4.431   6.077
19650TIP3    H258828   8.072   4.492   6.140
19651TIP3   OH258829   9.537   6.248   3.300
19651TIP3    H158830   9.521   6.154   3.302
19651TIP3    H258831   9.576   6.268   3.385
19652TIP3   OH258832   8.508   3.818   1.460
19652TIP3    H158833   8.476   3.858   1.379
19652TIP3    H258834   8.529   3.893   1.516
19653TIP3   OH258835   5.396   7.564   0.977
19653TIP3    H158836   5.457   7.538   1.046
19653TIP3    H258837   5.340   7.631   1.017
19654TIP3   OH258838   3.834   2.546   1.302
19654TIP3    H158839   3.870   2.470   1.347
19654TIP3    H258840   3.886   2.554   1.222
19655TIP3   OH258841   7.270   1.888   5.917
19655TIP3    H158842   7.221   1.919   5.841
19655TIP3    H258843   7.262   1.959   5.981
19656TIP3   OH258844   2.962   4.420   4.712
19656TIP3    H158845   2.881   4.442   4.667
19656TIP3    H258846   2.934   4.377   4.793
19657TIP3   OH258847   0.727   2.137   1.964
19657TIP3    H158848   0.725   2.227   1.995
19657TIP3    H258849   0.649   2.128   1.910
19658TIP3   OH258850   5.829   4.891   1.521
19658TIP3    H158851   5.804   4.840   1.444
19658TIP3    H258852   5.755   4.949   1.537
19659TIP3   OH258853   4.538   2.776   5.971
19659TIP3    H158854   4.601   2.738   6.032
19659TIP3    H258855   4.471   2.815   6.027
19660TIP3   OH258856   1.449   0.012   3.867
19660TIP3    H158857   1.430  -0.002   3.775
19660TIP3    H258858   1.377  -0.030   3.913
19661TIP3   OH258859   3.343   3.389   3.576
19661TIP3    H158860   3.326   3.295   3.582
19661TIP3    H258861   3.257   3.428   3.564
19662TIP3   OH258862   2.822   2.764   0.852
19662TIP3    H158863   2.796   2.735   0.764
19662TIP3    H258864   2.745   2.810   0.885
19663TIP3   OH258865   7.188   7.123   7.043
19663TIP3    H158866   7.264   7.153   7.093
19663TIP3    H258867   7.130   7.199   7.041
19664TIP3   OH258868   7.187   5.710   1.205
19664TIP3    H158869   7.112   5.671   1.249
19664TIP3    H258870   7.196   5.797   1.244
19665TIP3   OH258871   8.862   4.467   4.402
19665TIP3    H158872   8.864   4.378   4.438
19665TIP3    H258873   8.950   4.501   4.419
19666TIP3   OH258874   5.240   7.234   6.098
19666TIP3    H158875   5.222   7.206   6.187
19666TIP3    H258876   5.324   7.192   6.077
19667TIP3   OH258877   7.870   4.662   4.072
19667TIP3    H158878   7.890   4.755   4.059
19667TIP3    H258879   7.834   4.633   3.988
19668TIP3   OH258880   5.460   2.122   6.191
19668TIP3    H158881   5.477   2.127   6.097
19668TIP3    H258882   5.366   2.139   6.200
19669TIP3   OH258883   2.790   0.336   3.245
19669TIP3    H158884   2.737   0.407   3.207
19669TIP3    H258885   2.736   0.302   3.317
19670TIP3   OH258886   1.151   4.115   3.625
19670TIP3    H158887   1.061   4.085   3.641
19670TIP3    H258888   1.204   4.035   3.633
19671TIP3   OH258889   4.563   1.125   6.967
19671TIP3    H158890   4.512   1.106   6.888
19671TIP3    H258891   4.551   1.048   7.022
19672TIP3   OH258892   1.492   4.963   1.894
19672TIP3    H158893   1.460   5.002   1.813
19672TIP3    H258894   1.488   4.868   1.878
19673TIP3   OH258895   2.190   0.456   0.504
19673TIP3    H158896   2.127   0.496   0.445
19673TIP3    H258897   2.224   0.380   0.456
19674TIP3   OH258898   6.304   8.314   4.677
19674TIP3    H158899   6.250   8.311   4.598
19674TIP3    H258900   6.352   8.231   4.677
19675TIP3   OH258901   6.628   7.129   2.989
19675TIP3    H158902   6.558   7.064   2.979
19675TIP3    H258903   6.708   7.082   2.967
19676TIP3   OH258904   8.635   5.357   7.779
19676TIP3    H158905   8.560   5.413   7.756
19676TIP3    H258906   8.709   5.397   7.734
19677TIP3   OH258907   3.429   7.805   3.414
19677TIP3    H158908   3.375   7.832   3.489
19677TIP3    H258909   3.417   7.710   3.409
19678TIP3   OH258910   0.641   6.717   7.493
19678TIP3    H158911   0.679   6.691   7.410
19678TIP3    H258912   0.645   6.813   7.492
19679TIP3   OH258913   5.831   1.275   0.843
19679TIP3    H158914   5.921   1.269   0.812
19679TIP3    H258915   5.788   1.335   0.781
19680TIP3   OH258916   2.867   6.297   0.734
19680TIP3    H158917   2.831   6.331   0.817
19680TIP3    H258918   2.793   6.251   0.694
19681TIP3   OH258919   4.179   7.407   2.140
19681TIP3    H158920   4.246   7.367   2.195
19681TIP3    H258921   4.188   7.501   2.157
19682TIP3   OH258922   0.396   1.878   2.192
19682TIP3    H158923   0.377   1.803   2.135
19682TIP3    H258924   0.312   1.898   2.234
19683TIP3   OH258925   7.603   2.281   4.523
19683TIP3    H158926   7.689   2.303   4.559
19683TIP3    H258927   7.620   2.205   4.467
19684TIP3   OH258928   0.828   3.833   7.195
19684TIP3    H158929   0.745   3.875   7.215
19684TIP3    H258930   0.894   3.890   7.233
19685TIP3   OH258931   6.338   8.592   3.701
19685TIP3    H158932   6.388   8.512   3.691
19685TIP3    H258933   6.357   8.643   3.622
19686TIP3   OH258934   6.162   3.247   7.251
19686TIP3    H158935   6.130   3.178   7.309
19686TIP3    H258936   6.188   3.318   7.310
19687TIP3   OH258937   7.172   2.370   0.529
19687TIP3    H158938   7.093   2.323   0.501
19687TIP3    H258939   7.244   2.315   0.499
19688TIP3   OH258940   3.547   1.976   6.512
19688TIP3    H158941   3.537   1.963   6.606
19688TIP3    H258942   3.612   1.910   6.486
19689TIP3   OH258943   0.212   7.867   1.890
19689TIP3    H158944   0.177   7.906   1.809
19689TIP3    H258945   0.148   7.799   1.913
19690TIP3   OH258946   2.064   7.078   2.025
19690TIP3    H158947   2.105   7.164   2.024
19690TIP3    H258948   2.060   7.051   1.934
19691TIP3   OH258949   3.939   1.903   2.945
19691TIP3    H158950   3.897   1.875   3.027
19691TIP3    H258951   4.028   1.926   2.971
19692TIP3   OH258952   0.590   5.713   4.776
19692TIP3    H158953   0.643   5.635   4.791
19692TIP3    H258954   0.553   5.701   4.689
19693TIP3   OH258955   7.620   0.845   1.572
19693TIP3    H158956   7.687   0.778   1.556
19693TIP3    H258957   7.579   0.859   1.487
19694TIP3   OH258958   0.236   1.312   5.869
19694TIP3    H158959   0.273   1.380   5.813
19694TIP3    H258960   0.230   1.353   5.955
19695TIP3   OH258961   1.783   8.832   0.807
19695TIP3    H158962   1.702   8.874   0.838
19695TIP3    H258963   1.780   8.744   0.845
19696TIP3   OH258964   7.732   6.968   2.605
19696TIP3    H158965   7.763   6.925   2.685
19696TIP3    H258966   7.637   6.974   2.616
19697TIP3   OH258967   5.738   7.176   3.255
19697TIP3    H158968   5.720   7.270   3.255
19697TIP3    H258969   5.747   7.153   3.163
19698TIP3   OH258970   4.841   5.491   6.512
19698TIP3    H158971   4.775   5.423   6.500
19698TIP3    H258972   4.847   5.503   6.607
19699TIP3   OH258973   2.136   5.042   6.004
19699TIP3    H158974   2.078   5.029   5.928
19699TIP3    H258975   2.078   5.070   6.074
19700TIP3   OH258976   9.312   4.333   4.084
19700TIP3    H158977   9.247   4.387   4.041
19700TIP3    H258978   9.328   4.376   4.168
19701TIP3   OH258979   6.856   5.582   6.611
19701TIP3    H158980   6.878   5.489   6.607
19701TIP3    H258981   6.854   5.610   6.519
19702TIP3   OH258982   7.668   6.688   1.344
19702TIP3    H158983   7.615   6.672   1.422
19702TIP3    H258984   7.620   6.757   1.296
19703TIP3   OH258985   4.637   0.047   5.583
19703TIP3    H158986   4.689  -0.032   5.591
19703TIP3    H258987   4.694   0.118   5.612
19704TIP3   OH258988   3.074   7.214   1.675
19704TIP3    H158989   3.132   7.149   1.636
19704TIP3    H258990   3.131   7.266   1.733
19705TIP3   OH258991   0.368   7.044   1.524
19705TIP3    H158992   0.424   7.103   1.473
19705TIP3    H258993   0.430   6.983   1.565
19706TIP3   OH258994   9.515   8.561   2.139
19706TIP3    H158995   9.507   8.568   2.044
19706TIP3    H258996   9.425   8.556   2.170
19707TIP3   OH258997   7.445   3.429   0.779
19707TIP3    H158998   7.486   3.349   0.810
19707TIP3    H258999   7.509   3.498   0.797
19708TIP3   OH259000   8.969   6.211   7.110
19708TIP3    H159001   9.008   6.140   7.059
19708TIP3    H259002   9.043   6.266   7.134
19709TIP3   OH259003   4.177   3.867   4.959
19709TIP3    H159004   4.217   3.903   4.880
19709TIP3    H259005   4.091   3.836   4.931
19710TIP3   OH259006   5.025   8.331   6.991
19710TIP3    H159007   5.037   8.282   6.909
19710TIP3    H259008   5.064   8.275   7.058
19711TIP3   OH259009   7.935   8.806   2.036
19711TIP3    H159010   8.021   8.831   2.004
19711TIP3    H259011   7.944   8.714   2.062
19712TIP3   OH259012   6.517   2.545   2.440
19712TIP3    H159013   6.422   2.544   2.425
19712TIP3    H259014   6.528   2.517   2.531
19713TIP3   OH259015   8.130   7.186   0.481
19713TIP3    H159016   8.057   7.181   0.419
19713TIP3    H259017   8.208   7.195   0.425
19714TIP3   OH259018   5.167   1.079   5.617
19714TIP3    H159019   5.259   1.095   5.593
19714TIP3    H259020   5.172   1.027   5.697
19715TIP3   OH259021   8.157   1.380   5.226
19715TIP3    H159022   8.201   1.333   5.155
19715TIP3    H259023   8.102   1.445   5.182
19716TIP3   OH259024   6.442   8.067   3.099
19716TIP3    H159025   6.531   8.089   3.072
19716TIP3    H259026   6.386   8.103   3.030
19717TIP3   OH259027   6.057   5.109   5.265
19717TIP3    H159028   6.058   5.033   5.323
19717TIP3    H259029   6.078   5.183   5.322
19718TIP3   OH259030   5.597   5.342   6.445
19718TIP3    H159031   5.687   5.364   6.419
19718TIP3    H259032   5.548   5.339   6.363
19719TIP3   OH259033   5.512   0.226   5.721
19719TIP3    H159034   5.424   0.254   5.745
19719TIP3    H259035   5.528   0.147   5.774
19720TIP3   OH259036   5.094   0.913   0.052
19720TIP3    H159037   5.037   0.841   0.079
19720TIP3    H259038   5.033   0.983   0.028
19721TIP3   OH259039   9.463   0.634   6.233
19721TIP3    H159040   9.412   0.704   6.192
19721TIP3    H259041   9.471   0.661   6.325
19722TIP3   OH259042   5.443   6.593   7.405
19722TIP3    H159043   5.385   6.663   7.374
19722TIP3    H259044   5.419   6.517   7.352
19723TIP3   OH259045   0.638   2.149   7.427
19723TIP3    H159046   0.578   2.114   7.493
19723TIP3    H259047   0.585   2.211   7.377
19724TIP3   OH259048   6.013   6.052   2.292
19724TIP3    H159049   5.994   6.031   2.201
19724TIP3    H259050   6.093   6.104   2.289
19725TIP3   OH259051   9.340   1.856   0.028
19725TIP3    H159052   9.319   1.932  -0.026
19725TIP3    H259053   9.433   1.839   0.010
19726TIP3   OH259054   1.370   0.825   4.475
19726TIP3    H159055   1.431   0.896   4.455
19726TIP3    H259056   1.332   0.802   4.390
19727TIP3   OH259057   0.091   3.166   1.729
19727TIP3    H159058   0.141   3.191   1.807
19727TIP3    H259059   0.149   3.108   1.681
19728TIP3   OH259060   5.139   7.567   2.954
19728TIP3    H159061   5.100   7.606   2.875
19728TIP3    H259062   5.233   7.576   2.940
19729TIP3   OH259063   5.915   2.523   2.734
19729TIP3    H159064   5.993   2.519   2.680
19729TIP3    H259065   5.866   2.443   2.713
19730TIP3   OH259066   4.380   3.612   1.935
19730TIP3    H159067   4.381   3.685   1.997
19730TIP3    H259068   4.334   3.542   1.982
19731TIP3   OH259069   1.010   3.994   1.305
19731TIP3    H159070   1.066   3.918   1.316
19731TIP3    H259071   1.067   4.063   1.270
19732TIP3   OH259072   1.577   0.264   0.981
19732TIP3    H159073   1.514   0.296   0.916
19732TIP3    H259074   1.662   0.291   0.948
19733TIP3   OH259075   8.300   1.098   4.811
19733TIP3    H159076   8.376   1.056   4.850
19733TIP3    H259077   8.245   1.123   4.885
19734TIP3   OH259078   4.470   2.832   6.320
19734TIP3    H159079   4.434   2.780   6.392
19734TIP3    H259080   4.540   2.882   6.360
19735TIP3   OH259081   1.873   2.336   5.650
19735TIP3    H159082   1.872   2.258   5.595
19735TIP3    H259083   1.783   2.344   5.682
19736TIP3   OH259084   5.138   8.339   3.683
19736TIP3    H159085   5.139   8.332   3.778
19736TIP3    H259086   5.224   8.375   3.661
19737TIP3   OH259087   4.845   1.791   3.269
19737TIP3    H159088   4.810   1.808   3.357
19737TIP3    H259089   4.900   1.713   3.279
19738TIP3   OH259090   1.984   1.346   7.178
19738TIP3    H159091   1.913   1.404   7.204
19738TIP3    H259092   1.948   1.258   7.185
19739TIP3   OH259093   5.498   0.133   3.816
19739TIP3    H159094   5.429   0.174   3.868
19739TIP3    H259095   5.478   0.039   3.820
19740TIP3   OH259096   8.714   7.473   3.515
19740TIP3    H159097   8.782   7.425   3.561
19740TIP3    H259098   8.718   7.562   3.552
19741TIP3   OH259099   2.923   6.221   5.428
19741TIP3    H159100   2.843   6.226   5.375
19741TIP3    H259101   2.892   6.205   5.517
19742TIP3   OH259102   0.161   7.356   4.163
19742TIP3    H159103   0.232   7.405   4.122
19742TIP3    H259104   0.206   7.297   4.224
19743TIP3   OH259105   1.652   7.264   1.083
19743TIP3    H159106   1.684   7.309   1.161
19743TIP3    H259107   1.574   7.314   1.056
19744TIP3   OH259108   3.625   0.370   3.178
19744TIP3    H159109   3.617   0.287   3.224
19744TIP3    H259110   3.583   0.434   3.235
19745TIP3   OH259111   8.410   7.601   6.698
19745TIP3    H159112   8.343   7.644   6.751
19745TIP3    H259113   8.371   7.594   6.611
19746TIP3   OH259114   6.640   4.217   0.766
19746TIP3    H159115   6.672   4.220   0.675
19746TIP3    H259116   6.565   4.276   0.767
19747TIP3   OH259117   5.117   6.168   3.098
19747TIP3    H159118   5.089   6.258   3.084
19747TIP3    H259119   5.181   6.152   3.028
19748TIP3   OH259120   7.550   7.462   6.629
19748TIP3    H159121   7.532   7.453   6.535
19748TIP3    H259122   7.466   7.487   6.667
19749TIP3   OH259123   7.177   3.219   7.533
19749TIP3    H159124   7.212   3.267   7.609
19749TIP3    H259125   7.239   3.147   7.520
19750TIP3   OH259126   6.150   1.172   5.217
19750TIP3    H159127   6.237   1.172   5.256
19750TIP3    H259128   6.127   1.265   5.209
19751TIP3   OH259129   0.894   0.117   2.953
19751TIP3    H159130   0.847   0.135   2.871
19751TIP3    H259131   0.877   0.025   2.971
19752TIP3   OH259132   5.771   3.680   0.121
19752TIP3    H159133   5.682   3.702   0.094
19752TIP3    H259134   5.765   3.672   0.217
19753TIP3   OH259135   7.287   7.817   4.074
19753TIP3    H159136   7.246   7.781   3.994
19753TIP3    H259137   7.321   7.741   4.120
19754TIP3   OH259138   1.020   7.094   3.741
19754TIP3    H159139   0.943   7.046   3.772
19754TIP3    H259140   1.025   7.075   3.648
19755TIP3   OH259141   3.031   1.014   5.921
19755TIP3    H159142   3.084   0.956   5.976
19755TIP3    H259143   3.087   1.091   5.909
19756TIP3   OH259144   6.648   0.455   7.471
19756TIP3    H159145   6.614   0.540   7.444
19756TIP3    H259146   6.577   0.394   7.451
19757TIP3   OH259147   4.742   2.918   4.436
19757TIP3    H159148   4.686   2.937   4.360
19757TIP3    H259149   4.685   2.929   4.512
19758TIP3   OH259150   7.380   3.293   4.896
19758TIP3    H159151   7.431   3.360   4.942
19758TIP3    H259152   7.446   3.238   4.853
19759TIP3   OH259153   2.472   7.194   6.680
19759TIP3    H159154   2.502   7.194   6.589
19759TIP3    H259155   2.498   7.280   6.713
19760TIP3   OH259156   8.156   7.970   7.047
19760TIP3    H159157   8.073   8.019   7.048
19760TIP3    H259158   8.149   7.911   7.122
19761TIP3   OH259159   6.401   2.042   5.908
19761TIP3    H159160   6.317   1.999   5.927
19761TIP3    H259161   6.384   2.135   5.925
19762TIP3   OH259162   0.350   5.497   4.790
19762TIP3    H159163   0.319   5.578   4.750
19762TIP3    H259164   0.446   5.505   4.789
19763TIP3   OH259165   1.166   3.084   2.647
19763TIP3    H159166   1.077   3.048   2.652
19763TIP3    H259167   1.191   3.099   2.738
19764TIP3   OH259168   3.625   4.596   2.145
19764TIP3    H159169   3.601   4.684   2.114
19764TIP3    H259170   3.657   4.551   2.067
19765TIP3   OH259171   5.189   1.911   1.323
19765TIP3    H159172   5.279   1.943   1.312
19765TIP3    H259173   5.186   1.832   1.270
19766TIP3   OH259174   8.572   1.798   7.118
19766TIP3    H159175   8.658   1.819   7.156
19766TIP3    H259176   8.593   1.754   7.036
19767TIP3   OH259177   3.886   4.264   3.057
19767TIP3    H159178   3.911   4.246   3.148
19767TIP3    H259179   3.941   4.206   3.005
19768TIP3   OH259180   3.067   3.264   0.090
19768TIP3    H159181   2.993   3.210   0.061
19768TIP3    H259182   3.142   3.204   0.092
19769TIP3   OH259183   1.475   3.224   6.637
19769TIP3    H159184   1.451   3.244   6.727
19769TIP3    H259185   1.397   3.245   6.586
19770TIP3   OH259186   3.240   0.804   6.966
19770TIP3    H159187   3.204   0.762   7.043
19770TIP3    H259188   3.262   0.733   6.906
19771TIP3   OH259189   7.029   8.488   7.000
19771TIP3    H159190   7.079   8.415   6.962
19771TIP3    H259191   6.975   8.519   6.927
19772TIP3   OH259192   2.376   5.158   2.290
19772TIP3    H159193   2.401   5.140   2.381
19772TIP3    H259194   2.282   5.176   2.294
19773TIP3   OH259195   2.523   0.095   4.378
19773TIP3    H159196   2.439   0.111   4.423
19773TIP3    H259197   2.503   0.106   4.285
19774TIP3   OH259198   7.869   2.592   1.197
19774TIP3    H159199   7.800   2.527   1.180
19774TIP3    H259200   7.862   2.609   1.291
19775TIP3   OH259201   4.303   1.012   4.782
19775TIP3    H159202   4.347   0.965   4.853
19775TIP3    H259203   4.338   0.971   4.702
19776TIP3   OH259204   8.301   7.912   3.338
19776TIP3    H159205   8.318   7.825   3.375
19776TIP3    H259206   8.282   7.894   3.245
19777TIP3   OH259207   3.512   6.697   5.630
19777TIP3    H159208   3.569   6.691   5.554
19777TIP3    H259209   3.569   6.732   5.699
19778TIP3   OH259210   2.101   3.938   4.564
19778TIP3    H159211   2.023   3.892   4.533
19778TIP3    H259212   2.160   3.868   4.593
19779TIP3   OH259213   9.374   7.789   3.367
19779TIP3    H159214   9.436   7.768   3.437
19779TIP3    H259215   9.294   7.743   3.392
19780TIP3   OH259216   1.243   2.570   3.937
19780TIP3    H159217   1.300   2.647   3.946
19780TIP3    H259218   1.188   2.590   3.861
19781TIP3   OH259219   9.402   7.209   3.023
19781TIP3    H159220   9.440   7.295   3.038
19781TIP3    H259221   9.382   7.175   3.110
19782TIP3   OH259222   5.572   1.068   5.973
19782TIP3    H159223   5.578   1.103   6.061
19782TIP3    H259224   5.648   1.105   5.927
19783TIP3   OH259225   1.251   8.735   4.270
19783TIP3    H159226   1.267   8.642   4.253
19783TIP3    H259227   1.207   8.736   4.355
19784TIP3   OH259228   0.397   5.701   3.447
19784TIP3    H159229   0.469   5.650   3.410
19784TIP3    H259230   0.424   5.719   3.537
19785TIP3   OH259231   0.931   7.847   7.038
19785TIP3    H159232   0.989   7.780   7.073
19785TIP3    H259233   0.989   7.906   6.990
19786TIP3   OH259234   6.890   4.254   0.251
19786TIP3    H159235   6.960   4.200   0.214
19786TIP3    H259236   6.810   4.222   0.208
19787TIP3   OH259237   1.120   5.446   5.842
19787TIP3    H159238   1.084   5.449   5.753
19787TIP3    H259239   1.189   5.381   5.838
19788TIP3   OH259240   0.971   2.182   1.090
19788TIP3    H159241   1.057   2.173   1.048
19788TIP3    H259242   0.922   2.242   1.032
19789TIP3   OH259243   8.108   6.962   1.801
19789TIP3    H159244   8.074   6.885   1.754
19789TIP3    H259245   8.031   7.018   1.812
19790TIP3   OH259246   1.643   4.717   1.469
19790TIP3    H159247   1.650   4.779   1.397
19790TIP3    H259248   1.690   4.757   1.541
19791TIP3   OH259249   6.221   6.938   3.227
19791TIP3    H159250   6.222   6.857   3.279
19791TIP3    H259251   6.163   6.997   3.275
19792TIP3   OH259252   3.029   7.996   6.134
19792TIP3    H159253   3.031   7.905   6.106
19792TIP3    H259254   2.936   8.017   6.144
19793TIP3   OH259255   4.742   6.031   4.807
19793TIP3    H159256   4.783   5.989   4.883
19793TIP3    H259257   4.784   5.989   4.731
19794TIP3   OH259258   5.959   5.284   6.392
19794TIP3    H159259   5.924   5.230   6.463
19794TIP3    H259260   5.953   5.374   6.425
19795TIP3   OH259261   4.456   6.430   1.057
19795TIP3    H159262   4.375   6.384   1.080
19795TIP3    H259263   4.472   6.407   0.966
19796TIP3   OH259264   7.445   2.537   6.928
19796TIP3    H159265   7.405   2.530   6.841
19796TIP3    H259266   7.494   2.619   6.926
19797TIP3   OH259267   2.713   8.770   1.942
19797TIP3    H159268   2.657   8.757   2.019
19797TIP3    H259269   2.674   8.715   1.874
19798TIP3   OH259270   5.245   0.959   0.278
19798TIP3    H159271   5.216   0.963   0.187
19798TIP3    H259272   5.243   1.050   0.308
19799TIP3   OH259273   8.464   4.232   3.009
19799TIP3    H159274   8.377   4.262   2.985
19799TIP3    H259275   8.470   4.246   3.103
19800TIP3   OH259276   4.758   5.946   5.098
19800TIP3    H159277   4.752   5.938   5.193
19800TIP3    H259278   4.825   5.882   5.073
19801TIP3   OH259279   8.870   1.482   5.664
19801TIP3    H159280   8.890   1.463   5.756
19801TIP3    H259281   8.777   1.505   5.665
19802TIP3   OH259282   6.892   1.734   5.807
19802TIP3    H159283   6.904   1.828   5.792
19802TIP3    H259284   6.806   1.728   5.849
19803TIP3   OH259285   2.285   7.426   7.764
19803TIP3    H159286   2.276   7.332   7.778
19803TIP3    H259287   2.371   7.447   7.800
19804TIP3   OH259288   2.684   6.417   3.735
19804TIP3    H159289   2.715   6.394   3.822
19804TIP3    H259290   2.686   6.512   3.733
19805TIP3   OH259291   4.730   0.714   7.278
19805TIP3    H159292   4.716   0.801   7.241
19805TIP3    H259293   4.781   0.730   7.357
19806TIP3   OH259294   0.177   7.497   1.825
19806TIP3    H159295   0.118   7.554   1.875
19806TIP3    H259296   0.203   7.550   1.750
19807TIP3   OH259297   3.023   3.733   7.654
19807TIP3    H159298   2.985   3.797   7.593
19807TIP3    H259299   2.984   3.649   7.629
19808TIP3   OH259300   3.863   7.908   4.848
19808TIP3    H159301   3.885   7.955   4.768
19808TIP3    H259302   3.946   7.897   4.894
19809TIP3   OH259303   1.834   7.147   3.080
19809TIP3    H159304   1.817   7.146   2.986
19809TIP3    H259305   1.762   7.097   3.118
19810TIP3   OH259306   4.265   1.351   0.830
19810TIP3    H159307   4.185   1.303   0.852
19810TIP3    H259308   4.323   1.285   0.791
19811TIP3   OH259309   4.682   8.335   7.502
19811TIP3    H159310   4.701   8.281   7.578
19811TIP3    H259311   4.597   8.375   7.521
19812TIP3   OH259312   4.740   4.145   3.599
19812TIP3    H159313   4.808   4.211   3.583
19812TIP3    H259314   4.668   4.171   3.542
19813TIP3   OH259315   4.738   8.575   2.358
19813TIP3    H159316   4.735   8.502   2.296
19813TIP3    H259317   4.809   8.552   2.418
19814TIP3   OH259318   3.123   5.865   4.804
19814TIP3    H159319   3.041   5.905   4.833
19814TIP3    H259320   3.123   5.778   4.845
19815TIP3   OH259321   0.826   8.213   5.551
19815TIP3    H159322   0.912   8.196   5.589
19815TIP3    H259323   0.771   8.237   5.626
19816TIP3   OH259324   4.653   8.010   7.103
19816TIP3    H159325   4.692   8.075   7.162
19816TIP3    H259326   4.623   8.061   7.028
19817TIP3   OH259327   0.406   6.170   7.782
19817TIP3    H159328   0.445   6.122   7.856
19817TIP3    H259329   0.444   6.257   7.787
19818TIP3   OH259330   8.146   3.620   5.153
19818TIP3    H159331   8.220   3.618   5.214
19818TIP3    H259332   8.079   3.671   5.198
19819TIP3   OH259333   2.587   0.837   1.638
19819TIP3    H159334   2.526   0.853   1.566
19819TIP3    H259335   2.551   0.888   1.711
19820TIP3   OH259336   2.382   7.199   1.923
19820TIP3    H159337   2.444   7.264   1.889
19820TIP3    H259338   2.407   7.189   2.015
19821TIP3   OH259339   1.161   0.665   3.851
19821TIP3    H159340   1.193   0.575   3.844
19821TIP3    H259341   1.207   0.711   3.781
19822TIP3   OH259342   6.020   6.909   1.960
19822TIP3    H159343   6.108   6.944   1.970
19822TIP3    H259344   5.988   6.947   1.878
19823TIP3   OH259345   5.757   2.089   1.976
19823TIP3    H159346   5.722   2.176   1.995
19823TIP3    H259347   5.723   2.033   2.046
19824TIP3   OH259348   5.158   2.477   1.032
19824TIP3    H159349   5.117   2.521   1.106
19824TIP3    H259350   5.118   2.390   1.030
19825TIP3   OH259351   2.577   6.619   3.997
19825TIP3    H159352   2.597   6.526   4.010
19825TIP3    H259353   2.559   6.652   4.084
19826TIP3   OH259354   2.397   4.858   2.757
19826TIP3    H159355   2.305   4.863   2.731
19826TIP3    H259356   2.397   4.881   2.850
19827TIP3   OH259357   2.940   6.963   5.031
19827TIP3    H159358   2.887   6.895   4.989
19827TIP3    H259359   2.919   6.955   5.124
19828TIP3   OH259360   1.111   2.698   5.579
19828TIP3    H159361   1.066   2.646   5.646
19828TIP3    H259362   1.089   2.656   5.496
19829TIP3   OH259363   4.373   5.080   0.953
19829TIP3    H159364   4.369   5.175   0.967
19829TIP3    H259365   4.336   5.042   1.033
19830TIP3   OH259366   8.839   2.365   3.470
19830TIP3    H159367   8.751   2.345   3.503
19830TIP3    H259368   8.883   2.407   3.544
19831TIP3   OH259369   0.394   3.933   5.493
19831TIP3    H159370   0.413   4.013   5.542
19831TIP3    H259371   0.393   3.864   5.559
19832TIP3   OH259372   5.131   7.595   0.479
19832TIP3    H159373   5.226   7.587   0.481
19832TIP3    H259374   5.110   7.650   0.555
19833TIP3   OH259375   3.282   3.128   4.811
19833TIP3    H159376   3.316   3.216   4.792
19833TIP3    H259377   3.259   3.092   4.726
19834TIP3   OH259378   9.354   6.004   0.474
19834TIP3    H159379   9.303   6.007   0.556
19834TIP3    H259380   9.445   6.012   0.502
19835TIP3   OH259381   4.782   5.339   6.810
19835TIP3    H159382   4.844   5.408   6.832
19835TIP3    H259383   4.698   5.371   6.844
19836TIP3   OH259384   3.592   2.572   3.292
19836TIP3    H159385   3.666   2.628   3.270
19836TIP3    H259386   3.527   2.631   3.329
19837TIP3   OH259387   2.913   1.824   5.906
19837TIP3    H159388   2.979   1.799   5.971
19837TIP3    H259389   2.955   1.808   5.822
19838TIP3   OH259390   7.441   7.760   0.653
19838TIP3    H159391   7.515   7.794   0.603
19838TIP3    H259392   7.480   7.701   0.717
19839TIP3   OH259393   7.718   6.514   0.884
19839TIP3    H159394   7.766   6.445   0.931
19839TIP3    H259395   7.658   6.550   0.949
19840TIP3   OH259396   1.952   8.820   5.032
19840TIP3    H159397   1.911   8.752   5.085
19840TIP3    H259398   2.031   8.844   5.081
19841TIP3   OH259399   0.221   5.208   4.365
19841TIP3    H159400   0.277   5.211   4.443
19841TIP3    H259401   0.264   5.143   4.308
19842TIP3   OH259402   0.951   2.459   5.904
19842TIP3    H159403   0.961   2.541   5.856
19842TIP3    H259404   1.004   2.396   5.856
19843TIP3   OH259405   9.176   0.810   6.761
19843TIP3    H159406   9.224   0.799   6.843
19843TIP3    H259407   9.200   0.734   6.708
19844TIP3   OH259408   7.261   0.662   7.766
19844TIP3    H159409   7.180   0.713   7.767
19844TIP3    H259410   7.237   0.577   7.729
19845TIP3   OH259411   3.614   2.035   2.587
19845TIP3    H159412   3.680   2.084   2.539
19845TIP3    H259413   3.635   2.051   2.679
19846TIP3   OH259414   3.333   1.385   3.829
19846TIP3    H159415   3.303   1.338   3.751
19846TIP3    H259416   3.308   1.476   3.812
19847TIP3   OH259417   8.525   3.032   2.975
19847TIP3    H159418   8.595   2.999   3.031
19847TIP3    H259419   8.477   3.094   3.030
19848TIP3   OH259420   7.082   7.494   0.964
19848TIP3    H159421   6.989   7.492   0.939
19848TIP3    H259422   7.120   7.560   0.906
19849TIP3   OH259423   9.057   7.246   3.007
19849TIP3    H159424   9.099   7.314   2.954
19849TIP3    H259425   9.073   7.164   2.959
19850TIP3   OH259426   1.368   8.834   6.138
19850TIP3    H159427   1.349   8.795   6.053
19850TIP3    H259428   1.361   8.929   6.123
19851TIP3   OH259429   1.731   2.210   4.793
19851TIP3    H159430   1.822   2.239   4.787
19851TIP3    H259431   1.736   2.115   4.780
19852TIP3   OH259432   2.469   3.347   7.659
19852TIP3    H159433   2.563   3.342   7.675
19852TIP3    H259434   2.462   3.384   7.571
19853TIP3   OH259435   8.973   8.574   3.485
19853TIP3    H159436   9.022   8.508   3.534
19853TIP3    H259437   8.899   8.597   3.543
19854TIP3   OH259438   7.379   3.228   3.863
19854TIP3    H159439   7.352   3.208   3.952
19854TIP3    H259440   7.316   3.182   3.808
19855TIP3   OH259441   2.086   6.258   1.494
19855TIP3    H159442   2.180   6.246   1.506
19855TIP3    H259443   2.078   6.302   1.410
19856TIP3   OH259444   7.589   5.026   6.651
19856TIP3    H159445   7.523   4.956   6.656
19856TIP3    H259446   7.559   5.082   6.579
19857TIP3   OH259447   8.432   5.423   2.521
19857TIP3    H159448   8.526   5.441   2.525
19857TIP3    H259449   8.419   5.347   2.577
19858TIP3   OH259450   8.350   1.040   7.793
19858TIP3    H159451   8.442   1.056   7.814
19858TIP3    H259452   8.322   0.976   7.859
19859TIP3   OH259453   6.783   4.033   7.217
19859TIP3    H159454   6.876   4.030   7.195
19859TIP3    H259455   6.780   4.016   7.311
19860TIP3   OH259456   8.953   0.347   1.263
19860TIP3    H159457   8.872   0.298   1.247
19860TIP3    H259458   8.925   0.438   1.274
19861TIP3   OH259459   0.138   3.090   2.489
19861TIP3    H159460   0.198   3.060   2.421
19861TIP3    H259461   0.098   3.010   2.523
19862TIP3   OH259462   9.403   1.631   7.496
19862TIP3    H159463   9.343   1.651   7.426
19862TIP3    H259464   9.482   1.682   7.477
19863TIP3   OH259465   9.372   1.073   5.680
19863TIP3    H159466   9.462   1.042   5.688
19863TIP3    H259467   9.352   1.065   5.587
19864TIP3   OH259468   1.694   0.376   1.384
19864TIP3    H159469   1.716   0.431   1.309
19864TIP3    H259470   1.718   0.287   1.357
19865TIP3   OH259471   3.243   1.888   5.436
19865TIP3    H159472   3.255   1.828   5.362
19865TIP3    H259473   3.323   1.880   5.487
19866TIP3   OH259474   3.680   2.881   0.882
19866TIP3    H159475   3.678   2.972   0.852
19866TIP3    H259476   3.624   2.880   0.960
19867TIP3   OH259477   8.855   6.221   3.786
19867TIP3    H159478   8.816   6.175   3.861
19867TIP3    H259479   8.949   6.213   3.800
19868TIP3   OH259480   7.763   5.287   7.208
19868TIP3    H159481   7.713   5.247   7.279
19868TIP3    H259482   7.716   5.367   7.187
19869TIP3   OH259483   4.431   4.408   3.002
19869TIP3    H159484   4.516   4.441   3.031
19869TIP3    H259485   4.413   4.334   3.060
19870TIP3   OH259486   4.045   7.728   3.803
19870TIP3    H159487   3.988   7.664   3.759
19870TIP3    H259488   4.079   7.681   3.879
19871TIP3   OH259489   0.017   0.399   0.485
19871TIP3    H159490   0.107   0.369   0.500
19871TIP3    H259491   0.024   0.494   0.477
19872TIP3   OH259492   0.277   3.062   2.942
19872TIP3    H159493   0.224   3.098   2.871
19872TIP3    H259494   0.214   3.030   3.006
19873TIP3   OH259495   8.357   1.614   2.691
19873TIP3    H159496   8.403   1.533   2.716
19873TIP3    H259497   8.427   1.678   2.679
19874TIP3   OH259498   0.627   5.477   4.001
19874TIP3    H159499   0.548   5.522   4.030
19874TIP3    H259500   0.689   5.547   3.982
19875TIP3   OH259501   2.776   1.065   0.393
19875TIP3    H159502   2.722   1.068   0.472
19875TIP3    H259503   2.812   1.153   0.385
19876TIP3   OH259504   7.348   6.172   3.705
19876TIP3    H159505   7.409   6.178   3.632
19876TIP3    H259506   7.358   6.255   3.752
19877TIP3   OH259507   8.960   0.694   3.294
19877TIP3    H159508   8.913   0.620   3.332
19877TIP3    H259509   9.041   0.656   3.260
19878TIP3   OH259510   4.842   3.569   7.109
19878TIP3    H159511   4.851   3.514   7.032
19878TIP3    H259512   4.916   3.629   7.104
19879TIP3   OH259513   7.774   1.458   1.439
19879TIP3    H159514   7.835   1.384   1.450
19879TIP3    H259515   7.692   1.427   1.476
19880TIP3   OH259516   0.786   5.520   0.441
19880TIP3    H159517   0.751   5.437   0.409
19880TIP3    H259518   0.830   5.559   0.365
19881TIP3   OH259519   0.993   3.584   5.824
19881TIP3    H159520   0.932   3.512   5.839
19881TIP3    H259521   1.078   3.542   5.814
19882TIP3   OH259522   1.905   5.321   6.554
19882TIP3    H159523   1.954   5.390   6.600
19882TIP3    H259524   1.835   5.368   6.509
19883TIP3   OH259525   9.331   7.888   2.061
19883TIP3    H159526   9.346   7.971   2.017
19883TIP3    H259527   9.400   7.882   2.127
19884TIP3   OH259528   8.034   4.228   2.765
19884TIP3    H159529   8.046   4.135   2.747
19884TIP3    H259530   8.048   4.271   2.680
19885TIP3   OH259531   3.019   6.919   4.733
19885TIP3    H159532   2.971   6.954   4.658
19885TIP3    H259533   2.950   6.887   4.792
19886TIP3   OH259534   0.010   4.972   6.068
19886TIP3    H159535  -0.065   4.944   6.120
19886TIP3    H259536  -0.012   5.061   6.040
19887TIP3   OH259537   7.009   0.664   5.248
19887TIP3    H159538   7.010   0.619   5.333
19887TIP3    H259539   6.949   0.612   5.194
19888TIP3   OH259540   2.600   8.197   4.618
19888TIP3    H159541   2.684   8.170   4.657
19888TIP3    H259542   2.536   8.180   4.687
19889TIP3   OH259543   2.287   6.022   5.015
19889TIP3    H159544   2.344   6.099   5.008
19889TIP3    H259545   2.254   6.009   4.926
19890TIP3   OH259546   2.735   3.644   2.794
19890TIP3    H159547   2.653   3.689   2.817
19890TIP3    H259548   2.799   3.715   2.786
19891TIP3   OH259549   6.731   8.121   2.254
19891TIP3    H159550   6.769   8.166   2.330
19891TIP3    H259551   6.776   8.036   2.252
19892TIP3   OH259552   2.694   6.038   5.495
19892TIP3    H159553   2.756   5.992   5.438
19892TIP3    H259554   2.657   6.106   5.439
19893TIP3   OH259555   6.986   5.810   0.792
19893TIP3    H159556   7.079   5.788   0.785
19893TIP3    H259557   6.947   5.736   0.839
19894TIP3   OH259558   6.781   7.530   1.806
19894TIP3    H159559   6.719   7.514   1.878
19894TIP3    H259560   6.831   7.606   1.836
19895TIP3   OH259561   7.778   7.530   7.263
19895TIP3    H159562   7.712   7.591   7.295
19895TIP3    H259563   7.841   7.522   7.334
19896TIP3   OH259564   1.295   3.046   4.173
19896TIP3    H159565   1.382   3.006   4.169
19896TIP3    H259566   1.312   3.140   4.169
19897TIP3   OH259567   8.036   4.587   2.295
19897TIP3    H159568   8.068   4.673   2.266
19897TIP3    H259569   7.942   4.588   2.274
19898TIP3   OH259570   7.728   7.945   1.052
19898TIP3    H159571   7.687   7.972   0.970
19898TIP3    H259572   7.676   7.870   1.081
19899TIP3   OH259573   2.764   8.761   5.520
19899TIP3    H159574   2.819   8.764   5.597
19899TIP3    H259575   2.694   8.699   5.542
19900TIP3   OH259576   2.913   3.948   1.252
19900TIP3    H159577   2.910   4.011   1.324
19900TIP3    H259578   3.007   3.934   1.236
19901TIP3   OH259579   4.302   2.434   3.552
19901TIP3    H159580   4.395   2.429   3.573
19901TIP3    H259581   4.300   2.432   3.456
19902TIP3   OH259582   3.026   7.250   7.186
19902TIP3    H159583   2.951   7.303   7.160
19902TIP3    H259584   3.048   7.280   7.274
19903TIP3   OH259585   8.272   8.366   2.291
19903TIP3    H159586   8.193   8.417   2.308
19903TIP3    H259587   8.245   8.303   2.224
19904TIP3   OH259588   6.164   3.473   6.863
19904TIP3    H159589   6.184   3.532   6.936
19904TIP3    H259590   6.221   3.502   6.792
19905TIP3   OH259591   8.704   5.653   3.307
19905TIP3    H159592   8.694   5.742   3.340
19905TIP3    H259593   8.760   5.609   3.371
19906TIP3   OH259594   0.027   4.693   4.763
19906TIP3    H159595  -0.057   4.734   4.741
19906TIP3    H259596   0.051   4.732   4.847
19907TIP3   OH259597   1.918   6.428   2.553
19907TIP3    H159598   1.879   6.512   2.527
19907TIP3    H259599   1.899   6.370   2.480
19908TIP3   OH259600   6.519   8.366   7.775
19908TIP3    H159601   6.607   8.393   7.800
19908TIP3    H259602   6.494   8.429   7.707
19909TIP3   OH259603   0.540   5.937   4.897
19909TIP3    H159604   0.570   5.853   4.864
19909TIP3    H259605   0.510   5.919   4.986
19910TIP3   OH259606   7.781   6.430   3.327
19910TIP3    H159607   7.821   6.489   3.391
19910TIP3    H259608   7.801   6.343   3.360
19911TIP3   OH259609   0.938   3.017   5.789
19911TIP3    H159610   0.898   3.077   5.851
19911TIP3    H259611   0.864   2.978   5.742
19912TIP3   OH259612   8.821   2.498   2.546
19912TIP3    H159613   8.772   2.580   2.542
19912TIP3    H259614   8.862   2.498   2.633
19913TIP3   OH259615   9.124   5.016   5.211
19913TIP3    H159616   9.051   4.955   5.220
19913TIP3    H259617   9.200   4.961   5.192
19914TIP3   OH259618   5.634   0.125   0.218
19914TIP3    H159619   5.691   0.088   0.151
19914TIP3    H259620   5.648   0.220   0.211
19915TIP3   OH259621   5.587   2.187   3.986
19915TIP3    H159622   5.544   2.255   4.038
19915TIP3    H259623   5.680   2.199   4.002
19916TIP3   OH259624   4.399   6.361   1.787
19916TIP3    H159625   4.348   6.405   1.718
19916TIP3    H259626   4.489   6.385   1.768
19917TIP3   OH259627   2.707   2.305   7.257
19917TIP3    H159628   2.643   2.376   7.263
19917TIP3    H259629   2.791   2.350   7.247
19918TIP3   OH259630   1.297   2.921   6.122
19918TIP3    H159631   1.283   2.874   6.040
19918TIP3    H259632   1.387   2.953   6.116
19919TIP3   OH259633   3.777   5.246   2.244
19919TIP3    H159634   3.860   5.293   2.239
19919TIP3    H259635   3.788   5.187   2.319
19920TIP3   OH259636   7.074   4.131   6.613
19920TIP3    H159637   7.138   4.136   6.541
19920TIP3    H259638   7.090   4.210   6.664
19921TIP3   OH259639   3.573   1.730   1.629
19921TIP3    H159640   3.545   1.699   1.543
19921TIP3    H259641   3.614   1.814   1.611
19922TIP3   OH259642   4.675   1.493   0.774
19922TIP3    H159643   4.748   1.516   0.831
19922TIP3    H259644   4.620   1.435   0.826
19923TIP3   OH259645   5.482   3.923   4.429
19923TIP3    H159646   5.515   3.846   4.383
19923TIP3    H259647   5.554   3.949   4.487
19924TIP3   OH259648   7.776   8.881   6.018
19924TIP3    H159649   7.749   8.887   6.110
19924TIP3    H259650   7.855   8.935   6.013
19925TIP3   OH259651   1.146   4.572   7.285
19925TIP3    H159652   1.127   4.586   7.192
19925TIP3    H259653   1.164   4.478   7.291
19926TIP3   OH259654   6.057   7.189   0.562
19926TIP3    H159655   5.975   7.144   0.543
19926TIP3    H259656   6.032   7.281   0.572
19927TIP3   OH259657   1.416   1.990   7.235
19927TIP3    H159658   1.426   1.896   7.253
19927TIP3    H259659   1.460   2.033   7.309
19928TIP3   OH259660   8.993   5.834   2.971
19928TIP3    H159661   8.923   5.866   3.028
19928TIP3    H259662   8.949   5.771   2.913
19929TIP3   OH259663   8.808   2.503   5.875
19929TIP3    H159664   8.884   2.460   5.914
19929TIP3    H259665   8.733   2.454   5.908
19930TIP3   OH259666   3.682   8.730   5.059
19930TIP3    H159667   3.762   8.731   5.112
19930TIP3    H259668   3.640   8.647   5.080
19931TIP3   OH259669   7.480   5.884   0.458
19931TIP3    H159670   7.464   5.951   0.391
19931TIP3    H259671   7.535   5.819   0.415
19932TIP3   OH259672   4.231   3.252   2.457
19932TIP3    H159673   4.286   3.326   2.431
19932TIP3    H259674   4.254   3.183   2.395
19933TIP3   OH259675   5.875   4.187   2.314
19933TIP3    H159676   5.876   4.113   2.375
19933TIP3    H259677   5.912   4.153   2.233
19934TIP3   OH259678   5.482   0.227   5.016
19934TIP3    H159679   5.493   0.195   4.927
19934TIP3    H259680   5.389   0.213   5.036
19935TIP3   OH259681   5.535   4.593   3.889
19935TIP3    H159682   5.526   4.537   3.966
19935TIP3    H259683   5.546   4.532   3.816
19936TIP3   OH259684   0.107   5.302   3.755
19936TIP3    H159685   0.097   5.327   3.847
19936TIP3    H259686   0.037   5.348   3.709
19937TIP3   OH259687   3.549   3.644   0.896
19937TIP3    H159688   3.617   3.693   0.850
19937TIP3    H259689   3.593   3.566   0.928
19938TIP3   OH259690   5.207   2.707   3.677
19938TIP3    H159691   5.161   2.788   3.700
19938TIP3    H259692   5.298   2.723   3.704
19939TIP3   OH259693   9.207   1.898   3.929
19939TIP3    H159694   9.138   1.840   3.898
19939TIP3    H259695   9.214   1.966   3.861
19940TIP3   OH259696   5.306   4.233   0.824
19940TIP3    H159697   5.314   4.328   0.832
19940TIP3    H259698   5.222   4.220   0.780
19941TIP3   OH259699   1.483   3.578   4.314
19941TIP3    H159700   1.532   3.649   4.355
19941TIP3    H259701   1.526   3.498   4.345
19942TIP3   OH259702   2.178   4.927   2.094
19942TIP3    H159703   2.111   4.992   2.116
19942TIP3    H259704   2.162   4.907   2.002
19943TIP3   OH259705   9.206   7.096   2.360
19943TIP3    H159706   9.171   7.016   2.400
19943TIP3    H259707   9.291   7.108   2.403
19944TIP3   OH259708   0.734   3.779   4.361
19944TIP3    H159709   0.656   3.734   4.329
19944TIP3    H259710   0.807   3.733   4.320
19945TIP3   OH259711   8.113   4.955   1.977
19945TIP3    H159712   8.136   4.944   1.885
19945TIP3    H259713   8.040   5.018   1.976
19946TIP3   OH259714   7.322   8.735   7.353
19946TIP3    H159715   7.394   8.724   7.415
19946TIP3    H259716   7.348   8.684   7.277
19947TIP3   OH259717   6.678   2.397   6.376
19947TIP3    H159718   6.691   2.429   6.465
19947TIP3    H259719   6.607   2.334   6.383
19948TIP3   OH259720   1.175   8.007   4.048
19948TIP3    H159721   1.115   8.023   3.974
19948TIP3    H259722   1.227   7.931   4.021
19949TIP3   OH259723   0.982   7.792   5.315
19949TIP3    H159724   1.008   7.759   5.229
19949TIP3    H259725   0.931   7.871   5.295
19950TIP3   OH259726   3.453   4.256   4.322
19950TIP3    H159727   3.453   4.164   4.294
19950TIP3    H259728   3.406   4.302   4.252
19951TIP3   OH259729   3.566   0.360   1.461
19951TIP3    H159730   3.643   0.405   1.427
19951TIP3    H259731   3.593   0.269   1.470
19952TIP3   OH259732   2.922   3.239   3.745
19952TIP3    H159733   2.956   3.321   3.780
19952TIP3    H259734   2.843   3.264   3.696
19953TIP3   OH259735   5.352   5.998   4.843
19953TIP3    H159736   5.342   6.045   4.926
19953TIP3    H259737   5.363   6.067   4.777
19954TIP3   OH259738   7.204   3.249   0.783
19954TIP3    H159739   7.247   3.334   0.768
19954TIP3    H259740   7.128   3.269   0.837
19955TIP3   OH259741   7.208   0.466   7.278
19955TIP3    H159742   7.120   0.448   7.312
19955TIP3    H259743   7.206   0.559   7.255
19956TIP3   OH259744   2.561   6.593   4.859
19956TIP3    H159745   2.550   6.498   4.856
19956TIP3    H259746   2.472   6.627   4.865
19957TIP3   OH259747   5.613   2.936   5.160
19957TIP3    H159748   5.522   2.964   5.175
19957TIP3    H259749   5.665   3.016   5.168
19958TIP3   OH259750   6.612   5.454   1.485
19958TIP3    H159751   6.612   5.413   1.398
19958TIP3    H259752   6.704   5.477   1.501
19959TIP3   OH259753   5.436   0.554   6.108
19959TIP3    H159754   5.528   0.530   6.102
19959TIP3    H259755   5.431   0.614   6.182
19960TIP3   OH259756   8.164   4.443   1.888
19960TIP3    H159757   8.078   4.472   1.919
19960TIP3    H259758   8.221   4.519   1.901
19961TIP3   OH259759   8.366   6.405   6.133
19961TIP3    H159760   8.342   6.330   6.079
19961TIP3    H259761   8.461   6.410   6.127
19962TIP3   OH259762   0.030   7.844   4.752
19962TIP3    H159763  -0.057   7.882   4.739
19962TIP3    H259764   0.040   7.838   4.847
19963TIP3   OH259765   7.968   0.933   5.727
19963TIP3    H159766   7.901   0.865   5.715
19963TIP3    H259767   7.930   0.993   5.791
19964TIP3   OH259768   1.605   8.135   2.120
19964TIP3    H159769   1.555   8.095   2.049
19964TIP3    H259770   1.598   8.229   2.104
19965TIP3   OH259771   9.445   4.048   1.492
19965TIP3    H159772   9.531   4.062   1.453
19965TIP3    H259773   9.386   4.037   1.417
19966TIP3   OH259774   8.258   7.726   0.278
19966TIP3    H159775   8.218   7.652   0.324
19966TIP3    H259776   8.184   7.777   0.246
19967TIP3   OH259777   3.029   4.688   6.625
19967TIP3    H159778   2.989   4.648   6.703
19967TIP3    H259779   2.964   4.751   6.594
19968TIP3   OH259780   7.786   3.895   2.432
19968TIP3    H159781   7.702   3.938   2.445
19968TIP3    H259782   7.763   3.809   2.396
19969TIP3   OH259783   9.105   8.426   6.656
19969TIP3    H159784   9.096   8.439   6.750
19969TIP3    H259785   9.123   8.332   6.646
19970TIP3   OH259786   6.194   5.353   3.619
19970TIP3    H159787   6.278   5.396   3.603
19970TIP3    H259788   6.128   5.420   3.602
19971TIP3   OH259789   8.255   0.494   5.327
19971TIP3    H159790   8.201   0.497   5.407
19971TIP3    H259791   8.289   0.583   5.318
19972TIP3   OH259792   7.281   0.585   2.605
19972TIP3    H159793   7.306   0.628   2.686
19972TIP3    H259794   7.293   0.651   2.537
19973TIP3   OH259795   2.595   1.048   6.384
19973TIP3    H159796   2.546   1.043   6.301
19973TIP3    H259797   2.678   1.088   6.360
19974TIP3   OH259798   9.419   2.294   2.671
19974TIP3    H159799   9.513   2.311   2.676
19974TIP3    H259800   9.409   2.230   2.601
19975TIP3   OH259801   4.108   5.804   4.235
19975TIP3    H159802   4.124   5.749   4.312
19975TIP3    H259803   4.124   5.893   4.266
19976TIP3   OH259804   4.088   7.062   4.198
19976TIP3    H159805   4.109   6.993   4.135
19976TIP3    H259806   4.173   7.100   4.221
19977TIP3   OH259807   4.941   4.345   6.395
19977TIP3    H159808   4.882   4.312   6.327
19977TIP3    H259809   4.883   4.372   6.466
19978TIP3   OH259810   6.936   1.475   4.522
19978TIP3    H159811   6.992   1.469   4.444
19978TIP3    H259812   6.940   1.567   4.548
19979TIP3   OH259813   8.408   6.441   2.981
19979TIP3    H159814   8.471   6.369   2.974
19979TIP3    H259815   8.409   6.483   2.895
19980TIP3   OH259816   8.734   2.809   0.292
19980TIP3    H159817   8.759   2.716   0.296
19980TIP3    H259818   8.706   2.830   0.381
19981TIP3   OH259819   1.346   2.167   1.699
19981TIP3    H159820   1.433   2.203   1.683
19981TIP3    H259821   1.294   2.196   1.624
19982TIP3   OH259822   2.324   8.987   1.467
19982TIP3    H159823   2.235   8.953   1.456
19982TIP3    H259824   2.313   9.080   1.482
19983TIP3   OH259825   2.361   8.378   7.440
19983TIP3    H159826   2.320   8.316   7.379
19983TIP3    H259827   2.436   8.413   7.392
19984TIP3   OH259828   4.258   2.262   2.006
19984TIP3    H159829   4.195   2.234   1.939
19984TIP3    H259830   4.228   2.350   2.031
19985TIP3   OH259831   2.553   7.172   5.905
19985TIP3    H159832   2.491   7.222   5.852
19985TIP3    H259833   2.614   7.135   5.842
19986TIP3   OH259834   2.400   3.984   3.479
19986TIP3    H159835   2.485   3.959   3.442
19986TIP3    H259836   2.337   3.962   3.411
19987TIP3   OH259837   3.012   1.784   2.064
19987TIP3    H159838   3.075   1.777   1.992
19987TIP3    H259839   3.014   1.876   2.089
19988TIP3   OH259840   5.331   1.464   3.375
19988TIP3    H159841   5.384   1.385   3.381
19988TIP3    H259842   5.292   1.474   3.462
19989TIP3   OH259843   1.770   6.568   7.112
19989TIP3    H159844   1.818   6.507   7.168
19989TIP3    H259845   1.697   6.517   7.078
19990TIP3   OH259846   3.818   0.468   2.210
19990TIP3    H159847   3.895   0.482   2.155
19990TIP3    H259848   3.766   0.403   2.164
19991TIP3   OH259849   1.557   2.351   1.368
19991TIP3    H159850   1.533   2.443   1.352
19991TIP3    H259851   1.648   2.354   1.397
19992TIP3   OH259852   3.383   3.749   0.710
19992TIP3    H159853   3.322   3.805   0.759
19992TIP3    H259854   3.425   3.696   0.777
19993TIP3   OH259855   2.646   6.656   7.760
19993TIP3    H159856   2.596   6.657   7.678
19993TIP3    H259857   2.612   6.580   7.808
19994TIP3   OH259858   3.118   1.005   0.578
19994TIP3    H159859   3.159   1.090   0.595
19994TIP3    H259860   3.062   0.990   0.655
19995TIP3   OH259861   3.442   2.149   6.837
19995TIP3    H159862   3.429   2.065   6.881
19995TIP3    H259863   3.492   2.201   6.899
19996TIP3   OH259864   6.572   1.168   1.552
19996TIP3    H159865   6.577   1.263   1.541
19996TIP3    H259866   6.497   1.154   1.609
19997TIP3   OH259867   8.003   5.228   3.513
19997TIP3    H159868   7.909   5.239   3.498
19997TIP3    H259869   8.032   5.170   3.443
19998TIP3   OH259870   4.864   1.226   0.269
19998TIP3    H159871   4.830   1.311   0.297
19998TIP3    H259872   4.897   1.241   0.181
19999TIP3   OH259873   6.792   1.426   5.131
19999TIP3    H159874   6.827   1.493   5.189
19999TIP3    H259875   6.709   1.400   5.172
20000TIP3   OH259876   4.814   5.299   4.515
20000TIP3    H159877   4.745   5.353   4.476
20000TIP3    H259878   4.895   5.337   4.482
20001TIP3   OH259879   2.366   5.845   4.115
20001TIP3    H159880   2.312   5.770   4.088
20001TIP3    H259881   2.408   5.875   4.034
20002TIP3   OH259882   8.687   5.551   4.857
20002TIP3    H159883   8.641   5.536   4.939
20002TIP3    H259884   8.776   5.575   4.883
20003TIP3   OH259885   5.212   4.935   4.342
20003TIP3    H159886   5.239   4.851   4.305
20003TIP3    H259887   5.294   4.982   4.359
20004TIP3   OH259888   8.608   6.347   5.193
20004TIP3    H159889   8.547   6.420   5.182
20004TIP3    H259890   8.669   6.378   5.260
20005TIP3   OH259891   7.947   5.651   2.513
20005TIP3    H159892   7.902   5.601   2.444
20005TIP3    H259893   8.040   5.640   2.493
20006TIP3   OH259894   4.774   0.690   5.513
20006TIP3    H159895   4.806   0.744   5.585
20006TIP3    H259896   4.680   0.708   5.510
20007TIP3   OH259897   9.419   1.614   7.775
20007TIP3    H159898   9.411   1.600   7.680
20007TIP3    H259899   9.372   1.539   7.813
20008TIP3   OH259900   3.198   3.758   4.626
20008TIP3    H159901   3.113   3.714   4.635
20008TIP3    H259902   3.176   3.851   4.618
20009TIP3   OH259903   2.477   6.397   2.302
20009TIP3    H159904   2.395   6.361   2.270
20009TIP3    H259905   2.474   6.489   2.277
20010TIP3   OH259906   5.882   6.888   4.751
20010TIP3    H159907   5.933   6.941   4.813
20010TIP3    H259908   5.879   6.942   4.671
20011TIP3   OH259909   3.938   6.024   4.902
20011TIP3    H159910   3.873   5.973   4.853
20011TIP3    H259911   3.938   6.110   4.860
20012TIP3   OH259912   6.976   6.332   6.685
20012TIP3    H159913   6.999   6.297   6.771
20012TIP3    H259914   6.881   6.346   6.689
20013TIP3   OH259915   8.989   2.864   5.274
20013TIP3    H159916   8.921   2.798   5.258
20013TIP3    H259917   9.040   2.829   5.347
20014TIP3   OH259918   2.278   7.700   7.076
20014TIP3    H159919   2.275   7.759   7.151
20014TIP3    H259920   2.254   7.614   7.112
20015TIP3   OH259921   5.157   8.150   6.110
20015TIP3    H159922   5.203   8.199   6.178
20015TIP3    H259923   5.111   8.081   6.159
20016TIP3   OH259924   8.134   5.177   2.190
20016TIP3    H159925   8.058   5.147   2.140
20016TIP3    H259926   8.100   5.198   2.277
20017TIP3   OH259927   0.135   0.170   1.925
20017TIP3    H159928   0.051   0.185   1.969
20017TIP3    H259929   0.190   0.130   1.992
20018TIP3   OH259930   6.423   4.191   1.128
20018TIP3    H159931   6.456   4.277   1.152
20018TIP3    H259932   6.501   4.144   1.097
20019TIP3   OH259933   6.902   5.487   0.556
20019TIP3    H159934   6.810   5.468   0.576
20019TIP3    H259935   6.904   5.582   0.540
20020TIP3   OH259936   8.593   3.158   7.164
20020TIP3    H159937   8.602   3.082   7.222
20020TIP3    H259938   8.596   3.121   7.076
20021TIP3   OH259939   5.671   8.672   2.017
20021TIP3    H159940   5.590   8.702   1.977
20021TIP3    H259941   5.728   8.748   2.016
20022TIP3   OH259942   4.559   6.731   4.939
20022TIP3    H159943   4.512   6.664   4.990
20022TIP3    H259944   4.490   6.775   4.888
20023TIP3   OH259945   3.376   6.627   2.340
20023TIP3    H159946   3.419   6.545   2.316
20023TIP3    H259947   3.419   6.694   2.287
20024TIP3   OH259948   2.943   4.358   5.719
20024TIP3    H159949   2.982   4.329   5.801
20024TIP3    H259950   2.849   4.361   5.736
20025TIP3   OH259951   8.968   4.846   7.091
20025TIP3    H159952   9.019   4.804   7.022
20025TIP3    H259953   8.882   4.860   7.053
20026TIP3   OH259954   8.156   1.691   2.354
20026TIP3    H159955   8.083   1.673   2.296
20026TIP3    H259956   8.152   1.785   2.371
20027TIP3   OH259957   0.744   3.163   6.882
20027TIP3    H159958   0.793   3.159   6.965
20027TIP3    H259959   0.708   3.075   6.872
20028TIP3   OH259960   1.013   3.886   7.786
20028TIP3    H159961   0.958   3.822   7.831
20028TIP3    H259962   1.071   3.920   7.854
20029TIP3   OH259963   6.903   0.124   1.428
20029TIP3    H159964   6.906   0.081   1.342
20029TIP3    H259965   6.906   0.052   1.490
20030TIP3   OH259966   4.982   6.883   5.382
20030TIP3    H159967   4.951   6.793   5.388
20030TIP3    H259968   4.928   6.932   5.444
20031TIP3   OH259969   6.433   4.489   5.295
20031TIP3    H159970   6.478   4.570   5.271
20031TIP3    H259971   6.341   4.506   5.276
20032TIP3   OH259972   8.566   2.838   6.541
20032TIP3    H159973   8.521   2.817   6.459
20032TIP3    H259974   8.651   2.795   6.533
20033TIP3   OH259975   5.865   4.899   4.035
20033TIP3    H159976   5.818   4.854   3.964
20033TIP3    H259977   5.908   4.829   4.084
20034TIP3   OH259978   8.882   0.763   0.251
20034TIP3    H159979   8.949   0.826   0.279
20034TIP3    H259980   8.872   0.703   0.324
20035TIP3   OH259981   2.177   0.539   4.989
20035TIP3    H159982   2.211   0.626   4.966
20035TIP3    H259983   2.192   0.532   5.083
20036TIP3   OH259984   7.808   1.195   6.182
20036TIP3    H159985   7.737   1.259   6.182
20036TIP3    H259986   7.764   1.110   6.186
20037TIP3   OH259987   8.343   5.283   5.633
20037TIP3    H159988   8.251   5.281   5.660
20037TIP3    H259989   8.360   5.375   5.613
20038TIP3   OH259990   7.889   4.417   7.101
20038TIP3    H159991   7.900   4.381   7.189
20038TIP3    H259992   7.955   4.373   7.048
20039TIP3   OH259993   2.320   4.993   6.477
20039TIP3    H159994   2.378   4.960   6.409
20039TIP3    H259995   2.234   4.999   6.434
20040TIP3   OH259996   0.795   4.848   7.504
20040TIP3    H159997   0.854   4.896   7.446
20040TIP3    H259998   0.807   4.888   7.590
20041TIP3   OH259999   1.389   7.289   7.085
20041TIP3    H160000   1.479   7.265   7.063
20041TIP3    H260001   1.383   7.382   7.063
20042TIP3   OH260002   5.570   5.913   0.898
20042TIP3    H160003   5.508   5.879   0.834
20042TIP3    H260004   5.575   5.844   0.965
20043TIP3   OH260005   7.043   1.759   0.030
20043TIP3    H160006   7.014   1.816  -0.042
20043TIP3    H260007   7.116   1.709  -0.007
20044TIP3   OH260008   7.429   5.269   2.695
20044TIP3    H160009   7.514   5.236   2.665
20044TIP3    H260010   7.368   5.244   2.625
20045TIP3   OH260011   0.522   1.220   1.619
20045TIP3    H160012   0.592   1.233   1.683
20045TIP3    H260013   0.557   1.258   1.538
20046TIP3   OH260014   2.839   3.755   1.582
20046TIP3    H160015   2.904   3.821   1.556
20046TIP3    H260016   2.767   3.806   1.620
20047TIP3   OH260017   8.470   0.872   5.687
20047TIP3    H160018   8.391   0.820   5.704
20047TIP3    H260019   8.483   0.923   5.766
20048TIP3   OH260020   0.621   0.006   7.607
20048TIP3    H160021   0.669   0.048   7.679
20048TIP3    H260022   0.680   0.011   7.532
20049TIP3   OH260023   3.721   6.535   1.876
20049TIP3    H160024   3.735   6.491   1.792
20049TIP3    H260025   3.703   6.626   1.852
20050TIP3   OH260026   9.164   7.902   2.314
20050TIP3    H160027   9.076   7.936   2.299
20050TIP3    H260028   9.180   7.845   2.238
20051TIP3   OH260029   8.267   1.926   5.290
20051TIP3    H160030   8.182   1.891   5.264
20051TIP3    H260031   8.300   1.864   5.355
20052TIP3   OH260032   0.613   3.622   5.979
20052TIP3    H160033   0.572   3.708   5.979
20052TIP3    H260034   0.707   3.640   5.976
20053TIP3   OH260035   0.353   4.915   0.524
20053TIP3    H160036   0.420   4.893   0.589
20053TIP3    H260037   0.277   4.942   0.575
20054TIP3   OH260038   3.673   0.110   1.482
20054TIP3    H160039   3.686   0.018   1.460
20054TIP3    H260040   3.724   0.123   1.562
20055TIP3   OH260041   6.132   3.063   4.529
20055TIP3    H160042   6.114   3.156   4.522
20055TIP3    H260043   6.176   3.053   4.614
20056TIP3   OH260044   1.805   7.688   0.904
20056TIP3    H160045   1.865   7.729   0.840
20056TIP3    H260046   1.857   7.618   0.944
20057TIP3   OH260047   6.377   2.680   1.233
20057TIP3    H160048   6.346   2.624   1.303
20057TIP3    H260049   6.452   2.728   1.271
20058TIP3   OH260050   3.376   7.586   5.182
20058TIP3    H160051   3.303   7.616   5.238
20058TIP3    H260052   3.342   7.594   5.093
20059TIP3   OH260053   1.211   5.349   0.955
20059TIP3    H160054   1.228   5.293   0.879
20059TIP3    H260055   1.137   5.308   0.999
20060TIP3   OH260056   6.938   4.810   6.953
20060TIP3    H160057   7.026   4.840   6.975
20060TIP3    H260058   6.894   4.888   6.920
20061TIP3   OH260059   6.403   5.125   3.901
20061TIP3    H160060   6.390   5.101   3.809
20061TIP3    H260061   6.487   5.085   3.924
20062TIP3   OH260062   1.616   1.000   6.400
20062TIP3    H160063   1.634   0.906   6.396
20062TIP3    H260064   1.535   1.007   6.452
20063TIP3   OH260065   1.466   7.533   1.831
20063TIP3    H160066   1.559   7.522   1.812
20063TIP3    H260067   1.423   7.460   1.787
20064TIP3   OH260068   8.331   3.793   7.513
20064TIP3    H160069   8.312   3.702   7.491
20064TIP3    H260070   8.293   3.805   7.600
20065TIP3   OH260071   6.400   3.450   0.724
20065TIP3    H160072   6.347   3.411   0.655
20065TIP3    H260073   6.458   3.511   0.679
20066TIP3   OH260074   8.725   7.156   1.930
20066TIP3    H160075   8.779   7.187   1.858
20066TIP3    H260076   8.708   7.064   1.909
20067TIP3   OH260077   4.893   8.875   2.424
20067TIP3    H160078   4.829   8.859   2.494
20067TIP3    H260079   4.971   8.827   2.452
20068TIP3   OH260080   0.611   2.003   6.727
20068TIP3    H160081   0.544   1.963   6.783
20068TIP3    H260082   0.691   1.955   6.746
20069TIP3   OH260083   2.187   7.096   4.887
20069TIP3    H160084   2.108   7.087   4.940
20069TIP3    H260085   2.217   7.006   4.873
20070TIP3   OH260086   1.523   6.745   7.165
20070TIP3    H160087   1.597   6.752   7.225
20070TIP3    H260088   1.493   6.655   7.174
20071TIP3   OH260089   0.199   0.884   3.457
20071TIP3    H160090   0.263   0.856   3.522
20071TIP3    H260091   0.176   0.974   3.482
20072TIP3   OH260092   2.938   9.013   2.436
20072TIP3    H160093   2.934   9.087   2.496
20072TIP3    H260094   3.005   8.955   2.474
20073TIP3   OH260095   6.637   0.745   3.679
20073TIP3    H160096   6.626   0.778   3.590
20073TIP3    H260097   6.548   0.723   3.708
20074TIP3   OH260098   0.739   1.204   0.542
20074TIP3    H160099   0.720   1.200   0.636
20074TIP3    H260100   0.738   1.113   0.514
20075TIP3   OH260101   8.346   8.254   1.436
20075TIP3    H160102   8.437   8.232   1.454
20075TIP3    H260103   8.329   8.333   1.487
20076TIP3   OH260104   0.134   1.158   6.760
20076TIP3    H160105   0.070   1.088   6.747
20076TIP3    H260106   0.182   1.161   6.677
20077TIP3   OH260107   2.811   6.093   3.034
20077TIP3    H160108   2.783   6.150   2.962
20077TIP3    H260109   2.810   6.150   3.111
20078TIP3   OH260110   1.727   8.111   4.535
20078TIP3    H160111   1.670   8.155   4.599
20078TIP3    H260112   1.668   8.053   4.487
20079TIP3   OH260113   7.495   0.940   7.628
20079TIP3    H160114   7.452   1.009   7.679
20079TIP3    H260115   7.531   0.881   7.694
20080TIP3   OH260116   0.476   0.275   4.401
20080TIP3    H160117   0.507   0.301   4.314
20080TIP3    H260118   0.382   0.292   4.399
20081TIP3   OH260119   2.426   8.284   1.445
20081TIP3    H160120   2.414   8.199   1.402
20081TIP3    H260121   2.415   8.348   1.376
20082TIP3   OH260122   6.536   1.794   6.948
20082TIP3    H160123   6.493   1.838   6.874
20082TIP3    H260124   6.603   1.739   6.907
20083TIP3   OH260125   3.200   2.713   0.177
20083TIP3    H160126   3.146   2.721   0.099
20083TIP3    H260127   3.138   2.720   0.250
20084TIP3   OH260128   8.085   5.927   5.911
20084TIP3    H160129   8.014   5.948   5.972
20084TIP3    H260130   8.067   5.836   5.885
20085TIP3   OH260131   0.762   7.527   7.642
20085TIP3    H160132   0.689   7.588   7.640
20085TIP3    H260133   0.737   7.461   7.707
20086TIP3   OH260134   0.333   3.021   3.402
20086TIP3    H160135   0.258   2.965   3.384
20086TIP3    H260136   0.409   2.969   3.374
20087TIP3   OH260137   6.193   2.839   5.390
20087TIP3    H160138   6.116   2.832   5.333
20087TIP3    H260139   6.158   2.870   5.473
20088TIP3   OH260140   1.027   8.842   5.074
20088TIP3    H160141   1.026   8.834   5.169
20088TIP3    H260142   1.114   8.809   5.048
20089TIP3   OH260143   1.925   3.700   2.899
20089TIP3    H160144   1.967   3.652   2.970
20089TIP3    H260145   1.912   3.788   2.934
20090TIP3   OH260146   5.484   8.493   1.008
20090TIP3    H160147   5.443   8.492   1.095
20090TIP3    H260148   5.501   8.586   0.991
20091TIP3   OH260149   3.495   3.011   3.909
20091TIP3    H160150   3.579   2.986   3.869
20091TIP3    H260151   3.445   2.930   3.913
20092TIP3   OH260152   2.669   1.164   7.325
20092TIP3    H160153   2.663   1.252   7.287
20092TIP3    H260154   2.756   1.133   7.300
20093TIP3   OH260155   9.245   8.673   2.716
20093TIP3    H160156   9.175   8.642   2.658
20093TIP3    H260157   9.224   8.636   2.801
20094TIP3   OH260158   0.793   8.354   1.917
20094TIP3    H160159   0.720   8.415   1.929
20094TIP3    H260160   0.769   8.303   1.839
20095TIP3   OH260161   8.704   0.611   1.739
20095TIP3    H160162   8.778   0.591   1.682
20095TIP3    H260163   8.710   0.547   1.810
20096TIP3   OH260164   3.467   5.459   2.054
20096TIP3    H160165   3.444   5.508   1.975
20096TIP3    H260166   3.464   5.523   2.125
20097TIP3   OH260167   8.341   4.040   3.902
20097TIP3    H160168   8.278   4.112   3.898
20097TIP3    H260169   8.291   3.963   3.875
20098TIP3   OH260170   1.461   2.681   6.944
20098TIP3    H160171   1.515   2.760   6.944
20098TIP3    H260172   1.454   2.657   6.852
20099TIP3   OH260173   0.069   8.651   3.050
20099TIP3    H160174   0.091   8.605   2.969
20099TIP3    H260175   0.150   8.694   3.076
20100TIP3   OH260176   5.448   5.362   1.242
20100TIP3    H160177   5.408   5.446   1.265
20100TIP3    H260178   5.423   5.303   1.313
20101TIP3   OH260179   2.767   1.724   3.564
20101TIP3    H160180   2.774   1.681   3.649
20101TIP3    H260181   2.770   1.818   3.583
20102TIP3   OH260182   7.483   0.230   5.107
20102TIP3    H160183   7.458   0.268   5.191
20102TIP3    H260184   7.429   0.152   5.099
20103TIP3   OH260185   3.237   2.458   7.655
20103TIP3    H160186   3.299   2.507   7.601
20103TIP3    H260187   3.191   2.402   7.592
20104TIP3   OH260188   4.286   8.046   4.161
20104TIP3    H160189   4.318   8.024   4.074
20104TIP3    H260190   4.266   8.140   4.156
20105TIP3   OH260191   2.090   2.842   6.722
20105TIP3    H160192   2.173   2.802   6.746
20105TIP3    H260193   2.104   2.936   6.733
20106TIP3   OH260194   1.276   4.215   1.171
20106TIP3    H160195   1.227   4.284   1.217
20106TIP3    H260196   1.358   4.256   1.146
20107TIP3   OH260197   9.158   8.962   0.580
20107TIP3    H160198   9.179   9.039   0.634
20107TIP3    H260199   9.231   8.901   0.596
20108TIP3   OH260200   2.541   8.980   5.845
20108TIP3    H160201   2.485   9.015   5.913
20108TIP3    H260202   2.529   8.885   5.851
20109TIP3   OH260203   4.645   3.900   1.830
20109TIP3    H160204   4.574   3.934   1.775
20109TIP3    H260205   4.724   3.940   1.794
20110TIP3   OH260206   8.015   8.918   6.896
20110TIP3    H160207   7.995   8.832   6.933
20110TIP3    H260208   8.052   8.899   6.810
20111TIP3   OH260209   2.504   6.168   3.131
20111TIP3    H160210   2.519   6.261   3.112
20111TIP3    H260211   2.429   6.145   3.078
20112TIP3   OH260212   8.176   5.223   4.678
20112TIP3    H160213   8.167   5.224   4.583
20112TIP3    H260214   8.237   5.152   4.696
20113TIP3   OH260215   1.707   8.290   0.151
20113TIP3    H160216   1.774   8.259   0.212
20113TIP3    H260217   1.756   8.317   0.073
20114TIP3   OH260218   4.509   3.396   2.215
20114TIP3    H160219   4.445   3.349   2.161
20114TIP3    H260220   4.456   3.445   2.278
20115TIP3   OH260221   5.607   0.715   4.758
20115TIP3    H160222   5.606   0.693   4.851
20115TIP3    H260223   5.692   0.755   4.744
20116TIP3   OH260224   5.041   4.452   5.718
20116TIP3    H160225   5.102   4.386   5.684
20116TIP3    H260226   5.076   4.535   5.687
20117TIP3   OH260227   5.088   8.728   2.554
20117TIP3    H160228   5.095   8.643   2.511
20117TIP3    H260229   5.174   8.767   2.543
20118TIP3   OH260230   6.778   4.508   1.950
20118TIP3    H160231   6.841   4.437   1.936
20118TIP3    H260232   6.769   4.549   1.864
20119TIP3   OH260233   4.299   1.077   1.394
20119TIP3    H160234   4.280   1.170   1.381
20119TIP3    H260235   4.374   1.059   1.337
20120TIP3   OH260236   2.746   1.025   1.468
20120TIP3    H160237   2.813   0.975   1.421
20120TIP3    H260238   2.711   0.964   1.532
20121TIP3   OH260239   8.880   2.310   0.721
20121TIP3    H160240   8.871   2.231   0.775
20121TIP3    H260241   8.971   2.308   0.691
20122TIP3   OH260242   4.551   4.402   5.599
20122TIP3    H160243   4.579   4.492   5.614
20122TIP3    H260244   4.476   4.390   5.657
20123TIP3   OH260245   2.054   5.064   5.279
20123TIP3    H160246   2.023   5.014   5.355
20123TIP3    H260247   2.115   5.128   5.316
20124TIP3   OH260248   8.526   6.504   5.491
20124TIP3    H160249   8.565   6.591   5.484
20124TIP3    H260250   8.463   6.500   5.419
20125TIP3   OH260251   2.975   5.547   1.195
20125TIP3    H160252   3.031   5.622   1.179
20125TIP3    H260253   2.921   5.539   1.116
20126TIP3   OH260254   8.455   3.093   6.533
20126TIP3    H160255   8.493   3.006   6.533
20126TIP3    H260256   8.450   3.118   6.440
20127TIP3   OH260257   4.210   0.243   2.524
20127TIP3    H160258   4.231   0.211   2.612
20127TIP3    H260259   4.124   0.284   2.533
20128TIP3   OH260260   3.680   4.917   2.299
20128TIP3    H160261   3.636   4.838   2.330
20128TIP3    H260262   3.722   4.890   2.217
20129TIP3   OH260263   8.440   5.331   2.249
20129TIP3    H160264   8.384   5.387   2.196
20129TIP3    H260265   8.424   5.360   2.339
20130TIP3   OH260266   6.314   6.111   0.978
20130TIP3    H160267   6.265   6.182   0.936
20130TIP3    H260268   6.294   6.120   1.071
20131TIP3   OH260269   9.105   8.033   1.239
20131TIP3    H160270   9.075   8.023   1.329
20131TIP3    H260271   9.051   8.104   1.203
20132TIP3   OH260272   1.803   5.205   3.536
20132TIP3    H160273   1.743   5.134   3.557
20132TIP3    H260274   1.836   5.235   3.621
20133TIP3   OH260275   2.546   0.475   1.570
20133TIP3    H160276   2.512   0.406   1.512
20133TIP3    H260277   2.468   0.522   1.599
20134TIP3   OH260278   7.560   2.322   0.536
20134TIP3    H160279   7.513   2.270   0.471
20134TIP3    H260280   7.588   2.401   0.489
20135TIP3   OH260281   8.944   2.657   2.990
20135TIP3    H160282   9.009   2.612   3.044
20135TIP3    H260283   8.876   2.592   2.975
20136TIP3   OH260284   4.624   7.573   0.466
20136TIP3    H160285   4.566   7.577   0.390
20136TIP3    H260286   4.571   7.531   0.535
20137TIP3   OH260287   4.118   1.420   6.416
20137TIP3    H160288   4.092   1.344   6.363
20137TIP3    H260289   4.125   1.386   6.505
20138TIP3   OH260290   4.210   6.570   0.238
20138TIP3    H160291   4.270   6.637   0.206
20138TIP3    H260292   4.267   6.506   0.281
20139TIP3   OH260293   8.338   5.222   6.868
20139TIP3    H160294   8.412   5.225   6.929
20139TIP3    H260295   8.341   5.307   6.823
20140TIP3   OH260296   7.222   5.464   4.929
20140TIP3    H160297   7.275   5.541   4.911
20140TIP3    H260298   7.154   5.495   4.988
20141TIP3   OH260299   3.842   2.010   6.607
20141TIP3    H160300   3.811   2.090   6.649
20141TIP3    H260301   3.936   2.008   6.625
20142TIP3   OH260302   4.438   0.203   4.766
20142TIP3    H160303   4.531   0.216   4.745
20142TIP3    H260304   4.412   0.128   4.712
20143TIP3   OH260305   1.672   8.681   5.815
20143TIP3    H160306   1.690   8.587   5.821
20143TIP3    H260307   1.654   8.696   5.723
20144TIP3   OH260308   7.793   6.128   1.651
20144TIP3    H160309   7.869   6.095   1.700
20144TIP3    H260310   7.821   6.214   1.619
20145TIP3   OH260311   4.333   0.163   1.038
20145TIP3    H160312   4.362   0.238   1.090
20145TIP3    H260313   4.301   0.202   0.957
20146TIP3   OH260314   7.169   8.622   6.314
20146TIP3    H160315   7.177   8.655   6.224
20146TIP3    H260316   7.079   8.589   6.319
20147TIP3   OH260317   5.950   6.345   5.121
20147TIP3    H160318   5.956   6.430   5.078
20147TIP3    H260319   6.034   6.334   5.165
20148TIP3   OH260320   6.476   8.960   1.081
20148TIP3    H160321   6.435   8.880   1.046
20148TIP3    H260322   6.479   9.020   1.007
20149TIP3   OH260323   0.541   8.205   0.850
20149TIP3    H160324   0.463   8.256   0.873
20149TIP3    H260325   0.549   8.140   0.920
20150TIP3   OH260326   2.341   6.125   6.049
20150TIP3    H160327   2.411   6.070   6.013
20150TIP3    H260328   2.303   6.168   5.972
20151TIP3   OH260329   6.076   3.993   5.433
20151TIP3    H160330   6.041   3.952   5.354
20151TIP3    H260331   6.002   4.040   5.471
20152TIP3   OH260332   2.212   1.153   1.967
20152TIP3    H160333   2.204   1.163   1.872
20152TIP3    H260334   2.296   1.193   1.989
20153TIP3   OH260335   5.992   0.098   4.241
20153TIP3    H160336   6.014   0.079   4.332
20153TIP3    H260337   5.915   0.044   4.223
20154TIP3   OH260338   3.016   8.209   0.940
20154TIP3    H160339   3.005   8.198   0.845
20154TIP3    H260340   3.107   8.235   0.951
20155TIP3   OH260341   7.537   7.851   0.080
20155TIP3    H160342   7.606   7.795   0.114
20155TIP3    H260343   7.456   7.815   0.115
20156TIP3   OH260344   6.251   8.891   7.753
20156TIP3    H160345   6.316   8.889   7.823
20156TIP3    H260346   6.299   8.866   7.674
20157TIP3   OH260347   5.488   2.684   3.426
20157TIP3    H160348   5.415   2.658   3.369
20157TIP3    H260349   5.541   2.742   3.371
20158TIP3   OH260350   8.569   5.591   1.240
20158TIP3    H160351   8.601   5.531   1.307
20158TIP3    H260352   8.493   5.634   1.279
20159TIP3   OH260353   7.818   1.939   7.513
20159TIP3    H160354   7.726   1.915   7.501
20159TIP3    H260355   7.866   1.856   7.504
20160TIP3   OH260356   5.837   8.891   2.067
20160TIP3    H160357   5.926   8.893   2.031
20160TIP3    H260358   5.846   8.927   2.155
20161TIP3   OH260359   6.801   1.866   6.573
20161TIP3    H160360   6.735   1.835   6.511
20161TIP3    H260361   6.772   1.833   6.658
20162TIP3   OH260362   2.978   8.700   4.176
20162TIP3    H160363   2.916   8.740   4.115
20162TIP3    H260364   2.974   8.756   4.253
20163TIP3   OH260365   9.313   3.959   6.077
20163TIP3    H160366   9.321   4.035   6.019
20163TIP3    H260367   9.301   3.885   6.018
20164TIP3   OH260368   0.051   1.870   6.083
20164TIP3    H160369   0.015   1.781   6.088
20164TIP3    H260370  -0.013   1.923   6.131
20165TIP3   OH260371   4.316   0.700   3.105
20165TIP3    H160372   4.277   0.787   3.098
20165TIP3    H260373   4.293   0.657   3.023
20166TIP3   OH260374   6.581   6.686   5.322
20166TIP3    H160375   6.536   6.669   5.405
20166TIP3    H260376   6.626   6.770   5.336
20167TIP3   OH260377   4.055   3.164   0.925
20167TIP3    H160378   3.988   3.143   0.990
20167TIP3    H260379   4.065   3.083   0.875
20168TIP3   OH260380   4.556   8.265   2.574
20168TIP3    H160381   4.472   8.238   2.610
20168TIP3    H260382   4.561   8.359   2.589
20169TIP3   OH260383   0.074   1.472   0.705
20169TIP3    H160384   0.094   1.382   0.728
20169TIP3    H260385   0.157   1.519   0.720
20170TIP3   OH260386   7.443   3.056   1.751
20170TIP3    H160387   7.537   3.041   1.749
20170TIP3    H260388   7.412   3.021   1.668
20171TIP3   OH260389   3.178   3.634   0.978
20171TIP3    H160390   3.113   3.666   1.040
20171TIP3    H260391   3.205   3.711   0.929
20172TIP3   OH260392   4.400   5.291   7.089
20172TIP3    H160393   4.432   5.250   7.170
20172TIP3    H260394   4.371   5.217   7.035
20173TIP3   OH260395   7.550   6.296   1.460
20173TIP3    H160396   7.628   6.309   1.406
20173TIP3    H260397   7.567   6.215   1.508
20174TIP3   OH260398   8.382   8.494   3.740
20174TIP3    H160399   8.322   8.442   3.794
20174TIP3    H260400   8.469   8.479   3.779
20175TIP3   OH260401   2.245   7.977   3.836
20175TIP3    H160402   2.219   8.060   3.875
20175TIP3    H260403   2.317   8.000   3.777
20176TIP3   OH260404   2.727   5.467   6.788
20176TIP3    H160405   2.642   5.459   6.745
20176TIP3    H260406   2.721   5.408   6.863
20177TIP3   OH260407   3.545   3.699   0.513
20177TIP3    H160408   3.481   3.747   0.566
20177TIP3    H260409   3.507   3.697   0.425
20178TIP3   OH260410   1.939   6.521   0.976
20178TIP3    H160411   1.991   6.484   0.905
20178TIP3    H260412   1.915   6.609   0.946
20179TIP3   OH260413   5.370   3.292   6.212
20179TIP3    H160414   5.412   3.352   6.151
20179TIP3    H260415   5.442   3.253   6.261
20180TIP3   OH260416   2.876   7.145   0.969
20180TIP3    H160417   2.905   7.236   0.955
20180TIP3    H260418   2.812   7.151   1.040
20181TIP3   OH260419   8.405   2.408   7.706
20181TIP3    H160420   8.373   2.320   7.687
20181TIP3    H260421   8.440   2.440   7.622
20182TIP3   OH260422   4.251   6.743   5.058
20182TIP3    H160423   4.201   6.753   5.140
20182TIP3    H260424   4.325   6.687   5.082
20183TIP3   OH260425   0.126   8.791   6.644
20183TIP3    H160426   0.033   8.806   6.661
20183TIP3    H260427   0.130   8.774   6.550
20184TIP3   OH260428   0.429   8.024   5.723
20184TIP3    H160429   0.354   8.082   5.738
20184TIP3    H260430   0.464   8.051   5.639
20185TIP3   OH260431   6.987   7.871   0.775
20185TIP3    H160432   7.071   7.911   0.754
20185TIP3    H260433   7.001   7.777   0.763
20186TIP3   OH260434   8.702   7.865   1.285
20186TIP3    H160435   8.616   7.840   1.250
20186TIP3    H260436   8.697   7.844   1.378
20187TIP3   OH260437   1.671   4.732   4.058
20187TIP3    H160438   1.606   4.772   4.000
20187TIP3    H260439   1.633   4.649   4.085
20188TIP3   OH260440   7.600   3.963   6.307
20188TIP3    H160441   7.572   4.049   6.336
20188TIP3    H260442   7.633   3.977   6.218
20189TIP3   OH260443   7.585   1.739   4.428
20189TIP3    H160444   7.502   1.734   4.380
20189TIP3    H260445   7.635   1.663   4.397
20190TIP3   OH260446   9.089   1.061   3.872
20190TIP3    H160447   9.032   1.084   3.799
20190TIP3    H260448   9.040   1.089   3.950
20191TIP3   OH260449   8.645   8.208   1.788
20191TIP3    H160450   8.720   8.260   1.816
20191TIP3    H260451   8.569   8.255   1.821
20192TIP3   OH260452   6.228   8.337   2.111
20192TIP3    H160453   6.265   8.394   2.044
20192TIP3    H260454   6.147   8.380   2.138
20193TIP3   OH260455   1.862   2.142   6.581
20193TIP3    H160456   1.924   2.154   6.509
20193TIP3    H260457   1.809   2.067   6.556
20194TIP3   OH260458   8.589   3.520   4.724
20194TIP3    H160459   8.573   3.442   4.672
20194TIP3    H260460   8.684   3.525   4.732
20195TIP3   OH260461   0.769   2.547   6.282
20195TIP3    H160462   0.808   2.463   6.304
20195TIP3    H260463   0.706   2.564   6.352
20196TIP3   OH260464   2.196   6.732   4.083
20196TIP3    H160465   2.189   6.699   3.993
20196TIP3    H260466   2.205   6.654   4.137
20197TIP3   OH260467   9.335   1.154   3.379
20197TIP3    H160468   9.380   1.232   3.412
20197TIP3    H260469   9.313   1.176   3.288
20198TIP3   OH260470   6.904   5.388   4.328
20198TIP3    H160471   6.979   5.336   4.359
20198TIP3    H260472   6.829   5.330   4.337
20199TIP3   OH260473   5.570   5.645   3.603
20199TIP3    H160474   5.475   5.645   3.590
20199TIP3    H260475   5.581   5.621   3.695
20200TIP3   OH260476   1.694   4.155   6.254
20200TIP3    H160477   1.629   4.092   6.285
20200TIP3    H260478   1.775   4.132   6.300
20201TIP3   OH260479   0.465   7.604   4.749
20201TIP3    H160480   0.536   7.662   4.719
20201TIP3    H260481   0.403   7.663   4.791
20202TIP3   OH260482   5.584   2.040   2.552
20202TIP3    H160483   5.677   2.018   2.557
20202TIP3    H260484   5.578   2.106   2.483
20203TIP3   OH260485   9.063   8.485   0.194
20203TIP3    H160486   9.060   8.576   0.226
20203TIP3    H260487   8.982   8.475   0.144
20204TIP3   OH260488   6.766   1.486   6.447
20204TIP3    H160489   6.710   1.535   6.388
20204TIP3    H260490   6.744   1.394   6.430
20205TIP3   OH260491   8.545   8.476   7.652
20205TIP3    H160492   8.628   8.498   7.692
20205TIP3    H260493   8.564   8.399   7.598
20206TIP3   OH260494   6.246   1.493   1.641
20206TIP3    H160495   6.304   1.561   1.675
20206TIP3    H260496   6.171   1.541   1.604
20207TIP3   OH260497   1.386   6.819   7.660
20207TIP3    H160498   1.443   6.773   7.599
20207TIP3    H260499   1.360   6.898   7.613
20208TIP3   OH260500   2.155   5.448   3.252
20208TIP3    H160501   2.136   5.487   3.166
20208TIP3    H260502   2.130   5.516   3.315
20209TIP3   OH260503   8.578   6.384   6.905
20209TIP3    H160504   8.538   6.310   6.951
20209TIP3    H260505   8.568   6.363   6.812
20210TIP3   OH260506   8.940   1.208   3.353
20210TIP3    H160507   8.991   1.275   3.398
20210TIP3    H260508   8.857   1.251   3.332
20211TIP3   OH260509   0.395   6.860   6.884
20211TIP3    H160510   0.334   6.919   6.928
20211TIP3    H260511   0.396   6.781   6.939
20212TIP3   OH260512   1.868   1.114   3.142
20212TIP3    H160513   1.901   1.158   3.063
20212TIP3    H260514   1.782   1.151   3.156
20213TIP3   OH260515   0.025   1.736   3.865
20213TIP3    H160516  -0.028   1.726   3.944
20213TIP3    H260517   0.048   1.647   3.841
20214TIP3   OH260518   7.140   6.280   1.694
20214TIP3    H160519   7.197   6.224   1.747
20214TIP3    H260520   7.080   6.219   1.651
20215TIP3   OH260521   0.912   3.340   7.068
20215TIP3    H160522   0.917   3.303   7.156
20215TIP3    H260523   0.973   3.414   7.070
20216TIP3   OH260524   1.493   3.570   0.954
20216TIP3    H160525   1.398   3.571   0.965
20216TIP3    H260526   1.508   3.627   0.878
20217TIP3   OH260527   4.532   3.164   6.911
20217TIP3    H160528   4.545   3.194   7.001
20217TIP3    H260529   4.519   3.069   6.920
20218TIP3   OH260530   0.466   1.621   7.676
20218TIP3    H160531   0.433   1.585   7.593
20218TIP3    H260532   0.415   1.701   7.689
20219TIP3   OH260533   6.998   3.787   0.448
20219TIP3    H160534   7.018   3.724   0.517
20219TIP3    H260535   7.030   3.745   0.368
20220TIP3   OH260536   7.773   4.964   6.443
20220TIP3    H160537   7.846   5.009   6.486
20220TIP3    H260538   7.703   4.966   6.508
20221TIP3   OH260539   0.651   2.738   5.942
20221TIP3    H160540   0.612   2.825   5.946
20221TIP3    H260541   0.661   2.720   5.849
20222TIP3   OH260542   5.534   0.145   4.163
20222TIP3    H160543   5.508   0.153   4.255
20222TIP3    H260544   5.599   0.075   4.163
20223TIP3   OH260545   4.374   1.599   0.486
20223TIP3    H160546   4.466   1.627   0.491
20223TIP3    H260547   4.370   1.523   0.544
20224TIP3   OH260548   4.113   1.484   4.103
20224TIP3    H160549   4.194   1.453   4.145
20224TIP3    H260550   4.128   1.470   4.010
20225TIP3   OH260551   2.027   1.857   0.650
20225TIP3    H160552   2.061   1.845   0.561
20225TIP3    H260553   1.948   1.910   0.639
20226TIP3   OH260554   4.686   8.526   4.526
20226TIP3    H160555   4.712   8.542   4.617
20226TIP3    H260556   4.686   8.613   4.486
20227TIP3   OH260557   8.518   4.970   4.454
20227TIP3    H160558   8.485   4.937   4.370
20227TIP3    H260559   8.467   5.049   4.471
20228TIP3   OH260560   3.968   1.372   6.125
20228TIP3    H160561   3.970   1.309   6.197
20228TIP3    H260562   3.984   1.321   6.046
20229TIP3   OH260563   6.550   0.551   3.295
20229TIP3    H160564   6.514   0.601   3.222
20229TIP3    H260565   6.479   0.493   3.322
20230TIP3   OH260566   1.153   0.948   4.581
20230TIP3    H160567   1.238   0.906   4.569
20230TIP3    H260568   1.107   0.935   4.498
20231TIP3   OH260569   6.916   6.082   0.210
20231TIP3    H160570   7.011   6.082   0.220
20231TIP3    H260571   6.902   6.106   0.118
20232TIP3   OH260572   0.683   6.922   5.351
20232TIP3    H160573   0.658   6.865   5.424
20232TIP3    H260574   0.649   7.008   5.375
20233TIP3   OH260575   5.863   1.421   7.435
20233TIP3    H160576   5.826   1.464   7.358
20233TIP3    H260577   5.830   1.331   7.430
20234TIP3   OH260578   2.842   6.869   0.307
20234TIP3    H160579   2.766   6.898   0.258
20234TIP3    H260580   2.901   6.945   0.307
20235TIP3   OH260581   5.456   8.408   4.633
20235TIP3    H160582   5.428   8.486   4.585
20235TIP3    H260583   5.524   8.369   4.578
20236TIP3   OH260584   4.818   6.693   5.010
20236TIP3    H160585   4.768   6.753   5.065
20236TIP3    H260586   4.760   6.617   5.000
20237TIP3   OH260587   0.726   3.679   7.553
20237TIP3    H160588   0.790   3.747   7.575
20237TIP3    H260589   0.720   3.681   7.458
20238TIP3   OH260590   5.773   7.942   1.644
20238TIP3    H160591   5.754   8.032   1.671
20238TIP3    H260592   5.864   7.945   1.612
20239TIP3   OH260593   6.150   4.063   6.769
20239TIP3    H160594   6.208   4.136   6.746
20239TIP3    H260595   6.112   4.088   6.853
20240TIP3   OH260596   7.569   2.529   2.681
20240TIP3    H160597   7.623   2.608   2.681
20240TIP3    H260598   7.631   2.457   2.668
20241TIP3   OH260599   1.490   7.116   6.656
20241TIP3    H160600   1.538   7.117   6.738
20241TIP3    H260601   1.454   7.205   6.647
20242TIP3   OH260602   6.723   1.762   1.496
20242TIP3    H160603   6.660   1.822   1.457
20242TIP3    H260604   6.743   1.699   1.427
20243TIP3   OH260605   8.446   4.933   1.488
20243TIP3    H160606   8.497   4.993   1.434
20243TIP3    H260607   8.457   4.848   1.447
20244TIP3   OH260608   9.249   6.569   5.524
20244TIP3    H160609   9.343   6.577   5.539
20244TIP3    H260610   9.230   6.476   5.535
20245TIP3   OH260611   4.815   5.424   3.466
20245TIP3    H160612   4.908   5.433   3.445
20245TIP3    H260613   4.771   5.416   3.381
20246TIP3   OH260614   2.515   6.323   4.801
20246TIP3    H160615   2.463   6.321   4.881
20246TIP3    H260616   2.519   6.232   4.772
20247TIP3   OH260617   1.729   1.100   5.459
20247TIP3    H160618   1.753   1.011   5.434
20247TIP3    H260619   1.747   1.104   5.552
20248TIP3   OH260620   5.338   7.977   6.343
20248TIP3    H160621   5.305   7.908   6.401
20248TIP3    H260622   5.367   7.931   6.264
20249TIP3   OH260623   9.381   2.616   3.832
20249TIP3    H160624   9.382   2.600   3.926
20249TIP3    H260625   9.302   2.570   3.801
20250TIP3   OH260626   4.031   0.498   3.720
20250TIP3    H160627   4.007   0.533   3.634
20250TIP3    H260628   4.092   0.427   3.699
20251TIP3   OH260629   0.780   1.689   0.502
20251TIP3    H160630   0.699   1.656   0.541
20251TIP3    H260631   0.850   1.642   0.546
20252TIP3   OH260632   0.189   2.782   2.566
20252TIP3    H160633   0.139   2.755   2.489
20252TIP3    H260634   0.149   2.733   2.638
20253TIP3   OH260635   8.274   4.043   1.495
20253TIP3    H160636   8.192   4.071   1.537
20253TIP3    H260637   8.327   4.123   1.490
20254TIP3   OH260638   2.353   4.211   1.438
20254TIP3    H160639   2.398   4.141   1.390
20254TIP3    H260640   2.407   4.288   1.423
20255TIP3   OH260641   0.824   1.012   3.533
20255TIP3    H160642   0.814   0.916   3.530
20255TIP3    H260643   0.738   1.045   3.507
20256TIP3   OH260644   8.587   5.936   1.681
20256TIP3    H160645   8.591   6.032   1.687
20256TIP3    H260646   8.656   5.906   1.741
20257TIP3   OH260647   8.945   2.932   5.572
20257TIP3    H160648   8.964   2.891   5.656
20257TIP3    H260649   8.898   3.012   5.595
20258TIP3   OH260650   5.602   8.993   4.282
20258TIP3    H160651   5.671   8.927   4.292
20258TIP3    H260652   5.647   9.068   4.242
20259TIP3   OH260653   2.628   8.125   5.605
20259TIP3    H160654   2.569   8.183   5.557
20259TIP3    H260655   2.585   8.110   5.689
20260TIP3   OH260656   2.272   7.805   1.037
20260TIP3    H160657   2.213   7.860   1.089
20260TIP3    H260658   2.331   7.766   1.102
20261TIP3   OH260659   1.948   3.576   4.666
20261TIP3    H160660   1.952   3.487   4.630
20261TIP3    H260661   1.947   3.563   4.761
20262TIP3   OH260662   1.390   5.300   7.212
20262TIP3    H160663   1.464   5.350   7.176
20262TIP3    H260664   1.356   5.250   7.138
20263TIP3   OH260665   6.919   2.179   4.779
20263TIP3    H160666   6.909   2.229   4.860
20263TIP3    H260667   6.892   2.239   4.710
20264TIP3   OH260668   3.762   7.791   6.107
20264TIP3    H160669   3.822   7.737   6.158
20264TIP3    H260670   3.691   7.732   6.083
20265TIP3   OH260671   3.537   1.394   2.632
20265TIP3    H160672   3.446   1.365   2.626
20265TIP3    H260673   3.587   1.314   2.646
20266TIP3   OH260674   3.633   7.041   7.683
20266TIP3    H160675   3.629   7.133   7.711
20266TIP3    H260676   3.599   6.992   7.758
20267TIP3   OH260677   7.744   1.352   5.144
20267TIP3    H160678   7.661   1.321   5.109
20267TIP3    H260679   7.793   1.381   5.067
20268TIP3   OH260680   6.160   6.718   3.389
20268TIP3    H160681   6.175   6.637   3.439
20268TIP3    H260682   6.088   6.762   3.435
20269TIP3   OH260683   7.335   0.860   7.025
20269TIP3    H160684   7.260   0.817   6.985
20269TIP3    H260685   7.298   0.923   7.086
20270TIP3   OH260686   3.768   2.554   6.856
20270TIP3    H160687   3.772   2.464   6.824
20270TIP3    H260688   3.686   2.559   6.904
20271TIP3   OH260689   2.809   7.790   1.595
20271TIP3    H160690   2.865   7.863   1.623
20271TIP3    H260691   2.870   7.716   1.587
20272TIP3   OH260692   9.282   0.113   0.686
20272TIP3    H160693   9.260   0.205   0.697
20272TIP3    H260694   9.355   0.112   0.624
20273TIP3   OH260695   5.428   8.325   6.957
20273TIP3    H160696   5.341   8.328   6.917
20273TIP3    H260697   5.437   8.235   6.987
20274TIP3   OH260698   1.018   0.957   4.339
20274TIP3    H160699   0.940   0.910   4.309
20274TIP3    H260700   0.996   1.050   4.328
20275TIP3   OH260701   1.203   4.087   4.604
20275TIP3    H160702   1.282   4.109   4.555
20275TIP3    H260703   1.202   4.148   4.678
20276TIP3   OH260704   6.023   0.077   6.227
20276TIP3    H160705   6.007   0.002   6.169
20276TIP3    H260706   5.967   0.146   6.193
20277TIP3   OH260707   5.753   2.266   2.945
20277TIP3    H160708   5.835   2.311   2.965
20277TIP3    H260709   5.780   2.177   2.923
20278TIP3   OH260710   7.362   6.400   5.990
20278TIP3    H160711   7.309   6.433   6.062
20278TIP3    H260712   7.305   6.404   5.913
20279TIP3   OH260713   7.818   8.300   4.490
20279TIP3    H160714   7.738   8.270   4.448
20279TIP3    H260715   7.797   8.305   4.583
20280TIP3   OH260716   2.843   5.676   3.593
20280TIP3    H160717   2.794   5.738   3.647
20280TIP3    H260718   2.896   5.627   3.656
20281TIP3   OH260719   2.220   2.116   7.690
20281TIP3    H160720   2.163   2.076   7.756
20281TIP3    H260721   2.161   2.166   7.634
20282TIP3   OH260722   3.883   6.555   5.857
20282TIP3    H160723   3.788   6.563   5.849
20282TIP3    H260724   3.896   6.507   5.939
20283TIP3   OH260725   7.591   3.678   5.173
20283TIP3    H160726   7.662   3.705   5.114
20283TIP3    H260727   7.601   3.734   5.250
20284TIP3   OH260728   5.060   8.578   7.348
20284TIP3    H160729   4.967   8.564   7.366
20284TIP3    H260730   5.061   8.653   7.288
20285TIP3   OH260731   5.443   5.422   0.395
20285TIP3    H160732   5.386   5.499   0.389
20285TIP3    H260733   5.498   5.426   0.317
20286TIP3   OH260734   4.822   0.982   4.683
20286TIP3    H160735   4.759   1.007   4.750
20286TIP3    H260736   4.818   0.887   4.680
20287TIP3   OH260737   8.006   4.509   2.969
20287TIP3    H160738   7.939   4.454   2.929
20287TIP3    H260739   7.994   4.496   3.064
20288TIP3   OH260740   8.392   2.238   2.869
20288TIP3    H160741   8.302   2.235   2.900
20288TIP3    H260742   8.420   2.328   2.885
20289TIP3   OH260743   5.031   8.390   0.078
20289TIP3    H160744   4.986   8.345   0.006
20289TIP3    H260745   5.116   8.415   0.041
20290TIP3   OH260746   8.452   1.867   3.969
20290TIP3    H160747   8.524   1.916   3.928
20290TIP3    H260748   8.404   1.829   3.895
20291TIP3   OH260749   4.580   1.910   5.167
20291TIP3    H160750   4.655   1.858   5.142
20291TIP3    H260751   4.559   1.962   5.090
20292TIP3   OH260752   9.318   1.221   6.883
20292TIP3    H160753   9.233   1.176   6.890
20292TIP3    H260754   9.381   1.151   6.865
20293TIP3   OH260755   0.838   6.141   1.240
20293TIP3    H160756   0.926   6.166   1.213
20293TIP3    H260757   0.780   6.184   1.177
20294TIP3   OH260758   7.419   4.114   7.717
20294TIP3    H160759   7.335   4.141   7.754
20294TIP3    H260760   7.399   4.034   7.668
20295TIP3   OH260761   3.075   8.073   0.642
20295TIP3    H160762   3.037   7.988   0.663
20295TIP3    H260763   3.053   8.088   0.551
20296TIP3   OH260764   8.047   3.562   2.582
20296TIP3    H160765   8.023   3.469   2.574
20296TIP3    H260766   7.986   3.597   2.647
20297TIP3   OH260767   1.016   4.165   6.220
20297TIP3    H160768   1.032   4.196   6.309
20297TIP3    H260769   1.034   4.071   6.224
20298TIP3   OH260770   5.221   8.846   5.463
20298TIP3    H160771   5.175   8.878   5.386
20298TIP3    H260772   5.174   8.886   5.537
20299TIP3   OH260773   0.077   4.481   4.235
20299TIP3    H160774   0.170   4.501   4.226
20299TIP3    H260775   0.033   4.560   4.205
20300TIP3   OH260776   1.080   8.230   1.342
20300TIP3    H160777   1.094   8.214   1.435
20300TIP3    H260778   0.996   8.275   1.337
20301TIP3   OH260779   4.146   8.643   1.772
20301TIP3    H160780   4.194   8.679   1.698
20301TIP3    H260781   4.054   8.644   1.744
20302TIP3   OH260782   2.181   5.326   5.690
20302TIP3    H160783   2.104   5.370   5.723
20302TIP3    H260784   2.152   5.237   5.669
20303TIP3   OH260785   2.929   3.466   0.577
20303TIP3    H160786   2.907   3.508   0.660
20303TIP3    H260787   3.021   3.491   0.562
20304TIP3   OH260788   4.783   6.580   0.996
20304TIP3    H160789   4.772   6.499   0.947
20304TIP3    H260790   4.747   6.560   1.083
20305TIP3   OH260791   4.194   5.508   2.101
20305TIP3    H160792   4.106   5.501   2.138
20305TIP3    H260793   4.248   5.455   2.159
20306TIP3   OH260794   9.350   5.408   1.505
20306TIP3    H160795   9.372   5.491   1.463
20306TIP3    H260796   9.411   5.345   1.466
20307TIP3   OH260797   6.314   5.251   3.212
20307TIP3    H160798   6.225   5.219   3.227
20307TIP3    H260799   6.305   5.346   3.206
20308TIP3   OH260800   0.085   6.428   2.233
20308TIP3    H160801   0.132   6.448   2.152
20308TIP3    H260802   0.124   6.348   2.266
20309TIP3   OH260803   8.145   6.477   1.117
20309TIP3    H160804   8.142   6.412   1.187
20309TIP3    H260805   8.103   6.554   1.154
20310TIP3   OH260806   6.963   2.468   0.763
20310TIP3    H160807   6.982   2.456   0.670
20310TIP3    H260808   6.952   2.562   0.774
20311TIP3   OH260809   4.618   4.300   1.396
20311TIP3    H160810   4.531   4.328   1.423
20311TIP3    H260811   4.617   4.205   1.406
20312TIP3   OH260812   2.555   1.655   0.494
20312TIP3    H160813   2.492   1.690   0.557
20312TIP3    H260814   2.574   1.567   0.525
20313TIP3   OH260815   9.479   2.947   2.675
20313TIP3    H160816   9.426   3.008   2.726
20313TIP3    H260817   9.549   2.921   2.735
20314TIP3   OH260818   6.502   6.945   2.298
20314TIP3    H160819   6.533   6.885   2.366
20314TIP3    H260820   6.408   6.951   2.312
20315TIP3   OH260821   4.072   6.617   1.029
20315TIP3    H160822   4.024   6.587   1.106
20315TIP3    H260823   4.004   6.646   0.968
20316TIP3   OH260824   5.475   5.427   4.084
20316TIP3    H160825   5.497   5.474   4.004
20316TIP3    H260826   5.559   5.400   4.120
20317TIP3   OH260827   5.195   8.173   3.466
20317TIP3    H160828   5.170   8.236   3.534
20317TIP3    H260829   5.112   8.147   3.426
20318TIP3   OH260830   9.431   6.305   2.417
20318TIP3    H160831   9.441   6.218   2.377
20318TIP3    H260832   9.519   6.343   2.412
20319TIP3   OH260833   4.390   2.495   3.288
20319TIP3    H160834   4.422   2.585   3.281
20319TIP3    H260835   4.470   2.441   3.288
20320TIP3   OH260836   9.377   8.323   5.852
20320TIP3    H160837   9.414   8.235   5.856
20320TIP3    H260838   9.340   8.330   5.764
20321TIP3   OH260839   5.589   2.828   1.352
20321TIP3    H160840   5.630   2.826   1.265
20321TIP3    H260841   5.567   2.920   1.366
20322TIP3   OH260842   9.103   2.315   0.551
20322TIP3    H160843   9.130   2.281   0.637
20322TIP3    H260844   9.075   2.237   0.502
20323TIP3   OH260845   8.024   5.028   1.127
20323TIP3    H160846   8.061   5.063   1.047
20323TIP3    H260847   8.081   4.954   1.150
20324TIP3   OH260848   4.508   8.549   1.564
20324TIP3    H160849   4.588   8.566   1.515
20324TIP3    H260850   4.440   8.598   1.518
20325TIP3   OH260851   2.610   5.928   3.262
20325TIP3    H160852   2.592   6.004   3.206
20325TIP3    H260853   2.691   5.951   3.308
20326TIP3   OH260854   8.894   2.658   7.757
20326TIP3    H160855   8.846   2.712   7.694
20326TIP3    H260856   8.986   2.675   7.739
20327TIP3   OH260857   0.361   4.920   1.485
20327TIP3    H160858   0.325   4.834   1.464
20327TIP3    H260859   0.324   4.942   1.571
20328TIP3   OH260860   6.713   7.159   6.038
20328TIP3    H160861   6.696   7.104   5.961
20328TIP3    H260862   6.808   7.169   6.040
20329TIP3   OH260863   9.349   3.582   1.324
20329TIP3    H160864   9.265   3.627   1.317
20329TIP3    H260865   9.371   3.587   1.418
20330TIP3   OH260866   9.034   2.033   6.628
20330TIP3    H160867   9.039   1.960   6.566
20330TIP3    H260868   9.071   2.108   6.581
20331TIP3   OH260869   0.263   6.704   5.301
20331TIP3    H160870   0.178   6.669   5.272
20331TIP3    H260871   0.301   6.742   5.222
20332TIP3   OH260872   1.332   5.356   6.641
20332TIP3    H160873   1.372   5.436   6.674
20332TIP3    H260874   1.287   5.382   6.561
20333TIP3   OH260875   4.853   6.714   4.287
20333TIP3    H160876   4.900   6.777   4.341
20333TIP3    H260877   4.916   6.644   4.272
20334TIP3   OH260878   4.582   1.907   3.218
20334TIP3    H160879   4.667   1.880   3.253
20334TIP3    H260880   4.533   1.937   3.294
20335TIP3   OH260881   0.915   1.906   0.921
20335TIP3    H160882   0.974   1.917   0.996
20335TIP3    H260883   0.939   1.977   0.861
20336TIP3   OH260884   4.773   7.675   3.327
20336TIP3    H160885   4.776   7.715   3.240
20336TIP3    H260886   4.845   7.717   3.375
20337TIP3   OH260887   9.121   6.361   4.354
20337TIP3    H160888   9.055   6.428   4.374
20337TIP3    H260889   9.116   6.299   4.426
20338TIP3   OH260890   5.879   7.134   6.933
20338TIP3    H160891   5.954   7.184   6.903
20338TIP3    H260892   5.912   7.083   7.007
20339TIP3   OH260893   6.643   8.288   6.555
20339TIP3    H160894   6.649   8.382   6.540
20339TIP3    H260895   6.673   8.249   6.473
20340TIP3   OH260896   6.054   0.217   5.189
20340TIP3    H160897   6.068   0.173   5.273
20340TIP3    H260898   6.094   0.159   5.125
20341TIP3   OH260899   5.007   8.782   4.639
20341TIP3    H160900   5.001   8.726   4.562
20341TIP3    H260901   5.100   8.804   4.646
20342TIP3   OH260902   0.808   7.115   3.362
20342TIP3    H160903   0.714   7.101   3.353
20342TIP3    H260904   0.844   7.028   3.376
20343TIP3   OH260905   6.838   2.847   3.444
20343TIP3    H160906   6.819   2.837   3.350
20343TIP3    H260907   6.886   2.768   3.467
20344TIP3   OH260908   5.042   2.773   2.347
20344TIP3    H160909   4.988   2.820   2.410
20344TIP3    H260910   5.105   2.725   2.400
20345TIP3   OH260911   6.133   1.400   5.509
20345TIP3    H160912   6.061   1.338   5.521
20345TIP3    H260913   6.139   1.412   5.414
20346TIP3   OH260914   7.648   2.054   2.030
20346TIP3    H160915   7.566   2.080   2.071
20346TIP3    H260916   7.686   1.990   2.090
20347TIP3   OH260917   9.083   0.125   6.298
20347TIP3    H160918   8.997   0.165   6.313
20347TIP3    H260919   9.102   0.143   6.206
20348TIP3   OH260920   7.926   4.307   6.352
20348TIP3    H160921   8.019   4.293   6.335
20348TIP3    H260922   7.914   4.279   6.443
20349TIP3   OH260923   4.750   5.344   0.058
20349TIP3    H160924   4.810   5.365  -0.014
20349TIP3    H260925   4.772   5.254   0.082
20350TIP3   OH260926   9.424   3.160   2.825
20350TIP3    H160927   9.507   3.203   2.806
20350TIP3    H260928   9.361   3.232   2.834
20351TIP3   OH260929   7.565   2.266   6.777
20351TIP3    H160930   7.629   2.303   6.837
20351TIP3    H260931   7.483   2.309   6.799
20352TIP3   OH260932   2.727   0.726   1.950
20352TIP3    H160933   2.763   0.664   2.014
20352TIP3    H260934   2.751   0.688   1.865
20353TIP3   OH260935   1.947   4.280   3.010
20353TIP3    H160936   1.894   4.222   2.955
20353TIP3    H260937   1.885   4.313   3.076
20354TIP3   OH260938   0.964   5.661   6.549
20354TIP3    H160939   0.886   5.632   6.502
20354TIP3    H260940   0.930   5.705   6.627
20355TIP3   OH260941   8.084   8.233   1.518
20355TIP3    H160942   8.047   8.321   1.525
20355TIP3    H260943   8.178   8.247   1.510
20356TIP3   OH260944   6.607   7.687   6.375
20356TIP3    H160945   6.573   7.746   6.308
20356TIP3    H260946   6.530   7.651   6.418
20357TIP3   OH260947   4.112   8.578   6.523
20357TIP3    H160948   4.161   8.585   6.605
20357TIP3    H260949   4.128   8.489   6.493
20358TIP3   OH260950   7.637   1.441   4.365
20358TIP3    H160951   7.713   1.442   4.307
20358TIP3    H260952   7.591   1.360   4.343
20359TIP3   OH260953   4.486   2.676   0.616
20359TIP3    H160954   4.518   2.758   0.577
20359TIP3    H260955   4.392   2.677   0.599
20360TIP3   OH260956   5.439   8.995   5.233
20360TIP3    H160957   5.344   8.987   5.242
20360TIP3    H260958   5.475   8.931   5.294
20361TIP3   OH260959   3.766   2.257   2.420
20361TIP3    H160960   3.716   2.333   2.390
20361TIP3    H260961   3.818   2.290   2.493
20362TIP3   OH260962   6.194   6.569   7.248
20362TIP3    H160963   6.146   6.649   7.270
20362TIP3    H260964   6.148   6.535   7.171
20363TIP3   OH260965   0.243   3.690   4.078
20363TIP3    H160966   0.271   3.707   3.988
20363TIP3    H260967   0.171   3.752   4.092
20364TIP3   OH260968   3.633   2.623   4.546
20364TIP3    H160969   3.619   2.648   4.637
20364TIP3    H260970   3.577   2.682   4.496
20365TIP3   OH260971   1.959   7.095   3.617
20365TIP3    H160972   2.051   7.083   3.639
20365TIP3    H260973   1.934   7.015   3.571
20366TIP3   OH260974   8.491   2.424   4.330
20366TIP3    H160975   8.427   2.358   4.355
20366TIP3    H260976   8.455   2.463   4.250
20367TIP3   OH260977   1.775   2.559   5.108
20367TIP3    H160978   1.746   2.649   5.124
20367TIP3    H260979   1.832   2.539   5.182
20368TIP3   OH260980   0.156   8.293   5.199
20368TIP3    H160981   0.115   8.216   5.158
20368TIP3    H260982   0.229   8.314   5.142
20369TIP3   OH260983   4.266   5.402   1.311
20369TIP3    H160984   4.238   5.448   1.232
20369TIP3    H260985   4.360   5.419   1.317
20370TIP3   OH260986   0.798   4.221   4.465
20370TIP3    H160987   0.723   4.163   4.455
20370TIP3    H260988   0.872   4.172   4.430
20371TIP3   OH260989   7.164   5.073   1.153
20371TIP3    H160990   7.114   5.107   1.079
20371TIP3    H260991   7.114   4.996   1.182
20372TIP3   OH260992   5.145   2.160   1.693
20372TIP3    H160993   5.216   2.122   1.642
20372TIP3    H260994   5.069   2.106   1.672
20373TIP3   OH260995   2.117   5.711   1.716
20373TIP3    H160996   2.062   5.646   1.671
20373TIP3    H260997   2.065   5.792   1.714
20374TIP3   OH260998   7.789   4.373   1.539
20374TIP3    H160999   7.835   4.327   1.468
20374TIP3    H261000   7.794   4.312   1.613
20375TIP3   OH261001   7.402   0.347   5.336
20375TIP3    H161002   7.353   0.364   5.417
20375TIP3    H261003   7.363   0.407   5.272
20376TIP3   OH261004   4.361   6.470   2.205
20376TIP3    H161005   4.314   6.433   2.280
20376TIP3    H261006   4.364   6.564   2.223
20377TIP3   OH261007   5.294   4.442   2.685
20377TIP3    H161008   5.374   4.485   2.715
20377TIP3    H261009   5.267   4.493   2.609
20378TIP3   OH261010   1.102   0.385   1.499
20378TIP3    H161011   1.082   0.438   1.575
20378TIP3    H261012   1.063   0.300   1.518
20379TIP3   OH261013   4.787   4.531   7.761
20379TIP3    H161014   4.877   4.504   7.778
20379TIP3    H261015   4.733   4.477   7.819
20380TIP3   OH261016   5.189   4.113   5.504
20380TIP3    H161017   5.204   4.064   5.423
20380TIP3    H261018   5.177   4.204   5.476
20381TIP3   OH261019   2.552   5.739   4.639
20381TIP3    H161020   2.468   5.725   4.594
20381TIP3    H261021   2.616   5.692   4.586
20382TIP3   OH261022   4.736   4.421   6.583
20382TIP3    H161023   4.764   4.429   6.674
20382TIP3    H261024   4.717   4.511   6.556
20383TIP3   OH261025   0.868   6.499   4.416
20383TIP3    H161026   0.843   6.537   4.500
20383TIP3    H261027   0.907   6.414   4.439
20384TIP3   OH261028   3.833   1.973   0.425
20384TIP3    H161029   3.795   1.891   0.456
20384TIP3    H261030   3.774   2.041   0.458
20385TIP3   OH261031   4.515   8.161   0.981
20385TIP3    H161032   4.560   8.233   1.024
20385TIP3    H261033   4.464   8.202   0.910
20386TIP3   OH261034   9.365   3.160   4.846
20386TIP3    H161035   9.372   3.068   4.821
20386TIP3    H261036   9.318   3.201   4.773
20387TIP3   OH261037   4.494   3.405   6.372
20387TIP3    H161038   4.581   3.370   6.391
20387TIP3    H261039   4.454   3.339   6.314
20388TIP3   OH261040   0.585   4.085   5.243
20388TIP3    H161041   0.516   4.037   5.289
20388TIP3    H261042   0.583   4.173   5.281
20389TIP3   OH261043   2.985   5.615   5.417
20389TIP3    H161044   2.923   5.557   5.461
20389TIP3    H261045   2.932   5.692   5.394
20390TIP3   OH261046   0.792   5.548   5.387
20390TIP3    H161047   0.707   5.506   5.398
20390TIP3    H261048   0.813   5.535   5.294
20391TIP3   OH261049   8.805   1.746   1.026
20391TIP3    H161050   8.790   1.685   1.098
20391TIP3    H261051   8.719   1.782   1.006
20392TIP3   OH261052   9.209   8.450   1.704
20392TIP3    H161053   9.270   8.430   1.633
20392TIP3    H261054   9.127   8.407   1.677
20393TIP3   OH261055   6.610   3.831   2.504
20393TIP3    H161056   6.681   3.782   2.545
20393TIP3    H261057   6.533   3.813   2.559
20394TIP3   OH261058   2.518   0.007   0.007
20394TIP3    H161059   2.593   0.006  -0.053
20394TIP3    H261060   2.491  -0.085   0.012
20395TIP3   OH261061   7.296   2.502   2.732
20395TIP3    H161062   7.384   2.465   2.729
20395TIP3    H261063   7.294   2.554   2.812
20396TIP3   OH261064   0.376   1.090   6.569
20396TIP3    H161065   0.400   1.060   6.656
20396TIP3    H261066   0.340   1.013   6.526
20397TIP3   OH261067   5.985   2.888   3.209
20397TIP3    H161068   5.921   2.958   3.205
20397TIP3    H261069   5.978   2.843   3.125
20398TIP3   OH261070   2.516   8.977   6.560
20398TIP3    H161071   2.490   9.068   6.544
20398TIP3    H261072   2.552   8.948   6.476
20399TIP3   OH261073   0.069   3.354   5.659
20399TIP3    H161074   0.055   3.301   5.581
20399TIP3    H261075   0.163   3.350   5.675
20400TIP3   OH261076   0.517   2.148   6.412
20400TIP3    H161077   0.449   2.141   6.478
20400TIP3    H261078   0.571   2.222   6.441
20401TIP3   OH261079   8.634   3.068   3.295
20401TIP3    H161080   8.636   2.993   3.235
20401TIP3    H261081   8.551   3.112   3.275
20402TIP3   OH261082   1.223   4.272   4.787
20402TIP3    H161083   1.180   4.337   4.843
20402TIP3    H261084   1.296   4.318   4.746
20403TIP3   OH261085   3.877   5.811   1.435
20403TIP3    H161086   3.880   5.769   1.520
20403TIP3    H261087   3.964   5.796   1.398
20404TIP3   OH261088   8.288   1.238   2.755
20404TIP3    H161089   8.298   1.164   2.694
20404TIP3    H261090   8.196   1.264   2.746
20405TIP3   OH261091   0.838   3.982   1.017
20405TIP3    H161092   0.778   4.056   1.010
20405TIP3    H261093   0.925   4.022   1.015
20406TIP3   OH261094   9.028   1.445   6.819
20406TIP3    H161095   9.080   1.420   6.896
20406TIP3    H261096   9.093   1.472   6.754
20407TIP3   OH261097   6.915   4.420   0.882
20407TIP3    H161098   6.855   4.490   0.855
20407TIP3    H261099   6.903   4.413   0.977
20408TIP3   OH261100   3.223   4.652   3.199
20408TIP3    H161101   3.227   4.744   3.172
20408TIP3    H261102   3.145   4.647   3.255
20409TIP3   OH261103   3.139   8.993   7.268
20409TIP3    H161104   3.100   9.042   7.341
20409TIP3    H261105   3.190   9.059   7.220
20410TIP3   OH261106   7.046   6.211   6.918
20410TIP3    H161107   6.981   6.215   6.989
20410TIP3    H261108   7.035   6.124   6.880
20411TIP3   OH261109   5.572   0.459   6.486
20411TIP3    H161110   5.575   0.371   6.523
20411TIP3    H261111   5.617   0.513   6.551
20412TIP3   OH261112   9.507   8.640   2.649
20412TIP3    H161113   9.491   8.558   2.602
20412TIP3    H261114   9.420   8.667   2.679
20413TIP3   OH261115   8.500   6.032   0.941
20413TIP3    H161116   8.506   5.944   0.903
20413TIP3    H261117   8.462   6.017   1.028
20414TIP3   OH261118   6.740   2.187   3.249
20414TIP3    H161119   6.713   2.256   3.309
20414TIP3    H261120   6.745   2.108   3.304
20415TIP3   OH261121   6.332   0.763   6.293
20415TIP3    H161122   6.352   0.856   6.303
20415TIP3    H261123   6.414   0.718   6.313
20416TIP3   OH261124   1.264   4.080   5.019
20416TIP3    H161125   1.174   4.077   4.986
20416TIP3    H261126   1.271   4.002   5.074
20417TIP3   OH261127   5.017   6.579   0.379
20417TIP3    H161128   4.945   6.556   0.321
20417TIP3    H261129   4.976   6.623   0.453
20418TIP3   OH261130   6.740   0.895   1.200
20418TIP3    H161131   6.682   0.851   1.137
20418TIP3    H261132   6.689   0.899   1.280
20419TIP3   OH261133   3.271   2.428   5.685
20419TIP3    H161134   3.232   2.361   5.630
20419TIP3    H261135   3.201   2.454   5.745
20420TIP3   OH261136   8.856   1.304   4.981
20420TIP3    H161137   8.765   1.317   4.955
20420TIP3    H261138   8.859   1.332   5.072
20421TIP3   OH261139   4.067   4.594   1.726
20421TIP3    H161140   4.072   4.688   1.746
20421TIP3    H261141   3.979   4.583   1.688
20422TIP3   OH261142   7.251   7.621   2.482
20422TIP3    H161143   7.292   7.640   2.398
20422TIP3    H261144   7.207   7.536   2.468
20423TIP3   OH261145   4.577   4.677   6.937
20423TIP3    H161146   4.609   4.725   6.861
20423TIP3    H261147   4.609   4.726   7.013
20424TIP3   OH261148   2.851   8.304   2.001
20424TIP3    H161149   2.825   8.282   2.090
20424TIP3    H261150   2.891   8.391   2.009
20425TIP3   OH261151   7.736   3.606   0.350
20425TIP3    H161152   7.776   3.643   0.271
20425TIP3    H261153   7.809   3.565   0.396
20426TIP3   OH261154   6.627   2.584   4.237
20426TIP3    H161155   6.661   2.669   4.210
20426TIP3    H261156   6.571   2.556   4.165
20427TIP3   OH261157   4.661   3.046   1.950
20427TIP3    H161158   4.579   3.076   1.911
20427TIP3    H261159   4.724   3.048   1.877
20428TIP3   OH261160   8.958   4.502   7.009
20428TIP3    H161161   8.926   4.486   7.097
20428TIP3    H261162   8.989   4.416   6.979
20429TIP3   OH261163   6.746   2.321   0.806
20429TIP3    H161164   6.699   2.362   0.733
20429TIP3    H261165   6.837   2.347   0.793
20430TIP3   OH261166   6.353   7.514   3.341
20430TIP3    H161167   6.406   7.435   3.340
20430TIP3    H261168   6.406   7.579   3.294
20431TIP3   OH261169   8.606   8.986   3.405
20431TIP3    H161170   8.591   9.023   3.317
20431TIP3    H261171   8.590   8.892   3.394
20432TIP3   OH261172   2.287   8.693   6.758
20432TIP3    H161173   2.327   8.674   6.673
20432TIP3    H261174   2.220   8.759   6.739
20433TIP3   OH261175   8.091   3.822   0.066
20433TIP3    H161176   8.098   3.913   0.038
20433TIP3    H261177   8.021   3.823   0.131
20434TIP3   OH261178   1.231   8.988   5.447
20434TIP3    H161179   1.263   8.912   5.397
20434TIP3    H261180   1.308   9.043   5.459
20435TIP3   OH261181   7.752   0.484   6.692
20435TIP3    H161182   7.684   0.524   6.636
20435TIP3    H261183   7.720   0.498   6.781
20436TIP3   OH261184   6.353   3.425   2.019
20436TIP3    H161185   6.448   3.423   2.028
20436TIP3    H261186   6.337   3.494   1.955
20437TIP3   OH261187   0.250   2.562   1.244
20437TIP3    H161188   0.231   2.517   1.163
20437TIP3    H261189   0.171   2.550   1.298
20438TIP3   OH261190   4.057   4.216   0.440
20438TIP3    H161191   4.045   4.162   0.518
20438TIP3    H261192   3.983   4.276   0.440
20439TIP3   OH261193   4.915   7.053   0.928
20439TIP3    H161194   4.892   7.123   0.866
20439TIP3    H261195   5.004   7.073   0.956
20440TIP3   OH261196   0.967   4.837   6.494
20440TIP3    H161197   1.003   4.788   6.568
20440TIP3    H261198   0.908   4.901   6.534
20441TIP3   OH261199   8.569   8.361   6.736
20441TIP3    H161200   8.652   8.408   6.742
20441TIP3    H261201   8.586   8.290   6.674
20442TIP3   OH261202   3.283   5.042   6.680
20442TIP3    H161203   3.239   5.088   6.609
20442TIP3    H261204   3.340   4.979   6.636
20443TIP3   OH261205   0.117   0.250   4.992
20443TIP3    H161206   0.041   0.229   5.046
20443TIP3    H261207   0.143   0.166   4.953
20444TIP3   OH261208   5.929   3.547   7.465
20444TIP3    H161209   5.996   3.612   7.486
20444TIP3    H261210   5.978   3.471   7.433
20445TIP3   OH261211   5.997   4.135   1.369
20445TIP3    H161212   5.994   4.061   1.430
20445TIP3    H261213   6.074   4.119   1.315
20446TIP3   OH261214   0.374   0.730   2.305
20446TIP3    H161215   0.466   0.707   2.323
20446TIP3    H261216   0.378   0.796   2.236
20447TIP3   OH261217   7.110   4.860   0.802
20447TIP3    H161218   7.151   4.925   0.744
20447TIP3    H261219   7.089   4.909   0.881
20448TIP3   OH261220   2.710   7.188   4.334
20448TIP3    H161221   2.744   7.254   4.394
20448TIP3    H261222   2.672   7.238   4.262
20449TIP3   OH261223   7.492   6.327   0.009
20449TIP3    H161224   7.467   6.243  -0.031
20449TIP3    H261225   7.412   6.357   0.053
20450TIP3   OH261226   0.954   5.056   7.389
20450TIP3    H161227   1.016   5.003   7.439
20450TIP3    H261228   1.008   5.126   7.352
20451TIP3   OH261229   5.952   6.022   4.244
20451TIP3    H161230   6.022   6.057   4.298
20451TIP3    H261231   5.964   6.064   4.159
20452TIP3   OH261232   6.103   4.778   5.779
20452TIP3    H161233   6.019   4.814   5.752
20452TIP3    H261234   6.082   4.714   5.847
20453TIP3   OH261235   7.777   7.952   6.809
20453TIP3    H161236   7.871   7.969   6.798
20453TIP3    H261237   7.769   7.919   6.899
20454TIP3   OH261238   5.105   8.284   3.963
20454TIP3    H161239   5.121   8.201   4.008
20454TIP3    H261240   5.010   8.292   3.960
20455TIP3   OH261241   4.985   4.823   1.605
20455TIP3    H161242   4.906   4.799   1.556
20455TIP3    H261243   5.054   4.828   1.538
20456TIP3   OH261244   1.112   0.654   2.004
20456TIP3    H161245   1.046   0.606   2.053
20456TIP3    H261246   1.168   0.586   1.967
20457TIP3   OH261247   0.916   3.417   6.562
20457TIP3    H161248   0.939   3.509   6.576
20457TIP3    H261249   0.843   3.402   6.622
20458TIP3   OH261250   3.247   8.585   5.927
20458TIP3    H161251   3.234   8.493   5.907
20458TIP3    H261252   3.215   8.595   6.017
20459TIP3   OH261253   5.136   6.351   5.615
20459TIP3    H161254   5.091   6.314   5.692
20459TIP3    H261255   5.122   6.446   5.623
20460TIP3   OH261256   5.595   3.693   1.297
20460TIP3    H161257   5.544   3.757   1.345
20460TIP3    H261258   5.686   3.709   1.325
20461TIP3   OH261259   8.823   7.359   1.249
20461TIP3    H161260   8.801   7.348   1.342
20461TIP3    H261261   8.834   7.453   1.237
20462TIP3   OH261262   2.737   0.197   4.047
20462TIP3    H161263   2.786   0.277   4.067
20462TIP3    H261264   2.761   0.136   4.117
20463TIP3   OH261265   5.128   1.137   2.989
20463TIP3    H161266   5.181   1.129   3.068
20463TIP3    H261267   5.066   1.064   2.994
20464TIP3   OH261268   7.227   5.964   4.323
20464TIP3    H161269   7.249   5.871   4.329
20464TIP3    H261270   7.143   5.967   4.278
20465TIP3   OH261271   0.030   6.261   6.297
20465TIP3    H161272  -0.015   6.198   6.353
20465TIP3    H261273  -0.031   6.275   6.224
20466TIP3   OH261274   0.016   2.850   5.999
20466TIP3    H161275   0.103   2.813   5.986
20466TIP3    H261276   0.032   2.940   6.028
20467TIP3   OH261277   5.146   4.902   1.921
20467TIP3    H161278   5.229   4.883   1.876
20467TIP3    H261279   5.079   4.894   1.853
20468TIP3   OH261280   5.949   5.533   6.522
20468TIP3    H161281   5.998   5.600   6.570
20468TIP3    H261282   5.860   5.569   6.516
20469TIP3   OH261283   3.173   5.052   7.114
20469TIP3    H161284   3.135   5.012   7.192
20469TIP3    H261285   3.149   4.992   7.043
20470TIP3   OH261286   5.622   8.268   1.125
20470TIP3    H161287   5.599   8.342   1.069
20470TIP3    H261288   5.541   8.246   1.171
20471TIP3   OH261289   4.593   5.302   5.261
20471TIP3    H161290   4.590   5.265   5.173
20471TIP3    H261291   4.501   5.319   5.283
20472TIP3   OH261292   8.606   5.844   2.515
20472TIP3    H161293   8.627   5.931   2.481
20472TIP3    H261294   8.648   5.783   2.455
20473TIP3   OH261295   5.588   4.180   3.966
20473TIP3    H161296   5.549   4.208   3.883
20473TIP3    H261297   5.655   4.117   3.941
20474TIP3   OH261298   6.804   5.347   7.254
20474TIP3    H161299   6.755   5.402   7.316
20474TIP3    H261300   6.803   5.260   7.294
20475TIP3   OH261301   8.755   2.313   3.213
20475TIP3    H161302   8.787   2.234   3.169
20475TIP3    H261303   8.793   2.309   3.301
20476TIP3   OH261304   0.024   2.943   1.124
20476TIP3    H161305  -0.050   2.888   1.149
20476TIP3    H261306  -0.005   2.987   1.044
20477TIP3   OH261307   1.542   1.322   1.200
20477TIP3    H161308   1.568   1.374   1.275
20477TIP3    H261309   1.561   1.232   1.225
20478TIP3   OH261310   0.651   1.686   1.754
20478TIP3    H161311   0.652   1.768   1.706
20478TIP3    H261312   0.664   1.618   1.688
20479TIP3   OH261313   1.759   2.720   3.116
20479TIP3    H161314   1.795   2.799   3.076
20479TIP3    H261315   1.793   2.648   3.063
20480TIP3   OH261316   6.180   0.983   4.540
20480TIP3    H161317   6.188   1.078   4.550
20480TIP3    H261318   6.086   0.967   4.539
20481TIP3   OH261319   4.880   3.424   1.021
20481TIP3    H161320   4.875   3.520   1.021
20481TIP3    H261321   4.928   3.403   0.941
20482TIP3   OH261322   7.682   5.086   0.541
20482TIP3    H161323   7.690   5.036   0.622
20482TIP3    H261324   7.772   5.095   0.509
20483TIP3   OH261325   1.882   3.177   0.418
20483TIP3    H161326   1.825   3.166   0.494
20483TIP3    H261327   1.968   3.197   0.456
20484TIP3   OH261328   6.158   7.457   4.288
20484TIP3    H161329   6.160   7.522   4.359
20484TIP3    H261330   6.249   7.447   4.262
20485TIP3   OH261331   4.454   8.445   7.637
20485TIP3    H161332   4.443   8.538   7.659
20485TIP3    H261333   4.482   8.404   7.719
20486TIP3   OH261334   0.017   6.941   1.791
20486TIP3    H161335   0.089   6.882   1.768
20486TIP3    H261336  -0.011   6.978   1.707
20487TIP3   OH261337   9.080   5.142   2.714
20487TIP3    H161338   9.134   5.083   2.768
20487TIP3    H261339   9.024   5.083   2.664
20488TIP3   OH261340   0.045   8.078   6.948
20488TIP3    H161341   0.088   8.096   7.031
20488TIP3    H261342   0.034   7.983   6.947
20489TIP3   OH261343   8.637   4.490   5.681
20489TIP3    H161344   8.650   4.580   5.713
20489TIP3    H261345   8.547   4.469   5.704
20490TIP3   OH261346   1.345   7.342   3.663
20490TIP3    H161347   1.268   7.360   3.607
20490TIP3    H261348   1.340   7.248   3.681
20491TIP3   OH261349   0.574   7.724   7.545
20491TIP3    H161350   0.518   7.801   7.533
20491TIP3    H261351   0.517   7.650   7.524
20492TIP3   OH261352   2.467   4.564   2.404
20492TIP3    H161353   2.510   4.622   2.467
20492TIP3    H261354   2.481   4.606   2.319
20493TIP3   OH261355   2.296   0.823   0.405
20493TIP3    H161356   2.314   0.864   0.489
20493TIP3    H261357   2.203   0.838   0.390
20494TIP3   OH261358   6.125   2.451   3.599
20494TIP3    H161359   6.192   2.515   3.624
20494TIP3    H261360   6.070   2.497   3.536
20495TIP3   OH261361   7.184   4.017   2.483
20495TIP3    H161362   7.139   4.101   2.479
20495TIP3    H261363   7.130   3.964   2.543
20496TIP3   OH261364   9.071   7.677   6.251
20496TIP3    H161365   9.048   7.652   6.162
20496TIP3    H261366   9.056   7.598   6.303
20497TIP3   OH261367   5.677   1.727   7.419
20497TIP3    H161368   5.697   1.746   7.328
20497TIP3    H261369   5.606   1.787   7.442
20498TIP3   OH261370   0.182   4.782   5.868
20498TIP3    H161371   0.248   4.841   5.833
20498TIP3    H261372   0.107   4.838   5.888
20499TIP3   OH261373   7.733   0.076   1.803
20499TIP3    H161374   7.736   0.163   1.843
20499TIP3    H261375   7.643   0.048   1.815
20500TIP3   OH261376   1.990   7.231   6.004
20500TIP3    H161377   1.974   7.145   5.965
20500TIP3    H261378   1.934   7.234   6.081
20501TIP3   OH261379   8.697   7.460   4.203
20501TIP3    H161380   8.665   7.498   4.286
20501TIP3    H261381   8.779   7.505   4.186
20502TIP3   OH261382   6.702   4.810   4.117
20502TIP3    H161383   6.677   4.785   4.028
20502TIP3    H261384   6.754   4.889   4.106
20503TIP3   OH261385   9.219   8.706   7.477
20503TIP3    H161386   9.141   8.741   7.521
20503TIP3    H261387   9.191   8.621   7.444
20504TIP3   OH261388   8.732   8.796   0.181
20504TIP3    H161389   8.691   8.819   0.098
20504TIP3    H261390   8.659   8.771   0.238
20505TIP3   OH261391   1.139   3.826   5.862
20505TIP3    H161392   1.075   3.877   5.913
20505TIP3    H261393   1.092   3.746   5.840
20506TIP3   OH261394   2.469   1.190   5.239
20506TIP3    H161395   2.420   1.246   5.299
20506TIP3    H261396   2.533   1.248   5.198
20507TIP3   OH261397   3.400   2.177   1.279
20507TIP3    H161398   3.407   2.242   1.209
20507TIP3    H261399   3.335   2.213   1.339
20508TIP3   OH261400   7.314   3.184   1.367
20508TIP3    H161401   7.262   3.155   1.442
20508TIP3    H261402   7.252   3.234   1.314
20509TIP3   OH261403   6.720   3.842   4.608
20509TIP3    H161404   6.728   3.935   4.630
20509TIP3    H261405   6.696   3.842   4.515
20510TIP3   OH261406   1.738   6.515   1.371
20510TIP3    H161407   1.710   6.490   1.459
20510TIP3    H261408   1.686   6.593   1.351
20511TIP3   OH261409   4.418   1.821   6.135
20511TIP3    H161410   4.415   1.861   6.221
20511TIP3    H261411   4.430   1.894   6.074
20512TIP3   OH261412   9.026   8.948   5.561
20512TIP3    H161413   8.984   8.990   5.487
20512TIP3    H261414   9.092   9.011   5.590
20513TIP3   OH261415   8.117   6.041   6.444
20513TIP3    H161416   8.105   6.090   6.362
20513TIP3    H261417   8.089   5.952   6.423
20514TIP3   OH261418   3.062   7.441   5.153
20514TIP3    H161419   3.053   7.364   5.097
20514TIP3    H261420   3.129   7.494   5.109
20515TIP3   OH261421   0.391   2.385   2.571
20515TIP3    H161422   0.444   2.463   2.586
20515TIP3    H261423   0.397   2.336   2.653
20516TIP3   OH261424   8.783   0.588   7.774
20516TIP3    H161425   8.775   0.683   7.761
20516TIP3    H261426   8.853   0.562   7.714
20517TIP3   OH261427   5.015   5.159   2.859
20517TIP3    H161428   5.004   5.112   2.777
20517TIP3    H261429   5.068   5.101   2.914
20518TIP3   OH261430   2.814   8.391   6.360
20518TIP3    H161431   2.894   8.341   6.342
20518TIP3    H261432   2.752   8.326   6.393
20519TIP3   OH261433   2.737   8.564   5.105
20519TIP3    H161434   2.649   8.603   5.106
20519TIP3    H261435   2.788   8.618   5.165
20520TIP3   OH261436   5.030   8.715   3.268
20520TIP3    H161437   4.975   8.641   3.292
20520TIP3    H261438   5.120   8.687   3.289
20521TIP3   OH261439   5.649   2.146   4.852
20521TIP3    H161440   5.634   2.072   4.912
20521TIP3    H261441   5.732   2.124   4.809
20522TIP3   OH261442   2.450   6.950   2.510
20522TIP3    H161443   2.534   6.992   2.490
20522TIP3    H261444   2.399   7.019   2.552
20523TIP3   OH261445   2.725   7.758   6.935
20523TIP3    H161446   2.806   7.767   6.986
20523TIP3    H261447   2.699   7.847   6.915
20524TIP3   OH261448   4.210   0.621   6.396
20524TIP3    H161449   4.212   0.548   6.458
20524TIP3    H261450   4.190   0.579   6.312
20525TIP3   OH261451   1.085   7.551   1.615
20525TIP3    H161452   1.096   7.608   1.691
20525TIP3    H261453   1.000   7.574   1.579
20526TIP3   OH261454   2.423   2.335   7.701
20526TIP3    H161455   2.391   2.394   7.769
20526TIP3    H261456   2.367   2.258   7.708
20527TIP3   OH261457   8.814   7.715   3.570
20527TIP3    H161458   8.843   7.721   3.479
20527TIP3    H261459   8.879   7.763   3.620
20528TIP3   OH261460   6.212   5.334   5.038
20528TIP3    H161461   6.282   5.273   5.061
20528TIP3    H261462   6.228   5.357   4.947
20529TIP3   OH261463   4.233   0.211   0.023
20529TIP3    H161464   4.302   0.150   0.051
20529TIP3    H261465   4.280   0.283  -0.018
20530TIP3   OH261466   1.381   6.685   5.654
20530TIP3    H161467   1.381   6.594   5.685
20530TIP3    H261468   1.413   6.679   5.564
20531TIP3   OH261469   7.541   4.677   0.880
20531TIP3    H161470   7.470   4.740   0.891
20531TIP3    H261471   7.544   4.630   0.963
20532TIP3   OH261472   2.589   8.813   7.470
20532TIP3    H161473   2.592   8.769   7.555
20532TIP3    H261474   2.678   8.805   7.436
20533TIP3   OH261475   6.410   2.363   4.173
20533TIP3    H161476   6.450   2.316   4.246
20533TIP3    H261477   6.329   2.400   4.210
20534TIP3   OH261478   7.820   4.992   1.303
20534TIP3    H161479   7.876   5.023   1.231
20534TIP3    H261480   7.881   4.979   1.376
20535TIP3   OH261481   8.331   3.577   2.071
20535TIP3    H161482   8.265   3.511   2.090
20535TIP3    H261483   8.310   3.608   1.982
20536TIP3   OH261484   0.869   8.281   5.293
20536TIP3    H161485   0.931   8.208   5.284
20536TIP3    H261486   0.824   8.264   5.376
20537TIP3   OH261487   0.362   4.896   5.709
20537TIP3    H161488   0.344   4.926   5.619
20537TIP3    H261489   0.457   4.902   5.718
20538TIP3   OH261490   3.313   2.853   5.438
20538TIP3    H161491   3.326   2.794   5.364
20538TIP3    H261492   3.227   2.892   5.423
20539TIP3   OH261493   5.188   8.646   6.019
20539TIP3    H161494   5.133   8.574   5.989
20539TIP3    H261495   5.134   8.691   6.084
20540TIP3   OH261496   8.492   2.248   4.044
20540TIP3    H161497   8.490   2.192   3.966
20540TIP3    H261498   8.458   2.332   4.013
20541TIP3   OH261499   4.537   5.662   5.631
20541TIP3    H161500   4.616   5.690   5.585
20541TIP3    H261501   4.468   5.719   5.597
20542TIP3   OH261502   9.006   3.023   2.129
20542TIP3    H161503   8.916   3.053   2.117
20542TIP3    H261504   9.040   3.076   2.201
20543TIP3   OH261505   9.477   6.962   4.695
20543TIP3    H161506   9.503   6.882   4.740
20543TIP3    H261507   9.421   7.008   4.758
20544TIP3   OH261508   3.931   7.991   5.993
20544TIP3    H161509   3.869   7.929   6.032
20544TIP3    H261510   3.937   7.965   5.901
20545TIP3   OH261511   8.022   6.354   4.460
20545TIP3    H161512   8.087   6.340   4.528
20545TIP3    H261513   7.940   6.321   4.497
20546TIP3   OH261514   2.670   1.433   7.213
20546TIP3    H161515   2.746   1.468   7.167
20546TIP3    H261516   2.606   1.415   7.144
20547TIP3   OH261517   5.833   4.051   5.851
20547TIP3    H161518   5.753   4.000   5.863
20547TIP3    H261519   5.839   4.105   5.929
20548TIP3   OH261520   3.552   3.102   6.952
20548TIP3    H161521   3.632   3.141   6.989
20548TIP3    H261522   3.522   3.166   6.888
20549TIP3   OH261523   5.021   8.759   2.938
20549TIP3    H161524   4.971   8.829   2.981
20549TIP3    H261525   5.063   8.801   2.864
20550TIP3   OH261526   8.644   2.013   5.273
20550TIP3    H161527   8.659   1.991   5.181
20550TIP3    H261528   8.644   1.929   5.318
20551TIP3   OH261529   4.037   8.111   6.894
20551TIP3    H161530   4.022   8.156   6.977
20551TIP3    H261531   3.995   8.026   6.905
20552TIP3   OH261532   3.944   1.671   5.850
20552TIP3    H161533   4.012   1.730   5.882
20552TIP3    H261534   3.918   1.707   5.766
20553TIP3   OH261535   1.215   2.740   0.684
20553TIP3    H161536   1.199   2.772   0.596
20553TIP3    H261537   1.293   2.787   0.713
20554TIP3   OH261538   8.189   0.236   5.103
20554TIP3    H161539   8.129   0.307   5.124
20554TIP3    H261540   8.138   0.156   5.119
20555TIP3   OH261541   3.812   0.736   0.837
20555TIP3    H161542   3.763   0.658   0.812
20555TIP3    H261543   3.814   0.734   0.933
20556TIP3   OH261544   4.645   8.873   5.623
20556TIP3    H161545   4.686   8.872   5.709
20556TIP3    H261546   4.651   8.782   5.593
20557TIP3   OH261547   0.427   7.959   4.074
20557TIP3    H161548   0.453   7.882   4.023
20557TIP3    H261549   0.496   7.968   4.140
20558TIP3   OH261550   0.853   4.381   3.121
20558TIP3    H161551   0.880   4.354   3.033
20558TIP3    H261552   0.897   4.465   3.135
20559TIP3   OH261553   1.390   3.494   4.922
20559TIP3    H161554   1.361   3.416   4.874
20559TIP3    H261555   1.310   3.546   4.932
20560TIP3   OH261556   7.752   6.187   0.719
20560TIP3    H161557   7.837   6.229   0.706
20560TIP3    H261558   7.691   6.240   0.669
20561TIP3   OH261559   6.731   0.547   7.010
20561TIP3    H161560   6.677   0.602   6.954
20561TIP3    H261561   6.813   0.596   7.022
20562TIP3   OH261562   8.196   8.812   0.525
20562TIP3    H161563   8.273   8.870   0.526
20562TIP3    H261564   8.214   8.747   0.592
20563TIP3   OH261565   9.278   5.243   6.587
20563TIP3    H161566   9.216   5.173   6.607
20563TIP3    H261567   9.328   5.255   6.668
20564TIP3   OH261568   4.301   7.980   3.241
20564TIP3    H161569   4.317   7.954   3.151
20564TIP3    H261570   4.211   8.011   3.242
20565TIP3   OH261571   5.180   2.096   2.343
20565TIP3    H161572   5.234   2.113   2.420
20565TIP3    H261573   5.109   2.160   2.348
20566TIP3   OH261574   0.945   1.704   2.162
20566TIP3    H161575   0.967   1.714   2.069
20566TIP3    H261576   0.850   1.694   2.163
20567TIP3   OH261577   6.945   3.368   0.955
20567TIP3    H161578   6.927   3.391   1.046
20567TIP3    H261579   6.950   3.452   0.909
20568TIP3   OH261580   7.509   2.461   3.387
20568TIP3    H161581   7.440   2.404   3.422
20568TIP3    H261582   7.579   2.400   3.362
20569TIP3   OH261583   1.743   1.015   1.838
20569TIP3    H161584   1.766   0.978   1.923
20569TIP3    H261585   1.776   0.952   1.774
20570TIP3   OH261586   2.845   6.954   6.601
20570TIP3    H161587   2.799   6.931   6.519
20570TIP3    H261588   2.930   6.986   6.572
20571TIP3   OH261589   9.474   6.849   2.353
20571TIP3    H161590   9.471   6.863   2.259
20571TIP3    H261591   9.464   6.754   2.364
20572TIP3   OH261592   1.562   6.456   1.583
20572TIP3    H161593   1.636   6.412   1.625
20572TIP3    H261594   1.487   6.436   1.639
20573TIP3   OH261595   3.315   8.595   5.660
20573TIP3    H161596   3.253   8.593   5.733
20573TIP3    H261597   3.384   8.534   5.685
20574TIP3   OH261598   0.897   0.429   4.633
20574TIP3    H161599   0.828   0.364   4.650
20574TIP3    H261600   0.978   0.379   4.639
20575TIP3   OH261601   7.865   1.643   6.414
20575TIP3    H161602   7.863   1.732   6.451
20575TIP3    H261603   7.792   1.598   6.457
20576TIP3   OH261604   0.012   1.986   2.103
20576TIP3    H161605   0.019   2.068   2.152
20576TIP3    H261606  -0.071   1.993   2.056
20577TIP3   OH261607   5.147   2.411   5.109
20577TIP3    H161608   5.182   2.422   5.020
20577TIP3    H261609   5.053   2.403   5.096
20578TIP3   OH261610   0.513   6.080   4.120
20578TIP3    H161611   0.499   6.018   4.192
20578TIP3    H261612   0.483   6.164   4.155
20579TIP3   OH261613   3.827   6.084   0.326
20579TIP3    H161614   3.912   6.111   0.291
20579TIP3    H261615   3.847   6.022   0.395
20580TIP3   OH261616   2.266   1.297   3.345
20580TIP3    H161617   2.211   1.358   3.297
20580TIP3    H261618   2.348   1.295   3.297
20581TIP3   OH261619   9.169   1.083   1.789
20581TIP3    H161620   9.116   1.163   1.789
20581TIP3    H261621   9.133   1.031   1.717
20582TIP3   OH261622   9.166   5.260   3.125
20582TIP3    H161623   9.143   5.299   3.041
20582TIP3    H261624   9.248   5.214   3.109
20583TIP3   OH261625   6.876   8.896   6.070
20583TIP3    H161626   6.888   8.867   6.161
20583TIP3    H261627   6.792   8.942   6.071
20584TIP3   OH261628   9.150   4.994   4.462
20584TIP3    H161629   9.089   5.034   4.524
20584TIP3    H261630   9.137   5.043   4.380
20585TIP3   OH261631   7.310   8.762   0.792
20585TIP3    H161632   7.349   8.694   0.737
20585TIP3    H261633   7.264   8.714   0.861
20586TIP3   OH261634   7.263   7.300   6.328
20586TIP3    H161635   7.269   7.344   6.243
20586TIP3    H261636   7.169   7.287   6.342
20587TIP3   OH261637   6.328   5.416   0.119
20587TIP3    H161638   6.342   5.337   0.170
20587TIP3    H261639   6.273   5.472   0.175
20588TIP3   OH261640   2.707   5.811   7.639
20588TIP3    H161641   2.667   5.742   7.692
20588TIP3    H261642   2.800   5.789   7.636
20589TIP3   OH261643   9.472   1.707   1.881
20589TIP3    H161644   9.533   1.702   1.955
20589TIP3    H261645   9.403   1.766   1.912
20590TIP3   OH261646   0.944   5.765   0.723
20590TIP3    H161647   0.908   5.685   0.684
20590TIP3    H261648   1.034   5.770   0.691
20591TIP3   OH261649   8.816   5.988   1.288
20591TIP3    H161650   8.794   6.070   1.331
20591TIP3    H261651   8.777   5.996   1.201
20592TIP3   OH261652   1.561   8.428   1.160
20592TIP3    H161653   1.484   8.372   1.174
20592TIP3    H261654   1.537   8.512   1.200
20593TIP3   OH261655   1.522   3.747   2.426
20593TIP3    H161656   1.437   3.781   2.395
20593TIP3    H261657   1.583   3.820   2.413
20594TIP3   OH261658   6.016   7.110   3.324
20594TIP3    H161659   5.924   7.097   3.303
20594TIP3    H261660   6.046   7.177   3.263
20595TIP3   OH261661   2.185   8.368   5.619
20595TIP3    H161662   2.169   8.294   5.677
20595TIP3    H261663   2.214   8.329   5.536
20596TIP3   OH261664   5.631   5.122   4.745
20596TIP3    H161665   5.607   5.071   4.822
20596TIP3    H261666   5.548   5.146   4.704
20597TIP3   OH261667   5.340   4.148   4.063
20597TIP3    H161668   5.281   4.138   3.988
20597TIP3    H261669   5.413   4.200   4.029
20598TIP3   OH261670   5.319   0.686   1.444
20598TIP3    H161671   5.360   0.772   1.457
20598TIP3    H261672   5.321   0.646   1.531
20599TIP3   OH261673   6.293   7.603   0.198
20599TIP3    H161674   6.333   7.656   0.267
20599TIP3    H261675   6.252   7.530   0.244
20600TIP3   OH261676   1.107   2.148   0.519
20600TIP3    H161677   1.100   2.075   0.458
20600TIP3    H261678   1.197   2.145   0.551
20601TIP3   OH261679   6.964   1.941   1.044
20601TIP3    H161680   6.954   2.031   1.013
20601TIP3    H261681   6.908   1.936   1.121
20602TIP3   OH261682   5.385   4.364   5.686
20602TIP3    H161683   5.463   4.333   5.732
20602TIP3    H261684   5.373   4.302   5.614
20603TIP3   OH261685   2.976   6.602   1.552
20603TIP3    H161686   3.007   6.642   1.471
20603TIP3    H261687   2.963   6.510   1.530
20604TIP3   OH261688   8.265   4.359   7.370
20604TIP3    H161689   8.300   4.443   7.399
20604TIP3    H261690   8.304   4.346   7.284
20605TIP3   OH261691   5.046   3.109   4.796
20605TIP3    H161692   5.070   3.193   4.757
20605TIP3    H261693   4.975   3.129   4.856
20606TIP3   OH261694   2.031   0.954   1.294
20606TIP3    H161695   2.002   1.045   1.284
20606TIP3    H261696   1.998   0.910   1.216
20607TIP3   OH261697   8.179   3.020   3.497
20607TIP3    H161698   8.147   3.043   3.584
20607TIP3    H261699   8.251   3.081   3.481
20608TIP3   OH261700   3.416   4.685   5.207
20608TIP3    H161701   3.372   4.748   5.265
20608TIP3    H261702   3.445   4.615   5.265
20609TIP3   OH261703   8.523   2.621   2.336
20609TIP3    H161704   8.535   2.653   2.425
20609TIP3    H261705   8.532   2.700   2.282
20610TIP3   OH261706   1.591   4.207   0.862
20610TIP3    H161707   1.674   4.254   0.860
20610TIP3    H261708   1.533   4.263   0.914
20611TIP3   OH261709   7.253   4.271   2.670
20611TIP3    H161710   7.290   4.331   2.606
20611TIP3    H261711   7.168   4.308   2.692
20612TIP3   OH261712   0.512   5.484   2.731
20612TIP3    H161713   0.536   5.453   2.819
20612TIP3    H261714   0.445   5.422   2.702
20613TIP3   OH261715   6.923   5.594   0.958
20613TIP3    H161716   7.009   5.558   0.975
20613TIP3    H261717   6.863   5.540   1.009
20614TIP3   OH261718   5.952   2.615   1.397
20614TIP3    H161719   5.873   2.631   1.449
20614TIP3    H261720   5.926   2.634   1.307
20615TIP3   OH261721   3.037   3.163   2.480
20615TIP3    H161722   2.974   3.096   2.510
20615TIP3    H261723   3.000   3.246   2.510
20616TIP3   OH261724   8.903   3.828   0.413
20616TIP3    H161725   8.898   3.735   0.434
20616TIP3    H261726   8.859   3.872   0.486
20617TIP3   OH261727   4.296   7.122   7.630
20617TIP3    H161728   4.302   7.165   7.715
20617TIP3    H261729   4.382   7.136   7.590
20618TIP3   OH261730   9.283   7.797   5.791
20618TIP3    H161731   9.239   7.728   5.741
20618TIP3    H261732   9.214   7.836   5.844
20619TIP3   OH261733   7.254   1.116   7.426
20619TIP3    H161734   7.330   1.155   7.383
20619TIP3    H261735   7.180   1.169   7.396
20620TIP3   OH261736   3.066   3.481   3.844
20620TIP3    H161737   3.153   3.460   3.877
20620TIP3    H261738   3.016   3.507   3.921
20621TIP3   OH261739   4.997   4.229   0.239
20621TIP3    H161740   4.951   4.145   0.241
20621TIP3    H261741   5.081   4.210   0.196
20622TIP3   OH261742   4.569   1.386   6.984
20622TIP3    H161743   4.488   1.398   7.032
20622TIP3    H261744   4.565   1.296   6.952
20623TIP3   OH261745   5.566   0.060   0.899
20623TIP3    H161746   5.654   0.090   0.874
20623TIP3    H261747   5.520   0.139   0.925
20624TIP3   OH261748   1.448   7.011   4.737
20624TIP3    H161749   1.382   6.952   4.701
20624TIP3    H261750   1.402   7.060   4.805
20625TIP3   OH261751   8.482   4.885   3.278
20625TIP3    H161752   8.554   4.882   3.342
20625TIP3    H261753   8.497   4.810   3.221
20626TIP3   OH261754   2.244   8.204   2.053
20626TIP3    H161755   2.212   8.251   1.976
20626TIP3    H261756   2.296   8.268   2.100
20627TIP3   OH261757   6.591   3.860   0.402
20627TIP3    H161758   6.538   3.783   0.383
20627TIP3    H261759   6.527   3.927   0.426
20628TIP3   OH261760   8.414   7.265   6.530
20628TIP3    H161761   8.389   7.200   6.595
20628TIP3    H261762   8.339   7.325   6.525
20629TIP3   OH261763   9.207   6.337   7.114
20629TIP3    H161764   9.259   6.294   7.046
20629TIP3    H261765   9.182   6.421   7.076
20630TIP3   OH261766   1.389   3.033   2.151
20630TIP3    H161767   1.482   3.019   2.168
20630TIP3    H261768   1.345   3.006   2.232
20631TIP3   OH261769   0.865   0.027   6.679
20631TIP3    H161770   0.912  -0.046   6.719
20631TIP3    H261771   0.787  -0.012   6.639
20632TIP3   OH261772   2.517   3.322   3.039
20632TIP3    H161773   2.555   3.235   3.026
20632TIP3    H261774   2.424   3.306   3.055
20633TIP3   OH261775   2.864   0.298   6.022
20633TIP3    H161776   2.888   0.276   6.112
20633TIP3    H261777   2.947   0.300   5.974
20634TIP3   OH261778   5.943   6.204   7.031
20634TIP3    H161779   5.851   6.185   7.049
20634TIP3    H261780   5.991   6.161   7.103
20635TIP3   OH261781   0.556   5.638   4.533
20635TIP3    H161782   0.482   5.579   4.514
20635TIP3    H261783   0.630   5.599   4.487
20636TIP3   OH261784   5.464   7.847   7.160
20636TIP3    H161785   5.502   7.763   7.185
20636TIP3    H261786   5.401   7.867   7.230
20637TIP3   OH261787   7.866   8.956   0.982
20637TIP3    H161788   7.890   9.048   0.965
20637TIP3    H261789   7.941   8.920   1.030
20638TIP3   OH261790   0.515   5.927   5.801
20638TIP3    H161791   0.440   5.943   5.858
20638TIP3    H261792   0.483   5.863   5.737
20639TIP3   OH261793   1.133   0.796   7.675
20639TIP3    H161794   1.066   0.827   7.736
20639TIP3    H261795   1.200   0.756   7.731
20640TIP3   OH261796   3.116   5.456   1.628
20640TIP3    H161797   3.205   5.452   1.593
20640TIP3    H261798   3.089   5.364   1.637
20641TIP3   OH261799   2.248   3.523   4.358
20641TIP3    H161800   2.257   3.448   4.298
20641TIP3    H261801   2.267   3.487   4.444
20642TIP3   OH261802   4.613   1.147   4.445
20642TIP3    H161803   4.595   1.202   4.368
20642TIP3    H261804   4.676   1.082   4.414
20643TIP3   OH261805   8.164   4.625   4.995
20643TIP3    H161806   8.135   4.716   4.998
20643TIP3    H261807   8.212   4.612   5.076
20644TIP3   OH261808   9.069   7.971   2.987
20644TIP3    H161809   9.118   7.889   2.995
20644TIP3    H261810   8.986   7.945   2.947
20645TIP3   OH261811   2.827   2.598   0.602
20645TIP3    H161812   2.877   2.629   0.527
20645TIP3    H261813   2.739   2.582   0.568
20646TIP3   OH261814   4.721   2.217   6.074
20646TIP3    H161815   4.814   2.232   6.060
20646TIP3    H261816   4.691   2.178   5.992
20647TIP3   OH261817   0.156   7.567   6.873
20647TIP3    H161818   0.249   7.559   6.851
20647TIP3    H261819   0.121   7.478   6.865
20648TIP3   OH261820   4.230   7.562   0.196
20648TIP3    H161821   4.206   7.594   0.109
20648TIP3    H261822   4.155   7.509   0.223
20649TIP3   OH261823   2.630   2.999   0.644
20649TIP3    H161824   2.600   2.961   0.727
20649TIP3    H261825   2.550   3.014   0.593
20650TIP3   OH261826   6.301   1.766   1.417
20650TIP3    H161827   6.218   1.770   1.370
20650TIP3    H261828   6.277   1.774   1.509
20651TIP3   OH261829   4.602   1.328   3.175
20651TIP3    H161830   4.662   1.302   3.246
20651TIP3    H261831   4.601   1.423   3.178
20652TIP3   OH261832   0.411   2.012   6.202
20652TIP3    H161833   0.359   1.940   6.238
20652TIP3    H261834   0.440   2.061   6.278
20653TIP3   OH261835   9.152   3.364   2.566
20653TIP3    H161836   9.137   3.270   2.559
20653TIP3    H261837   9.095   3.403   2.500
20654TIP3   OH261838   6.149   1.019   6.001
20654TIP3    H161839   6.104   0.943   5.964
20654TIP3    H261840   6.241   1.006   5.976
20655TIP3   OH261841   1.717   7.737   2.669
20655TIP3    H161842   1.797   7.686   2.656
20655TIP3    H261843   1.676   7.699   2.746
20656TIP3   OH261844   6.901   0.945   4.351
20656TIP3    H161845   6.978   0.949   4.295
20656TIP3    H261846   6.838   1.003   4.309
20657TIP3   OH261847   0.792   5.510   6.766
20657TIP3    H161848   0.732   5.577   6.798
20657TIP3    H261849   0.771   5.500   6.674
20658TIP3   OH261850   7.927   7.169   5.351
20658TIP3    H161851   7.834   7.189   5.350
20658TIP3    H261852   7.937   7.097   5.289
20659TIP3   OH261853   2.308   8.370   2.503
20659TIP3    H161854   2.328   8.452   2.458
20659TIP3    H261855   2.213   8.371   2.513
20660TIP3   OH261856   7.596   3.148   5.612
20660TIP3    H161857   7.516   3.152   5.558
20660TIP3    H261858   7.662   3.112   5.553
20661TIP3   OH261859   2.077   3.872   0.579
20661TIP3    H161860   2.171   3.859   0.572
20661TIP3    H261861   2.044   3.862   0.490
20662TIP3   OH261862   8.659   1.659   0.151
20662TIP3    H161863   8.662   1.579   0.204
20662TIP3    H261864   8.613   1.723   0.206
20663TIP3   OH261865   4.781   6.766   3.522
20663TIP3    H161866   4.722   6.836   3.494
20663TIP3    H261867   4.758   6.750   3.614
20664TIP3   OH261868   3.693   2.785   3.477
20664TIP3    H161869   3.639   2.836   3.416
20664TIP3    H261870   3.766   2.753   3.424
20665TIP3   OH261871   6.131   2.448   1.553
20665TIP3    H161872   6.083   2.505   1.492
20665TIP3    H261873   6.084   2.458   1.636
20666TIP3   OH261874   3.066   3.102   2.050
20666TIP3    H161875   3.108   3.169   2.103
20666TIP3    H261876   3.088   3.125   1.960
20667TIP3   OH261877   5.424   3.761   3.224
20667TIP3    H161878   5.448   3.811   3.146
20667TIP3    H261879   5.329   3.764   3.226
20668TIP3   OH261880   8.967   0.114   5.855
20668TIP3    H161881   8.933   0.189   5.904
20668TIP3    H261882   8.923   0.038   5.893
20669TIP3   OH261883   0.899   2.262   7.442
20669TIP3    H161884   0.877   2.255   7.349
20669TIP3    H261885   0.817   2.244   7.488
20670TIP3   OH261886   4.239   2.705   6.147
20670TIP3    H161887   4.305   2.732   6.210
20670TIP3    H261888   4.187   2.639   6.193
20671TIP3   OH261889   3.105   5.551   6.134
20671TIP3    H161890   3.188   5.595   6.117
20671TIP3    H261891   3.100   5.543   6.229
20672TIP3   OH261892   1.772   2.153   5.464
20672TIP3    H161893   1.761   2.175   5.372
20672TIP3    H261894   1.685   2.128   5.494
20673TIP3   OH261895   3.190   6.131   5.645
20673TIP3    H161896   3.165   6.045   5.679
20673TIP3    H261897   3.115   6.159   5.593
20674TIP3   OH261898   3.369   8.888   7.110
20674TIP3    H161899   3.346   8.817   7.171
20674TIP3    H261900   3.424   8.947   7.162
20675TIP3   OH261901   4.001   2.391   7.325
20675TIP3    H161902   4.018   2.399   7.420
20675TIP3    H261903   4.088   2.380   7.287
20676TIP3   OH261904   6.324   1.516   3.905
20676TIP3    H161905   6.352   1.443   3.961
20676TIP3    H261906   6.363   1.496   3.820
20677TIP3   OH261907   1.559   0.583   6.600
20677TIP3    H161908   1.469   0.572   6.631
20677TIP3    H261909   1.552   0.635   6.520
20678TIP3   OH261910   1.382   1.011   2.670
20678TIP3    H161911   1.288   0.999   2.681
20678TIP3    H261912   1.416   0.924   2.654
20679TIP3   OH261913   3.423   2.585   2.954
20679TIP3    H161914   3.451   2.538   3.032
20679TIP3    H261915   3.373   2.660   2.987
20680TIP3   OH261916   6.470   0.336   5.924
20680TIP3    H161917   6.455   0.245   5.900
20680TIP3    H261918   6.384   0.370   5.949
20681TIP3   OH261919   8.950   4.064   3.159
20681TIP3    H161920   8.858   4.058   3.182
20681TIP3    H261921   8.951   4.113   3.076
20682TIP3   OH261922   4.829   2.333   0.150
20682TIP3    H161923   4.809   2.403   0.087
20682TIP3    H261924   4.885   2.272   0.102
20683TIP3   OH261925   5.531   5.298   5.298
20683TIP3    H161926   5.443   5.328   5.277
20683TIP3    H261927   5.534   5.297   5.393
20684TIP3   OH261928   7.830   6.265   3.900
20684TIP3    H161929   7.870   6.352   3.888
20684TIP3    H261930   7.821   6.256   3.995
20685TIP3   OH261931   2.618   0.818   0.811
20685TIP3    H161932   2.554   0.839   0.743
20685TIP3    H261933   2.577   0.847   0.893
20686TIP3   OH261934   8.565   0.100   6.391
20686TIP3    H161935   8.607   0.176   6.431
20686TIP3    H261936   8.478   0.097   6.431
20687TIP3   OH261937   5.111   1.444   1.245
20687TIP3    H161938   5.123   1.532   1.210
20687TIP3    H261939   5.160   1.387   1.185
20688TIP3   OH261940   7.137   6.038   0.959
20688TIP3    H161941   7.081   5.964   0.935
20688TIP3    H261942   7.226   6.002   0.957
20689TIP3   OH261943   8.616   2.742   2.575
20689TIP3    H161944   8.578   2.829   2.589
20689TIP3    H261945   8.571   2.686   2.638
20690TIP3   OH261946   7.061   6.375   0.120
20690TIP3    H161947   7.081   6.358   0.212
20690TIP3    H261948   6.966   6.388   0.119
20691TIP3   OH261949   1.499   8.473   6.282
20691TIP3    H161950   1.456   8.553   6.313
20691TIP3    H261951   1.575   8.504   6.233
20692TIP3   OH261952   0.995   2.404   7.062
20692TIP3    H161953   1.057   2.478   7.058
20692TIP3    H261954   0.990   2.373   6.972
20693TIP3   OH261955   4.028   1.352   2.894
20693TIP3    H161956   4.080   1.413   2.842
20693TIP3    H261957   4.023   1.392   2.981
20694TIP3   OH261958   7.388   4.499   4.232
20694TIP3    H161959   7.421   4.458   4.312
20694TIP3    H261960   7.418   4.590   4.237
20695TIP3   OH261961   7.003   8.537   4.293
20695TIP3    H161962   7.093   8.570   4.303
20695TIP3    H261963   6.949   8.615   4.287
20696TIP3   OH261964   7.778   5.534   2.351
20696TIP3    H161965   7.690   5.565   2.370
20696TIP3    H261966   7.774   5.502   2.261
20697TIP3   OH261967   2.087   4.288   1.029
20697TIP3    H161968   2.083   4.280   1.125
20697TIP3    H261969   2.147   4.219   1.002
20698TIP3   OH261970   4.553   3.830   5.973
20698TIP3    H161971   4.479   3.874   5.932
20698TIP3    H261972   4.611   3.809   5.900
20699TIP3   OH261973   1.288   8.011   5.578
20699TIP3    H161974   1.361   8.052   5.626
20699TIP3    H261975   1.279   7.925   5.620
20700TIP3   OH261976   8.407   6.989   5.739
20700TIP3    H161977   8.426   7.076   5.774
20700TIP3    H261978   8.487   6.939   5.754
20701TIP3   OH261979   7.644   8.112   5.207
20701TIP3    H161980   7.716   8.123   5.269
20701TIP3    H261981   7.575   8.169   5.241
20702TIP3   OH261982   6.057   6.372   3.419
20702TIP3    H161983   6.080   6.423   3.497
20702TIP3    H261984   5.994   6.428   3.373
20703TIP3   OH261985   8.382   6.797   1.771
20703TIP3    H161986   8.459   6.845   1.801
20703TIP3    H261987   8.324   6.794   1.847
20704TIP3   OH261988   6.631   5.645   0.250
20704TIP3    H161989   6.627   5.736   0.280
20704TIP3    H261990   6.641   5.594   0.331
20705TIP3   OH261991   2.722   4.239   4.072
20705TIP3    H161992   2.675   4.319   4.046
20705TIP3    H261993   2.784   4.223   4.001
20706TIP3   OH261994   3.614   2.231   3.819
20706TIP3    H161995   3.700   2.195   3.799
20706TIP3    H261996   3.631   2.299   3.884
20707TIP3   OH261997   0.956   1.342   2.732
20707TIP3    H161998   1.008   1.315   2.808
20707TIP3    H261999   0.991   1.427   2.708
20708TIP3   OH262000   5.020   3.819   2.583
20708TIP3    H162001   5.101   3.868   2.597
20708TIP3    H262002   4.974   3.823   2.667
20709TIP3   OH262003   7.140   7.069   0.638
20709TIP3    H162004   7.069   7.027   0.687
20709TIP3    H262005   7.211   7.005   0.640
20710TIP3   OH262006   9.361   8.250   3.249
20710TIP3    H162007   9.365   8.165   3.203
20710TIP3    H262008   9.451   8.283   3.244
20711TIP3   OH262009   4.522   5.600   6.668
20711TIP3    H162010   4.538   5.600   6.573
20711TIP3    H262011   4.534   5.508   6.694
20712TIP3   OH262012   5.601   3.242   6.345
20712TIP3    H162013   5.654   3.227   6.423
20712TIP3    H262014   5.658   3.220   6.272
20713TIP3   OH262015   5.976   8.506   4.716
20713TIP3    H162016   5.983   8.597   4.687
20713TIP3    H262017   6.045   8.496   4.782
20714TIP3   OH262018   5.725   4.786   3.815
20714TIP3    H162019   5.668   4.861   3.797
20714TIP3    H262020   5.666   4.717   3.845
20715TIP3   OH262021   9.134   3.898   1.658
20715TIP3    H162022   9.122   3.819   1.604
20715TIP3    H262023   9.227   3.898   1.680
20716TIP3   OH262024   3.794   1.339   6.569
20716TIP3    H162025   3.700   1.323   6.581
20716TIP3    H262026   3.834   1.253   6.577
20717TIP3   OH262027   1.097   8.460   2.225
20717TIP3    H162028   1.060   8.418   2.303
20717TIP3    H262029   1.046   8.541   2.216
20718TIP3   OH262030   0.621   8.168   0.452
20718TIP3    H162031   0.548   8.107   0.464
20718TIP3    H262032   0.671   8.131   0.379
20719TIP3   OH262033   5.610   8.565   6.400
20719TIP3    H162034   5.561   8.538   6.322
20719TIP3    H262035   5.591   8.497   6.464
20720TIP3   OH262036   6.408   7.567   4.630
20720TIP3    H162037   6.486   7.512   4.635
20720TIP3    H262038   6.407   7.615   4.713
20721TIP3   OH262039   0.812   1.045   1.195
20721TIP3    H162040   0.741   1.023   1.135
20721TIP3    H262041   0.889   1.054   1.139
20722TIP3   OH262042   7.345   0.768   2.361
20722TIP3    H162043   7.412   0.832   2.341
20722TIP3    H262044   7.276   0.785   2.297
20723TIP3   OH262045   4.573   4.536   4.951
20723TIP3    H162046   4.514   4.462   4.937
20723TIP3    H262047   4.592   4.570   4.863
20724TIP3   OH262048   8.957   4.270   4.851
20724TIP3    H162049   8.916   4.323   4.919
20724TIP3    H262050   9.005   4.203   4.899
20725TIP3   OH262051   8.300   0.370   1.249
20725TIP3    H162052   8.224   0.351   1.303
20725TIP3    H262053   8.363   0.301   1.271
20726TIP3   OH262054   1.117   0.217   0.844
20726TIP3    H162055   1.071   0.138   0.870
20726TIP3    H262056   1.103   0.224   0.750
20727TIP3   OH262057   8.986   8.239   0.944
20727TIP3    H162058   9.077   8.218   0.966
20727TIP3    H262059   8.991   8.281   0.859
20728TIP3   OH262060   9.228   1.966   1.710
20728TIP3    H162061   9.313   2.008   1.724
20728TIP3    H262062   9.191   2.012   1.635
20729TIP3   OH262063   1.431   5.927   6.770
20729TIP3    H162064   1.491   5.924   6.696
20729TIP3    H262065   1.360   5.868   6.746
20730TIP3   OH262066   3.383   6.011   6.016
20730TIP3    H162067   3.353   5.982   6.102
20730TIP3    H262068   3.309   6.059   5.980
20731TIP3   OH262069   2.427   5.735   3.058
20731TIP3    H162070   2.464   5.812   3.014
20731TIP3    H262071   2.359   5.769   3.115
20732TIP3   OH262072   4.169   2.564   1.694
20732TIP3    H162073   4.138   2.492   1.749
20732TIP3    H262074   4.092   2.620   1.683
20733TIP3   OH262075   5.766   2.449   1.709
20733TIP3    H162076   5.686   2.400   1.731
20733TIP3    H262077   5.735   2.538   1.695
20734TIP3   OH262078   0.950   4.424   4.584
20734TIP3    H162079   0.881   4.363   4.560
20734TIP3    H262080   0.997   4.381   4.655
20735TIP3   OH262081   5.262   4.052   3.818
20735TIP3    H162082   5.337   4.038   3.760
20735TIP3    H262083   5.186   4.032   3.763
20736TIP3   OH262084   2.841   8.412   4.585
20736TIP3    H162085   2.831   8.360   4.665
20736TIP3    H262086   2.819   8.501   4.613
20737TIP3   OH262087   5.232   8.217   1.957
20737TIP3    H162088   5.280   8.254   2.032
20737TIP3    H262089   5.189   8.139   1.992
20738TIP3   OH262090   7.066   3.660   0.811
20738TIP3    H162091   7.011   3.739   0.811
20738TIP3    H262092   7.155   3.693   0.820
20739TIP3   OH262093   6.998   8.910   3.588
20739TIP3    H162094   7.044   8.854   3.650
20739TIP3    H262095   6.920   8.940   3.635
20740TIP3   OH262096   6.479   0.575   1.836
20740TIP3    H162097   6.469   0.668   1.817
20740TIP3    H262098   6.392   0.546   1.861
20741TIP3   OH262099   0.505   1.325   6.510
20741TIP3    H162100   0.504   1.351   6.602
20741TIP3    H262101   0.451   1.246   6.506
20742TIP3   OH262102   0.924   3.348   1.773
20742TIP3    H162103   0.915   3.299   1.855
20742TIP3    H262104   0.835   3.375   1.751
20743TIP3   OH262105   0.986   1.929   1.846
20743TIP3    H162106   0.990   1.987   1.922
20743TIP3    H262107   1.076   1.923   1.815
20744TIP3   OH262108   7.455   5.595   1.576
20744TIP3    H162109   7.467   5.537   1.501
20744TIP3    H262110   7.365   5.626   1.568
20745TIP3   OH262111   3.499   0.248   4.570
20745TIP3    H162112   3.518   0.278   4.659
20745TIP3    H262113   3.570   0.285   4.517
20746TIP3   OH262114   2.142   5.138   3.269
20746TIP3    H162115   2.174   5.162   3.182
20746TIP3    H262116   2.087   5.212   3.295
20747TIP3   OH262117   3.988   6.191   5.647
20747TIP3    H162118   4.008   6.281   5.620
20747TIP3    H262119   3.971   6.145   5.565
20748TIP3   OH262120   5.991   2.673   1.932
20748TIP3    H162121   6.084   2.649   1.929
20748TIP3    H262122   5.991   2.769   1.923
20749TIP3   OH262123   3.442   8.172   5.190
20749TIP3    H162124   3.401   8.147   5.107
20749TIP3    H262125   3.384   8.239   5.226
20750TIP3   OH262126   2.608   2.823   4.164
20750TIP3    H162127   2.576   2.754   4.105
20750TIP3    H262128   2.614   2.900   4.108
20751TIP3   OH262129   6.820   1.632   5.305
20751TIP3    H162130   6.733   1.670   5.296
20751TIP3    H262131   6.813   1.573   5.381
20752TIP3   OH262132   6.657   2.133   5.987
20752TIP3    H162133   6.631   2.225   5.985
20752TIP3    H262134   6.597   2.089   5.927
20753TIP3   OH262135   8.109   5.968   2.966
20753TIP3    H162136   8.036   5.944   3.023
20753TIP3    H262137   8.068   6.015   2.893
20754TIP3   OH262138   7.117   5.966   2.442
20754TIP3    H162139   7.031   5.965   2.485
20754TIP3    H262140   7.120   5.884   2.393
20755TIP3   OH262141   8.174   7.622   5.408
20755TIP3    H162142   8.099   7.624   5.349
20755TIP3    H262143   8.175   7.708   5.450
20756TIP3   OH262144   8.970   5.822   5.805
20756TIP3    H162145   9.049   5.876   5.798
20756TIP3    H262146   9.001   5.740   5.844
20757TIP3   OH262147   0.739   8.320   3.587
20757TIP3    H162148   0.724   8.412   3.568
20757TIP3    H262149   0.659   8.276   3.557
20758TIP3   OH262150   5.151   4.870   3.601
20758TIP3    H162151   5.225   4.854   3.659
20758TIP3    H262152   5.075   4.838   3.650
20759TIP3   OH262153   6.483   8.558   3.178
20759TIP3    H162154   6.578   8.568   3.171
20759TIP3    H262155   6.455   8.533   3.089
20760TIP3   OH262156   7.615   3.188   0.834
20760TIP3    H162157   7.620   3.137   0.753
20760TIP3    H262158   7.702   3.180   0.873
20761TIP3   OH262159   2.696   5.366   3.647
20761TIP3    H162160   2.650   5.449   3.660
20761TIP3    H262161   2.757   5.384   3.575
20762TIP3   OH262162   5.525   1.856   0.735
20762TIP3    H162163   5.617   1.828   0.737
20762TIP3    H262164   5.529   1.944   0.696
20763TIP3   OH262165   4.793   3.868   7.597
20763TIP3    H162166   4.769   3.813   7.672
20763TIP3    H262167   4.886   3.851   7.584
20764TIP3   OH262168   1.838   4.798   0.546
20764TIP3    H162169   1.849   4.869   0.483
20764TIP3    H262170   1.807   4.841   0.626
20765TIP3   OH262171   9.506   1.347   7.188
20765TIP3    H162172   9.571   1.306   7.131
20765TIP3    H262173   9.439   1.280   7.200
20766TIP3   OH262174   3.997   2.142   0.267
20766TIP3    H162175   3.959   2.156   0.181
20766TIP3    H262176   3.924   2.117   0.323
20767TIP3   OH262177   7.796   4.140   3.693
20767TIP3    H162178   7.703   4.119   3.681
20767TIP3    H262179   7.841   4.059   3.669
20768TIP3   OH262180   7.584   0.616   0.294
20768TIP3    H162181   7.655   0.585   0.237
20768TIP3    H262182   7.621   0.690   0.340
20769TIP3   OH262183   8.439   0.096   1.274
20769TIP3    H162184   8.426   0.064   1.185
20769TIP3    H262185   8.452   0.017   1.326
20770TIP3   OH262186   7.798   4.262   4.327
20770TIP3    H162187   7.755   4.189   4.373
20770TIP3    H262188   7.741   4.279   4.252
20771TIP3   OH262189   5.311   4.829   5.291
20771TIP3    H162190   5.265   4.750   5.320
20771TIP3    H262191   5.402   4.802   5.283
20772TIP3   OH262192   6.226   4.503   7.368
20772TIP3    H162193   6.243   4.468   7.456
20772TIP3    H262194   6.239   4.427   7.311
20773TIP3   OH262195   8.331   4.958   6.058
20773TIP3    H162196   8.386   5.035   6.077
20773TIP3    H262197   8.331   4.909   6.141
20774TIP3   OH262198   3.585   7.028   5.205
20774TIP3    H162199   3.616   7.111   5.169
20774TIP3    H262200   3.493   7.043   5.226
20775TIP3   OH262201   5.047   4.553   1.409
20775TIP3    H162202   5.001   4.469   1.411
20775TIP3    H262203   5.029   4.588   1.322
20776TIP3   OH262204   6.156   8.733   1.391
20776TIP3    H162205   6.092   8.662   1.381
20776TIP3    H262206   6.103   8.813   1.395
20777TIP3   OH262207   3.012   3.786   4.248
20777TIP3    H162208   3.020   3.872   4.208
20777TIP3    H262209   3.091   3.776   4.301
20778TIP3   OH262210   5.924   3.163   5.235
20778TIP3    H162211   5.873   3.208   5.168
20778TIP3    H262212   5.882   3.187   5.317
20779TIP3   OH262213   7.343   4.608   6.075
20779TIP3    H162214   7.381   4.522   6.058
20779TIP3    H262215   7.359   4.657   5.994
20780TIP3   OH262216   8.751   8.556   6.165
20780TIP3    H162217   8.759   8.541   6.071
20780TIP3    H262218   8.774   8.648   6.177
20781TIP3   OH262219   1.029   1.236   7.186
20781TIP3    H162220   1.019   1.193   7.101
20781TIP3    H262221   0.979   1.317   7.178
20782TIP3   OH262222   7.131   7.210   0.991
20782TIP3    H162223   7.106   7.301   1.005
20782TIP3    H262224   7.190   7.213   0.916
20783TIP3   OH262225   6.530   7.319   6.809
20783TIP3    H162226   6.571   7.235   6.788
20783TIP3    H262227   6.604   7.377   6.827
20784TIP3   OH262228   7.545   1.958   5.210
20784TIP3    H162229   7.468   1.994   5.255
20784TIP3    H262230   7.587   2.034   5.170
20785TIP3   OH262231   2.830   4.487   7.093
20785TIP3    H162232   2.885   4.476   7.016
20785TIP3    H262233   2.754   4.431   7.077
20786TIP3   OH262234   9.354   7.929   6.912
20786TIP3    H162235   9.378   7.838   6.894
20786TIP3    H262236   9.438   7.975   6.915
20787TIP3   OH262237   6.340   1.766   0.931
20787TIP3    H162238   6.404   1.753   0.860
20787TIP3    H262239   6.324   1.678   0.965
20788TIP3   OH262240   7.229   5.874   1.740
20788TIP3    H162241   7.178   5.934   1.795
20788TIP3    H262242   7.226   5.791   1.787
20789TIP3   OH262243   3.591   7.680   1.131
20789TIP3    H162244   3.619   7.667   1.040
20789TIP3    H262245   3.646   7.621   1.182
20790TIP3   OH262246   3.311   1.915   5.899
20790TIP3    H162247   3.359   1.872   5.828
20790TIP3    H262248   3.265   1.843   5.943
20791TIP3   OH262249   5.320   0.700   2.280
20791TIP3    H162250   5.377   0.674   2.352
20791TIP3    H262251   5.246   0.639   2.285
20792TIP3   OH262252   3.985   1.829   4.519
20792TIP3    H162253   3.923   1.757   4.527
20792TIP3    H262254   4.043   1.819   4.594
20793TIP3   OH262255   4.617   1.601   3.177
20793TIP3    H162256   4.585   1.677   3.226
20793TIP3    H262257   4.663   1.638   3.102
20794TIP3   OH262258   0.382   8.036   5.048
20794TIP3    H162259   0.404   8.013   5.139
20794TIP3    H262260   0.294   8.072   5.053
20795TIP3   OH262261   3.450   6.457   5.332
20795TIP3    H162262   3.404   6.539   5.313
20795TIP3    H262263   3.427   6.438   5.423
20796TIP3   OH262264   8.741   5.897   4.476
20796TIP3    H162265   8.794   5.859   4.546
20796TIP3    H262266   8.701   5.822   4.432
20797TIP3   OH262267   7.490   7.875   5.145
20797TIP3    H162268   7.540   7.801   5.180
20797TIP3    H262269   7.553   7.947   5.141
20798TIP3   OH262270   6.246   6.638   3.860
20798TIP3    H162271   6.336   6.640   3.894
20798TIP3    H262272   6.216   6.729   3.866
20799TIP3   OH262273   0.944   7.238   2.887
20799TIP3    H162274   1.026   7.285   2.873
20799TIP3    H262275   0.932   7.237   2.982
20800TIP3   OH262276   1.951   7.645   1.708
20800TIP3    H162277   1.999   7.721   1.740
20800TIP3    H262278   2.019   7.581   1.685
20801TIP3   OH262279   0.470   5.073   4.962
20801TIP3    H162280   0.414   5.116   5.027
20801TIP3    H262281   0.409   5.039   4.897
20802TIP3   OH262282   0.693   8.629   4.440
20802TIP3    H162283   0.684   8.552   4.384
20802TIP3    H262284   0.610   8.635   4.486
20803TIP3   OH262285   9.471   7.855   4.104
20803TIP3    H162286   9.468   7.911   4.182
20803TIP3    H262287   9.537   7.789   4.125
20804TIP3   OH262288   4.063   5.981   2.915
20804TIP3    H162289   4.088   5.897   2.877
20804TIP3    H262290   4.051   5.963   3.008
20805TIP3   OH262291   4.863   4.786   3.426
20805TIP3    H162292   4.901   4.822   3.346
20805TIP3    H262293   4.768   4.800   3.415
20806TIP3   OH262294   0.449   0.592   4.912
20806TIP3    H162295   0.420   0.526   4.975
20806TIP3    H262296   0.399   0.574   4.833
20807TIP3   OH262297   3.368   3.273   6.355
20807TIP3    H162298   3.412   3.224   6.287
20807TIP3    H262299   3.321   3.207   6.406
20808TIP3   OH262300   7.843   2.032   5.842
20808TIP3    H162301   7.750   2.014   5.856
20808TIP3    H262302   7.846   2.125   5.817
20809TIP3   OH262303   3.207   4.293   1.740
20809TIP3    H162304   3.297   4.260   1.742
20809TIP3    H262305   3.154   4.218   1.767
20810TIP3   OH262306   2.579   2.297   6.651
20810TIP3    H162307   2.553   2.311   6.560
20810TIP3    H262308   2.620   2.379   6.678
20811TIP3   OH262309   2.655   7.143   5.180
20811TIP3    H162310   2.741   7.107   5.200
20811TIP3    H262311   2.671   7.235   5.159
20812TIP3   OH262312   3.878   5.557   6.069
20812TIP3    H162313   3.885   5.633   6.127
20812TIP3    H262314   3.843   5.487   6.124
20813TIP3   OH262315   3.281   2.986   6.332
20813TIP3    H162316   3.233   2.963   6.411
20813TIP3    H262317   3.363   2.937   6.338
20814TIP3   OH262318   9.043   5.186   4.648
20814TIP3    H162319   8.969   5.186   4.588
20814TIP3    H262320   9.019   5.250   4.715
20815TIP3   OH262321   3.399   1.742   6.136
20815TIP3    H162322   3.408   1.836   6.152
20815TIP3    H262323   3.443   1.700   6.209
20816TIP3   OH262324   4.966   5.435   7.066
20816TIP3    H162325   5.059   5.431   7.087
20816TIP3    H262326   4.935   5.516   7.107
20817TIP3   OH262327   5.491   6.792   3.815
20817TIP3    H162328   5.496   6.887   3.806
20817TIP3    H262329   5.412   6.777   3.867
20818TIP3   OH262330   5.683   3.087   4.479
20818TIP3    H162331   5.635   3.150   4.533
20818TIP3    H262332   5.642   3.003   4.498
20819TIP3   OH262333   6.474   5.553   2.990
20819TIP3    H162334   6.530   5.507   3.053
20819TIP3    H262335   6.400   5.585   3.041
20820TIP3   OH262336   7.793   1.274   3.676
20820TIP3    H162337   7.873   1.265   3.728
20820TIP3    H262338   7.722   1.274   3.741
20821TIP3   OH262339   1.395   7.595   2.087
20821TIP3    H162340   1.384   7.546   2.006
20821TIP3    H262341   1.371   7.685   2.063
20822TIP3   OH262342   9.470   4.140   4.639
20822TIP3    H162343   9.482   4.223   4.686
20822TIP3    H262344   9.502   4.158   4.551
20823TIP3   OH262345   1.179   1.453   6.408
20823TIP3    H162346   1.162   1.514   6.480
20823TIP3    H262347   1.257   1.405   6.436
20824TIP3   OH262348   9.394   7.806   0.823
20824TIP3    H162349   9.369   7.753   0.899
20824TIP3    H262350   9.321   7.795   0.762
20825TIP3   OH262351   8.032   8.658   0.109
20825TIP3    H162352   8.060   8.734   0.160
20825TIP3    H262353   8.111   8.629   0.063
20826TIP3   OH262354   5.300   5.854   2.120
20826TIP3    H162355   5.333   5.779   2.169
20826TIP3    H262356   5.254   5.907   2.185
20827TIP3   OH262357   9.243   7.329   6.573
20827TIP3    H162358   9.286   7.279   6.504
20827TIP3    H262359   9.153   7.294   6.575
20828TIP3   OH262360   8.754   0.009   2.127
20828TIP3    H162361   8.700   0.056   2.191
20828TIP3    H262362   8.719  -0.080   2.127
20829TIP3   OH262363   3.319   6.461   1.521
20829TIP3    H162364   3.255   6.517   1.476
20829TIP3    H262365   3.324   6.496   1.610
20830TIP3   OH262366   6.624   4.682   6.282
20830TIP3    H162367   6.676   4.614   6.325
20830TIP3    H262368   6.643   4.762   6.331
20831TIP3   OH262369   7.073   6.251   3.323
20831TIP3    H162370   7.102   6.165   3.353
20831TIP3    H262371   7.146   6.309   3.343
20832TIP3   OH262372   4.971   4.230   6.813
20832TIP3    H162373   5.035   4.163   6.789
20832TIP3    H262374   5.019   4.313   6.807
20833TIP3   OH262375   3.218   5.686   3.929
20833TIP3    H162376   3.310   5.698   3.952
20833TIP3    H262377   3.189   5.773   3.899
20834TIP3   OH262378   6.622   6.012   5.264
20834TIP3    H162379   6.609   6.102   5.235
20834TIP3    H262380   6.597   6.012   5.356
20835TIP3   OH262381   8.125   0.356   2.837
20835TIP3    H162382   8.185   0.429   2.854
20835TIP3    H262383   8.051   0.373   2.896
20836TIP3   OH262384   2.099   4.878   3.154
20836TIP3    H162385   2.080   4.959   3.201
20836TIP3    H262386   2.114   4.813   3.222
20837TIP3   OH262387   5.504   8.948   1.127
20837TIP3    H162388   5.413   8.924   1.110
20837TIP3    H262389   5.555   8.877   1.087
20838TIP3   OH262390   1.703   7.064   1.699
20838TIP3    H162391   1.634   7.042   1.636
20838TIP3    H262392   1.770   6.997   1.684
20839TIP3   OH262393   9.027   8.692   4.560
20839TIP3    H162394   9.078   8.739   4.626
20839TIP3    H262395   8.936   8.713   4.580
20840TIP3   OH262396   3.283   8.824   0.194
20840TIP3    H162397   3.299   8.911   0.157
20840TIP3    H262398   3.370   8.790   0.213
20841TIP3   OH262399   2.132   7.287   6.461
20841TIP3    H162400   2.049   7.328   6.438
20841TIP3    H262401   2.195   7.360   6.464
20842TIP3   OH262402   3.837   3.487   0.202
20842TIP3    H162403   3.896   3.431   0.150
20842TIP3    H262404   3.754   3.486   0.154
20843TIP3   OH262405   0.343   2.125   1.847
20843TIP3    H162406   0.343   2.146   1.940
20843TIP3    H262407   0.419   2.069   1.835
20844TIP3   OH262408   6.451   1.685   4.760
20844TIP3    H162409   6.436   1.736   4.839
20844TIP3    H262410   6.448   1.748   4.689
20845TIP3   OH262411   6.917   7.730   5.462
20845TIP3    H162412   6.968   7.683   5.396
20845TIP3    H262413   6.952   7.700   5.546
20846TIP3   OH262414   5.347   3.787   6.028
20846TIP3    H162415   5.346   3.877   6.060
20846TIP3    H262416   5.255   3.760   6.030
20847TIP3   OH262417   7.381   7.939   3.592
20847TIP3    H162418   7.413   7.920   3.503
20847TIP3    H262419   7.330   8.019   3.582
20848TIP3   OH262420   5.396   0.775   4.610
20848TIP3    H162421   5.475   0.769   4.663
20848TIP3    H262422   5.427   0.776   4.520
20849TIP3   OH262423   8.070   8.056   5.672
20849TIP3    H162424   8.099   8.015   5.591
20849TIP3    H262425   8.145   8.049   5.731
20850TIP3   OH262426   3.041   2.780   0.386
20850TIP3    H162427   3.115   2.812   0.438
20850TIP3    H262428   2.988   2.859   0.370
20851TIP3   OH262429   6.390   2.901   3.719
20851TIP3    H162430   6.441   2.849   3.657
20851TIP3    H262431   6.455   2.955   3.765
20852TIP3   OH262432   2.627   3.974   3.310
20852TIP3    H162433   2.682   3.900   3.338
20852TIP3    H262434   2.611   3.958   3.217
20853TIP3   OH262435   7.047   7.186   5.288
20853TIP3    H162436   6.957   7.154   5.277
20853TIP3    H262437   7.042   7.279   5.269
20854TIP3   OH262438   2.172   3.054   4.612
20854TIP3    H162439   2.264   3.028   4.622
20854TIP3    H262440   2.139   3.000   4.541
20855TIP3   OH262441   9.065   4.216   2.043
20855TIP3    H162442   9.016   4.267   2.108
20855TIP3    H262443   9.009   4.140   2.024
20856TIP3   OH262444   8.074   5.030   5.423
20856TIP3    H162445   8.008   4.983   5.373
20856TIP3    H262446   8.027   5.065   5.498
20857TIP3   OH262447   2.062   0.042   2.492
20857TIP3    H162448   2.134   0.048   2.555
20857TIP3    H262449   2.079   0.112   2.428
20858TIP3   OH262450   4.851   8.066   3.764
20858TIP3    H162451   4.914   8.049   3.834
20858TIP3    H262452   4.794   8.134   3.800
20859TIP3   OH262453   5.921   7.804   5.348
20859TIP3    H162454   5.890   7.757   5.426
20859TIP3    H262455   5.987   7.746   5.311
20860TIP3   OH262456   6.656   2.027   7.499
20860TIP3    H162457   6.655   1.974   7.419
20860TIP3    H262458   6.729   2.088   7.487
20861TIP3   OH262459   7.019   2.322   7.710
20861TIP3    H162460   6.982   2.346   7.795
20861TIP3    H262461   7.020   2.405   7.661
20862TIP3   OH262462   8.176   1.300   6.716
20862TIP3    H162463   8.118   1.338   6.650
20862TIP3    H262464   8.247   1.261   6.666
20863TIP3   OH262465   7.897   3.888   3.655
20863TIP3    H162466   7.989   3.877   3.631
20863TIP3    H262467   7.853   3.811   3.618
20864TIP3   OH262468   8.774   8.683   5.460
20864TIP3    H162469   8.837   8.707   5.528
20864TIP3    H262470   8.781   8.588   5.453
20865TIP3   OH262471   5.250   6.497   2.505
20865TIP3    H162472   5.288   6.409   2.509
20865TIP3    H262473   5.193   6.496   2.428
20866TIP3   OH262474   4.875   1.304   4.833
20866TIP3    H162475   4.806   1.239   4.844
20866TIP3    H262476   4.883   1.344   4.920
20867TIP3   OH262477   5.519   8.941   4.559
20867TIP3    H162478   5.491   9.030   4.579
20867TIP3    H262479   5.534   8.941   4.465
20868TIP3   OH262480   0.448   5.453   1.310
20868TIP3    H162481   0.519   5.483   1.366
20868TIP3    H262482   0.473   5.365   1.283
20869TIP3   OH262483   7.532   4.906   4.356
20869TIP3    H162484   7.559   4.817   4.330
20869TIP3    H262485   7.532   4.903   4.452
20870TIP3   OH262486   2.746   4.177   0.780
20870TIP3    H162487   2.758   4.245   0.846
20870TIP3    H262488   2.775   4.218   0.698
20871TIP3   OH262489   4.780   0.386   4.964
20871TIP3    H162490   4.711   0.449   4.983
20871TIP3    H262491   4.838   0.432   4.902
20872TIP3   OH262492   9.018   6.414   2.748
20872TIP3    H162493   9.078   6.487   2.735
20872TIP3    H262494   9.020   6.397   2.842
20873TIP3   OH262495   2.562   7.541   5.808
20873TIP3    H162496   2.521   7.455   5.814
20873TIP3    H262497   2.645   7.524   5.762
20874TIP3   OH262498   9.080   7.079   4.270
20874TIP3    H162499   9.018   7.151   4.276
20874TIP3    H262500   9.157   7.110   4.317
20875TIP3   OH262501   6.054   5.385   0.698
20875TIP3    H162502   6.149   5.392   0.705
20875TIP3    H262503   6.020   5.454   0.755
20876TIP3   OH262504   1.319   4.138   1.501
20876TIP3    H162505   1.274   4.158   1.419
20876TIP3    H262506   1.250   4.134   1.567
20877TIP3   OH262507   8.352   1.792   5.532
20877TIP3    H162508   8.332   1.700   5.516
20877TIP3    H262509   8.305   1.813   5.613
20878TIP3   OH262510   0.619   8.104   1.609
20878TIP3    H162511   0.698   8.062   1.642
20878TIP3    H262512   0.563   8.032   1.581
20879TIP3   OH262513   9.189   2.853   2.797
20879TIP3    H162514   9.117   2.825   2.853
20879TIP3    H262515   9.153   2.924   2.744
20880TIP3   OH262516   4.858   7.733   3.767
20880TIP3    H162517   4.932   7.772   3.720
20880TIP3    H262518   4.782   7.754   3.714
20881TIP3   OH262519   9.369   7.486   7.469
20881TIP3    H162520   9.273   7.478   7.469
20881TIP3    H262521   9.390   7.519   7.381
20882TIP3   OH262522   7.750   3.107   0.234
20882TIP3    H162523   7.659   3.083   0.254
20882TIP3    H262524   7.799   3.081   0.312
20883TIP3   OH262525   5.240   4.473   4.115
20883TIP3    H162526   5.150   4.476   4.082
20883TIP3    H262527   5.240   4.402   4.179
20884TIP3   OH262528   0.169   3.433   6.132
20884TIP3    H162529   0.190   3.507   6.075
20884TIP3    H262530   0.229   3.363   6.103
20885TIP3   OH262531   1.310   3.922   0.917
20885TIP3    H162532   1.393   3.961   0.942
20885TIP3    H262533   1.333   3.843   0.868
20886TIP3   OH262534   7.414   2.994   4.805
20886TIP3    H162535   7.420   3.057   4.733
20886TIP3    H262536   7.320   2.984   4.821
20887TIP3   OH262537   9.270   7.623   0.342
20887TIP3    H162538   9.278   7.603   0.435
20887TIP3    H262539   9.352   7.668   0.319
20888TIP3   OH262540   4.755   1.711   2.220
20888TIP3    H162541   4.736   1.739   2.131
20888TIP3    H262542   4.807   1.783   2.257
20889TIP3   OH262543   9.272   3.264   7.086
20889TIP3    H162544   9.312   3.179   7.069
20889TIP3    H262545   9.292   3.317   7.009
20890TIP3   OH262546   5.621   4.365   5.462
20890TIP3    H162547   5.679   4.372   5.387
20890TIP3    H262548   5.572   4.447   5.463
20891TIP3   OH262549   0.406   8.299   2.795
20891TIP3    H162550   0.393   8.382   2.841
20891TIP3    H262551   0.436   8.239   2.862
20892TIP3   OH262552   0.710   3.149   6.090
20892TIP3    H162553   0.695   3.222   6.030
20892TIP3    H262554   0.655   3.079   6.056
20893TIP3   OH262555   5.419   6.922   2.118
20893TIP3    H162556   5.339   6.906   2.069
20893TIP3    H262557   5.456   7.001   2.080
20894TIP3   OH262558   8.890   7.400   7.057
20894TIP3    H162559   8.857   7.392   6.968
20894TIP3    H262560   8.958   7.333   7.064
20895TIP3   OH262561   1.018   7.903   3.376
20895TIP3    H162562   0.963   7.973   3.412
20895TIP3    H262563   1.029   7.842   3.449
20896TIP3   OH262564   5.543   3.621   5.616
20896TIP3    H162565   5.580   3.709   5.625
20896TIP3    H262566   5.462   3.624   5.666
20897TIP3   OH262567   8.591   8.245   0.347
20897TIP3    H162568   8.521   8.216   0.406
20897TIP3    H262569   8.584   8.186   0.271
20898TIP3   OH262570   0.276   5.537   3.187
20898TIP3    H162571   0.302   5.576   3.104
20898TIP3    H262572   0.319   5.590   3.253
20899TIP3   OH262573   7.728   1.086   0.467
20899TIP3    H162574   7.806   1.115   0.419
20899TIP3    H262575   7.719   1.149   0.538
20900TIP3   OH262576   6.548   2.239   6.958
20900TIP3    H162577   6.584   2.324   6.933
20900TIP3    H262578   6.490   2.215   6.885
20901TIP3   OH262579   2.761   5.333   0.568
20901TIP3    H162580   2.819   5.333   0.492
20901TIP3    H262581   2.772   5.247   0.608
20902TIP3   OH262582   2.708   5.071   4.319
20902TIP3    H162583   2.651   4.999   4.292
20902TIP3    H262584   2.707   5.067   4.415
20903TIP3   OH262585   0.447   5.716   5.387
20903TIP3    H162586   0.490   5.636   5.357
20903TIP3    H262587   0.434   5.702   5.481
20904TIP3   OH262588   1.252   7.574   1.312
20904TIP3    H162589   1.159   7.592   1.296
20904TIP3    H262590   1.252   7.514   1.387
20905TIP3   OH262591   1.142   0.278   1.807
20905TIP3    H162592   1.136   0.266   1.902
20905TIP3    H262593   1.059   0.321   1.784
20906TIP3   OH262594   6.875   5.206   1.191
20906TIP3    H162595   6.810   5.158   1.242
20906TIP3    H262596   6.891   5.151   1.114
20907TIP3   OH262597   8.188   4.835   2.211
20907TIP3    H162598   8.148   4.875   2.134
20907TIP3    H262599   8.218   4.910   2.263
20908TIP3   OH262600   5.390   0.368   2.502
20908TIP3    H162601   5.360   0.457   2.521
20908TIP3    H262602   5.422   0.334   2.586
20909TIP3   OH262603   6.496   5.064   7.196
20909TIP3    H162604   6.530   4.998   7.136
20909TIP3    H262605   6.426   5.019   7.244
20910TIP3   OH262606   5.865   4.378   5.300
20910TIP3    H162607   5.872   4.471   5.279
20910TIP3    H262608   5.929   4.336   5.243
20911TIP3   OH262609   3.953   7.242   0.802
20911TIP3    H162610   3.997   7.302   0.863
20911TIP3    H262611   3.978   7.155   0.832
20912TIP3   OH262612   0.518   8.235   2.555
20912TIP3    H162613   0.516   8.298   2.484
20912TIP3    H262614   0.494   8.285   2.633
20913TIP3   OH262615   5.336   1.595   0.213
20913TIP3    H162616   5.311   1.520   0.266
20913TIP3    H262617   5.432   1.598   0.218
20914TIP3   OH262618   2.042   0.057   4.184
20914TIP3    H162619   2.014   0.132   4.130
20914TIP3    H262620   1.962   0.029   4.227
20915TIP3   OH262621   6.150   2.948   1.127
20915TIP3    H162622   6.127   2.957   1.220
20915TIP3    H262623   6.241   2.977   1.122
20916TIP3   OH262624   1.567   7.602   4.469
20916TIP3    H162625   1.634   7.580   4.534
20916TIP3    H262626   1.585   7.693   4.445
20917TIP3   OH262627   1.422   3.282   2.690
20917TIP3    H162628   1.417   3.287   2.785
20917TIP3    H262629   1.467   3.363   2.665
20918TIP3   OH262630   3.889   0.724   2.957
20918TIP3    H162631   3.804   0.680   2.960
20918TIP3    H262632   3.952   0.655   2.935
20919TIP3   OH262633   8.561   7.452   3.920
20919TIP3    H162634   8.653   7.437   3.944
20919TIP3    H262635   8.565   7.496   3.835
20920TIP3   OH262636   9.177   4.076   4.080
20920TIP3    H162637   9.204   4.168   4.079
20920TIP3    H262638   9.166   4.053   3.988
20921TIP3   OH262639   9.306   3.265   1.526
20921TIP3    H162640   9.294   3.350   1.483
20921TIP3    H262641   9.239   3.263   1.594
20922TIP3   OH262642   0.577   2.062   1.726
20922TIP3    H162643   0.557   1.992   1.664
20922TIP3    H262644   0.639   2.118   1.680
20923TIP3   OH262645   4.988   5.614   5.268
20923TIP3    H162646   4.920   5.554   5.236
20923TIP3    H262647   5.001   5.677   5.197
20924TIP3   OH262648   8.976   3.385   0.175
20924TIP3    H162649   8.926   3.420   0.102
20924TIP3    H262650   8.986   3.292   0.155
20925TIP3   OH262651   2.380   6.741   5.320
20925TIP3    H162652   2.399   6.823   5.365
20925TIP3    H262653   2.465   6.706   5.295
20926TIP3   OH262654   5.051   1.972   6.046
20926TIP3    H162655   5.145   1.991   6.048
20926TIP3    H262656   5.038   1.909   6.117
20927TIP3   OH262657   7.773   4.651   2.216
20927TIP3    H162658   7.735   4.739   2.209
20927TIP3    H262659   7.720   4.606   2.281
20928TIP3   OH262660   6.080   3.605   5.394
20928TIP3    H162661   6.095   3.511   5.392
20928TIP3    H262662   5.994   3.616   5.354
20929TIP3   OH262663   7.146   6.349   4.690
20929TIP3    H162664   7.226   6.310   4.727
20929TIP3    H262665   7.176   6.430   4.649
20930TIP3   OH262666   8.585   4.431   0.045
20930TIP3    H162667   8.521   4.404  -0.020
20930TIP3    H262668   8.660   4.372   0.031
20931TIP3   OH262669   0.920   2.117   1.356
20931TIP3    H162670   0.833   2.077   1.353
20931TIP3    H262671   0.934   2.153   1.269
20932TIP3   OH262672   7.882   5.724   4.205
20932TIP3    H162673   7.794   5.717   4.168
20932TIP3    H262674   7.938   5.742   4.130
20933TIP3   OH262675   6.374   0.995   5.391
20933TIP3    H162676   6.394   1.088   5.406
20933TIP3    H262677   6.401   0.952   5.472
20934TIP3   OH262678   3.809   0.438   6.821
20934TIP3    H162679   3.849   0.450   6.908
20934TIP3    H262680   3.821   0.522   6.777
20935TIP3   OH262681   9.005   0.512   6.264
20935TIP3    H162682   9.056   0.570   6.207
20935TIP3    H262683   8.914   0.540   6.251
20936TIP3   OH262684   4.927   7.905   7.795
20936TIP3    H162685   4.906   7.861   7.878
20936TIP3    H262686   4.864   7.976   7.789
20937TIP3   OH262687   2.555   1.932   6.182
20937TIP3    H162688   2.468   1.929   6.223
20937TIP3    H262689   2.538   1.960   6.092
20938TIP3   OH262690   8.650   5.075   0.542
20938TIP3    H162691   8.688   5.078   0.455
20938TIP3    H262692   8.556   5.087   0.528
20939TIP3   OH262693   1.426   7.405   0.978
20939TIP3    H162694   1.478   7.482   0.953
20939TIP3    H262695   1.435   7.345   0.904
20940TIP3   OH262696   0.974   8.350   3.719
20940TIP3    H162697   0.939   8.351   3.630
20940TIP3    H262698   1.068   8.365   3.707
20941TIP3   OH262699   2.849   3.489   5.756
20941TIP3    H162700   2.782   3.438   5.710
20941TIP3    H262701   2.802   3.567   5.786
20942TIP3   OH262702   2.676   2.301   5.851
20942TIP3    H162703   2.714   2.388   5.859
20942TIP3    H262704   2.729   2.257   5.784
20943TIP3   OH262705   9.126   1.211   0.421
20943TIP3    H162706   9.175   1.240   0.499
20943TIP3    H262707   9.193   1.198   0.354
20944TIP3   OH262708   2.223   4.052   2.067
20944TIP3    H162709   2.195   4.063   2.158
20944TIP3    H262710   2.217   3.958   2.051
20945TIP3   OH262711   8.106   2.247   1.405
20945TIP3    H162712   8.051   2.244   1.484
20945TIP3    H262713   8.044   2.252   1.333
20946TIP3   OH262714   5.085   0.317   2.000
20946TIP3    H162715   5.089   0.411   1.981
20946TIP3    H262716   5.113   0.310   2.092
20947TIP3   OH262717   6.364   2.093   1.712
20947TIP3    H162718   6.347   2.172   1.764
20947TIP3    H262719   6.434   2.048   1.759
20948TIP3   OH262720   4.799   2.665   0.856
20948TIP3    H162721   4.849   2.718   0.918
20948TIP3    H262722   4.853   2.664   0.777
20949TIP3   OH262723   7.192   4.956   5.901
20949TIP3    H162724   7.197   4.872   5.855
20949TIP3    H262725   7.226   5.020   5.838
20950TIP3   OH262726   0.288   1.548   7.438
20950TIP3    H162727   0.302   1.468   7.389
20950TIP3    H262728   0.334   1.616   7.388
20951TIP3   OH262729   3.364   6.112   3.458
20951TIP3    H162730   3.361   6.205   3.482
20951TIP3    H262731   3.456   6.088   3.471
20952TIP3   OH262732   1.016   9.002   2.596
20952TIP3    H162733   1.104   9.010   2.634
20952TIP3    H262734   1.014   9.069   2.528
20953TIP3   OH262735   6.335   0.819   4.073
20953TIP3    H162736   6.276   0.854   4.140
20953TIP3    H262737   6.422   0.844   4.102
20954TIP3   OH262738   2.672   4.015   1.123
20954TIP3    H162739   2.761   3.989   1.150
20954TIP3    H262740   2.650   3.956   1.051
20955TIP3   OH262741   6.353   2.052   4.424
20955TIP3    H162742   6.392   2.139   4.414
20955TIP3    H262743   6.273   2.055   4.372
20956TIP3   OH262744   4.449   4.666   6.524
20956TIP3    H162745   4.540   4.695   6.531
20956TIP3    H262746   4.435   4.654   6.431
20957TIP3   OH262747   7.661   0.331   7.572
20957TIP3    H162748   7.723   0.377   7.628
20957TIP3    H262749   7.588   0.392   7.561
20958TIP3   OH262750   3.538   7.999   2.875
20958TIP3    H162751   3.630   7.988   2.851
20958TIP3    H262752   3.537   8.073   2.935
20959TIP3   OH262753   0.677   7.327   5.939
20959TIP3    H162754   0.750   7.385   5.960
20959TIP3    H262755   0.629   7.318   6.021
20960TIP3   OH262756   2.968   0.358   3.537
20960TIP3    H162757   3.017   0.279   3.512
20960TIP3    H262758   2.942   0.342   3.628
20961TIP3   OH262759   0.525   0.507   7.375
20961TIP3    H162760   0.609   0.470   7.348
20961TIP3    H262761   0.544   0.600   7.391
20962TIP3   OH262762   1.390   1.183   4.532
20962TIP3    H162763   1.296   1.171   4.543
20962TIP3    H262764   1.426   1.185   4.621
20963TIP3   OH262765   3.500   7.235   6.508
20963TIP3    H162766   3.499   7.180   6.587
20963TIP3    H262767   3.593   7.242   6.485
20964TIP3   OH262768   7.335   1.109   5.069
20964TIP3    H162769   7.289   1.030   5.100
20964TIP3    H262770   7.270   1.154   5.015
20965TIP3   OH262771   8.004   7.415   3.139
20965TIP3    H162772   7.970   7.503   3.126
20965TIP3    H262773   8.099   7.424   3.130
20966TIP3   OH262774   7.285   1.372   0.572
20966TIP3    H162775   7.345   1.310   0.530
20966TIP3    H262776   7.237   1.411   0.499
20967TIP3   OH262777   5.349   8.005   2.324
20967TIP3    H162778   5.282   8.032   2.386
20967TIP3    H262779   5.304   7.945   2.265
20968TIP3   OH262780   1.283   2.770   5.866
20968TIP3    H162781   1.275   2.680   5.833
20968TIP3    H262782   1.259   2.824   5.791
20969TIP3   OH262783   9.438   2.140   1.732
20969TIP3    H162784   9.519   2.093   1.711
20969TIP3    H262785   9.418   2.188   1.652
20970TIP3   OH262786   7.753   5.314   6.367
20970TIP3    H162787   7.718   5.282   6.284
20970TIP3    H262788   7.813   5.245   6.395
20971TIP3   OH262789   3.212   0.530   1.658
20971TIP3    H162790   3.229   0.501   1.569
20971TIP3    H262791   3.147   0.599   1.649
20972TIP3   OH262792   0.292   1.354   1.687
20972TIP3    H162793   0.241   1.273   1.679
20972TIP3    H262794   0.383   1.326   1.676
20973TIP3   OH262795   7.819   2.283   6.563
20973TIP3    H162796   7.752   2.352   6.559
20973TIP3    H262797   7.785   2.221   6.627
20974TIP3   OH262798   6.266   3.258   0.857
20974TIP3    H162799   6.267   3.174   0.811
20974TIP3    H262800   6.335   3.309   0.815
20975TIP3   OH262801   2.195   5.188   1.178
20975TIP3    H162802   2.261   5.178   1.246
20975TIP3    H262803   2.131   5.249   1.215
20976TIP3   OH262804   4.189   1.075   3.383
20976TIP3    H162805   4.112   1.132   3.381
20976TIP3    H262806   4.261   1.134   3.406
20977TIP3   OH262807   6.517   7.066   1.859
20977TIP3    H162808   6.548   6.983   1.822
20977TIP3    H262809   6.563   7.134   1.809
20978TIP3   OH262810   2.709   4.494   0.717
20978TIP3    H162811   2.615   4.511   0.708
20978TIP3    H262812   2.719   4.469   0.809
20979TIP3   OH262813   5.973   8.756   5.046
20979TIP3    H162814   5.974   8.667   5.081
20979TIP3    H262815   6.063   8.787   5.057
20980TIP3   OH262816   2.440   0.568   0.433
20980TIP3    H162817   2.408   0.655   0.455
20980TIP3    H262818   2.378   0.536   0.367
20981TIP3   OH262819   9.060   0.325   3.352
20981TIP3    H162820   9.056   0.256   3.286
20981TIP3    H262821   8.985   0.382   3.332
20982TIP3   OH262822   6.568   4.350   6.610
20982TIP3    H162823   6.478   4.371   6.632
20982TIP3    H262824   6.573   4.255   6.617
20983TIP3   OH262825   7.741   6.738   7.656
20983TIP3    H162826   7.690   6.678   7.710
20983TIP3    H262827   7.708   6.825   7.678
20984TIP3   OH262828   2.912   4.086   5.056
20984TIP3    H162829   2.963   4.007   5.068
20984TIP3    H262830   2.834   4.072   5.110
20985TIP3   OH262831   3.508   3.853   6.839
20985TIP3    H162832   3.520   3.884   6.929
20985TIP3    H262833   3.597   3.843   6.805
20986TIP3   OH262834   7.286   6.714   1.235
20986TIP3    H162835   7.316   6.804   1.239
20986TIP3    H262836   7.204   6.718   1.185
20987TIP3   OH262837   2.879   6.936   3.912
20987TIP3    H162838   2.790   6.970   3.910
20987TIP3    H262839   2.888   6.898   4.000
20988TIP3   OH262840   6.954   2.960   5.734
20988TIP3    H162841   6.950   2.999   5.646
20988TIP3    H262842   7.001   3.024   5.786
20989TIP3   OH262843   6.588   0.745   7.689
20989TIP3    H162844   6.683   0.751   7.701
20989TIP3    H262845   6.572   0.652   7.674
20990TIP3   OH262846   1.401   7.038   4.245
20990TIP3    H162847   1.460   7.016   4.318
20990TIP3    H262848   1.321   6.988   4.263
20991TIP3   OH262849   1.062   2.103   6.985
20991TIP3    H162850   1.011   2.162   6.930
20991TIP3    H262851   1.150   2.106   6.949
20992TIP3   OH262852   3.535   8.309   1.431
20992TIP3    H162853   3.516   8.367   1.505
20992TIP3    H262854   3.624   8.333   1.405
20993TIP3   OH262855   1.021   5.121   1.356
20993TIP3    H162856   0.944   5.081   1.397
20993TIP3    H262857   1.072   5.155   1.429
20994TIP3   OH262858   7.579   8.454   5.206
20994TIP3    H162859   7.576   8.399   5.284
20994TIP3    H262860   7.543   8.538   5.235
20995TIP3   OH262861   0.645   0.940   0.828
20995TIP3    H162862   0.671   1.024   0.867
20995TIP3    H262863   0.592   0.898   0.895
20996TIP3   OH262864   5.205   7.714   5.681
20996TIP3    H162865   5.173   7.662   5.607
20996TIP3    H262866   5.150   7.792   5.680
20997TIP3   OH262867   9.229   8.763   4.104
20997TIP3    H162868   9.248   8.694   4.040
20997TIP3    H262869   9.224   8.716   4.188
20998TIP3   OH262870   3.015   7.631   7.271
20998TIP3    H162871   3.082   7.658   7.334
20998TIP3    H262872   2.944   7.596   7.325
20999TIP3   OH262873   4.504   7.396   5.720
20999TIP3    H162874   4.418   7.355   5.729
20999TIP3    H262875   4.566   7.323   5.716
21000TIP3   OH262876   6.483   7.046   7.248
21000TIP3    H162877   6.440   7.130   7.265
21000TIP3    H262878   6.457   6.990   7.321
21001TIP3   OH262879   7.968   0.369   0.793
21001TIP3    H162880   7.935   0.449   0.833
21001TIP3    H262881   8.063   0.380   0.791
21002TIP3   OH262882   0.277   5.722   4.379
21002TIP3    H162883   0.336   5.796   4.396
21002TIP3    H262884   0.332   5.645   4.391
21003TIP3   OH262885   0.306   1.943   2.466
21003TIP3    H162886   0.315   1.848   2.462
21003TIP3    H262887   0.211   1.959   2.463
21004TIP3   OH262888   6.741   3.555   6.584
21004TIP3    H162889   6.693   3.624   6.538
21004TIP3    H262890   6.679   3.521   6.649
21005TIP3   OH262891   3.857   8.222   3.981
21005TIP3    H162892   3.778   8.275   3.993
21005TIP3    H262893   3.860   8.166   4.058
21006TIP3   OH262894   5.297   4.673   4.517
21006TIP3    H162895   5.308   4.675   4.422
21006TIP3    H262896   5.212   4.632   4.530
21007TIP3   OH262897   5.951   0.732   0.629
21007TIP3    H162898   6.001   0.666   0.676
21007TIP3    H262899   5.918   0.790   0.698
21008TIP3   OH262900   8.912   6.528   1.519
21008TIP3    H162901   9.006   6.518   1.528
21008TIP3    H262902   8.891   6.484   1.436
21009TIP3   OH262903   6.021   7.195   2.794
21009TIP3    H162904   6.086   7.133   2.762
21009TIP3    H262905   6.072   7.270   2.825
21010TIP3   OH262906   8.324   3.557   2.597
21010TIP3    H162907   8.239   3.596   2.578
21010TIP3    H262908   8.313   3.515   2.682
21011TIP3   OH262909   4.109   6.863   0.696
21011TIP3    H162910   4.178   6.918   0.658
21011TIP3    H262911   4.063   6.827   0.620
21012TIP3   OH262912   5.458   7.694   4.299
21012TIP3    H162913   5.476   7.787   4.317
21012TIP3    H262914   5.387   7.695   4.235
21013TIP3   OH262915   9.544   1.345   3.093
21013TIP3    H162916   9.547   1.277   3.160
21013TIP3    H262917   9.481   1.313   3.029
21014TIP3   OH262918   7.150   5.751   3.658
21014TIP3    H162919   7.200   5.791   3.729
21014TIP3    H262920   7.216   5.707   3.605
21015TIP3   OH262921   5.365   2.669   5.480
21015TIP3    H162922   5.349   2.597   5.419
21015TIP3    H262923   5.449   2.706   5.454
21016TIP3   OH262924   6.315   1.856   0.124
21016TIP3    H162925   6.355   1.798   0.059
21016TIP3    H262926   6.384   1.871   0.188
21017TIP3   OH262927   8.567   0.680   3.718
21017TIP3    H162928   8.568   0.649   3.627
21017TIP3    H262929   8.599   0.605   3.768
21018TIP3   OH262930   4.110   0.174   1.861
21018TIP3    H162931   4.022   0.157   1.828
21018TIP3    H262932   4.163   0.102   1.827
21019TIP3   OH262933   0.190   7.665   1.608
21019TIP3    H162934   0.096   7.683   1.602
21019TIP3    H262935   0.216   7.642   1.519
21020TIP3   OH262936   6.445   1.544   6.014
21020TIP3    H162937   6.357   1.510   6.033
21020TIP3    H262938   6.463   1.517   5.924
21021TIP3   OH262939   4.246   4.697   2.489
21021TIP3    H162940   4.207   4.637   2.553
21021TIP3    H262941   4.340   4.682   2.496
21022TIP3   OH262942   2.096   5.699   0.754
21022TIP3    H162943   2.097   5.795   0.759
21022TIP3    H262944   2.074   5.671   0.842
21023TIP3   OH262945   2.491   6.452   1.145
21023TIP3    H162946   2.517   6.523   1.204
21023TIP3    H262947   2.432   6.494   1.083
21024TIP3   OH262948   7.363   1.804   1.185
21024TIP3    H162949   7.422   1.879   1.190
21024TIP3    H262950   7.422   1.729   1.175
21025TIP3   OH262951   4.069   7.390   5.128
21025TIP3    H162952   4.090   7.360   5.040
21025TIP3    H262953   4.028   7.476   5.116
21026TIP3   OH262954   3.709   6.239   5.636
21026TIP3    H162955   3.803   6.251   5.649
21026TIP3    H262956   3.697   6.252   5.542
21027TIP3   OH262957   0.045   0.648   3.648
21027TIP3    H162958  -0.012   0.716   3.682
21027TIP3    H262959   0.003   0.565   3.673
21028TIP3   OH262960   9.109   8.391   3.694
21028TIP3    H162961   9.122   8.461   3.758
21028TIP3    H262962   9.195   8.380   3.653
21029TIP3   OH262963   0.996   1.944   2.371
21029TIP3    H162964   1.076   1.922   2.417
21029TIP3    H262965   0.984   1.873   2.308
21030TIP3   OH262966   0.706   2.855   7.631
21030TIP3    H162967   0.675   2.771   7.665
21030TIP3    H262968   0.690   2.917   7.702
21031TIP3   OH262969   6.933   8.260   5.286
21031TIP3    H162970   6.893   8.214   5.212
21031TIP3    H262971   6.883   8.233   5.362
21032TIP3   OH262972   7.967   8.156   3.018
21032TIP3    H162973   8.052   8.134   2.980
21032TIP3    H262974   7.988   8.207   3.096
21033TIP3   OH262975   2.478   8.342   6.337
21033TIP3    H162976   2.469   8.301   6.423
21033TIP3    H262977   2.390   8.373   6.315
21034TIP3   OH262978   1.575   6.892   0.475
21034TIP3    H162979   1.601   6.887   0.567
21034TIP3    H262980   1.623   6.967   0.440
21035TIP3   OH262981   2.213   8.854   2.179
21035TIP3    H162982   2.238   8.891   2.264
21035TIP3    H262983   2.208   8.929   2.120
21036TIP3   OH262984   9.393   8.877   6.475
21036TIP3    H162985   9.435   8.864   6.390
21036TIP3    H262986   9.397   8.971   6.489
21037TIP3   OH262987   9.060   1.748   1.807
21037TIP3    H162988   9.132   1.811   1.811
21037TIP3    H262989   9.096   1.669   1.849
21038TIP3   OH262990   5.316   2.026   5.445
21038TIP3    H162991   5.238   2.078   5.426
21038TIP3    H262992   5.316   2.017   5.541
21039TIP3   OH262993   3.931   1.114   2.196
21039TIP3    H162994   3.979   1.034   2.220
21039TIP3    H262995   3.961   1.179   2.260
21040TIP3   OH262996   0.871   1.495   5.907
21040TIP3    H162997   0.944   1.442   5.873
21040TIP3    H262998   0.911   1.578   5.931
21041TIP3   OH262999   5.246   3.008   7.202
21041TIP3    H163000   5.292   3.046   7.277
21041TIP3    H263001   5.233   2.916   7.227
21042TIP3   OH263002   2.248   3.147   7.046
21042TIP3    H163003   2.231   3.112   7.134
21042TIP3    H263004   2.342   3.135   7.033
21043TIP3   OH263005   7.951   1.836   6.852
21043TIP3    H163006   7.960   1.744   6.826
21043TIP3    H263007   7.992   1.841   6.938
21044TIP3   OH263008   5.790   1.153   3.664
21044TIP3    H163009   5.848   1.229   3.670
21044TIP3    H263010   5.790   1.116   3.752
21045TIP3   OH263011   7.857   3.578   1.258
21045TIP3    H163012   7.940   3.602   1.218
21045TIP3    H263013   7.846   3.640   1.330
21046TIP3   OH263014   2.724   4.968   3.430
21046TIP3    H163015   2.673   5.020   3.368
21046TIP3    H263016   2.677   4.976   3.513
21047TIP3   OH263017   0.467   4.243   0.350
21047TIP3    H163018   0.444   4.181   0.281
21047TIP3    H263019   0.559   4.264   0.333
21048TIP3   OH263020   6.750   5.885   7.471
21048TIP3    H163021   6.787   5.828   7.403
21048TIP3    H263022   6.682   5.935   7.426
21049TIP3   OH263023   3.763   7.962   0.952
21049TIP3    H163024   3.758   8.039   1.008
21049TIP3    H263025   3.674   7.948   0.922
21050TIP3   OH263026   1.241   5.712   5.848
21050TIP3    H163027   1.223   5.626   5.885
21050TIP3    H263028   1.175   5.723   5.779
21051TIP3   OH263029   8.969   2.970   7.247
21051TIP3    H163030   8.952   3.059   7.278
21051TIP3    H263031   8.888   2.944   7.203
21052TIP3   OH263032   6.809   2.743   5.653
21052TIP3    H163033   6.876   2.795   5.697
21052TIP3    H263034   6.850   2.714   5.571
21053TIP3   OH263035   8.807   6.270   2.336
21053TIP3    H163036   8.876   6.233   2.391
21053TIP3    H263037   8.838   6.358   2.314
21054TIP3   OH263038   6.430   4.001   6.201
21054TIP3    H163039   6.435   4.039   6.288
21054TIP3    H263040   6.387   4.069   6.147
21055TIP3   OH263041   5.269   2.653   2.495
21055TIP3    H163042   5.323   2.711   2.548
21055TIP3    H263043   5.222   2.600   2.559
21056TIP3   OH263044   6.274   2.125   4.002
21056TIP3    H163045   6.216   2.049   3.995
21056TIP3    H263046   6.241   2.173   4.078
21057TIP3   OH263047   5.821   8.453   6.146
21057TIP3    H163048   5.854   8.500   6.069
21057TIP3    H263049   5.727   8.444   6.130
21058TIP3   OH263050   2.100   6.270   3.090
21058TIP3    H163051   2.044   6.321   3.148
21058TIP3    H263052   2.167   6.232   3.148
21059TIP3   OH263053   6.747   0.437   6.321
21059TIP3    H163054   6.674   0.389   6.283
21059TIP3    H263055   6.706   0.510   6.368
21060TIP3   OH263056   5.429   6.453   0.714
21060TIP3    H163057   5.469   6.383   0.662
21060TIP3    H263058   5.347   6.473   0.670
21061TIP3   OH263059   0.577   6.623   7.063
21061TIP3    H163060   0.582   6.570   7.143
21061TIP3    H263061   0.499   6.590   7.018
21062TIP3   OH263062   7.482   4.714   4.830
21062TIP3    H163063   7.540   4.718   4.906
21062TIP3    H263064   7.397   4.741   4.862
21063TIP3   OH263065   7.352   1.532   7.501
21063TIP3    H163066   7.287   1.521   7.431
21063TIP3    H263067   7.327   1.613   7.545
21064TIP3   OH263068   9.267   5.602   1.092
21064TIP3    H163069   9.230   5.610   1.180
21064TIP3    H263070   9.351   5.647   1.097
21065TIP3   OH263071   0.558   5.092   6.645
21065TIP3    H163072   0.488   5.144   6.684
21065TIP3    H263073   0.530   5.001   6.657
21066TIP3   OH263074   1.936   1.272   5.865
21066TIP3    H163075   1.844   1.250   5.856
21066TIP3    H263076   1.966   1.223   5.941
21067TIP3   OH263077   9.143   5.663   6.019
21067TIP3    H163078   9.096   5.683   6.100
21067TIP3    H263079   9.224   5.621   6.048
21068TIP3   OH263080   5.808   0.370   5.069
21068TIP3    H163081   5.876   0.322   5.116
21068TIP3    H263082   5.855   0.440   5.025
21069TIP3   OH263083   6.654   4.307   1.766
21069TIP3    H163084   6.586   4.319   1.833
21069TIP3    H263085   6.606   4.274   1.690
21070TIP3   OH263086   1.114   6.947   7.186
21070TIP3    H163087   1.206   6.962   7.164
21070TIP3    H263088   1.069   7.028   7.162
21071TIP3   OH263089   9.274   4.865   1.021
21071TIP3    H163090   9.202   4.929   1.021
21071TIP3    H263091   9.297   4.855   1.113
21072TIP3   OH263092   3.353   1.931   1.187
21072TIP3    H163093   3.262   1.951   1.163
21072TIP3    H263094   3.387   2.013   1.223
21073TIP3   OH263095   6.846   8.954   4.123
21073TIP3    H163096   6.863   9.000   4.205
21073TIP3    H263097   6.826   8.864   4.150
21074TIP3   OH263098   2.468   6.401   2.577
21074TIP3    H163099   2.515   6.480   2.551
21074TIP3    H263100   2.445   6.358   2.494
21075TIP3   OH263101   6.629   5.161   1.791
21075TIP3    H163102   6.614   5.147   1.885
21075TIP3    H263103   6.614   5.254   1.778
21076TIP3   OH263104   5.873   3.090   1.304
21076TIP3    H163105   5.817   3.080   1.381
21076TIP3    H263106   5.822   3.143   1.244
21077TIP3   OH263107   5.580   5.553   4.705
21077TIP3    H163108   5.542   5.638   4.682
21077TIP3    H263109   5.661   5.548   4.654
21078TIP3   OH263110   7.390   1.308   7.309
21078TIP3    H163111   7.397   1.381   7.370
21078TIP3    H263112   7.410   1.346   7.224
21079TIP3   OH263113   3.892   3.046   1.100
21079TIP3    H163114   3.881   2.951   1.105
21079TIP3    H263115   3.805   3.080   1.120
21080TIP3   OH263116   7.195   2.808   6.299
21080TIP3    H163117   7.159   2.862   6.229
21080TIP3    H263118   7.156   2.722   6.284
21081TIP3   OH263119   6.522   6.986   1.120
21081TIP3    H163120   6.578   6.954   1.191
21081TIP3    H263121   6.549   6.934   1.044
21082TIP3   OH263122   9.555   2.254   0.408
21082TIP3    H163123   9.604   2.182   0.368
21082TIP3    H263124   9.508   2.295   0.335
21083TIP3   OH263125   4.061   1.727   3.825
21083TIP3    H163126   4.096   1.734   3.736
21083TIP3    H263127   4.138   1.708   3.878
21084TIP3   OH263128   9.372   2.622   3.467
21084TIP3    H163129   9.430   2.590   3.536
21084TIP3    H263130   9.323   2.544   3.438
21085TIP3   OH263131   3.288   6.219   0.809
21085TIP3    H163132   3.331   6.135   0.825
21085TIP3    H263133   3.278   6.257   0.897
21086TIP3   OH263134   3.816   8.405   1.551
21086TIP3    H163135   3.803   8.413   1.645
21086TIP3    H263136   3.909   8.423   1.538
21087TIP3   OH263137   4.462   6.293   2.899
21087TIP3    H163138   4.545   6.295   2.947
21087TIP3    H263139   4.418   6.373   2.925
21088TIP3   OH263140   7.315   8.950   5.884
21088TIP3    H163141   7.315   9.045   5.894
21088TIP3    H263142   7.389   8.932   5.825
21089TIP3   OH263143   1.620   2.007   5.163
21089TIP3    H163144   1.596   1.947   5.092
21089TIP3    H263145   1.565   2.084   5.148
21090TIP3   OH263146   0.850   4.454   5.243
21090TIP3    H163147   0.860   4.469   5.149
21090TIP3    H263148   0.905   4.377   5.260
21091TIP3   OH263149   7.725   0.441   4.747
21091TIP3    H163150   7.809   0.417   4.709
21091TIP3    H263151   7.737   0.532   4.776
21092TIP3   OH263152   8.268   0.747   7.235
21092TIP3    H163153   8.283   0.678   7.299
21092TIP3    H263154   8.178   0.734   7.205
21093TIP3   OH263155   7.238   3.610   4.296
21093TIP3    H163156   7.329   3.628   4.272
21093TIP3    H263157   7.187   3.679   4.252
21094TIP3   OH263158   2.803   5.091   0.678
21094TIP3    H163159   2.725   5.040   0.701
21094TIP3    H263160   2.870   5.062   0.740
21095TIP3   OH263161   5.093   6.167   5.337
21095TIP3    H163162   5.067   6.104   5.404
21095TIP3    H263163   5.104   6.114   5.258
21096TIP3   OH263164   1.631   5.768   2.575
21096TIP3    H163165   1.542   5.749   2.605
21096TIP3    H263166   1.631   5.862   2.557
21097TIP3   OH263167   6.189   3.298   4.692
21097TIP3    H163168   6.273   3.272   4.730
21097TIP3    H263169   6.144   3.343   4.763
21098TIP3   OH263170   7.871   8.025   2.689
21098TIP3    H163171   7.811   8.064   2.751
21098TIP3    H263172   7.902   8.098   2.635
21099TIP3   OH263173   9.375   8.278   5.590
21099TIP3    H163174   9.451   8.329   5.564
21099TIP3    H263175   9.409   8.191   5.609
21100TIP3   OH263176   2.819   1.962   6.862
21100TIP3    H163177   2.848   1.963   6.771
21100TIP3    H263178   2.733   2.005   6.860
21101TIP3   OH263179   0.980   5.290   6.684
21101TIP3    H163180   0.902   5.345   6.691
21101TIP3    H263181   1.038   5.320   6.754
21102TIP3   OH263182   2.252   2.680   2.157
21102TIP3    H163183   2.199   2.624   2.101
21102TIP3    H263184   2.342   2.662   2.131
21103TIP3   OH263185   0.316   4.702   2.756
21103TIP3    H163186   0.402   4.722   2.718
21103TIP3    H263187   0.327   4.719   2.850
21104TIP3   OH263188   3.784   1.238   2.714
21104TIP3    H163189   3.731   1.162   2.691
21104TIP3    H263190   3.808   1.224   2.805
21105TIP3   OH263191   1.816   4.874   5.065
21105TIP3    H163192   1.837   4.918   4.982
21105TIP3    H263193   1.886   4.809   5.075
21106TIP3   OH263194   8.169   5.237   5.230
21106TIP3    H163195   8.162   5.176   5.303
21106TIP3    H263196   8.169   5.181   5.152
21107TIP3   OH263197   9.430   1.104   6.548
21107TIP3    H163198   9.428   1.030   6.608
21107TIP3    H263199   9.447   1.066   6.462
21108TIP3   OH263200   8.955   3.040   6.125
21108TIP3    H163201   8.940   2.946   6.133
21108TIP3    H263202   8.942   3.059   6.032
21109TIP3   OH263203   6.767   1.941   2.258
21109TIP3    H163204   6.749   1.904   2.345
21109TIP3    H263205   6.840   1.889   2.224
21110TIP3   OH263206   4.589   5.872   3.257
21110TIP3    H163207   4.513   5.930   3.249
21110TIP3    H263208   4.552   5.784   3.264
21111TIP3   OH263209   6.112   6.863   3.755
21111TIP3    H163210   6.077   6.938   3.706
21111TIP3    H263211   6.063   6.788   3.724
21112TIP3   OH263212   6.595   2.978   4.331
21112TIP3    H163213   6.604   3.069   4.302
21112TIP3    H263214   6.674   2.934   4.299
21113TIP3   OH263215   5.647   8.949   3.236
21113TIP3    H163216   5.732   8.991   3.221
21113TIP3    H263217   5.622   8.977   3.324
21114TIP3   OH263218   3.952   5.417   4.060
21114TIP3    H163219   4.024   5.477   4.042
21114TIP3    H263220   3.876   5.474   4.073
21115TIP3   OH263221   3.381   5.159   5.024
21115TIP3    H163222   3.436   5.131   5.097
21115TIP3    H263223   3.358   5.249   5.045
21116TIP3   OH263224   4.957   6.683   7.609
21116TIP3    H163225   4.939   6.608   7.666
21116TIP3    H263226   4.966   6.757   7.669
21117TIP3   OH263227   8.491   7.643   0.144
21117TIP3    H163228   8.406   7.674   0.174
21117TIP3    H263229   8.509   7.566   0.197
21118TIP3   OH263230   5.708   6.935   7.160
21118TIP3    H163231   5.689   7.028   7.171
21118TIP3    H263232   5.803   6.930   7.159
21119TIP3   OH263233   2.339   0.453   5.924
21119TIP3    H163234   2.397   0.423   5.995
21119TIP3    H263235   2.262   0.398   5.931
21120TIP3   OH263236   5.242   5.594   5.186
21120TIP3    H163237   5.147   5.582   5.178
21120TIP3    H263238   5.268   5.639   5.105
21121TIP3   OH263239   2.669   8.995   0.047
21121TIP3    H163240   2.716   8.933  -0.009
21121TIP3    H263241   2.732   9.016   0.117
21122TIP3   OH263242   8.112   7.989   4.063
21122TIP3    H163243   8.121   7.912   4.006
21122TIP3    H263244   8.200   8.026   4.068
21123TIP3   OH263245   8.708   6.224   4.949
21123TIP3    H163246   8.686   6.241   5.041
21123TIP3    H263247   8.737   6.309   4.916
21124TIP3   OH263248   1.699   6.582   4.615
21124TIP3    H163249   1.645   6.506   4.594
21124TIP3    H263250   1.752   6.555   4.690
21125TIP3   OH263251   2.943   1.557  -0.003
21125TIP3    H163252   2.972   1.592   0.081
21125TIP3    H263253   3.010   1.492  -0.026
21126TIP3   OH263254   0.219   8.634   6.875
21126TIP3    H163255   0.217   8.540   6.857
21126TIP3    H263256   0.181   8.674   6.796
21127TIP3   OH263257   9.219   0.978   2.950
21127TIP3    H163258   9.132   0.957   2.984
21127TIP3    H263259   9.264   0.894   2.945
21128TIP3   OH263260   6.151   1.939   6.902
21128TIP3    H163261   6.159   1.936   6.807
21128TIP3    H263262   6.231   1.984   6.932
21129TIP3   OH263263   9.405   3.927   5.062
21129TIP3    H163264   9.354   3.974   5.128
21129TIP3    H263265   9.379   3.968   4.979
21130TIP3   OH263266   5.778   3.286   3.880
21130TIP3    H163267   5.824   3.300   3.797
21130TIP3    H263268   5.691   3.255   3.855
21131TIP3   OH263269   0.221   3.386   0.259
21131TIP3    H163270   0.229   3.481   0.255
21131TIP3    H263271   0.135   3.368   0.221
21132TIP3   OH263272   6.325   5.281   4.343
21132TIP3    H163273   6.379   5.331   4.404
21132TIP3    H263274   6.279   5.347   4.291
21133TIP3   OH263275   2.830   1.312   6.173
21133TIP3    H163276   2.750   1.323   6.122
21133TIP3    H263277   2.871   1.399   6.172
21134TIP3   OH263278   6.156   5.709   6.675
21134TIP3    H163279   6.193   5.796   6.694
21134TIP3    H263280   6.230   5.649   6.681
21135TIP3   OH263281   1.415   0.513   0.327
21135TIP3    H163282   1.440   0.573   0.397
21135TIP3    H263283   1.498   0.482   0.292
21136TIP3   OH263284   8.432   2.494   3.869
21136TIP3    H163285   8.459   2.580   3.901
21136TIP3    H263286   8.398   2.511   3.781
21137TIP3   OH263287   5.096   4.008   0.535
21137TIP3    H163288   5.026   3.959   0.492
21137TIP3    H263289   5.177   3.968   0.504
21138TIP3   OH263290   6.881   4.793   1.479
21138TIP3    H163291   6.830   4.869   1.506
21138TIP3    H263292   6.908   4.751   1.561
21139TIP3   OH263293   8.124   4.960   0.556
21139TIP3    H163294   8.193   4.971   0.491
21139TIP3    H263295   8.160   5.001   0.635
21140TIP3   OH263296   8.594   4.256   5.989
21140TIP3    H163297   8.622   4.343   6.017
21140TIP3    H263298   8.671   4.200   6.000
21141TIP3   OH263299   5.237   8.938   1.079
21141TIP3    H163300   5.193   8.915   0.997
21141TIP3    H263301   5.173   8.919   1.147
21142TIP3   OH263302   7.927   5.528   5.481
21142TIP3    H163303   7.905   5.531   5.388
21142TIP3    H263304   8.015   5.490   5.483
21143TIP3   OH263305   6.007   1.098   1.493
21143TIP3    H163306   6.035   1.161   1.426
21143TIP3    H263307   6.019   1.012   1.451
21144TIP3   OH263308   1.289   5.134   7.012
21144TIP3    H163309   1.330   5.116   6.927
21144TIP3    H263310   1.198   5.152   6.990
21145TIP3   OH263311   1.820   5.147   2.662
21145TIP3    H163312   1.785   5.191   2.584
21145TIP3    H263313   1.744   5.134   2.719
21146TIP3   OH263314   5.768   6.693   4.050
21146TIP3    H163315   5.714   6.772   4.055
21146TIP3    H263316   5.841   6.710   4.109
21147TIP3   OH263317   9.463   1.112   4.910
21147TIP3    H163318   9.423   1.118   4.997
21147TIP3    H263319   9.400   1.155   4.852
21148TIP3   OH263320   1.652   8.799   5.561
21148TIP3    H163321   1.685   8.865   5.501
21148TIP3    H263322   1.632   8.723   5.506
21149TIP3   OH263323   1.677   3.970   2.350
21149TIP3    H163324   1.650   4.052   2.393
21149TIP3    H263325   1.767   3.957   2.379
21150TIP3   OH263326   6.995   6.527   2.426
21150TIP3    H163327   6.919   6.572   2.387
21150TIP3    H263328   7.033   6.477   2.354
21151TIP3   OH263329   2.429   1.041   4.995
21151TIP3    H163330   2.434   1.090   5.077
21151TIP3    H263331   2.513   1.058   4.952
21152TIP3   OH263332   3.039   1.669   0.229
21152TIP3    H163333   3.032   1.643   0.321
21152TIP3    H263334   2.978   1.742   0.219
21153TIP3   OH263335   1.695   1.773   5.572
21153TIP3    H163336   1.777   1.820   5.554
21153TIP3    H263337   1.654   1.762   5.486
21154TIP3   OH263338   0.624   0.645   6.583
21154TIP3    H163339   0.675   0.574   6.543
21154TIP3    H263340   0.645   0.722   6.530
21155TIP3   OH263341   0.942   0.508   1.041
21155TIP3    H163342   0.894   0.433   1.005
21155TIP3    H263343   0.894   0.531   1.121
21156TIP3   OH263344   2.446   8.428   4.509
21156TIP3    H163345   2.447   8.334   4.529
21156TIP3    H263346   2.353   8.450   4.502
21157TIP3   OH263347   6.186   2.472   4.523
21157TIP3    H163348   6.244   2.527   4.577
21157TIP3    H263349   6.105   2.522   4.516
21158TIP3   OH263350   3.208   6.357   5.768
21158TIP3    H163351   3.192   6.316   5.853
21158TIP3    H263352   3.217   6.284   5.708
21159TIP3   OH263353   4.006   4.641   2.764
21159TIP3    H163354   4.098   4.653   2.786
21159TIP3    H263355   3.969   4.594   2.838
21160TIP3   OH263356   7.159   8.076   5.946
21160TIP3    H163357   7.108   8.121   6.012
21160TIP3    H263358   7.219   8.142   5.913
21161TIP3   OH263359   3.035   7.505   6.993
21161TIP3    H163360   3.002   7.539   7.077
21161TIP3    H263361   2.960   7.509   6.934
21162TIP3   OH263362   7.896   5.996   6.105
21162TIP3    H163363   7.819   5.976   6.051
21162TIP3    H263364   7.885   5.942   6.183
21163TIP3   OH263365   0.086   0.912   2.583
21163TIP3    H163366   0.178   0.936   2.571
21163TIP3    H263367   0.073   0.915   2.678
21164TIP3   OH263368   1.925   1.319   1.642
21164TIP3    H163369   2.003   1.323   1.698
21164TIP3    H263370   1.852   1.319   1.703
21165TIP3   OH263371   5.844   3.221   4.148
21165TIP3    H163372   5.815   3.133   4.172
21165TIP3    H263373   5.803   3.237   4.063
21166TIP3   OH263374   4.793   3.538   6.810
21166TIP3    H163375   4.828   3.625   6.789
21166TIP3    H263376   4.729   3.521   6.741
21167TIP3   OH263377   0.312   6.322   4.885
21167TIP3    H163378   0.395   6.279   4.863
21167TIP3    H263379   0.338   6.402   4.930
21168TIP3   OH263380   8.104   6.860   6.630
21168TIP3    H163381   8.059   6.794   6.682
21168TIP3    H263382   8.049   6.869   6.551
21169TIP3   OH263383   9.325   3.142   2.485
21169TIP3    H163384   9.266   3.082   2.531
21169TIP3    H263385   9.406   3.141   2.537
21170TIP3   OH263386   0.802   6.928   3.774
21170TIP3    H163387   0.759   6.885   3.847
21170TIP3    H263388   0.739   6.995   3.745
21171TIP3   OH263389   0.131   1.092   5.312
21171TIP3    H163390   0.199   1.024   5.319
21171TIP3    H263391   0.180   1.173   5.297
21172TIP3   OH263392   5.719   5.543   7.490
21172TIP3    H163393   5.683   5.489   7.561
21172TIP3    H263394   5.813   5.527   7.494
21173TIP3   OH263395   5.464   8.492   1.833
21173TIP3    H163396   5.493   8.507   1.923
21173TIP3    H263397   5.394   8.557   1.819
21174TIP3   OH263398   1.704   3.274   7.773
21174TIP3    H163399   1.635   3.224   7.729
21174TIP3    H263400   1.670   3.287   7.862
21175TIP3   OH263401   9.421   2.695   6.483
21175TIP3    H163402   9.398   2.774   6.434
21175TIP3    H263403   9.493   2.722   6.540
21176TIP3   OH263404   1.258   6.817   3.583
21176TIP3    H163405   1.217   6.754   3.641
21176TIP3    H263406   1.206   6.814   3.503
21177TIP3   OH263407   7.909   5.297   1.219
21177TIP3    H163408   7.922   5.336   1.305
21177TIP3    H263409   7.969   5.223   1.216
21178TIP3   OH263410   6.478   4.438   5.995
21178TIP3    H163411   6.540   4.507   6.018
21178TIP3    H263412   6.529   4.357   5.998
21179TIP3   OH263413   8.368   8.688   2.454
21179TIP3    H163414   8.272   8.687   2.461
21179TIP3    H263415   8.386   8.757   2.390
21180TIP3   OH263416   8.566   0.107   2.358
21180TIP3    H163417   8.513   0.182   2.385
21180TIP3    H263418   8.655   0.129   2.387
21181TIP3   OH263419   0.240   4.355   0.450
21181TIP3    H163420   0.333   4.336   0.445
21181TIP3    H263421   0.235   4.442   0.490
21182TIP3   OH263422   4.633   0.399   1.622
21182TIP3    H163423   4.640   0.415   1.716
21182TIP3    H263424   4.718   0.363   1.597
21183TIP3   OH263425   6.431   5.620   1.133
21183TIP3    H163426   6.451   5.527   1.126
21183TIP3    H263427   6.336   5.625   1.123
21184TIP3   OH263428   5.795   4.662   2.957
21184TIP3    H163429   5.771   4.751   2.984
21184TIP3    H263430   5.885   4.670   2.928
21185TIP3   OH263431   3.264   3.704   7.540
21185TIP3    H163432   3.189   3.703   7.599
21185TIP3    H263433   3.227   3.714   7.453
21186TIP3   OH263434   2.033   5.574   1.080
21186TIP3    H163435   1.959   5.607   1.030
21186TIP3    H263436   1.999   5.497   1.126
21187TIP3   OH263437   5.434   8.244   1.754
21187TIP3    H163438   5.355   8.228   1.807
21187TIP3    H263439   5.426   8.336   1.727
21188TIP3   OH263440   3.606   0.913   6.179
21188TIP3    H163441   3.575   0.926   6.090
21188TIP3    H263442   3.542   0.854   6.218
21189TIP3   OH263443   0.821   8.036   4.667
21189TIP3    H163444   0.885   8.081   4.723
21189TIP3    H263445   0.871   8.011   4.589
21190TIP3   OH263446   5.213   4.410   2.957
21190TIP3    H163447   5.270   4.336   2.979
21190TIP3    H263448   5.229   4.427   2.864
21191TIP3   OH263449   0.168   2.600   0.773
21191TIP3    H163450   0.087   2.548   0.768
21191TIP3    H263451   0.220   2.557   0.841
21192TIP3   OH263452   2.649   0.895   3.728
21192TIP3    H163453   2.624   0.807   3.758
21192TIP3    H263454   2.659   0.885   3.633
21193TIP3   OH263455   4.999   8.013   0.046
21193TIP3    H163456   4.989   7.921   0.020
21193TIP3    H263457   5.087   8.036   0.015
21194TIP3   OH263458   0.943   7.952   5.848
21194TIP3    H163459   0.895   7.979   5.926
21194TIP3    H263460   0.988   8.032   5.819
21195TIP3   OH263461   9.397   3.752   6.813
21195TIP3    H163462   9.319   3.747   6.869
21195TIP3    H263463   9.365   3.790   6.731
21196TIP3   OH263464   8.432   4.007   0.546
21196TIP3    H163465   8.513   3.991   0.498
21196TIP3    H263466   8.459   4.013   0.637
21197TIP3   OH263467   7.962   3.929   4.291
21197TIP3    H163468   8.003   4.013   4.271
21197TIP3    H263469   7.980   3.916   4.385
21198TIP3   OH263470   0.704   2.244   2.657
21198TIP3    H163471   0.635   2.178   2.649
21198TIP3    H263472   0.721   2.272   2.567
21199TIP3   OH263473   7.182   2.357   5.311
21199TIP3    H163474   7.141   2.411   5.244
21199TIP3    H263475   7.257   2.408   5.342
21200TIP3   OH263476   2.113   8.821   2.718
21200TIP3    H163477   2.036   8.763   2.716
21200TIP3    H263478   2.183   8.768   2.680
21201TIP3   OH263479   1.533   2.573   2.320
21201TIP3    H163480   1.569   2.581   2.408
21201TIP3    H263481   1.445   2.537   2.334
21202TIP3   OH263482   1.090   6.760   3.354
21202TIP3    H163483   1.140   6.724   3.282
21202TIP3    H263484   1.012   6.705   3.359
21203TIP3   OH263485   1.268   8.786   7.002
21203TIP3    H163486   1.265   8.879   7.024
21203TIP3    H263487   1.220   8.743   7.072
21204TIP3   OH263488   8.506   6.856   0.624
21204TIP3    H163489   8.553   6.907   0.558
21204TIP3    H263490   8.426   6.905   0.639
21205TIP3   OH263491   6.912   1.944   7.045
21205TIP3    H163492   6.869   1.861   7.066
21205TIP3    H263493   6.857   1.983   6.977
21206TIP3   OH263494   2.843   2.989   6.262
21206TIP3    H163495   2.927   3.012   6.221
21206TIP3    H263496   2.814   3.070   6.305
21207TIP3   OH263497   5.164   6.431   4.905
21207TIP3    H163498   5.177   6.523   4.928
21207TIP3    H263499   5.200   6.423   4.817
21208TIP3   OH263500   3.546   0.397   4.083
21208TIP3    H163501   3.618   0.404   4.021
21208TIP3    H263502   3.555   0.473   4.140
21209TIP3   OH263503   2.485   0.849   2.725
21209TIP3    H163504   2.462   0.924   2.781
21209TIP3    H263505   2.580   0.850   2.722
21210TIP3   OH263506   2.931   5.034   3.835
21210TIP3    H163507   2.945   5.106   3.896
21210TIP3    H263508   2.861   4.982   3.875
21211TIP3   OH263509   0.547   8.882   3.938
21211TIP3    H163510   0.486   8.926   3.997
21211TIP3    H263511   0.607   8.835   3.995
21212TIP3   OH263512   1.786   7.473   5.137
21212TIP3    H163513   1.755   7.414   5.205
21212TIP3    H263514   1.728   7.456   5.063
21213TIP3   OH263515   9.051   8.481   2.047
21213TIP3    H163516   9.138   8.450   2.019
21213TIP3    H263517   9.033   8.431   2.127
21214TIP3   OH263518   2.626   6.673   1.803
21214TIP3    H163519   2.698   6.612   1.822
21214TIP3    H263520   2.549   6.631   1.841
21215TIP3   OH263521   0.837   1.274   3.862
21215TIP3    H163522   0.916   1.220   3.853
21215TIP3    H263523   0.794   1.241   3.941
21216TIP3   OH263524   5.922   4.807   0.326
21216TIP3    H163525   5.934   4.901   0.316
21216TIP3    H263526   5.890   4.777   0.241
21217TIP3   OH263527   1.496   8.944   2.280
21217TIP3    H163528   1.530   8.875   2.223
21217TIP3    H263529   1.465   9.011   2.219
21218TIP3   OH263530   3.930   7.791   6.467
21218TIP3    H163531   3.835   7.778   6.476
21218TIP3    H263532   3.951   7.753   6.382
21219TIP3   OH263533   8.587   0.535   2.278
21219TIP3    H163534   8.602   0.483   2.357
21219TIP3    H263535   8.656   0.601   2.279
21220TIP3   OH263536   7.171   6.044   4.826
21220TIP3    H163537   7.213   6.057   4.741
21220TIP3    H263538   7.243   6.039   4.889
21221TIP3   OH263539   1.173   2.591   0.927
21221TIP3    H163540   1.248   2.534   0.912
21221TIP3    H263541   1.170   2.647   0.850
21222TIP3   OH263542   5.592   3.902   7.296
21222TIP3    H163543   5.632   3.986   7.319
21222TIP3    H263544   5.507   3.926   7.258
21223TIP3   OH263545   4.486   4.074   6.078
21223TIP3    H163546   4.409   4.083   6.133
21223TIP3    H263547   4.499   3.979   6.071
21224TIP3   OH263548   0.591   7.741   0.607
21224TIP3    H163549   0.529   7.679   0.647
21224TIP3    H263550   0.569   7.825   0.648
21225TIP3   OH263551   6.600   0.920   0.350
21225TIP3    H163552   6.571   0.926   0.441
21225TIP3    H263553   6.693   0.942   0.353
21226TIP3   OH263554   9.048   6.008   7.567
21226TIP3    H163555   9.077   6.012   7.657
21226TIP3    H263556   8.996   6.088   7.555
21227TIP3   OH263557   3.376   4.046   7.732
21227TIP3    H163558   3.405   4.065   7.642
21227TIP3    H263559   3.293   4.093   7.741
21228TIP3   OH263560   9.007   6.360   0.057
21228TIP3    H163561   9.016   6.426   0.126
21228TIP3    H263562   9.041   6.280   0.095
21229TIP3   OH263563   7.962   4.227   4.981
21229TIP3    H163564   8.029   4.279   4.937
21229TIP3    H263565   7.882   4.280   4.973
21230TIP3   OH263566   7.106   6.266   7.301
21230TIP3    H163567   7.125   6.223   7.385
21230TIP3    H263568   7.130   6.357   7.315
21231TIP3   OH263569   9.333   1.497   2.877
21231TIP3    H163570   9.343   1.402   2.875
21231TIP3    H263571   9.297   1.521   2.791
21232TIP3   OH263572   5.525   3.739   5.142
21232TIP3    H163573   5.541   3.824   5.101
21232TIP3    H263574   5.529   3.756   5.236
21233TIP3   OH263575   8.697   8.448   2.568
21233TIP3    H163576   8.643   8.426   2.645
21233TIP3    H263577   8.635   8.487   2.506
21234TIP3   OH263578   3.524   4.464   0.137
21234TIP3    H163579   3.514   4.556   0.162
21234TIP3    H263580   3.590   4.430   0.197
21235TIP3   OH263581   2.733   1.832   0.625
21235TIP3    H163582   2.722   1.901   0.560
21235TIP3    H263583   2.689   1.756   0.587
21236TIP3   OH263584   0.125   7.533   7.238
21236TIP3    H163585   0.146   7.618   7.276
21236TIP3    H263586   0.031   7.522   7.253
21237TIP3   OH263587   0.060   1.413   7.505
21237TIP3    H163588   0.133   1.475   7.510
21237TIP3    H263589  -0.011   1.463   7.464
21238TIP3   OH263590   6.462   8.183   4.212
21238TIP3    H163591   6.512   8.264   4.226
21238TIP3    H263592   6.489   8.126   4.285
21239TIP3   OH263593   1.755   4.782   5.538
21239TIP3    H163594   1.676   4.772   5.485
21239TIP3    H263595   1.777   4.693   5.566
21240TIP3   OH263596   4.174   8.949   4.613
21240TIP3    H163597   4.259   8.966   4.571
21240TIP3    H263598   4.146   9.035   4.644
21241TIP3   OH263599   8.696   7.491   2.290
21241TIP3    H163600   8.728   7.547   2.361
21241TIP3    H263601   8.735   7.529   2.211
21242TIP3   OH263602   7.912   6.940   5.186
21242TIP3    H163603   7.826   6.900   5.176
21242TIP3    H263604   7.930   6.983   5.103
21243TIP3   OH263605   3.117   4.294   7.380
21243TIP3    H163606   3.197   4.287   7.328
21243TIP3    H263607   3.083   4.381   7.359
21244TIP3   OH263608   0.161   8.966   4.379
21244TIP3    H163609   0.104   9.041   4.391
21244TIP3    H263610   0.238   9.001   4.333
21245TIP3   OH263611   4.554   4.509   3.543
21245TIP3    H163612   4.580   4.598   3.519
21245TIP3    H263613   4.552   4.461   3.461
21246TIP3   OH263614   0.789   5.152   1.820
21246TIP3    H163615   0.705   5.112   1.795
21246TIP3    H263616   0.847   5.077   1.837
21247TIP3   OH263617   5.680   5.855   4.816
21247TIP3    H163618   5.589   5.833   4.800
21247TIP3    H263619   5.678   5.945   4.848
21248TIP3   OH263620   8.784   7.644   2.897
21248TIP3    H163621   8.779   7.629   2.991
21248TIP3    H263622   8.705   7.602   2.862
21249TIP3   OH263623   8.829   1.922   6.246
21249TIP3    H163624   8.867   1.858   6.306
21249TIP3    H263625   8.862   2.006   6.276
21250TIP3   OH263626   1.029   7.535   6.751
21250TIP3    H163627   1.010   7.612   6.698
21250TIP3    H263628   1.084   7.568   6.822
21251TIP3   OH263629   2.191   3.902   6.566
21251TIP3    H163630   2.193   3.997   6.578
21251TIP3    H263631   2.144   3.869   6.642
21252TIP3   OH263632   3.985   4.793   0.618
21252TIP3    H163633   4.056   4.775   0.557
21252TIP3    H263634   4.004   4.881   0.651
21253TIP3   OH263635   3.845   4.787   4.947
21253TIP3    H163636   3.781   4.845   4.990
21253TIP3    H263637   3.930   4.825   4.968
21254TIP3   OH263638   7.304   4.008   4.753
21254TIP3    H163639   7.368   3.939   4.739
21254TIP3    H263640   7.354   4.078   4.797
21255TIP3   OH263641   9.476   2.468   6.299
21255TIP3    H163642   9.473   2.554   6.341
21255TIP3    H263643   9.513   2.410   6.366
21256TIP3   OH263644   7.171   5.086   2.977
21256TIP3    H163645   7.146   5.063   2.888
21256TIP3    H263646   7.096   5.136   3.011
21257TIP3   OH263647   8.342   4.030   6.925
21257TIP3    H163648   8.265   3.976   6.910
21257TIP3    H263649   8.364   4.065   6.838
21258TIP3   OH263650   9.158   6.564   2.411
21258TIP3    H163651   9.154   6.496   2.478
21258TIP3    H263652   9.250   6.591   2.410
21259TIP3   OH263653   4.502   2.363   0.692
21259TIP3    H163654   4.503   2.427   0.763
21259TIP3    H263655   4.479   2.280   0.735
21260TIP3   OH263656   3.647   7.652   1.934
21260TIP3    H163657   3.724   7.626   1.986
21260TIP3    H263658   3.614   7.731   1.978
21261TIP3   OH263659   1.146   3.784   3.931
21261TIP3    H163660   1.140   3.690   3.915
21261TIP3    H263661   1.213   3.793   3.998
21262TIP3   OH263662   5.390   0.028   1.123
21262TIP3    H163663   5.467   0.024   1.068
21262TIP3    H263664   5.424   0.031   1.212
21263TIP3   OH263665   6.915   4.911   6.304
21263TIP3    H163666   6.968   4.835   6.279
21263TIP3    H263667   6.940   4.979   6.242
21264TIP3   OH263668   9.423   5.390   0.690
21264TIP3    H163669   9.398   5.428   0.606
21264TIP3    H263670   9.518   5.379   0.684
21265TIP3   OH263671   8.983   6.850   0.665
21265TIP3    H163672   9.067   6.895   0.656
21265TIP3    H263673   8.974   6.799   0.584
21266TIP3   OH263674   0.237   8.139   2.651
21266TIP3    H163675   0.312   8.195   2.673
21266TIP3    H263676   0.172   8.200   2.616
21267TIP3   OH263677   5.009   1.007   5.885
21267TIP3    H163678   5.014   0.960   5.969
21267TIP3    H263679   5.088   1.060   5.882
21268TIP3   OH263680   7.958   3.305   2.425
21268TIP3    H163681   7.915   3.292   2.340
21268TIP3    H263682   8.051   3.292   2.406
21269TIP3   OH263683   5.288   3.058   2.480
21269TIP3    H163684   5.269   3.147   2.510
21269TIP3    H263685   5.209   3.008   2.502
21270TIP3   OH263686   7.155   3.108   2.962
21270TIP3    H163687   7.173   3.079   3.051
21270TIP3    H263688   7.137   3.027   2.914
21271TIP3   OH263689   5.568   2.549   2.855
21271TIP3    H163690   5.621   2.469   2.848
21271TIP3    H263691   5.631   2.621   2.852
21272TIP3   OH263692   2.331   6.582   6.298
21272TIP3    H163693   2.271   6.555   6.228
21272TIP3    H263694   2.274   6.620   6.364
21273TIP3   OH263695   7.410   4.110   0.134
21273TIP3    H163696   7.420   4.035   0.076
21273TIP3    H263697   7.364   4.076   0.211
21274TIP3   OH263698   0.556   4.185   4.672
21274TIP3    H163699   0.542   4.261   4.615
21274TIP3    H263700   0.514   4.209   4.754
21275TIP3   OH263701   6.201   1.810   1.676
21275TIP3    H163702   6.191   1.904   1.691
21275TIP3    H263703   6.278   1.786   1.728
21276TIP3   OH263704   2.423   0.408   0.048
21276TIP3    H163705   2.384   0.326   0.018
21276TIP3    H263706   2.483   0.433  -0.022
21277TIP3   OH263707   1.784   7.771   3.046
21277TIP3    H163708   1.723   7.736   3.111
21277TIP3    H263709   1.869   7.774   3.091
21278TIP3   OH263710   4.828   2.797   0.602
21278TIP3    H163711   4.894   2.749   0.552
21278TIP3    H263712   4.875   2.870   0.641
21279TIP3   OH263713   5.067   4.132   4.609
21279TIP3    H163714   5.078   4.054   4.663
21279TIP3    H263715   5.142   4.131   4.550
21280TIP3   OH263716   5.163   0.063   2.497
21280TIP3    H163717   5.238   0.094   2.546
21280TIP3    H263718   5.136  -0.017   2.542
21281TIP3   OH263719   0.935   6.797   5.409
21281TIP3    H163720   0.859   6.853   5.392
21281TIP3    H263721   0.922   6.764   5.498
21282TIP3   OH263722   4.475   5.345   0.758
21282TIP3    H163723   4.525   5.427   0.757
21282TIP3    H263724   4.385   5.372   0.778
21283TIP3   OH263725   2.215   8.423   1.864
21283TIP3    H163726   2.284   8.395   1.804
21283TIP3    H263727   2.259   8.482   1.926
21284TIP3   OH263728   5.665   1.604   3.003
21284TIP3    H163729   5.587   1.584   3.055
21284TIP3    H263730   5.631   1.633   2.918
21285TIP3   OH263731   5.689   2.005   5.678
21285TIP3    H163732   5.678   1.964   5.592
21285TIP3    H263733   5.662   1.938   5.741
21286TIP3   OH263734   2.627   2.047   7.219
21286TIP3    H163735   2.682   2.125   7.211
21286TIP3    H263736   2.545   2.070   7.175
21287TIP3   OH263737   7.970   2.570   4.796
21287TIP3    H163738   8.001   2.515   4.868
21287TIP3    H263739   8.028   2.550   4.723
21288TIP3   OH263740   8.285   3.438   5.747
21288TIP3    H163741   8.259   3.515   5.697
21288TIP3    H263742   8.231   3.367   5.712
21289TIP3   OH263743   4.887   5.791   0.391
21289TIP3    H163744   4.858   5.748   0.472
21289TIP3    H263745   4.967   5.837   0.417
21290TIP3   OH263746   6.842   3.374   5.783
21290TIP3    H163747   6.754   3.367   5.818
21290TIP3    H263748   6.850   3.466   5.755
21291TIP3   OH263749   4.368   7.177   6.151
21291TIP3    H163750   4.372   7.124   6.072
21291TIP3    H263751   4.450   7.160   6.196
21292TIP3   OH263752   6.977   3.732   1.592
21292TIP3    H163753   6.983   3.699   1.682
21292TIP3    H263754   7.004   3.823   1.598
21293TIP3   OH263755   5.958   4.424   4.619
21293TIP3    H163756   5.893   4.369   4.578
21293TIP3    H263757   5.953   4.508   4.573
21294TIP3   OH263758   8.612   0.903   3.852
21294TIP3    H163759   8.670   0.956   3.797
21294TIP3    H263760   8.599   0.822   3.802
21295TIP3   OH263761   2.739   7.807   7.470
21295TIP3    H163762   2.646   7.798   7.494
21295TIP3    H263763   2.753   7.902   7.465
21296TIP3   OH263764   4.622   0.496   5.754
21296TIP3    H163765   4.572   0.577   5.746
21296TIP3    H263766   4.564   0.437   5.802
21297TIP3   OH263767   9.067   6.606   4.072
21297TIP3    H163768   9.160   6.625   4.080
21297TIP3    H263769   9.047   6.622   3.980
21298TIP3   OH263770   4.384   4.471   2.404
21298TIP3    H163771   4.308   4.458   2.461
21298TIP3    H263772   4.456   4.489   2.465
21299TIP3   OH263773   5.104   5.175   3.609
21299TIP3    H163774   5.171   5.224   3.560
21299TIP3    H263775   5.154   5.112   3.661
21300TIP3   OH263776   3.541   2.694   5.858
21300TIP3    H163777   3.509   2.746   5.932
21300TIP3    H263778   3.613   2.746   5.822
21301TIP3   OH263779   7.488   0.086   3.135
21301TIP3    H163780   7.506   0.128   3.051
21301TIP3    H263781   7.395   0.101   3.150
21302TIP3   OH263782   0.448   3.688   3.362
21302TIP3    H163783   0.435   3.616   3.301
21302TIP3    H263784   0.443   3.767   3.308
21303TIP3   OH263785   2.284   8.043   7.550
21303TIP3    H163786   2.232   8.053   7.629
21303TIP3    H263787   2.238   7.977   7.499
21304TIP3   OH263788   4.823   4.590   5.356
21304TIP3    H163789   4.743   4.545   5.330
21304TIP3    H263790   4.794   4.679   5.377
21305TIP3   OH263791   3.613   1.047   2.652
21305TIP3    H163792   3.557   1.050   2.730
21305TIP3    H263793   3.552   1.027   2.580
21306TIP3   OH263794   3.109   7.346   2.596
21306TIP3    H163795   3.130   7.359   2.503
21306TIP3    H263796   3.020   7.312   2.597
21307TIP3   OH263797   3.220   8.520   7.456
21307TIP3    H163798   3.274   8.482   7.524
21307TIP3    H263799   3.191   8.604   7.492
21308TIP3   OH263800   0.675   2.728   4.956
21308TIP3    H163801   0.763   2.693   4.964
21308TIP3    H263802   0.627   2.691   5.031
21309TIP3   OH263803   3.922   8.008   0.273
21309TIP3    H163804   3.858   8.061   0.322
21309TIP3    H263805   3.983   7.977   0.340
21310TIP3   OH263806   2.121   1.768   7.634
21310TIP3    H163807   2.171   1.751   7.554
21310TIP3    H263808   2.062   1.839   7.611
21311TIP3   OH263809   1.030   6.941   0.919
21311TIP3    H163810   0.967   6.875   0.891
21311TIP3    H263811   1.115   6.902   0.900
21312TIP3   OH263812   5.071   2.297   4.694
21312TIP3    H163813   4.986   2.300   4.738
21312TIP3    H263814   5.123   2.365   4.738
21313TIP3   OH263815   4.075   0.731   1.047
21313TIP3    H163816   4.057   0.708   1.138
21313TIP3    H263817   4.083   0.826   1.047
21314TIP3   OH263818   5.765   4.954   6.823
21314TIP3    H163819   5.682   4.909   6.837
21314TIP3    H263820   5.791   4.982   6.911
21315TIP3   OH263821   6.062   2.350   2.925
21315TIP3    H163822   6.125   2.303   2.871
21315TIP3    H263823   6.051   2.435   2.882
21316TIP3   OH263824   7.791   8.128   4.989
21316TIP3    H163825   7.746   8.174   4.918
21316TIP3    H263826   7.732   8.137   5.064
21317TIP3   OH263827   5.052   3.532   1.397
21317TIP3    H163828   4.959   3.549   1.383
21317TIP3    H263829   5.054   3.465   1.465
21318TIP3   OH263830   7.378   5.548   3.857
21318TIP3    H163831   7.373   5.470   3.802
21318TIP3    H263832   7.381   5.621   3.795
21319TIP3   OH263833   0.295   5.073   1.713
21319TIP3    H163834   0.247   5.073   1.796
21319TIP3    H263835   0.261   5.149   1.665
21320TIP3   OH263836   3.882   2.188   5.894
21320TIP3    H163837   3.889   2.164   5.986
21320TIP3    H263838   3.972   2.207   5.867
21321TIP3   OH263839   7.207   6.091   5.737
21321TIP3    H163840   7.207   6.052   5.649
21321TIP3    H263841   7.298   6.084   5.766
21322TIP3   OH263842   0.044   4.714   1.997
21322TIP3    H163843   0.069   4.627   2.029
21322TIP3    H263844   0.107   4.774   2.037
21323TIP3   OH263845   3.216   0.022   6.069
21323TIP3    H163846   3.283  -0.044   6.051
21323TIP3    H263847   3.150  -0.025   6.121
21324TIP3   OH263848   8.563   6.113   3.862
21324TIP3    H163849   8.626   6.094   3.793
21324TIP3    H263850   8.613   6.105   3.943
21325TIP3   OH263851   7.607   1.402   1.975
21325TIP3    H163852   7.516   1.401   1.943
21325TIP3    H263853   7.635   1.311   1.968
21326TIP3   OH263854   1.276   4.908   2.840
21326TIP3    H163855   1.217   4.883   2.912
21326TIP3    H263856   1.286   5.003   2.850
21327TIP3   OH263857   6.421   3.781   2.689
21327TIP3    H163858   6.346   3.830   2.722
21327TIP3    H263859   6.421   3.700   2.740
21328TIP3   OH263860   6.144   7.666   6.232
21328TIP3    H163861   6.051   7.651   6.213
21328TIP3    H263862   6.184   7.580   6.227
21329TIP3   OH263863   4.743   2.204   1.633
21329TIP3    H163864   4.806   2.134   1.649
21329TIP3    H263865   4.690   2.206   1.713
21330TIP3   OH263866   3.603   3.978   2.023
21330TIP3    H163867   3.542   4.030   2.075
21330TIP3    H263868   3.687   4.024   2.030
21331TIP3   OH263869   3.432   6.284   4.227
21331TIP3    H163870   3.499   6.334   4.273
21331TIP3    H263871   3.405   6.217   4.289
21332TIP3   OH263872   7.110   2.733   7.726
21332TIP3    H163873   7.184   2.778   7.686
21332TIP3    H263874   7.081   2.671   7.659
21333TIP3   OH263875   7.361   0.524   2.262
21333TIP3    H163876   7.393   0.558   2.178
21333TIP3    H263877   7.352   0.602   2.317
21334TIP3   OH263878   3.477   1.572   1.360
21334TIP3    H163879   3.404   1.610   1.311
21334TIP3    H263880   3.483   1.482   1.327
21335TIP3   OH263881   4.883   6.592   5.385
21335TIP3    H163882   4.893   6.582   5.291
21335TIP3    H263883   4.878   6.502   5.418
21336TIP3   OH263884   6.585   2.158   0.643
21336TIP3    H163885   6.659   2.175   0.702
21336TIP3    H263886   6.511   2.145   0.702
21337TIP3   OH263887   0.404   1.788   7.416
21337TIP3    H163888   0.428   1.864   7.469
21337TIP3    H263889   0.361   1.826   7.339
21338TIP3   OH263890   5.425   4.763   5.666
21338TIP3    H163891   5.399   4.823   5.735
21338TIP3    H263892   5.473   4.817   5.604
21339TIP3   OH263893   5.595   4.482   1.183
21339TIP3    H163894   5.582   4.440   1.098
21339TIP3    H263895   5.585   4.411   1.246
21340TIP3   OH263896   5.718   8.589   1.285
21340TIP3    H163897   5.753   8.677   1.270
21340TIP3    H263898   5.722   8.546   1.199
21341TIP3   OH263899   6.384   7.571   1.240
21341TIP3    H163900   6.319   7.501   1.234
21341TIP3    H263901   6.396   7.584   1.334
21342TIP3   OH263902   1.373   8.482   2.279
21342TIP3    H163903   1.381   8.519   2.367
21342TIP3    H263904   1.283   8.501   2.253
21343TIP3   OH263905   6.998   7.234   6.384
21343TIP3    H163906   7.015   7.267   6.472
21343TIP3    H263907   6.929   7.290   6.350
21344TIP3   OH263908   3.315   5.763   3.400
21344TIP3    H163909   3.328   5.784   3.493
21344TIP3    H263910   3.298   5.847   3.358
21345TIP3   OH263911   9.326   7.342   0.258
21345TIP3    H163912   9.317   7.289   0.337
21345TIP3    H263913   9.309   7.432   0.288
21346TIP3   OH263914   3.053   4.457   6.258
21346TIP3    H163915   3.132   4.404   6.262
21346TIP3    H263916   3.084   4.547   6.249
21347TIP3   OH263917   7.304   5.137   0.264
21347TIP3    H163918   7.258   5.062   0.300
21347TIP3    H263919   7.240   5.179   0.205
21348TIP3   OH263920   5.172   0.226   3.338
21348TIP3    H163921   5.177   0.218   3.243
21348TIP3    H263922   5.160   0.319   3.354
21349TIP3   OH263923   7.206   3.955   1.201
21349TIP3    H163924   7.220   3.993   1.114
21349TIP3    H263925   7.127   3.901   1.191
21350TIP3   OH263926   3.946   8.923   4.862
21350TIP3    H163927   3.959   8.868   4.939
21350TIP3    H263928   4.029   8.918   4.815
21351TIP3   OH263929   4.802   3.100   6.245
21351TIP3    H163930   4.743   3.119   6.171
21351TIP3    H263931   4.747   3.110   6.322
21352TIP3   OH263932   2.266   8.603   2.319
21352TIP3    H163933   2.178   8.581   2.289
21352TIP3    H263934   2.291   8.679   2.266
21353TIP3   OH263935   5.560   7.374   7.715
21353TIP3    H163936   5.479   7.379   7.767
21353TIP3    H263937   5.531   7.346   7.629
21354TIP3   OH263938   2.615   3.350   5.721
21354TIP3    H163939   2.538   3.293   5.710
21354TIP3    H263940   2.586   3.418   5.782
21355TIP3   OH263941   0.220   3.515   0.903
21355TIP3    H163942   0.250   3.439   0.953
21355TIP3    H263943   0.256   3.590   0.950
21356TIP3   OH263944   6.733   7.557   2.841
21356TIP3    H163945   6.676   7.481   2.828
21356TIP3    H263946   6.717   7.585   2.931
21357TIP3   OH263947   6.999   8.295   2.033
21357TIP3    H163948   7.034   8.209   2.057
21357TIP3    H263949   6.951   8.279   1.952
21358TIP3   OH263950   6.747   1.086   4.164
21358TIP3    H163951   6.751   1.177   4.135
21358TIP3    H263952   6.714   1.038   4.089
21359TIP3   OH263953   0.359   5.954   6.189
21359TIP3    H163954   0.373   6.008   6.110
21359TIP3    H263955   0.400   5.870   6.168
21360TIP3   OH263956   5.956   5.902   7.149
21360TIP3    H163957   6.037   5.919   7.100
21360TIP3    H263958   5.971   5.818   7.192
21361TIP3   OH263959   1.327   1.140   0.528
21361TIP3    H163960   1.349   1.123   0.436
21361TIP3    H263961   1.273   1.065   0.553
21362TIP3   OH263962   4.782   7.421   6.661
21362TIP3    H163963   4.710   7.361   6.645
21362TIP3    H263964   4.741   7.499   6.698
21363TIP3   OH263965   4.714   8.350   2.140
21363TIP3    H163966   4.677   8.276   2.188
21363TIP3    H263967   4.655   8.362   2.066
21364TIP3   OH263968   5.331   3.038   4.827
21364TIP3    H163969   5.237   3.030   4.809
21364TIP3    H263970   5.339   3.116   4.880
21365TIP3   OH263971   4.498   8.980   7.483
21365TIP3    H163972   4.470   9.069   7.461
21365TIP3    H263973   4.587   8.991   7.517
21366TIP3   OH263974   8.753   3.857   3.774
21366TIP3    H163975   8.702   3.938   3.770
21366TIP3    H263976   8.723   3.806   3.699
21367TIP3   OH263977   5.989   8.212   0.859
21367TIP3    H163978   5.941   8.130   0.852
21367TIP3    H263979   6.071   8.196   0.812
21368TIP3   OH263980   8.037   4.444   4.837
21368TIP3    H163981   8.095   4.508   4.878
21368TIP3    H263982   8.094   4.391   4.783
21369TIP3   OH263983   1.260   0.415   3.872
21369TIP3    H163984   1.326   0.364   3.824
21369TIP3    H263985   1.298   0.428   3.959
21370TIP3   OH263986   9.062   8.424   1.273
21370TIP3    H163987   8.978   8.437   1.318
21370TIP3    H263988   9.116   8.379   1.337
21371TIP3   OH263989   8.149   6.789   4.466
21371TIP3    H163990   8.082   6.777   4.532
21371TIP3    H263991   8.143   6.711   4.411
21372TIP3   OH263992   4.559   8.683   2.079
21372TIP3    H163993   4.548   8.605   2.133
21372TIP3    H263994   4.608   8.653   2.003
21373TIP3   OH263995   2.514   0.304   6.917
21373TIP3    H163996   2.562   0.381   6.888
21373TIP3    H263997   2.471   0.271   6.839
21374TIP3   OH263998   4.514   0.410   0.440
21374TIP3    H163999   4.534   0.321   0.469
21374TIP3    H264000   4.564   0.466   0.499
21375TIP3   OH264001   9.501   4.179   1.895
21375TIP3    H164002   9.573   4.120   1.919
21375TIP3    H264003   9.451   4.189   1.975
21376TIP3   OH264004   4.636   6.416   7.229
21376TIP3    H164005   4.681   6.362   7.165
21376TIP3    H264006   4.706   6.459   7.278
21377TIP3   OH264007   6.594   2.179   2.136
21377TIP3    H164008   6.644   2.111   2.181
21377TIP3    H264009   6.503   2.162   2.160
21378TIP3   OH264010   3.524   5.344   3.981
21378TIP3    H164011   3.453   5.338   3.917
21378TIP3    H264012   3.603   5.323   3.930
21379TIP3   OH264013   2.010   6.230   5.467
21379TIP3    H164014   2.076   6.280   5.516
21379TIP3    H264015   2.060   6.175   5.407
21380TIP3   OH264016   5.857   5.289   5.680
21380TIP3    H164017   5.824   5.359   5.737
21380TIP3    H264018   5.920   5.333   5.624
21381TIP3   OH264019   6.926   0.026   1.132
21381TIP3    H164020   6.845  -0.023   1.147
21381TIP3    H264021   6.988  -0.039   1.100
21382TIP3   OH264022   7.382   0.604   6.336
21382TIP3    H164023   7.302   0.584   6.385
21382TIP3    H264024   7.354   0.671   6.272
21383TIP3   OH264025   1.047   3.190   6.635
21383TIP3    H164026   1.016   3.268   6.589
21383TIP3    H264027   1.101   3.144   6.571
21384TIP3   OH264028   9.289   8.222   7.077
21384TIP3    H164029   9.346   8.293   7.049
21384TIP3    H264030   9.348   8.149   7.096
21385TIP3   OH264031   6.729   7.230   4.764
21385TIP3    H164032   6.687   7.295   4.708
21385TIP3    H264033   6.809   7.274   4.796
21386TIP3   OH264034   8.776   4.249   5.636
21386TIP3    H164035   8.722   4.326   5.620
21386TIP3    H264036   8.777   4.203   5.552
21387TIP3   OH264037   1.679   8.389   4.412
21387TIP3    H164038   1.735   8.318   4.444
21387TIP3    H264039   1.715   8.468   4.452
21388TIP3   OH264040   9.081   0.468   2.170
21388TIP3    H164041   9.064   0.387   2.122
21388TIP3    H264042   9.084   0.441   2.262
21389TIP3   OH264043   4.193   6.825   6.449
21389TIP3    H164044   4.225   6.735   6.451
21389TIP3    H264045   4.268   6.876   6.417
21390TIP3   OH264046   1.440   2.287   4.818
21390TIP3    H164047   1.408   2.358   4.762
21390TIP3    H264048   1.528   2.268   4.786
21391TIP3   OH264049   3.697   1.703   1.317
21391TIP3    H164050   3.622   1.647   1.335
21391TIP3    H264051   3.770   1.663   1.365
21392TIP3   OH264052   8.929   2.177   6.263
21392TIP3    H164053   8.883   2.260   6.253
21392TIP3    H264054   8.964   2.158   6.176
21393TIP3   OH264055   7.554   0.364   3.803
21393TIP3    H164056   7.595   0.425   3.742
21393TIP3    H264057   7.576   0.399   3.889
21394TIP3   OH264058   0.408   0.648   4.477
21394TIP3    H164059   0.499   0.679   4.468
21394TIP3    H264060   0.380   0.628   4.388
21395TIP3   OH264061   6.551   2.464   0.658
21395TIP3    H164062   6.473   2.440   0.609
21395TIP3    H264063   6.519   2.487   0.745
21396TIP3   OH264064   1.801   3.537   2.704
21396TIP3    H164065   1.710   3.528   2.677
21396TIP3    H264066   1.800   3.607   2.769
21397TIP3   OH264067   1.015   5.748   7.338
21397TIP3    H164068   0.922   5.724   7.329
21397TIP3    H264069   1.038   5.722   7.428
21398TIP3   OH264070   0.647   7.815   4.686
21398TIP3    H164071   0.682   7.904   4.683
21398TIP3    H264072   0.714   7.761   4.644
21399TIP3   OH264073   2.026   4.254   5.412
21399TIP3    H164074   2.009   4.178   5.357
21399TIP3    H264075   2.072   4.220   5.488
21400TIP3   OH264076   6.334   3.202   6.605
21400TIP3    H164077   6.321   3.124   6.659
21400TIP3    H264078   6.304   3.274   6.661
21401TIP3   OH264079   3.756   8.731   6.161
21401TIP3    H164080   3.671   8.723   6.204
21401TIP3    H264081   3.818   8.693   6.223
21402TIP3   OH264082   0.375   3.299   1.673
21402TIP3    H164083   0.290   3.336   1.651
21402TIP3    H264084   0.365   3.205   1.657
21403TIP3   OH264085   7.263   5.709   3.239
21403TIP3    H164086   7.188   5.737   3.291
21403TIP3    H264087   7.305   5.641   3.292
21404TIP3   OH264088   7.202   4.022   1.833
21404TIP3    H164089   7.207   4.012   1.738
21404TIP3    H264090   7.108   4.026   1.852
21405TIP3   OH264091   6.279   2.172   0.244
21405TIP3    H164092   6.313   2.098   0.194
21405TIP3    H264093   6.195   2.192   0.203
21406TIP3   OH264094   6.863   4.599   5.999
21406TIP3    H164095   6.770   4.605   6.020
21406TIP3    H264096   6.865   4.570   5.908
21407TIP3   OH264097   7.812   2.298   5.116
21407TIP3    H164098   7.847   2.290   5.027
21407TIP3    H264099   7.719   2.274   5.107
21408TIP3   OH264100   1.292   6.915   1.118
21408TIP3    H164101   1.293   6.869   1.034
21408TIP3    H264102   1.259   6.850   1.181
21409TIP3   OH264103   1.073   1.837   4.436
21409TIP3    H164104   0.994   1.807   4.480
21409TIP3    H264105   1.109   1.904   4.495
21410TIP3   OH264106   5.889   8.964   2.318
21410TIP3    H164107   5.976   8.972   2.278
21410TIP3    H264108   5.903   8.905   2.393
21411TIP3   OH264109   3.394   7.699   1.441
21411TIP3    H164110   3.422   7.769   1.382
21411TIP3    H264111   3.383   7.623   1.385
21412TIP3   OH264112   6.439   1.432   1.935
21412TIP3    H164113   6.431   1.401   2.025
21412TIP3    H264114   6.444   1.352   1.883
21413TIP3   OH264115   9.420   4.452   1.875
21413TIP3    H164116   9.356   4.465   1.805
21413TIP3    H264117   9.408   4.361   1.902
21414TIP3   OH264118   7.284   0.853   6.543
21414TIP3    H164119   7.216   0.919   6.526
21414TIP3    H264120   7.239   0.770   6.530
21415TIP3   OH264121   6.884   5.957   2.881
21415TIP3    H164122   6.912   5.868   2.903
21415TIP3    H264123   6.963   6.010   2.890
21416TIP3   OH264124   5.964   4.484   0.968
21416TIP3    H164125   5.924   4.403   1.001
21416TIP3    H264126   5.900   4.519   0.906
21417TIP3   OH264127   4.521   1.605   7.296
21417TIP3    H164128   4.549   1.669   7.231
21417TIP3    H264129   4.487   1.532   7.244
21418TIP3   OH264130   1.340   7.263   4.434
21418TIP3    H164131   1.372   7.327   4.371
21418TIP3    H264132   1.324   7.184   4.382
21419TIP3   OH264133   5.519   3.808   0.141
21419TIP3    H164134   5.533   3.840   0.230
21419TIP3    H264135   5.424   3.809   0.130
21420TIP3   OH264136   7.519   5.572   2.354
21420TIP3    H164137   7.512   5.607   2.265
21420TIP3    H264138   7.444   5.512   2.362
21421TIP3   OH264139   6.492   4.744   3.265
21421TIP3    H164140   6.525   4.820   3.312
21421TIP3    H264141   6.571   4.698   3.235
21422TIP3   OH264142   5.768   8.554   2.515
21422TIP3    H164143   5.841   8.607   2.547
21422TIP3    H264144   5.802   8.464   2.515
21423TIP3   OH264145   8.286   3.894   7.783
21423TIP3    H164146   8.338   3.963   7.824
21423TIP3    H264147   8.225   3.941   7.726
21424TIP3   OH264148   3.846   4.641   4.109
21424TIP3    H164149   3.763   4.683   4.132
21424TIP3    H264150   3.843   4.632   4.014
21425TIP3   OH264151   7.802   7.619   7.616
21425TIP3    H164152   7.853   7.570   7.681
21425TIP3    H264153   7.867   7.649   7.552
21426TIP3   OH264154   7.043   8.730   4.603
21426TIP3    H164155   7.067   8.802   4.545
21426TIP3    H264156   7.116   8.723   4.664
21427TIP3   OH264157   7.710   0.245   3.254
21427TIP3    H164158   7.626   0.236   3.209
21427TIP3    H264159   7.689   0.229   3.346
21428TIP3   OH264160   1.334   4.744   0.851
21428TIP3    H164161   1.345   4.718   0.760
21428TIP3    H264162   1.340   4.662   0.900
21429TIP3   OH264163   7.090   8.732   3.177
21429TIP3    H164164   7.010   8.749   3.227
21429TIP3    H264165   7.156   8.711   3.244
21430TIP3   OH264166   1.663   2.675   0.011
21430TIP3    H164167   1.617   2.701   0.091
21430TIP3    H264168   1.597   2.628  -0.040
21431TIP3   OH264169   3.408   7.013   2.211
21431TIP3    H164170   3.335   6.966   2.252
21431TIP3    H264171   3.447   7.062   2.283
21432TIP3   OH264172   1.039   7.184   1.115
21432TIP3    H164173   1.069   7.118   1.052
21432TIP3    H264174   1.057   7.145   1.201
21433TIP3   OH264175   5.303   0.529   5.008
21433TIP3    H164176   5.236   0.467   5.039
21433TIP3    H264177   5.255   0.591   4.954
21434TIP3   OH264178   7.754   8.649   6.538
21434TIP3    H164179   7.846   8.669   6.524
21434TIP3    H264180   7.724   8.615   6.454
21435TIP3   OH264181   9.394   1.967   1.428
21435TIP3    H164182   9.427   1.929   1.346
21435TIP3    H264183   9.440   1.919   1.497
21436TIP3   OH264184   8.178   8.515   3.158
21436TIP3    H164185   8.176   8.504   3.063
21436TIP3    H264186   8.165   8.609   3.171
21437TIP3   OH264187   6.467   8.229   7.448
21437TIP3    H164188   6.540   8.280   7.484
21437TIP3    H264189   6.391   8.285   7.462
21438TIP3   OH264190   6.667   8.384   4.229
21438TIP3    H164191   6.641   8.476   4.225
21438TIP3    H264192   6.732   8.374   4.159
21439TIP3   OH264193   6.695   1.001   5.967
21439TIP3    H164194   6.748   0.923   5.949
21439TIP3    H264195   6.759   1.069   5.989
21440TIP3   OH264196   8.571   2.682   7.750
21440TIP3    H164197   8.620   2.724   7.822
21440TIP3    H264198   8.555   2.593   7.781
21441TIP3   OH264199   2.949   3.283   4.266
21441TIP3    H164200   2.927   3.299   4.357
21441TIP3    H264201   2.877   3.230   4.232
21442TIP3   OH264202   2.119   8.789   0.483
21442TIP3    H164203   2.164   8.860   0.438
21442TIP3    H264204   2.064   8.749   0.417
21443TIP3   OH264205   2.915   3.748   2.465
21443TIP3    H164206   2.893   3.666   2.421
21443TIP3    H264207   2.831   3.781   2.497
21444TIP3   OH264208   5.066   2.941   2.606
21444TIP3    H164209   4.981   2.982   2.590
21444TIP3    H264210   5.045   2.861   2.654
21445TIP3   OH264211   2.811   3.016   2.589
21445TIP3    H164212   2.736   3.067   2.560
21445TIP3    H264213   2.775   2.950   2.649
21446TIP3   OH264214   8.486   4.281   4.211
21446TIP3    H164215   8.471   4.370   4.244
21446TIP3    H264216   8.405   4.234   4.231
21447TIP3   OH264217   0.353   1.666   2.433
21447TIP3    H164218   0.367   1.612   2.510
21447TIP3    H264219   0.308   1.608   2.371
21448TIP3   OH264220   6.758   6.678   2.377
21448TIP3    H164221   6.684   6.720   2.420
21448TIP3    H264222   6.724   6.649   2.293
21449TIP3   OH264223   8.236   0.561   2.481
21449TIP3    H164224   8.229   0.578   2.575
21449TIP3    H264225   8.159   0.508   2.460
21450TIP3   OH264226   2.600   7.988   6.857
21450TIP3    H164227   2.575   7.946   6.775
21450TIP3    H264228   2.518   8.023   6.892
21451TIP3   OH264229   5.452   7.668   7.588
21451TIP3    H164230   5.543   7.655   7.616
21451TIP3    H264231   5.449   7.759   7.559
21452TIP3   OH264232   6.304   2.355   1.842
21452TIP3    H164233   6.224   2.356   1.790
21452TIP3    H264234   6.307   2.442   1.883
21453TIP3   OH264235   7.048   6.622   4.798
21453TIP3    H164236   7.039   6.541   4.848
21453TIP3    H264237   7.122   6.666   4.839
21454TIP3   OH264238   5.120   8.160   1.668
21454TIP3    H164239   5.025   8.146   1.669
21454TIP3    H264240   5.137   8.208   1.749
21455TIP3   OH264241   6.214   3.333   2.445
21455TIP3    H164242   6.209   3.250   2.492
21455TIP3    H264243   6.231   3.309   2.354
21456TIP3   OH264244   6.218   2.151   6.276
21456TIP3    H164245   6.161   2.147   6.199
21456TIP3    H264246   6.251   2.062   6.287
21457TIP3   OH264247   3.524   1.515   1.788
21457TIP3    H164248   3.537   1.589   1.729
21457TIP3    H264249   3.576   1.537   1.866
21458TIP3   OH264250   7.883   0.242   1.285
21458TIP3    H164251   7.842   0.328   1.282
21458TIP3    H264252   7.813   0.183   1.312
21459TIP3   OH264253   7.226   2.349   4.730
21459TIP3    H164254   7.218   2.325   4.822
21459TIP3    H264255   7.309   2.396   4.724
21460TIP3   OH264256   4.457   7.722   0.840
21460TIP3    H164257   4.495   7.635   0.822
21460TIP3    H264258   4.511   7.782   0.789
21461TIP3   OH264259   6.872   4.011   1.854
21461TIP3    H164260   6.781   3.980   1.850
21461TIP3    H264261   6.898   3.998   1.945
21462TIP3   OH264262   8.465   0.928   3.436
21462TIP3    H164263   8.397   0.905   3.499
21462TIP3    H264264   8.452   1.021   3.419
21463TIP3   OH264265   2.365   2.661   7.121
21463TIP3    H164266   2.278   2.634   7.152
21463TIP3    H264267   2.349   2.739   7.069
21464TIP3   OH264268   8.910   4.794   5.264
21464TIP3    H164269   8.853   4.834   5.330
21464TIP3    H264270   8.854   4.787   5.187
21465TIP3   OH264271   1.869   4.578   3.683
21465TIP3    H164272   1.837   4.505   3.737
21465TIP3    H264273   1.797   4.595   3.622
21466TIP3   OH264274   5.813   4.311   6.519
21466TIP3    H164275   5.736   4.260   6.545
21466TIP3    H264276   5.805   4.318   6.423
21467TIP3   OH264277   2.748   6.393   1.020
21467TIP3    H164278   2.660   6.386   1.055
21467TIP3    H264279   2.791   6.311   1.046
21468TIP3   OH264280   3.895   6.574   0.658
21468TIP3    H164281   3.875   6.623   0.738
21468TIP3    H264282   3.988   6.590   0.642
21469TIP3   OH264283   2.965   7.236   7.635
21469TIP3    H164284   2.872   7.218   7.626
21469TIP3    H264285   2.970   7.303   7.703
21470TIP3   OH264286   0.068   3.127   0.865
21470TIP3    H164287   0.134   3.069   0.826
21470TIP3    H264288   0.012   3.151   0.791
21471TIP3   OH264289   2.399   1.415   3.922
21471TIP3    H164290   2.355   1.438   4.004
21471TIP3    H264291   2.492   1.431   3.940
21472TIP3   OH264292   2.200   0.867   5.851
21472TIP3    H164293   2.117   0.857   5.897
21472TIP3    H264294   2.176   0.870   5.758
21473TIP3   OH264295   9.260   8.593   1.171
21473TIP3    H164296   9.191   8.550   1.220
21473TIP3    H264297   9.263   8.547   1.087
21474TIP3   OH264298   0.063   2.447   1.462
21474TIP3    H164299   0.000   2.517   1.447
21474TIP3    H264300   0.010   2.367   1.460
21475TIP3   OH264301   0.889   5.859   3.789
21475TIP3    H164302   0.938   5.940   3.777
21475TIP3    H264303   0.914   5.805   3.714
21476TIP3   OH264304   3.826   2.301   4.125
21476TIP3    H164305   3.883   2.225   4.118
21476TIP3    H264306   3.833   2.328   4.217
21477TIP3   OH264307   2.516   6.736   0.274
21477TIP3    H164308   2.565   6.745   0.355
21477TIP3    H264309   2.559   6.797   0.213
21478TIP3   OH264310   9.517   1.966   4.827
21478TIP3    H164311   9.430   1.932   4.851
21478TIP3    H264312   9.549   2.008   4.907
21479TIP3   OH264313   1.076   6.622   5.241
21479TIP3    H164314   1.045   6.695   5.295
21479TIP3    H264315   1.083   6.549   5.302
21480TIP3   OH264316   0.577   5.493   5.945
21480TIP3    H164317   0.672   5.482   5.956
21480TIP3    H264318   0.554   5.565   6.003
21481TIP3   OH264319   0.996   5.896   7.006
21481TIP3    H164320   1.045   5.884   7.087
21481TIP3    H264321   0.929   5.960   7.027
21482TIP3   OH264322   8.722   6.959   5.461
21482TIP3    H164323   8.642   6.949   5.512
21482TIP3    H264324   8.730   6.877   5.413
21483TIP3   OH264325   7.732   2.651   0.614
21483TIP3    H164326   7.799   2.583   0.615
21483TIP3    H264327   7.658   2.612   0.568
21484TIP3   OH264328   1.895   2.196   2.307
21484TIP3    H164329   1.847   2.279   2.306
21484TIP3    H264330   1.916   2.181   2.399
21485TIP3   OH264331   5.509   6.788   4.471
21485TIP3    H164332   5.433   6.844   4.454
21485TIP3    H264333   5.472   6.703   4.494
21486TIP3   OH264334   8.996   5.476   5.158
21486TIP3    H164335   8.973   5.388   5.186
21486TIP3    H264336   8.964   5.533   5.229
21487TIP3   OH264337   8.380   0.742   5.266
21487TIP3    H164338   8.349   0.815   5.321
21487TIP3    H264339   8.353   0.766   5.178
21488TIP3   OH264340   1.451   6.408   5.761
21488TIP3    H164341   1.359   6.429   5.774
21488TIP3    H264342   1.461   6.321   5.801
21489TIP3   OH264343   7.488   2.385   5.712
21489TIP3    H164344   7.417   2.429   5.759
21489TIP3    H264345   7.446   2.313   5.667
21490TIP3   OH264346   4.595   6.721   0.836
21490TIP3    H164347   4.662   6.661   0.868
21490TIP3    H264348   4.569   6.686   0.752
21491TIP3   OH264349   9.039   1.691   5.679
21491TIP3    H164350   9.027   1.649   5.764
21491TIP3    H264351   8.987   1.637   5.618
21492TIP3   OH264352   0.994   4.084   3.346
21492TIP3    H164353   0.947   4.068   3.264
21492TIP3    H264354   0.980   4.005   3.398
21493TIP3   OH264355   1.954   8.353   1.791
21493TIP3    H164356   2.049   8.362   1.800
21493TIP3    H264357   1.934   8.268   1.830
21494TIP3   OH264358   7.314   4.221   4.113
21494TIP3    H164359   7.278   4.248   4.028
21494TIP3    H264360   7.330   4.303   4.159
21495TIP3   OH264361   6.029   7.394   5.730
21495TIP3    H164362   5.964   7.404   5.661
21495TIP3    H264363   6.105   7.443   5.698
21496TIP3   OH264364   6.077   1.005   1.160
21496TIP3    H164365   5.995   1.036   1.122
21496TIP3    H264366   6.110   1.080   1.209
21497TIP3   OH264367   0.558   3.293   4.361
21497TIP3    H164368   0.514   3.213   4.335
21497TIP3    H264369   0.530   3.308   4.451
21498TIP3   OH264370   2.953   6.453   7.403
21498TIP3    H164371   3.019   6.495   7.349
21498TIP3    H264372   2.942   6.512   7.478
21499TIP3   OH264373   5.182   7.828   1.502
21499TIP3    H164374   5.110   7.853   1.445
21499TIP3    H264375   5.148   7.839   1.591
21500TIP3   OH264376   1.153   5.419   5.174
21500TIP3    H164377   1.160   5.452   5.263
21500TIP3    H264378   1.075   5.365   5.174
21501TIP3   OH264379   4.918   4.819   2.364
21501TIP3    H164380   4.897   4.834   2.272
21501TIP3    H264381   4.987   4.882   2.384
21502TIP3   OH264382   3.887   2.799   2.135
21502TIP3    H164383   3.933   2.726   2.094
21502TIP3    H264384   3.934   2.815   2.217
21503TIP3   OH264385   8.135   1.490   5.724
21503TIP3    H164386   8.171   1.491   5.635
21503TIP3    H264387   8.140   1.399   5.752
21504TIP3   OH264388   8.298   6.037   1.925
21504TIP3    H164389   8.228   6.064   1.985
21504TIP3    H264390   8.352   6.115   1.915
21505TIP3   OH264391   9.122   4.221   3.287
21505TIP3    H164392   9.048   4.169   3.255
21505TIP3    H264393   9.105   4.310   3.256
21506TIP3   OH264394   1.827   7.336   0.784
21506TIP3    H164395   1.787   7.256   0.816
21506TIP3    H264396   1.875   7.371   0.858
21507TIP3   OH264397   7.133   6.963   4.821
21507TIP3    H164398   7.169   6.886   4.777
21507TIP3    H264399   7.123   6.936   4.913
21508TIP3   OH264400   6.599   3.506   6.806
21508TIP3    H164401   6.592   3.472   6.895
21508TIP3    H264402   6.516   3.550   6.790
21509TIP3   OH264403   3.772   7.234   4.246
21509TIP3    H164404   3.808   7.193   4.324
21509TIP3    H264405   3.679   7.245   4.265
21510TIP3   OH264406   6.596   8.570   6.600
21510TIP3    H164407   6.624   8.661   6.604
21510TIP3    H264408   6.591   8.542   6.691
21511TIP3   OH264409   2.275   0.834   4.854
21511TIP3    H164410   2.362   0.869   4.874
21511TIP3    H264411   2.288   0.782   4.775
21512TIP3   OH264412   9.493   3.384   0.236
21512TIP3    H164413   9.429   3.431   0.289
21512TIP3    H264414   9.444   3.353   0.160
21513TIP3   OH264415   0.270   3.472   3.529
21513TIP3    H164416   0.303   3.553   3.491
21513TIP3    H264417   0.310   3.403   3.476
21514TIP3   OH264418   1.004   4.024   2.221
21514TIP3    H164419   0.993   3.937   2.258
21514TIP3    H264420   1.071   4.066   2.275
21515TIP3   OH264421   8.170   8.075   0.415
21515TIP3    H164422   8.111   8.143   0.448
21515TIP3    H264423   8.113   7.999   0.405
21516TIP3   OH264424   5.858   7.758   6.734
21516TIP3    H164425   5.851   7.747   6.829
21516TIP3    H264426   5.770   7.783   6.706
21517TIP3   OH264427   0.291   3.602   6.339
21517TIP3    H164428   0.226   3.573   6.275
21517TIP3    H264429   0.320   3.687   6.306
21518TIP3   OH264430   6.049   2.366   5.033
21518TIP3    H164431   6.140   2.356   5.005
21518TIP3    H264432   6.034   2.460   5.031
21519TIP3   OH264433   2.033   8.158   0.101
21519TIP3    H164434   1.973   8.218   0.057
21519TIP3    H264435   2.022   8.177   0.194
21520TIP3   OH264436   0.789   6.890   2.026
21520TIP3    H164437   0.728   6.839   2.078
21520TIP3    H264438   0.848   6.825   1.987
21521TIP3   OH264439   0.480   8.517   5.225
21521TIP3    H164440   0.426   8.516   5.146
21521TIP3    H264441   0.535   8.440   5.218
21522TIP3   OH264442   6.327   8.267   5.728
21522TIP3    H164443   6.314   8.191   5.670
21522TIP3    H264444   6.327   8.230   5.816
21523TIP3   OH264445   7.335   7.848   7.306
21523TIP3    H164446   7.285   7.852   7.388
21523TIP3    H264447   7.320   7.759   7.274
21524TIP3   OH264448   9.089   4.086   1.077
21524TIP3    H164449   9.053   3.999   1.059
21524TIP3    H264450   9.017   4.133   1.119
21525TIP3   OH264451   2.230   8.325   6.577
21525TIP3    H164452   2.212   8.413   6.544
21525TIP3    H264453   2.192   8.267   6.512
21526TIP3   OH264454   8.967   4.783   2.763
21526TIP3    H164455   9.016   4.706   2.792
21526TIP3    H264456   8.955   4.836   2.842
21527TIP3   OH264457   3.630   8.743   2.184
21527TIP3    H164458   3.638   8.759   2.278
21527TIP3    H264459   3.720   8.735   2.152
21528TIP3   OH264460   0.644   8.023   0.108
21528TIP3    H164461   0.643   7.957   0.178
21528TIP3    H264462   0.555   8.023   0.074
21529TIP3   OH264463   5.053   1.514   6.152
21529TIP3    H164464   5.041   1.478   6.240
21529TIP3    H264465   4.964   1.520   6.117
21530TIP3   OH264466   6.552   7.933   0.979
21530TIP3    H164467   6.610   8.009   0.970
21530TIP3    H264468   6.472   7.958   0.931
21531TIP3   OH264469   8.589   6.784   1.391
21531TIP3    H164470   8.536   6.720   1.343
21531TIP3    H264471   8.650   6.818   1.327
21532TIP3   OH264472   3.746   1.131   6.977
21532TIP3    H164473   3.665   1.182   6.967
21532TIP3    H264474   3.815   1.197   6.982
21533TIP3   OH264475   2.421   0.164   3.320
21533TIP3    H164476   2.483   0.103   3.360
21533TIP3    H264477   2.338   0.145   3.364
21534TIP3   OH264478   6.942   2.796   0.278
21534TIP3    H164479   6.955   2.861   0.347
21534TIP3    H264480   6.947   2.712   0.323
21535TIP3   OH264481   7.705   0.598   7.240
21535TIP3    H164482   7.703   0.674   7.181
21535TIP3    H264483   7.636   0.540   7.206
21536TIP3   OH264484   3.365   6.575   7.403
21536TIP3    H164485   3.424   6.614   7.339
21536TIP3    H264486   3.422   6.522   7.460
21537TIP3   OH264487   3.109   4.257   1.466
21537TIP3    H164488   3.015   4.242   1.478
21537TIP3    H264489   3.140   4.287   1.551
21538TIP3   OH264490   7.568   3.771   1.817
21538TIP3    H164491   7.604   3.853   1.851
21538TIP3    H264492   7.645   3.716   1.801
21539TIP3   OH264493   7.986   7.384   6.131
21539TIP3    H164494   7.905   7.407   6.178
21539TIP3    H264495   8.036   7.466   6.128
21540TIP3   OH264496   5.925   7.236   2.111
21540TIP3    H164497   5.980   7.275   2.044
21540TIP3    H264498   5.890   7.311   2.160
21541TIP3   OH264499   3.991   0.354   7.786
21541TIP3    H164500   4.072   0.341   7.834
21541TIP3    H264501   3.959   0.265   7.768
21542TIP3   OH264502   6.951   0.210   2.779
21542TIP3    H164503   7.014   0.240   2.713
21542TIP3    H264504   6.961   0.114   2.780
21543TIP3   OH264505   7.769   1.309   7.362
21543TIP3    H164506   7.839   1.255   7.398
21543TIP3    H264507   7.745   1.368   7.434
21544TIP3   OH264508   0.645   0.583   0.021
21544TIP3    H164509   0.729   0.543  -0.003
21544TIP3    H264510   0.612   0.529   0.093
21545TIP3   OH264511   3.809   0.237   1.776
21545TIP3    H164512   3.733   0.293   1.790
21545TIP3    H264513   3.782   0.151   1.808
21546TIP3   OH264514   9.053   1.663   3.260
21546TIP3    H164515   9.057   1.624   3.173
21546TIP3    H264516   9.139   1.643   3.298
21547TIP3   OH264517   4.101   0.817   6.885
21547TIP3    H164518   4.149   0.886   6.932
21547TIP3    H264519   4.066   0.761   6.954
21548TIP3   OH264520   8.765   8.158   5.971
21548TIP3    H164521   8.711   8.211   5.912
21548TIP3    H264522   8.853   8.195   5.963
21549TIP3   OH264523   5.503   8.466   7.195
21549TIP3    H164524   5.518   8.540   7.136
21549TIP3    H264525   5.440   8.411   7.150
21550TIP3   OH264526   2.745   0.670   0.494
21550TIP3    H164527   2.701   0.753   0.511
21550TIP3    H264528   2.735   0.657   0.399
21551TIP3   OH264529   1.501   1.781   5.379
21551TIP3    H164530   1.572   1.813   5.325
21551TIP3    H264531   1.467   1.705   5.332
21552TIP3   OH264532   8.420   4.124   2.624
21552TIP3    H164533   8.331   4.109   2.593
21552TIP3    H264534   8.433   4.218   2.616
21553TIP3   OH264535   5.273   7.890   6.733
21553TIP3    H164536   5.337   7.849   6.675
21553TIP3    H264537   5.196   7.832   6.728
21554TIP3   OH264538   4.372   8.006   2.730
21554TIP3    H164539   4.340   8.015   2.819
21554TIP3    H264540   4.297   7.972   2.681
21555TIP3   OH264541   5.506   2.513   5.664
21555TIP3    H164542   5.583   2.527   5.609
21555TIP3    H264543   5.441   2.575   5.631
21556TIP3   OH264544   7.885   2.763   5.291
21556TIP3    H164545   7.818   2.698   5.311
21556TIP3    H264546   7.840   2.827   5.235
21557TIP3   OH264547   6.751   3.127   1.599
21557TIP3    H164548   6.834   3.170   1.580
21557TIP3    H264549   6.684   3.194   1.582
21558TIP3   OH264550   3.564   1.658   5.056
21558TIP3    H164551   3.602   1.743   5.075
21558TIP3    H264552   3.637   1.607   5.020
21559TIP3   OH264553   4.179   6.354   5.843
21559TIP3    H164554   4.108   6.374   5.782
21559TIP3    H264555   4.186   6.258   5.841
21560TIP3   OH264556   8.489   1.055   2.554
21560TIP3    H164557   8.584   1.046   2.550
21560TIP3    H264558   8.455   0.986   2.497
21561TIP3   OH264559   8.784   6.430   7.167
21561TIP3    H164560   8.845   6.361   7.144
21561TIP3    H264561   8.710   6.384   7.208
21562TIP3   OH264562   6.182   7.693   1.815
21562TIP3    H164563   6.250   7.671   1.879
21562TIP3    H264564   6.169   7.612   1.766
21563TIP3   OH264565   9.242   7.855   3.912
21563TIP3    H164566   9.296   7.824   3.985
21563TIP3    H264567   9.152   7.837   3.940
21564TIP3   OH264568   6.033   7.011   7.757
21564TIP3    H164569   5.993   6.978   7.838
21564TIP3    H264570   6.009   6.946   7.691
21565TIP3   OH264571   9.340   6.709   1.474
21565TIP3    H164572   9.410   6.647   1.456
21565TIP3    H264573   9.385   6.793   1.487
21566TIP3   OH264574   3.111   3.485   5.827
21566TIP3    H164575   3.164   3.449   5.755
21566TIP3    H264576   3.023   3.491   5.790
21567TIP3   OH264577   4.703   8.886   1.496
21567TIP3    H164578   4.699   8.845   1.583
21567TIP3    H264579   4.616   8.874   1.460
21568TIP3   OH264580   1.531   7.564   7.334
21568TIP3    H164581   1.495   7.623   7.400
21568TIP3    H264582   1.488   7.480   7.350
21569TIP3   OH264583   0.735   5.016   4.338
21569TIP3    H164584   0.790   5.091   4.362
21569TIP3    H264585   0.707   4.979   4.422
21570TIP3   OH264586   5.487   4.681   7.793
21570TIP3    H164587   5.453   4.661   7.705
21570TIP3    H264588   5.538   4.604   7.816
21571TIP3   OH264589   9.376   0.674   1.731
21571TIP3    H164590   9.422   0.633   1.805
21571TIP3    H264591   9.435   0.742   1.700
21572TIP3   OH264592   2.106   2.009   1.746
21572TIP3    H164593   2.022   2.021   1.790
21572TIP3    H264594   2.092   2.041   1.657
21573TIP3   OH264595   0.224   6.130   0.201
21573TIP3    H164596   0.245   6.088   0.118
21573TIP3    H264597   0.208   6.058   0.261
21574TIP3   OH264598   2.111   7.660   6.508
21574TIP3    H164599   2.061   7.740   6.523
21574TIP3    H264600   2.070   7.621   6.431
21575TIP3   OH264601   2.338   5.831   7.194
21575TIP3    H164602   2.367   5.768   7.260
21575TIP3    H264603   2.270   5.785   7.145
21576TIP3   OH264604   4.353   4.028   4.783
21576TIP3    H164605   4.382   4.053   4.696
21576TIP3    H264606   4.271   4.076   4.795
21577TIP3   OH264607   7.022   0.549   4.059
21577TIP3    H164608   6.993   0.532   3.969
21577TIP3    H264609   7.117   0.551   4.053
21578TIP3   OH264610   5.010   1.710   5.527
21578TIP3    H164611   5.000   1.708   5.622
21578TIP3    H264612   5.080   1.648   5.509
21579TIP3   OH264613   4.449   6.176   0.305
21579TIP3    H164614   4.530   6.188   0.255
21579TIP3    H264615   4.443   6.081   0.318
21580TIP3   OH264616   3.398   7.886   5.362
21580TIP3    H164617   3.420   7.936   5.441
21580TIP3    H264618   3.440   7.933   5.291
21581TIP3   OH264619   7.360   0.179   7.452
21581TIP3    H164620   7.292   0.219   7.397
21581TIP3    H264621   7.426   0.149   7.390
21582TIP3   OH264622   9.182   0.247   7.304
21582TIP3    H164623   9.114   0.180   7.301
21582TIP3    H264624   9.239   0.221   7.376
21583TIP3   OH264625   1.034   2.619   0.275
21583TIP3    H164626   0.942   2.646   0.271
21583TIP3    H264627   1.081   2.698   0.302
21584TIP3   OH264628   4.203   7.756   0.605
21584TIP3    H164629   4.256   7.831   0.632
21584TIP3    H264630   4.138   7.793   0.545
21585TIP3   OH264631   4.998   2.907   3.744
21585TIP3    H164632   5.082   2.952   3.735
21585TIP3    H264633   4.948   2.961   3.806
21586TIP3   OH264634   5.177   1.957   7.687
21586TIP3    H164635   5.207   2.029   7.742
21586TIP3    H264636   5.193   1.986   7.597
21587TIP3   OH264637   4.504   6.905   1.006
21587TIP3    H164638   4.439   6.847   1.045
21587TIP3    H264639   4.549   6.850   0.941
21588TIP3   OH264640   5.790   8.428   0.402
21588TIP3    H164641   5.872   8.382   0.384
21588TIP3    H264642   5.732   8.361   0.439
21589TIP3   OH264643   3.910   2.957   0.210
21589TIP3    H164644   3.859   2.881   0.237
21589TIP3    H264645   3.996   2.922   0.189
21590TIP3   OH264646   3.369   7.480   1.285
21590TIP3    H164647   3.453   7.443   1.260
21590TIP3    H264648   3.327   7.503   1.202
21591TIP3   OH264649   7.645   7.109   1.218
21591TIP3    H164650   7.738   7.131   1.207
21591TIP3    H264651   7.599   7.186   1.185
21592TIP3   OH264652   3.438   0.665   3.667
21592TIP3    H164653   3.452   0.752   3.628
21592TIP3    H264654   3.418   0.683   3.759
21593TIP3   OH264655   1.943   2.545   2.924
21593TIP3    H164656   2.029   2.568   2.887
21593TIP3    H264657   1.928   2.455   2.895
21594TIP3   OH264658   8.162   3.979   2.707
21594TIP3    H164659   8.109   3.928   2.768
21594TIP3    H264660   8.111   3.979   2.625
21595TIP3   OH264661   6.237   0.565   7.605
21595TIP3    H164662   6.318   0.525   7.637
21595TIP3    H264663   6.264   0.616   7.529
21596TIP3   OH264664   0.852   8.637   3.161
21596TIP3    H164665   0.936   8.676   3.183
21596TIP3    H264666   0.873   8.549   3.131
21597TIP3   OH264667   1.103   3.935   6.577
21597TIP3    H164668   1.032   3.905   6.635
21597TIP3    H264669   1.182   3.897   6.615
21598TIP3   OH264670   1.496   0.910   1.576
21598TIP3    H164671   1.467   0.836   1.523
21598TIP3    H264672   1.588   0.921   1.555
21599TIP3   OH264673   4.779   1.700   5.368
21599TIP3    H164674   4.818   1.708   5.281
21599TIP3    H264675   4.854   1.703   5.428
21600TIP3   OH264676   6.913   2.554   2.125
21600TIP3    H164677   6.817   2.550   2.135
21600TIP3    H264678   6.929   2.641   2.088
21601TIP3   OH264679   8.944   1.497   6.474
21601TIP3    H164680   8.977   1.460   6.556
21601TIP3    H264681   8.862   1.450   6.458
21602TIP3   OH264682   4.017   7.032   0.190
21602TIP3    H164683   4.034   7.118   0.152
21602TIP3    H264684   4.065   7.034   0.273
21603TIP3   OH264685   4.654   1.555   6.445
21603TIP3    H164686   4.736   1.546   6.397
21603TIP3    H264687   4.645   1.473   6.493
21604TIP3   OH264688   7.742   7.608   5.566
21604TIP3    H164689   7.650   7.620   5.592
21604TIP3    H264690   7.759   7.515   5.581
21605TIP3   OH264691   7.558   8.810   0.446
21605TIP3    H164692   7.561   8.851   0.532
21605TIP3    H264693   7.519   8.876   0.389
21606TIP3   OH264694   3.243   1.275   0.714
21606TIP3    H164695   3.287   1.269   0.799
21606TIP3    H264696   3.186   1.352   0.723
21607TIP3   OH264697   5.399   4.071   6.257
21607TIP3    H164698   5.456   4.084   6.181
21607TIP3    H264699   5.355   4.155   6.268
21608TIP3   OH264700   5.581   4.041   1.082
21608TIP3    H164701   5.507   4.096   1.107
21608TIP3    H264702   5.542   3.959   1.052
21609TIP3   OH264703   8.613   2.140   1.995
21609TIP3    H164704   8.619   2.044   2.002
21609TIP3    H264705   8.597   2.169   2.084
21610TIP3   OH264706   3.068   8.233   6.329
21610TIP3    H164707   3.051   8.170   6.258
21610TIP3    H264708   3.157   8.214   6.357
21611TIP3   OH264709   8.053   3.809   6.673
21611TIP3    H164710   8.074   3.810   6.766
21611TIP3    H264711   8.009   3.725   6.659
21612TIP3   OH264712   8.385   2.828   7.258
21612TIP3    H164713   8.456   2.833   7.322
21612TIP3    H264714   8.426   2.846   7.174
21613TIP3   OH264715   5.996   1.910   4.877
21613TIP3    H164716   5.988   2.004   4.861
21613TIP3    H264717   5.997   1.871   4.789
21614TIP3   OH264718   1.983   8.492   2.050
21614TIP3    H164719   2.038   8.456   1.980
21614TIP3    H264720   1.980   8.586   2.032
21615TIP3   OH264721   7.325   2.774   0.610
21615TIP3    H164722   7.373   2.763   0.692
21615TIP3    H264723   7.293   2.864   0.613
21616TIP3   OH264724   6.371   3.904   2.289
21616TIP3    H164725   6.445   3.937   2.339
21616TIP3    H264726   6.391   3.927   2.198
21617TIP3   OH264727   3.639   0.252   7.202
21617TIP3    H164728   3.589   0.172   7.220
21617TIP3    H264729   3.624   0.269   7.109
21618TIP3   OH264730   1.294   1.660   4.364
21618TIP3    H164731   1.238   1.738   4.367
21618TIP3    H264732   1.248   1.596   4.417
21619TIP3   OH264733   3.989   0.251   2.323
21619TIP3    H164734   3.993   0.329   2.378
21619TIP3    H264735   4.047   0.271   2.249
21620TIP3   OH264736   2.237   6.554   6.978
21620TIP3    H164737   2.303   6.587   6.917
21620TIP3    H264738   2.186   6.491   6.925
21621TIP3   OH264739   8.873   4.448   7.283
21621TIP3    H164740   8.866   4.415   7.373
21621TIP3    H264741   8.787   4.433   7.245
21622TIP3   OH264742   3.513   2.825   6.853
21622TIP3    H164743   3.605   2.809   6.876
21622TIP3    H264744   3.503   2.920   6.857
21623TIP3   OH264745   2.198   0.974   5.575
21623TIP3    H164746   2.207   0.933   5.489
21623TIP3    H264747   2.200   1.068   5.556
21624TIP3   OH264748   0.867   6.379   6.797
21624TIP3    H164749   0.869   6.471   6.771
21624TIP3    H264750   0.916   6.376   6.879
21625TIP3   OH264751   0.284   5.404   2.328
21625TIP3    H164752   0.222   5.341   2.366
21625TIP3    H264753   0.236   5.442   2.254
21626TIP3   OH264754   1.009   5.714   3.321
21626TIP3    H164755   0.924   5.735   3.281
21626TIP3    H264756   1.071   5.772   3.277
21627TIP3   OH264757   6.652   8.412   1.695
21627TIP3    H164758   6.651   8.495   1.647
21627TIP3    H264759   6.615   8.349   1.633
21628TIP3   OH264760   9.352   0.481   5.997
21628TIP3    H164761   9.329   0.499   6.088
21628TIP3    H264762   9.446   0.463   5.999
21629TIP3   OH264763   1.827   6.124   4.528
21629TIP3    H164764   1.920   6.131   4.551
21629TIP3    H264765   1.802   6.213   4.504
21630TIP3   OH264766   3.564   1.905   3.748
21630TIP3    H164767   3.590   1.979   3.803
21630TIP3    H264768   3.603   1.829   3.790
21631TIP3   OH264769   2.593   2.588   4.614
21631TIP3    H164770   2.626   2.621   4.530
21631TIP3    H264771   2.661   2.528   4.644
21632TIP3   OH264772   8.322   6.739   7.066
21632TIP3    H164773   8.411   6.712   7.088
21632TIP3    H264774   8.324   6.752   6.971
21633TIP3   OH264775   1.706   8.427   3.120
21633TIP3    H164776   1.716   8.376   3.040
21633TIP3    H264777   1.716   8.362   3.190
21634TIP3   OH264778   2.937   6.555   3.656
21634TIP3    H164779   2.954   6.480   3.714
21634TIP3    H264780   2.871   6.606   3.701
21635TIP3   OH264781   5.867   7.291   0.905
21635TIP3    H164782   5.886   7.372   0.858
21635TIP3    H264783   5.885   7.312   0.997
21636TIP3   OH264784   6.218   3.101   2.622
21636TIP3    H164785   6.299   3.055   2.645
21636TIP3    H264786   6.159   3.031   2.593
21637TIP3   OH264787   1.923   6.962   5.931
21637TIP3    H164788   1.898   6.871   5.947
21637TIP3    H264789   1.911   6.974   5.837
21638TIP3   OH264790   8.480   7.640   3.031
21638TIP3    H164791   8.518   7.720   2.994
21638TIP3    H264792   8.479   7.578   2.958
21639TIP3   OH264793   5.859   6.142   0.148
21639TIP3    H164794   5.929   6.083   0.120
21639TIP3    H264795   5.842   6.116   0.239
21640TIP3   OH264796   5.883   6.554   3.287
21640TIP3    H164797   5.848   6.474   3.247
21640TIP3    H264798   5.923   6.601   3.214
21641TIP3   OH264799   4.199   8.559   0.455
21641TIP3    H164800   4.200   8.557   0.359
21641TIP3    H264801   4.172   8.648   0.476
21642TIP3   OH264802   3.877   2.597   3.345
21642TIP3    H164803   3.952   2.653   3.327
21642TIP3    H264804   3.902   2.511   3.311
21643TIP3   OH264805   0.630   7.382   3.121
21643TIP3    H164806   0.622   7.326   3.044
21643TIP3    H264807   0.710   7.352   3.164
21644TIP3   OH264808   6.360   4.859   2.972
21644TIP3    H164809   6.354   4.877   3.066
21644TIP3    H264810   6.324   4.938   2.931
21645TIP3   OH264811   9.229   3.632   0.147
21645TIP3    H164812   9.180   3.560   0.187
21645TIP3    H264813   9.230   3.700   0.215
21646TIP3   OH264814   0.990   1.707   4.106
21646TIP3    H164815   1.078   1.742   4.096
21646TIP3    H264816   0.933   1.772   4.065
21647TIP3   OH264817   1.573   0.713   4.643
21647TIP3    H164818   1.512   0.746   4.577
21647TIP3    H264819   1.597   0.790   4.695
21648TIP3   OH264820   5.321   1.587   2.300
21648TIP3    H164821   5.289   1.500   2.278
21648TIP3    H264822   5.345   1.581   2.393
21649TIP3   OH264823   8.236   1.094   5.097
21649TIP3    H164824   8.247   1.091   5.192
21649TIP3    H264825   8.270   1.010   5.066
21650TIP3   OH264826   7.409   2.787   6.742
21650TIP3    H164827   7.349   2.746   6.681
21650TIP3    H264828   7.496   2.774   6.703
21651TIP3   OH264829   0.006   3.450   4.660
21651TIP3    H164830  -0.039   3.429   4.578
21651TIP3    H264831  -0.039   3.528   4.691
21652TIP3   OH264832   0.058   2.600   5.074
21652TIP3    H164833  -0.028   2.557   5.078
21652TIP3    H264834   0.058   2.660   5.148
21653TIP3   OH264835   3.826   2.259   1.140
21653TIP3    H164836   3.863   2.204   1.072
21653TIP3    H264837   3.826   2.347   1.102
21654TIP3   OH264838   8.785   4.043   5.116
21654TIP3    H164839   8.763   4.014   5.028
21654TIP3    H264840   8.748   3.976   5.173
21655TIP3   OH264841   1.036   6.574   1.697
21655TIP3    H164842   0.979   6.560   1.622
21655TIP3    H264843   1.042   6.489   1.739
21656TIP3   OH264844   9.058   0.856   4.196
21656TIP3    H164845   9.005   0.819   4.125
21656TIP3    H264846   9.116   0.918   4.153
21657TIP3   OH264847   3.452   8.684   6.923
21657TIP3    H164848   3.436   8.739   6.846
21657TIP3    H264849   3.435   8.741   6.998
21658TIP3   OH264850   1.889   3.434   4.185
21658TIP3    H164851   1.852   3.423   4.098
21658TIP3    H264852   1.895   3.529   4.197
21659TIP3   OH264853   7.457   2.239   7.483
21659TIP3    H164854   7.532   2.281   7.441
21659TIP3    H264855   7.489   2.214   7.570
21660TIP3   OH264856   5.256   4.826   0.571
21660TIP3    H164857   5.234   4.877   0.649
21660TIP3    H264858   5.226   4.879   0.498
21661TIP3   OH264859   4.126   4.990   2.947
21661TIP3    H164860   4.129   4.974   2.852
21661TIP3    H264861   4.164   5.077   2.958
21662TIP3   OH264862   9.544   0.232   6.494
21662TIP3    H164863   9.566   0.272   6.578
21662TIP3    H264864   9.474   0.170   6.514
21663TIP3   OH264865   2.726   1.079   1.139
21663TIP3    H164866   2.721   1.164   1.184
21663TIP3    H264867   2.810   1.043   1.168
21664TIP3   OH264868   5.355   6.234   2.518
21664TIP3    H164869   5.375   6.161   2.461
21664TIP3    H264870   5.437   6.284   2.522
21665TIP3   OH264871   9.425   8.364   3.760
21665TIP3    H164872   9.433   8.375   3.665
21665TIP3    H264873   9.420   8.269   3.773
21666TIP3   OH264874   4.564   3.891   2.702
21666TIP3    H164875   4.476   3.893   2.740
21666TIP3    H264876   4.557   3.943   2.621
21667TIP3   OH264877   9.251   3.341   5.798
21667TIP3    H164878   9.297   3.404   5.742
21667TIP3    H264879   9.159   3.367   5.793
21668TIP3   OH264880   1.764   0.767   0.245
21668TIP3    H164881   1.676   0.793   0.273
21668TIP3    H264882   1.776   0.811   0.161
21669TIP3   OH264883   6.266   5.957   5.685
21669TIP3    H164884   6.280   5.867   5.654
21669TIP3    H264885   6.258   5.949   5.780
21670TIP3   OH264886   8.049   2.143   6.073
21670TIP3    H164887   7.999   2.163   5.994
21670TIP3    H264888   8.004   2.192   6.143
21671TIP3   OH264889   2.559   5.318   2.519
21671TIP3    H164890   2.532   5.236   2.477
21671TIP3    H264891   2.531   5.308   2.610
21672TIP3   OH264892   1.581   4.161   0.580
21672TIP3    H164893   1.578   4.168   0.675
21672TIP3    H264894   1.492   4.136   0.555
21673TIP3   OH264895   7.659   5.440   3.009
21673TIP3    H164896   7.753   5.430   2.995
21673TIP3    H264897   7.633   5.509   2.948
21674TIP3   OH264898   1.224   7.159   4.007
21674TIP3    H164899   1.287   7.201   3.948
21674TIP3    H264900   1.277   7.098   4.059
21675TIP3   OH264901   3.331   1.682   4.507
21675TIP3    H164902   3.392   1.733   4.561
21675TIP3    H264903   3.250   1.733   4.508
21676TIP3   OH264904   3.083   0.442   2.922
21676TIP3    H164905   3.116   0.484   3.001
21676TIP3    H264906   2.988   0.442   2.933
21677TIP3   OH264907   6.298   2.437   0.556
21677TIP3    H164908   6.252   2.480   0.628
21677TIP3    H264909   6.229   2.392   0.506
21678TIP3   OH264910   1.853   0.647   3.399
21678TIP3    H164911   1.803   0.666   3.320
21678TIP3    H264912   1.933   0.700   3.390
21679TIP3   OH264913   3.755   4.109   7.168
21679TIP3    H164914   3.798   4.104   7.083
21679TIP3    H264915   3.770   4.023   7.208
21680TIP3   OH264916   9.286   2.611   4.749
21680TIP3    H164917   9.299   2.609   4.654
21680TIP3    H264918   9.369   2.581   4.786
21681TIP3   OH264919   9.478   6.736   6.026
21681TIP3    H164920   9.473   6.735   6.121
21681TIP3    H264921   9.556   6.788   6.006
21682TIP3   OH264922   3.165   3.840   2.847
21682TIP3    H164923   3.101   3.909   2.865
21682TIP3    H264924   3.115   3.772   2.801
21683TIP3   OH264925   3.455   2.620   4.133
21683TIP3    H164926   3.416   2.664   4.057
21683TIP3    H264927   3.521   2.682   4.165
21684TIP3   OH264928   6.400   2.268   1.031
21684TIP3    H164929   6.424   2.175   1.030
21684TIP3    H264930   6.409   2.294   1.122
21685TIP3   OH264931   2.392   0.557   4.347
21685TIP3    H164932   2.372   0.482   4.292
21685TIP3    H264933   2.309   0.579   4.389
21686TIP3   OH264934   3.417   7.270   3.044
21686TIP3    H164935   3.468   7.347   3.070
21686TIP3    H264936   3.397   7.284   2.952
21687TIP3   OH264937   8.043   0.705   4.598
21687TIP3    H164938   8.079   0.616   4.597
21687TIP3    H264939   8.042   0.731   4.506
21688TIP3   OH264940   9.070   7.475   3.783
21688TIP3    H164941   9.093   7.560   3.746
21688TIP3    H264942   9.150   7.423   3.777
21689TIP3   OH264943   2.084   3.045   5.910
21689TIP3    H164944   2.179   3.039   5.920
21689TIP3    H264945   2.070   3.128   5.865
21690TIP3   OH264946   6.657   1.882   0.533
21690TIP3    H164947   6.708   1.933   0.470
21690TIP3    H264948   6.655   1.936   0.612
21691TIP3   OH264949   1.049   4.892   6.226
21691TIP3    H164950   1.056   4.978   6.267
21691TIP3    H264951   1.004   4.838   6.290
21692TIP3   OH264952   1.383   2.427   0.806
21692TIP3    H164953   1.430   2.349   0.837
21692TIP3    H264954   1.448   2.497   0.811
21693TIP3   OH264955   7.222   6.973   4.526
21693TIP3    H164956   7.137   6.929   4.538
21693TIP3    H264957   7.206   7.036   4.456
21694TIP3   OH264958   8.281   4.416   2.226
21694TIP3    H164959   8.281   4.372   2.140
21694TIP3    H264960   8.207   4.477   2.221
21695TIP3   OH264961   3.102   7.996   3.726
21695TIP3    H164962   3.123   8.083   3.759
21695TIP3    H264963   3.083   7.944   3.804
21696TIP3   OH264964   0.292   0.233   7.101
21696TIP3    H164965   0.358   0.301   7.091
21696TIP3    H264966   0.307   0.174   7.027
21697TIP3   OH264967   2.585   3.727   7.572
21697TIP3    H164968   2.602   3.819   7.554
21697TIP3    H264969   2.499   3.726   7.612
21698TIP3   OH264970   2.302   5.554   7.616
21698TIP3    H164971   2.385   5.545   7.663
21698TIP3    H264972   2.304   5.643   7.582
21699TIP3   OH264973   4.339   1.322   4.241
21699TIP3    H164974   4.367   1.408   4.273
21699TIP3    H264975   4.417   1.287   4.198
21700TIP3   OH264976   4.515   6.760   1.624
21700TIP3    H164977   4.455   6.814   1.571
21700TIP3    H264978   4.533   6.684   1.569
21701TIP3   OH264979   5.077   5.452   1.693
21701TIP3    H164980   5.126   5.433   1.613
21701TIP3    H264981   4.987   5.425   1.673
21702TIP3   OH264982   4.308   7.644   7.019
21702TIP3    H164983   4.215   7.663   7.015
21702TIP3    H264984   4.347   7.720   7.062
21703TIP3   OH264985   3.898   5.726   1.684
21703TIP3    H164986   3.973   5.771   1.722
21703TIP3    H264987   3.922   5.634   1.683
21704TIP3   OH264988   7.592   5.286   1.151
21704TIP3    H164989   7.664   5.342   1.180
21704TIP3    H264990   7.561   5.245   1.232
21705TIP3   OH264991   9.224   2.503   0.410
21705TIP3    H164992   9.163   2.575   0.423
21705TIP3    H264993   9.180   2.426   0.446
21706TIP3   OH264994   0.702   0.585   3.031
21706TIP3    H164995   0.666   0.558   3.115
21706TIP3    H264996   0.711   0.680   3.038
21707TIP3   OH264997   5.029   4.571   1.667
21707TIP3    H164998   5.002   4.661   1.646
21707TIP3    H264999   5.039   4.528   1.582
21708TIP3   OH265000   7.058   2.010   4.620
21708TIP3    H165001   7.113   2.055   4.555
21708TIP3    H265002   7.024   2.081   4.675
21709TIP3   OH265003   0.677   3.928   6.605
21709TIP3    H165004   0.639   3.897   6.523
21709TIP3    H265005   0.690   3.849   6.657
21710TIP3   OH265006   0.311   0.740   1.527
21710TIP3    H165007   0.356   0.822   1.548
21710TIP3    H265008   0.362   0.703   1.455
21711TIP3   OH265009   3.570   7.186   2.658
21711TIP3    H165010   3.557   7.281   2.660
21711TIP3    H265011   3.660   7.174   2.690
21712TIP3   OH265012   5.574   6.925   4.714
21712TIP3    H165013   5.624   7.003   4.692
21712TIP3    H265014   5.547   6.889   4.630
21713TIP3   OH265015   5.374   3.127   1.055
21713TIP3    H165016   5.413   3.069   0.991
21713TIP3    H265017   5.439   3.134   1.125
21714TIP3   OH265018   0.530   8.150   7.505
21714TIP3    H165019   0.458   8.088   7.493
21714TIP3    H265020   0.556   8.175   7.416
21715TIP3   OH265021   3.708   8.043   7.603
21715TIP3    H165022   3.676   8.097   7.676
21715TIP3    H265023   3.763   7.977   7.644
21716TIP3   OH265024   4.081   1.011   1.240
21716TIP3    H165025   4.122   1.097   1.235
21716TIP3    H265026   4.134   0.963   1.304
21717TIP3   OH265027   2.534   7.163   7.135
21717TIP3    H165028   2.576   7.079   7.153
21717TIP3    H265029   2.443   7.151   7.163
21718TIP3   OH265030   9.021   7.619   6.715
21718TIP3    H165031   9.006   7.608   6.809
21718TIP3    H265032   8.955   7.683   6.688
21719TIP3   OH265033   8.709   5.516   6.295
21719TIP3    H165034   8.752   5.545   6.375
21719TIP3    H265035   8.706   5.594   6.239
21720TIP3   OH265036   8.827   7.090   6.964
21720TIP3    H165037   8.884   7.039   6.907
21720TIP3    H265038   8.832   7.046   7.048
21721TIP3   OH265039   0.353   8.354   7.645
21721TIP3    H165040   0.370   8.287   7.712
21721TIP3    H265041   0.269   8.393   7.672
21722TIP3   OH265042   9.342   1.692   1.144
21722TIP3    H165043   9.246   1.686   1.138
21722TIP3    H265044   9.373   1.621   1.088
21723TIP3   OH265045   3.147   2.421   5.401
21723TIP3    H165046   3.066   2.394   5.358
21723TIP3    H265047   3.185   2.340   5.434
21724TIP3   OH265048   1.081   1.486   3.232
21724TIP3    H165049   1.164   1.489   3.185
21724TIP3    H265050   1.090   1.551   3.302
21725TIP3   OH265051   2.021   0.323   4.517
21725TIP3    H165052   2.079   0.366   4.579
21725TIP3    H265053   2.051   0.353   4.431
21726TIP3   OH265054   1.629   7.152   7.200
21726TIP3    H165055   1.644   7.157   7.105
21726TIP3    H265056   1.717   7.159   7.238
21727TIP3   OH265057   5.254   3.382   7.720
21727TIP3    H165058   5.268   3.289   7.738
21727TIP3    H265059   5.174   3.385   7.668
21728TIP3   OH265060   3.920   8.470   0.007
21728TIP3    H165061   3.946   8.543  -0.049
21728TIP3    H265062   3.974   8.480   0.085
21729TIP3   OH265063   1.517   1.149   1.718
21729TIP3    H165064   1.595   1.119   1.765
21729TIP3    H265065   1.494   1.076   1.661
21730TIP3   OH265066   1.148   5.584   0.574
21730TIP3    H165067   1.227   5.628   0.606
21730TIP3    H265068   1.173   5.491   0.571
21731TIP3   OH265069   8.416   5.378   1.599
21731TIP3    H165070   8.452   5.448   1.654
21731TIP3    H265071   8.491   5.321   1.581
21732TIP3   OH265072   3.441   3.606   5.913
21732TIP3    H165073   3.378   3.594   5.983
21732TIP3    H265074   3.393   3.650   5.843
21733TIP3   OH265075   2.953   5.255   3.976
21733TIP3    H165076   2.973   5.341   4.014
21733TIP3    H265077   2.970   5.193   4.047
21734TIP3   OH265078   8.724   4.442   4.175
21734TIP3    H165079   8.652   4.382   4.196
21734TIP3    H265080   8.774   4.448   4.256
21735TIP3   OH265081   1.721   4.034   7.569
21735TIP3    H165082   1.811   4.068   7.565
21735TIP3    H265083   1.729   3.952   7.617
21736TIP3   OH265084   8.982   7.315   0.374
21736TIP3    H165085   9.075   7.305   0.394
21736TIP3    H265086   8.960   7.403   0.405
21737TIP3   OH265087   5.610   2.342   5.100
21737TIP3    H165088   5.632   2.267   5.044
21737TIP3    H265089   5.588   2.303   5.184
21738TIP3   OH265090   7.481   1.870   2.617
21738TIP3    H165091   7.491   1.925   2.539
21738TIP3    H265092   7.468   1.933   2.689
21739TIP3   OH265093   0.643   3.334   0.638
21739TIP3    H165094   0.685   3.308   0.720
21739TIP3    H265095   0.580   3.401   0.664
21740TIP3   OH265096   7.891   4.294   2.066
21740TIP3    H165097   7.807   4.282   2.109
21740TIP3    H265098   7.879   4.370   2.009
21741TIP3   OH265099   8.876   1.636   3.467
21741TIP3    H165100   8.800   1.688   3.441
21741TIP3    H265101   8.938   1.646   3.394
21742TIP3   OH265102   4.576   7.118   7.699
21742TIP3    H165103   4.645   7.096   7.637
21742TIP3    H265104   4.538   7.034   7.724
21743TIP3   OH265105   3.236   0.857   5.069
21743TIP3    H165106   3.173   0.876   5.139
21743TIP3    H265107   3.285   0.939   5.059
21744TIP3   OH265108   4.694   3.168   2.492
21744TIP3    H165109   4.750   3.132   2.561
21744TIP3    H265110   4.671   3.092   2.438
21745TIP3   OH265111   2.845   7.561   7.483
21745TIP3    H165112   2.783   7.493   7.510
21745TIP3    H265113   2.803   7.643   7.507
21746TIP3   OH265114   2.926   4.541   7.601
21746TIP3    H165115   2.873   4.470   7.563
21746TIP3    H265116   2.863   4.594   7.650
21747TIP3   OH265117   7.395   2.642   1.282
21747TIP3    H165118   7.480   2.625   1.323
21747TIP3    H265119   7.415   2.699   1.208
21748TIP3   OH265120   2.050   3.286   2.913
21748TIP3    H165121   2.052   3.367   2.965
21748TIP3    H265122   2.039   3.316   2.823
21749TIP3   OH265123   9.208   8.104   0.117
21749TIP3    H165124   9.136   8.059   0.074
21749TIP3    H265125   9.283   8.091   0.059
21750TIP3   OH265126   2.368   1.228   4.383
21750TIP3    H165127   2.361   1.321   4.404
21750TIP3    H265128   2.286   1.190   4.416
21751TIP3   OH265129   9.226   4.539   4.979
21751TIP3    H165130   9.294   4.522   5.044
21751TIP3    H265131   9.144   4.518   5.024
21752TIP3   OH265132   3.692   1.648   1.020
21752TIP3    H165133   3.683   1.674   1.112
21752TIP3    H265134   3.606   1.615   0.996
21753TIP3   OH265135   0.012   8.740   4.284
21753TIP3    H165136   0.039   8.678   4.216
21753TIP3    H265137   0.080   8.734   4.351
21754TIP3   OH265138   1.629   7.118   6.904
21754TIP3    H165139   1.693   7.075   6.848
21754TIP3    H265140   1.630   7.210   6.876
21755TIP3   OH265141   4.654   3.678   7.747
21755TIP3    H165142   4.611   3.706   7.828
21755TIP3    H265143   4.598   3.607   7.714
21756TIP3   OH265144   3.046   6.948   3.694
21756TIP3    H165145   2.983   6.962   3.764
21756TIP3    H265146   2.995   6.910   3.623
21757TIP3   OH265147   0.469   2.533   7.159
21757TIP3    H165148   0.442   2.461   7.102
21757TIP3    H265149   0.389   2.583   7.174
21758TIP3   OH265150   8.541   4.580   0.769
21758TIP3    H165151   8.591   4.609   0.692
21758TIP3    H265152   8.498   4.500   0.741
21759TIP3   OH265153   3.397   7.811   1.692
21759TIP3    H165154   3.358   7.775   1.612
21759TIP3    H265155   3.333   7.875   1.723
21760TIP3   OH265156   1.219   7.037   6.702
21760TIP3    H165157   1.311   7.062   6.690
21760TIP3    H265158   1.169   7.107   6.661
21761TIP3   OH265159   2.643   0.683   5.041
21761TIP3    H165160   2.655   0.591   5.063
21761TIP3    H265161   2.580   0.715   5.105
21762TIP3   OH265162   6.843   4.036   3.837
21762TIP3    H165163   6.913   4.097   3.864
21762TIP3    H265164   6.781   4.091   3.789
21763TIP3   OH265165   2.727   5.121   1.022
21763TIP3    H165166   2.632   5.114   1.026
21763TIP3    H265167   2.755   5.037   0.985
21764TIP3   OH265168   8.748   1.776   3.063
21764TIP3    H165169   8.833   1.819   3.051
21764TIP3    H265170   8.769   1.687   3.090
21765TIP3   OH265171   5.969   3.940   3.859
21765TIP3    H165172   5.990   3.997   3.933
21765TIP3    H265173   6.038   3.873   3.860
21766TIP3   OH265174   5.053   0.401   2.831
21766TIP3    H165175   5.135   0.378   2.874
21766TIP3    H265176   4.991   0.412   2.903
21767TIP3   OH265177   0.149   8.895   2.201
21767TIP3    H165178   0.224   8.844   2.229
21767TIP3    H265179   0.178   8.938   2.120
21768TIP3   OH265180   2.664   2.159   0.981
21768TIP3    H165181   2.743   2.186   0.934
21768TIP3    H265182   2.657   2.064   0.965
21769TIP3   OH265183   3.627   6.620   4.093
21769TIP3    H165184   3.663   6.663   4.170
21769TIP3    H265185   3.686   6.547   4.077
21770TIP3   OH265186   3.072   2.010   0.116
21770TIP3    H165187   3.002   1.960   0.158
21770TIP3    H265188   3.096   1.958   0.040
21771TIP3   OH265189   8.873   2.307   2.786
21771TIP3    H165190   8.959   2.327   2.750
21771TIP3    H265191   8.856   2.217   2.759
21772TIP3   OH265192   2.289   8.349   3.685
21772TIP3    H165193   2.212   8.405   3.672
21772TIP3    H265194   2.296   8.298   3.604
21773TIP3   OH265195   0.518   2.988   5.994
21773TIP3    H165196   0.431   3.012   5.963
21773TIP3    H265197   0.506   2.965   6.086
21774TIP3   OH265198   7.458   2.915   0.219
21774TIP3    H165199   7.441   2.992   0.165
21774TIP3    H265200   7.416   2.935   0.303
21775TIP3   OH265201   2.365   0.835   4.165
21775TIP3    H165202   2.407   0.766   4.216
21775TIP3    H265203   2.437   0.893   4.140
21776TIP3   OH265204   1.813   1.435   3.515
21776TIP3    H165205   1.895   1.385   3.517
21776TIP3    H265206   1.755   1.389   3.575
21777TIP3   OH265207   7.730   2.363   6.997
21777TIP3    H165208   7.758   2.417   7.070
21777TIP3    H265209   7.810   2.345   6.948
21778TIP3   OH265210   0.793   3.634   3.439
21778TIP3    H165211   0.801   3.582   3.359
21778TIP3    H265212   0.738   3.581   3.497
21779TIP3   OH265213   7.703   1.146   4.616
21779TIP3    H165214   7.783   1.186   4.651
21779TIP3    H265215   7.632   1.187   4.666
21780TIP3   OH265216   6.636   0.830   6.797
21780TIP3    H165217   6.646   0.877   6.714
21780TIP3    H265218   6.614   0.740   6.771
21781TIP3   OH265219   1.268   5.362   6.093
21781TIP3    H165220   1.341   5.366   6.032
21781TIP3    H265221   1.305   5.327   6.174
21782TIP3   OH265222   0.345   4.118   3.772
21782TIP3    H165223   0.273   4.157   3.723
21782TIP3    H265224   0.412   4.185   3.774
21783TIP3   OH265225   0.791   3.299   5.587
21783TIP3    H165226   0.877   3.263   5.564
21783TIP3    H265227   0.762   3.344   5.508
21784TIP3   OH265228   7.953   3.561   6.599
21784TIP3    H165229   7.883   3.519   6.550
21784TIP3    H265230   8.027   3.501   6.593
21785TIP3   OH265231   8.407   7.977   4.722
21785TIP3    H165232   8.503   7.987   4.723
21785TIP3    H265233   8.380   8.015   4.639
21786TIP3   OH265234   4.876   8.046   5.450
21786TIP3    H165235   4.847   7.956   5.436
21786TIP3    H265236   4.796   8.098   5.445
21787TIP3   OH265237   5.352   1.807   2.909
21787TIP3    H165238   5.431   1.766   2.874
21787TIP3    H265239   5.384   1.883   2.958
21788TIP3   OH265240   6.058   7.312   3.128
21788TIP3    H165241   6.101   7.363   3.059
21788TIP3    H265242   6.045   7.375   3.199
21789TIP3   OH265243   3.461   1.887   6.934
21789TIP3    H165244   3.485   1.800   6.904
21789TIP3    H265245   3.473   1.885   7.029
21790TIP3   OH265246   0.311   3.109   5.863
21790TIP3    H165247   0.333   3.186   5.811
21790TIP3    H265248   0.328   3.035   5.804
21791TIP3   OH265249   3.923   6.320   2.602
21791TIP3    H165250   3.857   6.388   2.612
21791TIP3    H265251   3.919   6.271   2.684
21792TIP3   OH265252   4.675   2.103   1.375
21792TIP3    H165253   4.698   2.125   1.465
21792TIP3    H265254   4.613   2.171   1.348
21793TIP3   OH265255   4.317   3.141   4.985
21793TIP3    H165256   4.243   3.091   5.018
21793TIP3    H265257   4.279   3.208   4.930
21794TIP3   OH265258   9.037   8.765   2.195
21794TIP3    H165259   9.082   8.844   2.166
21794TIP3    H265260   9.059   8.698   2.130
21795TIP3   OH265261   7.507   4.233   7.426
21795TIP3    H165262   7.557   4.153   7.410
21795TIP3    H265263   7.539   4.265   7.510
21796TIP3   OH265264   0.881   0.914   7.486
21796TIP3    H165265   0.831   0.975   7.432
21796TIP3    H265266   0.926   0.969   7.550
21797TIP3   OH265267   9.231   8.468   2.942
21797TIP3    H165268   9.292   8.402   2.908
21797TIP3    H265269   9.145   8.427   2.934
21798TIP3   OH265270   8.330   4.007   0.846
21798TIP3    H165271   8.238   4.022   0.825
21798TIP3    H265272   8.338   3.913   0.858
21799TIP3   OH265273   8.469   7.755   4.297
21799TIP3    H165274   8.474   7.668   4.337
21799TIP3    H265275   8.538   7.754   4.230
21800TIP3   OH265276   5.267   6.131   7.344
21800TIP3    H165277   5.266   6.062   7.411
21800TIP3    H265278   5.359   6.140   7.320
21801TIP3   OH265279   4.646   6.004   2.479
21801TIP3    H165280   4.665   6.022   2.387
21801TIP3    H265281   4.721   5.953   2.509
21802TIP3   OH265282   3.065   0.498   0.479
21802TIP3    H165283   3.093   0.544   0.400
21802TIP3    H265284   3.029   0.566   0.535
21803TIP3   OH265285   0.209   1.988   3.643
21803TIP3    H165286   0.118   1.997   3.617
21803TIP3    H265287   0.255   2.057   3.595
21804TIP3   OH265288   3.669   4.383   3.457
21804TIP3    H165289   3.639   4.396   3.547
21804TIP3    H265290   3.731   4.454   3.442
21805TIP3   OH265291   6.318   0.031   4.818
21805TIP3    H165292   6.343   0.081   4.741
21805TIP3    H265293   6.337   0.089   4.892
21806TIP3   OH265294   1.240   8.576   7.339
21806TIP3    H165295   1.184   8.550   7.412
21806TIP3    H265296   1.239   8.500   7.280
21807TIP3   OH265297   6.382   0.122   3.014
21807TIP3    H165298   6.363   0.193   2.952
21807TIP3    H265299   6.428   0.057   2.961
21808TIP3   OH265300   8.441   3.206   4.339
21808TIP3    H165301   8.502   3.151   4.290
21808TIP3    H265302   8.486   3.291   4.347
21809TIP3   OH265303   3.486   5.062   2.432
21809TIP3    H165304   3.541   5.004   2.379
21809TIP3    H265305   3.546   5.100   2.496
21810TIP3   OH265306   5.267   1.069   5.893
21810TIP3    H165307   5.311   1.134   5.947
21810TIP3    H265308   5.298   0.985   5.927
21811TIP3   OH265309   4.590   2.160   2.291
21811TIP3    H165310   4.571   2.227   2.225
21811TIP3    H265311   4.559   2.198   2.373
21812TIP3   OH265312   4.623   0.997   7.697
21812TIP3    H165313   4.653   0.906   7.706
21812TIP3    H265314   4.584   1.018   7.782
21813TIP3   OH265315   3.662   0.027   0.597
21813TIP3    H165316   3.699   0.110   0.626
21813TIP3    H265317   3.701   0.012   0.511
21814TIP3   OH265318   6.999   4.622   5.085
21814TIP3    H165319   6.943   4.570   5.143
21814TIP3    H265320   7.080   4.635   5.134
21815TIP3   OH265321   5.075   0.951   4.775
21815TIP3    H165322   5.119   0.959   4.690
21815TIP3    H265323   4.993   0.999   4.764
21816TIP3   OH265324   6.520   6.607   5.606
21816TIP3    H165325   6.441   6.661   5.608
21816TIP3    H265326   6.500   6.533   5.664
21817TIP3   OH265327   9.089   7.876   6.722
21817TIP3    H165328   9.174   7.910   6.752
21817TIP3    H265329   9.110   7.792   6.682
21818TIP3   OH265330   5.562   6.716   7.095
21818TIP3    H165331   5.468   6.732   7.096
21818TIP3    H265332   5.602   6.802   7.107
21819TIP3   OH265333   2.794   2.884   7.660
21819TIP3    H165334   2.807   2.967   7.705
21819TIP3    H265335   2.841   2.895   7.577
21820TIP3   OH265336   5.839   2.338   0.942
21820TIP3    H165337   5.894   2.301   1.011
21820TIP3    H265338   5.750   2.335   0.978
21821TIP3   OH265339   7.284   6.828   5.509
21821TIP3    H165340   7.370   6.821   5.552
21821TIP3    H265341   7.229   6.873   5.573
21822TIP3   OH265342   2.792   2.994   5.605
21822TIP3    H165343   2.703   3.030   5.602
21822TIP3    H265344   2.834   3.028   5.525
21823TIP3   OH265345   5.451   0.226   7.105
21823TIP3    H165346   5.430   0.134   7.120
21823TIP3    H265347   5.494   0.255   7.185
21824TIP3   OH265348   2.311   4.645   7.157
21824TIP3    H165349   2.250   4.717   7.173
21824TIP3    H265350   2.393   4.688   7.132
21825TIP3   OH265351   9.378   3.219   6.486
21825TIP3    H165352   9.468   3.233   6.457
21825TIP3    H265353   9.325   3.263   6.420
21826TIP3   OH265354   7.082   8.683   6.585
21826TIP3    H165355   7.126   8.623   6.645
21826TIP3    H265356   7.111   8.656   6.498
21827TIP3   OH265357   5.384   6.625   1.805
21827TIP3    H165358   5.351   6.535   1.799
21827TIP3    H265359   5.471   6.615   1.843
21828TIP3   OH265360   0.740   0.096   1.347
21828TIP3    H165361   0.667   0.155   1.369
21828TIP3    H265362   0.818   0.143   1.377
21829TIP3   OH265363   3.256   1.064   2.178
21829TIP3    H165364   3.289   1.154   2.187
21829TIP3    H265365   3.171   1.074   2.136
21830TIP3   OH265366   8.350   6.185   0.453
21830TIP3    H165367   8.433   6.147   0.425
21830TIP3    H265368   8.339   6.155   0.543
21831TIP3   OH265369   3.153   7.870   5.053
21831TIP3    H165370   3.101   7.944   5.081
21831TIP3    H265371   3.140   7.865   4.959
21832TIP3   OH265372   3.546   4.528   2.698
21832TIP3    H165373   3.605   4.599   2.722
21832TIP3    H265374   3.479   4.570   2.643
21833TIP3   OH265375   5.050   2.891   2.956
21833TIP3    H165376   4.955   2.900   2.970
21833TIP3    H265377   5.065   2.796   2.956
21834TIP3   OH265378   5.851   7.460   2.745
21834TIP3    H165379   5.931   7.409   2.762
21834TIP3    H265380   5.797   7.403   2.690
21835TIP3   OH265381   6.592   0.004   7.789
21835TIP3    H165382   6.599   0.035   7.698
21835TIP3    H265383   6.506   0.033   7.818
21836TIP3   OH265384   8.942   8.522   3.211
21836TIP3    H165385   8.992   8.450   3.171
21836TIP3    H265386   8.930   8.495   3.302
21837TIP3   OH265387   6.517   7.954   2.198
21837TIP3    H165388   6.528   7.877   2.254
21837TIP3    H265389   6.591   8.010   2.219
21838TIP3   OH265390   5.156   3.595   7.104
21838TIP3    H165391   5.163   3.531   7.032
21838TIP3    H265392   5.244   3.596   7.143
21839TIP3   OH265393   5.316   7.953   1.778
21839TIP3    H165394   5.287   8.003   1.702
21839TIP3    H265395   5.246   7.889   1.793
21840TIP3   OH265396   7.414   0.528   6.894
21840TIP3    H165397   7.341   0.590   6.891
21840TIP3    H265398   7.404   0.475   6.815
21841TIP3   OH265399   8.777   0.970   6.692
21841TIP3    H165400   8.822   1.000   6.613
21841TIP3    H265401   8.791   1.041   6.756
21842TIP3   OH265402   8.477   3.270   1.131
21842TIP3    H165403   8.533   3.229   1.064
21842TIP3    H265404   8.482   3.363   1.113
21843TIP3   OH265405   5.026   1.670   6.538
21843TIP3    H165406   4.979   1.746   6.570
21843TIP3    H265407   4.969   1.596   6.557
21844TIP3   OH265408   7.448   6.995   3.689
21844TIP3    H165409   7.512   6.928   3.714
21844TIP3    H265410   7.447   6.992   3.593
21845TIP3   OH265411   5.989   5.862   7.449
21845TIP3    H165412   5.986   5.896   7.359
21845TIP3    H265413   6.078   5.828   7.459
21846TIP3   OH265414   8.037   0.982   4.334
21846TIP3    H165415   7.954   1.027   4.350
21846TIP3    H265416   8.012   0.892   4.316
21847TIP3   OH265417   9.076   4.408   6.295
21847TIP3    H165418   9.013   4.352   6.249
21847TIP3    H265419   9.089   4.365   6.380
21848TIP3   OH265420   8.701   3.884   2.169
21848TIP3    H165421   8.611   3.880   2.201
21848TIP3    H265422   8.692   3.891   2.074
21849TIP3   OH265423   8.336   4.542   5.206
21849TIP3    H165424   8.400   4.504   5.266
21849TIP3    H265425   8.259   4.487   5.215
21850TIP3   OH265426   4.986   2.796   4.049
21850TIP3    H165427   4.945   2.875   4.014
21850TIP3    H265428   4.937   2.776   4.129
21851TIP3   OH265429   7.224   3.012   0.623
21851TIP3    H165430   7.243   3.103   0.646
21851TIP3    H265431   7.159   2.984   0.687
21852TIP3   OH265432   9.247   4.798   6.586
21852TIP3    H165433   9.321   4.793   6.526
21852TIP3    H265434   9.221   4.706   6.598
21853TIP3   OH265435   2.253   2.745   7.574
21853TIP3    H165436   2.241   2.664   7.524
21853TIP3    H265437   2.347   2.749   7.592
21854TIP3   OH265438   5.941   2.579   2.252
21854TIP3    H165439   6.036   2.570   2.259
21854TIP3    H265440   5.914   2.506   2.196
21855TIP3   OH265441   2.251   8.741   5.204
21855TIP3    H165442   2.315   8.700   5.146
21855TIP3    H265443   2.264   8.698   5.288
21856TIP3   OH265444   8.374   2.006   0.131
21856TIP3    H165445   8.308   1.952   0.088
21856TIP3    H265446   8.424   1.945   0.186
21857TIP3   OH265447   2.014   5.740   2.395
21857TIP3    H165448   2.085   5.686   2.430
21857TIP3    H265449   1.964   5.680   2.339
21858TIP3   OH265450   1.485   2.631   5.364
21858TIP3    H165451   1.569   2.671   5.340
21858TIP3    H265452   1.441   2.698   5.416
21859TIP3   OH265453   2.495   2.862   2.542
21859TIP3    H165454   2.512   2.913   2.620
21859TIP3    H265455   2.409   2.892   2.512
21860TIP3   OH265456   9.090   3.098   0.027
21860TIP3    H165457   9.153   3.035  -0.008
21860TIP3    H265458   9.019   3.044   0.061
21861TIP3   OH265459   1.993   4.935   3.691
21861TIP3    H165460   1.978   4.866   3.757
21861TIP3    H265461   2.076   4.975   3.717
21862TIP3   OH265462   1.105   8.225   2.891
21862TIP3    H165463   1.033   8.165   2.872
21862TIP3    H265464   1.174   8.169   2.928
21863TIP3   OH265465   5.128   4.349   4.338
21863TIP3    H165466   5.167   4.263   4.356
21863TIP3    H265467   5.172   4.408   4.400
21864TIP3   OH265468   3.512   8.797   6.268
21864TIP3    H165469   3.448   8.727   6.277
21864TIP3    H265470   3.463   8.878   6.282
21865TIP3   OH265471   5.573   5.529   5.694
21865TIP3    H165472   5.600   5.540   5.785
21865TIP3    H265473   5.642   5.571   5.643
21866TIP3   OH265474   7.299   4.805   1.041
21866TIP3    H165475   7.257   4.744   1.101
21866TIP3    H265476   7.249   4.799   0.960
21867TIP3   OH265477   1.178   7.381   2.880
21867TIP3    H165478   1.165   7.427   2.797
21867TIP3    H265479   1.212   7.447   2.939
21868TIP3   OH265480   4.072   3.906   0.216
21868TIP3    H165481   4.089   3.838   0.151
21868TIP3    H265482   4.136   3.975   0.197
21869TIP3   OH265483   7.083   7.874   6.340
21869TIP3    H165484   7.056   7.937   6.406
21869TIP3    H265485   7.141   7.814   6.387
21870TIP3   OH265486   4.994   0.947   1.762
21870TIP3    H165487   5.051   0.918   1.691
21870TIP3    H265488   5.052   0.954   1.838
21871TIP3   OH265489   8.182   5.434   3.520
21871TIP3    H165490   8.113   5.369   3.533
21871TIP3    H265491   8.239   5.396   3.453
21872TIP3   OH265492   8.941   6.197   2.092
21872TIP3    H165493   8.895   6.188   2.176
21872TIP3    H265494   9.018   6.249   2.112
21873TIP3   OH265495   3.949   5.802   0.726
21873TIP3    H165496   3.882   5.860   0.690
21873TIP3    H265497   3.910   5.767   0.806
21874TIP3   OH265498   0.104   4.584   1.715
21874TIP3    H165499   0.026   4.534   1.690
21874TIP3    H265500   0.073   4.646   1.782
21875TIP3   OH265501   7.160   1.634   6.661
21875TIP3    H165502   7.241   1.584   6.645
21875TIP3    H265503   7.188   1.708   6.714
21876TIP3   OH265504   0.791   0.388   5.410
21876TIP3    H165505   0.744   0.393   5.493
21876TIP3    H265506   0.883   0.377   5.435
21877TIP3   OH265507   5.246   8.312   6.310
21877TIP3    H165508   5.233   8.405   6.327
21877TIP3    H265509   5.223   8.269   6.393
21878TIP3   OH265510   0.737   3.096   4.476
21878TIP3    H165511   0.690   3.077   4.557
21878TIP3    H265512   0.686   3.166   4.434
21879TIP3   OH265513   0.408   8.264   7.158
21879TIP3    H165514   0.370   8.247   7.072
21879TIP3    H265515   0.495   8.224   7.154
21880TIP3   OH265516   0.220   8.969   0.649
21880TIP3    H165517   0.218   9.016   0.732
21880TIP3    H265518   0.301   8.997   0.607
21881TIP3   OH265519   2.237   2.619   4.700
21881TIP3    H165520   2.150   2.606   4.662
21881TIP3    H265521   2.283   2.536   4.685
21882TIP3   OH265522   9.418   8.665   1.373
21882TIP3    H165523   9.380   8.631   1.292
21882TIP3    H265524   9.360   8.737   1.398
21883TIP3   OH265525   4.839   4.881   0.199
21883TIP3    H165526   4.918   4.827   0.202
21883TIP3    H265527   4.776   4.828   0.149
21884TIP3   OH265528   9.360   4.985   5.546
21884TIP3    H165529   9.383   5.015   5.458
21884TIP3    H265530   9.280   4.934   5.534
21885TIP3   OH265531   7.999   6.623   6.460
21885TIP3    H165532   8.065   6.579   6.407
21885TIP3    H265533   7.952   6.553   6.505
21886TIP3   OH265534   6.131   1.558   0.189
21886TIP3    H165535   6.199   1.536   0.252
21886TIP3    H265536   6.176   1.565   0.105
21887TIP3   OH265537   1.340   6.478   2.269
21887TIP3    H165538   1.420   6.520   2.302
21887TIP3    H265539   1.360   6.456   2.178
21888TIP3   OH265540   2.193   4.423   1.396
21888TIP3    H165541   2.255   4.351   1.385
21888TIP3    H265542   2.243   4.501   1.373
21889TIP3   OH265543   3.889   4.062   1.969
21889TIP3    H165544   3.984   4.050   1.960
21889TIP3    H265545   3.867   4.021   2.052
21890TIP3   OH265546   0.146   7.511   3.863
21890TIP3    H165547   0.053   7.491   3.851
21890TIP3    H265548   0.156   7.522   3.957
21891TIP3   OH265549   3.149   7.832   2.313
21891TIP3    H165550   3.083   7.807   2.249
21891TIP3    H265551   3.100   7.859   2.390
21892TIP3   OH265552   4.252   1.925   1.997
21892TIP3    H165553   4.188   1.867   2.038
21892TIP3    H265554   4.295   1.969   2.070
21893TIP3   OH265555   7.826   0.793   0.438
21893TIP3    H165556   7.815   0.790   0.343
21893TIP3    H265557   7.804   0.884   0.461
21894TIP3   OH265558   7.558   1.345   2.542
21894TIP3    H165559   7.525   1.434   2.533
21894TIP3    H265560   7.630   1.339   2.479
21895TIP3   OH265561   6.161   2.274   2.439
21895TIP3    H165562   6.113   2.222   2.375
21895TIP3    H265563   6.233   2.217   2.467
21896TIP3   OH265564   7.642   5.327   0.700
21896TIP3    H165565   7.669   5.296   0.787
21896TIP3    H265566   7.694   5.275   0.639
21897TIP3   OH265567   1.783   5.071   6.681
21897TIP3    H165568   1.827   5.143   6.636
21897TIP3    H265569   1.722   5.035   6.616
21898TIP3   OH265570   1.101   6.505   6.519
21898TIP3    H165571   1.095   6.430   6.579
21898TIP3    H265572   1.058   6.475   6.439
21899TIP3   OH265573   8.012   6.707   5.298
21899TIP3    H165574   7.985   6.783   5.245
21899TIP3    H265575   7.940   6.693   5.359
21900TIP3   OH265576   2.952   8.424   6.072
21900TIP3    H165577   2.968   8.517   6.058
21900TIP3    H265578   2.944   8.414   6.167
21901TIP3   OH265579   4.598   2.836   2.131
21901TIP3    H165580   4.650   2.885   2.067
21901TIP3    H265581   4.617   2.744   2.112
21902TIP3   OH265582   2.319   9.009   5.551
21902TIP3    H165583   2.352   9.090   5.590
21902TIP3    H265584   2.318   8.946   5.623
21903TIP3   OH265585   5.432   0.000   0.353
21903TIP3    H165586   5.503   0.025   0.293
21903TIP3    H265587   5.357   0.052   0.323
21904TIP3   OH265588   8.023   6.316   5.683
21904TIP3    H165589   8.087   6.247   5.701
21904TIP3    H265590   7.949   6.295   5.740
21905TIP3   OH265591   6.262   6.397   4.819
21905TIP3    H165592   6.263   6.303   4.800
21905TIP3    H265593   6.313   6.406   4.900
21906TIP3   OH265594   3.948   7.930   1.905
21906TIP3    H165595   3.893   8.004   1.881
21906TIP3    H265596   3.923   7.861   1.844
21907TIP3   OH265597   0.045   1.976   4.023
21907TIP3    H165598   0.030   1.898   3.971
21907TIP3    H265599   0.120   1.954   4.078
21908TIP3   OH265600   7.562   8.282   7.619
21908TIP3    H165601   7.597   8.331   7.693
21908TIP3    H265602   7.536   8.350   7.556
21909TIP3   OH265603   8.143   4.967   7.478
21909TIP3    H165604   8.087   4.892   7.497
21909TIP3    H265605   8.157   5.008   7.564
21910TIP3   OH265606   6.499   0.783   5.246
21910TIP3    H165607   6.417   0.803   5.291
21910TIP3    H265608   6.472   0.750   5.160
21911TIP3   OH265609   4.353   7.540   0.470
21911TIP3    H165610   4.333   7.547   0.376
21911TIP3    H265611   4.310   7.616   0.509
21912TIP3   OH265612   4.078   5.399   3.439
21912TIP3    H165613   4.059   5.369   3.528
21912TIP3    H265614   3.991   5.408   3.398
21913TIP3   OH265615   7.924   3.832   6.341
21913TIP3    H165616   7.925   3.763   6.407
21913TIP3    H265617   7.874   3.903   6.382
21914TIP3   OH265618   3.196   6.774   0.335
21914TIP3    H165619   3.235   6.802   0.417
21914TIP3    H265620   3.270   6.758   0.277
21915TIP3   OH265621   5.979   1.115   6.768
21915TIP3    H165622   6.027   1.101   6.686
21915TIP3    H265623   5.896   1.068   6.756
21916TIP3   OH265624   1.917   3.376   0.789
21916TIP3    H165625   1.982   3.342   0.851
21916TIP3    H265626   1.871   3.298   0.759
21917TIP3   OH265627   5.116   7.973   3.182
21917TIP3    H165628   5.180   7.928   3.237
21917TIP3    H265629   5.168   8.030   3.126
21918TIP3   OH265630   0.891   1.155   4.146
21918TIP3    H165631   0.835   1.184   4.218
21918TIP3    H265632   0.944   1.231   4.125
21919TIP3   OH265633   8.570   1.290   5.237
21919TIP3    H165634   8.582   1.237   5.158
21919TIP3    H265635   8.516   1.236   5.295
21920TIP3   OH265636   9.470   5.196   1.726
21920TIP3    H165637   9.414   5.162   1.656
21920TIP3    H265638   9.431   5.160   1.806
21921TIP3   OH265639   6.364   4.502   3.012
21921TIP3    H165640   6.366   4.427   3.071
21921TIP3    H265641   6.338   4.576   3.067
21922TIP3   OH265642   8.067   8.063   6.332
21922TIP3    H165643   7.993   8.022   6.377
21922TIP3    H265644   8.055   8.157   6.345
21923TIP3   OH265645   3.120   4.565   5.292
21923TIP3    H165646   3.071   4.503   5.345
21923TIP3    H265647   3.211   4.540   5.302
21924TIP3   OH265648   0.241   8.598   7.337
21924TIP3    H165649   0.188   8.668   7.299
21924TIP3    H265650   0.216   8.520   7.288
21925TIP3   OH265651   6.486   8.974   6.882
21925TIP3    H165652   6.405   8.972   6.934
21925TIP3    H265653   6.474   8.903   6.818
21926TIP3   OH265654   4.520   5.171   4.975
21926TIP3    H165655   4.489   5.189   4.887
21926TIP3    H265656   4.589   5.105   4.963
21927TIP3   OH265657   9.455   6.768   5.680
21927TIP3    H165658   9.536   6.818   5.671
21927TIP3    H265659   9.479   6.678   5.656
21928TIP3   OH265660   1.224   6.046   7.624
21928TIP3    H165661   1.191   5.989   7.694
21928TIP3    H265662   1.268   6.117   7.671
21929TIP3   OH265663   1.956   5.542   6.359
21929TIP3    H165664   2.048   5.524   6.378
21929TIP3    H265665   1.956   5.630   6.320
21930TIP3   OH265666   9.100   0.206   1.454
21930TIP3    H165667   9.058   0.254   1.382
21930TIP3    H265668   9.094   0.265   1.529
21931TIP3   OH265669   1.233   1.088   5.853
21931TIP3    H165670   1.314   1.100   5.804
21931TIP3    H265671   1.261   1.051   5.937
21932TIP3   OH265672   7.415   8.458   3.283
21932TIP3    H165673   7.323   8.436   3.267
21932TIP3    H265674   7.433   8.530   3.223
21933TIP3   OH265675   7.530   7.146   4.404
21933TIP3    H165676   7.591   7.207   4.362
21933TIP3    H265677   7.444   7.178   4.380
21934TIP3   OH265678   1.293   1.171   4.171
21934TIP3    H165679   1.245   1.150   4.251
21934TIP3    H265680   1.292   1.090   4.120
21935TIP3   OH265681   5.094   1.370   6.393
21935TIP3    H165682   5.171   1.406   6.436
21935TIP3    H265683   5.022   1.389   6.453
21936TIP3   OH265684   8.631   6.388   3.500
21936TIP3    H165685   8.640   6.425   3.587
21936TIP3    H265686   8.574   6.449   3.453
21937TIP3   OH265687   1.858   5.906   3.780
21937TIP3    H165688   1.763   5.905   3.774
21937TIP3    H265689   1.878   5.992   3.818
21938TIP3   OH265690   9.517   3.921   7.773
21938TIP3    H165691   9.516   3.958   7.862
21938TIP3    H265692   9.532   3.997   7.716
21939TIP3   OH265693   5.612   7.322   3.849
21939TIP3    H165694   5.582   7.366   3.929
21939TIP3    H265695   5.652   7.392   3.797
21940TIP3   OH265696   6.531   2.484   2.718
21940TIP3    H165697   6.486   2.436   2.788
21940TIP3    H265698   6.581   2.551   2.764
21941TIP3   OH265699   8.245   5.805   0.371
21941TIP3    H165700   8.202   5.890   0.364
21941TIP3    H265701   8.195   5.759   0.439
21942TIP3   OH265702   2.455   5.140   7.433
21942TIP3    H165703   2.464   5.192   7.513
21942TIP3    H265704   2.384   5.079   7.452
21943TIP3   OH265705   2.841   6.209   6.393
21943TIP3    H165706   2.745   6.207   6.386
21943TIP3    H265707   2.870   6.138   6.334
21944TIP3   OH265708   9.177   2.562   5.160
21944TIP3    H165709   9.258   2.543   5.112
21944TIP3    H265710   9.207   2.582   5.249
21945TIP3   OH265711   1.709   0.579   0.968
21945TIP3    H165712   1.671   0.647   0.912
21945TIP3    H265713   1.744   0.514   0.907
21946TIP3   OH265714   3.472   5.559   0.419
21946TIP3    H165715   3.434   5.506   0.349
21946TIP3    H265716   3.519   5.628   0.374
21947TIP3   OH265717   3.226   4.431   0.162
21947TIP3    H165718   3.320   4.418   0.152
21947TIP3    H265719   3.213   4.444   0.256
21948TIP3   OH265720   7.551   8.739   7.525
21948TIP3    H165721   7.590   8.824   7.508
21948TIP3    H265722   7.601   8.678   7.471
21949TIP3   OH265723   5.947   8.239   3.086
21949TIP3    H165724   5.855   8.234   3.111
21949TIP3    H265725   5.992   8.183   3.149
21950TIP3   OH265726   5.636   7.496   1.551
21950TIP3    H165727   5.553   7.519   1.593
21950TIP3    H265728   5.656   7.572   1.496
21951TIP3   OH265729   2.284   8.990   7.178
21951TIP3    H165730   2.266   9.010   7.269
21951TIP3    H265731   2.309   8.898   7.178
21952TIP3   OH265732   1.441   3.880   4.511
21952TIP3    H165733   1.360   3.837   4.538
21952TIP3    H265734   1.461   3.943   4.581
21953TIP3   OH265735   1.412   0.869   5.200
21953TIP3    H165736   1.497   0.843   5.165
21953TIP3    H265737   1.426   0.958   5.233
21954TIP3   OH265738   2.835   2.296   4.969
21954TIP3    H165739   2.763   2.241   5.001
21954TIP3    H265740   2.906   2.234   4.951
21955TIP3   OH265741   0.617   4.896   6.030
21955TIP3    H165742   0.663   4.980   6.038
21955TIP3    H265743   0.597   4.871   6.120
21956TIP3   OH265744   7.349   1.752   4.319
21956TIP3    H165745   7.318   1.842   4.310
21956TIP3    H265746   7.340   1.715   4.232
21957TIP3   OH265747   5.195   8.525   6.704
21957TIP3    H165748   5.220   8.436   6.729
21957TIP3    H265749   5.255   8.582   6.753
21958TIP3   OH265750   9.155   3.580   0.718
21958TIP3    H165751   9.234   3.561   0.667
21958TIP3    H265752   9.098   3.627   0.657
21959TIP3   OH265753   4.344   7.667   5.428
21959TIP3    H165754   4.405   7.728   5.385
21959TIP3    H265755   4.333   7.596   5.364
21960TIP3   OH265756   1.283   1.400   1.152
21960TIP3    H165757   1.222   1.364   1.217
21960TIP3    H265758   1.366   1.356   1.171
21961TIP3   OH265759   5.844   7.554   0.855
21961TIP3    H165760   5.847   7.606   0.935
21961TIP3    H265761   5.782   7.601   0.799
21962TIP3   OH265762   4.008   3.273   0.113
21962TIP3    H165763   3.952   3.224   0.052
21962TIP3    H265764   4.028   3.210   0.182
21963TIP3   OH265765   7.697   7.697   0.867
21963TIP3    H165766   7.746   7.616   0.854
21963TIP3    H265767   7.698   7.710   0.962
21964TIP3   OH265768   6.873   4.801   7.759
21964TIP3    H165769   6.965   4.775   7.764
21964TIP3    H265770   6.826   4.733   7.806
21965TIP3   OH265771   6.329   4.172   7.055
21965TIP3    H165772   6.421   4.145   7.058
21965TIP3    H265773   6.332   4.267   7.049
21966TIP3   OH265774   3.703   4.272   4.462
21966TIP3    H165775   3.722   4.366   4.463
21966TIP3    H265776   3.615   4.265   4.424
21967TIP3   OH265777   7.035   1.094   3.850
21967TIP3    H165778   7.078   1.168   3.893
21967TIP3    H265779   6.959   1.132   3.807
21968TIP3   OH265780   0.312   6.736   0.522
21968TIP3    H165781   0.255   6.685   0.464
21968TIP3    H265782   0.377   6.775   0.463
21969TIP3   OH265783   2.504   6.257   4.164
21969TIP3    H165784   2.414   6.272   4.133
21969TIP3    H265785   2.521   6.331   4.222
21970TIP3   OH265786   5.857   6.168   3.752
21970TIP3    H165787   5.887   6.148   3.840
21970TIP3    H265788   5.918   6.122   3.694
21971TIP3   OH265789   8.859   1.716   6.757
21971TIP3    H165790   8.813   1.746   6.835
21971TIP3    H265791   8.915   1.645   6.788
21972TIP3   OH265792   3.412   4.140   2.183
21972TIP3    H165793   3.421   4.234   2.167
21972TIP3    H265794   3.449   4.126   2.270
21973TIP3   OH265795   8.260   0.418   3.545
21973TIP3    H165796   8.278   0.393   3.636
21973TIP3    H265797   8.232   0.337   3.503
21974TIP3   OH265798   1.468   2.644   0.436
21974TIP3    H165799   1.427   2.611   0.516
21974TIP3    H265800   1.428   2.593   0.365
21975TIP3   OH265801   7.277   5.633   5.534
21975TIP3    H165802   7.196   5.637   5.482
21975TIP3    H265803   7.254   5.672   5.618
21976TIP3   OH265804   8.397   5.690   5.503
21976TIP3    H165805   8.348   5.766   5.472
21976TIP3    H265806   8.346   5.655   5.576
21977TIP3   OH265807   3.713   4.774   3.114
21977TIP3    H165808   3.668   4.689   3.118
21977TIP3    H265809   3.765   4.777   3.195
21978TIP3   OH265810   6.076   4.408   4.250
21978TIP3    H165811   6.023   4.459   4.312
21978TIP3    H265812   6.013   4.365   4.193
21979TIP3   OH265813   5.911   8.735   7.707
21979TIP3    H165814   5.904   8.724   7.612
21979TIP3    H265815   5.860   8.813   7.726
21980TIP3   OH265816   4.045   2.639   7.159
21980TIP3    H165817   4.099   2.561   7.171
21980TIP3    H265818   4.000   2.624   7.076
21981TIP3   OH265819   6.034   0.969   5.426
21981TIP3    H165820   6.088   1.043   5.397
21981TIP3    H265821   5.944   0.996   5.405
21982TIP3   OH265822   8.628   8.440   4.336
21982TIP3    H165823   8.571   8.363   4.333
21982TIP3    H265824   8.598   8.489   4.413
21983TIP3   OH265825   1.507   6.100   4.618
21983TIP3    H165826   1.457   6.049   4.681
21983TIP3    H265827   1.488   6.059   4.534
21984TIP3   OH265828   6.493   8.575   6.353
21984TIP3    H165829   6.442   8.494   6.358
21984TIP3    H265830   6.547   8.575   6.432
21985TIP3   OH265831   4.913   1.499   2.917
21985TIP3    H165832   4.841   1.560   2.897
21985TIP3    H265833   4.991   1.541   2.880
21986TIP3   OH265834   7.190   6.838   6.965
21986TIP3    H165835   7.178   6.918   7.017
21986TIP3    H265836   7.261   6.792   7.009
21987TIP3   OH265837   2.041   0.936   2.057
21987TIP3    H165838   2.103   1.005   2.035
21987TIP3    H265839   2.061   0.865   1.997
21988TIP3   OH265840   2.193   6.821   5.684
21988TIP3    H165841   2.198   6.808   5.779
21988TIP3    H265842   2.189   6.733   5.647
21989TIP3   OH265843   6.221   2.757   3.186
21989TIP3    H165844   6.138   2.791   3.221
21989TIP3    H265845   6.230   2.671   3.228
21990TIP3   OH265846   2.275   4.003   3.750
21990TIP3    H165847   2.320   4.003   3.665
21990TIP3    H265848   2.345   4.018   3.814
21991TIP3   OH265849   6.499   4.929   5.399
21991TIP3    H165850   6.498   4.880   5.317
21991TIP3    H265851   6.592   4.941   5.419
21992TIP3   OH265852   0.387   2.299   0.376
21992TIP3    H165853   0.383   2.203   0.373
21992TIP3    H265854   0.339   2.322   0.456
21993TIP3   OH265855   7.123   8.101   2.210
21993TIP3    H165856   7.203   8.152   2.216
21993TIP3    H265857   7.130   8.054   2.127
21994TIP3   OH265858   8.557   1.406   1.388
21994TIP3    H165859   8.481   1.352   1.367
21994TIP3    H265860   8.531   1.455   1.465
21995TIP3   OH265861   4.519   8.908   6.138
21995TIP3    H165862   4.534   8.957   6.218
21995TIP3    H265863   4.518   8.816   6.166
21996TIP3   OH265864   5.865   0.581   4.607
21996TIP3    H165865   5.807   0.576   4.531
21996TIP3    H265866   5.951   0.559   4.573
21997TIP3   OH265867   4.252   1.677   1.766
21997TIP3    H165868   4.326   1.653   1.821
21997TIP3    H265869   4.196   1.730   1.823
21998TIP3   OH265870   1.541   2.703   3.929
21998TIP3    H165871   1.609   2.770   3.943
21998TIP3    H265872   1.459   2.751   3.933
21999TIP3   OH265873   5.085   8.402   5.301
21999TIP3    H165874   5.152   8.466   5.327
21999TIP3    H265875   5.127   8.350   5.232
22000TIP3   OH265876   1.799   7.943   0.287
22000TIP3    H165877   1.708   7.953   0.315
22000TIP3    H265878   1.839   8.027   0.307
22001TIP3   OH265879   2.805   2.485   6.243
22001TIP3    H165880   2.859   2.412   6.273
22001TIP3    H265881   2.727   2.443   6.206
22002TIP3   OH265882   5.169   2.093   3.061
22002TIP3    H165883   5.088   2.044   3.049
22002TIP3    H265884   5.184   2.137   2.977
22003TIP3   OH265885   5.701   0.609   6.068
22003TIP3    H165886   5.693   0.548   5.995
22003TIP3    H265887   5.722   0.693   6.027
22004TIP3   OH265888   8.468   2.522   2.653
22004TIP3    H165889   8.491   2.434   2.623
22004TIP3    H265890   8.455   2.512   2.747
22005TIP3   OH265891   3.340   5.040   4.760
22005TIP3    H165892   3.335   5.094   4.839
22005TIP3    H265893   3.428   5.002   4.762
22006TIP3   OH265894   9.189   2.204   5.782
22006TIP3    H165895   9.254   2.268   5.754
22006TIP3    H265896   9.111   2.256   5.803
22007TIP3   OH265897   6.902   7.181   2.187
22007TIP3    H165898   6.942   7.105   2.145
22007TIP3    H265899   6.808   7.163   2.184
22008TIP3   OH265900   2.788   8.750   0.863
22008TIP3    H165901   2.820   8.837   0.888
22008TIP3    H265902   2.714   8.768   0.804
22009TIP3   OH265903   1.587   5.531   2.246
22009TIP3    H165904   1.586   5.627   2.251
22009TIP3    H265905   1.579   5.502   2.337
22010TIP3   OH265906   5.560   4.828   4.190
22010TIP3    H165907   5.636   4.841   4.133
22010TIP3    H265908   5.509   4.909   4.181
22011TIP3   OH265909   0.172   6.039   4.665
22011TIP3    H165910   0.265   6.054   4.652
22011TIP3    H265911   0.130   6.081   4.590
22012TIP3   OH265912   2.476   5.432   5.172
22012TIP3    H165913   2.537   5.425   5.098
22012TIP3    H265914   2.460   5.341   5.199
22013TIP3   OH265915   7.800   0.707   4.729
22013TIP3    H165916   7.883   0.714   4.681
22013TIP3    H265917   7.739   0.763   4.680
22014TIP3   OH265918   2.718   4.062   2.675
22014TIP3    H165919   2.718   4.119   2.598
22014TIP3    H265920   2.772   4.109   2.739
22015TIP3   OH265921   6.415   8.454   2.941
22015TIP3    H165922   6.372   8.371   2.918
22015TIP3    H265923   6.361   8.521   2.898
22016TIP3   OH265924   1.348   7.658   7.539
22016TIP3    H165925   1.380   7.698   7.619
22016TIP3    H265926   1.271   7.608   7.565
22017TIP3   OH265927   0.217   5.815   5.029
22017TIP3    H165928   0.176   5.732   5.054
22017TIP3    H265929   0.222   5.812   4.934
22018TIP3   OH265930   0.051   4.791   7.320
22018TIP3    H165931   0.101   4.828   7.248
22018TIP3    H265932  -0.039   4.788   7.287
22019TIP3   OH265933   7.358   4.100   4.471
22019TIP3    H165934   7.336   4.041   4.543
22019TIP3    H265935   7.295   4.171   4.478
22020TIP3   OH265936   4.241   3.388   1.197
22020TIP3    H165937   4.249   3.330   1.273
22020TIP3    H265938   4.155   3.428   1.207
22021TIP3   OH265939   7.601   5.008   1.452
22021TIP3    H165940   7.537   4.944   1.421
22021TIP3    H265941   7.677   4.995   1.396
22022TIP3   OH265942   5.000   0.394   1.182
22022TIP3    H165943   4.951   0.422   1.105
22022TIP3    H265944   4.947   0.422   1.256
22023TIP3   OH265945   3.726   1.727   0.469
22023TIP3    H165946   3.717   1.652   0.527
22023TIP3    H265947   3.709   1.693   0.381
22024TIP3   OH265948   7.220   6.314   1.155
22024TIP3    H165949   7.235   6.222   1.178
22024TIP3    H265950   7.239   6.362   1.235
22025TIP3   OH265951   3.466   6.545   6.694
22025TIP3    H165952   3.425   6.459   6.703
22025TIP3    H265953   3.557   6.531   6.721
22026TIP3   OH265954   6.346   2.760   5.065
22026TIP3    H165955   6.367   2.673   5.099
22026TIP3    H265956   6.429   2.796   5.035
22027TIP3   OH265957   2.353   6.951   0.017
22027TIP3    H165958   2.364   6.873  -0.037
22027TIP3    H265959   2.415   7.014  -0.019
22028TIP3   OH265960   8.393   0.888   6.114
22028TIP3    H165961   8.428   0.943   6.044
22028TIP3    H265962   8.469   0.868   6.169
22029TIP3   OH265963   3.268   5.077   4.230
22029TIP3    H165964   3.183   5.035   4.218
22029TIP3    H265965   3.332   5.010   4.206
22030TIP3   OH265966   3.680   8.181   1.151
22030TIP3    H165967   3.621   8.159   1.224
22030TIP3    H265968   3.626   8.233   1.092
22031TIP3   OH265969   3.954   7.569   1.530
22031TIP3    H165970   3.974   7.481   1.562
22031TIP3    H265971   3.863   7.563   1.499
22032TIP3   OH265972   0.821   5.877   5.315
22032TIP3    H165973   0.764   5.800   5.316
22032TIP3    H265974   0.889   5.856   5.251
22033TIP3   OH265975   3.615   4.529   4.533
22033TIP3    H165976   3.663   4.611   4.539
22033TIP3    H265977   3.629   4.486   4.617
22034TIP3   OH265978   2.985   1.945   0.676
22034TIP3    H165979   3.012   2.004   0.606
22034TIP3    H265980   2.899   1.914   0.650
22035TIP3   OH265981   4.296   2.636   2.458
22035TIP3    H165982   4.265   2.550   2.431
22035TIP3    H265983   4.288   2.690   2.379
22036TIP3   OH265984   9.055   7.902   5.918
22036TIP3    H165985   8.962   7.897   5.939
22036TIP3    H265986   9.062   7.974   5.855
22037TIP3   OH265987   3.273   3.774   6.196
22037TIP3    H165988   3.317   3.709   6.251
22037TIP3    H265989   3.313   3.857   6.221
22038TIP3   OH265990   3.482   0.571   3.306
22038TIP3    H165991   3.530   0.654   3.303
22038TIP3    H265992   3.451   0.564   3.396
22039TIP3   OH265993   1.290   7.063   3.722
22039TIP3    H165994   1.293   6.976   3.683
22039TIP3    H265995   1.211   7.062   3.776
22040TIP3   OH265996   7.289   7.137   7.493
22040TIP3    H165997   7.325   7.222   7.466
22040TIP3    H265998   7.199   7.138   7.462
22041TIP3   OH265999   7.598   6.461   5.834
22041TIP3    H166000   7.652   6.516   5.891
22041TIP3    H266001   7.526   6.432   5.890
22042TIP3   OH266002   8.628   0.329   3.471
22042TIP3    H166003   8.566   0.277   3.522
22042TIP3    H266004   8.637   0.280   3.389
22043TIP3   OH266005   5.249   3.639   6.719
22043TIP3    H166006   5.343   3.621   6.718
22043TIP3    H266007   5.218   3.609   6.634
22044TIP3   OH266008   8.242   3.405   3.342
22044TIP3    H166009   8.184   3.339   3.305
22044TIP3    H266010   8.282   3.363   3.418
22045TIP3   OH266011   3.100   2.672   5.163
22045TIP3    H166012   3.065   2.748   5.208
22045TIP3    H266013   3.022   2.628   5.127
22046TIP3   OH266014   3.032   7.214   4.970
22046TIP3    H166015   2.991   7.137   5.009
22046TIP3    H266016   3.071   7.182   4.889
22047TIP3   OH266017   7.566   1.445   0.321
22047TIP3    H166018   7.538   1.360   0.354
22047TIP3    H266019   7.651   1.460   0.361
22048TIP3   OH266020   8.889   5.177   0.686
22048TIP3    H166021   8.834   5.135   0.620
22048TIP3    H266022   8.856   5.266   0.692
22049TIP3   OH266023   0.192   7.587   0.503
22049TIP3    H166024   0.127   7.655   0.519
22049TIP3    H266025   0.256   7.598   0.574
22050TIP3   OH266026   3.602   4.992   0.008
22050TIP3    H166027   3.583   4.987  -0.085
22050TIP3    H266028   3.688   4.951   0.018
22051TIP3   OH266029   9.511   4.986   7.047
22051TIP3    H166030   9.601   4.954   7.043
22051TIP3    H266031   9.460   4.922   6.999
22052TIP3   OH266032   8.424   3.824   2.185
22052TIP3    H166033   8.380   3.747   2.149
22052TIP3    H266034   8.372   3.849   2.261
22053TIP3   OH266035   6.739   8.942   5.390
22053TIP3    H166036   6.803   8.994   5.342
22053TIP3    H266037   6.687   8.899   5.323
22054TIP3   OH266038   9.276   4.537   0.095
22054TIP3    H166039   9.191   4.512   0.059
22054TIP3    H266040   9.267   4.524   0.189
22055TIP3   OH266041   0.360   0.992   2.626
22055TIP3    H166042   0.421   0.936   2.577
22055TIP3    H266043   0.337   0.941   2.703
22056TIP3   OH266044   9.538   5.687   1.174
22056TIP3    H166045   9.606   5.633   1.133
22056TIP3    H266046   9.554   5.775   1.140
22057TIP3   OH266047   8.737   3.987   6.500
22057TIP3    H166048   8.678   3.949   6.566
22057TIP3    H266049   8.681   3.999   6.423
22058TIP3   OH266050   4.962   6.811   2.013
22058TIP3    H166051   4.925   6.888   1.970
22058TIP3    H266052   4.886   6.766   2.052
22059TIP3   OH266053   2.497   0.313   0.899
22059TIP3    H166054   2.581   0.357   0.909
22059TIP3    H266055   2.439   0.381   0.863
22060TIP3   OH266056   6.850   2.880   7.607
22060TIP3    H166057   6.877   2.957   7.656
22060TIP3    H266058   6.920   2.866   7.544
22061TIP3   OH266059   0.251   0.793   4.854
22061TIP3    H166060   0.166   0.816   4.891
22061TIP3    H266061   0.283   0.720   4.908
22062TIP3   OH266062   7.606   3.790   7.069
22062TIP3    H166063   7.576   3.718   7.013
22062TIP3    H266064   7.525   3.831   7.100
22063TIP3   OH266065   6.166   7.241   3.760
22063TIP3    H166066   6.091   7.226   3.702
22063TIP3    H266067   6.183   7.335   3.752
22064TIP3   OH266068   8.286   4.352   7.655
22064TIP3    H166069   8.270   4.346   7.561
22064TIP3    H266070   8.206   4.391   7.690
22065TIP3   OH266071   9.082   3.819   5.601
22065TIP3    H166072   9.030   3.838   5.523
22065TIP3    H266073   9.127   3.902   5.620
22066TIP3   OH266074   2.274   2.308   2.240
22066TIP3    H166075   2.305   2.259   2.164
22066TIP3    H266076   2.346   2.367   2.262
22067TIP3   OH266077   3.556   3.938   2.421
22067TIP3    H166078   3.498   3.912   2.493
22067TIP3    H266079   3.542   4.032   2.411
22068TIP3   OH266080   7.576   4.410   4.427
22068TIP3    H166081   7.610   4.322   4.446
22068TIP3    H266082   7.535   4.438   4.509
22069TIP3   OH266083   4.073   8.368   1.837
22069TIP3    H166084   4.113   8.445   1.878
22069TIP3    H266085   3.992   8.401   1.798
22070TIP3   OH266086   2.075   0.234   6.117
22070TIP3    H166087   2.019   0.160   6.094
22070TIP3    H266088   2.055   0.251   6.209
22071TIP3   OH266089   9.185   7.972   5.345
22071TIP3    H166090   9.183   7.876   5.342
22071TIP3    H266091   9.258   7.995   5.288
22072TIP3   OH266092   8.254   8.733   4.203
22072TIP3    H166093   8.169   8.768   4.229
22072TIP3    H266094   8.281   8.677   4.276
22073TIP3   OH266095   9.164   1.517   1.613
22073TIP3    H166096   9.094   1.474   1.563
22073TIP3    H266097   9.144   1.610   1.608
22074TIP3   OH266098   9.335   4.461   6.258
22074TIP3    H166099   9.240   4.460   6.271
22074TIP3    H266100   9.372   4.448   6.345
22075TIP3   OH266101   1.283   7.951   0.251
22075TIP3    H166102   1.263   8.037   0.287
22075TIP3    H266103   1.282   7.892   0.327
22076TIP3   OH266104   2.027   3.801   0.941
22076TIP3    H166105   2.005   3.709   0.951
22076TIP3    H266106   2.123   3.803   0.948
22077TIP3   OH266107   4.819   1.004   1.562
22077TIP3    H166108   4.898   1.036   1.517
22077TIP3    H266109   4.851   0.966   1.644
22078TIP3   OH266110   5.310   7.546   3.191
22078TIP3    H166111   5.335   7.458   3.163
22078TIP3    H266112   5.215   7.542   3.199
22079TIP3   OH266113   1.201   0.297   5.222
22079TIP3    H166114   1.268   0.308   5.154
22079TIP3    H266115   1.121   0.329   5.181
22080TIP3   OH266116   4.963   5.671   3.237
22080TIP3    H166117   5.039   5.635   3.283
22080TIP3    H266118   4.994   5.755   3.203
22081TIP3   OH266119   0.424   7.324   6.098
22081TIP3    H166120   0.473   7.324   6.180
22081TIP3    H266121   0.344   7.374   6.119
22082TIP3   OH266122   8.785   7.805   4.560
22082TIP3    H166123   8.758   7.892   4.530
22082TIP3    H266124   8.731   7.745   4.510
22083TIP3   OH266125   6.732   4.644   4.336
22083TIP3    H166126   6.727   4.691   4.253
22083TIP3    H266127   6.697   4.706   4.400
22084TIP3   OH266128   7.353   0.472   0.377
22084TIP3    H166129   7.439   0.506   0.352
22084TIP3    H266130   7.349   0.484   0.472
22085TIP3   OH266131   3.775   2.400   4.581
22085TIP3    H166132   3.726   2.473   4.543
22085TIP3    H266133   3.714   2.326   4.577
22086TIP3   OH266134   1.220   2.834   6.373
22086TIP3    H166135   1.241   2.863   6.284
22086TIP3    H266136   1.296   2.782   6.399
22087TIP3   OH266137   1.320   8.049   4.508
22087TIP3    H166138   1.281   8.104   4.576
22087TIP3    H266139   1.252   7.986   4.486
22088TIP3   OH266140   7.593   4.165   0.812
22088TIP3    H166141   7.581   4.073   0.785
22088TIP3    H266142   7.543   4.173   0.893
22089TIP3   OH266143   4.376   6.209   6.885
22089TIP3    H166144   4.364   6.146   6.956
22089TIP3    H266145   4.445   6.171   6.831
22090TIP3   OH266146   2.962   0.285   4.764
22090TIP3    H166147   3.031   0.325   4.711
22090TIP3    H266148   2.982   0.311   4.854
22091TIP3   OH266149   9.144   5.248   5.393
22091TIP3    H166150   9.177   5.310   5.457
22091TIP3    H266151   9.130   5.167   5.442
22092TIP3   OH266152   6.640   4.378   2.226
22092TIP3    H166153   6.732   4.362   2.203
22092TIP3    H266154   6.644   4.442   2.296
22093TIP3   OH266155   2.594   8.727   5.896
22093TIP3    H166156   2.635   8.645   5.870
22093TIP3    H266157   2.652   8.762   5.964
22094TIP3   OH266158   6.812   6.248   7.807
22094TIP3    H166159   6.782   6.191   7.878
22094TIP3    H266160   6.792   6.199   7.727
22095TIP3   OH266161   5.285   1.563   2.657
22095TIP3    H166162   5.250   1.479   2.686
22095TIP3    H266163   5.360   1.579   2.715
22096TIP3   OH266164   4.232   3.727   3.049
22096TIP3    H166165   4.146   3.723   3.006
22096TIP3    H266166   4.279   3.650   3.017
22097TIP3   OH266167   3.073   7.049   1.296
22097TIP3    H166168   3.080   7.121   1.360
22097TIP3    H266169   3.007   6.990   1.333
22098TIP3   OH266170   6.382   5.222   2.174
22098TIP3    H166171   6.297   5.220   2.218
22098TIP3    H266172   6.395   5.314   2.151
22099TIP3   OH266173   8.336   7.461   4.087
22099TIP3    H166174   8.294   7.376   4.099
22099TIP3    H266175   8.397   7.448   4.015
22100TIP3   OH266176   3.918   1.615   7.079
22100TIP3    H166177   3.824   1.625   7.090
22100TIP3    H266178   3.953   1.612   7.168
22101TIP3   OH266179   1.517   0.098   5.114
22101TIP3    H166180   1.611   0.106   5.095
22101TIP3    H266181   1.487   0.188   5.127
22102TIP3   OH266182   3.895   8.297   0.281
22102TIP3    H166183   3.822   8.273   0.224
22102TIP3    H266184   3.855   8.348   0.351
22103TIP3   OH266185   7.997   2.326   5.825
22103TIP3    H166186   8.035   2.413   5.840
22103TIP3    H266187   7.902   2.340   5.833
22104TIP3   OH266188   0.612   6.611   5.319
22104TIP3    H166189   0.545   6.580   5.259
22104TIP3    H266190   0.690   6.622   5.265
22105TIP3   OH266191   8.710   8.320   4.854
22105TIP3    H166192   8.718   8.403   4.902
22105TIP3    H266193   8.789   8.317   4.800
22106TIP3   OH266194   5.227   9.002   2.135
22106TIP3    H166195   5.290   8.941   2.174
22106TIP3    H266196   5.239   9.084   2.184
22107TIP3   OH266197   3.704   6.691   3.257
22107TIP3    H166198   3.702   6.599   3.283
22107TIP3    H266199   3.768   6.694   3.186
22108TIP3   OH266200   6.179   5.130   6.269
22108TIP3    H166201   6.105   5.156   6.324
22108TIP3    H266202   6.138   5.101   6.187
22109TIP3   OH266203   6.426   4.344   5.564
22109TIP3    H166204   6.331   4.346   5.549
22109TIP3    H266205   6.464   4.342   5.476
22110TIP3   OH266206   3.056   5.725   1.879
22110TIP3    H166207   2.966   5.695   1.873
22110TIP3    H266208   3.053   5.799   1.940
22111TIP3   OH266209   0.462   0.461   5.287
22111TIP3    H166210   0.433   0.406   5.214
22111TIP3    H266211   0.515   0.529   5.246
22112TIP3   OH266212   8.669   8.481   3.567
22112TIP3    H166213   8.577   8.498   3.589
22112TIP3    H266214   8.709   8.568   3.562
22113TIP3   OH266215   0.681   7.845   7.772
22113TIP3    H166216   0.638   7.789   7.707
22113TIP3    H266217   0.774   7.830   7.759
22114TIP3   OH266218   3.956   2.903   6.261
22114TIP3    H166219   3.880   2.851   6.235
22114TIP3    H266220   3.971   2.881   6.353
22115TIP3   OH266221   4.685   2.752   1.809
22115TIP3    H166222   4.731   2.833   1.785
22115TIP3    H266223   4.633   2.730   1.731
22116TIP3   OH266224   1.578   2.049   3.886
22116TIP3    H166225   1.654   2.082   3.840
22116TIP3    H266226   1.519   2.124   3.894
22117TIP3   OH266227   3.316   0.809   0.687
22117TIP3    H166228   3.262   0.865   0.632
22117TIP3    H266229   3.318   0.853   0.772
22118TIP3   OH266230   3.395   7.845   5.909
22118TIP3    H166231   3.318   7.891   5.876
22118TIP3    H266232   3.459   7.914   5.926
22119TIP3   OH266233   1.069   4.309   2.044
22119TIP3    H166234   1.002   4.376   2.054
22119TIP3    H266235   1.120   4.312   2.125
22120TIP3   OH266236   7.900   6.773   7.053
22120TIP3    H166237   7.868   6.691   7.089
22120TIP3    H266238   7.957   6.809   7.121
22121TIP3   OH266239   5.381   5.838   5.679
22121TIP3    H166240   5.330   5.790   5.613
22121TIP3    H266241   5.340   5.924   5.683
22122TIP3   OH266242   7.429   8.578   7.130
22122TIP3    H166243   7.431   8.660   7.080
22122TIP3    H266244   7.521   8.552   7.137
22123TIP3   OH266245   6.542   1.691   7.447
22123TIP3    H166246   6.449   1.706   7.431
22123TIP3    H266247   6.587   1.758   7.395
22124TIP3   OH266248   1.646   4.989   0.612
22124TIP3    H166249   1.727   5.038   0.598
22124TIP3    H266250   1.661   4.942   0.694
22125TIP3   OH266251   7.517   2.077   2.429
22125TIP3    H166252   7.506   2.087   2.334
22125TIP3    H266253   7.502   2.165   2.464
22126TIP3   OH266254   4.497   4.797   2.768
22126TIP3    H166255   4.561   4.779   2.838
22126TIP3    H266256   4.512   4.888   2.745
22127TIP3   OH266257   3.057   8.409   5.534
22127TIP3    H166258   3.127   8.354   5.570
22127TIP3    H266259   2.987   8.347   5.512
22128TIP3   OH266260   5.034   6.161   4.702
22128TIP3    H166261   4.975   6.217   4.653
22128TIP3    H266262   5.120   6.200   4.690
22129TIP3   OH266263   9.474   2.545   1.952
22129TIP3    H166264   9.438   2.458   1.931
22129TIP3    H266265   9.430   2.570   2.033
22130TIP3   OH266266   2.570   1.635   2.996
22130TIP3    H166267   2.634   1.699   2.965
22130TIP3    H266268   2.614   1.590   3.068
22131TIP3   OH266269   4.946   1.970   1.971
22131TIP3    H166270   4.971   1.882   1.998
22131TIP3    H266271   4.880   1.997   2.034
22132TIP3   OH266272   1.960   5.839   7.473
22132TIP3    H166273   1.879   5.790   7.487
22132TIP3    H266274   1.974   5.887   7.555
22133TIP3   OH266275   6.698   8.639   1.505
22133TIP3    H166276   6.606   8.665   1.512
22133TIP3    H266277   6.705   8.600   1.418
22134TIP3   OH266278   4.331   7.595   4.872
22134TIP3    H166279   4.404   7.538   4.895
22134TIP3    H266280   4.265   7.536   4.836
22135TIP3   OH266281   8.093   6.833   7.230
22135TIP3    H166282   8.129   6.900   7.287
22135TIP3    H266283   8.166   6.805   7.175
22136TIP3   OH266284   5.713   2.148   4.283
22136TIP3    H166285   5.692   2.153   4.377
22136TIP3    H266286   5.648   2.088   4.247
22137TIP3   OH266287   0.613   3.378   7.022
22137TIP3    H166288   0.694   3.416   7.056
22137TIP3    H266289   0.640   3.297   6.979
22138TIP3   OH266290   8.661   2.576   3.692
22138TIP3    H166291   8.589   2.546   3.637
22138TIP3    H266292   8.648   2.529   3.775
22139TIP3   OH266293   9.217   3.054   5.088
22139TIP3    H166294   9.196   2.975   5.038
22139TIP3    H266295   9.268   3.108   5.027
22140TIP3   OH266296   7.100   1.726   6.388
22140TIP3    H166297   7.017   1.717   6.341
22140TIP3    H266298   7.093   1.664   6.461
22141TIP3   OH266299   0.035   4.092   5.842
22141TIP3    H166300  -0.051   4.119   5.872
22141TIP3    H266301   0.018   4.031   5.770
22142TIP3   OH266302   3.184   7.588   1.745
22142TIP3    H166303   3.129   7.572   1.821
22142TIP3    H266304   3.243   7.512   1.743
22143TIP3   OH266305   7.794   1.141   4.343
22143TIP3    H166306   7.735   1.171   4.413
22143TIP3    H266307   7.811   1.219   4.291
22144TIP3   OH266308   7.638   0.574   3.669
22144TIP3    H166309   7.569   0.638   3.653
22144TIP3    H266310   7.662   0.542   3.583
22145TIP3   OH266311   8.523   0.409   5.792
22145TIP3    H166312   8.597   0.439   5.739
22145TIP3    H266313   8.445   0.439   5.744
22146TIP3   OH266314   4.777   7.778   5.367
22146TIP3    H166315   4.821   7.747   5.288
22146TIP3    H266316   4.714   7.709   5.387
22147TIP3   OH266317   6.104   3.605   6.114
22147TIP3    H166318   6.182   3.647   6.078
22147TIP3    H266319   6.136   3.551   6.186
22148TIP3   OH266320   9.501   8.835   1.677
22148TIP3    H166321   9.421   8.794   1.709
22148TIP3    H266322   9.504   8.921   1.719
22149TIP3   OH266323   5.723   7.119   5.642
22149TIP3    H166324   5.629   7.103   5.647
22149TIP3    H266325   5.751   7.130   5.733
22150TIP3   OH266326   5.295   6.659   3.577
22150TIP3    H166327   5.224   6.604   3.545
22150TIP3    H266328   5.373   6.604   3.567
22151TIP3   OH266329   8.085   8.230   4.385
22151TIP3    H166330   8.081   8.260   4.294
22151TIP3    H266331   8.011   8.272   4.428
22152TIP3   OH266332   0.089   3.761   4.509
22152TIP3    H166333   0.039   3.771   4.589
22152TIP3    H266334   0.161   3.702   4.532
22153TIP3   OH266335   0.092   3.910   0.603
22153TIP3    H166336   0.085   4.000   0.634
22153TIP3    H266337   0.033   3.861   0.659
22154TIP3   OH266338   4.120   0.912   2.313
22154TIP3    H166339   4.162   0.826   2.321
22154TIP3    H266340   4.147   0.959   2.392
22155TIP3   OH266341   2.376   5.141   1.366
22155TIP3    H166342   2.383   5.046   1.357
22155TIP3    H266343   2.340   5.154   1.454
22156TIP3   OH266344   0.310   1.871   0.677
22156TIP3    H166345   0.351   1.788   0.655
22156TIP3    H266346   0.340   1.931   0.609
22157TIP3   OH266347   4.271   7.542   1.403
22157TIP3    H166348   4.231   7.606   1.462
22157TIP3    H266349   4.366   7.553   1.417
22158TIP3   OH266350   6.340   2.161   0.765
22158TIP3    H166351   6.337   2.221   0.839
22158TIP3    H266352   6.308   2.078   0.800
22159TIP3   OH266353   6.005   5.098   1.495
22159TIP3    H166354   5.956   5.016   1.503
22159TIP3    H266355   5.947   5.157   1.447
22160TIP3   OH266356   5.327   4.637   3.152
22160TIP3    H166357   5.280   4.567   3.106
22160TIP3    H266358   5.321   4.613   3.245
22161TIP3   OH266359   5.862   6.074   1.741
22161TIP3    H166360   5.777   6.045   1.708
22161TIP3    H266361   5.851   6.078   1.836
22162TIP3   OH266362   4.525   3.010   1.542
22162TIP3    H166363   4.583   3.085   1.543
22162TIP3    H266364   4.579   2.937   1.573
22163TIP3   OH266365   8.221   8.713   3.727
22163TIP3    H166366   8.252   8.774   3.794
22163TIP3    H266367   8.286   8.642   3.728
22164TIP3   OH266368   7.958   4.516   7.391
22164TIP3    H166369   8.051   4.534   7.381
22164TIP3    H266370   7.915   4.581   7.335
22165TIP3   OH266371   3.725   7.718   6.877
22165TIP3    H166372   3.723   7.781   6.948
22165TIP3    H266373   3.727   7.632   6.920
22166TIP3   OH266374   0.899   4.061   2.583
22166TIP3    H166375   0.812   4.025   2.566
22166TIP3    H266376   0.887   4.156   2.582
22167TIP3   OH266377   4.388   7.270   0.475
22167TIP3    H166378   4.476   7.244   0.502
22167TIP3    H266379   4.380   7.361   0.505
22168TIP3   OH266380   8.420   3.898   5.070
22168TIP3    H166381   8.356   3.827   5.076
22168TIP3    H266382   8.494   3.860   5.022
22169TIP3   OH266383   4.443   2.175   3.448
22169TIP3    H166384   4.479   2.214   3.369
22169TIP3    H266385   4.503   2.201   3.518
22170TIP3   OH266386   9.103   8.622   0.592
22170TIP3    H166387   9.011   8.635   0.568
22170TIP3    H266388   9.118   8.685   0.663
22171TIP3   OH266389   5.237   5.975   2.409
22171TIP3    H166390   5.186   5.946   2.485
22171TIP3    H266391   5.328   5.974   2.439
22172TIP3   OH266392   7.270   5.941   7.742
22172TIP3    H166393   7.361   5.970   7.747
22172TIP3    H266394   7.272   5.850   7.771
22173TIP3   OH266395   9.225   5.973   5.719
22173TIP3    H166396   9.182   5.959   5.635
22173TIP3    H266397   9.303   5.918   5.716
22174TIP3   OH266398   4.159   2.333   2.348
22174TIP3    H166399   4.192   2.247   2.325
22174TIP3    H266400   4.190   2.347   2.438
22175TIP3   OH266401   5.983   2.527   5.540
22175TIP3    H166402   5.924   2.451   5.537
22175TIP3    H266403   5.926   2.602   5.527
22176TIP3   OH266404   1.176   9.002   7.696
22176TIP3    H166405   1.097   8.966   7.737
22176TIP3    H266406   1.192   8.946   7.621
22177TIP3   OH266407   5.259   4.222   0.128
22177TIP3    H166408   5.355   4.221   0.128
22177TIP3    H266409   5.236   4.299   0.077
22178TIP3   OH266410   3.615   2.430   6.626
22178TIP3    H166411   3.549   2.492   6.656
22178TIP3    H266412   3.565   2.356   6.593
22179TIP3   OH266413   5.847   4.738   0.046
22179TIP3    H166414   5.885   4.774  -0.034
22179TIP3    H266415   5.766   4.696   0.019
22180TIP3   OH266416   8.417   3.530   3.845
22180TIP3    H166417   8.366   3.474   3.788
22180TIP3    H266418   8.425   3.481   3.927
22181TIP3   OH266419   1.444   5.226   6.272
22181TIP3    H166420   1.394   5.152   6.308
22181TIP3    H266421   1.500   5.255   6.343
22182TIP3   OH266422   5.026   5.409   5.937
22182TIP3    H166423   5.103   5.466   5.931
22182TIP3    H266424   5.001   5.392   5.846
22183TIP3   OH266425   4.515   6.189   3.466
22183TIP3    H166426   4.500   6.143   3.384
22183TIP3    H266427   4.489   6.127   3.534
22184TIP3   OH266428   3.199   1.116   3.180
22184TIP3    H166429   3.199   1.075   3.266
22184TIP3    H266430   3.174   1.045   3.120
22185TIP3   OH266431   1.208   5.685   2.061
22185TIP3    H166432   1.164   5.618   2.113
22185TIP3    H266433   1.143   5.714   1.998
22186TIP3   OH266434   4.623   0.261   2.772
22186TIP3    H166435   4.634   0.173   2.810
22186TIP3    H266436   4.623   0.246   2.678
22187TIP3   OH266437   4.164   8.013   6.183
22187TIP3    H166438   4.129   7.949   6.120
22187TIP3    H266439   4.086   8.051   6.223
22188TIP3   OH266440   5.588   3.531   1.078
22188TIP3    H166441   5.581   3.592   1.150
22188TIP3    H266442   5.604   3.585   1.001
22189TIP3   OH266443   4.549   0.027   6.837
22189TIP3    H166444   4.635   0.006   6.800
22189TIP3    H266445   4.549   0.123   6.842
22190TIP3   OH266446   0.259   8.303   7.391
22190TIP3    H166447   0.298   8.306   7.478
22190TIP3    H266448   0.327   8.265   7.335
22191TIP3   OH266449   0.801   4.100   1.660
22191TIP3    H166450   0.826   4.096   1.752
22191TIP3    H266451   0.883   4.116   1.613
22192TIP3   OH266452   2.867   0.028   3.338
22192TIP3    H166453   2.866   0.077   3.421
22192TIP3    H266454   2.776   0.000   3.326
22193TIP3   OH266455   4.643   2.777   6.790
22193TIP3    H166456   4.722   2.832   6.790
22193TIP3    H266457   4.578   2.829   6.839
22194TIP3   OH266458   4.044   2.766   6.828
22194TIP3    H166459   3.952   2.772   6.854
22194TIP3    H266460   4.086   2.840   6.872
22195TIP3   OH266461   8.032   1.748   4.844
22195TIP3    H166462   8.051   1.665   4.799
22195TIP3    H266463   7.971   1.793   4.786
22196TIP3   OH266464   2.924   6.388   4.994
22196TIP3    H166465   2.872   6.382   4.914
22196TIP3    H266466   2.907   6.306   5.040
22197TIP3   OH266467   4.524   4.666   2.519
22197TIP3    H166468   4.618   4.650   2.523
22197TIP3    H266469   4.502   4.703   2.605
22198TIP3   OH266470   9.301   7.573   6.381
22198TIP3    H166471   9.228   7.514   6.404
22198TIP3    H266472   9.262   7.638   6.323
22199TIP3   OH266473   2.215   7.053   5.547
22199TIP3    H166474   2.299   7.059   5.501
22199TIP3    H266475   2.219   6.970   5.594
22200TIP3   OH266476   0.026   2.642   3.063
22200TIP3    H166477   0.081   2.656   2.986
22200TIP3    H266478  -0.025   2.722   3.072
22201TIP3   OH266479   3.113   6.612   5.700
22201TIP3    H166480   3.163   6.684   5.738
22201TIP3    H266481   3.149   6.533   5.742
22202TIP3   OH266482   3.955   4.558   6.112
22202TIP3    H166483   3.939   4.466   6.133
22202TIP3    H266484   3.938   4.605   6.194
22203TIP3   OH266485   7.177   8.837   2.548
22203TIP3    H166486   7.237   8.763   2.535
22203TIP3    H266487   7.106   8.801   2.601
22204TIP3   OH266488   0.480   6.334   4.233
22204TIP3    H166489   0.536   6.405   4.201
22204TIP3    H266490   0.512   6.316   4.321
22205TIP3   OH266491   6.254   6.269   0.594
22205TIP3    H166492   6.169   6.239   0.625
22205TIP3    H266493   6.235   6.349   0.545
22206TIP3   OH266494   7.167   0.385   3.651
22206TIP3    H166495   7.170   0.473   3.615
22206TIP3    H266496   7.116   0.334   3.588
22207TIP3   OH266497   6.375   0.897   6.669
22207TIP3    H166498   6.316   0.910   6.744
22207TIP3    H266499   6.381   0.802   6.658
22208TIP3   OH266500   3.346   0.436   0.683
22208TIP3    H166501   3.309   0.393   0.759
22208TIP3    H266502   3.334   0.374   0.611
22209TIP3   OH266503   3.589   4.195   1.125
22209TIP3    H166504   3.627   4.256   1.061
22209TIP3    H266505   3.664   4.149   1.161
22210TIP3   OH266506   4.901   4.703   0.604
22210TIP3    H166507   4.941   4.673   0.522
22210TIP3    H266508   4.818   4.656   0.609
22211TIP3   OH266509   3.204   4.593   0.943
22211TIP3    H166510   3.167   4.506   0.956
22211TIP3    H266511   3.273   4.601   1.009
22212TIP3   OH266512   8.417   7.398   7.201
22212TIP3    H166513   8.387   7.487   7.180
22212TIP3    H266514   8.512   7.403   7.196
22213TIP3   OH266515   6.148   7.895   7.045
22213TIP3    H166516   6.086   7.962   7.015
22213TIP3    H266517   6.234   7.934   7.030
22214TIP3   OH266518   2.497   5.734   1.438
22214TIP3    H166519   2.431   5.713   1.371
22214TIP3    H266520   2.569   5.674   1.421
22215TIP3   OH266521   7.340   1.847   3.782
22215TIP3    H166522   7.309   1.824   3.694
22215TIP3    H266523   7.434   1.861   3.772
22216TIP3   OH266524   2.747   3.867   6.257
22216TIP3    H166525   2.772   3.921   6.331
22216TIP3    H266526   2.828   3.827   6.227
22217TIP3   OH266527   0.360   3.723   2.843
22217TIP3    H166528   0.316   3.705   2.926
22217TIP3    H266529   0.288   3.734   2.780
22218TIP3   OH266530   6.455   6.280   7.193
22218TIP3    H166531   6.375   6.319   7.230
22218TIP3    H266532   6.426   6.243   7.109
22219TIP3   OH266533   4.947   3.724   3.022
22219TIP3    H166534   4.909   3.638   3.040
22219TIP3    H266535   4.915   3.747   2.935
22220TIP3   OH266536   3.789   6.959   5.786
22220TIP3    H166537   3.731   6.883   5.783
22220TIP3    H266538   3.838   6.949   5.868
22221TIP3   OH266539   6.944   5.441   5.509
22221TIP3    H166540   6.888   5.481   5.443
22221TIP3    H266541   6.903   5.357   5.528
22222TIP3   OH266542   8.316   8.114   0.176
22222TIP3    H166543   8.255   8.114   0.102
22222TIP3    H266544   8.259   8.116   0.254
22223TIP3   OH266545   7.047   0.154   0.505
22223TIP3    H166546   7.023   0.125   0.593
22223TIP3    H266547   7.015   0.244   0.500
22224TIP3   OH266548   7.740   2.927   5.118
22224TIP3    H166549   7.649   2.900   5.106
22224TIP3    H266550   7.745   3.013   5.076
22225TIP3   OH266551   2.164   0.560   2.898
22225TIP3    H166552   2.153   0.604   2.983
22225TIP3    H266553   2.253   0.526   2.900
22226TIP3   OH266554   9.408   1.594   0.130
22226TIP3    H166555   9.393   1.686   0.106
22226TIP3    H266556   9.501   1.580   0.117
22227TIP3   OH266557   8.236   8.974   7.097
22227TIP3    H166558   8.192   8.941   7.019
22227TIP3    H266559   8.229   9.070   7.090
22228TIP3   OH266560   0.258   6.565   1.204
22228TIP3    H166561   0.252   6.648   1.251
22228TIP3    H266562   0.172   6.524   1.216
22229TIP3   OH266563   5.412   8.802   2.195
22229TIP3    H166564   5.473   8.750   2.247
22229TIP3    H266565   5.339   8.743   2.178
22230TIP3   OH266566   5.251   1.574   1.996
22230TIP3    H166567   5.294   1.627   1.930
22230TIP3    H266568   5.318   1.556   2.061
22231TIP3   OH266569   6.328   6.087   4.201
22231TIP3    H166570   6.411   6.040   4.196
22231TIP3    H266571   6.291   6.063   4.286
22232TIP3   OH266572   0.750   0.987   5.085
22232TIP3    H166573   0.702   0.921   5.035
22232TIP3    H266574   0.729   1.070   5.044
22233TIP3   OH266575   2.913   2.677   4.026
22233TIP3    H166576   2.944   2.723   3.948
22233TIP3    H266577   2.989   2.630   4.059
22234TIP3   OH266578   1.899   1.852   7.304
22234TIP3    H166579   1.837   1.791   7.263
22234TIP3    H266580   1.965   1.795   7.345
22235TIP3   OH266581   0.763   7.212   0.997
22235TIP3    H166582   0.850   7.171   0.995
22235TIP3    H266583   0.701   7.139   0.995
22236TIP3   OH266584   4.934   8.263   6.402
22236TIP3    H166585   4.867   8.330   6.414
22236TIP3    H266586   4.916   8.227   6.315
22237TIP3   OH266587   4.707   3.200   1.149
22237TIP3    H166588   4.747   3.214   1.063
22237TIP3    H266589   4.688   3.288   1.182
22238TIP3   OH266590   5.811   2.336   0.169
22238TIP3    H166591   5.788   2.424   0.139
22238TIP3    H266592   5.739   2.312   0.229
22239TIP3   OH266593   7.505   0.160   1.603
22239TIP3    H166594   7.429   0.165   1.546
22239TIP3    H266595   7.492   0.079   1.653
22240TIP3   OH266596   8.798   8.731   1.146
22240TIP3    H166597   8.764   8.808   1.099
22240TIP3    H266598   8.809   8.665   1.078
22241TIP3   OH266599   6.102   2.894   6.131
22241TIP3    H166600   6.188   2.906   6.172
22241TIP3    H266601   6.040   2.930   6.194
22242TIP3   OH266602   5.697   7.451   6.228
22242TIP3    H166603   5.671   7.437   6.137
22242TIP3    H266604   5.636   7.397   6.279
22243TIP3   OH266605   6.872   2.442   0.239
22243TIP3    H166606   6.865   2.479   0.327
22243TIP3    H266607   6.810   2.492   0.187
22244TIP3   OH266608   3.860   5.796   0.087
22244TIP3    H166609   3.875   5.887   0.062
22244TIP3    H266610   3.922   5.780   0.158
22245TIP3   OH266611   1.527   1.883   1.001
22245TIP3    H166612   1.458   1.947   1.021
22245TIP3    H266613   1.510   1.858   0.910
22246TIP3   OH266614   3.600   0.790   1.865
22246TIP3    H166615   3.557   0.876   1.869
22246TIP3    H266616   3.580   0.757   1.777
22247TIP3   OH266617   2.332   1.397   5.974
22247TIP3    H166618   2.319   1.308   5.941
22247TIP3    H266619   2.245   1.437   5.971
22248TIP3   OH266620   7.630   2.592   3.901
22248TIP3    H166621   7.567   2.524   3.875
22248TIP3    H266622   7.575   2.662   3.937
22249TIP3   OH266623   7.281   0.181   7.153
22249TIP3    H166624   7.258   0.264   7.193
22249TIP3    H266625   7.249   0.187   7.063
22250TIP3   OH266626   8.334   5.460   3.799
22250TIP3    H166627   8.341   5.454   3.704
22250TIP3    H266628   8.259   5.404   3.821
22251TIP3   OH266629   3.846   6.309   6.713
22251TIP3    H166630   3.828   6.223   6.676
22251TIP3    H266631   3.866   6.364   6.638
22252TIP3   OH266632   7.116   3.687   2.122
22252TIP3    H166633   7.129   3.705   2.215
22252TIP3    H266634   7.199   3.713   2.081
22253TIP3   OH266635   1.208   2.466   6.715
22253TIP3    H166636   1.230   2.555   6.688
22253TIP3    H266637   1.292   2.426   6.737
22254TIP3   OH266638   8.263   3.216   7.027
22254TIP3    H166639   8.342   3.181   6.986
22254TIP3    H266640   8.220   3.139   7.066
22255TIP3   OH266641   3.232   3.486   6.072
22255TIP3    H166642   3.177   3.449   6.004
22255TIP3    H266643   3.174   3.493   6.149
22256TIP3   OH266644   8.608   7.858   1.825
22256TIP3    H166645   8.609   7.769   1.789
22256TIP3    H266646   8.526   7.863   1.875
22257TIP3   OH266647   1.751   3.772   7.650
22257TIP3    H166648   1.843   3.770   7.625
22257TIP3    H266649   1.713   3.693   7.613
22258TIP3   OH266650   4.096   0.159   7.511
22258TIP3    H166651   4.076   0.131   7.600
22258TIP3    H266652   4.183   0.198   7.518
22259TIP3   OH266653   2.173   1.365   0.097
22259TIP3    H166654   2.202   1.438   0.042
22259TIP3    H266655   2.128   1.306   0.036
22260TIP3   OH266656   1.683   7.781   5.106
22260TIP3    H166657   1.684   7.827   5.190
22260TIP3    H266658   1.744   7.708   5.119
22261TIP3   OH266659   7.873   8.486   4.832
22261TIP3    H166660   7.856   8.495   4.926
22261TIP3    H266661   7.964   8.514   4.822
22262TIP3   OH266662   0.057   0.094   3.767
22262TIP3    H166663  -0.031   0.104   3.729
22262TIP3    H266664   0.044   0.037   3.843
22263TIP3   OH266665   5.436   4.661   7.078
22263TIP3    H166666   5.387   4.623   7.151
22263TIP3    H266667   5.460   4.587   7.023
22264TIP3   OH266668   6.407   2.035   3.462
22264TIP3    H166669   6.473   2.067   3.524
22264TIP3    H266670   6.404   2.102   3.394
22265TIP3   OH266671   0.897   2.554   0.703
22265TIP3    H166672   0.977   2.605   0.717
22265TIP3    H266673   0.914   2.501   0.626
22266TIP3   OH266674   9.525   0.232   5.821
22266TIP3    H166675   9.509   0.193   5.735
22266TIP3    H266676   9.534   0.158   5.880
22267TIP3   OH266677   2.497   4.442   4.476
22267TIP3    H166678   2.420   4.497   4.491
22267TIP3    H266679   2.464   4.363   4.435
22268TIP3   OH266680   8.844   3.220   4.673
22268TIP3    H166681   8.751   3.241   4.687
22268TIP3    H266682   8.882   3.300   4.636
22269TIP3   OH266683   7.744   5.243   0.190
22269TIP3    H166684   7.716   5.307   0.255
22269TIP3    H266685   7.672   5.179   0.186
22270TIP3   OH266686   5.060   2.514   3.859
22270TIP3    H166687   5.070   2.578   3.788
22270TIP3    H266688   5.006   2.444   3.822
22271TIP3   OH266689   7.152   8.912   4.053
22271TIP3    H166690   7.210   8.980   4.018
22271TIP3    H266691   7.086   8.898   3.985
22272TIP3   OH266692   8.932   7.203   3.256
22272TIP3    H166693   8.969   7.209   3.168
22272TIP3    H266694   8.862   7.138   3.249
22273TIP3   OH266695   7.672   3.119   6.439
22273TIP3    H166696   7.616   3.134   6.516
22273TIP3    H266697   7.668   3.024   6.425
22274TIP3   OH266698   0.776   8.750   5.005
22274TIP3    H166699   0.864   8.786   5.014
22274TIP3    H266700   0.787   8.655   5.012
22275TIP3   OH266701   5.971   3.864   0.737
22275TIP3    H166702   5.901   3.915   0.776
22275TIP3    H266703   5.985   3.792   0.798
22276TIP3   OH266704   5.001   0.879   2.932
22276TIP3    H166705   4.971   0.823   3.004
22276TIP3    H266706   5.020   0.818   2.860
22277TIP3   OH266707   5.896   2.801   5.724
22277TIP3    H166708   5.873   2.783   5.633
22277TIP3    H266709   5.814   2.792   5.772
22278TIP3   OH266710   5.683   3.543   2.801
22278TIP3    H166711   5.603   3.575   2.843
22278TIP3    H266712   5.736   3.510   2.874
22279TIP3   OH266713   5.955   8.673   2.708
22279TIP3    H166714   5.940   8.746   2.768
22279TIP3    H266715   5.987   8.714   2.628
22280TIP3   OH266716   0.468   2.029   7.610
22280TIP3    H166717   0.456   1.970   7.684
22280TIP3    H266718   0.403   2.098   7.624
22281TIP3   OH266719   0.541   5.890   1.397
22281TIP3    H166720   0.522   5.878   1.304
22281TIP3    H266721   0.536   5.985   1.410
22282TIP3   OH266722   6.914   2.599   3.516
22282TIP3    H166723   6.992   2.545   3.532
22282TIP3    H266724   6.866   2.554   3.447
22283TIP3   OH266725   7.380   2.873   1.548
22283TIP3    H166726   7.338   2.806   1.601
22283TIP3    H266727   7.309   2.931   1.521
22284TIP3   OH266728   5.979   6.978   1.689
22284TIP3    H166729   6.029   7.017   1.618
22284TIP3    H266730   5.950   6.893   1.654
22285TIP3   OH266731   0.526   7.833   2.421
22285TIP3    H166732   0.517   7.876   2.506
22285TIP3    H266733   0.561   7.746   2.441
22286TIP3   OH266734   7.950   7.285   0.012
22286TIP3    H166735   7.994   7.319  -0.067
22286TIP3    H266736   7.914   7.201  -0.015
22287TIP3   OH266737   0.174   1.970   6.744
22287TIP3    H166738   0.109   2.020   6.794
22287TIP3    H266739   0.250   1.966   6.802
22288TIP3   OH266740   6.309   2.903   1.946
22288TIP3    H166741   6.404   2.890   1.948
22288TIP3    H266742   6.286   2.900   1.853
22289TIP3   OH266743   7.803   2.877   0.049
22289TIP3    H166744   7.773   2.831   0.127
22289TIP3    H266745   7.866   2.941   0.082
22290TIP3   OH266746   4.600   3.439   0.765
22290TIP3    H166747   4.537   3.423   0.695
22290TIP3    H266748   4.547   3.439   0.845
22291TIP3   OH266749   8.310   4.321   6.724
22291TIP3    H166750   8.325   4.237   6.681
22291TIP3    H266751   8.229   4.354   6.687
22292TIP3   OH266752   7.221   8.262   4.370
22292TIP3    H166753   7.151   8.246   4.307
22292TIP3    H266754   7.187   8.330   4.427
22293TIP3   OH266755   7.693   1.760   0.333
22293TIP3    H166756   7.782   1.792   0.347
22293TIP3    H266757   7.649   1.831   0.285
22294TIP3   OH266758   3.672   7.879   4.599
22294TIP3    H166759   3.639   7.863   4.511
22294TIP3    H266760   3.741   7.943   4.588
22295TIP3   OH266761   0.499   4.359   0.952
22295TIP3    H166762   0.472   4.322   1.036
22295TIP3    H266763   0.460   4.446   0.950
22296TIP3   OH266764   7.674   1.301   0.653
22296TIP3    H166765   7.648   1.254   0.732
22296TIP3    H266766   7.615   1.376   0.649
22297TIP3   OH266767   8.703   7.229   5.073
22297TIP3    H166768   8.753   7.223   5.155
22297TIP3    H266769   8.617   7.261   5.101
22298TIP3   OH266770   0.136   3.041   5.070
22298TIP3    H166771   0.101   3.118   5.024
22298TIP3    H266772   0.149   3.070   5.160
22299TIP3   OH266773   8.399   1.895   6.071
22299TIP3    H166774   8.327   1.909   6.132
22299TIP3    H266775   8.367   1.928   5.987
22300TIP3   OH266776   4.560   4.492   7.568
22300TIP3    H166777   4.628   4.518   7.629
22300TIP3    H266778   4.602   4.426   7.513
22301TIP3   OH266779   5.876   2.852   0.120
22301TIP3    H166780   5.814   2.907   0.073
22301TIP3    H266781   5.961   2.871   0.080
22302TIP3   OH266782   0.863   6.343   2.629
22302TIP3    H166783   0.952   6.320   2.656
22302TIP3    H266784   0.866   6.438   2.615
22303TIP3   OH266785   3.169   4.539   0.443
22303TIP3    H166786   3.107   4.577   0.506
22303TIP3    H266787   3.243   4.600   0.442
22304TIP3   OH266788   8.106   6.289   1.767
22304TIP3    H166789   8.094   6.379   1.798
22304TIP3    H266790   8.190   6.290   1.722
22305TIP3   OH266791   8.690   8.585   5.875
22305TIP3    H166792   8.690   8.675   5.841
22305TIP3    H266793   8.650   8.533   5.805
22306TIP3   OH266794   6.331   0.332   1.345
22306TIP3    H166795   6.419   0.329   1.306
22306TIP3    H266796   6.278   0.276   1.289
22307TIP3   OH266797   3.652   3.151   0.844
22307TIP3    H166798   3.665   3.236   0.887
22307TIP3    H266799   3.594   3.171   0.770
22308TIP3   OH266800   9.364   2.631   2.192
22308TIP3    H166801   9.295   2.694   2.173
22308TIP3    H266802   9.317   2.548   2.207
22309TIP3   OH266803   7.209   2.332   1.911
22309TIP3    H166804   7.154   2.267   1.867
22309TIP3    H266805   7.276   2.354   1.848
22310TIP3   OH266806   0.522   1.007   3.408
22310TIP3    H166807   0.534   0.934   3.470
22310TIP3    H266808   0.516   0.964   3.323
22311TIP3   OH266809   6.641   7.426   1.091
22311TIP3    H166810   6.567   7.372   1.117
22311TIP3    H266811   6.602   7.496   1.037
22312TIP3   OH266812   1.107   6.969   7.747
22312TIP3    H166813   1.181   7.003   7.696
22312TIP3    H266814   1.036   7.032   7.731
22313TIP3   OH266815   1.727   2.349   4.196
22313TIP3    H166816   1.688   2.430   4.162
22313TIP3    H266817   1.652   2.294   4.219
22314TIP3   OH266818   4.291   8.077   5.937
22314TIP3    H166819   4.245   8.069   6.021
22314TIP3    H266820   4.371   8.124   5.957
22315TIP3   OH266821   4.852   8.659   1.234
22315TIP3    H166822   4.837   8.596   1.305
22315TIP3    H266823   4.800   8.625   1.161
22316TIP3   OH266824   2.720   2.942   4.418
22316TIP3    H166825   2.658   2.905   4.354
22316TIP3    H266826   2.723   3.035   4.396
22317TIP3   OH266827   0.829   3.597   3.794
22317TIP3    H166828   0.760   3.662   3.808
22317TIP3    H266829   0.833   3.548   3.876
22318TIP3   OH266830   8.360   2.405   0.534
22318TIP3    H166831   8.427   2.436   0.595
22318TIP3    H266832   8.391   2.320   0.505
22319TIP3   OH266833   9.254   2.993   6.258
22319TIP3    H166834   9.305   3.049   6.317
22319TIP3    H266835   9.167   3.033   6.257
22320TIP3   OH266836   2.621   5.872   6.334
22320TIP3    H166837   2.615   5.847   6.426
22320TIP3    H266838   2.624   5.967   6.334
22321TIP3   OH266839   3.881   0.995   0.866
22321TIP3    H166840   3.875   0.980   0.960
22321TIP3    H266841   3.880   0.907   0.828
22322TIP3   OH266842   5.916   0.941   6.471
22322TIP3    H166843   5.966   1.006   6.421
22322TIP3    H266844   5.979   0.874   6.493
22323TIP3   OH266845   1.318   8.744   5.335
22323TIP3    H166846   1.236   8.708   5.372
22323TIP3    H266847   1.379   8.670   5.337
22324TIP3   OH266848   3.794   4.674   1.016
22324TIP3    H166849   3.767   4.759   0.982
22324TIP3    H266850   3.741   4.662   1.095
22325TIP3   OH266851   4.864   5.479   2.640
22325TIP3    H166852   4.871   5.525   2.723
22325TIP3    H266853   4.903   5.393   2.657
22326TIP3   OH266854   8.271   6.775   5.378
22326TIP3    H166855   8.313   6.695   5.345
22326TIP3    H266856   8.177   6.758   5.372
22327TIP3   OH266857   8.346   7.236   0.313
22327TIP3    H166858   8.370   7.300   0.380
22327TIP3    H266859   8.375   7.275   0.231
22328TIP3   OH266860   6.003   7.426   6.000
22328TIP3    H166861   6.036   7.379   5.924
22328TIP3    H266862   5.982   7.358   6.064
22329TIP3   OH266863   9.345   7.580   6.067
22329TIP3    H166864   9.257   7.566   6.033
22329TIP3    H266865   9.374   7.493   6.095
22330TIP3   OH266866   6.541   6.021   1.879
22330TIP3    H166867   6.498   6.106   1.883
22330TIP3    H266868   6.469   5.958   1.870
22331TIP3   OH266869   2.439   2.807   4.639
22331TIP3    H166870   2.514   2.748   4.639
22331TIP3    H266871   2.367   2.755   4.676
22332TIP3   OH266872   0.318   6.158   7.475
22332TIP3    H166873   0.255   6.167   7.404
22332TIP3    H266874   0.400   6.138   7.432
22333TIP3   OH266875   8.580   4.654   5.170
22333TIP3    H166876   8.631   4.588   5.217
22333TIP3    H266877   8.489   4.626   5.180
22334TIP3   OH266878   5.269   1.846   4.727
22334TIP3    H166879   5.281   1.941   4.726
22334TIP3    H266880   5.224   1.826   4.646
22335TIP3   OH266881   4.600   7.324   2.730
22335TIP3    H166882   4.687   7.318   2.770
22335TIP3    H266883   4.580   7.417   2.728
22336TIP3   OH266884   1.891   4.685   0.882
22336TIP3    H166885   1.918   4.616   0.821
22336TIP3    H266886   1.956   4.681   0.953
22337TIP3   OH266887   2.583   2.230   1.586
22337TIP3    H166888   2.518   2.191   1.528
22337TIP3    H266889   2.667   2.206   1.549
22338TIP3   OH266890   1.288   1.653   5.991
22338TIP3    H166891   1.211   1.605   6.022
22338TIP3    H266892   1.352   1.643   6.062
22339TIP3   OH266893   7.860   0.832   3.319
22339TIP3    H166894   7.820   0.784   3.246
22339TIP3    H266895   7.791   0.890   3.351
22340TIP3   OH266896   4.923   3.296   6.684
22340TIP3    H166897   4.855   3.326   6.743
22340TIP3    H266898   4.888   3.312   6.596
22341TIP3   OH266899   8.965   8.961   3.357
22341TIP3    H166900   8.942   8.900   3.427
22341TIP3    H266901   8.919   8.926   3.280
22342TIP3   OH266902   1.466   8.998   7.577
22342TIP3    H166903   1.509   9.069   7.530
22342TIP3    H266904   1.382   8.986   7.531
22343TIP3   OH266905   8.862   8.077   3.831
22343TIP3    H166906   8.872   7.990   3.793
22343TIP3    H266907   8.857   8.136   3.755
22344TIP3   OH266908   7.454   8.891   6.381
22344TIP3    H166909   7.526   8.907   6.320
22344TIP3    H266910   7.493   8.900   6.467
22345TIP3   OH266911   5.306   6.276   3.302
22345TIP3    H166912   5.311   6.325   3.220
22345TIP3    H266913   5.213   6.281   3.327
22346TIP3   OH266914   3.505   0.769   5.424
22346TIP3    H166915   3.528   0.726   5.507
22346TIP3    H266916   3.487   0.697   5.364
22347TIP3   OH266917   6.405   5.503   6.627
22347TIP3    H166918   6.328   5.449   6.610
22347TIP3    H266919   6.425   5.544   6.543
22348TIP3   OH266920   7.042   0.118   5.480
22348TIP3    H166921   7.135   0.096   5.483
22348TIP3    H266922   7.040   0.212   5.459
22349TIP3   OH266923   1.371   2.131   2.706
22349TIP3    H166924   1.455   2.101   2.742
22349TIP3    H266925   1.390   2.153   2.615
22350TIP3   OH266926   0.236   7.012   3.368
22350TIP3    H166927   0.187   7.056   3.298
22350TIP3    H266928   0.235   6.920   3.341
22351TIP3   OH266929   8.562   3.386   2.093
22351TIP3    H166930   8.620   3.390   2.169
22351TIP3    H266931   8.474   3.389   2.129
22352TIP3   OH266932   1.937   7.983   3.606
22352TIP3    H166933   1.895   8.068   3.606
22352TIP3    H266934   1.897   7.936   3.533
22353TIP3   OH266935   5.196   0.216   1.095
22353TIP3    H166936   5.151   0.200   1.012
22353TIP3    H266937   5.265   0.149   1.098
22354TIP3   OH266938   1.765   5.097   4.284
22354TIP3    H166939   1.793   5.057   4.201
22354TIP3    H266940   1.837   5.155   4.308
22355TIP3   OH266941   2.263   8.509   6.304
22355TIP3    H166942   2.171   8.492   6.323
22355TIP3    H266943   2.264   8.539   6.213
22356TIP3   OH266944   3.631   4.835   6.809
22356TIP3    H166945   3.553   4.786   6.782
22356TIP3    H266946   3.662   4.877   6.728
22357TIP3   OH266947   2.318   1.806   1.435
22357TIP3    H166948   2.226   1.787   1.418
22357TIP3    H266949   2.320   1.827   1.529
22358TIP3   OH266950   7.538   7.540   1.290
22358TIP3    H166951   7.565   7.480   1.220
22358TIP3    H266952   7.619   7.560   1.336
22359TIP3   OH266953   7.038   3.315   6.756
22359TIP3    H166954   7.048   3.407   6.779
22359TIP3    H266955   6.971   3.316   6.687
22360TIP3   OH266956   6.687   2.195   4.266
22360TIP3    H166957   6.760   2.213   4.207
22360TIP3    H266958   6.698   2.259   4.337
22361TIP3   OH266959   9.410   2.237   1.457
22361TIP3    H166960   9.440   2.153   1.423
22361TIP3    H266961   9.316   2.226   1.468
22362TIP3   OH266962   4.986   0.656   1.579
22362TIP3    H166963   4.895   0.638   1.554
22362TIP3    H266964   4.991   0.629   1.671
22363TIP3   OH266965   1.541   1.421   1.651
22363TIP3    H166966   1.618   1.432   1.708
22363TIP3    H266967   1.518   1.328   1.661
22364TIP3   OH266968   3.182   3.784   7.284
22364TIP3    H166969   3.097   3.762   7.247
22364TIP3    H266970   3.224   3.838   7.218
22365TIP3   OH266971   6.912   4.123   6.164
22365TIP3    H166972   6.934   4.029   6.161
22365TIP3    H266973   6.966   4.162   6.096
22366TIP3   OH266974   8.689   0.194   0.228
22366TIP3    H166975   8.620   0.230   0.285
22366TIP3    H266976   8.740   0.137   0.285
22367TIP3   OH266977   2.001   5.935   0.470
22367TIP3    H166978   2.088   5.949   0.432
22367TIP3    H266979   1.963   5.866   0.417
22368TIP3   OH266980   1.541   0.414   2.920
22368TIP3    H166981   1.457   0.381   2.886
22368TIP3    H266982   1.607   0.370   2.867
22369TIP3   OH266983   1.086   0.978   3.656
22369TIP3    H166984   1.087   1.039   3.729
22369TIP3    H266985   0.993   0.957   3.643
22370TIP3   OH266986   7.880   6.571   2.032
22370TIP3    H166987   7.897   6.519   2.110
22370TIP3    H266988   7.813   6.523   1.984
22371TIP3   OH266989   1.598   1.263   2.382
22371TIP3    H166990   1.551   1.183   2.360
22371TIP3    H266991   1.591   1.317   2.304
22372TIP3   OH266992   0.988   2.545   3.674
22372TIP3    H166993   1.060   2.603   3.699
22372TIP3    H266994   0.947   2.588   3.599
22373TIP3   OH266995   2.191   6.897   7.589
22373TIP3    H166996   2.193   6.840   7.667
22373TIP3    H266997   2.278   6.887   7.550
22374TIP3   OH266998   7.185   4.264   2.163
22374TIP3    H166999   7.192   4.297   2.074
22374TIP3    H267000   7.097   4.290   2.192
22375TIP3   OH267001   5.993   0.139   3.964
22375TIP3    H167002   6.003   0.097   4.049
22375TIP3    H267003   5.906   0.111   3.933
22376TIP3   OH267004   5.378   5.207   5.956
22376TIP3    H167005   5.345   5.253   6.033
22376TIP3    H267006   5.471   5.230   5.953
22377TIP3   OH267007   7.020   7.700   2.917
22377TIP3    H167008   7.074   7.626   2.947
22377TIP3    H267009   6.930   7.670   2.927
22378TIP3   OH267010   1.697   1.698   1.881
22378TIP3    H167011   1.692   1.752   1.960
22378TIP3    H267012   1.782   1.718   1.843
22379TIP3   OH267013   5.694   8.486   5.332
22379TIP3    H167014   5.663   8.529   5.253
22379TIP3    H267015   5.615   8.473   5.385
22380TIP3   OH267016   0.481   4.119   5.658
22380TIP3    H167017   0.480   4.214   5.666
22380TIP3    H267018   0.431   4.088   5.734
22381TIP3   OH267019   3.307   5.113   1.459
22381TIP3    H167020   3.227   5.130   1.509
22381TIP3    H267021   3.350   5.198   1.452
22382TIP3   OH267022   8.836   0.014   5.611
22382TIP3    H167023   8.745   0.024   5.638
22382TIP3    H267024   8.884   0.079   5.662
22383TIP3   OH267025   3.084   3.390   6.323
22383TIP3    H167026   3.146   3.454   6.357
22383TIP3    H267027   3.080   3.322   6.391
22384TIP3   OH267028   8.254   6.292   7.583
22384TIP3    H167029   8.295   6.250   7.659
22384TIP3    H267030   8.161   6.272   7.592
22385TIP3   OH267031   1.064   8.495   6.316
22385TIP3    H167032   1.126   8.497   6.389
22385TIP3    H267033   1.039   8.586   6.303
22386TIP3   OH267034   0.718   0.215   2.737
22386TIP3    H167035   0.709   0.152   2.666
22386TIP3    H267036   0.628   0.231   2.766
22387TIP3   OH267037   8.143   4.331   2.496
22387TIP3    H167038   8.119   4.341   2.404
22387TIP3    H267039   8.224   4.380   2.505
22388TIP3   OH267040   3.507   8.272   0.576
22388TIP3    H167041   3.498   8.264   0.481
22388TIP3    H267042   3.450   8.203   0.611
22389TIP3   OH267043   2.492   4.374   2.610
22389TIP3    H167044   2.477   4.433   2.535
22389TIP3    H267045   2.452   4.291   2.584
22390TIP3   OH267046   8.481   7.863   0.393
22390TIP3    H167047   8.394   7.840   0.359
22390TIP3    H267048   8.531   7.888   0.316
22391TIP3   OH267049   6.612   8.472   0.361
22391TIP3    H167050   6.550   8.521   0.307
22391TIP3    H267051   6.570   8.466   0.447
22392TIP3   OH267052   1.283   3.163   0.662
22392TIP3    H167053   1.316   3.127   0.580
22392TIP3    H267054   1.195   3.128   0.671
22393TIP3   OH267055   1.039   3.550   3.111
22393TIP3    H167056   1.061   3.608   3.038
22393TIP3    H267057   1.078   3.593   3.187
22394TIP3   OH267058   0.394   1.885   0.419
22394TIP3    H167059   0.445   1.838   0.353
22394TIP3    H267060   0.456   1.901   0.491
22395TIP3   OH267061   5.437   2.751   2.695
22395TIP3    H167062   5.380   2.811   2.742
22395TIP3    H267063   5.458   2.683   2.759
22396TIP3   OH267064   5.077   4.992   7.405
22396TIP3    H167065   5.130   4.979   7.327
22396TIP3    H267066   5.003   5.045   7.375
22397TIP3   OH267067   7.780   1.700   0.934
22397TIP3    H167068   7.758   1.697   0.841
22397TIP3    H267069   7.827   1.618   0.950
22398TIP3   OH267070   2.605   0.373   0.304
22398TIP3    H167071   2.601   0.444   0.368
22398TIP3    H267072   2.529   0.387   0.247
22399TIP3   OH267073   2.938   2.287   3.454
22399TIP3    H167074   2.926   2.382   3.452
22399TIP3    H267075   2.865   2.253   3.401
22400TIP3   OH267076   8.788   3.497   6.928
22400TIP3    H167077   8.714   3.503   6.869
22400TIP3    H267078   8.855   3.554   6.890
22401TIP3   OH267079   2.209   1.977   3.220
22401TIP3    H167080   2.270   1.903   3.219
22401TIP3    H267081   2.141   1.950   3.281
22402TIP3   OH267082   4.260   6.124   0.588
22402TIP3    H167083   4.206   6.058   0.545
22402TIP3    H267084   4.229   6.207   0.553
22403TIP3   OH267085   5.199   5.735   4.044
22403TIP3    H167086   5.224   5.799   4.111
22403TIP3    H267087   5.176   5.656   4.094
22404TIP3   OH267088   5.975   0.572   2.792
22404TIP3    H167089   5.975   0.544   2.700
22404TIP3    H267090   6.064   0.557   2.822
22405TIP3   OH267091   1.547   7.459   5.798
22405TIP3    H167092   1.491   7.528   5.836
22405TIP3    H267093   1.585   7.415   5.874
22406TIP3   OH267094   8.739   5.469   0.082
22406TIP3    H167095   8.725   5.409   0.155
22406TIP3    H267096   8.737   5.556   0.121
22407TIP3   OH267097   3.410   1.620   0.594
22407TIP3    H167098   3.348   1.693   0.604
22407TIP3    H267099   3.400   1.569   0.675
22408TIP3   OH267100   6.734   3.425   5.039
22408TIP3    H167101   6.796   3.488   5.004
22408TIP3    H267102   6.657   3.432   4.983
22409TIP3   OH267103   2.864   2.306   3.885
22409TIP3    H167104   2.841   2.353   3.965
22409TIP3    H267105   2.933   2.360   3.845
22410TIP3   OH267106   1.201   2.217   6.011
22410TIP3    H167107   1.215   2.266   6.092
22410TIP3    H267108   1.224   2.279   5.942
22411TIP3   OH267109   5.667   3.201   3.485
22411TIP3    H167110   5.608   3.201   3.561
22411TIP3    H267111   5.755   3.209   3.524
22412TIP3   OH267112   4.911   4.737   3.690
22412TIP3    H167113   4.826   4.728   3.733
22412TIP3    H267114   4.890   4.750   3.598
22413TIP3   OH267115   4.766   8.914   1.784
22413TIP3    H167116   4.701   8.982   1.803
22413TIP3    H267117   4.831   8.958   1.730
22414TIP3   OH267118   2.159   1.067   1.038
22414TIP3    H167119   2.139   0.976   1.064
22414TIP3    H267120   2.223   1.058   0.968
22415TIP3   OH267121   4.858   0.360   0.128
22415TIP3    H167122   4.824   0.413   0.057
22415TIP3    H267123   4.790   0.293   0.143
22416TIP3   OH267124   9.265   2.947   7.128
22416TIP3    H167125   9.241   2.946   7.036
22416TIP3    H267126   9.182   2.932   7.174
22417TIP3   OH267127   7.399   8.826   6.698
22417TIP3    H167128   7.489   8.858   6.689
22417TIP3    H267129   7.408   8.738   6.734
22418TIP3   OH267130   1.767   0.109   0.507
22418TIP3    H167131   1.732   0.027   0.541
22418TIP3    H267132   1.850   0.121   0.554
22419TIP3   OH267133   5.819   0.121   0.859
22419TIP3    H167134   5.887   0.092   0.919
22419TIP3    H267135   5.834   0.215   0.849
22420TIP3   OH267136   8.845   7.152   5.298
22420TIP3    H167137   8.856   7.195   5.382
22420TIP3    H267138   8.789   7.077   5.316
22421TIP3   OH267139   1.594   5.548   7.500
22421TIP3    H167140   1.660   5.566   7.433
22421TIP3    H267141   1.539   5.626   7.501
22422TIP3   OH267142   1.505   0.735   2.473
22422TIP3    H167143   1.483   0.648   2.438
22422TIP3    H267144   1.421   0.777   2.485
22423TIP3   OH267145   7.088   8.602   7.490
22423TIP3    H167146   7.034   8.679   7.503
22423TIP3    H267147   7.171   8.636   7.455
22424TIP3   OH267148   4.125   8.655   0.177
22424TIP3    H167149   4.163   8.742   0.184
22424TIP3    H267150   4.145   8.627   0.088
22425TIP3   OH267151   1.930   8.622   1.163
22425TIP3    H167152   1.986   8.576   1.225
22425TIP3    H267153   1.961   8.713   1.166
22426TIP3   OH267154   2.824   1.262   4.659
22426TIP3    H167155   2.857   1.312   4.584
22426TIP3    H267156   2.738   1.232   4.632
22427TIP3   OH267157   5.473   3.927   1.387
22427TIP3    H167158   5.440   3.938   1.476
22427TIP3    H267159   5.421   3.988   1.334
22428TIP3   OH267160   7.135   6.505   5.327
22428TIP3    H167161   7.064   6.556   5.367
22428TIP3    H267162   7.120   6.415   5.356
22429TIP3   OH267163   2.843   6.013   1.778
22429TIP3    H167164   2.773   5.952   1.804
22429TIP3    H267165   2.898   5.963   1.718
22430TIP3   OH267166   6.390   8.804   6.701
22430TIP3    H167167   6.367   8.717   6.733
22430TIP3    H267168   6.447   8.788   6.626
22431TIP3   OH267169   2.714   4.359   7.522
22431TIP3    H167170   2.639   4.334   7.577
22431TIP3    H267171   2.676   4.377   7.436
22432TIP3   OH267172   6.842   2.792   6.315
22432TIP3    H167173   6.832   2.869   6.371
22432TIP3    H267174   6.922   2.750   6.346
22433TIP3   OH267175   8.166   7.949   7.364
22433TIP3    H167176   8.138   8.039   7.380
22433TIP3    H267177   8.262   7.954   7.360
22434TIP3   OH267178   5.168   6.339   0.265
22434TIP3    H167179   5.204   6.396   0.197
22434TIP3    H267180   5.138   6.400   0.333
22435TIP3   OH267181   6.623   8.739   7.457
22435TIP3    H167182   6.711   8.717   7.427
22435TIP3    H267183   6.636   8.779   7.543
22436TIP3   OH267184   9.392   7.507   1.888
22436TIP3    H167185   9.311   7.495   1.936
22436TIP3    H267186   9.437   7.423   1.894
22437TIP3   OH267187   3.532   3.772   0.251
22437TIP3    H167188   3.602   3.785   0.315
22437TIP3    H267189   3.563   3.816   0.172
22438TIP3   OH267190   1.515   6.172   1.157
22438TIP3    H167191   1.548   6.127   1.235
22438TIP3    H267192   1.560   6.257   1.158
22439TIP3   OH267193   8.618   0.293   2.758
22439TIP3    H167194   8.604   0.280   2.852
22439TIP3    H267195   8.644   0.207   2.725
22440TIP3   OH267196   3.956   0.423   6.371
22440TIP3    H167197   3.966   0.412   6.276
22440TIP3    H267198   4.045   0.420   6.405
22441TIP3   OH267199   6.339   3.709   4.376
22441TIP3    H167200   6.298   3.744   4.297
22441TIP3    H267201   6.320   3.616   4.374
22442TIP3   OH267202   4.350   6.638   4.498
22442TIP3    H167203   4.329   6.638   4.405
22442TIP3    H267204   4.445   6.651   4.501
22443TIP3   OH267205   3.425   5.960   2.384
22443TIP3    H167206   3.334   5.969   2.411
22443TIP3    H267207   3.475   6.008   2.450
22444TIP3   OH267208   2.788   8.370   5.676
22444TIP3    H167209   2.736   8.431   5.624
22444TIP3    H267210   2.814   8.302   5.615
22445TIP3   OH267211   6.739   2.925   1.116
22445TIP3    H167212   6.806   2.969   1.064
22445TIP3    H267213   6.671   2.901   1.053
22446TIP3   OH267214   6.475   0.930   0.074
22446TIP3    H167215   6.516   0.917   0.160
22446TIP3    H267216   6.514   0.862   0.018
22447TIP3   OH267217   2.584   2.549   3.715
22447TIP3    H167218   2.579   2.479   3.780
22447TIP3    H267219   2.493   2.579   3.705
22448TIP3   OH267220   6.906   2.951   3.707
22448TIP3    H167221   6.906   2.919   3.617
22448TIP3    H267222   6.982   2.909   3.747
22449TIP3   OH267223   3.438   2.656   2.296
22449TIP3    H167224   3.500   2.719   2.260
22449TIP3    H267225   3.413   2.691   2.381
22450TIP3   OH267226   5.141   3.401   6.897
22450TIP3    H167227   5.069   3.380   6.839
22450TIP3    H267228   5.194   3.465   6.848
22451TIP3   OH267229   7.893   3.565   2.828
22451TIP3    H167230   7.964   3.508   2.855
22451TIP3    H267231   7.814   3.514   2.844
22452TIP3   OH267232   4.454   1.288   5.372
22452TIP3    H167233   4.369   1.321   5.402
22452TIP3    H267234   4.517   1.354   5.403
22453TIP3   OH267235   1.336   1.383   5.013
22453TIP3    H167236   1.342   1.371   5.108
22453TIP3    H267237   1.333   1.478   5.000
22454TIP3   OH267238   1.252   0.171   0.069
22454TIP3    H167239   1.318   0.238   0.087
22454TIP3    H267240   1.302   0.094   0.043
22455TIP3   OH267241   3.873   0.815   7.533
22455TIP3    H167242   3.898   0.724   7.549
22455TIP3    H267243   3.779   0.817   7.550
22456TIP3   OH267244   4.055   6.393   7.385
22456TIP3    H167245   4.141   6.417   7.351
22456TIP3    H267246   3.994   6.420   7.318
22457TIP3   OH267247   4.827   0.186   4.331
22457TIP3    H167248   4.827   0.279   4.356
22457TIP3    H267249   4.755   0.179   4.268
22458TIP3   OH267250   9.366   1.442   1.375
22458TIP3    H167251   9.287   1.444   1.429
22458TIP3    H267252   9.438   1.436   1.437
22459TIP3   OH267253   0.301   4.407   2.990
22459TIP3    H167254   0.290   4.336   3.054
22459TIP3    H267255   0.396   4.418   2.984
22460TIP3   OH267256   5.921   8.727   0.936
22460TIP3    H167257   6.012   8.723   0.968
22460TIP3    H267258   5.915   8.811   0.891
22461TIP3   OH267259   3.104   8.174   2.048
22461TIP3    H167260   3.020   8.197   2.008
22461TIP3    H267261   3.080   8.135   2.132
22462TIP3   OH267262   8.180   4.216   6.311
22462TIP3    H167263   8.175   4.130   6.270
22462TIP3    H267264   8.260   4.213   6.363
22463TIP3   OH267265   8.903   0.275   1.756
22463TIP3    H167266   8.869   0.318   1.834
22463TIP3    H267267   8.901   0.343   1.688
22464TIP3   OH267268   4.877   5.174   7.361
22464TIP3    H167269   4.878   5.269   7.363
22464TIP3    H267270   4.836   5.152   7.277
22465TIP3   OH267271   6.102   7.205   1.005
22465TIP3    H167272   6.171   7.152   0.965
22465TIP3    H267273   6.036   7.213   0.936
22466TIP3   OH267274   6.765   1.624   2.718
22466TIP3    H167275   6.727   1.699   2.765
22466TIP3    H267276   6.842   1.601   2.770
22467TIP3   OH267277   2.067   8.402   1.307
22467TIP3    H167278   1.977   8.380   1.283
22467TIP3    H267279   2.121   8.358   1.242
22468TIP3   OH267280   4.806   6.002   6.918
22468TIP3    H167281   4.879   5.967   6.968
22468TIP3    H267282   4.770   5.927   6.871
22469TIP3   OH267283   5.325   6.266   4.170
22469TIP3    H167284   5.418   6.260   4.193
22469TIP3    H267285   5.324   6.262   4.075
22470TIP3   OH267286   0.303   8.921   3.781
22470TIP3    H167287   0.386   8.967   3.779
22470TIP3    H267288   0.243   8.979   3.827
22471TIP3   OH267289   0.979   3.744   1.054
22471TIP3    H167290   0.911   3.811   1.062
22471TIP3    H267291   1.060   3.791   1.075
22472TIP3   OH267292   2.025   2.455   2.166
22472TIP3    H167293   2.000   2.372   2.127
22472TIP3    H267294   2.100   2.434   2.221
22473TIP3   OH267295   9.194   4.997   2.938
22473TIP3    H167296   9.257   5.044   2.993
22473TIP3    H267297   9.192   4.908   2.975
22474TIP3   OH267298   4.644   6.408   1.671
22474TIP3    H167299   4.652   6.488   1.619
22474TIP3    H267300   4.682   6.340   1.616
22475TIP3   OH267301   2.566   1.241   1.587
22475TIP3    H167302   2.632   1.185   1.546
22475TIP3    H267303   2.614   1.319   1.616
22476TIP3   OH267304   5.995   3.808   7.527
22476TIP3    H167305   5.960   3.841   7.610
22476TIP3    H267306   6.081   3.849   7.519
22477TIP3   OH267307   2.598   6.127   5.067
22477TIP3    H167308   2.691   6.123   5.046
22477TIP3    H267309   2.595   6.161   5.156
22478TIP3   OH267310   5.456   2.624   6.955
22478TIP3    H167311   5.400   2.575   6.895
22478TIP3    H267312   5.543   2.620   6.916
22479TIP3   OH267313   6.185   1.955   2.125
22479TIP3    H167314   6.209   1.876   2.077
22479TIP3    H267315   6.149   2.014   2.058
22480TIP3   OH267316   2.353   0.903   1.809
22480TIP3    H167317   2.308   0.961   1.871
22480TIP3    H267318   2.302   0.910   1.729
22481TIP3   OH267319   1.199   5.689   2.808
22481TIP3    H167320   1.116   5.734   2.799
22481TIP3    H267321   1.238   5.692   2.720
22482TIP3   OH267322   7.368   0.566   4.454
22482TIP3    H167323   7.306   0.626   4.414
22482TIP3    H267324   7.425   0.538   4.382
22483TIP3   OH267325   9.076   4.072   4.981
22483TIP3    H167326   9.149   4.058   4.920
22483TIP3    H267327   9.031   3.987   4.983
22484TIP3   OH267328   1.207   6.859   1.696
22484TIP3    H167329   1.139   6.816   1.645
22484TIP3    H267330   1.287   6.809   1.676
22485TIP3   OH267331   4.846   2.412   3.653
22485TIP3    H167332   4.905   2.344   3.686
22485TIP3    H267333   4.885   2.440   3.570
22486TIP3   OH267334   9.445   1.373   3.559
22486TIP3    H167335   9.529   1.420   3.563
22486TIP3    H267336   9.416   1.370   3.651
22487TIP3   OH267337   8.748   2.885   3.100
22487TIP3    H167338   8.792   2.850   3.178
22487TIP3    H267339   8.816   2.934   3.054
22488TIP3   OH267340   0.300   7.930   0.274
22488TIP3    H167341   0.319   7.837   0.259
22488TIP3    H267342   0.318   7.972   0.190
22489TIP3   OH267343   3.333   4.597   4.077
22489TIP3    H167344   3.264   4.571   4.139
22489TIP3    H267345   3.407   4.621   4.132
22490TIP3   OH267346   7.771   5.869   2.584
22490TIP3    H167347   7.777   5.889   2.491
22490TIP3    H267348   7.817   5.785   2.594
22491TIP3   OH267349   0.638   2.309   1.314
22491TIP3    H167350   0.590   2.387   1.342
22491TIP3    H267351   0.705   2.341   1.255
22492TIP3   OH267352   8.320   7.542   5.756
22492TIP3    H167353   8.309   7.636   5.772
22492TIP3    H267354   8.394   7.516   5.812
22493TIP3   OH267355   5.939   5.329   0.451
22493TIP3    H167356   5.944   5.346   0.545
22493TIP3    H267357   5.873   5.389   0.419
22494TIP3   OH267358   4.494   3.915   7.156
22494TIP3    H167359   4.561   3.854   7.126
22494TIP3    H267360   4.544   3.991   7.188
22495TIP3   OH267361   0.050   0.865   1.916
22495TIP3    H167362   0.067   0.842   1.824
22495TIP3    H267363   0.111   0.812   1.966
22496TIP3   OH267364   1.204   3.805   0.453
22496TIP3    H167365   1.210   3.873   0.520
22496TIP3    H267366   1.110   3.799   0.433
22497TIP3   OH267367   6.415   1.188   2.876
22497TIP3    H167368   6.511   1.177   2.876
22497TIP3    H267369   6.391   1.183   2.968
22498TIP3   OH267370   1.325   5.972   1.756
22498TIP3    H167371   1.289   5.896   1.710
22498TIP3    H267372   1.356   6.030   1.686
22499TIP3   OH267373   6.527   4.873   2.322
22499TIP3    H167374   6.571   4.807   2.269
22499TIP3    H267375   6.569   4.866   2.408
22500TIP3   OH267376   6.797   3.302   5.298
22500TIP3    H167377   6.766   3.335   5.213
22500TIP3    H267378   6.887   3.273   5.280
22501TIP3   OH267379   8.417   7.869   7.100
22501TIP3    H167380   8.472   7.883   7.023
22501TIP3    H267381   8.331   7.901   7.074
22502TIP3   OH267382   0.512   2.059   2.607
22502TIP3    H167383   0.554   1.984   2.649
22502TIP3    H267384   0.462   2.021   2.535
22503TIP3   OH267385   3.809   4.035   1.669
22503TIP3    H167386   3.763   3.955   1.694
22503TIP3    H267387   3.902   4.013   1.677
22504TIP3   OH267388   0.318   1.537   3.901
22504TIP3    H167389   0.380   1.484   3.852
22504TIP3    H267390   0.321   1.623   3.859
22505TIP3   OH267391   0.270   3.914   1.901
22505TIP3    H167392   0.247   3.998   1.941
22505TIP3    H267393   0.204   3.900   1.834
22506TIP3   OH267394   6.752   1.338   6.082
22506TIP3    H167395   6.845   1.359   6.084
22506TIP3    H267396   6.730   1.333   5.989
22507TIP3   OH267397   6.445   6.930   6.987
22507TIP3    H167398   6.481   6.975   7.063
22507TIP3    H267399   6.354   6.959   6.982
22508TIP3   OH267400   2.984   3.430   7.803
22508TIP3    H167401   2.889   3.423   7.789
22508TIP3    H267402   2.998   3.520   7.831
22509TIP3   OH267403   8.285   1.420   7.633
22509TIP3    H167404   8.305   1.339   7.585
22509TIP3    H267405   8.364   1.437   7.685
22510TIP3   OH267406   0.122   3.074   0.054
22510TIP3    H167407   0.136   3.059   0.148
22510TIP3    H267408   0.123   2.987   0.015
22511TIP3   OH267409   3.656   3.365   1.506
22511TIP3    H167410   3.576   3.394   1.548
22511TIP3    H267411   3.694   3.445   1.469
22512TIP3   OH267412   5.731   5.523   3.199
22512TIP3    H167413   5.798   5.463   3.166
22512TIP3    H267414   5.765   5.610   3.179
22513TIP3   OH267415   8.431   8.333   7.352
22513TIP3    H167416   8.403   8.421   7.376
22513TIP3    H267417   8.451   8.339   7.258
22514TIP3   OH267418   3.908   2.378   3.614
22514TIP3    H167419   3.956   2.298   3.636
22514TIP3    H267420   3.839   2.348   3.554
22515TIP3   OH267421   8.072   0.191   1.109
22515TIP3    H167422   8.009   0.214   1.177
22515TIP3    H267423   8.020   0.149   1.041
22516TIP3   OH267424   6.421   6.273   1.266
22516TIP3    H167425   6.377   6.189   1.256
22516TIP3    H267426   6.514   6.251   1.269
22517TIP3   OH267427   8.457   3.582   4.939
22517TIP3    H167428   8.514   3.569   4.863
22517TIP3    H267429   8.507   3.548   5.013
22518TIP3   OH267430   0.899   2.354   4.492
22518TIP3    H167431   0.871   2.417   4.559
22518TIP3    H267432   0.843   2.278   4.506
22519TIP3   OH267433   6.368   4.816   0.333
22519TIP3    H167434   6.302   4.852   0.274
22519TIP3    H267435   6.415   4.893   0.365
22520TIP3   OH267436   0.719   1.320   1.078
22520TIP3    H167437   0.783   1.249   1.080
22520TIP3    H267438   0.771   1.400   1.072
22521TIP3   OH267439   9.021   5.644   5.588
22521TIP3    H167440   8.980   5.716   5.636
22521TIP3    H267441   9.038   5.578   5.654
22522TIP3   OH267442   6.023   2.202   3.579
22522TIP3    H167443   6.071   2.284   3.586
22522TIP3    H267444   5.952   2.220   3.517
22523TIP3   OH267445   4.731   0.199   6.486
22523TIP3    H167446   4.734   0.275   6.544
22523TIP3    H267447   4.637   0.186   6.469
22524TIP3   OH267448   4.886   4.811   6.360
22524TIP3    H167449   4.948   4.821   6.432
22524TIP3    H267450   4.938   4.823   6.281
22525TIP3   OH267451   4.582   3.105   5.069
22525TIP3    H167452   4.501   3.153   5.052
22525TIP3    H267453   4.571   3.022   5.022
22526TIP3   OH267454   8.019   5.636   3.590
22526TIP3    H167455   8.076   5.691   3.643
22526TIP3    H267456   8.073   5.560   3.569
22527TIP3   OH267457   0.141   1.232   7.027
22527TIP3    H167458   0.152   1.145   7.066
22527TIP3    H267459   0.123   1.214   6.935
22528TIP3   OH267460   2.556   3.251   4.800
22528TIP3    H167461   2.544   3.227   4.892
22528TIP3    H267462   2.539   3.170   4.752
22529TIP3   OH267463   0.704   1.980   1.299
22529TIP3    H167464   0.665   1.905   1.254
22529TIP3    H267465   0.649   2.054   1.273
22530TIP3   OH267466   0.689   3.380   6.718
22530TIP3    H167467   0.706   3.298   6.763
22530TIP3    H267468   0.619   3.359   6.656
22531TIP3   OH267469   7.298   7.078   1.730
22531TIP3    H167470   7.235   7.008   1.746
22531TIP3    H267471   7.275   7.111   1.643
22532TIP3   OH267472   7.490   3.459   3.961
22532TIP3    H167473   7.454   3.502   3.883
22532TIP3    H267474   7.454   3.370   3.958
22533TIP3   OH267475   6.006   0.855   2.727
22533TIP3    H167476   5.980   0.767   2.752
22533TIP3    H267477   6.030   0.897   2.810
22534TIP3   OH267478   5.516   8.095   2.005
22534TIP3    H167479   5.446   8.080   1.942
22534TIP3    H267480   5.486   8.169   2.057
22535TIP3   OH267481   3.337   0.835   4.299
22535TIP3    H167482   3.281   0.836   4.377
22535TIP3    H267483   3.377   0.922   4.297
22536TIP3   OH267484   3.696   7.201   0.005
22536TIP3    H167485   3.609   7.163   0.013
22536TIP3    H267486   3.681   7.296   0.010
22537TIP3   OH267487   5.652   2.228   2.329
22537TIP3    H167488   5.646   2.317   2.365
22537TIP3    H267489   5.573   2.219   2.275
22538TIP3   OH267490   1.932   2.722   3.983
22538TIP3    H167491   1.881   2.728   4.063
22538TIP3    H267492   2.003   2.785   3.994
22539TIP3   OH267493   6.906   1.274   2.681
22539TIP3    H167494   6.965   1.254   2.608
22539TIP3    H267495   6.961   1.272   2.758
22540TIP3   OH267496   3.381   5.693   7.782
22540TIP3    H167497   3.287   5.680   7.769
22540TIP3    H267498   3.404   5.765   7.723
22541TIP3   OH267499   5.019   2.103   3.322
22541TIP3    H167500   5.075   2.152   3.261
22541TIP3    H267501   4.970   2.042   3.266
22542TIP3   OH267502   3.249   0.021   2.677
22542TIP3    H167503   3.255  -0.053   2.617
22542TIP3    H267504   3.163   0.011   2.719
22543TIP3   OH267505   7.329   7.257   0.815
22543TIP3    H167506   7.329   7.275   0.721
22543TIP3    H267507   7.366   7.336   0.854
22544TIP3   OH267508   3.799   8.754   4.372
22544TIP3    H167509   3.780   8.810   4.448
22544TIP3    H267510   3.713   8.724   4.343
22545TIP3   OH267511   0.656   1.086   7.706
22545TIP3    H167512   0.681   1.132   7.625
22545TIP3    H267513   0.630   1.156   7.766
22546TIP3   OH267514   1.391   3.746   6.451
22546TIP3    H167515   1.442   3.812   6.403
22546TIP3    H267516   1.405   3.665   6.403
22547TIP3   OH267517   3.493   7.927   6.563
22547TIP3    H167518   3.550   7.850   6.564
22547TIP3    H267519   3.492   7.956   6.654
22548TIP3   OH267520   7.392   1.810   1.935
22548TIP3    H167521   7.488   1.807   1.934
22548TIP3    H267522   7.365   1.719   1.926
22549TIP3   OH267523   4.243   7.574   3.023
22549TIP3    H167524   4.304   7.506   2.997
22549TIP3    H267525   4.229   7.560   3.116
22550TIP3   OH267526   8.792   4.753   2.358
22550TIP3    H167527   8.883   4.773   2.377
22550TIP3    H267528   8.748   4.757   2.443
22551TIP3   OH267529   3.935   0.021   7.043
22551TIP3    H167530   3.899   0.003   7.129
22551TIP3    H267531   3.859   0.041   6.988
22552TIP3   OH267532   5.559   7.738   6.583
22552TIP3    H167533   5.585   7.649   6.560
22552TIP3    H267534   5.622   7.794   6.539
22553TIP3   OH267535   9.370   0.842   3.657
22553TIP3    H167536   9.375   0.855   3.752
22553TIP3    H267537   9.300   0.900   3.629
22554TIP3   OH267538   2.423   6.490   1.954
22554TIP3    H167539   2.350   6.445   1.912
22554TIP3    H267540   2.458   6.425   2.015
22555TIP3   OH267541   2.425   1.419   6.882
22555TIP3    H167542   2.359   1.488   6.893
22555TIP3    H267543   2.378   1.337   6.898
22556TIP3   OH267544   5.545   3.914   4.092
22556TIP3    H167545   5.518   4.005   4.103
22556TIP3    H267546   5.561   3.904   3.998
22557TIP3   OH267547   0.676   0.425   5.924
22557TIP3    H167548   0.761   0.397   5.957
22557TIP3    H267549   0.629   0.344   5.906
22558TIP3   OH267550   7.288   6.626   3.569
22558TIP3    H167551   7.224   6.683   3.612
22558TIP3    H267552   7.328   6.681   3.502
22559TIP3   OH267553   1.253   5.174   2.871
22559TIP3    H167554   1.344   5.186   2.896
22559TIP3    H267555   1.209   5.254   2.902
22560TIP3   OH267556   8.887   7.053   7.402
22560TIP3    H167557   8.813   7.027   7.458
22560TIP3    H267558   8.899   7.146   7.420
22561TIP3   OH267559   0.222   6.766   5.001
22561TIP3    H167560   0.189   6.782   4.912
22561TIP3    H267561   0.300   6.713   4.988
22562TIP3   OH267562   9.011   4.625   0.191
22562TIP3    H167563   9.022   4.591   0.102
22562TIP3    H267564   9.062   4.565   0.246
22563TIP3   OH267565   3.670   6.750   7.643
22563TIP3    H167566   3.732   6.798   7.699
22563TIP3    H267567   3.720   6.729   7.564
22564TIP3   OH267568   7.742   8.813   5.172
22564TIP3    H167569   7.714   8.755   5.243
22564TIP3    H267570   7.712   8.900   5.200
22565TIP3   OH267571   3.938   7.137   4.440
22565TIP3    H167572   3.958   7.079   4.513
22565TIP3    H267573   4.009   7.124   4.377
22566TIP3   OH267574   7.200   2.535   3.348
22566TIP3    H167575   7.274   2.587   3.317
22566TIP3    H267576   7.239   2.472   3.410
22567TIP3   OH267577   1.993   4.533   1.836
22567TIP3    H167578   1.947   4.449   1.829
22567TIP3    H267579   1.942   4.592   1.780
22568TIP3   OH267580   1.667   5.461   0.261
22568TIP3    H167581   1.649   5.523   0.191
22568TIP3    H267582   1.580   5.437   0.295
22569TIP3   OH267583   1.114   6.456   2.394
22569TIP3    H167584   1.202   6.470   2.358
22569TIP3    H267585   1.117   6.495   2.481
22570TIP3   OH267586   8.507   6.582   3.809
22570TIP3    H167587   8.595   6.547   3.799
22570TIP3    H267588   8.517   6.676   3.794
22571TIP3   OH267589   5.380   7.490   5.242
22571TIP3    H167590   5.412   7.562   5.296
22571TIP3    H267591   5.420   7.411   5.281
22572TIP3   OH267592   2.924   7.244   6.126
22572TIP3    H167593   2.915   7.221   6.218
22572TIP3    H267594   2.985   7.180   6.091
22573TIP3   OH267595   2.812   0.667   7.585
22573TIP3    H167596   2.824   0.762   7.576
22573TIP3    H267597   2.731   0.649   7.538
22574TIP3   OH267598   0.410   2.367   7.577
22574TIP3    H167599   0.375   2.280   7.597
22574TIP3    H267600   0.427   2.365   7.483
22575TIP3   OH267601   3.378   8.238   2.183
22575TIP3    H167602   3.301   8.243   2.127
22575TIP3    H267603   3.380   8.147   2.213
22576TIP3   OH267604   8.763   2.442   1.979
22576TIP3    H167605   8.821   2.430   2.054
22576TIP3    H267606   8.703   2.512   2.005
22577TIP3   OH267607   7.396   5.862   0.949
22577TIP3    H167608   7.373   5.770   0.934
22577TIP3    H267609   7.392   5.872   1.044
22578TIP3   OH267610   4.647   6.867   1.262
22578TIP3    H167611   4.726   6.874   1.209
22578TIP3    H267612   4.576   6.857   1.198
22579TIP3   OH267613   5.663   5.750   2.010
22579TIP3    H167614   5.671   5.787   1.922
22579TIP3    H267615   5.635   5.823   2.065
22580TIP3   OH267616   3.723   1.011   3.128
22580TIP3    H167617   3.753   1.032   3.040
22580TIP3    H267618   3.675   1.089   3.157
22581TIP3   OH267619   9.019   2.219   2.466
22581TIP3    H167620   8.989   2.148   2.524
22581TIP3    H267621   9.021   2.296   2.523
22582TIP3   OH267622   8.735   1.778   7.415
22582TIP3    H167623   8.747   1.859   7.366
22582TIP3    H267624   8.731   1.806   7.506
22583TIP3   OH267625   0.763   3.811   1.724
22583TIP3    H167626   0.803   3.860   1.652
22583TIP3    H267627   0.676   3.850   1.735
22584TIP3   OH267628   4.175   4.047   2.013
22584TIP3    H167629   4.205   4.136   1.998
22584TIP3    H267630   4.254   3.997   2.031
22585TIP3   OH267631   3.629   4.121   5.353
22585TIP3    H167632   3.663   4.176   5.281
22585TIP3    H267633   3.680   4.148   5.429
22586TIP3   OH267634   3.875   7.833   0.075
22586TIP3    H167635   3.883   7.886   0.154
22586TIP3    H267636   3.830   7.890   0.012
22587TIP3   OH267637   6.737   0.568   6.040
22587TIP3    H167638   6.727   0.563   6.135
22587TIP3    H267639   6.771   0.483   6.014
22588TIP3   OH267640   8.814   5.605   5.945
22588TIP3    H167641   8.763   5.634   6.021
22588TIP3    H267642   8.870   5.535   5.979
22589TIP3   OH267643   4.791   7.195   2.193
22589TIP3    H167644   4.806   7.136   2.119
22589TIP3    H267645   4.878   7.211   2.229
22590TIP3   OH267646   3.215   2.029   7.164
22590TIP3    H167647   3.188   2.043   7.073
22590TIP3    H267648   3.262   1.945   7.162
22591TIP3   OH267649   2.068   1.269   3.794
22591TIP3    H167650   2.024   1.204   3.849
22591TIP3    H267651   2.100   1.335   3.855
22592TIP3   OH267652   5.217   6.601   3.853
22592TIP3    H167653   5.182   6.513   3.843
22592TIP3    H267654   5.231   6.632   3.764
22593TIP3   OH267655   0.311   8.663   3.953
22593TIP3    H167656   0.243   8.626   3.898
22593TIP3    H267657   0.328   8.750   3.916
22594TIP3   OH267658   8.910   8.740   4.924
22594TIP3    H167659   8.962   8.660   4.930
22594TIP3    H267660   8.884   8.759   5.014
22595TIP3   OH267661   5.464   5.089   4.117
22595TIP3    H167662   5.383   5.133   4.092
22595TIP3    H267663   5.533   5.146   4.082
22596TIP3   OH267664   6.342   8.160   5.984
22596TIP3    H167665   6.257   8.200   6.003
22596TIP3    H267666   6.401   8.196   6.049
22597TIP3   OH267667   7.287   0.385   5.566
22597TIP3    H167668   7.334   0.324   5.622
22597TIP3    H267669   7.201   0.394   5.607
22598TIP3   OH267670   4.736   6.468   1.966
22598TIP3    H167671   4.740   6.559   1.998
22598TIP3    H267672   4.695   6.474   1.880
22599TIP3   OH267673   6.372   0.034   6.757
22599TIP3    H167674   6.386   0.126   6.779
22599TIP3    H267675   6.356  -0.009   6.841
22600TIP3   OH267676   2.243   1.580   0.481
22600TIP3    H167677   2.194   1.503   0.453
22600TIP3    H267678   2.206   1.601   0.567
22601TIP3   OH267679   0.893   8.959   3.006
22601TIP3    H167680   0.899   9.017   3.083
22601TIP3    H267681   0.981   8.925   2.995
22602TIP3   OH267682   4.939   1.654   4.751
22602TIP3    H167683   4.933   1.637   4.845
22602TIP3    H267684   4.906   1.743   4.741
22603TIP3   OH267685   3.147   4.547   4.262
22603TIP3    H167686   3.069   4.599   4.243
22603TIP3    H267687   3.114   4.468   4.305
22604TIP3   OH267688   2.275   3.293   6.378
22604TIP3    H167689   2.235   3.347   6.310
22604TIP3    H267690   2.309   3.356   6.441
22605TIP3   OH267691   6.968   4.121   4.426
22605TIP3    H167692   7.021   4.156   4.355
22605TIP3    H267693   6.942   4.034   4.396
22606TIP3   OH267694   5.943   0.123   6.696
22606TIP3    H167695   5.897   0.050   6.738
22606TIP3    H267696   6.024   0.084   6.662
22607TIP3   OH267697   1.251   3.116   7.626
22607TIP3    H167698   1.161   3.094   7.603
22607TIP3    H267699   1.302   3.038   7.601
22608TIP3   OH267700   7.199   2.105   7.704
22608TIP3    H167701   7.129   2.162   7.671
22608TIP3    H267702   7.261   2.165   7.745
22609TIP3   OH267703   2.187   6.204   7.712
22609TIP3    H167704   2.238   6.282   7.690
22609TIP3    H267705   2.202   6.191   7.805
22610TIP3   OH267706   3.234   1.590   1.238
22610TIP3    H167707   3.161   1.610   1.179
22610TIP3    H267708   3.213   1.504   1.274
22611TIP3   OH267709   3.622   5.202   6.639
22611TIP3    H167710   3.551   5.248   6.594
22611TIP3    H267711   3.629   5.246   6.724
22612TIP3   OH267712   9.207   8.291   6.088
22612TIP3    H167713   9.128   8.297   6.034
22612TIP3    H267714   9.279   8.298   6.025
22613TIP3   OH267715   1.930   4.285   7.389
22613TIP3    H167716   1.839   4.298   7.417
22613TIP3    H267717   1.975   4.366   7.414
22614TIP3   OH267718   5.246   2.988   2.804
22614TIP3    H167719   5.189   3.013   2.732
22614TIP3    H267720   5.186   2.958   2.873
22615TIP3   OH267721   7.267   8.620   2.903
22615TIP3    H167722   7.272   8.608   2.808
22615TIP3    H267723   7.305   8.541   2.939
22616TIP3   OH267724   7.051   7.642   4.836
22616TIP3    H167725   7.016   7.656   4.748
22616TIP3    H267726   7.134   7.688   4.837
22617TIP3   OH267727   5.940   7.763   4.662
22617TIP3    H167728   5.914   7.720   4.581
22617TIP3    H267729   5.857   7.783   4.706
22618TIP3   OH267730   3.052   3.524   4.422
22618TIP3    H167731   3.090   3.611   4.409
22618TIP3    H267732   3.095   3.470   4.356
22619TIP3   OH267733   6.792   3.836   5.008
22619TIP3    H167734   6.751   3.800   5.087
22619TIP3    H267735   6.799   3.762   4.949
22620TIP3   OH267736   3.247   6.642   1.734
22620TIP3    H167737   3.299   6.722   1.725
22620TIP3    H267738   3.174   6.668   1.791
22621TIP3   OH267739   5.482   0.987   1.944
22621TIP3    H167740   5.478   0.909   1.890
22621TIP3    H267741   5.393   1.001   1.974
22622TIP3   OH267742   8.166   1.029   2.953
22622TIP3    H167743   8.109   0.956   2.931
22622TIP3    H267744   8.242   1.019   2.895
22623TIP3   OH267745   4.799   5.870   1.184
22623TIP3    H167746   4.758   5.804   1.128
22623TIP3    H267747   4.873   5.824   1.224
22624TIP3   OH267748   8.867   7.666   1.485
22624TIP3    H167749   8.914   7.604   1.539
22624TIP3    H267750   8.896   7.646   1.395
22625TIP3   OH267751   3.096   6.021   6.768
22625TIP3    H167752   3.014   6.013   6.719
22625TIP3    H267753   3.070   6.061   6.852
22626TIP3   OH267754   4.947   3.535   4.026
22626TIP3    H167755   4.925   3.628   4.034
22626TIP3    H267756   5.005   3.518   4.100
22627TIP3   OH267757   8.386   5.658   5.807
22627TIP3    H167758   8.373   5.698   5.893
22627TIP3    H267759   8.298   5.640   5.775
22628TIP3   OH267760   0.899   5.416   4.830
22628TIP3    H167761   0.905   5.496   4.777
22628TIP3    H267762   0.990   5.390   4.846
22629TIP3   OH267763   8.823   4.337   2.620
22629TIP3    H167764   8.796   4.277   2.551
22629TIP3    H267765   8.917   4.349   2.606
22630TIP3   OH267766   0.584   0.402   1.805
22630TIP3    H167767   0.504   0.454   1.793
22630TIP3    H267768   0.634   0.451   1.871
22631TIP3   OH267769   2.908   6.445   0.332
22631TIP3    H167770   2.969   6.442   0.258
22631TIP3    H267771   2.826   6.478   0.295
22632TIP3   OH267772   7.470   6.416   2.306
22632TIP3    H167773   7.399   6.477   2.325
22632TIP3    H267774   7.550   6.466   2.324
22633TIP3   OH267775   1.125   6.758   6.644
22633TIP3    H167776   1.144   6.667   6.624
22633TIP3    H267777   1.150   6.806   6.566
22634TIP3   OH267778   1.141   3.342   1.063
22634TIP3    H167779   1.181   3.401   0.999
22634TIP3    H267780   1.052   3.375   1.075
22635TIP3   OH267781   2.808   6.272   1.681
22635TIP3    H167782   2.898   6.303   1.688
22635TIP3    H267783   2.801   6.203   1.747
22636TIP3   OH267784   5.523   2.464   5.952
22636TIP3    H167785   5.521   2.449   5.858
22636TIP3    H267786   5.470   2.542   5.966
22637TIP3   OH267787   4.339   3.005   7.272
22637TIP3    H167788   4.302   3.044   7.352
22637TIP3    H267789   4.367   3.080   7.220
22638TIP3   OH267790   3.192   5.400   2.185
22638TIP3    H167791   3.143   5.470   2.230
22638TIP3    H267792   3.166   5.409   2.093
22639TIP3   OH267793   5.537   3.695   4.787
22639TIP3    H167794   5.530   3.726   4.877
22639TIP3    H267795   5.470   3.744   4.739
22640TIP3   OH267796   0.751   1.671   6.970
22640TIP3    H167797   0.658   1.660   6.952
22640TIP3    H267798   0.780   1.737   6.908
22641TIP3   OH267799   3.123   0.108   6.446
22641TIP3    H167800   3.127   0.087   6.539
22641TIP3    H267801   3.212   0.136   6.424
22642TIP3   OH267802   9.379   8.716   5.452
22642TIP3    H167803   9.395   8.810   5.451
22642TIP3    H267804   9.436   8.681   5.383
22643TIP3   OH267805   5.060   4.982   1.063
22643TIP3    H167806   4.976   5.002   1.021
22643TIP3    H267807   5.051   4.891   1.093
22644TIP3   OH267808   4.647   3.480   5.909
22644TIP3    H167809   4.610   3.536   5.840
22644TIP3    H267810   4.670   3.540   5.979
22645TIP3   OH267811   0.446   4.184   7.418
22645TIP3    H167812   0.459   4.262   7.472
22645TIP3    H267813   0.355   4.158   7.433
22646TIP3   OH267814   6.432   6.942   2.780
22646TIP3    H167815   6.365   7.005   2.754
22646TIP3    H267816   6.401   6.906   2.863
22647TIP3   OH267817   5.910   8.751   5.698
22647TIP3    H167818   6.000   8.781   5.713
22647TIP3    H267819   5.858   8.799   5.762
22648TIP3   OH267820   7.420   5.629   6.602
22648TIP3    H167821   7.386   5.718   6.600
22648TIP3    H267822   7.472   5.621   6.522
22649TIP3   OH267823   7.398   4.861   1.330
22649TIP3    H167824   7.334   4.850   1.260
22649TIP3    H267825   7.390   4.782   1.383
22650TIP3   OH267826   2.227   8.542   2.807
22650TIP3    H167827   2.300   8.582   2.853
22650TIP3    H267828   2.226   8.584   2.721
22651TIP3   OH267829   4.958   5.687   7.205
22651TIP3    H167830   4.891   5.754   7.190
22651TIP3    H267831   5.028   5.709   7.144
22652TIP3   OH267832   1.287   4.298   0.444
22652TIP3    H167833   1.289   4.237   0.371
22652TIP3    H267834   1.277   4.384   0.403
22653TIP3   OH267835   0.039   1.960   0.001
22653TIP3    H167836   0.043   2.054   0.018
22653TIP3    H267837   0.127   1.928   0.019
22654TIP3   OH267838   5.545   6.675   2.203
22654TIP3    H167839   5.525   6.768   2.191
22654TIP3    H267840   5.460   6.633   2.214
22655TIP3   OH267841   1.842   4.341   4.783
22655TIP3    H167842   1.815   4.250   4.796
22655TIP3    H267843   1.937   4.338   4.781
22656TIP3   OH267844   4.831   8.077   4.235
22656TIP3    H167845   4.785   7.998   4.266
22656TIP3    H267846   4.791   8.148   4.285
22657TIP3   OH267847   3.583   7.899   7.022
22657TIP3    H167848   3.513   7.871   7.082
22657TIP3    H267849   3.539   7.959   6.962
22658TIP3   OH267850   2.116   7.848   1.760
22658TIP3    H167851   2.164   7.814   1.835
22658TIP3    H267852   2.165   7.925   1.733
22659TIP3   OH267853   1.818   5.391   6.193
22659TIP3    H167854   1.885   5.449   6.228
22659TIP3    H267855   1.752   5.386   6.262
22660TIP3   OH267856   9.281   4.028   5.608
22660TIP3    H167857   9.369   3.990   5.614
22660TIP3    H267858   9.279   4.069   5.521
22661TIP3   OH267859   9.296   1.460   5.555
22661TIP3    H167860   9.291   1.550   5.523
22661TIP3    H267861   9.317   1.469   5.648
22662TIP3   OH267862   3.342   4.746   2.628
22662TIP3    H167863   3.311   4.784   2.710
22662TIP3    H267864   3.266   4.747   2.570
22663TIP3   OH267865   7.277   6.807   0.681
22663TIP3    H167866   7.212   6.737   0.687
22663TIP3    H267867   7.357   6.764   0.649
22664TIP3   OH267868   5.944   8.566   5.925
22664TIP3    H167869   5.914   8.626   5.856
22664TIP3    H267870   5.978   8.490   5.878
22665TIP3   OH267871   4.591   1.687   7.597
22665TIP3    H167872   4.675   1.643   7.587
22665TIP3    H267873   4.526   1.617   7.595
22666TIP3   OH267874   3.297   7.539   2.885
22666TIP3    H167875   3.316   7.633   2.886
22666TIP3    H267876   3.267   7.519   2.974
22667TIP3   OH267877   1.366   6.408   3.434
22667TIP3    H167878   1.274   6.401   3.459
22667TIP3    H267879   1.366   6.399   3.339
22668TIP3   OH267880   6.565   6.228   0.870
22668TIP3    H167881   6.632   6.174   0.911
22668TIP3    H267882   6.482   6.194   0.902
22669TIP3   OH267883   7.968   1.568   6.752
22669TIP3    H167884   7.924   1.494   6.711
22669TIP3    H267885   8.052   1.534   6.780
22670TIP3   OH267886   5.801   0.876   1.236
22670TIP3    H167887   5.884   0.898   1.279
22670TIP3    H267888   5.766   0.961   1.208
22671TIP3   OH267889   1.696   0.286   3.416
22671TIP3    H167890   1.707   0.337   3.335
22671TIP3    H267891   1.622   0.228   3.397
22672TIP3   OH267892   0.428   3.841   3.610
22672TIP3    H167893   0.510   3.849   3.660
22672TIP3    H267894   0.455   3.805   3.526
22673TIP3   OH267895   8.913   0.872   4.451
22673TIP3    H167896   8.982   0.850   4.388
22673TIP3    H267897   8.944   0.834   4.533
22674TIP3   OH267898   6.973   8.273   2.975
22674TIP3    H167899   6.974   8.178   2.989
22674TIP3    H267900   6.881   8.297   2.977
22675TIP3   OH267901   9.223   4.384   5.376
22675TIP3    H167902   9.169   4.370   5.298
22675TIP3    H267903   9.160   4.400   5.447
22676TIP3   OH267904   8.219   6.636   5.086
22676TIP3    H167905   8.213   6.718   5.037
22676TIP3    H267906   8.148   6.641   5.150
22677TIP3   OH267907   8.303   0.037   7.089
22677TIP3    H167908   8.207   0.037   7.095
22677TIP3    H267909   8.328   0.127   7.109
22678TIP3   OH267910   3.898   5.538   1.959
22678TIP3    H167911   3.878   5.448   1.934
22678TIP3    H267912   3.835   5.591   1.910
22679TIP3   OH267913   6.230   8.508   6.036
22679TIP3    H167914   6.162   8.532   5.974
22679TIP3    H267915   6.203   8.549   6.118
22680TIP3   OH267916   2.167   6.803   7.030
22680TIP3    H167917   2.175   6.708   7.016
22680TIP3    H267918   2.257   6.834   7.034
22681TIP3   OH267919   0.049   5.815   0.062
22681TIP3    H167920  -0.009   5.742   0.043
22681TIP3    H267921   0.108   5.819  -0.014
22682TIP3   OH267922   1.828   1.764   0.912
22682TIP3    H167923   1.808   1.727   0.826
22682TIP3    H267924   1.793   1.700   0.974
22683TIP3   OH267925   2.539   6.374   6.219
22683TIP3    H167926   2.467   6.437   6.208
22683TIP3    H267927   2.610   6.409   6.165
22684TIP3   OH267928   0.627   4.656   5.307
22684TIP3    H167929   0.666   4.598   5.241
22684TIP3    H267930   0.702   4.692   5.354
22685TIP3   OH267931   4.637   5.823   1.655
22685TIP3    H167932   4.560   5.870   1.625
22685TIP3    H267933   4.602   5.746   1.700
22686TIP3   OH267934   9.269   6.394   6.749
22686TIP3    H167935   9.321   6.349   6.815
22686TIP3    H267936   9.303   6.361   6.665
22687TIP3   OH267937   4.062   6.885   6.682
22687TIP3    H167938   4.081   6.871   6.590
22687TIP3    H267939   4.051   6.979   6.691
22688TIP3   OH267940   5.731   5.099   2.341
22688TIP3    H167941   5.716   5.020   2.393
22688TIP3    H267942   5.657   5.103   2.281
22689TIP3   OH267943   6.042   1.767   1.323
22689TIP3    H167944   5.972   1.829   1.304
22689TIP3    H267945   6.030   1.744   1.415
22690TIP3   OH267946   8.082   4.666   5.353
22690TIP3    H167947   8.146   4.597   5.334
22690TIP3    H267948   8.106   4.699   5.439
22691TIP3   OH267949   2.300   0.963   2.305
22691TIP3    H167950   2.206   0.976   2.316
22691TIP3    H267951   2.308   0.880   2.257
22692TIP3   OH267952   8.794   2.384   6.359
22692TIP3    H167953   8.715   2.429   6.389
22692TIP3    H267954   8.789   2.298   6.399
22693TIP3   OH267955   5.305   5.496   5.599
22693TIP3    H167956   5.389   5.536   5.621
22693TIP3    H267957   5.241   5.540   5.656
22694TIP3   OH267958   2.723   6.518   2.994
22694TIP3    H167959   2.637   6.493   3.028
22694TIP3    H267960   2.713   6.609   2.968
22695TIP3   OH267961   6.277   2.962   6.970
22695TIP3    H167962   6.274   2.867   6.978
22695TIP3    H267963   6.367   2.981   6.943
22696TIP3   OH267964   6.657   5.756   4.727
22696TIP3    H167965   6.579   5.720   4.770
22696TIP3    H267966   6.720   5.766   4.798
22697TIP3   OH267967   8.150   5.326   1.685
22697TIP3    H167968   8.234   5.338   1.641
22697TIP3    H267969   8.172   5.289   1.770
22698TIP3   OH267970   7.766   8.815   2.463
22698TIP3    H167971   7.859   8.836   2.451
22698TIP3    H267972   7.744   8.759   2.389
22699TIP3   OH267973   4.116   8.302   0.418
22699TIP3    H167974   4.145   8.387   0.451
22699TIP3    H267975   4.035   8.321   0.371
22700TIP3   OH267976   0.925   4.840   4.975
22700TIP3    H167977   0.953   4.920   5.020
22700TIP3    H267978   0.986   4.831   4.902
22701TIP3   OH267979   8.648   3.902   5.532
22701TIP3    H167980   8.684   3.878   5.446
22701TIP3    H267981   8.722   3.896   5.592
22702TIP3   OH267982   8.616   0.024   3.873
22702TIP3    H167983   8.677   0.064   3.935
22702TIP3    H267984   8.666  -0.047   3.833
22703TIP3   OH267985   0.140   0.277   4.703
22703TIP3    H167986   0.136   0.294   4.797
22703TIP3    H267987   0.082   0.202   4.690
22704TIP3   OH267988   3.553   0.815   3.228
22704TIP3    H167989   3.509   0.835   3.145
22704TIP3    H267990   3.642   0.847   3.216
22705TIP3   OH267991   3.694   2.182   1.373
22705TIP3    H167992   3.608   2.177   1.332
22705TIP3    H267993   3.752   2.213   1.304
22706TIP3   OH267994   0.869   3.789   4.606
22706TIP3    H167995   0.845   3.702   4.638
22706TIP3    H267996   0.818   3.799   4.525
22707TIP3   OH267997   3.906   6.405   3.200
22707TIP3    H167998   3.943   6.491   3.219
22707TIP3    H267999   3.828   6.400   3.257
22708TIP3   OH268000   3.255   8.325   5.859
22708TIP3    H168001   3.280   8.321   5.767
22708TIP3    H268002   3.177   8.270   5.866
22709TIP3   OH268003   8.061   3.698   7.644
22709TIP3    H168004   8.042   3.624   7.586
22709TIP3    H268005   8.022   3.773   7.599
22710TIP3   OH268006   4.753   1.747   3.952
22710TIP3    H168007   4.790   1.833   3.929
22710TIP3    H268008   4.797   1.686   3.894
22711TIP3   OH268009   8.694   5.902   5.431
22711TIP3    H168010   8.691   5.889   5.526
22711TIP3    H268011   8.641   5.832   5.395
22712TIP3   OH268012   4.586   6.702   6.863
22712TIP3    H168013   4.541   6.632   6.910
22712TIP3    H268014   4.543   6.782   6.894
22713TIP3   OH268015   1.685   2.246   6.159
22713TIP3    H168016   1.638   2.217   6.237
22713TIP3    H268017   1.628   2.311   6.119
22714TIP3   OH268018   6.225   6.555   0.722
22714TIP3    H168019   6.215   6.547   0.627
22714TIP3    H268020   6.148   6.605   0.750
22715TIP3   OH268021   0.261   6.564   1.752
22715TIP3    H168022   0.351   6.570   1.785
22715TIP3    H268023   0.234   6.655   1.740
22716TIP3   OH268024   9.373   5.942   3.678
22716TIP3    H168025   9.335   5.936   3.590
22716TIP3    H268026   9.330   5.873   3.728
22717TIP3   OH268027   5.219   5.115   1.736
22717TIP3    H168028   5.283   5.179   1.703
22717TIP3    H268029   5.168   5.164   1.801
22718TIP3   OH268030   5.057   2.639   6.431
22718TIP3    H168031   5.055   2.630   6.526
22718TIP3    H268032   4.993   2.575   6.399
22719TIP3   OH268033   1.560   7.370   2.117
22719TIP3    H168034   1.489   7.434   2.125
22719TIP3    H268035   1.635   7.421   2.088
22720TIP3   OH268036   7.397   3.525   2.228
22720TIP3    H168037   7.362   3.441   2.257
22720TIP3    H268038   7.359   3.538   2.141
22721TIP3   OH268039   6.380   0.629   3.696
22721TIP3    H168040   6.351   0.619   3.787
22721TIP3    H268041   6.299   0.623   3.645
22722TIP3   OH268042   3.289   4.463   6.951
22722TIP3    H168043   3.304   4.516   7.029
22722TIP3    H268044   3.348   4.388   6.962
22723TIP3   OH268045   2.883   3.617   3.381
22723TIP3    H168046   2.941   3.613   3.304
22723TIP3    H268047   2.801   3.579   3.351
22724TIP3   OH268048   6.088   4.163   2.790
22724TIP3    H168049   6.133   4.181   2.707
22724TIP3    H268050   6.023   4.233   2.797
22725TIP3   OH268051   4.821   3.205   7.082
22725TIP3    H168052   4.818   3.153   7.002
22725TIP3    H268053   4.914   3.210   7.104
22726TIP3   OH268054   3.223   3.005   6.640
22726TIP3    H168055   3.176   2.937   6.592
22726TIP3    H268056   3.315   2.984   6.626
22727TIP3   OH268057   7.802   8.271   7.355
22727TIP3    H168058   7.719   8.223   7.350
22727TIP3    H268059   7.775   8.363   7.363
22728TIP3   OH268060   6.883   8.675   5.012
22728TIP3    H168061   6.897   8.723   4.930
22728TIP3    H268062   6.876   8.583   4.986
22729TIP3   OH268063   6.828   3.171   0.145
22729TIP3    H168064   6.863   3.088   0.115
22729TIP3    H268065   6.738   3.173   0.113
22730TIP3   OH268066   5.549   1.683   2.761
22730TIP3    H168067   5.495   1.722   2.693
22730TIP3    H268068   5.591   1.608   2.720
22731TIP3   OH268069   2.967   4.058   5.369
22731TIP3    H168070   3.003   4.028   5.452
22731TIP3    H268071   2.872   4.064   5.386
22732TIP3   OH268072   8.021   2.334   0.830
22732TIP3    H168073   7.953   2.276   0.864
22732TIP3    H268074   8.062   2.371   0.909
22733TIP3   OH268075   5.458   0.276   0.477
22733TIP3    H168076   5.491   0.186   0.471
22733TIP3    H268077   5.464   0.310   0.388
22734TIP3   OH268078   8.360   1.782   0.502
22734TIP3    H168079   8.383   1.747   0.589
22734TIP3    H268080   8.304   1.857   0.521
22735TIP3   OH268081   7.093   8.997   5.461
22735TIP3    H168082   7.052   9.059   5.402
22735TIP3    H268083   7.052   8.913   5.440
22736TIP3   OH268084   0.463   6.044   6.803
22736TIP3    H168085   0.370   6.023   6.799
22736TIP3    H268086   0.474   6.120   6.746
22737TIP3   OH268087   9.322   5.456   4.968
22737TIP3    H168088   9.311   5.363   4.988
22737TIP3    H268089   9.343   5.457   4.875
22738TIP3   OH268090   3.004   1.326   3.071
22738TIP3    H168091   2.948   1.374   3.132
22738TIP3    H268092   2.950   1.253   3.041
22739TIP3   OH268093   0.654   8.159   7.160
22739TIP3    H168094   0.746   8.184   7.167
22739TIP3    H268095   0.630   8.181   7.070
22740TIP3   OH268096   8.966   3.604   2.137
22740TIP3    H168097   8.954   3.699   2.149
22740TIP3    H268098   8.917   3.583   2.058
22741TIP3   OH268099   2.810   4.390   0.301
22741TIP3    H168100   2.836   4.428   0.218
22741TIP3    H268101   2.718   4.416   0.312
22742TIP3   OH268102   5.768   8.051   5.964
22742TIP3    H168103   5.823   8.088   5.895
22742TIP3    H268104   5.829   8.028   6.034
22743TIP3   OH268105   9.345   7.127   7.550
22743TIP3    H168106   9.432   7.095   7.576
22743TIP3    H268107   9.296   7.132   7.632
22744TIP3   OH268108   1.628   7.216   4.904
22744TIP3    H168109   1.571   7.155   4.950
22744TIP3    H268110   1.688   7.160   4.853
22745TIP3   OH268111   5.083   5.287   1.937
22745TIP3    H168112   5.080   5.361   1.876
22745TIP3    H268113   4.991   5.258   1.944
22746TIP3   OH268114   0.042   6.219   4.475
22746TIP3    H168115   0.034   6.311   4.500
22746TIP3    H268116  -0.032   6.204   4.417
22747TIP3   OH268117   0.058   3.948   2.459
22747TIP3    H168118  -0.012   4.010   2.477
22747TIP3    H268119   0.014   3.863   2.452
22748TIP3   OH268120   1.304   8.067   2.997
22748TIP3    H168121   1.398   8.088   2.993
22748TIP3    H268122   1.298   8.003   3.068
22749TIP3   OH268123   4.698   8.965   0.397
22749TIP3    H168124   4.724   8.880   0.430
22749TIP3    H268125   4.780   9.013   0.385
22750TIP3   OH268126   4.291   2.646   1.472
22750TIP3    H168127   4.254   2.577   1.417
22750TIP3    H268128   4.250   2.631   1.558
22751TIP3   OH268129   4.343   2.043   4.520
22751TIP3    H168130   4.358   1.956   4.484
22751TIP3    H268131   4.273   2.080   4.467
22752TIP3   OH268132   5.183   8.569   0.356
22752TIP3    H168133   5.141   8.526   0.431
22752TIP3    H268134   5.190   8.500   0.290
22753TIP3   OH268135   6.796   7.957   3.249
22753TIP3    H168136   6.737   8.029   3.270
22753TIP3    H268137   6.836   7.933   3.332
22754TIP3   OH268138   5.065   8.267   4.306
22754TIP3    H168139   5.001   8.287   4.237
22754TIP3    H268140   5.030   8.308   4.385
22755TIP3   OH268141   6.635   6.536   7.560
22755TIP3    H168142   6.714   6.574   7.522
22755TIP3    H268143   6.568   6.547   7.492
22756TIP3   OH268144   5.287   2.383   3.988
22756TIP3    H168145   5.340   2.458   4.016
22756TIP3    H268146   5.217   2.422   3.934
22757TIP3   OH268147   5.222   5.413   7.172
22757TIP3    H168148   5.273   5.334   7.155
22757TIP3    H268149   5.198   5.406   7.264
22758TIP3   OH268150   0.708   5.251   2.469
22758TIP3    H168151   0.642   5.205   2.418
22758TIP3    H268152   0.665   5.269   2.553
22759TIP3   OH268153   1.754   7.529   7.727
22759TIP3    H168154   1.720   7.496   7.644
22759TIP3    H268155   1.850   7.525   7.717
22760TIP3   OH268156   4.293   5.142   2.532
22760TIP3    H168157   4.303   5.235   2.554
22760TIP3    H268158   4.365   5.099   2.578
22761TIP3   OH268159   6.815   8.814   5.818
22761TIP3    H168160   6.764   8.819   5.900
22761TIP3    H268161   6.886   8.878   5.830
22762TIP3   OH268162   6.865   3.929   2.376
22762TIP3    H168163   6.785   3.919   2.428
22762TIP3    H268164   6.934   3.893   2.432
22763TIP3   OH268165   1.968   0.543   0.366
22763TIP3    H168166   1.877   0.573   0.368
22763TIP3    H268167   2.005   0.585   0.287
22764TIP3   OH268168   0.399   4.030   0.165
22764TIP3    H168169   0.336   4.098   0.143
22764TIP3    H268170   0.346   3.952   0.181
22765TIP3   OH268171   6.787   3.769   5.679
22765TIP3    H168172   6.859   3.820   5.642
22765TIP3    H268173   6.726   3.758   5.606
22766TIP3   OH268174   2.264   8.262   4.790
22766TIP3    H168175   2.211   8.212   4.728
22766TIP3    H268176   2.202   8.320   4.833
22767TIP3   OH268177   4.192   0.860   1.505
22767TIP3    H168178   4.235   0.940   1.474
22767TIP3    H268179   4.211   0.857   1.598
   9.56122   9.01440   7.80670   0.00000   0.00000  -3.18708   0.00000  -3.18708  -4.50720
