Title
29212
    1ASP      N    1   1.445   1.119   1.108  0.0305 -0.2517 -0.0653
    1ASP    HT1    2   1.465   1.045   1.038 -1.2144 -0.8443  0.1607
    1ASP    HT2    3   1.354   1.165   1.084  1.5330  1.9558 -1.9891
    1ASP    HT3    4   1.438   1.065   1.196  0.2537 -0.1051  0.0416
    1ASP     CA    5   1.557   1.216   1.124  0.3616 -0.0790 -0.1908
    1ASP     HA    6   1.544   1.252   1.225 -1.0000  1.4916 -0.8723
    1ASP     CB    7   1.699   1.143   1.104 -0.4228 -0.1092 -0.1870
    1ASP    HB1    8   1.783   1.215   1.116  0.5520 -1.5776  2.8977
    1ASP    HB2    9   1.715   1.088   1.009  1.3899 -0.1285  0.1032
    1ASP     CG   10   1.724   1.052   1.222  0.1370 -0.3677 -0.3965
    1ASP    OD1   11   1.827   0.986   1.229  0.1677 -0.1751 -0.3532
    1ASP    OD2   12   1.628   1.048   1.305  0.2722 -0.3940 -1.1674
    1ASP      C   13   1.541   1.339   1.033 -0.3950  0.6615  0.1547
    1ASP      O   14   1.458   1.423   1.048 -0.2477 -0.0882  0.1362
    2GLY      N   15   1.639   1.355   0.939  0.0899  0.2088  0.1341
    2GLY     HN   16   1.703   1.281   0.924 -1.1833 -0.8189 -0.4640
    2GLY     CA   17   1.638   1.469   0.845 -0.5902  0.2463 -0.5764
    2GLY    HA1   18   1.542   1.463   0.796 -0.9595 -0.5416  0.2392
    2GLY    HA2   19   1.719   1.465   0.773 -1.6902  0.3578 -1.8688
    2GLY      C   20   1.650   1.603   0.916 -0.3964  0.2152  0.1359
    2GLY      O   21   1.727   1.615   1.017  0.0036  0.3315 -0.4691
    3ASP      N   22   1.585   1.713   0.868 -0.9177  0.5219 -0.1234
    3ASP     HN   23   1.562   1.706   0.772  4.3028  1.3606 -1.7143
    3ASP     CA   24   1.579   1.838   0.936  0.9276  0.2339 -0.0289
    3ASP     HA   25   1.675   1.865   0.976  1.3026 -2.1830  0.8440
    3ASP     CB   26   1.529   1.947   0.841  0.1983 -0.6052  0.2866
    3ASP    HB1   27   1.534   2.042   0.898 -0.2884  0.6023 -1.5896
    3ASP    HB2   28   1.424   1.944   0.805  0.6217  2.1757 -1.5224
    3ASP     CG   29   1.605   1.959   0.708  0.5948 -0.8200 -0.0973
    3ASP    OD1   30   1.725   1.921   0.699  0.4171 -0.4870 -0.1450
    3ASP    OD2   31   1.555   2.025   0.614  0.0877  0.3790 -0.1111
    3ASP      C   32   1.485   1.827   1.057 -0.4725 -0.0667  0.2760
    3ASP      O   33   1.388   1.753   1.066 -0.1735 -0.0064 -0.0846
    4GLY      N   34   1.529   1.899   1.164  0.1316  0.2983  0.1757
    4GLY     HN   35   1.599   1.970   1.166  0.2546  0.1589  1.0276
    4GLY     CA   36   1.463   1.877   1.291 -0.0114 -0.8154  0.2231
    4GLY    HA1   37   1.516   1.932   1.367  0.3481 -0.1434 -0.5009
    4GLY    HA2   38   1.453   1.773   1.315 -0.8894 -0.6347  0.6918
    4GLY      C   39   1.318   1.929   1.309 -0.8016 -0.0110  0.4902
    4GLY      O   40   1.245   1.967   1.218  0.2491 -0.1548  0.2850
    5PRO      N   41   1.275   1.939   1.436 -0.0993  0.3229 -0.2048
    5PRO     CD   42   1.343   1.875   1.554  0.3645 -0.0362  0.7703
    5PRO    HD1   43   1.429   1.937   1.589  0.2453  0.6151 -0.0730
    5PRO    HD2   44   1.383   1.773   1.538  2.0849  0.8937 -1.3366
    5PRO     CA   45   1.142   1.998   1.481  0.1491 -0.4512  0.8037
    5PRO     HA   46   1.063   1.936   1.442 -1.9309  2.6337 -0.1776
    5PRO     CB   47   1.148   1.992   1.631 -0.5918 -0.5811 -0.0317
    5PRO    HB1   48   1.045   1.979   1.673 -1.0913 -0.7344 -1.2710
    5PRO    HB2   49   1.202   2.079   1.675  2.8170 -2.2532 -0.6143
    5PRO     CG   50   1.240   1.878   1.668 -0.2860  0.3526 -0.0770
    5PRO    HG1   51   1.288   1.888   1.768  0.7296  1.1233 -0.6276
    5PRO    HG2   52   1.175   1.789   1.661 -1.9571  1.5626 -0.5846
    5PRO      C   53   1.095   2.130   1.419 -1.3247  0.3420 -0.1444
    5PRO      O   54   1.169   2.231   1.407 -0.0026 -0.0561 -0.3588
    6GLY      N   55   0.971   2.130   1.373  0.2574  0.2029  0.0407
    6GLY     HN   56   0.927   2.041   1.377  1.5029 -0.4658 -0.5337
    6GLY     CA   57   0.897   2.241   1.311  0.4261 -0.0763  0.5866
    6GLY    HA1   58   0.821   2.199   1.248  0.3876 -0.5726  0.9530
    6GLY    HA2   59   0.959   2.302   1.248 -0.8701  0.3857 -0.2679
    6GLY      C   60   0.840   2.325   1.412  0.3678  0.2035  0.1883
    6GLY      O   61   0.904   2.387   1.500 -0.0139 -0.5848  0.1639
    7ASP      N   62   0.706   2.341   1.400  0.4366 -0.1239  0.4840
    7ASP     HN   63   0.663   2.299   1.320 -1.7945  0.8810  1.0615
    7ASP     CA   64   0.616   2.418   1.483  0.1173 -0.3754  0.2720
    7ASP     HA   65   0.661   2.513   1.508 -0.9751 -0.0613  1.1425
    7ASP     CB   66   0.476   2.441   1.416 -0.0058  0.4839 -0.6476
    7ASP    HB1   67   0.403   2.456   1.498 -0.7202  0.0722 -1.1952
    7ASP    HB2   68   0.450   2.343   1.370  0.4409 -0.1239  0.3543
    7ASP     CG   69   0.468   2.551   1.320  0.2012  0.9817 -0.6728
    7ASP    OD1   70   0.564   2.621   1.289  0.5111 -0.1339 -0.4798
    7ASP    OD2   71   0.354   2.580   1.272  0.5492  0.1372 -0.0240
    7ASP      C   72   0.610   2.340   1.621 -0.5155  0.0044 -0.6070
    7ASP      O   73   0.622   2.218   1.616 -0.1966 -0.0486 -0.2346
    8PRO      N   74   0.599   2.399   1.736 -0.0643 -0.0218 -0.4275
    8PRO     CD   75   0.599   2.547   1.757 -0.3760  0.3883  0.1440
    8PRO    HD1   76   0.503   2.590   1.721 -0.8987  0.6156  1.7541
    8PRO    HD2   77   0.689   2.583   1.703 -2.2481 -0.3101 -3.8764
    8PRO     CA   78   0.566   2.326   1.856  0.2941 -0.0659 -0.1310
    8PRO     HA   79   0.649   2.266   1.889 -0.0339 -0.6504 -0.3488
    8PRO     CB   80   0.532   2.436   1.959 -0.1352  0.7299  0.3695
    8PRO    HB1   81   0.570   2.417   2.062 -1.7470 -1.1299  0.6791
    8PRO    HB2   82   0.422   2.447   1.950 -0.1997 -1.2725 -2.7682
    8PRO     CG   83   0.613   2.554   1.913  0.3625  0.2741  0.1818
    8PRO    HG1   84   0.588   2.654   1.953 -0.0952 -0.1484  0.9995
    8PRO    HG2   85   0.723   2.542   1.921  0.5511  1.3586 -0.7047
    8PRO      C   86   0.451   2.221   1.851 -0.0737 -0.2911  0.5475
    8PRO      O   87   0.354   2.239   1.776  0.2339  0.5321  0.2108
    9GLY      N   88   0.471   2.107   1.916  0.1789  0.5928 -0.4590
    9GLY     HN   89   0.553   2.092   1.971  0.6974 -0.4476 -1.4746
    9GLY     CA   90   0.384   1.994   1.935 -0.9181  0.5475 -0.1099
    9GLY    HA1   91   0.428   1.926   2.006  0.0223  0.4551 -0.7688
    9GLY    HA2   92   0.371   1.945   1.840 -1.8155  1.2863 -0.3809
    9GLY      C   93   0.249   2.026   1.985 -0.3851  1.6673 -0.6062
    9GLY      O   94   0.233   2.107   2.083  0.4168  0.8417  0.6419
   10ASP      N   95   0.141   1.960   1.931 -0.1784  0.3496  0.1478
   10ASP     HN   96   0.172   1.897   1.860  0.3263 -0.3998  1.0132
   10ASP     CA   97   0.003   1.975   1.975  0.3730 -0.5300 -0.0525
   10ASP     HA   98  -0.010   2.082   1.991  1.5369 -0.4338  0.3493
   10ASP     CB   99  -0.104   1.926   1.871  0.0762 -0.6433 -0.3687
   10ASP    HB1  100  -0.197   1.913   1.929  0.1303  0.8108  0.0756
   10ASP    HB2  101  -0.078   1.829   1.823  0.4650  1.0986 -4.0527
   10ASP     CG  102  -0.131   2.018   1.756 -0.3242  0.4257  0.0240
   10ASP    OD1  103  -0.086   2.136   1.749 -1.0293 -0.1660  0.2038
   10ASP    OD2  104  -0.211   1.978   1.668 -0.6594 -0.2208  0.0587
   10ASP      C  105  -0.019   1.920   2.120 -0.6515 -0.0611  0.5249
   10ASP      O  106   0.062   1.838   2.161 -0.8376 -0.6050  0.4200
   11GLY      N  107  -0.127   1.959   2.193 -0.3803  0.4672  0.0797
   11GLY     HN  108  -0.187   2.024   2.148  1.2506  1.6038 -0.5592
   11GLY     CA  109  -0.163   1.898   2.318 -0.1183 -0.2085 -0.1456
   11GLY    HA1  110  -0.203   1.981   2.373  0.4550  0.6413 -0.9869
   11GLY    HA2  111  -0.083   1.842   2.365  0.0905 -0.5990 -0.9424
   11GLY      C  112  -0.271   1.794   2.299 -0.5728  0.1695  0.4654
   11GLY    OT1  113  -0.242   1.679   2.258  0.8811  0.6781  0.3149
   11GLY    OT2  114  -0.388   1.835   2.314 -0.6353  0.3714 -0.6430
   12LIT    LIT  115   4.193   5.779   1.312 -0.1838 -0.8959  1.0960
   13LIT    LIT  116   5.465   5.814   1.008 -1.2604  0.4725 -0.4882
   14LIT    LIT  117   2.910   1.848   5.698  0.7083  0.0572 -1.0601
   15LIT    LIT  118   1.499   1.434   5.206 -0.4158 -0.2584  0.5767
   16LIT    LIT  119   6.788   1.726   2.464 -0.2212  0.9616 -0.0168
   17LIT    LIT  120   4.542   3.459   4.611 -0.4479  0.4658  0.4347
   18LIT    LIT  121   0.515   0.138   3.257 -0.3928  0.6974 -0.5288
   19LIT    LIT  122   1.873   2.933   2.753 -0.4864  0.4899 -0.6852
   20LIT    LIT  123   4.414   3.219   1.941 -0.2260  0.7086 -0.1218
   21LIT    LIT  124   5.709   6.590   1.840  0.4243  0.9415  0.5847
   22LIT    LIT  125   6.597   0.863   3.900  1.0125 -0.3733 -0.1441
   23LIT    LIT  126   6.167   5.805   5.653  0.2301  0.1827 -0.5349
   24LIT    LIT  127   5.858   5.654   1.620  0.0180  0.5107 -0.2105
   25LIT    LIT  128   0.207   2.558   1.393  0.4158 -0.7392 -0.2684
   26LIT    LIT  129   6.993   2.161   1.625 -0.1281  0.3711 -0.6589
   27LIT    LIT  130   5.908   6.050   0.740 -0.2617 -0.3034  0.0770
   28LIT    LIT  131   7.137   4.921   3.872 -0.5419 -0.3125 -0.5566
   29LIT    LIT  132   4.147   0.320   2.875  0.5276  1.0656 -0.1712
   30LIT    LIT  133   1.672   2.888   2.101 -0.0231  0.0462  0.8602
   31LIT    LIT  134   6.519   0.550   3.289 -0.4669 -0.4651  0.5526
   32LIT    LIT  135   4.789   2.619   1.715  0.4294 -0.3293  0.6341
   33LIT    LIT  136   4.635   2.134   3.396 -0.3343 -1.0499  0.7252
   34LIT    LIT  137   2.955   5.679   3.226  0.9299  0.0479 -0.1741
   35LIT    LIT  138   5.013   6.000   0.831 -0.8430  0.4691  0.0676
   36LIT    LIT  139   3.448   0.193   0.958  0.4547  0.2538  0.3012
   37LIT    LIT  140   1.544   5.871   2.467 -1.1790  0.5770 -0.7966
   38LIT    LIT  141   3.222   3.571   1.216 -0.8190  0.2454  0.1630
   39LIT    LIT  142   1.743   0.875   1.361  0.2956 -0.4162  1.0637
   40LIT    LIT  143   5.036   2.118   0.953 -0.2130  0.4997 -0.4687
   41LIT    LIT  144   5.834   3.722   4.786  0.6709 -0.2897 -0.1810
   42LIT    LIT  145   1.895   1.851   0.706 -1.3009  0.1450 -1.1673
   43CLA    CLA  146   3.732   3.433   0.812  0.2816 -0.4184 -0.2145
   44CLA    CLA  147   7.150   5.933   5.189  0.0604 -0.0752 -0.2725
   45CLA    CLA  148   1.973   2.162   4.709  0.2408 -0.3761 -0.0630
   46CLA    CLA  149   3.991   0.770   0.238 -0.2041 -0.4900 -0.3581
   47CLA    CLA  150   3.914   2.465   5.636 -0.0099 -0.1443  0.0762
   48CLA    CLA  151   0.262   1.828   3.342 -0.1623 -0.1676 -0.0273
   49CLA    CLA  152   2.269   4.448   2.999 -0.2666  0.3872 -0.5392
   50CLA    CLA  153   3.601   5.563   2.873  0.3558  0.1263  0.1248
   51CLA    CLA  154   4.704   5.020   3.323  0.1015  0.1207  0.3552
   52CLA    CLA  155   4.395   5.694   0.923  0.0965  0.0643 -0.0311
   53CLA    CLA  156   5.107   6.207   0.873  0.4963  0.0880 -0.6665
   54CLA    CLA  157   1.222   3.824   0.517  0.0994  0.0120 -0.0625
   55CLA    CLA  158   4.268   2.782   1.334  0.1721 -0.1206 -0.1114
   56CLA    CLA  159   6.446   5.882   1.874 -0.0448  0.1731  0.2940
   57CLA    CLA  160   1.180   6.221   2.393  0.1590 -0.3346 -0.4072
   58CLA    CLA  161   2.340   5.789   3.656 -0.0108 -0.0545 -0.4599
   59CLA    CLA  162   5.840   1.679   1.974  0.0742 -0.1190  0.1675
   60CLA    CLA  163   5.156   2.279   0.822  0.0997  0.5103 -0.0840
   61CLA    CLA  164   2.958   0.900   3.609 -0.2813  0.3560 -0.1132
   62CLA    CLA  165   5.887   6.494   0.008 -0.1959  0.1843  0.2522
   63CLA    CLA  166   5.264   6.382   2.268  0.1400  0.2494 -0.1644
   64CLA    CLA  167   1.736   3.688   1.914  0.0779 -0.4088 -0.1696
   65CLA    CLA  168   0.505   2.244   3.456 -0.1874 -0.3475  0.1126
   66CLA    CLA  169   2.382   0.623   5.529 -0.4145 -0.3196 -0.3513
   67CLA    CLA  170   5.098   0.913   2.472  0.0421 -0.3088  0.2221
   68CLA    CLA  171   0.720   6.024   2.330  0.0183 -0.0096 -0.0942
   69CLA    CLA  172   6.096   2.216   5.623  0.4012  0.5048 -0.1253
   70TIP3   OH2  173   6.515   6.084   4.794 -0.2120 -0.4112  0.5176
   70TIP3    H1  174   6.446   6.065   4.731  0.0959  0.8275 -0.2294
   70TIP3    H2  175   6.472   6.135   4.863 -0.2588 -0.5344  0.5785
   71TIP3   OH2  176   5.858   1.253   3.291  0.3799  0.0265  0.2674
   71TIP3    H1  177   5.801   1.202   3.233 -0.9722  0.6501  0.9815
   71TIP3    H2  178   5.920   1.190   3.326 -1.2873 -1.1952  1.1808
   72TIP3   OH2  179   1.366   3.305   4.482  0.0216  0.7672  0.2704
   72TIP3    H1  180   1.401   3.363   4.550  1.4793  1.2809 -0.8694
   72TIP3    H2  181   1.326   3.365   4.419 -2.2435  0.2372  1.1078
   73TIP3   OH2  182   3.825   5.417   5.470  0.1875  0.2134  0.5434
   73TIP3    H1  183   3.915   5.387   5.453  0.9070  2.5971 -0.3200
   73TIP3    H2  184   3.834   5.512   5.483 -2.1194  0.3742  1.3331
   74TIP3   OH2  185   6.825   0.857   2.505 -0.0523  0.0771 -0.4823
   74TIP3    H1  186   6.749   0.908   2.477  0.5880  0.3660 -1.7415
   74TIP3    H2  187   6.820   0.857   2.601 -2.0108 -0.5161 -0.5559
   75TIP3   OH2  188   4.491   3.175   1.767  0.1848  0.6387  0.5897
   75TIP3    H1  189   4.577   3.147   1.734 -0.4582 -1.0860  0.2612
   75TIP3    H2  190   4.433   3.166   1.692 -1.0051 -1.8883  1.6915
   76TIP3   OH2  191   6.020   4.098   1.211 -0.2005  0.5824  0.0491
   76TIP3    H1  192   6.054   4.035   1.148 -2.8309  0.0075 -0.9395
   76TIP3    H2  193   6.067   4.179   1.192  2.4881 -0.7385  0.6385
   77TIP3   OH2  194   2.781   2.950   0.410  0.6627 -0.0186 -0.1146
   77TIP3    H1  195   2.839   2.992   0.474 -1.5027 -0.7391  2.5243
   77TIP3    H2  196   2.710   3.013   0.399  0.0233 -0.7614 -0.2426
   78TIP3   OH2  197   5.873   1.242   5.678  0.0316  0.2241 -0.2942
   78TIP3    H1  198   5.862   1.337   5.689  1.2448  0.3716 -0.2218
   78TIP3    H2  199   5.851   1.205   5.764 -1.5576  0.3107 -0.6306
   79TIP3   OH2  200   1.043   0.935   1.609 -0.2861  0.5351 -0.0068
   79TIP3    H1  201   1.092   0.973   1.683 -0.4569 -3.2052  2.2953
   79TIP3    H2  202   0.963   0.900   1.649  0.6594 -3.7148 -1.3534
   80TIP3   OH2  203   2.909   2.649   1.536 -0.7822 -0.4019  0.0847
   80TIP3    H1  204   2.962   2.569   1.539 -0.2120 -0.2318 -2.7411
   80TIP3    H2  205   2.945   2.704   1.605  0.5233 -1.5946  0.3989
   81TIP3   OH2  206   7.069   0.686   2.613  0.5020  0.5365 -0.6832
   81TIP3    H1  207   7.041   0.598   2.588  0.8252  0.4631 -0.7874
   81TIP3    H2  208   7.006   0.744   2.571 -1.3939  0.2754  1.5668
   82TIP3   OH2  209   2.548   4.381   1.108  0.1516 -0.4073  0.2142
   82TIP3    H1  210   2.604   4.457   1.125 -1.1319  0.8333 -0.8376
   82TIP3    H2  211   2.608   4.307   1.104  1.5743  0.7060  0.2039
   83TIP3   OH2  212   6.562   3.358   4.542  0.4317  0.3254 -0.8775
   83TIP3    H1  213   6.520   3.437   4.577 -2.2900 -0.9119 -1.0622
   83TIP3    H2  214   6.644   3.350   4.591 -0.9108  1.3568  1.6946
   84TIP3   OH2  215   2.348   3.425   4.606  0.6322  0.2849 -0.2903
   84TIP3    H1  216   2.271   3.479   4.623 -0.4154 -1.3184  0.2744
   84TIP3    H2  217   2.319   3.361   4.542  0.5244 -2.2260  2.1045
   85TIP3   OH2  218   4.269   2.435   4.253  0.1871  0.6736  0.1666
   85TIP3    H1  219   4.363   2.448   4.266  0.6740 -0.7380 -1.5811
   85TIP3    H2  220   4.232   2.438   4.342  1.8714  1.1764  0.8922
   86TIP3   OH2  221   2.086   5.405   3.393 -0.1648 -0.2315  0.2782
   86TIP3    H1  222   2.126   5.490   3.410 -0.7033  0.0312  0.2695
   86TIP3    H2  223   2.143   5.363   3.329 -0.3514  0.4765 -0.3597
   87TIP3   OH2  224   6.668   2.459   5.615 -0.2616 -0.0778  0.0954
   87TIP3    H1  225   6.603   2.431   5.679 -0.2223 -0.2192  0.0743
   87TIP3    H2  226   6.694   2.378   5.571 -0.5915  0.0805 -0.3889
   88TIP3   OH2  227   3.907   5.941   0.943 -0.2673  0.0574 -0.2308
   88TIP3    H1  228   3.852   5.864   0.937 -0.5233  0.2434 -0.2838
   88TIP3    H2  229   3.912   5.960   1.037 -0.8387  0.4282 -0.2688
   89TIP3   OH2  230   5.893   2.161   4.304  0.1008 -0.1693  0.0475
   89TIP3    H1  231   5.920   2.252   4.311  1.3553 -0.3930 -1.2507
   89TIP3    H2  232   5.968   2.111   4.338 -1.3903 -0.7286  2.7756
   90TIP3   OH2  233   0.567   5.432   5.251  0.2759  0.0624 -0.3548
   90TIP3    H1  234   0.477   5.447   5.221 -0.6013 -1.9766  0.9683
   90TIP3    H2  235   0.594   5.515   5.290 -1.1503  0.6435 -0.5514
   91TIP3   OH2  236   7.222   0.998   3.447 -0.3298  1.0203  0.4113
   91TIP3    H1  237   7.129   1.000   3.472 -0.6014 -0.3390 -0.3955
   91TIP3    H2  238   7.224   0.944   3.368  1.2487  0.3417  0.8841
   92TIP3   OH2  239   2.902   6.758   4.398  0.3927 -0.0299 -0.2366
   92TIP3    H1  240   2.924   6.666   4.410 -1.5311 -1.1453 -3.9491
   92TIP3    H2  241   2.848   6.780   4.474  2.2337 -1.3616  1.5786
   93TIP3   OH2  242   5.499   1.159   5.438 -0.1227  0.2088 -0.1681
   93TIP3    H1  243   5.488   1.128   5.348 -0.2856 -0.4381  0.0711
   93TIP3    H2  244   5.463   1.089   5.492  1.9406 -0.4110  0.4984
   94TIP3   OH2  245   0.147   0.339   2.948  0.3667 -0.3328  0.2677
   94TIP3    H1  246   0.106   0.258   2.978 -0.1947  0.1820  0.9452
   94TIP3    H2  247   0.107   0.357   2.863  0.6851 -0.8968 -0.0055
   95TIP3   OH2  248   5.383   2.130   3.918  0.5089 -0.2561 -0.2601
   95TIP3    H1  249   5.341   2.207   3.881  1.3583  0.4791  0.2927
   95TIP3    H2  250   5.411   2.157   4.005 -2.2564 -2.1881  1.4136
   96TIP3   OH2  251   0.447   3.426   2.533 -0.2833 -0.4025 -0.6379
   96TIP3    H1  252   0.422   3.489   2.466  0.5535 -0.2091 -0.7885
   96TIP3    H2  253   0.541   3.441   2.546 -0.2483 -1.0425 -0.0658
   97TIP3   OH2  254   2.646   6.079   4.270  0.3580  0.7562  0.3664
   97TIP3    H1  255   2.571   6.058   4.326 -1.4444  1.3987 -1.6841
   97TIP3    H2  256   2.662   5.999   4.220 -0.1796  1.1898 -0.5140
   98TIP3   OH2  257   4.787   2.937   5.121 -0.4144  0.0728 -0.8656
   98TIP3    H1  258   4.747   3.023   5.107  0.1048  0.4732  0.0470
   98TIP3    H2  259   4.737   2.899   5.192  1.0594  0.7641  0.6039
   99TIP3   OH2  260   3.199   0.999   2.527 -0.4459  0.1588  0.1880
   99TIP3    H1  261   3.192   0.975   2.619  1.9150  0.8982  0.6384
   99TIP3    H2  262   3.281   0.960   2.498 -0.6247  0.8226 -1.3123
  100TIP3   OH2  263   4.819   3.722   4.379 -0.2810 -0.4342 -0.3073
  100TIP3    H1  264   4.816   3.816   4.366 -0.1534 -0.5904 -1.6083
  100TIP3    H2  265   4.814   3.685   4.291  3.4891 -1.5547 -0.2382
  101TIP3   OH2  266   3.770   5.355   2.696 -0.1212  0.1892 -0.1420
  101TIP3    H1  267   3.731   5.429   2.743  0.5817 -0.0012  0.7609
  101TIP3    H2  268   3.716   5.280   2.720 -0.9815  0.4158 -1.2456
  102TIP3   OH2  269   2.116   5.273   5.527  0.0513 -0.4337 -0.0774
  102TIP3    H1  270   2.134   5.211   5.597  2.0726  0.7658  0.5541
  102TIP3    H2  271   2.098   5.355   5.572  0.0624  0.0526 -0.9272
  103TIP3   OH2  272   4.726   3.060   0.974 -0.1105 -0.4514  0.4168
  103TIP3    H1  273   4.750   2.972   1.003 -0.3053 -0.7891 -0.4101
  103TIP3    H2  274   4.664   3.091   1.040 -1.3328 -1.6071 -0.1320
  104TIP3   OH2  275   0.556   0.485   5.196  0.0714 -0.2622  0.2930
  104TIP3    H1  276   0.537   0.523   5.110 -1.6768 -2.1077 -0.2248
  104TIP3    H2  277   0.589   0.398   5.177  2.1092  0.2009  1.4895
  105TIP3   OH2  278   3.955   5.948   4.998 -0.7761  0.0606 -0.1556
  105TIP3    H1  279   3.885   5.883   5.003 -0.6655 -0.0593 -0.1613
  105TIP3    H2  280   3.928   6.017   5.059  0.1348 -0.9748  1.5220
  106TIP3   OH2  281   3.861   2.271   0.280 -0.2402 -0.0377 -0.0474
  106TIP3    H1  282   3.862   2.242   0.371 -0.1553  0.0598 -0.0176
  106TIP3    H2  283   3.768   2.278   0.258 -0.2695  0.8986  0.3382
  107TIP3   OH2  284   2.458   0.277   0.310 -0.3628 -0.1775  0.3596
  107TIP3    H1  285   2.420   0.195   0.280  0.7443 -0.3200 -0.7426
  107TIP3    H2  286   2.548   0.255   0.335 -0.4300  0.4767  1.2317
  108TIP3   OH2  287   5.004   0.471   1.422  0.2630 -0.3794 -0.2910
  108TIP3    H1  288   5.092   0.462   1.385  0.2375  0.6175 -0.6323
  108TIP3    H2  289   5.005   0.417   1.501  1.6658  0.7749  0.5314
  109TIP3   OH2  290   1.096   6.576   2.169  0.2178 -0.0844  0.2693
  109TIP3    H1  291   1.157   6.510   2.136 -0.0307 -0.2449  0.1252
  109TIP3    H2  292   1.091   6.558   2.263  0.0175 -0.3876  0.2050
  110TIP3   OH2  293   7.074   6.740   3.982  0.0881  0.1160 -0.2095
  110TIP3    H1  294   7.094   6.728   4.075  1.7583  1.1529 -0.3918
  110TIP3    H2  295   7.139   6.804   3.952 -2.3201  2.1808 -1.4034
  111TIP3   OH2  296   6.266   5.805   3.485  0.2534  0.1992 -0.8963
  111TIP3    H1  297   6.311   5.886   3.461 -1.3350  1.5250  0.3741
  111TIP3    H2  298   6.281   5.797   3.579 -0.9358 -0.1086 -0.7275
  112TIP3   OH2  299   0.247   6.249   2.998 -0.1246 -0.8779 -0.8151
  112TIP3    H1  300   0.216   6.180   2.940 -2.8763  2.1652 -3.3364
  112TIP3    H2  301   0.169   6.301   3.019  1.4343  0.4632  2.5241
  113TIP3   OH2  302   4.535   4.423   2.354  0.2800  0.6545 -0.4657
  113TIP3    H1  303   4.539   4.474   2.273  1.7345 -1.2163 -1.6693
  113TIP3    H2  304   4.447   4.386   2.355  1.1061 -1.6757 -2.8507
  114TIP3   OH2  305   5.873   0.186   1.727  0.1866 -0.0762  0.6920
  114TIP3    H1  306   5.884   0.281   1.726 -0.5967  0.0233 -0.6990
  114TIP3    H2  307   5.811   0.168   1.657  0.6377 -1.6552  0.6558
  115TIP3   OH2  308   6.551   0.335   5.589  0.1928 -0.0554 -0.7385
  115TIP3    H1  309   6.501   0.415   5.577  1.8521  0.9480 -1.3929
  115TIP3    H2  310   6.571   0.306   5.500  0.6082 -0.5221 -0.4992
  116TIP3   OH2  311   3.333   1.691   3.397 -0.0894 -0.1593  0.5247
  116TIP3    H1  312   3.401   1.746   3.357  1.8141 -3.1543 -0.6671
  116TIP3    H2  313   3.253   1.741   3.386  0.8145  0.7053 -4.2455
  117TIP3   OH2  314   3.487   0.232   4.319 -0.5237  0.3643  0.3329
  117TIP3    H1  315   3.430   0.284   4.263 -0.0762  0.4023 -0.0921
  117TIP3    H2  316   3.461   0.142   4.303  0.2833  0.3008 -0.7163
  118TIP3   OH2  317   1.359   1.762   2.061 -0.1607  0.2489 -0.3870
  118TIP3    H1  318   1.352   1.811   2.143 -2.3154  0.6000 -0.7166
  118TIP3    H2  319   1.280   1.786   2.012 -0.8262 -2.7788 -0.9928
  119TIP3   OH2  320   0.371   5.892   2.495 -0.3332  0.2147  0.1774
  119TIP3    H1  321   0.389   5.962   2.432 -2.1080  0.5739  0.0220
  119TIP3    H2  322   0.303   5.839   2.454 -0.5230 -0.3656  1.2029
  120TIP3   OH2  323   0.306   4.376   4.584 -0.1101  0.2412 -0.4879
  120TIP3    H1  324   0.391   4.352   4.547  0.4784  0.3336  0.7263
  120TIP3    H2  325   0.320   4.464   4.619 -0.1418 -0.4203  1.2974
  121TIP3   OH2  326   5.919   1.249   4.470  0.4754 -0.1419  0.3749
  121TIP3    H1  327   5.889   1.230   4.558 -0.5197 -0.2250  0.0309
  121TIP3    H2  328   5.878   1.333   4.448  0.6581 -0.1570 -0.0348
  122TIP3   OH2  329   5.191   2.671   1.537  0.6852 -0.3485 -0.0992
  122TIP3    H1  330   5.225   2.583   1.523  1.2900  0.1430 -1.9436
  122TIP3    H2  331   5.265   2.729   1.517 -0.5556  0.6687 -2.0494
  123TIP3   OH2  332   3.002   5.034   3.242  0.1746 -0.5489  0.2505
  123TIP3    H1  333   3.079   5.052   3.187  1.4430 -1.4856  1.6244
  123TIP3    H2  334   2.964   4.955   3.205 -0.0521 -0.1569 -0.3597
  124TIP3   OH2  335   6.142   5.493   2.431  0.8894 -0.1014  0.1568
  124TIP3    H1  336   6.063   5.528   2.391 -0.0116 -1.3910  0.7134
  124TIP3    H2  337   6.206   5.564   2.427  0.2488  0.4126 -1.8195
  125TIP3   OH2  338   5.401   1.760   5.512 -0.3553 -0.1463 -0.2929
  125TIP3    H1  339   5.348   1.777   5.435 -1.7306  1.3271  0.9033
  125TIP3    H2  340   5.453   1.840   5.523  2.2290 -1.5272 -1.4185
  126TIP3   OH2  341   0.258   5.936   3.437  0.3396 -0.2663  0.0786
  126TIP3    H1  342   0.267   5.939   3.342 -0.5723 -0.6668 -0.0326
  126TIP3    H2  343   0.189   5.872   3.452 -0.4753  0.7859  0.9537
  127TIP3   OH2  344   3.488   5.489   2.208  0.5477 -0.0609  0.4022
  127TIP3    H1  345   3.398   5.484   2.240  0.4120  1.0021  0.2223
  127TIP3    H2  346   3.537   5.428   2.263 -0.4567 -1.4184 -0.1733
  128TIP3   OH2  347   2.428   0.996   1.527 -0.0619  0.2761 -0.3259
  128TIP3    H1  348   2.430   1.085   1.492  1.5191  0.3240 -0.1660
  128TIP3    H2  349   2.375   1.003   1.606 -1.4287  0.6934 -1.2369
  129TIP3   OH2  350   3.001   6.500   3.908 -0.2799 -0.4932  0.9587
  129TIP3    H1  351   2.952   6.472   3.831  0.1673 -1.2796  0.9562
  129TIP3    H2  352   3.026   6.590   3.888 -2.2107  0.1624  1.2131
  130TIP3   OH2  353   6.485   0.565   5.317 -0.8271  0.5930  0.5338
  130TIP3    H1  354   6.430   0.488   5.300  0.2767 -0.7986  2.7317
  130TIP3    H2  355   6.575   0.532   5.310 -0.1742  2.6898 -2.4570
  131TIP3   OH2  356   4.006   1.155   2.088 -0.2408  0.0906 -0.0355
  131TIP3    H1  357   4.026   1.127   2.177 -0.0885 -1.3640 -0.4917
  131TIP3    H2  358   4.058   1.234   2.074 -0.0019  0.1307  1.0432
  132TIP3   OH2  359   4.375   0.303   2.231  0.1559 -0.1089 -0.3537
  132TIP3    H1  360   4.282   0.293   2.253  0.1929  0.1603 -0.0626
  132TIP3    H2  361   4.401   0.219   2.195  0.3595 -0.9694  1.6588
  133TIP3   OH2  362   0.106   5.199   4.428 -0.1331  0.0423  0.5979
  133TIP3    H1  363   0.049   5.143   4.480 -2.4423  0.4665 -1.2862
  133TIP3    H2  364   0.181   5.217   4.484  0.6298 -4.6048  1.4639
  134TIP3   OH2  365   6.121   2.883   5.627  0.2137 -0.1014 -0.1059
  134TIP3    H1  366   6.178   2.914   5.698  0.0595 -1.7518  0.7852
  134TIP3    H2  367   6.144   2.938   5.552 -0.6645  2.7298  1.5666
  135TIP3   OH2  368   6.961   2.498   3.129 -0.1741  0.0803  0.3371
  135TIP3    H1  369   6.935   2.567   3.069 -2.6118 -0.0194  1.1548
  135TIP3    H2  370   6.932   2.417   3.087 -0.0970 -0.1684  0.7511
  136TIP3   OH2  371   0.420   6.113   0.198  0.7892  0.2675  0.1858
  136TIP3    H1  372   0.389   6.203   0.213  0.8295  0.2347  0.4735
  136TIP3    H2  373   0.437   6.109   0.104 -1.0861 -0.0240 -0.1769
  137TIP3   OH2  374   5.096   1.380   2.562  0.3661 -0.5998  0.4643
  137TIP3    H1  375   5.075   1.411   2.474 -1.0198 -1.8053  0.3163
  137TIP3    H2  376   5.190   1.392   2.571  0.4982 -0.3108 -1.1318
  138TIP3   OH2  377   3.430   5.092   5.793 -0.2978 -0.1127  0.0973
  138TIP3    H1  378   3.340   5.123   5.781  0.2900  1.7279  0.1261
  138TIP3    H2  379   3.425   5.031   5.866 -1.4712  0.2488  0.3454
  139TIP3   OH2  380   0.552   0.851   3.971  0.0306  0.3893  0.5260
  139TIP3    H1  381   0.462   0.883   3.970  0.6248  2.1852  0.3980
  139TIP3    H2  382   0.605   0.929   3.988  1.5267 -0.7403  1.3198
  140TIP3   OH2  383   0.205   0.515   2.663 -0.5602  0.0699  0.2185
  140TIP3    H1  384   0.150   0.582   2.622 -0.2368 -0.0443 -0.4106
  140TIP3    H2  385   0.164   0.432   2.639  0.7369 -0.1057 -1.5955
  141TIP3   OH2  386   1.741   4.378   3.681  0.3637  0.2929  0.1870
  141TIP3    H1  387   1.686   4.308   3.717 -1.1201  1.0863 -0.4604
  141TIP3    H2  388   1.809   4.392   3.747 -1.1282  0.3671  1.7630
  142TIP3   OH2  389   4.426   1.568   5.743  0.3993  0.1057 -0.3238
  142TIP3    H1  390   4.490   1.503   5.774  0.4063  0.1386 -0.2696
  142TIP3    H2  391   4.435   1.566   5.648  1.1288  0.7715 -0.2735
  143TIP3   OH2  392   6.116   5.366   2.925 -0.2777  0.3298 -0.1135
  143TIP3    H1  393   6.090   5.274   2.929 -2.9408  0.9271 -1.5646
  143TIP3    H2  394   6.119   5.394   3.016 -0.4267 -0.9305  0.2995
  144TIP3   OH2  395   5.415   6.416   2.002 -0.0701  0.5338  0.2186
  144TIP3    H1  396   5.338   6.370   2.036  1.4871 -0.9405  1.9120
  144TIP3    H2  397   5.450   6.464   2.077  0.4974  1.4747 -0.6150
  145TIP3   OH2  398   1.656   0.827   0.132 -0.3730  0.3908  0.0563
  145TIP3    H1  399   1.632   0.753   0.075  1.0933  0.2349 -0.4072
  145TIP3    H2  400   1.603   0.815   0.211 -0.9893 -0.5138 -0.4762
  146TIP3   OH2  401   4.368   5.014   3.631  0.3129 -0.5653 -0.4583
  146TIP3    H1  402   4.394   5.086   3.574 -0.4334  0.8414  0.8734
  146TIP3    H2  403   4.295   4.972   3.586  0.3756 -0.1045 -0.9947
  147TIP3   OH2  404   5.014   5.272   5.786 -0.3698 -0.1816  0.1180
  147TIP3    H1  405   4.999   5.349   5.732 -0.0703 -0.0818  0.1730
  147TIP3    H2  406   5.091   5.295   5.839  0.1479 -0.7806 -0.3606
  148TIP3   OH2  407   3.049   3.535   4.725  0.0139 -0.0220 -0.2626
  148TIP3    H1  408   3.108   3.460   4.737  0.3531  0.3382  0.3529
  148TIP3    H2  409   3.108   3.608   4.705 -0.2676  0.2205 -0.2057
  149TIP3   OH2  410   3.168   1.372   5.481  0.0741 -0.0488 -0.0392
  149TIP3    H1  411   3.129   1.453   5.450 -1.5341 -0.8409 -0.1614
  149TIP3    H2  412   3.184   1.387   5.574  0.5346  0.6684 -0.2224
  150TIP3   OH2  413   1.808   3.456   5.185  0.2072 -0.5825  0.0694
  150TIP3    H1  414   1.737   3.433   5.246  0.3148 -1.3939 -0.0983
  150TIP3    H2  415   1.774   3.432   5.099  0.0913  0.4770 -0.1919
  151TIP3   OH2  416   3.613   1.320   4.113  0.2996 -0.1783 -0.5012
  151TIP3    H1  417   3.564   1.244   4.081 -1.8357  0.6876  0.4586
  151TIP3    H2  418   3.672   1.285   4.179 -0.9530 -0.9898  0.2288
  152TIP3   OH2  419   2.774   1.641   0.054  0.0630  0.2773  0.2276
  152TIP3    H1  420   2.682   1.615   0.045 -0.0561  1.2169 -1.8188
  152TIP3    H2  421   2.820   1.559   0.074 -1.2727 -0.0764  2.1547
  153TIP3   OH2  422   6.674   6.226   4.094 -0.6699 -0.2905  0.1355
  153TIP3    H1  423   6.642   6.308   4.056 -1.0603  0.6798  2.3799
  153TIP3    H2  424   6.616   6.159   4.058 -0.4263  0.3816 -1.6486
  154TIP3   OH2  425   1.651   4.881   3.665  0.2387  0.3498  0.5571
  154TIP3    H1  426   1.576   4.889   3.724  0.0214  1.3809  0.1705
  154TIP3    H2  427   1.666   4.970   3.633  0.5016 -0.1329 -0.7508
  155TIP3   OH2  428   0.887   1.853   5.702 -0.8833 -0.5663  0.3156
  155TIP3    H1  429   0.800   1.864   5.664 -1.9286 -0.7745  2.4811
  155TIP3    H2  430   0.874   1.868   5.796  1.8339  1.6336  0.4694
  156TIP3   OH2  431   4.505   3.870   4.167 -0.1455 -0.1291 -0.0176
  156TIP3    H1  432   4.595   3.893   4.145 -0.3218  0.1464 -0.4593
  156TIP3    H2  433   4.456   3.881   4.085 -0.3518 -1.4933 -0.1048
  157TIP3   OH2  434   3.042   5.731   1.192  0.6374  0.0221 -0.1061
  157TIP3    H1  435   3.110   5.790   1.160  1.6329 -1.9846 -1.9253
  157TIP3    H2  436   2.961   5.765   1.153  0.5833  2.0520  1.5746
  158TIP3   OH2  437   1.992   1.596   0.177  0.0182  0.2658 -0.0405
  158TIP3    H1  438   2.053   1.669   0.164  0.9663 -0.3792  0.6085
  158TIP3    H2  439   2.045   1.529   0.219 -1.5369  0.2850  2.1177
  159TIP3   OH2  440   2.428   0.863   5.068 -0.0729  0.4171 -0.4908
  159TIP3    H1  441   2.371   0.790   5.091 -1.0612  0.9256 -1.2220
  159TIP3    H2  442   2.392   0.938   5.115  0.4897  0.5820 -0.3167
  160TIP3   OH2  443   3.890   0.543   1.559  0.1055 -0.3832  0.5248
  160TIP3    H1  444   3.858   0.468   1.608  1.2701 -1.5750 -0.4629
  160TIP3    H2  445   3.985   0.535   1.561  0.2069 -0.0686 -1.2604
  161TIP3   OH2  446   5.503   0.145   4.433  0.3575  0.2354 -0.6888
  161TIP3    H1  447   5.447   0.069   4.447  1.5557 -0.3062  1.9740
  161TIP3    H2  448   5.578   0.111   4.385  1.9217 -0.9426  2.3088
  162TIP3   OH2  449   5.977   6.450   5.665 -0.2868  0.1340 -0.2327
  162TIP3    H1  450   6.072   6.460   5.676  0.0290  2.3429 -3.6303
  162TIP3    H2  451   5.967   6.380   5.601 -0.9019  0.5286 -0.5772
  163TIP3   OH2  452   2.276   2.082   5.049 -0.0580 -0.4554  0.2095
  163TIP3    H1  453   2.188   2.118   5.039 -0.9013 -2.5603 -0.5118
  163TIP3    H2  454   2.275   2.038   5.134 -0.1069 -1.4880 -0.3112
  164TIP3   OH2  455   3.095   3.907   2.194  0.1246 -0.9324  0.1337
  164TIP3    H1  456   3.001   3.912   2.177  0.0030 -3.5349 -0.4249
  164TIP3    H2  457   3.132   3.981   2.147 -1.2968 -2.1012 -3.0812
  165TIP3   OH2  458   4.310   3.027   5.139 -0.1354  0.5688 -0.0749
  165TIP3    H1  459   4.329   2.951   5.083 -0.2269  1.7808 -1.8163
  165TIP3    H2  460   4.215   3.025   5.152 -0.1885  0.6197 -0.4629
  166TIP3   OH2  461   1.396   3.871   4.002 -0.0707 -0.4557 -0.1054
  166TIP3    H1  462   1.321   3.813   3.993 -0.6930  0.5323 -1.7828
  166TIP3    H2  463   1.359   3.953   4.037  0.1978  0.0402 -0.9566
  167TIP3   OH2  464   6.884   6.663   0.041 -0.6435  0.2494  0.2421
  167TIP3    H1  465   6.837   6.583   0.019  1.6107 -0.9888 -0.4847
  167TIP3    H2  466   6.861   6.725  -0.027 -0.0189 -0.8705 -1.0448
  168TIP3   OH2  467   5.031   4.171   1.609  0.1641 -0.4690 -0.0222
  168TIP3    H1  468   5.051   4.177   1.702 -0.9236 -0.6405  0.2411
  168TIP3    H2  469   4.936   4.184   1.604  0.2721 -0.0091 -1.1526
  169TIP3   OH2  470   1.258   0.140   2.561 -0.2470  0.2516  0.3353
  169TIP3    H1  471   1.184   0.117   2.506 -0.3081  0.3306  0.3830
  169TIP3    H2  472   1.330   0.085   2.531  0.0681  1.1659 -0.6587
  170TIP3   OH2  473   0.287   0.311   5.307  0.6135  0.3755  0.2803
  170TIP3    H1  474   0.207   0.279   5.265  0.1008  1.2527  0.5529
  170TIP3    H2  475   0.358   0.279   5.252  0.1246 -1.0789  0.4649
  171TIP3   OH2  476   6.351   1.025   5.148 -0.0893  0.0355 -0.5357
  171TIP3    H1  477   6.394   1.067   5.223 -0.3468  0.6567 -0.7320
  171TIP3    H2  478   6.311   0.946   5.185 -0.3638  0.4293  0.0235
  172TIP3   OH2  479   3.516   4.403   3.532  0.1427 -0.1036 -0.0781
  172TIP3    H1  480   3.559   4.487   3.520  3.0522 -1.6599 -1.9123
  172TIP3    H2  481   3.457   4.395   3.457  1.7761 -0.6363 -1.3841
  173TIP3   OH2  482   0.020   6.270   1.217  0.0247  0.3413  0.1084
  173TIP3    H1  483  -0.001   6.363   1.207 -1.2576  0.1223  0.5686
  173TIP3    H2  484   0.022   6.256   1.312 -0.2187 -0.1751  0.0431
  174TIP3   OH2  485   0.919   0.914   3.799 -0.1617  1.2052 -0.2227
  174TIP3    H1  486   0.986   0.983   3.802 -1.2224  2.2246  0.7263
  174TIP3    H2  487   0.851   0.949   3.742  0.6647 -0.4130 -2.3598
  175TIP3   OH2  488   4.036   3.902   4.057 -0.2639  0.2782  0.3570
  175TIP3    H1  489   4.048   3.823   4.006 -0.9670 -0.4606  1.2825
  175TIP3    H2  490   4.067   3.879   4.145 -1.1599  0.7787  0.8239
  176TIP3   OH2  491   5.884   0.510   4.370 -0.3336  0.2369 -0.6656
  176TIP3    H1  492   5.888   0.589   4.424  0.2299  1.1847 -2.0437
  176TIP3    H2  493   5.842   0.445   4.426  2.8628  0.2417  2.0144
  177TIP3   OH2  494   6.605   5.197   1.555 -0.2332 -0.0906 -0.2334
  177TIP3    H1  495   6.623   5.105   1.538 -0.7202 -0.5322  1.4729
  177TIP3    H2  496   6.690   5.240   1.550 -0.2970 -0.0152 -4.0071
  178TIP3   OH2  497   1.874   0.349   5.693  0.1479  0.3811 -0.1263
  178TIP3    H1  498   1.881   0.275   5.753 -0.4594 -0.2954 -0.8673
  178TIP3    H2  499   1.947   0.337   5.632 -0.8961 -0.5400 -1.2310
  179TIP3   OH2  500   2.536   0.637   2.716 -0.0166 -0.1308  0.3453
  179TIP3    H1  501   2.566   0.688   2.791  0.2371  0.4826 -0.1660
  179TIP3    H2  502   2.607   0.645   2.652 -0.9413  0.7611 -0.6129
  180TIP3   OH2  503   4.463   0.035   3.743 -0.5097 -0.0779  0.2175
  180TIP3    H1  504   4.398   0.104   3.762 -1.3413 -0.8178  0.1215
  180TIP3    H2  505   4.507   0.021   3.827 -0.5933  0.3003  0.3295
  181TIP3   OH2  506   3.570   6.216   1.503  0.2322 -0.1242  0.0270
  181TIP3    H1  507   3.581   6.194   1.596  0.2072 -0.4717 -0.0534
  181TIP3    H2  508   3.526   6.140   1.465  1.2334 -0.4529 -0.5027
  182TIP3   OH2  509   2.553   4.936   2.559  0.2628 -0.6058  0.7267
  182TIP3    H1  510   2.620   4.993   2.597  0.1645 -0.2280  0.3428
  182TIP3    H2  511   2.557   4.856   2.611 -0.1122  0.0297  1.7511
  183TIP3   OH2  512   6.664   2.031   1.496  0.0082 -0.5960  0.1630
  183TIP3    H1  513   6.603   2.026   1.423 -0.7298 -0.4013  0.7632
  183TIP3    H2  514   6.705   2.117   1.488 -1.4762  0.2414  1.0666
  184TIP3   OH2  515   4.566   1.135   1.892 -0.1264 -0.3986  0.2181
  184TIP3    H1  516   4.616   1.145   1.973 -1.2427  2.8435  0.6786
  184TIP3    H2  517   4.631   1.142   1.822  0.3613  1.9701  0.8312
  185TIP3   OH2  518   2.974   6.634   0.749 -0.0693  0.4615 -0.1323
  185TIP3    H1  519   2.930   6.551   0.730  1.2695 -0.3932  0.3546
  185TIP3    H2  520   3.034   6.613   0.821  0.9941  1.6144 -0.6466
  186TIP3   OH2  521   3.219   0.483   0.471  0.2831  0.2844 -0.8049
  186TIP3    H1  522   3.300   0.533   0.482  0.2581  0.1886 -0.1364
  186TIP3    H2  523   3.239   0.398   0.509  0.0238  0.0967 -1.0883
  187TIP3   OH2  524   5.960   6.748   5.576 -0.4828  0.5728  0.0145
  187TIP3    H1  525   5.912   6.704   5.646 -0.5995  1.0630  0.2465
  187TIP3    H2  526   6.028   6.799   5.621  0.6817 -0.6185 -0.3453
  188TIP3   OH2  527   5.860   6.019   0.934  0.5479 -0.1744 -0.0921
  188TIP3    H1  528   5.903   5.942   0.971 -2.9833 -2.4239 -0.1611
  188TIP3    H2  529   5.798   6.047   1.002  0.0746  1.0948 -1.0014
  189TIP3   OH2  530   3.577   1.615   0.660  0.4130 -0.1877 -0.1950
  189TIP3    H1  531   3.630   1.628   0.582  0.3970  1.6391  0.0592
  189TIP3    H2  532   3.607   1.682   0.722 -0.0439 -1.1486  1.1204
  190TIP3   OH2  533   7.073   1.026   2.201  0.1048 -0.3845  0.3364
  190TIP3    H1  534   7.051   1.079   2.278 -1.0628 -0.5379  0.1255
  190TIP3    H2  535   7.002   1.041   2.140  0.4173 -1.1916 -0.2450
  191TIP3   OH2  536   4.523   4.239   2.944  0.3273 -0.7093 -0.2049
  191TIP3    H1  537   4.520   4.222   2.850  2.0048  0.5130 -0.5308
  191TIP3    H2  538   4.592   4.181   2.976 -0.4586 -1.3564  0.3427
  192TIP3   OH2  539   1.392   5.175   5.784 -0.2099 -0.7270 -0.1949
  192TIP3    H1  540   1.321   5.177   5.848 -1.0255 -1.0650 -1.0721
  192TIP3    H2  541   1.366   5.108   5.721  0.8987 -0.8664 -0.5278
  193TIP3   OH2  542   4.502   4.460   3.141  0.2301  0.0984  0.3299
  193TIP3    H1  543   4.515   4.375   3.099  0.4386 -0.4021  1.3793
  193TIP3    H2  544   4.547   4.453   3.225 -0.6363  0.8869  0.8837
  194TIP3   OH2  545   0.409   4.014   5.206  0.4163 -0.0213  0.3885
  194TIP3    H1  546   0.447   3.932   5.238 -0.3816 -0.3008  0.6450
  194TIP3    H2  547   0.362   3.990   5.126  0.1624  0.1730  0.4764
  195TIP3   OH2  548   3.996   5.921   4.427  0.1187  1.0233 -0.6579
  195TIP3    H1  549   4.069   5.904   4.368 -0.1642  1.6434 -1.2060
  195TIP3    H2  550   3.990   5.843   4.481  0.5925  0.5781 -1.2340
  196TIP3   OH2  551   3.883   6.640   4.618 -0.3339 -0.1702  0.3089
  196TIP3    H1  552   3.811   6.650   4.680 -1.1205  4.7888 -0.9536
  196TIP3    H2  553   3.957   6.614   4.671 -1.9707 -0.5856  2.5235
  197TIP3   OH2  554   4.954   1.426   5.060  0.3321  0.0267  0.5079
  197TIP3    H1  555   4.882   1.377   5.099  0.5712 -1.7068 -1.0852
  197TIP3    H2  556   5.017   1.436   5.131  0.3189 -2.1292  0.8875
  198TIP3   OH2  557   5.153   5.516   0.539 -0.5431 -0.3867 -0.1956
  198TIP3    H1  558   5.131   5.426   0.517 -2.1502 -0.0622 -0.0394
  198TIP3    H2  559   5.144   5.521   0.634  1.2840 -0.4740  0.0199
  199TIP3   OH2  560   5.291   3.477   5.698  0.4631  0.1824 -0.5417
  199TIP3    H1  561   5.347   3.460   5.622 -0.5377  2.5934 -1.9558
  199TIP3    H2  562   5.224   3.536   5.665 -0.5557  0.6048  2.0455
  200TIP3   OH2  563   6.698   4.337   4.716 -0.2068  0.3859  0.4921
  200TIP3    H1  564   6.678   4.321   4.808 -0.8523 -1.9845  0.0103
  200TIP3    H2  565   6.613   4.341   4.673 -0.0227 -3.5770 -0.6547
  201TIP3   OH2  566   3.013   3.740   4.985 -0.0290 -0.2946  0.5878
  201TIP3    H1  567   3.036   3.829   5.012 -0.5294 -0.0361  0.1844
  201TIP3    H2  568   2.955   3.708   5.054  0.1295 -0.2978  0.7198
  202TIP3   OH2  569   0.633   0.488   5.466  0.5155  0.0340 -0.1177
  202TIP3    H1  570   0.711   0.433   5.477  0.2364 -0.3343  0.0247
  202TIP3    H2  571   0.618   0.490   5.371  0.2784 -0.4835 -0.0935
  203TIP3   OH2  572   2.396   5.531   1.382  0.0991  0.0097  0.0872
  203TIP3    H1  573   2.384   5.613   1.429  0.5063 -0.6210  1.3440
  203TIP3    H2  574   2.490   5.526   1.364  0.0192  0.0017 -0.3491
  204TIP3   OH2  575   3.384   1.600   1.568 -0.0781  0.2081  0.7812
  204TIP3    H1  576   3.346   1.590   1.656 -1.1838 -0.4661  0.2516
  204TIP3    H2  577   3.311   1.632   1.515 -0.0374 -1.5198 -0.3611
  205TIP3   OH2  578   6.942   1.142   1.115  0.5747  0.3596 -0.1040
  205TIP3    H1  579   7.013   1.106   1.168 -0.2907  2.3577  2.7184
  205TIP3    H2  580   6.862   1.119   1.163 -0.3279  1.7273 -0.8640
  206TIP3   OH2  581   6.343   0.540   2.601 -0.1514 -0.4341 -0.0076
  206TIP3    H1  582   6.367   0.624   2.640 -0.7227 -1.0801  1.8241
  206TIP3    H2  583   6.316   0.485   2.675  1.5603 -2.7402 -0.9786
  207TIP3   OH2  584   0.393   3.472   1.118  0.1436  0.0800 -0.6876
  207TIP3    H1  585   0.374   3.438   1.031  0.4071 -0.7640 -0.4267
  207TIP3    H2  586   0.404   3.566   1.105 -1.2813  0.1895 -1.3175
  208TIP3   OH2  587   1.188   1.110   2.201  0.0919  0.0761 -0.0807
  208TIP3    H1  588   1.223   1.169   2.269 -0.9736  1.0775 -0.3781
  208TIP3    H2  589   1.165   1.168   2.129  1.6899 -1.0290 -1.5467
  209TIP3   OH2  590   1.124   2.378   5.249 -0.0700  0.3570 -0.5168
  209TIP3    H1  591   1.075   2.460   5.249 -0.2941  0.2663 -2.2202
  209TIP3    H2  592   1.062   2.312   5.217  0.3015 -0.3487  0.1726
  210TIP3   OH2  593   0.577   6.047   4.344  0.1118  0.4596  0.1160
  210TIP3    H1  594   0.644   6.083   4.403 -0.4689  1.6573  0.0654
  210TIP3    H2  595   0.626   5.991   4.284  1.1063  1.4562 -0.0350
  211TIP3   OH2  596   3.195   1.294   4.254  0.0251  0.7772 -0.4547
  211TIP3    H1  597   3.287   1.318   4.242  0.1451  0.5676  0.0178
  211TIP3    H2  598   3.146   1.366   4.213  0.3862  1.3727  0.1310
  212TIP3   OH2  599   0.051   3.176   4.806  0.0126 -0.5738 -0.8390
  212TIP3    H1  600   0.083   3.220   4.885  1.5101  0.5887 -2.0443
  212TIP3    H2  601  -0.013   3.236   4.769 -0.7127 -1.1330 -0.5193
  213TIP3   OH2  602   1.093   4.444   2.617  0.0911  0.3382  0.5265
  213TIP3    H1  603   1.149   4.480   2.686  0.4626  0.5969  0.0916
  213TIP3    H2  604   1.048   4.520   2.580  1.2069  0.4211 -0.6889
  214TIP3   OH2  605   6.520   6.711   4.554 -0.0317 -0.1992 -0.3938
  214TIP3    H1  606   6.459   6.638   4.559  0.2721 -0.4111  0.3607
  214TIP3    H2  607   6.550   6.724   4.644 -1.2458  1.8540 -0.2199
  215TIP3   OH2  608   0.749   1.617   1.391 -0.3901 -0.8825 -0.1200
  215TIP3    H1  609   0.689   1.550   1.425 -1.0750 -0.4795 -0.5068
  215TIP3    H2  610   0.835   1.588   1.420 -0.8080 -1.2646  0.8065
  216TIP3   OH2  611   5.507   1.273   5.758  0.4392 -0.0821  0.1042
  216TIP3    H1  612   5.594   1.247   5.789  0.8195  2.8564  1.9315
  216TIP3    H2  613   5.521   1.358   5.716 -1.6218  1.0557  1.5131
  217TIP3   OH2  614   3.240   4.870   1.514 -0.2718  0.1680 -0.6198
  217TIP3    H1  615   3.316   4.907   1.559 -2.0298  0.0753  2.8040
  217TIP3    H2  616   3.216   4.935   1.449  3.2051 -0.2654 -2.6061
  218TIP3   OH2  617   0.357   0.191   2.665 -0.3388  0.9457  0.2346
  218TIP3    H1  618   0.308   0.226   2.591 -0.8270 -0.0974  0.0362
  218TIP3    H2  619   0.304   0.117   2.695  0.0291  1.1406  1.4094
  219TIP3   OH2  620   0.002   6.301   4.743  0.0186 -0.5272  0.0931
  219TIP3    H1  621   0.017   6.338   4.656 -0.7408 -0.4750 -0.0259
  219TIP3    H2  622   0.005   6.206   4.729  0.0378 -0.5183  0.0364
  220TIP3   OH2  623   2.309   1.021   4.307 -0.0147  0.6872 -0.8785
  220TIP3    H1  624   2.269   1.105   4.331 -0.0649  0.4246 -0.0318
  220TIP3    H2  625   2.382   1.011   4.369  0.2532  0.3031 -1.2520
  221TIP3   OH2  626   4.620   0.585   1.074 -1.2116  0.1864  0.2116
  221TIP3    H1  627   4.578   0.521   1.016 -0.6838  0.1524 -0.1406
  221TIP3    H2  628   4.691   0.536   1.115 -1.0764  0.4306  0.2662
  222TIP3   OH2  629   1.287   0.573   5.136 -0.2559 -0.2535 -0.3564
  222TIP3    H1  630   1.248   0.647   5.183  1.1741  0.2232  0.1075
  222TIP3    H2  631   1.341   0.529   5.201 -0.8204 -1.5397 -0.7149
  223TIP3   OH2  632   3.591   4.739   1.822  0.2355 -0.1269 -0.1239
  223TIP3    H1  633   3.686   4.738   1.826  0.2154 -1.2236  1.0705
  223TIP3    H2  634   3.567   4.648   1.804 -0.5977 -0.3384  1.7840
  224TIP3   OH2  635   4.607   1.119   4.449 -0.5357 -0.6539 -0.3420
  224TIP3    H1  636   4.604   1.182   4.377 -1.9055 -0.0338  0.2092
  224TIP3    H2  637   4.627   1.035   4.407  1.3830  0.1274 -1.0849
  225TIP3   OH2  638   1.073   4.122   1.074  0.0432 -0.0286 -0.2825
  225TIP3    H1  639   1.137   4.065   1.032 -0.8977 -0.9958 -0.4353
  225TIP3    H2  640   1.088   4.111   1.168  2.0929  2.0694 -0.2662
  226TIP3   OH2  641   7.127   5.762   0.621  0.2108  0.1227 -0.0126
  226TIP3    H1  642   7.056   5.800   0.673 -0.3082 -0.7975 -0.0278
  226TIP3    H2  643   7.084   5.730   0.542  0.7781  0.2535 -0.3804
  227TIP3   OH2  644   3.989   3.666   3.657 -0.1807  0.1869 -0.4185
  227TIP3    H1  645   3.945   3.750   3.645  0.3006  0.3382 -1.2013
  227TIP3    H2  646   4.059   3.666   3.592  1.7764  0.4614  1.5738
  228TIP3   OH2  647   1.322   3.523   2.877 -0.3890  0.7767  0.2238
  228TIP3    H1  648   1.350   3.509   2.787 -2.8001 -0.1388 -0.4441
  228TIP3    H2  649   1.231   3.495   2.879  0.3645 -2.1565  3.6726
  229TIP3   OH2  650   4.100   1.361   3.675  0.2704  0.1261 -0.1595
  229TIP3    H1  651   4.162   1.337   3.606  0.4069 -1.7506  0.5550
  229TIP3    H2  652   4.070   1.277   3.710 -0.4191  1.0327  1.5227
  230TIP3   OH2  653   0.187   2.440   5.266  0.2629  0.3735 -0.6727
  230TIP3    H1  654   0.267   2.488   5.244  0.7657 -1.0654 -2.2439
  230TIP3    H2  655   0.117   2.487   5.220  0.0697  1.9111  1.0828
  231TIP3   OH2  656   3.603   4.939   4.759 -0.1152 -0.0947 -0.2738
  231TIP3    H1  657   3.536   4.999   4.726 -0.6710 -0.2095  0.6126
  231TIP3    H2  658   3.572   4.852   4.733  1.3399  0.0041 -2.7229
  232TIP3   OH2  659   6.844   3.406   4.011 -0.2248 -0.0098  0.6827
  232TIP3    H1  660   6.909   3.352   4.057  1.7261  2.6343  1.3072
  232TIP3    H2  661   6.894   3.449   3.942 -1.6404  1.1186  0.3188
  233TIP3   OH2  662   2.450   5.010   2.322  0.1150  1.0272 -0.1052
  233TIP3    H1  663   2.437   4.922   2.287  0.1006  0.7241  0.6435
  233TIP3    H2  664   2.493   4.996   2.407  0.0572  1.7363  0.0452
  234TIP3   OH2  665   4.800   2.643   2.385  0.3758  0.1445 -0.3167
  234TIP3    H1  666   4.875   2.589   2.360  1.5723  1.4814  0.2430
  234TIP3    H2  667   4.839   2.719   2.429 -1.3099  0.8990 -0.0594
  235TIP3   OH2  668   3.826   6.567   1.309 -0.0541 -0.5922  0.6515
  235TIP3    H1  669   3.775   6.487   1.316 -0.7304 -0.1979  0.2959
  235TIP3    H2  670   3.767   6.630   1.268  0.4380  0.1130  1.0013
  236TIP3   OH2  671   2.923   3.193   5.665  0.6865  0.3313  0.5780
  236TIP3    H1  672   2.909   3.269   5.721 -0.1354 -0.0581  0.9274
  236TIP3    H2  673   2.843   3.142   5.674  0.2982  0.5192 -1.3843
  237TIP3   OH2  674   2.020   3.987   3.379 -0.4639  0.0662 -0.0577
  237TIP3    H1  675   1.999   4.051   3.448  0.4350  1.7196 -1.2337
  237TIP3    H2  676   1.946   3.994   3.318 -1.4059 -1.6116  0.8281
  238TIP3   OH2  677   0.132   6.229   5.054  0.1152  0.2524  0.3838
  238TIP3    H1  678   0.108   6.177   5.131 -1.0759 -1.8155 -1.2515
  238TIP3    H2  679   0.174   6.165   4.996 -1.6881  0.9945 -1.8585
  239TIP3   OH2  680   1.127   0.778   4.512 -0.4814  0.2404 -0.0671
  239TIP3    H1  681   1.049   0.736   4.475  0.1982 -0.6807 -0.4990
  239TIP3    H2  682   1.103   0.797   4.602 -1.5773  0.9588 -0.4854
  240TIP3   OH2  683   4.674   1.504   4.727  0.2152 -0.1137 -0.1234
  240TIP3    H1  684   4.616   1.449   4.780  0.9875  1.1343  2.1185
  240TIP3    H2  685   4.762   1.475   4.751  0.5927  0.9344 -0.2284
  241TIP3   OH2  686   5.578   6.248   0.961 -0.0781  0.4081  0.3250
  241TIP3    H1  687   5.508   6.282   0.906 -0.8294  0.9549  1.5977
  241TIP3    H2  688   5.645   6.317   0.959 -0.8800  1.2702  1.5269
  242TIP3   OH2  689   6.396   4.235   4.639  0.1716  0.2500  0.0860
  242TIP3    H1  690   6.408   4.190   4.556  1.8240  1.4760 -0.3840
  242TIP3    H2  691   6.330   4.182   4.686 -1.6687  0.1578 -2.4123
  243TIP3   OH2  692   2.622   2.749   1.897  0.2092  0.7761 -0.2162
  243TIP3    H1  693   2.583   2.805   1.831  1.8514  1.0374 -1.0117
  243TIP3    H2  694   2.645   2.668   1.851 -4.2241 -1.7287  1.3493
  244TIP3   OH2  695   1.047   4.221   2.804 -1.6014 -0.0609  0.2922
  244TIP3    H1  696   1.097   4.162   2.747  0.1357  0.4672  1.1983
  244TIP3    H2  697   1.057   4.307   2.764 -0.7711  0.2341  1.0944
  245TIP3   OH2  698   6.904   5.106   3.372 -0.5098 -0.4454 -0.4826
  245TIP3    H1  699   6.937   5.022   3.403 -1.1625 -0.1106  1.1850
  245TIP3    H2  700   6.860   5.145   3.447  2.2366  2.7293 -0.2939
  246TIP3   OH2  701   2.791   1.133   3.456 -0.0283  0.2330 -0.3147
  246TIP3    H1  702   2.828   1.048   3.481  0.4350  0.1489 -1.2417
  246TIP3    H2  703   2.851   1.197   3.494 -0.2734  0.1443  0.2249
  247TIP3   OH2  704   7.204   0.316   2.738 -0.1119 -0.6587 -0.6925
  247TIP3    H1  705   7.203   0.257   2.662  1.3268  0.6190 -1.7453
  247TIP3    H2  706   7.161   0.265   2.807 -1.0928 -2.0210 -2.2217
  248TIP3   OH2  707   5.707   0.248   1.500 -0.0905 -0.4805  0.0556
  248TIP3    H1  708   5.628   0.199   1.479 -0.8320  0.2794  0.9969
  248TIP3    H2  709   5.676   0.333   1.531  1.1213  0.0709 -0.1753
  249TIP3   OH2  710   1.979   0.407   5.429 -0.1205 -0.0380 -0.5572
  249TIP3    H1  711   1.888   0.396   5.402 -1.3550  0.1338  3.0357
  249TIP3    H2  712   2.014   0.318   5.430 -1.9181 -0.8912  2.7799
  250TIP3   OH2  713   1.600   2.403   2.377 -0.3888 -0.1611  0.1404
  250TIP3    H1  714   1.639   2.392   2.290 -1.1695 -0.3529 -0.1955
  250TIP3    H2  715   1.512   2.366   2.368 -1.5077  2.3098  0.2273
  251TIP3   OH2  716   5.949   2.843   2.055  0.5001  0.0693  0.5055
  251TIP3    H1  717   5.921   2.754   2.034  0.5971 -0.0513  0.8847
  251TIP3    H2  718   5.886   2.899   2.010  1.7405 -0.1407 -1.6644
  252TIP3   OH2  719   1.080   5.033   0.193  0.5293 -0.4617  0.0326
  252TIP3    H1  720   1.141   5.087   0.144 -0.6154 -0.5927 -1.6211
  252TIP3    H2  721   1.099   5.052   0.285  1.3949  1.3262 -0.4739
  253TIP3   OH2  722   3.769   4.695   0.673 -0.2065  0.1755 -0.0972
  253TIP3    H1  723   3.772   4.708   0.578 -0.6422  1.9590  0.0910
  253TIP3    H2  724   3.698   4.632   0.687 -0.0382 -0.2177 -0.9535
  254TIP3   OH2  725   4.209   3.173   1.780  0.0328  0.0365 -0.3846
  254TIP3    H1  726   4.129   3.120   1.780 -0.5292  0.8439  0.2100
  254TIP3    H2  727   4.233   3.181   1.688  0.2997 -1.4790 -0.4629
  255TIP3   OH2  728   6.220   4.350   5.855 -0.1006 -0.3971 -0.0009
  255TIP3    H1  729   6.212   4.346   5.760  2.2144  1.5299 -0.3700
  255TIP3    H2  730   6.271   4.273   5.878  1.2909  0.2918 -0.6536
  256TIP3   OH2  731   5.789   4.762   1.467  0.4725  0.7808 -0.3194
  256TIP3    H1  732   5.757   4.730   1.551 -1.2899  3.3324  0.1045
  256TIP3    H2  733   5.862   4.819   1.489 -0.4330  2.0173 -0.3633
  257TIP3   OH2  734   6.989   1.660   3.769 -0.3753  0.9057  0.0431
  257TIP3    H1  735   6.924   1.704   3.714 -1.0203 -1.7160 -1.4535
  257TIP3    H2  736   7.073   1.698   3.742 -0.9015  1.2607 -1.1650
  258TIP3   OH2  737   6.835   2.794   5.088 -0.3636  1.0432  0.1482
  258TIP3    H1  738   6.925   2.783   5.120 -1.4862  0.6926  3.5779
  258TIP3    H2  739   6.818   2.715   5.037  0.7059  0.2538  0.9752
  259TIP3   OH2  740   1.748   4.703   5.329  0.5544 -0.8628  0.3443
  259TIP3    H1  741   1.683   4.725   5.396  2.8917 -1.0786  2.8510
  259TIP3    H2  742   1.796   4.629   5.365  1.8611 -1.0657 -1.6563
  260TIP3   OH2  743   0.256   3.700   4.230  0.2325  0.3086 -0.0662
  260TIP3    H1  744   0.228   3.766   4.294  0.3385 -1.2557  1.6748
  260TIP3    H2  745   0.344   3.676   4.258 -0.1261 -1.1655 -0.1601
  261TIP3   OH2  746   1.555   3.371   5.316 -0.2495 -0.1179  0.0435
  261TIP3    H1  747   1.518   3.357   5.403  0.0345 -0.7818  0.0638
  261TIP3    H2  748   1.495   3.327   5.256 -0.4005  0.2668 -0.0937
  262TIP3   OH2  749   1.120   6.441   4.125 -0.5037 -0.3127 -0.1946
  262TIP3    H1  750   1.124   6.345   4.126  1.6298 -0.2733  0.8354
  262TIP3    H2  751   1.158   6.465   4.040  0.8509 -0.3610  0.3863
  263TIP3   OH2  752   4.979   6.291   1.914 -0.3533  0.0125 -0.3117
  263TIP3    H1  753   4.958   6.362   1.854  3.0857  1.1386 -0.3744
  263TIP3    H2  754   5.010   6.220   1.857 -0.1044 -0.1146 -0.0183
  264TIP3   OH2  755   2.596   5.172   4.707  0.0629  0.8958 -0.1064
  264TIP3    H1  756   2.514   5.196   4.664 -0.4039  0.7508  0.6838
  264TIP3    H2  757   2.652   5.140   4.636 -0.7118  0.5976 -0.5952
  265TIP3   OH2  758   6.472   1.092   5.708 -0.1320  0.0031  0.1752
  265TIP3    H1  759   6.440   1.024   5.768  0.7625 -0.8363 -0.2595
  265TIP3    H2  760   6.557   1.118   5.744  0.5150 -0.6599 -0.8086
  266TIP3   OH2  761   5.984   5.116   3.158  0.0482  0.4667  0.3048
  266TIP3    H1  762   5.932   5.189   3.191  0.0607 -0.0581  1.5284
  266TIP3    H2  763   5.951   5.040   3.205 -0.0164 -0.3525 -1.0080
  267TIP3   OH2  764   1.613   5.543   1.578  0.1389 -0.0615  0.0892
  267TIP3    H1  765   1.590   5.506   1.664 -0.4240  0.3944  0.1398
  267TIP3    H2  766   1.675   5.480   1.541  0.4415 -0.2303  0.8597
  268TIP3   OH2  767   1.451   5.341   0.307  0.1005  0.0083 -0.2564
  268TIP3    H1  768   1.416   5.279   0.243 -1.1486 -0.0006  0.4040
  268TIP3    H2  769   1.538   5.307   0.328 -0.3350 -1.2120 -0.3303
  269TIP3   OH2  770   4.885   6.091   2.939 -0.0982  0.1168  0.2170
  269TIP3    H1  771   4.895   5.996   2.951  1.4292  0.2027 -0.1724
  269TIP3    H2  772   4.861   6.101   2.847 -1.6243  0.0569  0.5793
  270TIP3   OH2  773   0.608   0.632   2.145 -0.1880 -0.5913 -0.1054
  270TIP3    H1  774   0.607   0.623   2.241 -1.4321 -0.4431 -0.0950
  270TIP3    H2  775   0.585   0.724   2.130 -0.5998 -0.7656 -0.5563
  271TIP3   OH2  776   2.318   6.354   3.011  0.3824 -0.0658 -0.0961
  271TIP3    H1  777   2.366   6.351   3.094  2.4768  0.9829 -1.2015
  271TIP3    H2  778   2.358   6.285   2.957 -0.5138 -0.2990 -0.5004
  272TIP3   OH2  779   2.855   5.665   3.684 -0.2470  0.6763 -0.2965
  272TIP3    H1  780   2.790   5.706   3.627 -2.5589 -1.9759  0.1821
  272TIP3    H2  781   2.881   5.585   3.638 -1.4321 -1.0245  1.7828
  273TIP3   OH2  782   5.069   6.645   3.419 -0.2300 -0.4829 -0.1205
  273TIP3    H1  783   5.014   6.598   3.356  0.0923  0.8319 -1.4399
  273TIP3    H2  784   5.016   6.720   3.445 -0.4412 -1.1260  1.3807
  274TIP3   OH2  785   6.851   4.608   3.726  0.2888  0.5305 -0.3349
  274TIP3    H1  786   6.830   4.537   3.787 -0.4474  1.4102  0.4635
  274TIP3    H2  787   6.947   4.607   3.721  0.3211 -0.0677  0.2166
  275TIP3   OH2  788   4.879   1.576   3.129  0.0201  0.4947  0.2083
  275TIP3    H1  789   4.867   1.496   3.179  1.1760  0.0073 -0.2711
  275TIP3    H2  790   4.792   1.616   3.126 -0.0836  0.5857  2.6587
  276TIP3   OH2  791   6.360   4.040   3.952  0.4280  0.2085 -1.0529
  276TIP3    H1  792   6.377   3.948   3.931  0.7914  0.4648 -1.9267
  276TIP3    H2  793   6.293   4.067   3.890  0.1464  0.4774 -0.6399
  277TIP3   OH2  794   5.664   0.607   5.628 -0.1551  0.3032  0.0970
  277TIP3    H1  795   5.740   0.654   5.661  0.4104 -0.1919 -0.4777
  277TIP3    H2  796   5.654   0.639   5.538  2.5941 -3.3254 -1.7622
  278TIP3   OH2  797   4.917   0.035   1.809 -0.3419 -0.1919  0.0873
  278TIP3    H1  798   4.824   0.017   1.800 -0.4979  0.1568  0.9292
  278TIP3    H2  799   4.948  -0.031   1.873 -0.0046 -0.3314 -0.2161
  279TIP3   OH2  800   2.043   4.917   4.438  0.1870 -0.3477  0.1756
  279TIP3    H1  801   1.950   4.940   4.443  0.1634 -0.4903  0.3930
  279TIP3    H2  802   2.088   4.996   4.469  0.0464 -1.1760  2.6818
  280TIP3   OH2  803   3.875   6.180   3.572 -0.1341 -0.1620  0.4029
  280TIP3    H1  804   3.958   6.175   3.619 -0.9557  0.2632  1.9862
  280TIP3    H2  805   3.816   6.124   3.622 -0.9798  0.0622 -0.3113
  281TIP3   OH2  806   5.291   0.050   3.585  0.0773  0.9477 -0.1802
  281TIP3    H1  807   5.274  -0.006   3.510  0.6144  0.7159 -0.1312
  281TIP3    H2  808   5.229   0.020   3.652 -0.8384  1.5769 -0.7345
  282TIP3   OH2  809   4.407   4.012   4.969 -0.7078 -0.2262 -0.4336
  282TIP3    H1  810   4.355   4.079   5.014  0.1266 -0.5930  1.1401
  282TIP3    H2  811   4.486   4.002   5.023  0.5868 -0.3425 -2.2556
  283TIP3   OH2  812   3.030   0.585   0.165 -0.5400  0.6710 -0.4138
  283TIP3    H1  813   3.037   0.530   0.088  0.4318 -1.9628  1.4179
  283TIP3    H2  814   2.968   0.540   0.222 -0.5134  2.0174  0.7569
  284TIP3   OH2  815   2.670   5.098   0.717 -0.4337  0.2322  1.0041
  284TIP3    H1  816   2.611   5.030   0.750  0.7651 -0.3247  2.0776
  284TIP3    H2  817   2.653   5.174   0.772 -2.2991  1.1138 -0.6619
  285TIP3   OH2  818   1.922   6.004   4.292  0.0818 -0.1148 -0.3446
  285TIP3    H1  819   1.879   6.089   4.281  2.0392  0.7420 -2.1403
  285TIP3    H2  820   1.898   5.955   4.213  0.6310 -0.4209 -0.3236
  286TIP3   OH2  821   6.014   5.204   0.193 -0.3415 -0.4193  0.6570
  286TIP3    H1  822   6.095   5.218   0.241  0.0910 -1.9837  0.4552
  286TIP3    H2  823   5.964   5.284   0.205  0.1898 -0.3659  2.8342
  287TIP3   OH2  824   6.284   3.516   0.592 -0.3717  0.0252 -0.3022
  287TIP3    H1  825   6.365   3.557   0.620 -1.7949  1.3735  2.2180
  287TIP3    H2  826   6.246   3.578   0.529 -0.1753  0.1387 -0.3104
  288TIP3   OH2  827   0.015   2.665   2.035 -0.0127  0.1576 -0.1227
  288TIP3    H1  828  -0.009   2.596   2.096  1.3945  0.4321  0.7795
  288TIP3    H2  829   0.110   2.674   2.044  0.1047  0.8744 -1.6500
  289TIP3   OH2  830   3.924   4.367   4.342  0.4815 -0.2190  0.0309
  289TIP3    H1  831   3.932   4.317   4.261 -0.6049 -2.4541  1.2018
  289TIP3    H2  832   3.898   4.302   4.408 -2.4766  2.0900  1.3950
  290TIP3   OH2  833   2.201   1.826   4.941 -0.3742 -0.0888  0.2344
  290TIP3    H1  834   2.199   1.922   4.940 -1.8206 -0.0842 -0.8739
  290TIP3    H2  835   2.279   1.803   4.891 -0.1404  0.5073  0.3143
  291TIP3   OH2  836   6.757   0.035   5.282 -0.3015 -0.2862  0.2582
  291TIP3    H1  837   6.779   0.099   5.214 -0.4858 -0.6993 -0.1977
  291TIP3    H2  838   6.764   0.084   5.364 -1.2007  0.5249 -0.1326
  292TIP3   OH2  839   3.331   5.240   3.838 -0.5028 -0.1453  0.9139
  292TIP3    H1  840   3.280   5.266   3.762  1.3508 -0.2290 -0.4131
  292TIP3    H2  841   3.370   5.156   3.815  1.4977  0.6397  1.1950
  293TIP3   OH2  842   6.702   2.377   3.696 -0.0646  0.4566  0.0043
  293TIP3    H1  843   6.666   2.463   3.676  0.1306  0.2464 -1.3484
  293TIP3    H2  844   6.734   2.384   3.786  2.4043  2.6535 -0.9253
  294TIP3   OH2  845   6.776   5.401   2.451 -0.0591  0.5190  0.1348
  294TIP3    H1  846   6.848   5.464   2.451 -0.8056  1.4530  2.1870
  294TIP3    H2  847   6.731   5.417   2.368  0.7865  1.4843 -0.1672
  295TIP3   OH2  848   0.796   6.513   3.834  0.3147  0.1951  0.1161
  295TIP3    H1  849   0.730   6.452   3.867  1.1972 -0.7565  0.1426
  295TIP3    H2  850   0.811   6.573   3.907 -0.0446  0.0278  0.3318
  296TIP3   OH2  851   4.602   1.114   3.458  0.1571  0.1884  0.1047
  296TIP3    H1  852   4.647   1.073   3.384 -1.4419  0.7577 -1.2534
  296TIP3    H2  853   4.654   1.089   3.535  2.8696  0.9786 -1.3543
  297TIP3   OH2  854   3.454   1.114   4.192  0.1324 -0.2025 -0.4541
  297TIP3    H1  855   3.473   1.036   4.141  2.2921 -0.5740  0.7958
  297TIP3    H2  856   3.374   1.093   4.240 -0.8087 -0.5816 -2.1165
  298TIP3   OH2  857   4.507   2.724   4.667  0.8223  0.1523 -0.2027
  298TIP3    H1  858   4.438   2.663   4.639  0.0647  1.1386 -0.5720
  298TIP3    H2  859   4.568   2.727   4.593  1.5337 -1.0702  0.3054
  299TIP3   OH2  860   1.155   6.681   5.756 -0.1750 -0.6258  0.3626
  299TIP3    H1  861   1.192   6.615   5.698  0.0955 -0.3485  0.2184
  299TIP3    H2  862   1.207   6.674   5.836  1.1950  0.7626 -0.3542
  300TIP3   OH2  863   4.822   6.723   0.708  0.2065  0.3430 -0.6179
  300TIP3    H1  864   4.835   6.818   0.714 -0.4800  0.4177 -0.1673
  300TIP3    H2  865   4.801   6.707   0.616 -1.7507  0.9186 -0.3125
  301TIP3   OH2  866   7.078   4.117   0.461  0.3823  0.1206  0.0460
  301TIP3    H1  867   7.038   4.198   0.495  1.5507  0.1578  1.4728
  301TIP3    H2  868   7.162   4.146   0.425  1.6148 -0.6270  2.1567
  302TIP3   OH2  869   3.782   5.405   0.991  0.1268  0.4117 -0.0528
  302TIP3    H1  870   3.757   5.406   1.083 -0.5953 -0.8236 -0.2137
  302TIP3    H2  871   3.832   5.323   0.981 -1.2250 -0.3132 -1.0961
  303TIP3   OH2  872   4.558   4.269   0.751  0.0200  0.4658  0.1154
  303TIP3    H1  873   4.517   4.244   0.669 -0.0555 -0.7019  0.4890
  303TIP3    H2  874   4.520   4.210   0.817 -0.4119  1.8093  1.1200
  304TIP3   OH2  875   0.328   1.839   1.096  0.1677  0.4279 -0.2051
  304TIP3    H1  876   0.410   1.791   1.090  1.2820  1.4320  3.7048
  304TIP3    H2  877   0.268   1.779   1.140 -0.3980  0.5392 -0.8198
  305TIP3   OH2  878   0.723   2.939   2.687 -0.7485  0.4595  0.2406
  305TIP3    H1  879   0.754   3.024   2.716  0.2154  0.3121 -0.3190
  305TIP3    H2  880   0.658   2.959   2.619  1.6345  0.7955 -2.1119
  306TIP3   OH2  881   3.367   5.886   4.471 -0.2349  0.0241 -0.2033
  306TIP3    H1  882   3.344   5.979   4.482  1.5861  0.5842 -0.8213
  306TIP3    H2  883   3.462   5.884   4.474 -0.1171 -1.5342 -2.2875
  307TIP3   OH2  884   2.693   2.248   3.606 -0.4942  0.4963 -0.5421
  307TIP3    H1  885   2.692   2.152   3.597  0.5999  0.2587  1.3763
  307TIP3    H2  886   2.639   2.265   3.683  1.7425  1.1192  0.9663
  308TIP3   OH2  887   6.778   3.891   4.948 -0.2245 -0.1298 -0.4371
  308TIP3    H1  888   6.843   3.842   4.999  1.0850  0.6373 -1.3125
  308TIP3    H2  889   6.819   3.977   4.934 -1.9197  0.7758 -0.0366
  309TIP3   OH2  890   4.447   2.131   0.709  0.2372  0.0268 -0.2266
  309TIP3    H1  891   4.399   2.213   0.724  0.7197  0.2475  0.1868
  309TIP3    H2  892   4.496   2.118   0.791  0.2385 -0.6241 -0.3299
  310TIP3   OH2  893   3.112   5.542   2.801 -1.0198 -0.1880 -0.0346
  310TIP3    H1  894   3.148   5.533   2.713 -1.6486 -3.3436 -0.1167
  310TIP3    H2  895   3.023   5.575   2.788 -1.8700 -2.5825 -0.8897
  311TIP3   OH2  896   7.128   1.393   4.637 -0.2591  0.2868  0.1278
  311TIP3    H1  897   7.103   1.386   4.730  1.5678 -0.2124  0.6165
  311TIP3    H2  898   7.082   1.471   4.606 -1.4735  0.0631  1.2497
  312TIP3   OH2  899   3.762   3.932   4.987  0.0861  0.0540  0.3563
  312TIP3    H1  900   3.815   4.005   5.019  0.9817  0.0470 -1.0214
  312TIP3    H2  901   3.790   3.857   5.039  0.8901  0.2137  0.1690
  313TIP3   OH2  902   4.554   5.848   1.688  0.2190 -0.2280  0.6473
  313TIP3    H1  903   4.629   5.801   1.724  1.3731 -1.2924 -2.7488
  313TIP3    H2  904   4.547   5.817   1.598 -2.8201  1.6753  0.0764
  314TIP3   OH2  905   0.362   3.939   3.326 -0.2769 -0.0395 -0.5279
  314TIP3    H1  906   0.384   3.850   3.355  0.8320  0.1587 -0.7391
  314TIP3    H2  907   0.272   3.932   3.294  0.1688 -1.3399 -1.5846
  315TIP3   OH2  908   0.924   4.002   4.367  0.1179 -0.2446 -0.1810
  315TIP3    H1  909   0.889   4.086   4.338 -1.4035  0.1736  2.4687
  315TIP3    H2  910   0.877   3.937   4.315 -4.1897  0.3619  2.4760
  316TIP3   OH2  911   4.147   6.709   1.176  0.4536 -0.5798  0.2171
  316TIP3    H1  912   4.194   6.637   1.217  0.8975 -0.5923 -0.3036
  316TIP3    H2  913   4.121   6.765   1.249  2.1940 -0.0224  0.4572
  317TIP3   OH2  914   3.140   4.308   5.145  0.3233  0.1073 -0.6094
  317TIP3    H1  915   3.123   4.317   5.239  1.3800 -0.0575 -0.3893
  317TIP3    H2  916   3.214   4.247   5.139  0.5317  0.4282 -1.5277
  318TIP3   OH2  917   1.632   2.642   4.896 -0.0922  0.4990 -0.1193
  318TIP3    H1  918   1.638   2.735   4.875  0.9945  0.5758  0.4649
  318TIP3    H2  919   1.601   2.601   4.816 -2.5570  1.5780  0.1689
  319TIP3   OH2  920   5.139   6.672   3.739  0.0262  0.1175 -0.3828
  319TIP3    H1  921   5.162   6.728   3.665 -0.0332  1.1244  0.3340
  319TIP3    H2  922   5.129   6.733   3.813  2.0617 -1.0176  0.9390
  320TIP3   OH2  923   3.870   0.412   4.594 -0.2649  0.0128 -0.2254
  320TIP3    H1  924   3.801   0.345   4.590  0.1176 -0.3181 -1.7831
  320TIP3    H2  925   3.951   0.364   4.579  0.1355  0.6578 -0.1472
  321TIP3   OH2  926   1.315   0.805   4.184 -0.1083 -0.0403  0.0896
  321TIP3    H1  927   1.227   0.768   4.196 -0.3362 -0.2761 -1.9775
  321TIP3    H2  928   1.302   0.875   4.120  1.3292 -0.6026 -0.8548
  322TIP3   OH2  929   1.660   6.343   5.887  0.2437  0.4677 -0.1947
  322TIP3    H1  930   1.708   6.270   5.848 -2.2533 -0.8649 -0.9702
  322TIP3    H2  931   1.617   6.387   5.814  0.5676  1.8851  0.4223
  323TIP3   OH2  932   0.300   3.568   4.848  0.2912  0.2490  0.5591
  323TIP3    H1  933   0.326   3.479   4.872  0.8018  0.2626  0.0885
  323TIP3    H2  934   0.364   3.623   4.892  0.4305  0.3408  0.2442
  324TIP3   OH2  935   2.802   1.008   0.317  0.0370  0.1297 -0.4118
  324TIP3    H1  936   2.853   1.076   0.360 -0.2002  0.7829 -1.1296
  324TIP3    H2  937   2.860   0.973   0.249  0.4368 -0.9464  0.4635
  325TIP3   OH2  938   1.368   2.584   2.154 -0.1814 -0.1469  0.4654
  325TIP3    H1  939   1.365   2.491   2.177  0.8300 -0.7823 -1.6411
  325TIP3    H2  940   1.327   2.588   2.067 -1.1246  1.5599  0.9475
  326TIP3   OH2  941   2.902   3.579   3.861  0.2577  0.6867 -0.0959
  326TIP3    H1  942   2.882   3.502   3.914 -0.0148  1.2118  0.5836
  326TIP3    H2  943   2.954   3.635   3.919  0.9504  0.7733 -0.7713
  327TIP3   OH2  944   6.601   1.785   0.188  0.3884 -0.2029  0.0784
  327TIP3    H1  945   6.626   1.815   0.275 -0.6793 -2.7821  1.3836
  327TIP3    H2  946   6.514   1.749   0.199  0.1732 -0.4832 -2.1128
  328TIP3   OH2  947   6.518   2.278   4.679  0.0616 -0.6954  0.4756
  328TIP3    H1  948   6.480   2.326   4.753  0.6129  1.1905 -0.3930
  328TIP3    H2  949   6.589   2.226   4.718 -0.3565 -0.5838  1.4179
  329TIP3   OH2  950   5.376   4.017   0.611 -0.0228 -0.0234 -0.1465
  329TIP3    H1  951   5.312   3.992   0.677 -0.7936 -0.0892 -0.8972
  329TIP3    H2  952   5.340   3.984   0.529  1.2211 -0.4908 -0.5242
  330TIP3   OH2  953   6.026   4.544   1.975 -0.3065  0.3254 -0.1665
  330TIP3    H1  954   6.111   4.502   1.964 -0.6878 -0.1204 -1.5710
  330TIP3    H2  955   5.971   4.476   2.013 -0.0385  0.6400  0.8243
  331TIP3   OH2  956   6.114   3.761   3.040  0.0208  0.5922 -0.3539
  331TIP3    H1  957   6.077   3.838   3.083 -0.8622  0.3378 -0.6251
  331TIP3    H2  958   6.087   3.687   3.095  0.2936  0.4176 -0.4524
  332TIP3   OH2  959   6.719   5.328   1.154 -0.3610 -0.2303 -0.0335
  332TIP3    H1  960   6.792   5.373   1.111  0.1408 -0.9706  0.0278
  332TIP3    H2  961   6.691   5.262   1.091  0.4723 -1.4202  0.8043
  333TIP3   OH2  962   1.007   5.288   5.582 -0.2383  0.0755  0.6725
  333TIP3    H1  963   0.986   5.317   5.671 -1.4865  0.4074  0.3021
  333TIP3    H2  964   0.935   5.323   5.529 -0.2069 -1.1969 -0.2588
  334TIP3   OH2  965   0.498   5.287   0.047  0.5654 -0.1922  0.4135
  334TIP3    H1  966   0.567   5.338   0.005  0.0068  0.9820  0.8869
  334TIP3    H2  967   0.546   5.228   0.107  1.2195 -0.3578 -0.2558
  335TIP3   OH2  968   6.553   1.537   4.341  0.3887  0.5136 -0.1796
  335TIP3    H1  969   6.616   1.604   4.366  0.8938  0.0114 -0.1050
  335TIP3    H2  970   6.523   1.563   4.254 -0.0232  1.2724  0.1765
  336TIP3   OH2  971   6.571   4.883   0.824 -0.0980  0.4657  0.3576
  336TIP3    H1  972   6.612   4.911   0.742  1.0187 -0.9483  0.4085
  336TIP3    H2  973   6.477   4.878   0.803  0.2822 -1.1228 -1.2413
  337TIP3   OH2  974   2.861   4.651   1.466 -0.1863 -0.0532  0.7016
  337TIP3    H1  975   2.932   4.684   1.520 -0.3312  1.7242 -0.1327
  337TIP3    H2  976   2.806   4.727   1.449 -0.8672 -0.8357 -0.8366
  338TIP3   OH2  977   4.726   5.257   0.336  0.4939 -0.3195 -0.3572
  338TIP3    H1  978   4.728   5.184   0.398  2.1436  1.9458  2.5455
  338TIP3    H2  979   4.701   5.332   0.390  0.8030  1.5987 -2.7506
  339TIP3   OH2  980   2.307   2.293   2.665 -0.0412 -0.1115 -0.1737
  339TIP3    H1  981   2.216   2.322   2.668 -0.0119 -0.0547  0.1543
  339TIP3    H2  982   2.358   2.370   2.689  0.1598  0.1731 -1.4552
  340TIP3   OH2  983   6.311   6.263   0.236  0.1766 -0.2308 -0.3102
  340TIP3    H1  984   6.370   6.225   0.301  0.6795  0.7073 -0.2025
  340TIP3    H2  985   6.262   6.329   0.285  0.3130  0.2367 -0.8057
  341TIP3   OH2  986   2.950   0.510   0.407  0.6600  0.4345 -0.5216
  341TIP3    H1  987   2.924   0.468   0.489  0.6092  0.8884 -0.2976
  341TIP3    H2  988   3.040   0.539   0.422  0.2580  1.5927 -0.1709
  342TIP3   OH2  989   1.450   4.201   0.347  0.4197  0.2172  0.5858
  342TIP3    H1  990   1.397   4.152   0.410  0.6848  1.0739  1.5012
  342TIP3    H2  991   1.534   4.155   0.347 -0.2004 -0.9834 -0.6696
  343TIP3   OH2  992   2.271   5.536   2.780  0.7852 -0.1429  0.0920
  343TIP3    H1  993   2.202   5.586   2.824  0.1273 -0.6020 -0.3987
  343TIP3    H2  994   2.265   5.448   2.817  1.2816 -0.1219  0.2302
  344TIP3   OH2  995   3.320   5.726   2.216 -0.1245 -0.0121  0.5122
  344TIP3    H1  996   3.386   5.789   2.244 -1.3756  0.4430  2.6659
  344TIP3    H2  997   3.369   5.655   2.175  1.6189  0.7450  1.2154
  345TIP3   OH2  998   2.289   1.364   0.655 -0.1411 -0.6577 -0.1113
  345TIP3    H1  999   2.298   1.269   0.664 -0.2583 -0.5329  1.6485
  345TIP3    H2 1000   2.361   1.400   0.707 -0.4803  0.2188 -0.2376
  346TIP3   OH2 1001   4.962   4.253   0.978 -0.0746 -0.0527  0.2631
  346TIP3    H1 1002   5.051   4.282   0.998  0.4637 -1.8169  0.5969
  346TIP3    H2 1003   4.929   4.316   0.915  1.6233  0.3166 -0.2839
  347TIP3   OH2 1004   1.560   1.715   2.299  0.0263 -0.4390  0.0471
  347TIP3    H1 1005   1.562   1.791   2.356 -0.4859 -0.9959  0.8329
  347TIP3    H2 1006   1.480   1.668   2.324 -0.9878  0.0157 -2.0777
  348TIP3   OH2 1007   2.568   2.931   0.701  0.2742 -0.1589  0.1065
  348TIP3    H1 1008   2.536   2.901   0.786 -2.4428  2.5353  0.2165
  348TIP3    H2 1009   2.514   2.884   0.638 -0.1474  0.4079  0.0424
  349TIP3   OH2 1010   2.513   3.598   0.352 -0.9129 -0.4055  0.2051
  349TIP3    H1 1011   2.484   3.572   0.265 -1.6774 -1.7276  0.8331
  349TIP3    H2 1012   2.511   3.694   0.350 -0.8530 -0.4159 -1.2412
  350TIP3   OH2 1013   6.760   1.994   0.049  0.2826  0.5264  0.3243
  350TIP3    H1 1014   6.731   1.910   0.084  2.6994 -1.1186 -1.2709
  350TIP3    H2 1015   6.833   2.020   0.105 -1.4476  2.5028  1.8068
  351TIP3   OH2 1016   0.009   4.849   4.405  0.4809 -0.6407 -0.1071
  351TIP3    H1 1017   0.042   4.769   4.364 -0.3762 -1.3653  0.5862
  351TIP3    H2 1018   0.087   4.890   4.442  0.5965 -2.6753  2.1006
  352TIP3   OH2 1019   2.195   1.952   5.289  0.2877  0.1468 -0.0593
  352TIP3    H1 1020   2.268   1.889   5.286  0.1148 -0.2157  2.1290
  352TIP3    H2 1021   2.117   1.898   5.284  0.1233  0.4499 -1.1157
  353TIP3   OH2 1022   5.731   0.622   2.622  0.1341  0.2919 -0.2686
  353TIP3    H1 1023   5.778   0.616   2.539 -0.2764  0.6432 -0.5281
  353TIP3    H2 1024   5.686   0.538   2.630  1.9462 -0.6572  0.6947
  354TIP3   OH2 1025   6.773   1.389   1.297  0.1076 -0.6055  0.3558
  354TIP3    H1 1026   6.746   1.476   1.325 -0.0616 -0.7620  0.6828
  354TIP3    H2 1027   6.808   1.348   1.376  1.5239 -0.3269 -0.0990
  355TIP3   OH2 1028   1.682   0.111   2.174 -0.5001  0.5960  0.2307
  355TIP3    H1 1029   1.725   0.027   2.161 -1.3975  0.0680  0.5238
  355TIP3    H2 1030   1.737   0.157   2.237 -0.4630 -0.1529  0.7713
  356TIP3   OH2 1031   5.965   3.915   3.199 -0.2783  0.9336 -0.1021
  356TIP3    H1 1032   5.994   3.919   3.290  0.1796 -0.8682 -0.1311
  356TIP3    H2 1033   5.874   3.884   3.204 -0.1059  0.3852 -0.2582
  357TIP3   OH2 1034   3.414   4.365   1.014  0.4844  0.0654 -0.2984
  357TIP3    H1 1035   3.319   4.372   1.006  0.4343 -1.1513 -1.0920
  357TIP3    H2 1036   3.437   4.422   1.087 -1.0757 -1.0327  1.1144
  358TIP3   OH2 1037   1.897   0.894   2.700  0.2525 -0.1034 -0.3007
  358TIP3    H1 1038   1.946   0.968   2.736 -0.1271 -0.6795  1.4923
  358TIP3    H2 1039   1.963   0.841   2.655  0.6274  0.9880 -1.0707
  359TIP3   OH2 1040   0.825   4.600   1.979  0.3337  0.2282 -0.4677
  359TIP3    H1 1041   0.837   4.668   1.912 -0.0866  0.4718 -0.3062
  359TIP3    H2 1042   0.895   4.537   1.963  0.3408  0.3711 -1.0295
  360TIP3   OH2 1043   6.353   3.169   5.089  0.2007  0.2120 -0.0020
  360TIP3    H1 1044   6.332   3.136   5.176  0.2253  0.1883 -0.0053
  360TIP3    H2 1045   6.364   3.264   5.102 -2.0367  0.5804 -0.3761
  361TIP3   OH2 1046   4.725   1.251   3.895 -0.3934 -0.1478 -1.2406
  361TIP3    H1 1047   4.775   1.239   3.975 -3.8223  0.9562  1.3185
  361TIP3    H2 1048   4.790   1.273   3.828  2.5571 -0.1607  1.4126
  362TIP3   OH2 1049   5.660   0.714   0.372  0.3189  0.5501  0.1434
  362TIP3    H1 1050   5.608   0.795   0.373 -1.3534 -0.4738  0.1426
  362TIP3    H2 1051   5.750   0.743   0.389 -0.2396  2.3935  0.1951
  363TIP3   OH2 1052   3.717   2.883   1.734  0.0445 -0.3773 -0.2919
  363TIP3    H1 1053   3.755   2.911   1.651  0.7749  0.8426  0.4252
  363TIP3    H2 1054   3.736   2.789   1.738  0.0637 -0.4380 -1.4613
  364TIP3   OH2 1055   3.171   4.785   4.215  0.2687  0.3641  1.0170
  364TIP3    H1 1056   3.150   4.877   4.198  0.8157  0.5134  1.1506
  364TIP3    H2 1057   3.094   4.737   4.184  0.2439  0.8133  0.3563
  365TIP3   OH2 1058   0.223   1.942   5.036  0.0150  0.0333 -0.5496
  365TIP3    H1 1059   0.197   1.858   5.074  1.9548 -0.8166 -1.0163
  365TIP3    H2 1060   0.183   1.943   4.949  0.0043 -0.4103 -0.5506
  366TIP3   OH2 1061   0.843   2.268   0.162 -0.3801  0.0747  0.6395
  366TIP3    H1 1062   0.758   2.223   0.154 -0.7330  0.9037 -0.6220
  366TIP3    H2 1063   0.834   2.322   0.240 -1.3012  0.6966  0.1305
  367TIP3   OH2 1064   1.455   3.721   3.010  0.1541  0.0193  0.6581
  367TIP3    H1 1065   1.413   3.644   2.971 -2.0991  2.8925 -3.3152
  367TIP3    H2 1066   1.546   3.716   2.982 -0.4283 -0.2734 -1.3568
  368TIP3   OH2 1067   4.654   5.755   2.241 -0.1986  0.0029 -0.6463
  368TIP3    H1 1068   4.708   5.694   2.191 -0.2304  0.0257 -0.7090
  368TIP3    H2 1069   4.713   5.827   2.262 -0.2108  0.0387 -0.7350
  369TIP3   OH2 1070   3.567   5.973   0.331  0.2900  0.1908  0.0147
  369TIP3    H1 1071   3.626   5.974   0.407  0.8777  0.3201 -0.4352
  369TIP3    H2 1072   3.587   5.892   0.286 -1.4960 -0.9040  1.0797
  370TIP3   OH2 1073   2.310   2.018   0.347 -0.2106 -0.3026  0.3205
  370TIP3    H1 1074   2.381   2.047   0.404  0.0958 -3.2572  1.6289
  370TIP3    H2 1075   2.342   2.033   0.258  0.6729  1.3682  0.8837
  371TIP3   OH2 1076   0.952   4.353   3.346 -0.4606  0.1107  0.3934
  371TIP3    H1 1077   0.994   4.437   3.364  1.4703 -0.6441 -0.3849
  371TIP3    H2 1078   0.921   4.323   3.432 -0.9896  1.4759  0.7184
  372TIP3   OH2 1079   5.705   2.127   1.472  0.4290  0.1271  0.0978
  372TIP3    H1 1080   5.678   2.168   1.390  1.6139 -0.9021 -0.8618
  372TIP3    H2 1081   5.747   2.197   1.522 -1.2786  1.0204  0.3246
  373TIP3   OH2 1082   6.511   6.011   3.756  0.0120 -0.1569  0.3433
  373TIP3    H1 1083   6.441   5.946   3.743  0.1929  0.0161 -1.7178
  373TIP3    H2 1084   6.465   6.095   3.759 -0.0181 -0.1863  0.7944
  374TIP3   OH2 1085   6.167   6.195   4.862 -0.3150 -0.0842  0.1996
  374TIP3    H1 1086   6.143   6.288   4.861  0.5241  0.1727 -1.8405
  374TIP3    H2 1087   6.247   6.190   4.810 -0.8304 -2.0528 -0.5098
  375TIP3   OH2 1088   5.102   5.869   1.662 -0.0430 -0.1908 -0.0496
  375TIP3    H1 1089   5.033   5.803   1.652 -0.5033  0.3760 -0.7524
  375TIP3    H2 1090   5.180   5.829   1.625 -0.0226 -0.7884  0.6251
  376TIP3   OH2 1091   3.212   5.878   4.255  0.3921 -0.2380 -0.7547
  376TIP3    H1 1092   3.252   5.856   4.171  0.4545 -0.0704 -0.7686
  376TIP3    H2 1093   3.286   5.880   4.317  0.4987  0.6576 -0.8912
  377TIP3   OH2 1094   4.510   1.943   1.940  0.1141 -0.1114 -0.4572
  377TIP3    H1 1095   4.549   1.892   1.869 -0.6676  0.8201 -1.6145
  377TIP3    H2 1096   4.572   2.014   1.955 -0.3321  0.4541 -1.1787
  378TIP3   OH2 1097   2.533   1.495   0.069 -0.8607 -0.0200  0.2401
  378TIP3    H1 1098   2.543   1.477   0.163  2.6952 -0.5672 -0.1012
  378TIP3    H2 1099   2.512   1.410   0.031 -0.1072 -0.2650  0.3449
  379TIP3   OH2 1100   5.940   4.865   0.663 -0.5420  0.1532 -0.3462
  379TIP3    H1 1101   5.875   4.850   0.731  0.9843  1.2953  1.4591
  379TIP3    H2 1102   5.974   4.952   0.681  0.5832  0.1089 -2.0254
  380TIP3   OH2 1103   4.545   1.815   5.577  0.7746  0.3567 -0.2233
  380TIP3    H1 1104   4.503   1.805   5.662 -0.7441  0.7216 -0.9068
  380TIP3    H2 1105   4.485   1.869   5.526  0.3310 -1.9906 -2.3974
  381TIP3   OH2 1106   5.777   3.329   0.801 -0.5794 -0.1835  0.1189
  381TIP3    H1 1107   5.737   3.255   0.845  1.8390  0.3181  3.5772
  381TIP3    H2 1108   5.869   3.304   0.789 -0.3389  1.1818 -1.2985
  382TIP3   OH2 1109   2.163   4.879   2.142 -0.0436  0.0485 -0.9416
  382TIP3    H1 1110   2.209   4.845   2.219  1.1163  2.6555 -0.3876
  382TIP3    H2 1111   2.142   4.801   2.091 -2.6047 -2.1178  2.8495
  383TIP3   OH2 1112   5.600   5.785   4.147 -0.6159  0.5509 -0.6852
  383TIP3    H1 1113   5.651   5.832   4.212 -0.5117 -0.4438 -0.0218
  383TIP3    H2 1114   5.509   5.799   4.171 -0.5562 -0.9596  0.5409
  384TIP3   OH2 1115   0.905   5.496   5.067  0.3528 -0.7908 -0.2127
  384TIP3    H1 1116   0.821   5.487   5.022  1.1432  0.8331 -2.2064
  384TIP3    H2 1117   0.912   5.589   5.087  0.6096 -1.2812  2.2709
  385TIP3   OH2 1118   2.151   5.449   0.295 -0.3229  0.3715  0.3805
  385TIP3    H1 1119   2.056   5.462   0.295 -0.5005  0.2302  4.1480
  385TIP3    H2 1120   2.163   5.354   0.299  0.2472  0.0970 -3.6273
  386TIP3   OH2 1121   5.905   4.114   4.859 -0.2831  0.0275  0.0342
  386TIP3    H1 1122   5.823   4.084   4.899 -1.6176  0.5934 -2.0816
  386TIP3    H2 1123   5.883   4.199   4.821  0.6812 -0.6918 -2.2908
  387TIP3   OH2 1124   6.953   4.220   3.408 -0.0772  0.4156  0.2567
  387TIP3    H1 1125   7.016   4.186   3.471 -0.4714  0.5787  0.7510
  387TIP3    H2 1126   6.886   4.263   3.462  0.0001  1.2842 -0.3069
  388TIP3   OH2 1127   1.380   2.969   4.896 -0.0216  0.0838  0.1901
  388TIP3    H1 1128   1.356   2.876   4.904 -1.0816  0.1490 -1.6261
  388TIP3    H2 1129   1.461   2.968   4.847 -0.1187  0.1250  0.0295
  389TIP3   OH2 1130   4.930   0.203   1.071  0.2478  0.2890  0.4009
  389TIP3    H1 1131   4.963   0.280   1.117  1.5787  0.8783 -1.4357
  389TIP3    H2 1132   4.954   0.217   0.979 -0.7480 -1.6519 -0.2189
  390TIP3   OH2 1133   1.815   4.708   1.143 -0.0434  0.0989 -0.8773
  390TIP3    H1 1134   1.774   4.787   1.110 -1.1473  0.8495  1.9405
  390TIP3    H2 1135   1.901   4.706   1.102  0.6292  3.6158  0.0104
  391TIP3   OH2 1136   5.840   6.069   2.190 -0.6057  0.0026 -0.1900
  391TIP3    H1 1137   5.866   6.049   2.279  1.2523  1.2478 -0.3849
  391TIP3    H2 1138   5.767   6.131   2.199 -1.0429 -0.5965  0.4367
  392TIP3   OH2 1139   0.770   2.822   5.364 -0.7130  0.8524 -0.1658
  392TIP3    H1 1140   0.770   2.904   5.413  0.9734  1.6937 -1.4695
  392TIP3    H2 1141   0.844   2.773   5.400 -2.9425 -1.1428  2.0940
  393TIP3   OH2 1142   3.641   2.442   5.778  0.1673 -0.7322 -0.3163
  393TIP3    H1 1143   3.721   2.450   5.727  0.9422  1.9958  1.1344
  393TIP3    H2 1144   3.592   2.522   5.759 -1.3116 -1.4358  0.3143
  394TIP3   OH2 1145   4.047   2.984   1.261 -0.2291 -0.4570  0.1508
  394TIP3    H1 1146   4.061   3.049   1.329  1.6712  0.6072 -1.1374
  394TIP3    H2 1147   4.101   2.909   1.287 -2.1325 -1.4428  1.4492
  395TIP3   OH2 1148   5.598   5.200   5.791 -0.0819 -0.0290  0.2298
  395TIP3    H1 1149   5.664   5.140   5.826  0.4759 -0.3836 -1.3794
  395TIP3    H2 1150   5.642   5.245   5.719 -1.1792  0.7475  0.0209
  396TIP3   OH2 1151   3.927   6.071   4.637 -0.0722  0.0743 -0.1045
  396TIP3    H1 1152   3.950   6.029   4.554 -0.2385 -0.4817  0.1251
  396TIP3    H2 1153   4.002   6.126   4.658  0.1527 -0.1157 -0.4118
  397TIP3   OH2 1154   2.180   2.158   3.917  0.1027 -0.1459  0.2145
  397TIP3    H1 1155   2.191   2.210   3.996  0.1860  0.0308  0.0868
  397TIP3    H2 1156   2.242   2.086   3.926  1.2369  0.7213 -0.4027
  398TIP3   OH2 1157   4.817   1.330   5.521  0.2230  0.2351 -0.2770
  398TIP3    H1 1158   4.843   1.422   5.511 -0.2725  0.6050  1.5084
  398TIP3    H2 1159   4.900   1.282   5.521  0.4452  0.5095 -2.2706
  399TIP3   OH2 1160   2.990   2.815   3.479  0.0589 -1.2281 -0.6384
  399TIP3    H1 1161   3.031   2.735   3.447  3.1069  0.0968 -0.4027
  399TIP3    H2 1162   3.004   2.813   3.573  1.4806  0.1584 -0.7711
  400TIP3   OH2 1163   1.335   5.153   1.374  0.0974  0.3512  0.2360
  400TIP3    H1 1164   1.258   5.160   1.430  0.2618 -0.2798  0.5500
  400TIP3    H2 1165   1.365   5.244   1.363 -0.3654  0.5476  0.5622
  401TIP3   OH2 1166   0.516   3.658   1.400  0.0402 -0.3258 -0.4383
  401TIP3    H1 1167   0.532   3.655   1.305  0.5302 -0.3667 -0.3555
  401TIP3    H2 1168   0.428   3.695   1.408  1.0100  2.3193 -0.8430
  402TIP3   OH2 1169   7.128   5.140   5.291 -0.8005  0.7425 -0.4222
  402TIP3    H1 1170   7.110   5.211   5.352 -0.0723 -0.7260  1.6230
  402TIP3    H2 1171   7.118   5.179   5.204  1.0119  3.7189  0.5631
  403TIP3   OH2 1172   7.069   2.430   0.685 -0.3494  0.4818 -0.2199
  403TIP3    H1 1173   7.120   2.479   0.621  0.0588  0.5824  0.1757
  403TIP3    H2 1174   7.076   2.481   0.766 -1.9817  1.0847 -0.4187
  404TIP3   OH2 1175   6.417   6.275   3.823  0.2857 -0.4931  0.3762
  404TIP3    H1 1176   6.360   6.328   3.877 -1.3657  0.1924 -1.8894
  404TIP3    H2 1177   6.503   6.316   3.832  0.2115 -0.7585  2.8336
  405TIP3   OH2 1178   3.696   2.760   0.836 -0.1837  0.6682  0.5173
  405TIP3    H1 1179   3.784   2.748   0.872 -0.3412 -0.9411  0.4453
  405TIP3    H2 1180   3.637   2.727   0.904 -0.8144  2.3821  0.8655
  406TIP3   OH2 1181   0.163   3.172   0.195  0.3814 -0.1387  0.1991
  406TIP3    H1 1182   0.103   3.244   0.218  0.5802  0.3236 -0.6847
  406TIP3    H2 1183   0.122   3.094   0.232 -0.5492  0.2337 -0.0224
  407TIP3   OH2 1184   2.266   0.134   3.548  0.1697  0.7490 -0.0564
  407TIP3    H1 1185   2.225   0.077   3.613  2.3934  1.2138  1.8412
  407TIP3    H2 1186   2.312   0.074   3.489  0.1495  0.4562  0.2259
  408TIP3   OH2 1187   4.139   0.350   3.076  0.0237 -0.1223  0.6045
  408TIP3    H1 1188   4.195   0.413   3.122  3.1201 -3.1139  1.3870
  408TIP3    H2 1189   4.057   0.350   3.125  1.1699  0.8265  2.6598
  409TIP3   OH2 1190   0.652   6.226   0.737 -0.3798 -0.1524  0.1143
  409TIP3    H1 1191   0.705   6.150   0.715 -0.6244  0.2570 -2.1656
  409TIP3    H2 1192   0.571   6.190   0.771 -0.1949 -0.8979 -0.2095
  410TIP3   OH2 1193   4.227   1.242   2.478  0.0951  0.0017  0.6202
  410TIP3    H1 1194   4.284   1.258   2.554  1.9101 -0.8122 -0.5073
  410TIP3    H2 1195   4.186   1.327   2.461  0.6378  0.5117  1.7444
  411TIP3   OH2 1196   1.611   5.506   4.734 -0.1921 -0.5199  0.3559
  411TIP3    H1 1197   1.619   5.601   4.744  0.6371 -0.7324  2.2456
  411TIP3    H2 1198   1.614   5.472   4.824 -0.5143 -2.3415 -0.2713
  412TIP3   OH2 1199   1.264   4.391   1.796  0.1338 -0.2378  0.1427
  412TIP3    H1 1200   1.277   4.305   1.837  1.9103 -0.2139 -0.2937
  412TIP3    H2 1201   1.332   4.446   1.833 -1.5928  1.3373  1.1877
  413TIP3   OH2 1202   2.237   1.325   2.775 -1.5527 -0.4641 -0.0625
  413TIP3    H1 1203   2.258   1.408   2.817 -0.3218 -0.6045 -0.3590
  413TIP3    H2 1204   2.192   1.275   2.843  3.3355 -2.0334  2.5765
  414TIP3   OH2 1205   3.062   6.805   5.820 -0.7123 -0.1904  0.0085
  414TIP3    H1 1206   3.005   6.775   5.750 -0.3593  0.5658 -0.6187
  414TIP3    H2 1207   3.078   6.727   5.873  0.1859 -1.1233 -1.5693
  415TIP3   OH2 1208   0.585   1.900   0.936  0.2489  0.6611 -0.1171
  415TIP3    H1 1209   0.635   1.938   0.864 -1.1751  1.7221 -0.5973
  415TIP3    H2 1210   0.577   1.971   1.000 -1.9269  1.0395 -0.7439
  416TIP3   OH2 1211   3.712   0.585   0.427 -0.2855 -0.7611  0.0968
  416TIP3    H1 1212   3.748   0.497   0.419 -0.0653 -0.7528  0.8967
  416TIP3    H2 1213   3.781   0.635   0.470 -1.1344 -0.6705  1.4033
  417TIP3   OH2 1214   0.208   2.485   1.760  0.5972 -0.0091  0.2139
  417TIP3    H1 1215   0.274   2.425   1.796 -1.1225 -0.6841  2.4838
  417TIP3    H2 1216   0.125   2.451   1.793 -0.5230  3.2448  1.0443
  418TIP3   OH2 1217   3.637   2.702   4.272 -0.5609  0.1771  0.4652
  418TIP3    H1 1218   3.659   2.725   4.181 -0.5628  0.3611  0.5094
  418TIP3    H2 1219   3.548   2.735   4.284 -0.3336  0.7123  0.7217
  419TIP3   OH2 1220   4.587   5.579   5.339  0.4322  0.2597  0.1545
  419TIP3    H1 1221   4.591   5.660   5.288  0.3413  0.1777  0.0136
  419TIP3    H2 1222   4.523   5.597   5.408 -2.2615 -0.7671 -1.8660
  420TIP3   OH2 1223   2.945   3.038   1.195  0.3772 -0.1653 -0.4765
  420TIP3    H1 1224   2.960   2.960   1.249 -1.0011 -0.5857 -0.6465
  420TIP3    H2 1225   2.939   3.110   1.258  1.2914 -0.2425 -0.2876
  421TIP3   OH2 1226   3.917   5.597   4.204 -0.3032 -0.0586  0.4405
  421TIP3    H1 1227   3.824   5.618   4.207 -0.1491  0.6593  0.2811
  421TIP3    H2 1228   3.940   5.576   4.294 -0.9643 -1.8105  0.2503
  422TIP3   OH2 1229   6.545   5.100   3.024  0.0457 -0.3513 -0.4697
  422TIP3    H1 1230   6.477   5.079   3.089 -0.2820 -0.2981 -0.7931
  422TIP3    H2 1231   6.542   5.195   3.016 -0.0123 -0.3701 -0.6686
  423TIP3   OH2 1232   2.818   2.891   0.826 -0.1020  0.4931 -0.4576
  423TIP3    H1 1233   2.794   2.813   0.876  0.8993 -0.8563 -1.9666
  423TIP3    H2 1234   2.738   2.918   0.783 -1.0684  1.8677  1.9967
  424TIP3   OH2 1235   4.541   6.272   3.017  0.2411  0.0098  0.5381
  424TIP3    H1 1236   4.543   6.176   3.017  0.2874 -0.0635 -2.2428
  424TIP3    H2 1237   4.469   6.295   2.958  1.3566  1.6558 -0.2552
  425TIP3   OH2 1238   5.334   4.155   4.818  0.2627 -0.0457  0.1000
  425TIP3    H1 1239   5.324   4.241   4.859 -1.3972  0.0127 -0.3789
  425TIP3    H2 1240   5.269   4.100   4.860  1.7593 -1.3056  0.8926
  426TIP3   OH2 1241   4.542   2.554   2.451  0.5698  0.5381  0.5913
  426TIP3    H1 1242   4.629   2.591   2.437  1.2216  0.2609  3.4628
  426TIP3    H2 1243   4.554   2.459   2.445  0.6719  0.4592  1.8075
  427TIP3   OH2 1244   0.101   1.242   3.799  0.4112 -0.1066 -0.1050
  427TIP3    H1 1245   0.165   1.312   3.785  0.9840 -0.5028  0.5016
  427TIP3    H2 1246   0.061   1.262   3.883 -0.9211  0.6282 -0.8742
  428TIP3   OH2 1247   0.162   6.797   1.031 -0.3785  0.6524 -0.7178
  428TIP3    H1 1248   0.163   6.809   1.126  0.0497  0.0068 -0.6368
  428TIP3    H2 1249   0.183   6.705   1.018 -2.1610  0.3043 -1.3822
  429TIP3   OH2 1250   1.973   4.982   3.301 -0.1688  0.2525 -0.4186
  429TIP3    H1 1251   1.982   4.888   3.317 -1.3844  0.4501  1.7709
  429TIP3    H2 1252   2.060   5.018   3.320 -0.4497 -0.1046  1.7382
  430TIP3   OH2 1253   3.801   4.456   5.681 -0.0337 -0.0042 -0.0610
  430TIP3    H1 1254   3.883   4.499   5.704 -0.7180  0.1077  2.4163
  430TIP3    H2 1255   3.817   4.363   5.697  0.2798 -0.2874 -1.8109
  431TIP3   OH2 1256   3.276   5.838   4.757 -0.1534 -0.0120 -0.6246
  431TIP3    H1 1257   3.307   5.765   4.811  1.8828  0.7419 -0.6645
  431TIP3    H2 1258   3.320   5.825   4.673  2.6318  2.6781  0.2133
  432TIP3   OH2 1259   4.717   1.315   2.746 -0.0799 -0.0323 -0.1884
  432TIP3    H1 1260   4.765   1.299   2.665  1.1957  0.9762  0.3304
  432TIP3    H2 1261   4.689   1.406   2.741 -3.3914 -0.9594 -1.1530
  433TIP3   OH2 1262   1.275   3.884   4.746 -0.0562  0.1880  0.1547
  433TIP3    H1 1263   1.339   3.866   4.677 -2.2463 -0.0061 -1.9763
  433TIP3    H2 1264   1.190   3.860   4.707 -1.6451  2.1016  2.1612
  434TIP3   OH2 1265   0.484   3.541   2.982 -0.3270  0.6500  0.1974
  434TIP3    H1 1266   0.451   3.629   3.000 -0.7271 -0.0239  3.6161
  434TIP3    H2 1267   0.578   3.552   2.972 -0.3658  1.4677  0.6411
  435TIP3   OH2 1268   0.591   1.883   4.589  0.2057 -0.2706  0.1039
  435TIP3    H1 1269   0.675   1.864   4.549 -0.0789 -0.5001 -0.3878
  435TIP3    H2 1270   0.526   1.857   4.524 -0.2518 -0.2541  0.5427
  436TIP3   OH2 1271   5.178   5.549   1.382 -0.7089 -0.3852  0.2850
  436TIP3    H1 1272   5.132   5.627   1.352  0.2185 -0.4164 -1.3371
  436TIP3    H2 1273   5.141   5.531   1.469 -0.9838  1.7979  0.6800
  437TIP3   OH2 1274   5.186   0.835   4.750  0.3292  0.3529  0.2094
  437TIP3    H1 1275   5.187   0.929   4.765 -1.5690  0.4163  0.1218
  437TIP3    H2 1276   5.185   0.796   4.837  0.1310  0.4283  0.2392
  438TIP3   OH2 1277   5.637   5.666   2.445 -0.2692  0.9245 -0.3619
  438TIP3    H1 1278   5.580   5.592   2.423 -0.0800  1.1548 -1.7192
  438TIP3    H2 1279   5.678   5.641   2.527 -0.7425 -0.1709 -0.4396
  439TIP3   OH2 1280   5.812   2.308   5.547 -0.2073  0.5142 -0.4143
  439TIP3    H1 1281   5.824   2.271   5.460 -1.1424 -1.8857  0.3939
  439TIP3    H2 1282   5.894   2.290   5.592 -0.7386 -0.8705  0.0457
  440TIP3   OH2 1283   2.875   3.301   3.509 -0.2262 -0.2663  0.1348
  440TIP3    H1 1284   2.890   3.383   3.556 -1.4291 -0.2148  0.4686
  440TIP3    H2 1285   2.834   3.327   3.427 -0.6663 -0.5200  0.2672
  441TIP3   OH2 1286   0.960   3.886   5.092  0.1486 -0.0574  0.3434
  441TIP3    H1 1287   0.942   3.965   5.042 -0.3535  0.4552  1.3050
  441TIP3    H2 1288   0.940   3.910   5.183 -0.0039 -1.2796  0.6485
  442TIP3   OH2 1289   4.077   4.038   3.310  0.1246 -0.3686  0.3573
  442TIP3    H1 1290   4.080   3.945   3.329  0.7707  0.0970  2.9168
  442TIP3    H2 1291   4.168   4.060   3.287 -0.0147 -0.3531 -0.1838
  443TIP3   OH2 1292   3.056   2.178   2.613 -0.5033 -0.3489 -0.3225
  443TIP3    H1 1293   3.060   2.227   2.695  0.4321 -1.4239  0.3030
  443TIP3    H2 1294   3.133   2.206   2.563  1.6148 -3.0020  1.1719
  444TIP3   OH2 1295   1.146   6.781   2.701  0.1121  0.3990 -0.1393
  444TIP3    H1 1296   1.205   6.711   2.675 -0.2356  0.6221 -1.6276
  444TIP3    H2 1297   1.121   6.759   2.790  0.4516 -1.0659 -0.3745
  445TIP3   OH2 1298   1.181   6.368   3.627  0.9688  0.0301  0.6169
  445TIP3    H1 1299   1.199   6.443   3.683  0.0369  1.4162 -0.8156
  445TIP3    H2 1300   1.259   6.359   3.572  0.8777  0.3250  0.4325
  446TIP3   OH2 1301   5.924   6.149   4.504  0.5879 -0.1137  0.2468
  446TIP3    H1 1302   5.940   6.201   4.582  0.0232  0.0155  0.2831
  446TIP3    H2 1303   5.920   6.213   4.433 -0.0027 -0.1087  0.2769
  447TIP3   OH2 1304   0.150   3.526   2.377 -0.2002  0.4426 -0.3163
  447TIP3    H1 1305   0.106   3.442   2.369 -0.0834  0.1037  1.9113
  447TIP3    H2 1306   0.198   3.536   2.295  0.6202 -2.1777 -0.2583
  448TIP3   OH2 1307   6.569   1.743   0.475 -0.0791  0.2593  0.3323
  448TIP3    H1 1308   6.606   1.831   0.477 -0.0686  0.2699  2.8177
  448TIP3    H2 1309   6.474   1.757   0.485 -0.0281 -0.0015  1.2922
  449TIP3   OH2 1310   6.775   4.692   4.416  0.1215  0.4026  0.4269
  449TIP3    H1 1311   6.702   4.735   4.373  1.4061  0.9265 -1.3651
  449TIP3    H2 1312   6.837   4.674   4.345  1.6807 -0.0995  1.8522
  450TIP3   OH2 1313   4.725   4.749   1.434  0.0929 -0.4856  0.0690
  450TIP3    H1 1314   4.797   4.781   1.380 -1.1104 -1.0634 -2.0086
  450TIP3    H2 1315   4.753   4.662   1.463  1.1726  0.2370  1.2918
  451TIP3   OH2 1316   7.053   1.999   1.222  0.5345  0.5015 -0.0028
  451TIP3    H1 1317   7.139   2.019   1.185  0.3647 -0.9131 -1.2694
  451TIP3    H2 1318   7.072   1.943   1.297  0.8294  2.6430  1.6179
  452TIP3   OH2 1319   5.714   1.142   3.093  0.3410  0.2069  0.0586
  452TIP3    H1 1320   5.620   1.161   3.099 -0.2118 -1.5952 -1.6929
  452TIP3    H2 1321   5.732   1.140   2.999  1.7750 -0.9933  0.3145
  453TIP3   OH2 1322   0.055   4.752   1.503 -0.0877  0.5627  0.0466
  453TIP3    H1 1323   0.093   4.748   1.415 -0.0140  0.6693  0.0739
  453TIP3    H2 1324   0.127   4.780   1.559 -0.3773  1.4254 -0.0048
  454TIP3   OH2 1325   0.714   3.110   0.829  0.0238 -0.1367 -0.1807
  454TIP3    H1 1326   0.789   3.162   0.856  0.1029  0.2778 -1.1815
  454TIP3    H2 1327   0.683   3.069   0.910 -0.8138  2.4257  0.8935
  455TIP3   OH2 1328   1.945   1.661   2.433 -0.3354  0.0215 -0.3591
  455TIP3    H1 1329   1.896   1.645   2.352  1.2773 -3.4481 -0.8344
  455TIP3    H2 1330   1.946   1.576   2.477  3.1962  0.4935  0.7469
  456TIP3   OH2 1331   7.048   2.358   3.572 -0.1483  0.4017  0.1820
  456TIP3    H1 1332   6.971   2.306   3.551 -0.0209 -0.3464  1.4520
  456TIP3    H2 1333   7.121   2.297   3.563  0.1898  0.8281 -0.0081
  457TIP3   OH2 1334   1.302   3.771   1.358  0.4466 -0.1798 -0.4796
  457TIP3    H1 1335   1.247   3.708   1.404  0.8612 -0.3812 -0.2652
  457TIP3    H2 1336   1.278   3.760   1.266  1.0177 -1.1447 -0.5253
  458TIP3   OH2 1337   3.477   1.457   3.043  0.2300  0.5044  0.2444
  458TIP3    H1 1338   3.547   1.404   3.081  0.3748  0.3615 -0.2128
  458TIP3    H2 1339   3.410   1.394   3.016  0.4336  0.5420 -0.3653
  459TIP3   OH2 1340   7.182   3.970   0.686 -0.0473 -0.4848  1.0370
  459TIP3    H1 1341   7.136   4.024   0.622  0.8578 -0.9198 -0.0194
  459TIP3    H2 1342   7.167   3.880   0.656  0.1882 -0.7039  1.5710
  460TIP3   OH2 1343   0.465   1.614   5.226 -0.0410 -0.2068 -0.6214
  460TIP3    H1 1344   0.552   1.603   5.186 -0.0039 -3.0038  0.0324
  460TIP3    H2 1345   0.461   1.545   5.292 -1.4294  2.0979  1.8857
  461TIP3   OH2 1346   3.908   3.291   1.036 -0.0010  0.0153 -0.1162
  461TIP3    H1 1347   3.890   3.197   1.034  2.5065 -0.5387 -2.2754
  461TIP3    H2 1348   3.845   3.329   0.975  1.1709 -0.8151 -1.9265
  462TIP3   OH2 1349   3.551   5.142   3.068  0.0970  0.3459  0.8645
  462TIP3    H1 1350   3.599   5.135   2.985 -0.6860 -1.2630  0.5071
  462TIP3    H2 1351   3.617   5.130   3.136  0.5485  0.4070  0.4434
  463TIP3   OH2 1352   5.622   1.295   1.191  0.3317 -0.1833 -0.2961
  463TIP3    H1 1353   5.679   1.247   1.131  0.7080  0.1239 -0.1838
  463TIP3    H2 1354   5.631   1.387   1.166  0.4504 -0.0565  0.1915
  464TIP3   OH2 1355   7.109   6.701   0.572  0.7299 -0.1700  0.3382
  464TIP3    H1 1356   7.053   6.778   0.571  2.4479  1.1332  0.3090
  464TIP3    H2 1357   7.098   6.662   0.485 -2.0879 -1.5138  1.1692
  465TIP3   OH2 1358   3.786   0.962   3.342 -0.3700  0.3690  0.4858
  465TIP3    H1 1359   3.853   1.027   3.322  0.9003 -0.8010  0.7419
  465TIP3    H2 1360   3.754   0.986   3.429  0.5398  0.3311  0.8516
  466TIP3   OH2 1361   3.748   1.946   2.834  0.1620 -0.0008 -0.0247
  466TIP3    H1 1362   3.832   1.913   2.805 -0.4422  0.2163 -2.2159
  466TIP3    H2 1363   3.705   1.871   2.875  0.8380 -0.5258 -0.2642
  467TIP3   OH2 1364   4.245   4.218   5.073  0.1703  0.4839  1.0133
  467TIP3    H1 1365   4.218   4.214   5.164 -0.9764  0.4208  0.6848
  467TIP3    H2 1366   4.167   4.194   5.023  1.2069 -1.0877  0.0591
  468TIP3   OH2 1367   0.088   3.890   2.020  0.2675  0.4258  0.0372
  468TIP3    H1 1368   0.167   3.842   1.998  1.3576  1.3270  1.7618
  468TIP3    H2 1369   0.061   3.853   2.105 -0.3580  1.0751  0.1283
  469TIP3   OH2 1370   6.093   3.273   1.521 -0.0233  0.2176  0.2358
  469TIP3    H1 1371   6.147   3.344   1.555  0.8665  0.4193 -1.4630
  469TIP3    H2 1372   6.151   3.196   1.522 -0.7906 -0.3871  1.4971
  470TIP3   OH2 1373   6.420   4.020   2.378  0.6541 -0.3000  0.0429
  470TIP3    H1 1374   6.516   4.013   2.382  1.0425  2.7707 -0.8081
  470TIP3    H2 1375   6.391   4.019   2.469  1.5726 -0.6490  0.3393
  471TIP3   OH2 1376   5.637   5.555   3.797 -0.2922  0.1765 -0.4129
  471TIP3    H1 1377   5.698   5.503   3.744  0.1839  0.7328 -0.4224
  471TIP3    H2 1378   5.559   5.500   3.804  1.2176 -1.8710  2.1129
  472TIP3   OH2 1379   2.252   5.442   4.680 -0.0484  0.5747  0.5208
  472TIP3    H1 1380   2.225   5.402   4.762  1.5642  0.5515  1.0803
  472TIP3    H2 1381   2.296   5.523   4.706 -1.9775  2.0427 -0.5112
  473TIP3   OH2 1382   4.401   4.181   4.736 -0.2963  0.2602 -0.0284
  473TIP3    H1 1383   4.324   4.225   4.701 -1.3261 -3.4577 -2.9432
  473TIP3    H2 1384   4.369   4.132   4.812 -0.0619  1.0082  0.5772
  474TIP3   OH2 1385   0.743   0.165   3.397  0.1691  0.1059 -0.0715
  474TIP3    H1 1386   0.802   0.125   3.332 -0.3947  0.5238 -0.8617
  474TIP3    H2 1387   0.799   0.227   3.444  0.1464  1.4318 -1.6585
  475TIP3   OH2 1388   2.834   3.070   4.900  0.4779 -0.1712  0.1283
  475TIP3    H1 1389   2.745   3.105   4.910 -0.0859 -1.1429 -1.2426
  475TIP3    H2 1390   2.874   3.084   4.986  0.0441  3.0233 -0.0677
  476TIP3   OH2 1391   6.946   1.915   3.273  0.2312 -0.4771  0.8537
  476TIP3    H1 1392   6.913   1.964   3.348 -1.4355  0.7155 -0.5682
  476TIP3    H2 1393   7.041   1.913   3.285  0.0660  0.3869  2.5563
  477TIP3   OH2 1394   1.857   6.534   0.564 -0.2724  0.1448  0.1264
  477TIP3    H1 1395   1.839   6.487   0.646 -0.0086  0.6215  0.4559
  477TIP3    H2 1396   1.944   6.505   0.538  0.2706  1.1335  0.8074
  478TIP3   OH2 1397   3.734   0.784   5.886  0.4378  0.1722  0.0196
  478TIP3    H1 1398   3.760   0.835   5.809  1.6318  0.6722  0.7214
  478TIP3    H2 1399   3.783   0.703   5.879 -0.8998 -0.6149 -0.7062
  479TIP3   OH2 1400   5.245   1.817   0.057  0.0550 -0.3249 -0.2120
  479TIP3    H1 1401   5.201   1.899   0.032 -0.1222 -0.0732  0.8839
  479TIP3    H2 1402   5.338   1.840   0.061  0.1465 -0.4971 -1.1114
  480TIP3   OH2 1403   6.843   2.755   0.109  0.4756 -0.3105 -0.4788
  480TIP3    H1 1404   6.934   2.725   0.115  0.6408  0.0434 -1.2069
  480TIP3    H2 1405   6.842   2.838   0.155  1.1261  1.0046 -2.7001
  481TIP3   OH2 1406   5.113   4.676   2.803 -0.4310  0.2702  0.1356
  481TIP3    H1 1407   5.021   4.694   2.786 -0.4232  0.8426  0.6975
  481TIP3    H2 1408   5.141   4.743   2.865 -0.1830 -1.1537  1.6265
  482TIP3   OH2 1409   3.148   2.061   3.637  0.4584 -0.0092 -0.0178
  482TIP3    H1 1410   3.054   2.047   3.634  0.5225 -1.1945  1.6966
  482TIP3    H2 1411   3.173   2.082   3.547 -1.4416  0.4067 -0.4737
  483TIP3   OH2 1412   3.629   0.757   2.284 -0.1359  0.8204 -0.5018
  483TIP3    H1 1413   3.574   0.756   2.205 -0.5444 -0.8251 -0.2300
  483TIP3    H2 1414   3.715   0.782   2.252 -0.1674 -0.3427 -1.5968
  484TIP3   OH2 1415   0.696   4.360   2.326 -0.4255 -0.5330  0.4298
  484TIP3    H1 1416   0.781   4.328   2.356  0.3772  1.1823  0.1331
  484TIP3    H2 1417   0.636   4.343   2.399 -0.4025 -3.7691 -0.1718
  485TIP3   OH2 1418   3.087   0.748   0.567  0.0413 -0.4353  0.1917
  485TIP3    H1 1419   3.108   0.658   0.542 -1.0295 -0.7791  0.4878
  485TIP3    H2 1420   2.999   0.763   0.533  0.0281  0.3413  0.5435
  486TIP3   OH2 1421   1.423   3.356   5.555  0.2774  0.6111 -0.4141
  486TIP3    H1 1422   1.403   3.269   5.590  1.2873  0.7340  0.4950
  486TIP3    H2 1423   1.482   3.395   5.619 -0.1371  1.9696 -0.8283
  487TIP3   OH2 1424   4.137   5.514   2.190 -0.2005  0.3404  0.0355
  487TIP3    H1 1425   4.181   5.435   2.222 -0.3248 -0.5435 -1.8166
  487TIP3    H2 1426   4.044   5.498   2.209 -0.0081  1.2605  2.0197
  488TIP3   OH2 1427   0.809   2.172   3.429 -0.3154 -0.2268 -0.8807
  488TIP3    H1 1428   0.719   2.195   3.454  0.3321  0.5454  0.9310
  488TIP3    H2 1429   0.854   2.256   3.424  0.7156 -0.6937  0.0500
  489TIP3   OH2 1430   3.001   1.151   0.765 -0.2321 -0.5519  0.0627
  489TIP3    H1 1431   2.922   1.111   0.804 -0.9435 -0.6888 -1.4571
  489TIP3    H2 1432   2.986   1.245   0.775  0.5090 -0.5712  1.8210
  490TIP3   OH2 1433   3.975   5.525   1.927 -0.1982  0.1323  0.2472
  490TIP3    H1 1434   4.010   5.555   2.011  0.6643  0.0772 -0.0897
  490TIP3    H2 1435   4.000   5.593   1.865 -0.4952 -0.0203 -0.0410
  491TIP3   OH2 1436   5.659   4.049   2.813 -0.1862  0.3500  1.1078
  491TIP3    H1 1437   5.739   4.003   2.838  0.2936 -0.0173 -0.9353
  491TIP3    H2 1438   5.687   4.140   2.803 -0.3956  0.5117  1.8924
  492TIP3   OH2 1439   2.653   3.482   4.273 -0.2440 -0.2822  0.0279
  492TIP3    H1 1440   2.664   3.428   4.352 -0.2274 -0.8763 -0.3741
  492TIP3    H2 1441   2.620   3.421   4.207 -0.1265  0.1814 -0.4652
  493TIP3   OH2 1442   4.576   3.237   3.543 -0.1314  0.1070 -0.1119
  493TIP3    H1 1443   4.536   3.312   3.587 -0.7204  0.6084 -1.4345
  493TIP3    H2 1444   4.515   3.165   3.556  0.9153 -0.4748  2.0370
  494TIP3   OH2 1445   1.921   2.843   3.703  0.0288  0.0410 -0.3213
  494TIP3    H1 1446   1.840   2.800   3.678 -0.6920  1.2357 -0.1483
  494TIP3    H2 1447   1.941   2.810   3.791 -0.8928  0.5513  0.0983
  495TIP3   OH2 1448   0.171   3.166   2.855  0.6422 -0.3613 -0.3876
  495TIP3    H1 1449   0.124   3.156   2.772 -0.1540  2.5832 -0.4244
  495TIP3    H2 1450   0.249   3.216   2.833  1.1596 -0.7909  0.4292
  496TIP3   OH2 1451   5.224   4.237   1.110  0.3788 -0.3487 -0.6397
  496TIP3    H1 1452   5.310   4.227   1.069  0.5453 -0.4413 -0.2772
  496TIP3    H2 1453   5.222   4.169   1.178 -0.7021 -1.5383 -1.8236
  497TIP3   OH2 1454   1.586   6.673   4.521 -0.0353 -0.7451 -0.3955
  497TIP3    H1 1455   1.506   6.627   4.547  1.0008 -2.0152  0.7479
  497TIP3    H2 1456   1.625   6.701   4.604  0.5810  0.0615 -0.9517
  498TIP3   OH2 1457   0.021   0.528   5.093 -0.1548 -0.3856 -0.5529
  498TIP3    H1 1458   0.015   0.586   5.017  0.5676  0.1383 -0.2187
  498TIP3    H2 1459   0.074   0.454   5.063  0.4516  0.0051 -0.4495
  499TIP3   OH2 1460   6.632   4.719   4.952  0.0100 -0.0557  0.0077
  499TIP3    H1 1461   6.716   4.713   4.906 -0.3793  2.1443 -1.1477
  499TIP3    H2 1462   6.567   4.714   4.883 -0.7514 -0.2144  0.7252
  500TIP3   OH2 1463   0.605   4.058   2.349 -0.0151 -0.1319 -0.4639
  500TIP3    H1 1464   0.690   4.021   2.373 -1.0393 -2.1760  0.1923
  500TIP3    H2 1465   0.561   4.075   2.432  0.8381  3.9132 -0.6458
  501TIP3   OH2 1466   6.947   2.367   4.244  0.3593 -0.0974  0.5498
  501TIP3    H1 1467   7.005   2.368   4.168 -0.0356 -1.4398  0.2095
  501TIP3    H2 1468   6.859   2.364   4.207  0.0308  1.7032  1.0663
  502TIP3   OH2 1469   3.480   1.232   4.791 -0.1129 -0.0146 -1.0333
  502TIP3    H1 1470   3.538   1.255   4.864  0.0792 -0.6182 -0.9887
  502TIP3    H2 1471   3.392   1.250   4.824  0.0372  0.6890 -1.0190
  503TIP3   OH2 1472   1.856   5.511   1.040  0.3732 -0.0567  0.0587
  503TIP3    H1 1473   1.797   5.437   1.051 -1.1941  1.4016  2.3038
  503TIP3    H2 1474   1.934   5.474   0.999 -1.5905 -2.2792 -1.9453
  504TIP3   OH2 1475   3.308   5.545   5.799  0.1924  0.3982 -0.1570
  504TIP3    H1 1476   3.277   5.610   5.862 -0.5523  0.2454 -0.3612
  504TIP3    H2 1477   3.360   5.596   5.736  0.2526  0.6765  0.1153
  505TIP3   OH2 1478   6.262   1.885   1.451 -0.0350  0.5727  0.2934
  505TIP3    H1 1479   6.227   1.805   1.412 -0.5838  0.0986  1.6818
  505TIP3    H2 1480   6.294   1.857   1.537 -0.1363  1.8195  0.7556
  506TIP3   OH2 1481   6.008   1.913   3.215 -0.3240 -0.0543 -0.3704
  506TIP3    H1 1482   5.973   1.911   3.125  0.1174 -1.3834 -0.5262
  506TIP3    H2 1483   6.089   1.864   3.210 -1.0013 -1.3923  1.0427
  507TIP3   OH2 1484   0.783   4.388   0.095  0.3682 -0.2973  0.0807
  507TIP3    H1 1485   0.690   4.394   0.118  0.2878 -0.0349 -0.3080
  507TIP3    H2 1486   0.821   4.335   0.165 -0.2570 -1.2456 -0.2735
  508TIP3   OH2 1487   3.165   0.229   2.023 -0.0513  0.4347  0.0027
  508TIP3    H1 1488   3.232   0.194   1.964 -0.7775 -0.0458 -0.5470
  508TIP3    H2 1489   3.130   0.306   1.978 -0.1015  0.4969  0.1448
  509TIP3   OH2 1490   4.371   3.032   5.840  0.1236  0.2460 -0.0397
  509TIP3    H1 1491   4.416   2.956   5.803  2.0126  0.6117  1.3610
  509TIP3    H2 1492   4.303   2.995   5.896  1.5904 -0.4843  1.3296
  510TIP3   OH2 1493   5.078   6.431   4.307  0.5824  0.4359  0.2463
  510TIP3    H1 1494   5.054   6.360   4.366 -0.1314  0.2920 -0.2087
  510TIP3    H2 1495   5.138   6.391   4.244  0.8243  0.4367  0.4730
  511TIP3   OH2 1496   1.166   0.098   3.385 -0.2080 -0.0728  0.0636
  511TIP3    H1 1497   1.087   0.061   3.425 -1.0137  1.1179 -0.3582
  511TIP3    H2 1498   1.172   0.056   3.299  0.3331 -1.0839  0.5882
  512TIP3   OH2 1499   4.103   0.254   1.578 -0.3916 -0.4991  0.3016
  512TIP3    H1 1500   4.021   0.207   1.564 -1.1217  0.5107  1.0924
  512TIP3    H2 1501   4.102   0.277   1.671  1.2533 -1.3094  0.5621
  513TIP3   OH2 1502   3.817   0.520   1.075  0.3591 -0.0187 -0.4227
  513TIP3    H1 1503   3.822   0.431   1.040 -0.5834  0.2526 -1.2854
  513TIP3    H2 1504   3.753   0.564   1.020  0.4092  1.0459  0.3412
  514TIP3   OH2 1505   5.035   4.971   3.270  0.5104 -0.5394 -0.2419
  514TIP3    H1 1506   4.940   4.980   3.278  0.2694 -0.6750 -2.3877
  514TIP3    H2 1507   5.062   4.931   3.353 -1.5112 -1.9704 -0.1920
  515TIP3   OH2 1508   4.053   1.783   2.477 -0.0642 -0.0843 -0.9210
  515TIP3    H1 1509   4.060   1.784   2.572 -0.4584 -1.7710 -0.8408
  515TIP3    H2 1510   4.008   1.865   2.455 -1.7726 -0.5627  0.5377
  516TIP3   OH2 1511   0.122   4.296   3.698 -0.1592 -0.1977  0.0401
  516TIP3    H1 1512   0.051   4.246   3.660  1.0203 -0.9096 -1.3204
  516TIP3    H2 1513   0.183   4.230   3.732  0.3859  0.3615  0.1786
  517TIP3   OH2 1514   6.046   3.546   1.276 -0.0235 -0.2234 -0.5904
  517TIP3    H1 1515   6.037   3.611   1.207  1.4459 -0.3053 -0.8893
  517TIP3    H2 1516   6.121   3.576   1.327 -1.3321  0.0847  1.2696
  518TIP3   OH2 1517   5.080   3.831   2.432 -0.0981  0.1114  0.4192
  518TIP3    H1 1518   5.057   3.813   2.341 -1.4352 -1.1877  0.9767
  518TIP3    H2 1519   5.164   3.785   2.444 -0.3979 -0.5384  0.1010
  519TIP3   OH2 1520   6.339   5.142   3.437 -0.3371 -0.4871 -0.1333
  519TIP3    H1 1521   6.391   5.206   3.387 -0.3770 -0.3642 -0.0172
  519TIP3    H2 1522   6.338   5.177   3.526 -0.8837 -0.3257 -0.1994
  520TIP3   OH2 1523   3.927   2.752   4.742 -0.1251  0.0903  0.2952
  520TIP3    H1 1524   3.856   2.816   4.740  0.1900  0.4292 -0.9920
  520TIP3    H2 1525   3.979   2.777   4.819  0.0226  1.4464 -0.2105
  521TIP3   OH2 1526   3.598   6.042   0.073 -0.0019  0.2386 -0.3779
  521TIP3    H1 1527   3.612   5.955   0.036 -0.2327 -0.1999  0.5325
  521TIP3    H2 1528   3.560   6.026   0.159 -0.7271  1.2641 -0.4885
  522TIP3   OH2 1529   5.423   2.219   2.467 -0.1492 -0.6556  1.0261
  522TIP3    H1 1530   5.436   2.198   2.559 -1.9607  0.1640  1.5059
  522TIP3    H2 1531   5.509   2.246   2.436  0.8507 -2.5014  2.0294
  523TIP3   OH2 1532   1.517   5.303   2.682 -0.0213  0.4079 -0.2355
  523TIP3    H1 1533   1.459   5.278   2.753  1.0952 -2.3814 -0.1869
  523TIP3    H2 1534   1.586   5.237   2.682  2.0992  2.4355 -1.5472
  524TIP3   OH2 1535   5.386   2.175   2.743 -0.2304  0.6270  0.1385
  524TIP3    H1 1536   5.326   2.157   2.815  0.2470 -0.0530  0.3814
  524TIP3    H2 1537   5.451   2.235   2.781  0.3519 -0.1812  0.4705
  525TIP3   OH2 1538   6.876   1.421   2.267 -0.4284  0.3885  0.4314
  525TIP3    H1 1539   6.896   1.369   2.345  2.4226  0.8356  0.1052
  525TIP3    H2 1540   6.909   1.508   2.286 -0.3475  0.7016 -1.0005
  526TIP3   OH2 1541   5.135   6.285   3.808  0.0247  0.0359  0.3351
  526TIP3    H1 1542   5.123   6.243   3.722 -0.5644 -0.3710  0.6122
  526TIP3    H2 1543   5.047   6.308   3.836  0.3009  1.1058  0.3784
  527TIP3   OH2 1544   0.141   6.094   1.036  0.1927 -0.1628  0.6777
  527TIP3    H1 1545   0.098   6.153   1.097  0.7933  0.8783  0.1304
  527TIP3    H2 1546   0.235   6.109   1.049  0.3504 -0.7826  0.3271
  528TIP3   OH2 1547   5.199   3.445   5.249  0.2388  0.0496  0.0402
  528TIP3    H1 1548   5.240   3.374   5.299  0.1910  1.0231  1.5352
  528TIP3    H2 1549   5.105   3.435   5.266  0.2619  0.6879  0.6031
  529TIP3   OH2 1550   4.775   4.340   5.688  0.4099 -0.6477  0.3650
  529TIP3    H1 1551   4.698   4.348   5.745 -0.0376  0.6935 -0.3980
  529TIP3    H2 1552   4.848   4.329   5.749 -0.0694  0.6510  1.2304
  530TIP3   OH2 1553   0.843   6.231   3.679 -0.5724 -0.4639 -0.0215
  530TIP3    H1 1554   0.818   6.229   3.771 -1.0835 -1.9409 -0.1619
  530TIP3    H2 1555   0.767   6.196   3.633  0.2222 -1.1527 -0.8515
  531TIP3   OH2 1556   1.718   5.296   1.409  0.6760 -0.1996  0.4106
  531TIP3    H1 1557   1.683   5.209   1.428  1.6610 -1.3099 -2.3593
  531TIP3    H2 1558   1.805   5.296   1.448  1.7721 -1.5949 -1.7883
  532TIP3   OH2 1559   2.248   0.691   4.182  0.0579  0.9051  0.0900
  532TIP3    H1 1560   2.227   0.666   4.273  1.1938  0.6159  0.2886
  532TIP3    H2 1561   2.199   0.772   4.168  2.6507  3.0359  2.2367
  533TIP3   OH2 1562   4.958   0.138   5.819  0.4874  0.1676 -0.3327
  533TIP3    H1 1563   4.900   0.214   5.828  1.3262  1.2251 -2.8682
  533TIP3    H2 1564   4.913   0.080   5.757  1.4592  0.3501 -1.2427
  534TIP3   OH2 1565   5.369   5.955   5.302 -0.0930 -0.6596  0.0371
  534TIP3    H1 1566   5.367   6.050   5.292  2.0242 -0.5679  0.1285
  534TIP3    H2 1567   5.305   5.924   5.237 -2.8354  0.8582  1.8230
  535TIP3   OH2 1568   4.518   5.506   1.412 -0.0125  0.6978 -0.4915
  535TIP3    H1 1569   4.553   5.541   1.330 -0.2401 -0.5668 -1.1528
  535TIP3    H2 1570   4.595   5.473   1.459 -0.0590 -0.0912 -0.9573
  536TIP3   OH2 1571   6.991   5.327   1.711  0.4010 -0.0924  0.1716
  536TIP3    H1 1572   6.936   5.347   1.635  1.7529 -0.3126 -0.9022
  536TIP3    H2 1573   6.980   5.233   1.726 -0.5371  0.1050  0.8233
  537TIP3   OH2 1574   7.184   0.350   4.132  0.0035 -0.0537  0.2416
  537TIP3    H1 1575   7.118   0.352   4.202 -0.0554 -0.6482  0.2043
  537TIP3    H2 1576   7.204   0.443   4.116  0.2685  0.0824  1.2883
  538TIP3   OH2 1577   4.714   1.130   2.104 -0.3167  0.1637 -0.5793
  538TIP3    H1 1578   4.675   1.062   2.160  0.0978  0.1243 -0.3339
  538TIP3    H2 1579   4.808   1.120   2.117 -0.2385  0.4959 -0.8918
  539TIP3   OH2 1580   0.323   2.722   0.818  0.6143  0.2539 -0.7691
  539TIP3    H1 1581   0.314   2.654   0.885  2.3022 -0.9547 -1.6998
  539TIP3    H2 1582   0.332   2.674   0.736 -1.2246  1.6953 -1.9044
  540TIP3   OH2 1583   2.923   6.236   2.848  0.0796 -0.0104  0.5321
  540TIP3    H1 1584   2.989   6.304   2.866 -0.8426  0.8051  0.9007
  540TIP3    H2 1585   2.953   6.195   2.767  0.8490  0.5995  0.4933
  541TIP3   OH2 1586   2.863   1.215   1.201 -0.1577  0.3095  0.0448
  541TIP3    H1 1587   2.847   1.296   1.250  1.4471  0.5812  0.1770
  541TIP3    H2 1588   2.930   1.238   1.137  1.4103 -1.2364  1.0383
  542TIP3   OH2 1589   0.995   2.651   5.756 -0.1660 -0.8590 -0.0561
  542TIP3    H1 1590   1.015   2.679   5.845 -0.7219  0.8220 -0.4253
  542TIP3    H2 1591   0.932   2.579   5.767  1.3984 -2.1603  0.9251
  543TIP3   OH2 1592   2.866   5.629   5.222  0.2716  0.2197  0.0490
  543TIP3    H1 1593   2.957   5.614   5.246 -0.4553 -2.8739  1.4621
  543TIP3    H2 1594   2.826   5.667   5.300 -0.1184 -0.7494  0.3367
  544TIP3   OH2 1595   7.180   1.678   3.987 -0.1673 -0.2907 -0.1452
  544TIP3    H1 1596   7.094   1.687   4.028 -0.1068  0.0365 -0.0879
  544TIP3    H2 1597   7.176   1.736   3.910 -0.2248 -0.7743 -0.5135
  545TIP3   OH2 1598   0.969   0.983   3.087  0.0070 -0.1383 -0.3814
  545TIP3    H1 1599   0.912   1.002   3.161  1.5424 -0.5510  0.9903
  545TIP3    H2 1600   0.954   0.890   3.068  0.2214 -0.2524 -0.0070
  546TIP3   OH2 1601   4.789   6.187   5.370  0.0933 -0.3336  0.4991
  546TIP3    H1 1602   4.868   6.170   5.319  0.8678 -2.0033  2.1381
  546TIP3    H2 1603   4.790   6.281   5.386  1.7637 -0.3144  0.4683
  547TIP3   OH2 1604   3.893   5.573   0.732  0.1332 -0.0557 -0.1656
  547TIP3    H1 1605   3.977   5.609   0.702  0.1403  0.2642  0.2299
  547TIP3    H2 1606   3.884   5.604   0.822  0.8440 -2.2803  0.7365
  548TIP3   OH2 1607   4.234   4.662   2.515 -0.0299  0.3259  0.5608
  548TIP3    H1 1608   4.254   4.704   2.599 -0.1174 -0.3516  0.9358
  548TIP3    H2 1609   4.178   4.724   2.469  0.9911  1.2137  0.5022
  549TIP3   OH2 1610   5.519   4.542   4.484 -0.0502 -0.3354  0.3533
  549TIP3    H1 1611   5.447   4.523   4.424  1.1582 -0.2666 -1.1828
  549TIP3    H2 1612   5.564   4.459   4.495  0.1169 -0.2089  0.6426
  550TIP3   OH2 1613   2.208   2.936   3.199 -0.8745 -0.2817 -0.4306
  550TIP3    H1 1614   2.269   2.981   3.258 -1.9808  0.3417  0.2807
  550TIP3    H2 1615   2.242   2.955   3.111 -0.2822  0.4091 -0.0697
  551TIP3   OH2 1616   5.413   1.998   0.791 -0.2882 -0.1577  0.0211
  551TIP3    H1 1617   5.336   2.054   0.793  0.1049  0.4092  2.2275
  551TIP3    H2 1618   5.387   1.920   0.839 -0.5234 -1.5253 -2.2066
  552TIP3   OH2 1619   5.959   4.159   5.145 -0.2614 -0.1208  1.1407
  552TIP3    H1 1620   6.045   4.119   5.134 -0.3396 -0.5133  1.9296
  552TIP3    H2 1621   5.926   4.168   5.055  0.1576 -0.9442  0.8906
  553TIP3   OH2 1622   2.184   1.699   1.694 -0.3904  0.1732 -0.0679
  553TIP3    H1 1623   2.256   1.710   1.631  2.0515 -1.8040  2.1550
  553TIP3    H2 1624   2.226   1.664   1.772 -3.0987  3.2743  3.1174
  554TIP3   OH2 1625   0.818   4.043   1.581  0.4013  0.0992  0.0833
  554TIP3    H1 1626   0.724   4.037   1.597  0.3791  2.3209  1.2770
  554TIP3    H2 1627   0.827   4.119   1.523  1.3381 -1.4197 -1.8709
  555TIP3   OH2 1628   5.881   5.425   0.148  0.0868  0.1600 -0.8793
  555TIP3    H1 1629   5.813   5.484   0.181  1.0895 -0.1231  1.9464
  555TIP3    H2 1630   5.958   5.481   0.136  0.2948 -0.1136 -0.8161
  556TIP3   OH2 1631  -0.013   3.822   4.733 -0.1492 -0.1999  0.4051
  556TIP3    H1 1632   0.034   3.890   4.684 -1.0020  0.1232  0.0182
  556TIP3    H2 1633  -0.011   3.852   4.824  0.4206 -0.2062  0.3967
  557TIP3   OH2 1634   6.480   5.789   0.632  0.0357 -0.0072  0.0085
  557TIP3    H1 1635   6.547   5.747   0.579 -0.6743  0.5978 -1.4061
  557TIP3    H2 1636   6.448   5.719   0.689  0.9286 -0.6284 -0.2301
  558TIP3   OH2 1637   5.276   4.003   3.144 -0.2862  0.3022  0.8813
  558TIP3    H1 1638   5.211   4.072   3.153 -0.9955 -0.1286 -0.5721
  558TIP3    H2 1639   5.319   4.021   3.060  3.8140  2.4507  3.1692
  559TIP3   OH2 1640   1.339   5.983   1.152  0.1013  0.0862  0.3063
  559TIP3    H1 1641   1.339   5.935   1.070  0.3666  0.3493  0.1493
  559TIP3    H2 1642   1.265   5.947   1.202  1.0740 -1.3744  0.7256
  560TIP3   OH2 1643   1.021   0.489   2.727  0.4898  0.2781 -0.5357
  560TIP3    H1 1644   1.105   0.445   2.742  0.1911 -0.7500 -1.6816
  560TIP3    H2 1645   1.044   0.578   2.703  1.0656  1.3944  3.5430
  561TIP3   OH2 1646   3.427   3.952   4.770  0.3270  0.7281  0.2404
  561TIP3    H1 1647   3.449   3.948   4.864 -0.5224  1.0145  0.4586
  561TIP3    H2 1648   3.331   3.956   4.768  0.3613  1.2500 -0.6302
  562TIP3   OH2 1649   6.659   0.882   3.116 -0.5425 -0.3968  0.6475
  562TIP3    H1 1650   6.650   0.945   3.044 -2.5543  0.6902  1.7637
  562TIP3    H2 1651   6.713   0.812   3.079  0.1897  1.0567 -1.2585
  563TIP3   OH2 1652   3.037   0.321   4.506  0.3074  0.2676  0.3870
  563TIP3    H1 1653   2.968   0.277   4.456  0.9928 -0.5249  0.1163
  563TIP3    H2 1654   2.991   0.361   4.580 -0.8136  1.9317 -1.1106
  564TIP3   OH2 1655   3.658   2.894   4.749 -0.0378 -0.1308  0.1464
  564TIP3    H1 1656   3.578   2.875   4.799  0.2992  0.5995  0.9686
  564TIP3    H2 1657   3.626   2.928   4.665 -0.6090  1.3335  0.9272
  565TIP3   OH2 1658   3.241   3.814   1.505 -0.2091 -0.1786 -0.0786
  565TIP3    H1 1659   3.246   3.738   1.447  0.3185 -0.0747 -0.1804
  565TIP3    H2 1660   3.226   3.888   1.447  2.2376  0.1986 -0.3403
  566TIP3   OH2 1661   2.172   1.829   4.134 -0.5287 -0.5446 -0.3861
  566TIP3    H1 1662   2.182   1.846   4.040 -0.0853  2.7479  0.1407
  566TIP3    H2 1663   2.082   1.855   4.153  0.0542  0.9717  0.4421
  567TIP3   OH2 1664   2.403   5.705   0.735 -0.4535 -0.0270  0.6273
  567TIP3    H1 1665   2.342   5.631   0.729  1.1751 -1.3355 -1.8749
  567TIP3    H2 1666   2.378   5.762   0.662  0.6901 -0.0957  0.1655
  568TIP3   OH2 1667   3.309   5.143   2.351 -0.5135  0.4507  0.8686
  568TIP3    H1 1668   3.392   5.191   2.347  0.3212 -1.0163 -0.9320
  568TIP3    H2 1669   3.252   5.189   2.289  0.1320 -0.5258 -0.5016
  569TIP3   OH2 1670   4.538   3.057   4.348 -0.1160 -0.1616 -0.0935
  569TIP3    H1 1671   4.613   3.001   4.367  0.0181  0.2272  0.5567
  569TIP3    H2 1672   4.572   3.123   4.289  0.1085  0.1217  0.3447
  570TIP3   OH2 1673   2.608   3.122   2.731  0.0986  0.2886 -0.3615
  570TIP3    H1 1674   2.605   3.166   2.646 -2.2025  0.0874 -0.4385
  570TIP3    H2 1675   2.531   3.065   2.732 -0.3236  0.7941  2.1182
  571TIP3   OH2 1676   3.629   5.622   4.277  0.2830  0.0508 -0.2270
  571TIP3    H1 1677   3.573   5.619   4.200  1.0101 -0.6177 -0.7449
  571TIP3    H2 1678   3.645   5.530   4.299  0.4288  0.2338  0.4680
  572TIP3   OH2 1679   6.504   0.976   0.284 -0.1593 -0.4183  0.2567
  572TIP3    H1 1680   6.487   0.951   0.193 -0.6271 -1.4594  0.6262
  572TIP3    H2 1681   6.596   1.000   0.285  0.2602 -1.9158 -0.1689
  573TIP3   OH2 1682   1.252   2.279   0.791  0.1688 -0.0262  0.2363
  573TIP3    H1 1683   1.167   2.314   0.764  0.9887  1.0391 -1.0801
  573TIP3    H2 1684   1.284   2.231   0.714  1.2238  0.5101  0.3223
  574TIP3   OH2 1685   3.845   4.877   2.270 -0.0880  0.2530  0.4863
  574TIP3    H1 1686   3.784   4.809   2.298  0.4405 -0.0630  0.8858
  574TIP3    H2 1687   3.835   4.880   2.175 -0.3386 -0.1681  0.4967
  575TIP3   OH2 1688   5.166   0.425   4.839  0.3106  0.5644 -0.5659
  575TIP3    H1 1689   5.142   0.454   4.751  0.9018 -0.3639 -1.0443
  575TIP3    H2 1690   5.242   0.478   4.862 -1.3592  2.6724  0.4773
  576TIP3   OH2 1691   3.292   6.101   0.158  0.0934 -0.1543  0.4945
  576TIP3    H1 1692   3.286   6.156   0.236 -2.3572 -0.5733  0.6688
  576TIP3    H2 1693   3.341   6.024   0.187 -0.7167 -0.2722  1.6325
  577TIP3   OH2 1694   4.559   0.340   0.616 -0.2061 -0.5429 -0.1683
  577TIP3    H1 1695   4.647   0.306   0.600  0.7026  0.3053  2.4404
  577TIP3    H2 1696   4.567   0.434   0.602 -0.7976 -0.5049 -0.2714
  578TIP3   OH2 1697   1.238   6.809   1.838 -0.4223 -0.1602 -0.1397
  578TIP3    H1 1698   1.281   6.763   1.910  0.4505  0.3151 -0.3441
  578TIP3    H2 1699   1.244   6.750   1.764 -1.2920 -0.6368  0.1485
  579TIP3   OH2 1700   1.546   2.614   5.670 -0.3579 -0.2632 -0.4316
  579TIP3    H1 1701   1.515   2.529   5.638  1.2966 -1.0649  0.0044
  579TIP3    H2 1702   1.465   2.662   5.689 -1.3571 -1.9492 -0.1316
  580TIP3   OH2 1703   3.982   6.108   1.928 -0.2640  0.1886 -0.0200
  580TIP3    H1 1704   4.069   6.104   1.889  0.5681 -1.2713  1.8040
  580TIP3    H2 1705   3.959   6.200   1.927  0.0566  0.3342 -3.0220
  581TIP3   OH2 1706   1.231   0.544   1.708 -0.3306 -0.3751  0.0493
  581TIP3    H1 1707   1.279   0.509   1.783 -1.9718  0.8842  1.7721
  581TIP3    H2 1708   1.203   0.466   1.659  0.1487 -1.2524  1.1417
  582TIP3   OH2 1709   0.996   0.579   3.526  0.0141 -0.2998 -0.0000
  582TIP3    H1 1710   1.064   0.540   3.580  0.5878 -1.2349 -1.3401
  582TIP3    H2 1711   0.994   0.524   3.447 -1.0650  0.7690 -0.7476
  583TIP3   OH2 1712   4.085   3.292   2.118  0.3042  0.1188  0.2433
  583TIP3    H1 1713   4.083   3.387   2.108 -3.5088  0.0186 -1.8937
  583TIP3    H2 1714   4.035   3.259   2.043 -2.0006 -3.2678  2.9459
  584TIP3   OH2 1715   6.948   6.196   5.220 -0.0787 -0.0224  0.2015
  584TIP3    H1 1716   7.040   6.172   5.205  0.3589  2.0477 -0.6755
  584TIP3    H2 1717   6.907   6.191   5.134 -0.8760 -1.0704  0.6083
  585TIP3   OH2 1718   1.590   4.128   4.057  0.0674 -0.2912 -0.0085
  585TIP3    H1 1719   1.636   4.201   4.099  0.4743 -0.8259  0.4935
  585TIP3    H2 1720   1.566   4.070   4.129 -1.8238  0.1907 -0.2041
  586TIP3   OH2 1721   3.952   1.677   4.117  0.3230 -0.3979 -0.3649
  586TIP3    H1 1722   4.009   1.690   4.192 -0.9259 -0.4428  0.6290
  586TIP3    H2 1723   3.991   1.730   4.048  1.0888  0.2425  0.5267
  587TIP3   OH2 1724   3.662   0.183   3.522 -0.2722  0.3911 -0.4180
  587TIP3    H1 1725   3.612   0.244   3.576 -1.4038  0.1421 -1.1362
  587TIP3    H2 1726   3.716   0.134   3.584  1.0406  2.4155  0.1350
  588TIP3   OH2 1727   2.337   2.194   2.398 -0.1552 -0.0080 -0.1215
  588TIP3    H1 1728   2.336   2.279   2.355  0.6398  0.0933  0.0325
  588TIP3    H2 1729   2.303   2.210   2.486 -0.7949 -0.0148 -0.3641
  589TIP3   OH2 1730   1.101   5.327   4.097 -0.2608 -0.0158 -0.0667
  589TIP3    H1 1731   1.011   5.308   4.068 -0.6161  1.1181  0.2310
  589TIP3    H2 1732   1.095   5.330   4.192  0.0153  0.4296 -0.0632
  590TIP3   OH2 1733   0.735   4.724   4.699 -0.1929 -0.5028 -0.1471
  590TIP3    H1 1734   0.819   4.683   4.718 -0.4786 -0.1296  2.1475
  590TIP3    H2 1735   0.755   4.817   4.691 -0.3473 -0.4419  0.1657
  591TIP3   OH2 1736   2.582   4.801   1.922  0.1301 -0.0930  0.1842
  591TIP3    H1 1737   2.519   4.729   1.930  0.1370 -0.2817 -1.2107
  591TIP3    H2 1738   2.601   4.825   2.012 -1.7587 -0.1853  0.6633
  592TIP3   OH2 1739   3.382   2.408   3.972 -0.6028  0.2519  0.0137
  592TIP3    H1 1740   3.469   2.378   3.996 -0.3904  1.0895  0.2991
  592TIP3    H2 1741   3.335   2.327   3.949 -0.0839 -0.3113  0.8801
  593TIP3   OH2 1742   1.156   5.791   5.584  0.4530  0.0095  0.6329
  593TIP3    H1 1743   1.152   5.763   5.492  1.1554 -0.6977  0.8082
  593TIP3    H2 1744   1.245   5.824   5.596  0.0039  1.2356  0.7584
  594TIP3   OH2 1745   4.590   4.628   0.596 -0.0491 -0.5280 -0.1441
  594TIP3    H1 1746   4.573   4.719   0.573 -0.4020 -0.9394 -1.6660
  594TIP3    H2 1747   4.556   4.619   0.685 -0.6211  0.6535 -0.2216
  595TIP3   OH2 1748   0.683   5.973   2.763 -0.3777 -1.0525  0.0376
  595TIP3    H1 1749   0.713   5.968   2.854 -1.6075 -0.0932  0.5232
  595TIP3    H2 1750   0.631   5.893   2.751 -2.5221  0.0975  1.1002
  596TIP3   OH2 1751   5.667   6.160   5.786  0.2999  0.0814 -0.2816
  596TIP3    H1 1752   5.582   6.197   5.764 -0.3001 -0.8670  0.3629
  596TIP3    H2 1753   5.722   6.235   5.805  0.7065  1.0253 -4.2242
  597TIP3   OH2 1754   6.852   1.668   0.725  0.2952  1.0348 -0.1117
  597TIP3    H1 1755   6.896   1.740   0.770  0.7446  0.7139 -0.0334
  597TIP3    H2 1756   6.881   1.676   0.634  5.3918 -2.6000  0.7695
  598TIP3   OH2 1757   3.366   0.921   2.970  0.2484  0.2485 -0.3690
  598TIP3    H1 1758   3.426   0.995   2.981  0.4241  0.0844 -0.2337
  598TIP3    H2 1759   3.422   0.847   2.951  0.1514 -0.0906  0.6216
  599TIP3   OH2 1760   3.287   3.255   2.319 -0.4328  0.3689  0.3171
  599TIP3    H1 1761   3.343   3.259   2.242  0.3498  1.7305  0.9205
  599TIP3    H2 1762   3.305   3.169   2.358  0.4013  0.3390 -0.1165
  600TIP3   OH2 1763   2.564   6.158   3.176 -0.5745 -0.0729 -0.0589
  600TIP3    H1 1764   2.525   6.196   3.255 -1.4674  0.3096 -0.6718
  600TIP3    H2 1765   2.567   6.230   3.113 -0.2923 -0.4864 -0.5292
  601TIP3   OH2 1766   2.561   5.342   1.829  0.1369  0.1879  0.4909
  601TIP3    H1 1767   2.486   5.350   1.888  0.4583  0.3681  0.8831
  601TIP3    H2 1768   2.580   5.432   1.802  0.3259  0.1617  0.5383
  602TIP3   OH2 1769   4.793   1.976   1.651 -0.4320  0.0928  0.4383
  602TIP3    H1 1770   4.858   2.005   1.587  1.5637  0.1331  2.3953
  602TIP3    H2 1771   4.717   2.033   1.635  0.0529  0.2150 -1.7273
  603TIP3   OH2 1772   2.001   6.723   5.516 -0.2486  0.3707 -0.5169
  603TIP3    H1 1773   1.947   6.739   5.593  0.7129  0.0878  0.2216
  603TIP3    H2 1774   1.940   6.683   5.453 -1.0946  0.8240 -0.0048
  604TIP3   OH2 1775   0.430   5.269   0.963 -0.4526 -0.3893 -0.1224
  604TIP3    H1 1776   0.361   5.242   1.024 -0.1053 -1.9030 -0.3717
  604TIP3    H2 1777   0.391   5.343   0.915 -1.0437  0.2643  1.3033
  605TIP3   OH2 1778   3.442   1.473   4.624  0.3839  0.6064 -0.0461
  605TIP3    H1 1779   3.443   1.450   4.531 -1.1222 -0.8456  0.2512
  605TIP3    H2 1780   3.483   1.398   4.668 -0.7661  0.3379  0.6052
  606TIP3   OH2 1781   2.644   1.569   2.728  0.4033 -0.6118  0.1740
  606TIP3    H1 1782   2.595   1.645   2.696  2.0398 -0.1024 -1.2976
  606TIP3    H2 1783   2.614   1.558   2.819 -2.8255 -0.7304 -0.7685
  607TIP3   OH2 1784   5.522   6.002   1.040 -0.2581 -0.1785  0.1961
  607TIP3    H1 1785   5.509   6.075   0.980  0.1658 -2.1318 -2.4827
  607TIP3    H2 1786   5.585   6.034   1.104 -1.4855  2.3454  0.2587
  608TIP3   OH2 1787   6.122   5.080   0.453  0.2413  0.0568 -0.4042
  608TIP3    H1 1788   6.076   5.138   0.514  1.5470  1.1657 -0.4238
  608TIP3    H2 1789   6.184   5.137   0.408 -0.1452 -0.8991 -2.2243
  609TIP3   OH2 1790   4.141   3.540   2.026  0.3270 -0.8123  0.2402
  609TIP3    H1 1791   4.151   3.612   1.963  1.0934 -1.4029 -0.3232
  609TIP3    H2 1792   4.132   3.584   2.111 -1.3846  0.0239 -0.3150
  610TIP3   OH2 1793   3.850   6.475   3.781 -0.3541  0.1263 -0.1325
  610TIP3    H1 1794   3.804   6.418   3.719  1.8201 -0.7825 -1.0153
  610TIP3    H2 1795   3.781   6.509   3.838 -1.8655 -3.1794  0.2804
  611TIP3   OH2 1796   1.336   5.563   2.795 -0.1344  0.0261  0.1785
  611TIP3    H1 1797   1.359   5.506   2.868  1.9128  1.9178  1.0774
  611TIP3    H2 1798   1.243   5.584   2.809  0.0578 -0.1535  1.8744
  612TIP3   OH2 1799   2.483   2.758   2.995 -0.0765  0.1552 -0.3173
  612TIP3    H1 1800   2.431   2.712   2.929  0.6299  0.2174 -0.9263
  612TIP3    H2 1801   2.554   2.698   3.016  0.8464  0.9412 -1.1061
  613TIP3   OH2 1802   5.692   3.646   2.632 -0.3070 -0.1486 -0.1760
  613TIP3    H1 1803   5.716   3.608   2.716  0.3434 -1.7080 -1.0181
  613TIP3    H2 1804   5.775   3.669   2.591 -0.6730  1.9424  0.1549
  614TIP3   OH2 1805   3.201   3.021   1.823  0.0601  0.2936  0.0479
  614TIP3    H1 1806   3.143   3.082   1.868 -0.7767 -0.5665  0.1784
  614TIP3    H2 1807   3.289   3.056   1.837 -0.4340  1.8134 -0.4307
  615TIP3   OH2 1808   2.124   4.460   3.283  0.3520 -0.1428 -0.0718
  615TIP3    H1 1809   2.177   4.462   3.362 -0.0500 -1.3443  0.2484
  615TIP3    H2 1810   2.186   4.436   3.213  0.7795  1.2791 -0.2101
  616TIP3   OH2 1811   4.631   1.682   5.009 -0.4412  0.4560  0.3551
  616TIP3    H1 1812   4.669   1.731   4.935  0.4770  1.1696  1.2682
  616TIP3    H2 1813   4.561   1.630   4.970  0.2696  0.5341 -1.0830
  617TIP3   OH2 1814   3.177   2.056   0.895 -0.2271 -0.1140 -0.4889
  617TIP3    H1 1815   3.243   2.016   0.838 -1.0964 -3.6886  0.7623
  617TIP3    H2 1816   3.217   2.054   0.982 -0.4495  1.5451 -0.3297
  618TIP3   OH2 1817   3.024   2.031   2.992 -0.5956  0.1822 -0.4359
  618TIP3    H1 1818   3.062   1.946   3.013 -1.7375 -0.7858 -2.0384
  618TIP3    H2 1819   3.098   2.083   2.961 -0.0656 -0.6380 -0.5769
  619TIP3   OH2 1820   6.814   3.309   3.142  0.9817  0.3465 -0.0160
  619TIP3    H1 1821   6.804   3.362   3.062  2.3316  2.7875  1.3101
  619TIP3    H2 1822   6.788   3.368   3.213 -1.8272 -2.2655  1.3888
  620TIP3   OH2 1823   2.942   2.015   5.227 -1.1888 -0.7001 -0.4334
  620TIP3    H1 1824   2.903   2.015   5.140  0.5938 -1.0058 -1.2884
  620TIP3    H2 1825   2.920   2.101   5.264 -0.8086 -0.0058 -1.7611
  621TIP3   OH2 1826   1.110   4.519   5.027  0.1929 -0.4887  0.3061
  621TIP3    H1 1827   1.056   4.508   4.949 -0.9010  0.5204  0.8811
  621TIP3    H2 1828   1.200   4.507   4.996 -0.3405 -2.3955 -0.6487
  622TIP3   OH2 1829   5.304   3.266   5.443  0.5154  0.5116 -0.2351
  622TIP3    H1 1830   5.211   3.262   5.467  0.6434  1.0717  0.3957
  622TIP3    H2 1831   5.344   3.191   5.487  0.0664 -0.8276 -1.9996
  623TIP3   OH2 1832   3.889   5.154   1.042  0.2607 -0.5534  0.3281
  623TIP3    H1 1833   3.888   5.108   0.958 -0.5951  1.0551 -0.6053
  623TIP3    H2 1834   3.982   5.170   1.059  0.4107  2.2661 -2.2448
  624TIP3   OH2 1835   6.951   2.198   0.473  0.2462 -0.3044  0.4544
  624TIP3    H1 1836   6.922   2.194   0.564  0.4933  0.7561  0.5973
  624TIP3    H2 1837   7.047   2.206   0.479  0.2168  0.3888  0.1361
  625TIP3   OH2 1838   6.007   3.276   0.655 -0.2464  0.1819  0.2371
  625TIP3    H1 1839   6.013   3.347   0.592  0.7475  0.8503  1.0589
  625TIP3    H2 1840   6.092   3.234   0.653 -0.6764 -0.7075  0.1000
  626TIP3   OH2 1841   2.300   4.201   0.418  0.0998 -0.7782 -0.1343
  626TIP3    H1 1842   2.352   4.193   0.338 -0.5379  1.3308 -0.8157
  626TIP3    H2 1843   2.250   4.281   0.407  0.9776  0.3632  2.9596
  627TIP3   OH2 1844   3.877   2.053   3.082  0.0123  0.0250  0.1023
  627TIP3    H1 1845   3.884   2.013   3.168 -1.1601 -1.4223 -0.4231
  627TIP3    H2 1846   3.880   1.979   3.021  3.5998  1.1634 -1.3418
  628TIP3   OH2 1847   6.944   5.743   5.157 -0.1989  0.3724  0.0103
  628TIP3    H1 1848   6.956   5.725   5.063 -0.0862 -2.4964  0.4968
  628TIP3    H2 1849   7.018   5.799   5.180  2.4421 -2.5097 -0.7834
  629TIP3   OH2 1850   2.587   5.822   0.084 -0.6787 -0.0569 -0.7341
  629TIP3    H1 1851   2.492   5.835   0.087 -0.5669  0.5929  1.4402
  629TIP3    H2 1852   2.616   5.876   0.010 -1.8020  1.2489 -0.2638
  630TIP3   OH2 1853   5.112   4.169   0.022  0.6475 -0.4697 -0.0285
  630TIP3    H1 1854   5.074   4.186  -0.064  2.8622 -0.4791 -1.0761
  630TIP3    H2 1855   5.051   4.107   0.063  0.6470 -2.2644 -2.5130
  631TIP3   OH2 1856   3.016   6.373   5.649  0.4444 -0.5939  0.2497
  631TIP3    H1 1857   2.943   6.409   5.600 -1.1267  0.7462  3.3474
  631TIP3    H2 1858   2.988   6.284   5.672  0.3286 -0.5315  0.3536
  632TIP3   OH2 1859   0.973   2.288   1.753  0.1084  0.0858  0.0157
  632TIP3    H1 1860   0.948   2.368   1.800 -0.2012  0.2723 -0.4642
  632TIP3    H2 1861   0.936   2.298   1.666 -0.1873 -0.7167  0.0391
  633TIP3   OH2 1862   4.514   2.558   5.165 -0.2579 -0.2387  0.0769
  633TIP3    H1 1863   4.552   2.622   5.225  1.6603 -0.4986 -0.7844
  633TIP3    H2 1864   4.544   2.473   5.199 -0.2300 -0.4646 -0.4944
  634TIP3   OH2 1865   6.721   2.766   0.476 -0.4333  0.1799 -0.1945
  634TIP3    H1 1866   6.763   2.698   0.530 -1.1320  0.1517  0.3318
  634TIP3    H2 1867   6.636   2.728   0.452 -0.0522  0.1037 -1.5164
  635TIP3   OH2 1868   4.670   1.026   5.315  0.1521  0.3737  0.9710
  635TIP3    H1 1869   4.651   0.952   5.258 -0.2346 -0.2980  1.9437
  635TIP3    H2 1870   4.737   0.993   5.375 -0.3196  0.6627  1.6726
  636TIP3   OH2 1871   4.632   5.159   1.163  0.3546  0.4111 -0.1426
  636TIP3    H1 1872   4.546   5.124   1.185  1.0805 -2.0889 -0.9831
  636TIP3    H2 1873   4.639   5.148   1.068  1.0006  2.0944 -0.3258
  637TIP3   OH2 1874   6.272   0.740   4.697  0.4678  0.0351 -0.1496
  637TIP3    H1 1875   6.270   0.770   4.788  0.2888  0.6804 -0.3620
  637TIP3    H2 1876   6.314   0.654   4.701  0.3767  0.0187  0.5532
  638TIP3   OH2 1877   3.439   5.844   5.059 -0.0759  0.3635 -0.0439
  638TIP3    H1 1878   3.389   5.772   5.019  1.5957 -0.5987 -0.4943
  638TIP3    H2 1879   3.373   5.895   5.106 -1.5888 -0.4392 -1.1795
  639TIP3   OH2 1880   6.761   5.561   2.045 -0.1974  0.2821  0.3066
  639TIP3    H1 1881   6.820   5.489   2.064 -0.8672 -0.1620  0.7501
  639TIP3    H2 1882   6.777   5.583   1.954  0.4066 -0.0592  0.3319
  640TIP3   OH2 1883   0.648   1.914   5.597 -0.2275 -0.4296 -0.1216
  640TIP3    H1 1884   0.655   1.977   5.669  0.6309 -0.7040  0.0415
  640TIP3    H2 1885   0.554   1.910   5.578 -0.4708 -0.3621  0.9970
  641TIP3   OH2 1886   4.930   0.551   4.635  0.1828 -0.3730 -0.4798
  641TIP3    H1 1887   4.960   0.464   4.607 -1.2717 -0.6371 -1.3481
  641TIP3    H2 1888   4.897   0.592   4.555 -1.4214 -0.0021  0.3214
  642TIP3   OH2 1889   1.234   2.699   4.241  0.2852  0.2085  0.4297
  642TIP3    H1 1890   1.165   2.681   4.177  0.8411  0.4798 -0.2565
  642TIP3    H2 1891   1.305   2.639   4.219 -0.9986 -2.6733  3.3453
  643TIP3   OH2 1892   6.879   5.865   2.959  0.5022  0.1487 -0.2108
  643TIP3    H1 1893   6.794   5.887   2.997 -0.2515  0.5977 -2.0404
  643TIP3    H2 1894   6.913   5.948   2.925  0.9945 -0.2637 -0.7741
  644TIP3   OH2 1895   3.746   6.642   2.724 -0.0888 -0.3019  0.0647
  644TIP3    H1 1896   3.702   6.562   2.696  0.7951 -1.1798  1.0729
  644TIP3    H2 1897   3.832   6.639   2.682  0.9481 -1.2405  2.0640
  645TIP3   OH2 1898   4.676   3.809   3.306  0.2879 -0.5889  0.8215
  645TIP3    H1 1899   4.702   3.781   3.218 -1.0747 -0.4123  0.3456
  645TIP3    H2 1900   4.613   3.879   3.292  0.5298 -0.1155  1.9574
  646TIP3   OH2 1901   1.577   5.398   2.160  0.1197  0.1629 -0.0626
  646TIP3    H1 1902   1.528   5.324   2.124 -1.1637  0.9835 -0.0732
  646TIP3    H2 1903   1.663   5.362   2.182 -0.8791 -1.6154  1.1034
  647TIP3   OH2 1904   4.032   1.360   0.167 -0.2356 -0.0956  0.8165
  647TIP3    H1 1905   4.016   1.265   0.161  2.6452 -0.6270  0.3288
  647TIP3    H2 1906   4.089   1.379   0.093  1.5564  1.4728  2.5075
  648TIP3   OH2 1907   1.251   5.198   4.987  0.8906  0.3026 -0.1362
  648TIP3    H1 1908   1.297   5.124   4.947 -0.3208 -0.8513  0.5606
  648TIP3    H2 1909   1.210   5.243   4.912  0.0185 -0.8734 -0.3877
  649TIP3   OH2 1910  -0.015   4.557   4.083  0.2429  0.2988  0.0650
  649TIP3    H1 1911   0.037   4.519   4.012 -0.3967  0.4462 -0.4820
  649TIP3    H2 1912   0.050   4.604   4.136  0.6825  0.4370 -0.5804
  650TIP3   OH2 1913   4.710   5.313   5.660 -0.3265  0.5817  0.1330
  650TIP3    H1 1914   4.696   5.224   5.691 -1.9634  0.9708  0.6173
  650TIP3    H2 1915   4.647   5.366   5.709  1.7842  2.3049  1.1510
  651TIP3   OH2 1916   1.203   2.790   3.451 -0.2616  0.4453  0.0003
  651TIP3    H1 1917   1.130   2.775   3.512 -0.6960 -0.1661 -0.6491
  651TIP3    H2 1918   1.165   2.845   3.382 -0.0992  0.1748 -0.3088
  652TIP3   OH2 1919   0.235   5.731   4.875  0.2273  0.2259  0.3521
  652TIP3    H1 1920   0.215   5.700   4.786  0.9791 -1.1082  0.6215
  652TIP3    H2 1921   0.200   5.662   4.932  2.0292 -0.2346  0.9701
  653TIP3   OH2 1922   2.745   2.551   5.875  0.6545  0.5014  0.1085
  653TIP3    H1 1923   2.809   2.608   5.833  0.1195  1.0222 -0.0107
  653TIP3    H2 1924   2.786   2.464   5.874  2.0735  1.1059  1.5281
  654TIP3   OH2 1925   4.464   4.871   0.495 -0.0949 -0.3801  0.2136
  654TIP3    H1 1926   4.528   4.942   0.500  0.6722 -1.0873  0.5936
  654TIP3    H2 1927   4.390   4.910   0.449  0.9686  0.1880 -1.0882
  655TIP3   OH2 1928   4.407   5.272   5.407 -0.3343  0.3127  0.0962
  655TIP3    H1 1929   4.452   5.297   5.326 -0.1378  3.6013  1.0809
  655TIP3    H2 1930   4.457   5.197   5.439  1.5182  0.8790 -1.2600
  656TIP3   OH2 1931   0.351   5.192   2.674 -0.0511  0.7619  0.2013
  656TIP3    H1 1932   0.287   5.247   2.720  0.1881  1.7228 -0.6049
  656TIP3    H2 1933   0.436   5.232   2.694  0.1980  0.2228  0.2365
  657TIP3   OH2 1934   2.338   0.803   2.543 -0.1611  0.7608  0.0319
  657TIP3    H1 1935   2.398   0.739   2.582 -1.6062 -0.2019  0.7624
  657TIP3    H2 1936   2.344   0.787   2.449  0.0227  0.0398  0.1632
  658TIP3   OH2 1937   3.004   5.710   4.330 -0.2730  0.2739 -0.2598
  658TIP3    H1 1938   3.079   5.761   4.299  0.3859 -0.3468  0.2928
  658TIP3    H2 1939   2.965   5.764   4.398 -0.8173  0.9565 -1.0855
  659TIP3   OH2 1940   1.376   4.995   5.246 -0.0678 -0.2111  0.1939
  659TIP3    H1 1941   1.299   5.046   5.218  0.8251  0.7341 -0.6007
  659TIP3    H2 1942   1.364   4.985   5.341 -0.2273  1.5716  0.3954
  660TIP3   OH2 1943   3.461   3.342   0.639 -0.2522 -0.1950  0.1783
  660TIP3    H1 1944   3.538   3.361   0.693 -0.2003 -0.0471  0.0523
  660TIP3    H2 1945   3.477   3.255   0.605 -0.3016 -0.3047  0.4304
  661TIP3   OH2 1946   1.899   4.918   2.220 -0.0783 -0.1634  0.4198
  661TIP3    H1 1947   1.887   4.975   2.144  0.1390 -0.6221  0.0270
  661TIP3    H2 1948   1.994   4.921   2.237  0.0102 -0.7833  0.0816
  662TIP3   OH2 1949   1.691   5.150   3.590 -0.2650 -0.3289  0.2526
  662TIP3    H1 1950   1.743   5.150   3.510 -0.3054 -1.7333  0.1984
  662TIP3    H2 1951   1.746   5.192   3.655 -0.6905  1.9313 -0.7589
  663TIP3   OH2 1952   5.457   4.028   1.415  0.2640  0.5035 -0.1446
  663TIP3    H1 1953   5.485   4.088   1.345 -1.4795 -0.8583 -2.1111
  663TIP3    H2 1954   5.532   3.970   1.426  0.1602 -0.0097 -1.7859
  664TIP3   OH2 1955   7.120   3.759   3.723  0.2760  0.3379 -0.6081
  664TIP3    H1 1956   7.060   3.797   3.660  0.7472  0.5961 -0.9087
  664TIP3    H2 1957   7.183   3.828   3.742  1.6064 -0.5013 -1.7607
  665TIP3   OH2 1958   6.267   0.045   5.477 -0.0668  0.1400 -0.5173
  665TIP3    H1 1959   6.230   0.125   5.515 -1.3894 -0.2827 -0.8423
  665TIP3    H2 1960   6.274   0.065   5.383  0.2812  0.1190 -0.4959
  666TIP3   OH2 1961   4.256   5.582   2.637 -0.1179  0.2424 -0.4969
  666TIP3    H1 1962   4.294   5.552   2.554 -1.0490  0.1338 -0.8942
  666TIP3    H2 1963   4.244   5.676   2.625  0.2605  0.3239 -0.2687
  667TIP3   OH2 1964   0.463   0.254   1.538 -0.0233 -0.0953 -0.2727
  667TIP3    H1 1965   0.431   0.173   1.499  1.2551 -1.4146  1.2398
  667TIP3    H2 1966   0.466   0.236   1.632 -0.6492  2.0742  0.2284
  668TIP3   OH2 1967   4.309   3.384   5.678  0.1195  0.1642  0.5351
  668TIP3    H1 1968   4.271   3.470   5.694 -0.8865 -0.0891 -0.3219
  668TIP3    H2 1969   4.236   3.323   5.689  0.8289 -0.5935  1.1855
  669TIP3   OH2 1970   0.561   4.274   4.445 -0.3669 -0.3955 -0.2822
  669TIP3    H1 1971   0.621   4.336   4.485  0.0197 -0.8303 -0.1738
  669TIP3    H2 1972   0.600   4.254   4.359 -1.1471  0.4713 -0.8593
  670TIP3   OH2 1973   2.019   1.250   0.949 -0.1806 -0.5685  0.0188
  670TIP3    H1 1974   2.025   1.341   0.978  1.9879 -0.5727 -0.2743
  670TIP3    H2 1975   1.950   1.251   0.882 -3.0905  0.0236  2.7822
  671TIP3   OH2 1976   1.373   4.242   4.571 -0.0128 -0.1106 -0.5046
  671TIP3    H1 1977   1.354   4.332   4.544 -0.7206  0.2637  1.1528
  671TIP3    H2 1978   1.298   4.192   4.540 -0.4853  0.1977  0.1081
  672TIP3   OH2 1979   0.795   1.228   3.798  0.4692  0.0362 -0.1915
  672TIP3    H1 1980   0.766   1.230   3.707  0.5417 -2.5424 -0.3416
  672TIP3    H2 1981   0.887   1.255   3.794  0.4743 -0.0590 -0.8909
  673TIP3   OH2 1982   0.246   4.938   4.502  0.0236 -0.3326  0.3467
  673TIP3    H1 1983   0.339   4.937   4.477 -0.2606  0.4279 -0.7757
  673TIP3    H2 1984   0.248   4.952   4.597  1.0804 -1.6575  0.5583
  674TIP3   OH2 1985   2.648   0.857   3.150 -0.0216 -0.3857 -0.0476
  674TIP3    H1 1986   2.650   0.949   3.175 -1.4963 -0.0764 -0.9571
  674TIP3    H2 1987   2.579   0.819   3.205  1.7406 -1.3815  1.5857
  675TIP3   OH2 1988   4.449   1.581   5.471 -0.4110 -0.1912 -0.6858
  675TIP3    H1 1989   4.497   1.564   5.390 -0.4520  1.3652 -1.0598
  675TIP3    H2 1990   4.478   1.668   5.498 -0.3517 -0.7067  1.0176
  676TIP3   OH2 1991   2.683   4.199   5.637 -0.2469  0.0684 -0.1962
  676TIP3    H1 1992   2.589   4.216   5.629 -0.8998 -0.9283  3.6846
  676TIP3    H2 1993   2.691   4.104   5.645  0.7897  0.2575  1.6655
  677TIP3   OH2 1994   5.107   4.265   5.870  0.0848 -0.2668 -0.0926
  677TIP3    H1 1995   5.149   4.345   5.837  1.7945 -1.2069 -0.2883
  677TIP3    H2 1996   5.032   4.297   5.921  1.1935  1.5042  0.5289
  678TIP3   OH2 1997   0.329   3.801   2.659 -0.8371  0.2476 -0.0956
  678TIP3    H1 1998   0.347   3.782   2.751 -1.2876 -0.6032 -0.1831
  678TIP3    H2 1999   0.238   3.777   2.646 -1.0779  1.3168 -0.5246
  679TIP3   OH2 2000   6.340   1.027   0.030 -0.2280  0.0209  0.3170
  679TIP3    H1 2001   6.311   1.059   0.115  0.9979 -2.3835  1.7237
  679TIP3    H2 2002   6.383   1.103  -0.010 -0.0946  0.9804  2.1689
  680TIP3   OH2 2003   6.181   2.150   3.343 -0.3967 -0.1370 -0.3717
  680TIP3    H1 2004   6.173   2.175   3.435  0.2454 -0.5763 -0.1892
  680TIP3    H2 2005   6.112   2.199   3.298 -0.5148  0.3153  0.2975
  681TIP3   OH2 2006   2.068   5.054   0.485 -0.1281 -0.2951 -0.5613
  681TIP3    H1 2007   2.073   4.959   0.493  1.2523 -0.3015 -1.2749
  681TIP3    H2 2008   1.975   5.074   0.496 -0.7558 -1.9176 -2.4295
  682TIP3   OH2 2009   2.483   1.514   3.026  0.3057 -0.4040  0.3821
  682TIP3    H1 2010   2.538   1.437   3.011  1.4286  0.5038 -0.2634
  682TIP3    H2 2011   2.484   1.526   3.121 -0.2354 -1.4319  0.5282
  683TIP3   OH2 2012   4.163   5.447   1.691 -0.1079  0.6028 -0.0639
  683TIP3    H1 2013   4.107   5.371   1.703 -0.3210  0.8079  0.2566
  683TIP3    H2 2014   4.106   5.522   1.708  0.0166  0.8502 -0.6985
  684TIP3   OH2 2015   2.308   3.396   4.877  0.3408  0.1355 -0.3313
  684TIP3    H1 2016   2.324   3.393   4.783 -0.0793  0.3118 -0.4098
  684TIP3    H2 2017   2.394   3.410   4.916  0.4544  0.5055 -0.7159
  685TIP3   OH2 2018   1.477   4.700   5.809 -0.3409  0.1502 -0.2287
  685TIP3    H1 2019   1.464   4.788   5.846 -0.2954 -0.6893  1.9110
  685TIP3    H2 2020   1.393   4.656   5.823 -0.3222 -0.1969 -1.1831
  686TIP3   OH2 2021   2.409   3.771   0.610  0.8203  0.2794 -0.3215
  686TIP3    H1 2022   2.401   3.826   0.688 -1.2012  0.5055 -0.6439
  686TIP3    H2 2023   2.459   3.825   0.548 -1.2060  1.8902 -0.6691
  687TIP3   OH2 2024   5.898   3.038   1.154 -0.1797 -0.7395  0.3083
  687TIP3    H1 2025   5.889   3.007   1.064 -1.7836 -2.0599  0.8537
  687TIP3    H2 2026   5.820   3.091   1.169 -0.4225 -1.3143  1.1736
  688TIP3   OH2 2027   1.791   5.700   1.300  0.1234 -0.2847  0.1947
  688TIP3    H1 2028   1.869   5.654   1.330  2.0099  2.2237 -0.5376
  688TIP3    H2 2029   1.779   5.672   1.210  2.0825  1.5613 -0.6964
  689TIP3   OH2 2030   3.235   4.177   3.412 -0.4438  0.1819  0.0127
  689TIP3    H1 2031   3.210   4.250   3.356  0.1648  0.9854  0.7765
  689TIP3    H2 2032   3.326   4.194   3.434 -0.6965 -0.0905  1.3114
  690TIP3   OH2 2033   2.655   2.309   1.305  0.7337 -0.4092  0.1695
  690TIP3    H1 2034   2.647   2.274   1.394  1.3468 -0.7756  0.0947
  690TIP3    H2 2035   2.573   2.354   1.288  0.3438 -0.9182  0.6747
  691TIP3   OH2 2036   4.091   0.978   4.809 -0.5718  0.1606  0.0775
  691TIP3    H1 2037   4.039   0.898   4.819  1.0506 -0.8158  1.1620
  691TIP3    H2 2038   4.027   1.049   4.820 -1.6693 -0.9782  1.6210
  692TIP3   OH2 2039   3.776   2.523   1.215  0.0299 -0.1787  0.8202
  692TIP3    H1 2040   3.720   2.599   1.199 -0.0516 -0.3582  0.1899
  692TIP3    H2 2041   3.865   2.554   1.197 -0.0333 -0.3059  0.2747
  693TIP3   OH2 2042   2.886   3.071   2.482 -0.2685  0.1248  0.3973
  693TIP3    H1 2043   2.881   3.139   2.549 -0.0560 -0.8168  1.4021
  693TIP3    H2 2044   2.804   3.022   2.492 -0.1669 -0.1097  0.0827
  694TIP3   OH2 2045   3.151   6.263   0.720 -0.0730  0.6529 -0.2965
  694TIP3    H1 2046   3.202   6.342   0.737 -0.2019  0.7845 -0.5139
  694TIP3    H2 2047   3.067   6.296   0.688 -0.2480  0.4363 -0.0657
  695TIP3   OH2 2048   1.261   3.061   0.871  0.1175 -0.3508 -0.7936
  695TIP3    H1 2049   1.321   3.020   0.934  0.6664  1.8641  0.2265
  695TIP3    H2 2050   1.180   3.011   0.879  0.5663 -0.8715  0.8244
  696TIP3   OH2 2051   5.747   2.633   2.065 -0.6980 -0.5733 -0.2879
  696TIP3    H1 2052   5.692   2.557   2.083 -1.4872  0.0942  0.1540
  696TIP3    H2 2053   5.721   2.698   2.130  1.7646 -0.7979  1.0390
  697TIP3   OH2 2054   2.860   5.630   2.792  0.1151  0.2234  0.0969
  697TIP3    H1 2055   2.810   5.603   2.715  0.9874 -1.0688 -0.0521
  697TIP3    H2 2056   2.797   5.624   2.864  0.3161 -2.8007  0.1525
  698TIP3   OH2 2057   2.081   6.434   4.794 -0.5285 -0.1259  0.3914
  698TIP3    H1 2058   2.053   6.364   4.854 -1.4150 -0.3673 -0.2683
  698TIP3    H2 2059   2.125   6.388   4.723 -2.3086 -0.1862 -0.7260
  699TIP3   OH2 2060   2.465   0.437   3.278 -0.1651 -0.3111  0.4510
  699TIP3    H1 2061   2.410   0.488   3.219  0.6520 -1.0418 -0.9952
  699TIP3    H2 2062   2.523   0.501   3.320 -1.2417  0.3002  1.0341
  700TIP3   OH2 2063   0.792   2.061   1.742  0.3005 -0.2110 -0.0890
  700TIP3    H1 2064   0.866   2.121   1.729 -0.4848  0.9553  0.6652
  700TIP3    H2 2065   0.719   2.104   1.698  0.4855 -2.4320 -2.8800
  701TIP3   OH2 2066   4.104   4.036   0.583  0.3103  0.1525  0.0959
  701TIP3    H1 2067   4.056   3.991   0.514  0.2526 -0.8570  0.7797
  701TIP3    H2 2068   4.105   4.128   0.556 -0.9184 -0.0092 -0.5479
  702TIP3   OH2 2069   5.301   6.281   4.094  0.2644  0.3186 -0.1822
  702TIP3    H1 2070   5.278   6.368   4.062 -0.1352 -0.0504 -0.9274
  702TIP3    H2 2071   5.218   6.232   4.092  0.6460 -0.3300 -0.6144
  703TIP3   OH2 2072   1.716   2.020   0.078 -0.1039 -0.2476  0.6319
  703TIP3    H1 2073   1.777   1.961   0.121 -1.8739 -2.0504  0.8366
  703TIP3    H2 2074   1.630   1.991   0.108 -1.0559  3.1280  1.5650
  704TIP3   OH2 2075   4.356   2.363   2.632  0.4053  0.1549 -0.7103
  704TIP3    H1 2076   4.355   2.456   2.655  2.2779 -0.3537  1.8809
  704TIP3    H2 2077   4.270   2.331   2.660  0.3619  0.7735 -0.1003
  705TIP3   OH2 2078   0.434   1.746   0.083 -0.0405  0.3680 -0.0368
  705TIP3    H1 2079   0.515   1.796   0.074  0.7364 -0.7748  0.4687
  705TIP3    H2 2080   0.457   1.672   0.139 -1.4692  0.0950  0.2253
  706TIP3   OH2 2081   4.995   4.318   4.622 -0.8729  0.5373 -0.3978
  706TIP3    H1 2082   5.027   4.316   4.712  0.1325 -0.8379 -0.7382
  706TIP3    H2 2083   4.910   4.275   4.625 -0.2695 -0.6923 -0.2742
  707TIP3   OH2 2084   4.579   0.721   1.975 -0.2887 -0.3857  0.3697
  707TIP3    H1 2085   4.624   0.769   1.906 -1.2507  0.0556  0.0332
  707TIP3    H2 2086   4.640   0.652   2.000 -0.4116 -1.3620 -1.7972
  708TIP3   OH2 2087   6.432   0.648   1.837  0.5837 -0.0199  0.0243
  708TIP3    H1 2088   6.446   0.596   1.757  1.2260 -0.8586  0.6631
  708TIP3    H2 2089   6.497   0.614   1.899 -1.7192 -1.3635  1.8590
  709TIP3   OH2 2090   5.341   3.321   4.201 -0.0140  0.2897 -0.5517
  709TIP3    H1 2091   5.385   3.406   4.205 -0.0455  0.2512  1.0032
  709TIP3    H2 2092   5.251   3.342   4.175  0.0568  0.6933 -0.4797
  710TIP3   OH2 2093   3.119   0.227   5.703 -0.6452 -0.2178  0.1317
  710TIP3    H1 2094   3.079   0.275   5.776  0.9970  1.1682  0.1663
  710TIP3    H2 2095   3.200   0.192   5.740 -0.8356 -1.3375 -0.4706
  711TIP3   OH2 2096   5.611   2.849   0.703  0.3452  0.6052  0.1345
  711TIP3    H1 2097   5.667   2.905   0.648 -0.0642  0.5914 -0.3012
  711TIP3    H2 2098   5.536   2.905   0.725 -0.3278  0.0784 -0.7402
  712TIP3   OH2 2099   4.792   5.935   2.023 -0.3560 -0.2755  0.0974
  712TIP3    H1 2100   4.877   5.895   2.006 -0.5774 -0.6548 -0.1266
  712TIP3    H2 2101   4.804   5.981   2.106 -0.2374 -1.2291  0.6218
  713TIP3   OH2 2102   6.187   1.985   2.352  0.2044  0.1471  0.4794
  713TIP3    H1 2103   6.106   2.029   2.329 -0.7561 -2.3012 -1.2030
  713TIP3    H2 2104   6.255   2.035   2.306 -0.2820  2.1395  1.8012
  714TIP3   OH2 2105   4.382   5.215   5.815  0.7199  0.1510  0.7065
  714TIP3    H1 2106   4.432   5.138   5.790 -1.8318 -1.2734 -0.3834
  714TIP3    H2 2107   4.352   5.197   5.904 -0.3873 -0.4733  0.2348
  715TIP3   OH2 2108   5.322   1.075   0.225 -0.0447  0.1104  0.3504
  715TIP3    H1 2109   5.239   1.028   0.221  0.3369 -0.4801 -1.5420
  715TIP3    H2 2110   5.339   1.103   0.135  1.8968  0.0338  0.6445
  716TIP3   OH2 2111   6.586   4.177   3.723 -0.1443  0.2778 -0.4086
  716TIP3    H1 2112   6.541   4.213   3.800 -0.6820  0.0680 -0.6160
  716TIP3    H2 2113   6.640   4.106   3.758 -0.3330  0.2272 -0.2180
  717TIP3   OH2 2114   5.672   2.944   5.372 -0.3661  0.2803 -0.2093
  717TIP3    H1 2115   5.687   3.022   5.425  0.8281 -0.2222  0.2228
  717TIP3    H2 2116   5.753   2.893   5.380  0.1146  0.4267 -2.9518
  718TIP3   OH2 2117   2.635   4.295   0.647 -0.0724 -0.0913 -0.0294
  718TIP3    H1 2118   2.687   4.225   0.607  0.1165 -0.7509  1.3275
  718TIP3    H2 2119   2.667   4.375   0.604  1.1023 -0.6234 -0.1952
  719TIP3   OH2 2120   3.879   5.069   1.892 -0.6940  0.0147  0.1830
  719TIP3    H1 2121   3.842   5.108   1.972  1.2135  0.6705  0.8115
  719TIP3    H2 2122   3.804   5.054   1.835 -2.1466 -0.5842  2.1375
  720TIP3   OH2 2123   3.258   2.553   1.784 -0.1394 -0.5107  0.8723
  720TIP3    H1 2124   3.175   2.591   1.813 -1.4208 -0.5139 -2.4019
  720TIP3    H2 2125   3.317   2.628   1.777 -1.0230  0.0910 -0.3613
  721TIP3   OH2 2126   1.575   1.947   2.722 -0.5911  0.4023 -0.1995
  721TIP3    H1 2127   1.570   1.922   2.629  1.3998  1.3964 -0.6193
  721TIP3    H2 2128   1.572   2.042   2.721 -0.6117  0.4206  0.7757
  722TIP3   OH2 2129   3.046   2.820   5.507  0.5614 -0.1427  0.0827
  722TIP3    H1 2130   3.004   2.797   5.425 -2.4458  0.6498  1.2865
  722TIP3    H2 2131   3.024   2.749   5.567 -1.4998  1.5389  1.4609
  723TIP3   OH2 2132   5.576   2.617   2.558  0.1899 -0.3266 -0.1911
  723TIP3    H1 2133   5.649   2.650   2.506  0.1997  1.1794  0.7005
  723TIP3    H2 2134   5.582   2.665   2.641  0.2560 -2.7112  1.2884
  724TIP3   OH2 2135   2.228   3.579   2.377 -0.0453  0.3341 -0.1202
  724TIP3    H1 2136   2.257   3.670   2.368  0.0512  0.6168  2.2013
  724TIP3    H2 2137   2.209   3.570   2.471 -0.1200 -2.0215 -0.3044
  725TIP3   OH2 2138   3.412   6.636   1.540  0.5207  0.6192  0.1613
  725TIP3    H1 2139   3.328   6.609   1.579  0.3859  2.6320  1.4354
  725TIP3    H2 2140   3.388   6.670   1.454  0.3918 -0.9918 -0.4783
  726TIP3   OH2 2141   5.320   1.532   0.456 -0.8046  0.1334  0.5254
  726TIP3    H1 2142   5.334   1.443   0.491 -0.4886  0.0776  0.2639
  726TIP3    H2 2143   5.339   1.524   0.363  1.3731  0.9339  0.8395
  727TIP3   OH2 2144   0.894   3.776   0.238 -0.0524 -0.3069  0.2351
  727TIP3    H1 2145   0.872   3.727   0.158 -0.5264  0.9713 -0.4506
  727TIP3    H2 2146   0.981   3.746   0.261 -0.5693 -1.9543  0.2264
  728TIP3   OH2 2147   2.277   1.168   5.445 -0.4802 -0.0070  0.1038
  728TIP3    H1 2148   2.353   1.202   5.491 -0.0358 -0.8960  0.0432
  728TIP3    H2 2149   2.291   1.073   5.441 -0.4448  0.0378 -1.9419
  729TIP3   OH2 2150   3.004   1.469   0.059  0.1665 -0.0721 -0.2502
  729TIP3    H1 2151   3.069   1.402   0.081  0.0477 -0.5149 -1.2248
  729TIP3    H2 2152   3.018   1.487  -0.034  0.0016  1.0573 -0.0726
  730TIP3   OH2 2153   6.100   3.334   3.904  0.0558  0.6807 -0.2320
  730TIP3    H1 2154   6.044   3.276   3.955  1.3827 -1.7051 -1.3304
  730TIP3    H2 2155   6.173   3.279   3.877  1.3094  2.8497 -1.5133
  731TIP3   OH2 2156   0.138   0.640   5.657  0.2208 -0.6491  0.8350
  731TIP3    H1 2157   0.070   0.645   5.591  1.3770  0.2006 -0.3470
  731TIP3    H2 2158   0.219   0.628   5.608  1.1799  0.5071  2.0362
  732TIP3   OH2 2159   3.460   4.703   4.694 -0.1993  0.3397  0.1731
  732TIP3    H1 2160   3.373   4.715   4.655 -0.6801 -0.9569  0.7998
  732TIP3    H2 2161   3.466   4.609   4.711  1.2044  0.4573  0.4478
  733TIP3   OH2 2162   5.299   3.807   3.330  0.3905  0.6114 -0.0058
  733TIP3    H1 2163   5.256   3.850   3.404  1.5273  3.2737 -0.7645
  733TIP3    H2 2164   5.284   3.866   3.257 -0.3639 -1.7629 -1.8940
  734TIP3   OH2 2165   5.356   1.347   2.626  0.0335  0.1454  0.4247
  734TIP3    H1 2166   5.360   1.254   2.605 -0.6816 -0.1800  1.6090
  734TIP3    H2 2167   5.406   1.355   2.708 -1.6050  0.4143  1.4568
  735TIP3   OH2 2168   6.252   4.789   5.516 -0.4019 -0.3542  0.5329
  735TIP3    H1 2169   6.301   4.846   5.576 -0.8207 -1.9668  2.5261
  735TIP3    H2 2170   6.162   4.794   5.547 -0.9218 -0.0629 -0.9553
  736TIP3   OH2 2171   1.701   6.688   4.792 -0.0863  0.6438  0.2829
  736TIP3    H1 2172   1.767   6.755   4.813 -0.8628  1.3561  0.5328
  736TIP3    H2 2173   1.752   6.611   4.767  0.8362  1.6678 -1.1221
  737TIP3   OH2 2174   3.748   3.762   5.656  0.0278 -0.5500 -0.9151
  737TIP3    H1 2175   3.749   3.690   5.718  0.1706 -2.1576 -2.7036
  737TIP3    H2 2176   3.771   3.723   5.572  0.1064  1.5802 -1.9702
  738TIP3   OH2 2177   5.095   3.608   2.883 -0.3478  0.2789 -0.0242
  738TIP3    H1 2178   5.175   3.556   2.888  0.1773  1.1488  1.1699
  738TIP3    H2 2179   5.065   3.598   2.793  1.3334  0.2646 -0.6145
  739TIP3   OH2 2180   4.649   4.480   0.209 -0.0994  0.0553 -0.3853
  739TIP3    H1 2181   4.599   4.398   0.212 -0.0780  0.0668  0.6990
  739TIP3    H2 2182   4.715   4.470   0.278  0.5640  0.5703 -0.9337
  740TIP3   OH2 2183   0.923   5.167   0.706 -0.6366  0.0949 -0.5410
  740TIP3    H1 2184   0.853   5.110   0.675 -1.4295  0.9941 -0.4532
  740TIP3    H2 2185   0.883   5.254   0.709 -0.2600  0.2429  1.8818
  741TIP3   OH2 2186   3.663   6.661   1.656 -0.5420  0.0422  0.1448
  741TIP3    H1 2187   3.639   6.675   1.747 -2.7289  3.0384 -0.7260
  741TIP3    H2 2188   3.585   6.621   1.616  0.0848 -0.4747 -0.6063
  742TIP3   OH2 2189   4.778   0.607   3.707  0.0360 -0.0487 -0.2222
  742TIP3    H1 2190   4.714   0.561   3.762  0.8799 -1.1005 -0.0933
  742TIP3    H2 2191   4.855   0.618   3.763  1.1496 -1.6988 -1.3234
  743TIP3   OH2 2192   5.741   3.587   3.076 -0.1785  0.2290  0.3170
  743TIP3    H1 2193   5.743   3.496   3.106 -0.9458 -0.3684 -1.3388
  743TIP3    H2 2194   5.668   3.627   3.124  0.4835  0.1317  1.4289
  744TIP3   OH2 2195   2.223   0.506   4.766  0.3362  0.2165 -0.0889
  744TIP3    H1 2196   2.190   0.578   4.712 -0.0515  0.1847  0.1011
  744TIP3    H2 2197   2.144   0.461   4.796  0.5093  0.7104  1.1667
  745TIP3   OH2 2198   2.305   3.837   2.385 -0.1155 -0.2692  0.0873
  745TIP3    H1 2199   2.269   3.895   2.318  0.1354 -0.1067  0.0906
  745TIP3    H2 2200   2.376   3.888   2.425 -1.1320  0.1793  1.4121
  746TIP3   OH2 2201   5.176   5.725   2.708 -0.4537  0.5121  0.6468
  746TIP3    H1 2202   5.271   5.725   2.705 -0.3689  1.1309  2.5048
  746TIP3    H2 2203   5.150   5.656   2.647  1.1699  0.2740  0.1899
  747TIP3   OH2 2204   6.695   5.829   3.617  0.1577 -0.4294 -0.3179
  747TIP3    H1 2205   6.790   5.839   3.615  0.1374 -0.1161  0.0331
  747TIP3    H2 2206   6.666   5.896   3.679  0.0119 -2.9127  2.5438
  748TIP3   OH2 2207   1.200   0.154   4.716  0.3633  0.2311 -0.7153
  748TIP3    H1 2208   1.182   0.088   4.783  0.4539 -0.4171 -1.3187
  748TIP3    H2 2209   1.167   0.236   4.754 -1.4537 -0.4647 -0.6831
  749TIP3   OH2 2210   0.224   1.687   3.942 -0.2062 -0.2596  0.1079
  749TIP3    H1 2211   0.237   1.693   3.847 -0.2424 -0.2306  0.1051
  749TIP3    H2 2212   0.130   1.695   3.954 -0.2174 -0.4326  0.1332
  750TIP3   OH2 2213   5.555   0.972   0.363  0.3118  0.7797 -0.0320
  750TIP3    H1 2214   5.625   1.007   0.308  0.7895 -1.3605 -0.8923
  750TIP3    H2 2215   5.474   1.004   0.323  0.6979  0.2201 -1.2948
  751TIP3   OH2 2216   5.288   0.152   2.274 -0.4814  0.3011  0.0184
  751TIP3    H1 2217   5.317   0.062   2.259 -0.3140  0.4635 -0.6585
  751TIP3    H2 2218   5.263   0.154   2.367 -3.3953 -1.2896 -0.5888
  752TIP3   OH2 2219   1.564   6.175   3.757 -0.1123  0.1380  0.2713
  752TIP3    H1 2220   1.569   6.178   3.662 -1.8780  1.5835  0.1844
  752TIP3    H2 2221   1.584   6.264   3.785  0.6413 -0.3317  1.2876
  753TIP3   OH2 2222   4.861   4.884   1.939 -0.0961 -0.5767  1.0391
  753TIP3    H1 2223   4.852   4.811   2.000 -0.5520 -2.0781 -0.7452
  753TIP3    H2 2224   4.943   4.866   1.892  1.3411  1.6393  2.5092
  754TIP3   OH2 2225   1.940   5.100   1.366  0.2783  0.2758  0.1041
  754TIP3    H1 2226   1.928   5.005   1.366  0.7428  0.2081  1.0578
  754TIP3    H2 2227   1.892   5.130   1.289 -0.1017 -0.7037 -0.0542
  755TIP3   OH2 2228   4.877   4.960   4.195 -0.2751  0.4503 -0.1305
  755TIP3    H1 2229   4.910   4.882   4.240  1.0581  0.8406 -0.3645
  755TIP3    H2 2230   4.956   5.013   4.179 -0.6745  0.3538 -2.8792
  756TIP3   OH2 2231   0.580   6.447   5.740 -0.5115  0.3944  0.1195
  756TIP3    H1 2232   0.675   6.439   5.728 -0.5069 -0.9473  0.8385
  756TIP3    H2 2233   0.559   6.535   5.707  0.7039  0.0773 -1.6582
  757TIP3   OH2 2234   3.709   1.712   4.231 -0.0412 -0.1918 -0.0688
  757TIP3    H1 2235   3.779   1.691   4.170 -0.5743 -0.9706 -0.4324
  757TIP3    H2 2236   3.739   1.679   4.316  0.4973  0.4703  0.0025
  758TIP3   OH2 2237   3.176   1.657   5.125  0.3234 -0.0710  0.1468
  758TIP3    H1 2238   3.165   1.621   5.037  1.4160  0.8447 -0.3920
  758TIP3    H2 2239   3.247   1.720   5.116  0.1876  0.3216  1.6127
  759TIP3   OH2 2240   1.898   1.821   3.048 -0.1410  0.3621 -0.0608
  759TIP3    H1 2241   1.937   1.788   2.968 -0.7438 -2.1207  0.5616
  759TIP3    H2 2242   1.970   1.865   3.094  0.9151 -0.6151 -0.7245
  760TIP3   OH2 2243   6.999   2.689   2.694 -0.7382  0.3054 -0.1176
  760TIP3    H1 2244   7.048   2.687   2.776 -1.9005 -1.6661  0.5805
  760TIP3    H2 2245   6.993   2.782   2.672  2.5322  0.6872  0.1726
  761TIP3   OH2 2246   6.802   2.088   3.090  0.6662 -0.1811  0.3103
  761TIP3    H1 2247   6.856   2.019   3.127  2.3163  1.6167  1.4370
  761TIP3    H2 2248   6.865   2.153   3.057 -0.6984 -0.7881 -4.1210
  762TIP3   OH2 2249   6.721   2.673   1.509  0.2809  0.2404  0.0762
  762TIP3    H1 2250   6.656   2.739   1.487 -0.2569 -0.4975 -0.5841
  762TIP3    H2 2251   6.805   2.718   1.499 -0.0942  1.7417  2.6741
  763TIP3   OH2 2252   3.324   3.980   1.198 -0.1124  0.1067  0.2722
  763TIP3    H1 2253   3.414   3.949   1.203 -0.4434 -0.8261  0.5789
  763TIP3    H2 2254   3.315   4.010   1.107  0.3217 -0.3741  0.0634
  764TIP3   OH2 2255   5.914   0.110   1.982 -0.1191  0.0398 -0.5292
  764TIP3    H1 2256   5.847   0.160   2.028 -1.1067 -1.2333 -0.5237
  764TIP3    H2 2257   5.901   0.132   1.889  0.6190  1.1264 -0.3937
  765TIP3   OH2 2258   0.317   0.835   0.136 -0.0803  0.1245 -0.6821
  765TIP3    H1 2259   0.259   0.760   0.122 -1.4343  1.0382 -0.1786
  765TIP3    H2 2260   0.305   0.856   0.229  1.4708  0.0238 -0.4358
  766TIP3   OH2 2261   2.199   2.956   5.591  0.4784 -0.4089  0.8836
  766TIP3    H1 2262   2.197   3.012   5.668 -0.2681 -0.4588  0.9047
  766TIP3    H2 2263   2.108   2.932   5.576  0.3404  1.0785 -1.1031
  767TIP3   OH2 2264   0.326   4.872   4.062  0.8756 -0.0247  0.0058
  767TIP3    H1 2265   0.384   4.941   4.029 -1.9988  1.9312 -1.5325
  767TIP3    H2 2266   0.288   4.909   4.141 -0.0121 -0.1854 -0.3322
  768TIP3   OH2 2267   0.840   3.363   5.700  0.5466 -0.1050  0.1572
  768TIP3    H1 2268   0.891   3.429   5.747 -0.3067  0.8180 -0.1784
  768TIP3    H2 2269   0.814   3.406   5.618  1.9931 -1.6677 -1.2057
  769TIP3   OH2 2270   3.824   1.337   5.243 -0.3512  0.5012 -0.2557
  769TIP3    H1 2271   3.875   1.276   5.298  1.5242  0.9264 -1.4360
  769TIP3    H2 2272   3.801   1.408   5.302 -1.0355 -0.4826  0.7088
  770TIP3   OH2 2273   4.509   0.513   2.723 -0.1738  0.0269  0.2574
  770TIP3    H1 2274   4.546   0.587   2.770 -3.1179  0.7027  1.7527
  770TIP3    H2 2275   4.535   0.526   2.632  0.1260  2.4015  0.6349
  771TIP3   OH2 2276   4.676   0.272   4.114  0.1981 -0.5208 -0.2763
  771TIP3    H1 2277   4.639   0.193   4.152 -0.3854 -0.4399 -0.6609
  771TIP3    H2 2278   4.633   0.280   4.028  0.5653 -0.0239 -0.4200
  772TIP3   OH2 2279   6.721   6.304   1.570 -0.2587  0.0236  0.4588
  772TIP3    H1 2280   6.806   6.271   1.595 -0.2655  0.8399  1.6058
  772TIP3    H2 2281   6.668   6.226   1.553  0.8847 -0.4855 -0.9518
  773TIP3   OH2 2282   6.949   1.469   3.534  0.2632 -0.4515 -0.0525
  773TIP3    H1 2283   7.040   1.479   3.563  0.4794 -0.2098 -0.7887
  773TIP3    H2 2284   6.937   1.539   3.470  0.5776 -2.4438 -2.4187
  774TIP3   OH2 2285   0.980   0.410   3.799  0.0394  0.0681 -0.7695
  774TIP3    H1 2286   0.914   0.406   3.868  1.1014  2.7340  0.5219
  774TIP3    H2 2287   0.978   0.323   3.760 -1.6840 -1.0668  1.5790
  775TIP3   OH2 2288   1.519   1.842   5.187 -0.4061  0.2802  0.5094
  775TIP3    H1 2289   1.530   1.819   5.095  0.4400 -2.4629  1.1741
  775TIP3    H2 2290   1.603   1.881   5.212 -0.9775  1.9465 -0.0609
  776TIP3   OH2 2291   0.089   4.862   3.215 -0.4079  1.0322 -0.9605
  776TIP3    H1 2292   0.107   4.917   3.138  0.2708  2.7840  0.3957
  776TIP3    H2 2293   0.063   4.923   3.283 -0.9175 -0.4830  0.2509
  777TIP3   OH2 2294   5.813   4.143   2.438 -0.1734  0.0336 -0.0350
  777TIP3    H1 2295   5.816   4.079   2.508  0.6189 -0.3088 -0.3727
  777TIP3    H2 2296   5.719   4.162   2.426 -0.2764  1.9844  2.7992
  778TIP3   OH2 2297   4.746   6.461   2.391  0.0216  0.0011  0.1782
  778TIP3    H1 2298   4.806   6.390   2.417 -0.3794 -0.5006 -0.2486
  778TIP3    H2 2299   4.705   6.429   2.311 -2.5448 -0.6928  1.6634
  779TIP3   OH2 2300   3.643   2.836   5.774  0.2871 -0.0195 -0.4981
  779TIP3    H1 2301   3.592   2.913   5.799  0.2909  0.4197 -1.7400
  779TIP3    H2 2302   3.688   2.809   5.854 -0.2175  0.8862  0.1032
  780TIP3   OH2 2303   2.161   6.689   0.519  0.2565 -0.8774  0.0458
  780TIP3    H1 2304   2.132   6.615   0.571 -1.1785  0.0028  0.5773
  780TIP3    H2 2305   2.085   6.749   0.518  1.3116  0.5131 -0.4697
  781TIP3   OH2 2306   2.843   4.439   3.428  0.4174 -0.2859  0.2858
  781TIP3    H1 2307   2.841   4.437   3.523 -1.2050 -0.2435  0.2717
  781TIP3    H2 2308   2.836   4.348   3.401  1.9826 -0.4047  0.1870
  782TIP3   OH2 2309   1.193   5.438   5.112  0.2988  0.3377 -0.1639
  782TIP3    H1 2310   1.100   5.446   5.088  0.1312  0.1508  0.4103
  782TIP3    H2 2311   1.228   5.376   5.048 -0.0475  0.1581 -0.1848
  783TIP3   OH2 2312   0.292   5.338   3.155  0.2296  0.4118 -0.4529
  783TIP3    H1 2313   0.331   5.365   3.072 -0.2343  0.4473 -0.6617
  783TIP3    H2 2314   0.227   5.406   3.174  0.9287  0.8707  0.3758
  784TIP3   OH2 2315   3.591   6.634   5.090 -0.2099 -0.4327 -0.2276
  784TIP3    H1 2316   3.640   6.619   5.171  0.2947 -0.3346 -0.5123
  784TIP3    H2 2317   3.508   6.589   5.104 -0.3422  0.0279  0.5614
  785TIP3   OH2 2318   5.542   1.592   0.251 -0.0030  0.4040 -0.3415
  785TIP3    H1 2319   5.553   1.657   0.320  0.2212  0.6506 -0.6105
  785TIP3    H2 2320   5.613   1.529   0.266 -1.0089 -0.5368  0.7464
  786TIP3   OH2 2321   4.819   2.778   0.477  0.2837 -0.1553  0.2713
  786TIP3    H1 2322   4.901   2.827   0.469  1.8361 -2.3464  1.6869
  786TIP3    H2 2323   4.800   2.778   0.571 -0.3307 -1.2348  0.1692
  787TIP3   OH2 2324   4.811   4.151   5.286  0.3511 -0.4686  0.4138
  787TIP3    H1 2325   4.903   4.138   5.266  0.8927  0.5277  2.0166
  787TIP3    H2 2326   4.799   4.112   5.372 -0.9983 -1.4996 -0.2003
  788TIP3   OH2 2327   4.602   5.012   5.276  0.1077  0.2047 -0.4734
  788TIP3    H1 2328   4.550   5.029   5.197  0.6222 -0.8805 -1.0742
  788TIP3    H2 2329   4.677   4.962   5.244  1.0858  1.0030  0.4996
  789TIP3   OH2 2330   0.665   3.744   5.762  0.4062  0.0437  0.2846
  789TIP3    H1 2331   0.646   3.790   5.680 -1.5611 -0.4332  0.4409
  789TIP3    H2 2332   0.699   3.813   5.819  1.5902  0.4283 -0.8267
  790TIP3   OH2 2333   0.552   3.799   3.475 -0.0250 -0.9691 -0.8930
  790TIP3    H1 2334   0.588   3.857   3.542 -0.0419 -0.6038 -1.1934
  790TIP3    H2 2335   0.515   3.725   3.524 -1.2441 -0.0671 -0.3928
  791TIP3   OH2 2336   7.052   5.715   0.937  0.7109 -0.0832 -0.1642
  791TIP3    H1 2337   7.135   5.751   0.968  0.6799 -0.0813 -0.0848
  791TIP3    H2 2338   6.996   5.791   0.926  0.5040 -0.1474  0.4226
  792TIP3   OH2 2339   0.988   6.518   1.900  0.3179  0.0943 -0.5444
  792TIP3    H1 2340   1.036   6.442   1.867 -1.2279 -0.8133 -0.7854
  792TIP3    H2 2341   1.029   6.537   1.985 -0.4187 -2.1922  0.4160
  793TIP3   OH2 2342   6.319   5.666   2.664  0.0267  0.1036 -0.1372
  793TIP3    H1 2343   6.378   5.610   2.613  1.0573  2.3432 -1.5444
  793TIP3    H2 2344   6.378   5.726   2.711 -1.0431  0.1084  1.2785
  794TIP3   OH2 2345   2.343   0.213   5.692 -0.0866 -0.0359  0.0034
  794TIP3    H1 2346   2.295   0.231   5.773  0.0546  1.9668 -0.3037
  794TIP3    H2 2347   2.380   0.125   5.705 -1.5349 -0.4921  1.3562
  795TIP3   OH2 2348   3.139   1.398   2.318 -0.2305 -0.5249 -0.1612
  795TIP3    H1 2349   3.095   1.482   2.305  1.0581  0.6559  2.3791
  795TIP3    H2 2350   3.071   1.340   2.350 -0.6727  0.3078  0.4593
  796TIP3   OH2 2351   5.205  -0.034   0.255  0.2889  0.0893  0.1174
  796TIP3    H1 2352   5.273   0.030   0.279 -1.1452  1.2023  1.4305
  796TIP3    H2 2353   5.155   0.009   0.186 -0.2266  0.0774  0.4812
  797TIP3   OH2 2354   1.745   6.736   0.875  0.0479  0.0528  0.3470
  797TIP3    H1 2355   1.662   6.784   0.873 -0.2268 -0.3854 -1.4559
  797TIP3    H2 2356   1.752   6.704   0.964 -1.5625  0.3926  0.6401
  798TIP3   OH2 2357   2.227   6.329   5.214  0.2785  0.1190  0.2139
  798TIP3    H1 2358   2.273   6.268   5.157 -1.3115 -0.2672 -0.7039
  798TIP3    H2 2359   2.225   6.411   5.165  0.7389  0.3843  0.6297
  799TIP3   OH2 2360   1.006   4.371   2.073 -0.8507  0.0390 -0.2075
  799TIP3    H1 2361   1.094   4.373   2.112 -1.1185 -0.0246  0.4164
  799TIP3    H2 2362   1.021   4.376   1.979 -0.1792  0.0948 -0.1012
  800TIP3   OH2 2363   2.225   0.340   5.134 -0.7645 -0.0467  0.0129
  800TIP3    H1 2364   2.192   0.417   5.181 -3.0282 -0.0357 -1.4477
  800TIP3    H2 2365   2.238   0.370   5.044  0.3134 -0.8755 -0.1207
  801TIP3   OH2 2366   6.329   3.767   3.338 -0.2503  0.1844 -0.0628
  801TIP3    H1 2367   6.269   3.840   3.354 -0.0965 -0.1111  2.3535
  801TIP3    H2 2368   6.415   3.809   3.334 -0.2490  0.2513  0.4848
  802TIP3   OH2 2369   1.294   6.501   5.564  0.3858 -0.2414 -0.1595
  802TIP3    H1 2370   1.238   6.423   5.555  0.2392 -0.3272  1.2512
  802TIP3    H2 2371   1.326   6.517   5.476 -0.4741 -1.2405 -0.6872
  803TIP3   OH2 2372   6.471   2.326   3.110  0.2362 -0.0086 -0.9187
  803TIP3    H1 2373   6.394   2.364   3.066 -0.1704 -0.5645 -0.6961
  803TIP3    H2 2374   6.439   2.244   3.147  1.0805 -0.5334 -1.3177
  804TIP3   OH2 2375   2.051   3.454   4.962  0.5353 -0.0464 -0.3544
  804TIP3    H1 2376   2.093   3.510   5.028 -0.2932  0.3117 -0.1161
  804TIP3    H2 2377   2.124   3.409   4.919  1.0944 -0.3907  0.8902
  805TIP3   OH2 2378   6.480   1.584   1.167  0.4158 -0.3348 -0.2557
  805TIP3    H1 2379   6.425   1.578   1.089  1.2876  0.3835 -0.9590
  805TIP3    H2 2380   6.453   1.510   1.221 -2.4651  0.9437  0.2513
  806TIP3   OH2 2381   5.876   6.505   3.116 -0.0607  0.6787  0.1473
  806TIP3    H1 2382   5.886   6.446   3.190 -0.3075  2.6065  1.8092
  806TIP3    H2 2383   5.783   6.500   3.093 -0.0436  0.3143  0.1537
  807TIP3   OH2 2384   5.704   2.029   4.625 -0.3788 -0.2991 -0.6599
  807TIP3    H1 2385   5.678   2.003   4.713 -1.7532  0.9151 -0.6654
  807TIP3    H2 2386   5.753   2.110   4.638  2.0140 -1.6545 -0.8055
  808TIP3   OH2 2387   2.064   2.742   5.829  0.2209 -1.1427  0.2251
  808TIP3    H1 2388   2.047   2.697   5.746  1.9663 -2.2892  0.4283
  808TIP3    H2 2389   2.159   2.754   5.830  0.0510  0.4408  1.2873
  809TIP3   OH2 2390   4.078   2.501   3.123  0.9020 -0.0801 -0.0120
  809TIP3    H1 2391   4.020   2.559   3.073  0.5529 -0.7898 -0.4549
  809TIP3    H2 2392   4.029   2.480   3.202 -0.2244 -2.0443 -1.1554
  810TIP3   OH2 2393   5.053   5.812   5.648  0.2993  0.2401 -1.0389
  810TIP3    H1 2394   5.128   5.761   5.618  1.3571  1.6594 -0.9256
  810TIP3    H2 2395   4.977   5.768   5.610  1.3158 -0.2775 -2.5816
  811TIP3   OH2 2396   0.950   4.346   4.387 -0.0979 -0.3684 -1.0761
  811TIP3    H1 2397   1.043   4.369   4.392  0.0128 -1.0733  1.2951
  811TIP3    H2 2398   0.924   4.371   4.298  1.5703  2.7967 -0.8401
  812TIP3   OH2 2399   4.523   4.968   5.800 -0.1884 -0.6648  0.0652
  812TIP3    H1 2400   4.545   4.906   5.870 -2.2363 -0.3112  1.0835
  812TIP3    H2 2401   4.600   5.026   5.794  0.3152 -1.1563  1.5113
  813TIP3   OH2 2402   1.627   4.613   2.379 -0.2168 -0.0814 -0.0189
  813TIP3    H1 2403   1.663   4.683   2.432  1.4655 -0.5910 -0.4357
  813TIP3    H2 2404   1.651   4.635   2.289 -0.0630 -0.9594 -0.2011
  814TIP3   OH2 2405   2.660   5.540   5.358  0.4254  0.7434  0.2554
  814TIP3    H1 2406   2.709   5.459   5.349  1.0837  1.2633 -1.2722
  814TIP3    H2 2407   2.584   5.529   5.300 -0.3782  0.6170  1.2883
  815TIP3   OH2 2408   4.986   0.679   2.754  0.4338 -0.4402 -0.0465
  815TIP3    H1 2409   4.966   0.603   2.700 -0.5095 -0.6033  0.5054
  815TIP3    H2 2410   5.054   0.649   2.814 -0.0604 -0.9129  0.2885
  816TIP3   OH2 2411   4.872   5.592   5.122 -0.0709  0.0619  0.8861
  816TIP3    H1 2412   4.859   5.558   5.211 -1.1108  0.1671  0.7881
  816TIP3    H2 2413   4.853   5.517   5.065 -1.5563  0.5524  0.6946
  817TIP3   OH2 2414   2.121   4.731   0.683 -0.1015 -0.4633 -0.2075
  817TIP3    H1 2415   2.147   4.639   0.693 -1.8501 -0.9744 -0.0737
  817TIP3    H2 2416   2.112   4.763   0.773 -0.1958 -0.3718 -0.2495
  818TIP3   OH2 2417   1.994   1.018   5.438 -0.1461  0.1946  0.3459
  818TIP3    H1 2418   2.010   1.112   5.443 -1.1074  0.3258  1.4186
  818TIP3    H2 2419   2.073   0.979   5.476  0.1086  0.5716  0.2162
  819TIP3   OH2 2420   2.053   6.684   2.313  0.0652  0.0255  0.4217
  819TIP3    H1 2421   1.977   6.628   2.299  1.0812 -1.6843  1.3787
  819TIP3    H2 2422   2.029   6.768   2.274 -2.3291 -0.4377  0.7700
  820TIP3   OH2 2423   2.006   5.315   1.527  0.7302  0.4399  0.6628
  820TIP3    H1 2424   2.000   5.236   1.474  0.7427  1.1631 -0.4570
  820TIP3    H2 2425   2.099   5.321   1.551  0.4419 -0.7706  2.1914
  821TIP3   OH2 2426   2.191   0.830   2.063  0.2447  0.7992 -0.3897
  821TIP3    H1 2427   2.256   0.775   2.018 -1.1925 -0.4244 -1.0459
  821TIP3    H2 2428   2.148   0.879   1.993 -0.8001  0.1988 -0.1849
  822TIP3   OH2 2429   4.090   5.869   2.051 -0.9415 -0.3404 -0.0858
  822TIP3    H1 2430   4.086   5.904   2.140  0.3099 -0.5002  0.0463
  822TIP3    H2 2431   4.053   5.939   1.996 -1.7089 -0.2387  0.5401
  823TIP3   OH2 2432   0.147   3.109   4.172  0.8316 -0.1119 -0.3508
  823TIP3    H1 2433   0.110   3.153   4.096 -0.3769 -0.4375  0.0261
  823TIP3    H2 2434   0.228   3.071   4.141  1.7436  2.0332 -0.7880
  824TIP3   OH2 2435   2.895   2.714   3.049  0.0495  0.0674  0.0536
  824TIP3    H1 2436   2.910   2.778   2.980  0.4667 -1.3771 -1.2477
  824TIP3    H2 2437   2.939   2.750   3.126  0.1891  1.3654 -0.6069
  825TIP3   OH2 2438   5.551   2.665   3.587 -0.2154 -0.4753 -0.0524
  825TIP3    H1 2439   5.600   2.607   3.529  0.5907  0.3870 -0.2649
  825TIP3    H2 2440   5.482   2.610   3.624  1.0712 -1.7964  0.4660
  826TIP3   OH2 2441   2.254   1.089   5.827 -0.7105 -0.4386  0.1315
  826TIP3    H1 2442   2.292   1.072   5.913 -0.8561  0.0232  0.2885
  826TIP3    H2 2443   2.282   1.014   5.774  0.8749  0.1369  0.0895
  827TIP3   OH2 2444   2.651   3.901   1.050  0.1003 -0.1154 -0.6822
  827TIP3    H1 2445   2.620   3.812   1.037  1.9645 -1.0278  0.6080
  827TIP3    H2 2446   2.688   3.927   0.966 -2.0938  0.1916 -1.6072
  828TIP3   OH2 2447   5.087   3.346   0.368  0.3179 -0.0258  0.1826
  828TIP3    H1 2448   5.106   3.269   0.315  0.9184  0.0559  0.2699
  828TIP3    H2 2449   5.105   3.421   0.310 -0.1006  0.0503  0.1499
  829TIP3   OH2 2450   3.474   1.209   2.539  0.5549  0.2494  0.2341
  829TIP3    H1 2451   3.459   1.272   2.469 -0.7041  0.7155  0.9022
  829TIP3    H2 2452   3.493   1.127   2.493 -0.5098  0.4808 -0.6574
  830TIP3   OH2 2453   0.344   1.326   0.862  0.2120  0.4341  0.2227
  830TIP3    H1 2454   0.329   1.360   0.950 -0.5882  1.4758 -0.2963
  830TIP3    H2 2455   0.383   1.399   0.815 -0.3646  0.2271 -0.5834
  831TIP3   OH2 2456   1.788   4.359   2.729  0.3119 -0.1339  0.0734
  831TIP3    H1 2457   1.754   4.447   2.744 -0.0362  0.1840 -2.1483
  831TIP3    H2 2458   1.717   4.313   2.685  0.4329 -1.6066  1.3615
  832TIP3   OH2 2459   2.484   4.132   1.811  0.0668 -0.7997 -0.3035
  832TIP3    H1 2460   2.460   4.156   1.900 -0.5252 -1.0424 -0.3876
  832TIP3    H2 2461   2.400   4.111   1.769  0.2333  0.2790 -1.2043
  833TIP3   OH2 2462   4.555   6.596   0.561 -0.0995 -0.0846 -0.2457
  833TIP3    H1 2463   4.593   6.510   0.547 -0.5722 -0.4061  0.3974
  833TIP3    H2 2464   4.538   6.630   0.473  1.9588  0.2082 -0.5681
  834TIP3   OH2 2465   6.304   0.900   1.827  0.2997  0.1860 -0.2919
  834TIP3    H1 2466   6.325   0.808   1.810 -0.3982  0.1022 -0.7277
  834TIP3    H2 2467   6.389   0.941   1.844  0.6468 -0.4750 -0.3961
  835TIP3   OH2 2468   1.041   0.277   1.246  0.7776  0.2061  0.1043
  835TIP3    H1 2469   1.037   0.326   1.164  1.9038  1.6869  0.8934
  835TIP3    H2 2470   1.012   0.339   1.313 -2.5332 -1.6772  0.6433
  836TIP3   OH2 2471   5.556   1.991   2.013 -0.1681 -0.5770  0.1668
  836TIP3    H1 2472   5.634   2.000   1.958 -0.3862 -1.5823 -0.3350
  836TIP3    H2 2473   5.498   1.933   1.963 -1.4873  0.6000  0.2823
  837TIP3   OH2 2474   5.650   5.250   1.162 -0.3730  0.0815  0.0537
  837TIP3    H1 2475   5.559   5.246   1.192 -0.6482  1.2922 -0.5470
  837TIP3    H2 2476   5.653   5.327   1.104  0.4305 -1.4071 -1.9792
  838TIP3   OH2 2477   1.050   6.305   3.028  0.6405 -0.1889 -0.3074
  838TIP3    H1 2478   1.085   6.217   3.015 -0.7942 -0.6435 -1.3712
  838TIP3    H2 2479   0.999   6.299   3.109 -1.8942 -1.2293 -1.8463
  839TIP3   OH2 2480   6.451   3.817   3.595  0.2015  0.1840  0.1817
  839TIP3    H1 2481   6.389   3.744   3.602 -0.3746  0.5310 -1.0030
  839TIP3    H2 2482   6.537   3.776   3.602 -0.1348 -0.5220  0.2568
  840TIP3   OH2 2483   2.286   4.389   1.090  0.2389 -0.3191  0.0136
  840TIP3    H1 2484   2.282   4.484   1.088  1.1825 -0.2836 -0.7905
  840TIP3    H2 2485   2.376   4.369   1.115  0.2470 -0.9982 -0.5326
  841TIP3   OH2 2486   2.783   2.630   2.432 -0.2886  0.2840 -0.3895
  841TIP3    H1 2487   2.723   2.555   2.426 -0.4692  0.4234 -0.3435
  841TIP3    H2 2488   2.869   2.593   2.413 -0.3100 -0.0252  0.1009
  842TIP3   OH2 2489   2.606   6.448  -0.024 -0.1123  0.1180 -0.0428
  842TIP3    H1 2490   2.568   6.369   0.015 -1.1736  0.4300 -0.4037
  842TIP3    H2 2491   2.593   6.516   0.042  0.1194  0.1563 -0.0364
  843TIP3   OH2 2492   2.584   4.124   3.927 -0.0210  0.2408  0.2131
  843TIP3    H1 2493   2.609   4.042   3.970  1.5632  0.7588  0.3466
  843TIP3    H2 2494   2.566   4.185   3.999  3.3195  1.3172  0.3087
  844TIP3   OH2 2495   1.875   1.141   0.232 -0.5849 -0.2373  0.6199
  844TIP3    H1 2496   1.779   1.140   0.231 -0.6676  1.8234  1.4962
  844TIP3    H2 2497   1.899   1.055   0.266 -2.0289 -1.4396 -1.1999
  845TIP3   OH2 2498   0.918   0.454   4.721  0.0862  0.4519  0.4277
  845TIP3    H1 2499   0.874   0.511   4.783 -1.8106  2.3414 -2.4469
  845TIP3    H2 2500   0.895   0.488   4.635  2.4991 -2.0411 -1.4079
  846TIP3   OH2 2501   2.427   6.102   4.442  0.2023 -0.1814 -0.2313
  846TIP3    H1 2502   2.400   6.018   4.479  2.2637 -0.8815 -0.2143
  846TIP3    H2 2503   2.410   6.166   4.511  1.2923 -1.0316  0.8606
  847TIP3   OH2 2504   1.906   3.519   4.546 -0.3478 -0.0644 -0.3443
  847TIP3    H1 2505   1.922   3.428   4.519 -1.4916 -0.8749  1.5083
  847TIP3    H2 2506   1.817   3.537   4.516 -0.0444  0.5459 -0.8998
  848TIP3   OH2 2507   4.480   1.990   5.077 -0.1507 -0.2880  0.0417
  848TIP3    H1 2508   4.495   1.896   5.085  0.2457 -0.2492 -0.2171
  848TIP3    H2 2509   4.388   2.002   5.101 -0.2295 -0.7548 -0.0215
  849TIP3   OH2 2510   6.459   6.551   2.726  0.5798 -0.2760 -0.6319
  849TIP3    H1 2511   6.554   6.535   2.727  0.7140  0.5456 -0.1800
  849TIP3    H2 2512   6.449   6.644   2.746 -0.2944 -0.1937 -1.3700
  850TIP3   OH2 2513   2.356   3.024   5.252 -0.5282  0.3614  0.1169
  850TIP3    H1 2514   2.327   3.068   5.173  1.0094  0.6921 -0.3035
  850TIP3    H2 2515   2.348   3.090   5.321 -1.1874  0.2924  0.1167
  851TIP3   OH2 2516   4.333   2.521   3.004  0.2723  0.5323 -0.3202
  851TIP3    H1 2517   4.391   2.589   3.038 -0.5521  1.5343 -0.8463
  851TIP3    H2 2518   4.252   2.532   3.055  0.3836 -0.5573  0.1096
  852TIP3   OH2 2519   4.845   3.187   2.499 -0.0387 -0.8436  0.1741
  852TIP3    H1 2520   4.881   3.104   2.466 -1.4510 -1.3641 -0.0965
  852TIP3    H2 2521   4.776   3.161   2.559 -0.3478  0.1518  0.2623
  853TIP3   OH2 2522   3.478   0.850   5.019  0.7323 -0.2325 -0.0211
  853TIP3    H1 2523   3.446   0.933   5.055 -0.0900 -0.3205 -0.5149
  853TIP3    H2 2524   3.463   0.787   5.089 -0.3540 -0.3016 -0.2920
  854TIP3   OH2 2525   5.839   2.265   4.604  0.0452  0.4739 -0.0211
  854TIP3    H1 2526   5.798   2.351   4.601 -1.2527 -0.0414  1.6886
  854TIP3    H2 2527   5.930   2.281   4.576  0.2176  2.6375  1.5336
  855TIP3   OH2 2528   1.533   0.757   3.596  0.1836 -0.2823  1.0561
  855TIP3    H1 2529   1.612   0.792   3.637  0.8377 -0.7232  0.2120
  855TIP3    H2 2530   1.550   0.663   3.587 -0.8393 -0.5458  1.7387
  856TIP3   OH2 2531   6.006   6.723   1.462  0.0774 -0.1641  0.7378
  856TIP3    H1 2532   6.055   6.800   1.491  0.2539 -0.0609  0.1864
  856TIP3    H2 2533   5.917   6.756   1.448 -0.3120 -0.4810  2.3098
  857TIP3   OH2 2534   5.748   4.784   0.855  0.4392  0.5282 -0.0150
  857TIP3    H1 2535   5.730   4.696   0.888  0.0354 -0.1375 -1.9096
  857TIP3    H2 2536   5.661   4.820   0.835  0.6589  1.0047 -0.1184
  858TIP3   OH2 2537   0.577   1.204   0.907 -0.1253  0.0257  0.2162
  858TIP3    H1 2538   0.487   1.199   0.876  0.5840 -1.2792 -1.8113
  858TIP3    H2 2539   0.605   1.293   0.887 -0.8807  0.3799  0.6937
  859TIP3   OH2 2540   2.510   5.124   2.069 -0.1935  0.1494  0.0680
  859TIP3    H1 2541   2.519   5.218   2.053 -1.9572  0.4121  0.3537
  859TIP3    H2 2542   2.476   5.118   2.159  0.3173 -0.7927  0.2152
  860TIP3   OH2 2543   0.381   3.294   0.562 -0.3623 -0.3867 -0.4069
  860TIP3    H1 2544   0.475   3.281   0.563 -0.3066 -0.4157 -2.6167
  860TIP3    H2 2545   0.345   3.208   0.543 -0.8453 -0.3293  0.1942
  861TIP3   OH2 2546   1.578   1.243   3.389  0.0676  0.2142 -0.1506
  861TIP3    H1 2547   1.518   1.202   3.327 -0.2478 -1.2784  1.0811
  861TIP3    H2 2548   1.524   1.264   3.465  0.3808  2.3200 -0.4570
  862TIP3   OH2 2549   1.883   4.427   4.769 -0.6703 -0.0098  0.1092
  862TIP3    H1 2550   1.945   4.400   4.702 -0.9587 -2.2966  0.6720
  862TIP3    H2 2551   1.936   4.433   4.849 -0.9999 -1.3150  0.4544
  863TIP3   OH2 2552   5.394   4.526   1.032  0.2321 -0.0231  0.1684
  863TIP3    H1 2553   5.392   4.505   1.125  0.0085  0.4212  0.2659
  863TIP3    H2 2554   5.487   4.532   1.010  0.3140  2.0487  0.8625
  864TIP3   OH2 2555   2.327   5.206   5.360 -0.4433  1.1327  0.6387
  864TIP3    H1 2556   2.385   5.131   5.374  0.1909  0.7173 -3.1471
  864TIP3    H2 2557   2.273   5.210   5.439  1.7608 -1.1780  2.4218
  865TIP3   OH2 2558   3.148   5.769   3.602 -0.0106  0.1526 -0.2249
  865TIP3    H1 2559   3.083   5.793   3.667 -0.3516  0.1375 -0.5585
  865TIP3    H2 2560   3.098   5.734   3.529  0.2769  1.2124 -0.9644
  866TIP3   OH2 2561   4.283   3.262   1.524  0.0174 -0.6938  0.5621
  866TIP3    H1 2562   4.225   3.333   1.552  2.2862  1.8188 -0.6451
  866TIP3    H2 2563   4.263   3.249   1.432 -0.1312 -1.4040  0.6857
  867TIP3   OH2 2564   1.087   1.077   2.589  0.4095  0.7488 -0.4227
  867TIP3    H1 2565   1.126   1.122   2.665 -0.0224 -0.6412  0.6532
  867TIP3    H2 2566   0.999   1.054   2.617  0.7404 -1.0973 -0.7884
  868TIP3   OH2 2567   5.999   2.235   0.208 -0.3787 -0.0724  0.1729
  868TIP3    H1 2568   5.910   2.207   0.229 -1.9812  2.1067 -2.8429
  868TIP3    H2 2569   6.009   2.215   0.115  2.3237 -0.2182  0.4205
  869TIP3   OH2 2570   3.729   5.676   1.237  0.0189 -0.1267  0.4399
  869TIP3    H1 2571   3.636   5.690   1.258 -0.2515 -0.9698 -0.1302
  869TIP3    H2 2572   3.740   5.581   1.243  0.6242 -0.1182 -0.3915
  870TIP3   OH2 2573  -0.010   4.032   4.959  0.2470 -0.0182  0.0177
  870TIP3    H1 2574   0.081   4.019   4.933  0.2486  0.6746 -0.3458
  870TIP3    H2 2575  -0.008   4.033   5.054  0.2979 -2.1927  0.0999
  871TIP3   OH2 2576   3.665   1.890   4.966 -0.5831  0.2324  0.4138
  871TIP3    H1 2577   3.733   1.853   5.023 -1.5796 -0.4108  1.2067
  871TIP3    H2 2578   3.707   1.895   4.880  0.4499 -0.1981  0.8689
  872TIP3   OH2 2579   2.647   4.568   1.301 -0.4862 -0.1997  0.0434
  872TIP3    H1 2580   2.715   4.565   1.369  0.0441  1.6383 -0.3574
  872TIP3    H2 2581   2.691   4.604   1.224 -1.5028 -0.6457 -0.7747
  873TIP3   OH2 2582   1.527   1.619   0.582 -0.1026 -0.6083 -0.0463
  873TIP3    H1 2583   1.582   1.564   0.527  0.6111 -1.3736  1.3907
  873TIP3    H2 2584   1.437   1.590   0.563  0.2840 -2.8363  1.2185
  874TIP3   OH2 2585   0.036   6.532   0.704 -0.3377  0.2607  0.2310
  874TIP3    H1 2586  -0.027   6.593   0.666 -0.4200  0.5997  0.8969
  874TIP3    H2 2587   0.038   6.554   0.798 -0.4038 -0.7899  0.4888
  875TIP3   OH2 2588   6.979   5.619   5.681 -0.0997  0.1410 -0.0242
  875TIP3    H1 2589   7.056   5.610   5.625 -0.1479 -0.0483 -0.0632
  875TIP3    H2 2590   6.958   5.712   5.679  0.1558  0.1998  0.0255
  876TIP3   OH2 2591   2.116   0.243   2.895 -0.4407 -0.4658 -0.1123
  876TIP3    H1 2592   2.183   0.311   2.889  0.8398 -1.7064 -0.1694
  876TIP3    H2 2593   2.052   0.267   2.827 -0.7923  1.4653  0.8233
  877TIP3   OH2 2594   2.233   6.759   5.867  0.8634 -0.8849  0.3130
  877TIP3    H1 2595   2.207   6.679   5.820  1.1967 -0.4681 -0.6047
  877TIP3    H2 2596   2.199   6.830   5.813  4.2530 -0.2631 -1.2777
  878TIP3   OH2 2597   7.063   0.223   0.124 -0.4745  0.3776 -0.5233
  878TIP3    H1 2598   6.976   0.238   0.161 -0.6043 -0.9777 -0.2202
  878TIP3    H2 2599   7.123   0.233   0.198 -0.1037  3.3091 -1.1042
  879TIP3   OH2 2600   0.811   0.785   5.169  0.2912  0.0144 -0.1300
  879TIP3    H1 2601   0.827   0.878   5.151  0.8413  0.0442  0.5130
  879TIP3    H2 2602   0.865   0.765   5.245 -1.1379 -0.4023  0.8296
  880TIP3   OH2 2603   5.426   3.010   0.526 -0.2012 -0.3325  0.1086
  880TIP3    H1 2604   5.407   3.096   0.564  0.2705 -0.0017 -0.3917
  880TIP3    H2 2605   5.514   3.019   0.490 -0.6861 -0.5875 -1.1899
  881TIP3   OH2 2606   2.554   2.210   4.118 -0.4163  0.4421  0.1821
  881TIP3    H1 2607   2.573   2.232   4.209  0.2042 -0.0290  0.1755
  881TIP3    H2 2608   2.458   2.205   4.114 -0.4239 -0.3508  1.0143
  882TIP3   OH2 2609   0.419   4.916   3.778  0.5989 -0.6417  0.3703
  882TIP3    H1 2610   0.432   4.825   3.804  1.0183 -0.6303  0.2134
  882TIP3    H2 2611   0.388   4.911   3.687  1.7104 -0.6003 -0.0292
  883TIP3   OH2 2612   2.024   0.148   5.143 -0.3524  0.4709 -0.3383
  883TIP3    H1 2613   2.092   0.213   5.126  0.5829 -0.1022  0.9774
  883TIP3    H2 2614   2.046   0.114   5.230 -0.0629 -2.4626 -1.4501
  884TIP3   OH2 2615   6.627   1.803   1.188  0.0192  0.3727 -0.1666
  884TIP3    H1 2616   6.584   1.729   1.147  0.3989  0.1555 -0.1733
  884TIP3    H2 2617   6.557   1.851   1.233 -0.5184  1.0056 -1.6423
  885TIP3   OH2 2618   2.938   1.181   0.474  0.2340  0.0687  0.3547
  885TIP3    H1 2619   3.014   1.238   0.463  0.2895 -0.0547  0.1021
  885TIP3    H2 2620   2.951   1.140   0.560 -0.0357  0.7767  0.7384
  886TIP3   OH2 2621   0.550   6.475   4.465 -0.1063  0.3034  0.3458
  886TIP3    H1 2622   0.600   6.555   4.449 -2.2842  1.4024 -1.7369
  886TIP3    H2 2623   0.459   6.505   4.472 -0.8964 -1.9058  0.2788
  887TIP3   OH2 2624   1.497   2.465   3.234  0.5923  0.1503 -0.6039
  887TIP3    H1 2625   1.484   2.534   3.300 -0.8432 -1.4413  0.8807
  887TIP3    H2 2626   1.565   2.410   3.271  0.6041 -0.1214 -1.0283
  888TIP3   OH2 2627   3.626   3.123   5.258 -0.0512  0.1037 -0.1068
  888TIP3    H1 2628   3.590   3.135   5.346 -1.5149 -1.1039 -0.4929
  888TIP3    H2 2629   3.659   3.210   5.233  0.3692  0.4707  1.5970
  889TIP3   OH2 2630   5.034   4.975   1.273 -0.4435 -0.1307  0.5209
  889TIP3    H1 2631   5.001   4.890   1.247  0.3219 -0.4733  0.6367
  889TIP3    H2 2632   5.123   4.979   1.237 -0.2838  0.4054  0.9481
  890TIP3   OH2 2633   0.227   5.294   2.431 -0.1442 -0.3921  0.0806
  890TIP3    H1 2634   0.283   5.242   2.489  0.0741 -1.1170 -0.7565
  890TIP3    H2 2635   0.143   5.248   2.432 -0.8957  0.9331  1.6726
  891TIP3   OH2 2636   5.648   5.330   4.906  0.3921  0.3657  0.6007
  891TIP3    H1 2637   5.643   5.419   4.871 -1.0679 -0.3124 -1.0629
  891TIP3    H2 2638   5.583   5.329   4.976 -0.3371  0.3397 -0.0640
  892TIP3   OH2 2639   2.177   3.006   0.814 -0.6665 -0.0580 -0.2546
  892TIP3    H1 2640   2.154   3.012   0.907 -2.3978 -0.2646 -0.6293
  892TIP3    H2 2641   2.217   2.920   0.805  1.4479  0.7797  0.6487
  893TIP3   OH2 2642   0.322   0.736   4.616  0.0729 -0.3189 -0.0753
  893TIP3    H1 2643   0.229   0.735   4.594 -0.5875 -1.6880  2.4252
  893TIP3    H2 2644   0.367   0.716   4.533 -1.9256 -1.0093 -1.0404
  894TIP3   OH2 2645   0.736   3.962   5.337 -0.1242  0.2003 -0.3233
  894TIP3    H1 2646   0.789   3.957   5.417  1.4944 -0.4474 -1.3637
  894TIP3    H2 2647   0.697   4.049   5.339 -0.4296  0.0600  1.3417
  895TIP3   OH2 2648   4.341   4.083   3.226  0.1000 -0.1445 -0.0927
  895TIP3    H1 2649   4.394   4.043   3.157  0.0855  0.5543 -0.5160
  895TIP3    H2 2650   4.404   4.115   3.290  0.1738  0.3324 -0.4017
  896TIP3   OH2 2651   4.581   2.777   5.330  0.3132 -0.4535 -0.3184
  896TIP3    H1 2652   4.636   2.737   5.397  1.2093  0.2297 -0.6237
  896TIP3    H2 2653   4.560   2.864   5.364 -2.3798 -1.4141  0.7596
  897TIP3   OH2 2654   1.982   1.680   3.973 -0.3342 -0.2671  0.3316
  897TIP3    H1 2655   1.896   1.708   4.005 -1.5383 -1.1628 -1.9023
  897TIP3    H2 2656   2.011   1.616   4.038 -0.9332  0.6630  1.5699
  898TIP3   OH2 2657   2.263   6.264   3.536  0.1244  1.2005  0.5491
  898TIP3    H1 2658   2.307   6.180   3.522  1.4615  1.8994  0.3725
  898TIP3    H2 2659   2.187   6.261   3.478  0.1449  0.1133  0.5592
  899TIP3   OH2 2660   2.994   6.724   1.784  0.1582 -0.3783  0.1237
  899TIP3    H1 2661   3.043   6.643   1.766 -0.6299 -0.7225 -0.6092
  899TIP3    H2 2662   3.052   6.777   1.838  0.9216 -1.1974  0.1263
  900TIP3   OH2 2663   4.399   1.307   2.098 -0.1304  0.6287 -0.0424
  900TIP3    H1 2664   4.410   1.230   2.043 -0.1371  1.5033 -1.3074
  900TIP3    H2 2665   4.304   1.314   2.111 -0.0816  0.0086  0.7105
  901TIP3   OH2 2666   5.730   2.659   4.693  0.9017  0.3789  0.1661
  901TIP3    H1 2667   5.741   2.712   4.614  0.4522  0.1003 -0.0848
  901TIP3    H2 2668   5.636   2.651   4.704  0.9589 -0.7865 -0.0838
  902TIP3   OH2 2669   4.690   2.767   4.908 -0.9374 -0.0460  0.1273
  902TIP3    H1 2670   4.652   2.746   4.823 -2.6889 -0.0392  0.8451
  902TIP3    H2 2671   4.614   2.776   4.966  0.1834  0.3016  1.6125
  903TIP3   OH2 2672   5.304   5.171   2.781  0.0270 -0.3625 -0.3018
  903TIP3    H1 2673   5.235   5.165   2.847 -0.7859 -0.5035 -1.1529
  903TIP3    H2 2674   5.285   5.100   2.719 -0.0199  0.6149 -1.4316
  904TIP3   OH2 2675   6.136   2.577   1.567  0.1607 -0.0034 -0.5544
  904TIP3    H1 2676   6.181   2.567   1.483 -0.1883 -1.2483 -0.6066
  904TIP3    H2 2677   6.120   2.488   1.597 -2.7251  0.3183 -0.7859
  905TIP3   OH2 2678   4.595   1.758   5.281 -0.1090 -0.1272  0.4769
  905TIP3    H1 2679   4.601   1.708   5.199 -2.8198  1.8890 -1.1606
  905TIP3    H2 2680   4.653   1.833   5.267 -1.7999  1.0913 -0.4318
  906TIP3   OH2 2681   4.091   1.568   4.714  0.4092 -0.2498  0.8531
  906TIP3    H1 2682   4.094   1.604   4.803  0.7563  1.4223  0.1913
  906TIP3    H2 2683   4.178   1.533   4.699  0.5010 -0.0798  0.9922
  907TIP3   OH2 2684   3.859   6.169   0.099  0.2357  0.2355 -0.0753
  907TIP3    H1 2685   3.767   6.193   0.086 -0.6778 -2.2518  1.2385
  907TIP3    H2 2686   3.860   6.074   0.098  2.3747  0.1119  2.5639
  908TIP3   OH2 2687   1.664   1.015   4.946 -0.4522  0.5655  0.4601
  908TIP3    H1 2688   1.597   0.954   4.915  1.0428 -1.2501  0.6227
  908TIP3    H2 2689   1.666   1.002   5.041  3.0343 -2.8214  0.1834
  909TIP3   OH2 2690   3.418   5.321   1.652  0.1075 -0.3927 -0.1184
  909TIP3    H1 2691   3.446   5.350   1.739  0.0033 -0.2504 -0.1315
  909TIP3    H2 2692   3.341   5.267   1.669 -0.1290 -0.0637 -0.1521
  910TIP3   OH2 2693   3.729   6.686   2.992  0.2406 -0.4718 -0.8817
  910TIP3    H1 2694   3.756   6.676   2.901  0.7383  0.4759 -0.8475
  910TIP3    H2 2695   3.808   6.715   3.038 -0.6803  2.1643 -0.7489
  911TIP3   OH2 2696   5.592   0.488   4.222  0.0929 -0.0797  0.0808
  911TIP3    H1 2697   5.622   0.546   4.291  0.4231  1.3417 -1.1969
  911TIP3    H2 2698   5.502   0.467   4.246  0.8857 -1.4897  2.0878
  912TIP3   OH2 2699   1.895   1.354   2.184  0.4613  0.0548  0.6157
  912TIP3    H1 2700   1.858   1.266   2.173  0.7437 -0.0496  0.4869
  912TIP3    H2 2701   1.819   1.411   2.197  0.3108 -0.3013  1.3288
  913TIP3   OH2 2702   0.347   0.122   4.708 -0.2196 -0.1057 -0.4548
  913TIP3    H1 2703   0.440   0.125   4.685  0.1751  0.1899  1.0260
  913TIP3    H2 2704   0.345   0.073   4.791 -1.0374  2.1087  0.9282
  914TIP3   OH2 2705   2.572   3.364   0.822  0.6561  0.0615  0.5039
  914TIP3    H1 2706   2.600   3.302   0.754 -1.4479  0.2408 -0.6372
  914TIP3    H2 2707   2.477   3.369   0.810  0.5316  1.9028  1.9650
  915TIP3   OH2 2708   1.237   6.124   4.664 -0.2473  0.1426  0.3807
  915TIP3    H1 2709   1.204   6.178   4.592 -1.8612  1.5360  2.0371
  915TIP3    H2 2710   1.331   6.146   4.669 -0.3222  0.7725 -0.6438
  916TIP3   OH2 2711   1.975   1.340   3.360  0.4395  0.3949  0.0086
  916TIP3    H1 2712   2.044   1.297   3.412  0.2483 -1.7464 -1.3854
  916TIP3    H2 2713   2.021   1.408   3.311  1.0659  0.7596  1.0620
  917TIP3   OH2 2714   0.825   1.568   1.098  0.4329  0.1048  0.5064
  917TIP3    H1 2715   0.835   1.587   1.191 -0.4919 -1.6450  1.0087
  917TIP3    H2 2716   0.911   1.536   1.071  0.9358  1.3624  0.5258
  918TIP3   OH2 2717   5.465   0.321   1.848  0.1267  0.1588  0.0901
  918TIP3    H1 2718   5.540   0.336   1.792  0.4455  1.5393  0.8474
  918TIP3    H2 2719   5.487   0.365   1.930  0.0358 -2.4580  1.6400
  919TIP3   OH2 2720   5.484   5.365   5.118  0.2061  0.4015 -0.8212
  919TIP3    H1 2721   5.389   5.373   5.108 -0.0100 -1.3903 -0.5619
  919TIP3    H2 2722   5.496   5.313   5.198  1.4111  0.7019 -0.7860
  920TIP3   OH2 2723   4.270   1.919   3.842  0.2547 -0.3624  0.3747
  920TIP3    H1 2724   4.184   1.959   3.855 -0.1559 -0.4736 -1.6069
  920TIP3    H2 2725   4.255   1.825   3.851  0.4689 -0.3001  1.4273
  921TIP3   OH2 2726   6.371   3.523   1.046  0.2217 -0.5002 -0.5999
  921TIP3    H1 2727   6.297   3.501   0.989 -0.0338  1.2516 -0.9763
  921TIP3    H2 2728   6.344   3.491   1.133 -1.1453  0.4233 -0.6601
  922TIP3   OH2 2729   3.946   2.018   3.341 -0.9739  0.0004 -0.0954
  922TIP3    H1 2730   3.968   1.965   3.418  0.1467 -1.4628 -1.3572
  922TIP3    H2 2731   3.952   2.109   3.371 -1.6192 -0.5328  1.7893
  923TIP3   OH2 2732   6.272   1.231   2.799 -0.0092 -0.1902  0.1134
  923TIP3    H1 2733   6.319   1.207   2.878  1.7152 -2.8007 -1.5719
  923TIP3    H2 2734   6.338   1.270   2.742 -0.8455  0.0864 -0.7054
  924TIP3   OH2 2735   3.883   3.159   4.068  0.1667  0.0694  0.0894
  924TIP3    H1 2736   3.792   3.166   4.040  0.1193  1.6512  0.5456
  924TIP3    H2 2737   3.912   3.249   4.077  0.8199 -0.3241  3.0524
  925TIP3   OH2 2738   0.918   0.693   5.425  0.0841  0.1335  0.3452
  925TIP3    H1 2739   0.861   0.739   5.488 -1.2341  0.1797 -0.8284
  925TIP3    H2 2740   0.903   0.601   5.444  1.0334  0.1452  1.2324
  926TIP3   OH2 2741   0.663   3.843   0.681 -0.1919 -0.0638 -0.4475
  926TIP3    H1 2742   0.723   3.868   0.611  1.3079  0.3311  0.9094
  926TIP3    H2 2743   0.577   3.841   0.640  0.5361  0.9079 -2.1100
  927TIP3   OH2 2744   6.663   4.102   0.569 -0.1954  1.2722 -0.0570
  927TIP3    H1 2745   6.675   4.169   0.502  2.4084  0.8719 -0.0837
  927TIP3    H2 2746   6.677   4.019   0.524  0.4546  0.9363  0.7217
  928TIP3   OH2 2747   5.658   0.243   0.101  0.4688 -0.0010 -0.2982
  928TIP3    H1 2748   5.684   0.254   0.009 -2.1131  0.6277 -1.0269
  928TIP3    H2 2749   5.700   0.316   0.147  1.4697 -0.0943 -1.0181
  929TIP3   OH2 2750   0.064   5.466   0.877  0.6538 -0.2702  0.2929
  929TIP3    H1 2751   0.092   5.555   0.856 -0.9906  0.1533 -0.2807
  929TIP3    H2 2752   0.132   5.410   0.840 -0.5488  0.5563 -3.5931
  930TIP3   OH2 2753   3.231   5.273   0.075 -0.0333  0.5745  0.3581
  930TIP3    H1 2754   3.230   5.214   0.150  2.5051 -0.2827 -0.1981
  930TIP3    H2 2755   3.248   5.360   0.112  2.0136  0.0412  0.7769
  931TIP3   OH2 2756   0.542   4.051   3.919 -0.6479  0.0931  0.1014
  931TIP3    H1 2757   0.560   4.015   4.006 -0.7859  2.1621  1.0404
  931TIP3    H2 2758   0.568   3.981   3.859  0.3038 -1.0586  1.7551
  932TIP3   OH2 2759   4.067   0.154   2.777 -0.4194 -0.1180 -0.3204
  932TIP3    H1 2760   3.976   0.128   2.793 -0.2862 -0.9059 -0.8492
  932TIP3    H2 2761   4.076   0.154   2.682 -0.0466  0.6205 -0.2962
  933TIP3   OH2 2762   0.398   3.272   2.176  0.1210 -0.1103 -0.4500
  933TIP3    H1 2763   0.481   3.318   2.188  0.7143 -1.1090 -0.5970
  933TIP3    H2 2764   0.335   3.342   2.156  0.3831  0.9418  1.9806
  934TIP3   OH2 2765   2.454   4.245   3.135 -0.3502  0.2518 -0.0969
  934TIP3    H1 2766   2.405   4.320   3.102 -1.6828  0.2400  1.7288
  934TIP3    H2 2767   2.457   4.258   3.230  0.0849 -1.6037  0.1821
  935TIP3   OH2 2768   0.302   2.498   4.498  0.3585  0.2305 -0.4565
  935TIP3    H1 2769   0.390   2.486   4.531 -0.2802 -1.3210  0.8082
  935TIP3    H2 2770   0.247   2.506   4.577 -0.7413  0.2516 -1.1950
  936TIP3   OH2 2771   7.041   5.120   4.866 -0.0713 -0.2677 -0.3430
  936TIP3    H1 2772   7.087   5.081   4.940  0.0704 -2.0884 -1.3378
  936TIP3    H2 2773   6.949   5.112   4.888 -0.0116  0.1196  0.0670
  937TIP3   OH2 2774   3.256   5.542   0.178 -0.4521  0.0004 -0.0756
  937TIP3    H1 2775   3.185   5.605   0.193 -0.1830  0.1892  0.4340
  937TIP3    H2 2776   3.245   5.477   0.248  1.6108  1.5980  1.8839
  938TIP3   OH2 2777   3.965   6.027   1.621 -0.0367 -0.3594 -0.2838
  938TIP3    H1 2778   3.908   6.007   1.695 -0.2770 -1.8520 -0.8471
  938TIP3    H2 2779   3.968   6.123   1.619  0.9179 -0.2391  2.3403
  939TIP3   OH2 2780   6.130   0.293   3.406 -0.1554  0.8459 -0.5545
  939TIP3    H1 2781   6.156   0.366   3.463 -1.1521 -0.5469  1.7985
  939TIP3    H2 2782   6.079   0.335   3.336 -0.5406  2.4280  0.6239
  940TIP3   OH2 2783   6.917   1.304   2.539  0.0699  0.5658 -0.4265
  940TIP3    H1 2784   6.938   1.297   2.632 -1.4334 -0.9944 -0.1369
  940TIP3    H2 2785   6.822   1.288   2.535  0.1432  0.3965 -2.2266
  941TIP3   OH2 2786   5.867   1.933   2.972 -0.3086  1.1678 -0.1307
  941TIP3    H1 2787   5.834   1.901   2.888  1.2879  0.4533 -0.5297
  941TIP3    H2 2788   5.789   1.962   3.019 -1.4332  0.0325 -1.2004
  942TIP3   OH2 2789   0.464   5.491   4.308 -0.3125 -0.3919 -0.2605
  942TIP3    H1 2790   0.471   5.572   4.257  0.6378 -0.8557 -0.8961
  942TIP3    H2 2791   0.458   5.422   4.243  0.4561 -0.9555  0.2471
  943TIP3   OH2 2792   6.552   4.514   2.391 -0.3941 -0.7310  0.0050
  943TIP3    H1 2793   6.494   4.590   2.399  0.4734 -0.1542  1.2346
  943TIP3    H2 2794   6.542   4.485   2.300 -0.5373  1.0294 -0.5756
  944TIP3   OH2 2795   3.119   1.062   3.419  0.4140 -0.1992  0.3416
  944TIP3    H1 2796   3.056   1.007   3.466 -0.0114  0.5286  0.6301
  944TIP3    H2 2797   3.205   1.027   3.445  0.1448 -1.9146 -0.9132
  945TIP3   OH2 2798   5.791   5.396   2.214  0.3877 -0.6203 -0.7623
  945TIP3    H1 2799   5.869   5.361   2.171  0.4601 -2.0115  0.4221
  945TIP3    H2 2800   5.767   5.329   2.278 -0.8143  0.5319  0.0439
  946TIP3   OH2 2801   4.492   1.890   2.216 -0.3961 -0.6562  0.5403
  946TIP3    H1 2802   4.532   1.803   2.215  1.7393  0.2699 -0.1634
  946TIP3    H2 2803   4.477   1.911   2.124 -0.2542  0.0032  0.6616
  947TIP3   OH2 2804   6.633   4.729   3.011  0.2165 -0.1604 -0.3193
  947TIP3    H1 2805   6.567   4.710   3.077  0.1279 -1.9990 -0.8801
  947TIP3    H2 2806   6.689   4.652   3.011  0.0470 -0.3297 -2.5808
  948TIP3   OH2 2807   6.494   5.684   5.764  0.2526 -0.0301  0.5171
  948TIP3    H1 2808   6.449   5.605   5.735  0.1738  0.0308  0.4758
  948TIP3    H2 2809   6.520   5.665   5.854  1.3425 -0.5927  0.1043
  949TIP3   OH2 2810   5.349   4.679   5.526 -0.4500  0.4844 -0.8607
  949TIP3    H1 2811   5.313   4.624   5.457  0.6979  0.7202 -1.6924
  949TIP3    H2 2812   5.441   4.652   5.533 -0.6736  0.0459  1.0156
  950TIP3   OH2 2813   3.765   6.779   4.376 -0.3092 -0.0407  0.5763
  950TIP3    H1 2814   3.670   6.773   4.371 -0.2997  0.6033 -1.0422
  950TIP3    H2 2815   3.787   6.744   4.462 -1.9956 -0.2771  0.9434
  951TIP3   OH2 2816   4.054   5.255   2.004  0.3315  0.1223  0.0079
  951TIP3    H1 2817   4.025   5.331   1.954  1.0898 -0.1142 -0.8249
  951TIP3    H2 2818   4.004   5.182   1.966  0.1951  0.0855  0.2581
  952TIP3   OH2 2819   0.708   0.274   5.149 -0.0638  0.5131 -0.0489
  952TIP3    H1 2820   0.789   0.257   5.100 -1.1726 -0.0311 -1.7659
  952TIP3    H2 2821   0.706   0.206   5.217  0.0484 -0.6200 -1.1403
  953TIP3   OH2 2822   5.565   5.491   5.405  0.5295  0.4318 -0.1678
  953TIP3    H1 2823   5.495   5.432   5.377  1.1716 -1.7335  2.3582
  953TIP3    H2 2824   5.519   5.563   5.448 -0.2296 -0.5396  0.7231
  954TIP3   OH2 2825   2.639   6.623   0.582 -0.7107  0.4311 -0.2317
  954TIP3    H1 2826   2.556   6.666   0.561 -1.1393  0.2357  1.0306
  954TIP3    H2 2827   2.615   6.539   0.620  0.1078 -0.3623 -1.3957
  955TIP3   OH2 2828   1.118   5.306   1.459 -0.0682 -0.2265  0.4651
  955TIP3    H1 2829   1.140   5.399   1.468  0.1966 -0.0338 -1.6087
  955TIP3    H2 2830   1.022   5.304   1.463 -0.1904  0.4152 -1.1496
  956TIP3   OH2 2831   6.936   6.496   1.392  0.3459 -0.2561  0.1238
  956TIP3    H1 2832   6.907   6.416   1.437 -0.5118  0.1760  0.3775
  956TIP3    H2 2833   6.857   6.527   1.348  0.2634  1.2791  1.2899
  957TIP3   OH2 2834   2.582   5.715   5.839  0.2120 -0.1929  0.1217
  957TIP3    H1 2835   2.606   5.648   5.775  1.6657 -1.4427  1.8782
  957TIP3    H2 2836   2.532   5.669   5.905 -1.4085  1.1153 -0.1329
  958TIP3   OH2 2837   0.951   3.190   5.895 -0.2387  0.1400 -0.1596
  958TIP3    H1 2838   0.940   3.226   5.807  1.1275  2.1528  0.4107
  958TIP3    H2 2839   0.863   3.192   5.932 -0.9720 -1.4160 -1.6615
  959TIP3   OH2 2840   2.283   0.872   1.062  0.6623  0.9489 -0.4519
  959TIP3    H1 2841   2.335   0.884   1.141 -0.9610  0.7821  0.6897
  959TIP3    H2 2842   2.216   0.940   1.066 -0.9066 -0.5137 -0.4153
  960TIP3   OH2 2843   5.217   4.408   2.544  0.8204 -0.0272 -0.6671
  960TIP3    H1 2844   5.131   4.424   2.506  0.7902  1.8689  0.0768
  960TIP3    H2 2845   5.270   4.374   2.472 -0.4450 -0.9197 -1.2074
  961TIP3   OH2 2846   3.009   1.161   3.766  0.0202 -0.2504  0.0868
  961TIP3    H1 2847   3.014   1.150   3.860 -2.5568  1.0525  0.4732
  961TIP3    H2 2848   2.957   1.086   3.735  0.0492 -0.1682 -0.1673
  962TIP3   OH2 2849   2.616   1.634   1.391 -0.0943 -0.2379 -0.7196
  962TIP3    H1 2850   2.659   1.685   1.322 -2.4675  1.9472 -0.7535
  962TIP3    H2 2851   2.580   1.558   1.346 -0.4016  0.4441 -1.6683
  963TIP3   OH2 2852   5.747   5.332   5.533 -0.6132  0.4072 -0.3096
  963TIP3    H1 2853   5.728   5.244   5.499 -0.5158 -0.1107  0.9063
  963TIP3    H2 2854   5.702   5.391   5.473 -0.1637 -0.4265 -1.5235
  964TIP3   OH2 2855   1.771   2.797   1.162  0.0816 -0.0210  0.1563
  964TIP3    H1 2856   1.846   2.822   1.217 -0.3778  0.1644  0.7016
  964TIP3    H2 2857   1.716   2.875   1.160 -0.4379 -0.3775  0.3256
  965TIP3   OH2 2858   6.041   5.280   1.133  0.0357  0.4959  0.0396
  965TIP3    H1 2859   5.965   5.337   1.120  0.4699  0.8377 -1.0740
  965TIP3    H2 2860   6.010   5.214   1.196  0.2929  3.3645  3.4765
  966TIP3   OH2 2861   0.284   4.773   0.829  0.5716 -0.3507 -0.4967
  966TIP3    H1 2862   0.303   4.741   0.741 -0.0162 -0.1618 -0.6962
  966TIP3    H2 2863   0.246   4.860   0.815 -1.8481 -1.2995 -0.2262
  967TIP3   OH2 2864   5.312   6.395   1.072 -0.2346  0.2487 -0.4585
  967TIP3    H1 2865   5.345   6.365   0.987 -1.0363 -2.4406  0.0745
  967TIP3    H2 2866   5.218   6.378   1.068 -0.0799 -1.4563  1.4841
  968TIP3   OH2 2867   2.957   4.763   2.958 -0.4837 -0.0160  0.2427
  968TIP3    H1 2868   3.031   4.824   2.959 -0.3711 -0.0520 -1.7737
  968TIP3    H2 2869   2.882   4.817   2.933 -1.2416  0.0652  2.4863
  969TIP3   OH2 2870   4.155   3.817   1.517 -0.1227 -0.4411 -0.2334
  969TIP3    H1 2871   4.128   3.835   1.427  0.9226 -2.4294 -1.0177
  969TIP3    H2 2872   4.074   3.799   1.564 -0.6472  0.1476 -0.8970
  970TIP3   OH2 2873   2.898   0.061   0.986  0.1366  0.5822 -0.0194
  970TIP3    H1 2874   2.956   0.132   0.961  0.8019  0.2019  0.4133
  970TIP3    H2 2875   2.855   0.091   1.066 -1.3002  1.4161 -1.0441
  971TIP3   OH2 2876   1.942   4.056   4.908 -0.1262  0.5247 -0.9126
  971TIP3    H1 2877   1.912   4.041   4.819  0.1409 -0.2281 -0.8849
  971TIP3    H2 2878   1.965   4.149   4.911  2.2685  0.0791 -2.3964
  972TIP3   OH2 2879   0.497   0.774   3.617  0.7337  0.4115  0.1266
  972TIP3    H1 2880   0.473   0.783   3.524  0.5676  0.1691  0.1471
  972TIP3    H2 2881   0.570   0.711   3.617 -1.0246 -1.7342  0.4095
  973TIP3   OH2 2882   6.017   5.115   2.810  0.4240 -0.3798 -0.0941
  973TIP3    H1 2883   5.943   5.055   2.823 -1.5766  2.2405  1.6263
  973TIP3    H2 2884   6.093   5.066   2.840 -1.3902 -1.4939  3.1760
  974TIP3   OH2 2885   3.366   4.016   4.162 -0.5716 -0.2432 -0.2160
  974TIP3    H1 2886   3.306   4.087   4.184 -1.4591 -1.2301  0.6227
  974TIP3    H2 2887   3.322   3.937   4.192 -1.2039 -1.6138 -4.1375
  975TIP3   OH2 2888   5.481   2.377   4.734  0.8703 -1.0736 -0.1389
  975TIP3    H1 2889   5.481   2.469   4.708 -1.9406 -1.1130 -0.6665
  975TIP3    H2 2890   5.469   2.328   4.653 -0.2030 -1.6934  0.3532
  976TIP3   OH2 2891   3.427   4.152   0.350  0.1894 -0.1123  0.1371
  976TIP3    H1 2892   3.466   4.162   0.437  0.0572 -0.1496  0.2026
  976TIP3    H2 2893   3.458   4.228   0.301  0.4474 -0.2108  0.1463
  977TIP3   OH2 2894   5.804   2.050   3.715  0.0353 -0.2482  0.0187
  977TIP3    H1 2895   5.846   1.990   3.778  1.3216 -0.5973 -1.1239
  977TIP3    H2 2896   5.850   2.034   3.633 -0.1354  1.7365 -0.5186
  978TIP3   OH2 2897   4.900   1.760   5.253  0.2796  0.2215 -0.2767
  978TIP3    H1 2898   4.990   1.792   5.255  0.5017 -0.3477 -0.8027
  978TIP3    H2 2899   4.894   1.709   5.172 -0.0442 -1.0758  0.5312
  979TIP3   OH2 2900   1.121   4.801   0.895 -0.1854 -0.3176 -0.4879
  979TIP3    H1 2901   1.077   4.884   0.911  0.6318  0.1878 -0.8662
  979TIP3    H2 2902   1.156   4.808   0.807  0.1409 -0.9515 -0.4147
  980TIP3   OH2 2903   6.552   6.132   0.372 -0.6699 -0.0200  0.1758
  980TIP3    H1 2904   6.539   6.084   0.454  1.4786  0.3396  0.7959
  980TIP3    H2 2905   6.646   6.128   0.356 -1.0203 -0.1266 -2.3419
  981TIP3   OH2 2906   4.133   2.781   3.244 -0.4546  1.0519 -0.2311
  981TIP3    H1 2907   4.161   2.732   3.322  0.0540  0.3958 -0.8198
  981TIP3    H2 2908   4.059   2.732   3.209  0.7662  0.0214 -1.4741
  982TIP3   OH2 2909   1.657   5.945   0.865 -0.2804  0.2448 -0.2629
  982TIP3    H1 2910   1.705   5.864   0.882  0.5891  0.7881 -0.0959
  982TIP3    H2 2911   1.602   5.925   0.789  1.5875  0.1555 -1.6670
  983TIP3   OH2 2912   2.683   5.546   5.650  0.2463  0.4010  0.5744
  983TIP3    H1 2913   2.652   5.462   5.683  0.0260 -0.1272 -0.9153
  983TIP3    H2 2914   2.672   5.541   5.555  1.1554  1.7322  0.3607
  984TIP3   OH2 2915   1.685   4.324   5.458 -0.5330 -0.1096 -0.1244
  984TIP3    H1 2916   1.620   4.364   5.400 -1.2928  1.0407  1.4426
  984TIP3    H2 2917   1.642   4.244   5.490 -0.1139 -0.7445 -1.0832
  985TIP3   OH2 2918   0.981   3.981   3.325 -0.2268 -0.0305 -0.2863
  985TIP3    H1 2919   0.962   4.064   3.368  1.1344  0.1098  0.0637
  985TIP3    H2 2920   1.010   4.005   3.237  1.6916 -0.0191  0.3237
  986TIP3   OH2 2921   1.200   4.197   5.806 -0.2901  0.8260  0.0671
  986TIP3    H1 2922   1.123   4.164   5.852  0.3523 -0.2466  0.4146
  986TIP3    H2 2923   1.192   4.161   5.717 -0.5813  1.3512 -0.1195
  987TIP3   OH2 2924   3.649   4.310   0.286 -0.7074  0.1016 -0.0139
  987TIP3    H1 2925   3.720   4.260   0.327 -0.7342  0.2761  0.2462
  987TIP3    H2 2926   3.677   4.321   0.195 -2.3134 -3.5835 -1.1674
  988TIP3   OH2 2927   4.483   2.474   4.910  0.2062  0.2116 -0.1271
  988TIP3    H1 2928   4.412   2.523   4.868  0.9619  0.9765 -0.5437
  988TIP3    H2 2929   4.469   2.488   5.004 -1.2510 -1.1639 -0.1025
  989TIP3   OH2 2930   2.747   5.244   1.270  0.3628  0.1536  0.2007
  989TIP3    H1 2931   2.760   5.330   1.310 -0.0290  0.0454  0.5660
  989TIP3    H2 2932   2.675   5.204   1.320 -0.5189  0.2375 -0.9695
  990TIP3   OH2 2933   6.259   0.821   5.334 -0.0554  0.1412 -0.0767
  990TIP3    H1 2934   6.287   0.851   5.420  0.4510  0.5453 -0.3761
  990TIP3    H2 2935   6.258   0.726   5.341 -0.7845  0.1914  0.6102
  991TIP3   OH2 2936   5.595   6.594   3.764  0.1768  0.1988  0.6294
  991TIP3    H1 2937   5.585   6.677   3.717 -0.0310 -0.4673 -0.5525
  991TIP3    H2 2938   5.507   6.556   3.765  0.5214 -0.6378 -0.0672
  992TIP3   OH2 2939   5.051   2.724   0.079  0.1660 -0.4911 -0.0320
  992TIP3    H1 2940   4.976   2.716   0.138 -0.2625  0.3342 -0.4561
  992TIP3    H2 2941   5.014   2.747  -0.006  0.9138  0.2315 -0.1772
  993TIP3   OH2 2942   3.583   0.698   4.729  0.3754 -0.3958  0.2741
  993TIP3    H1 2943   3.496   0.703   4.769 -0.0097 -0.3301 -0.5556
  993TIP3    H2 2944   3.620   0.786   4.741  0.2167 -0.3403  0.3655
  994TIP3   OH2 2945   6.072   5.373   1.424  0.1138 -0.3418 -0.3381
  994TIP3    H1 2946   6.143   5.408   1.371 -1.1527  0.5732 -1.5166
  994TIP3    H2 2947   6.058   5.284   1.392  1.0064 -0.6982  0.2246
  995TIP3   OH2 2948   1.043   3.971   1.858 -0.9428  0.8496  0.4602
  995TIP3    H1 2949   0.949   3.990   1.857 -1.0602  0.4794 -1.9453
  995TIP3    H2 2950   1.049   3.880   1.886 -1.5836  0.0522 -1.7428
  996TIP3   OH2 2951   3.377   3.604   2.414 -0.3002  0.0921  0.4362
  996TIP3    H1 2952   3.353   3.539   2.480  0.8661 -1.5618 -0.7003
  996TIP3    H2 2953   3.302   3.608   2.355 -0.4776 -0.0057  0.6539
  997TIP3   OH2 2954   5.029   5.198   4.947  0.0888  0.6313 -0.0503
  997TIP3    H1 2955   4.996   5.189   4.858  0.2402 -0.3372 -0.0121
  997TIP3    H2 2956   4.954   5.228   4.998 -0.0015  1.1819 -0.4895
  998TIP3   OH2 2957   4.731   6.788   4.725  0.0392  0.3096  0.2026
  998TIP3    H1 2958   4.666   6.786   4.795 -1.3671 -0.1891 -1.0415
  998TIP3    H2 2959   4.684   6.753   4.649  1.2065  1.7023 -1.2200
  999TIP3   OH2 2960   7.008   4.465   0.293 -0.6277 -0.1312  0.1133
  999TIP3    H1 2961   7.099   4.474   0.322 -0.7926 -2.4793  1.7138
  999TIP3    H2 2962   6.963   4.539   0.332  0.5530  1.0198 -0.6343
 1000TIP3   OH2 2963   2.676   2.757   3.654  0.3149 -0.2605 -0.2958
 1000TIP3    H1 2964   2.612   2.775   3.586  2.2451  1.0628 -1.8500
 1000TIP3    H2 2965   2.727   2.684   3.620  1.4141  0.5328 -0.3929
 1001TIP3   OH2 2966   1.084   1.746   1.096 -0.2520  0.4971 -0.3578
 1001TIP3    H1 2967   1.074   1.756   1.191  0.0372 -2.2921  0.0648
 1001TIP3    H2 2968   1.171   1.781   1.077 -0.4507  1.3918  0.3494
 1002TIP3   OH2 2969   6.018   2.133   2.220  0.3120  0.0297  0.3017
 1002TIP3    H1 2970   6.069   2.126   2.139  1.2805 -1.1009  0.9811
 1002TIP3    H2 2971   5.928   2.113   2.193  0.2926  1.3891 -0.7940
 1003TIP3   OH2 2972   6.822   1.466   1.038 -0.1658  1.0768 -0.6963
 1003TIP3    H1 2973   6.875   1.399   0.994 -0.4895  1.1050 -1.1252
 1003TIP3    H2 2974   6.811   1.432   1.127 -2.0278 -0.4524 -1.4482
 1004TIP3   OH2 2975   2.538   0.207   5.885 -0.3181  0.2398 -0.2916
 1004TIP3    H1 2976   2.444   0.208   5.900 -0.5644  0.2914 -1.7375
 1004TIP3    H2 2977   2.556   0.286   5.835  0.3238 -0.3123 -0.9691
 1005TIP3   OH2 2978   6.405   5.075   2.043  0.3704 -0.4382  0.0394
 1005TIP3    H1 2979   6.317   5.106   2.064 -0.2641 -1.2545 -1.2661
 1005TIP3    H2 2980   6.432   5.128   1.968  0.2831 -1.3205 -0.6359
 1006TIP3   OH2 2981   3.270   6.349   1.227 -0.5549  0.4370  0.4323
 1006TIP3    H1 2982   3.202   6.348   1.159 -1.3739  0.0956  1.2404
 1006TIP3    H2 2983   3.301   6.440   1.229 -1.2189  0.6714  0.2783
 1007TIP3   OH2 2984   1.630   1.592   3.517  0.2546 -0.1213 -0.0870
 1007TIP3    H1 2985   1.685   1.532   3.568 -0.6828 -2.1242 -1.2918
 1007TIP3    H2 2986   1.558   1.538   3.486  0.5239  1.0606 -3.1407
 1008TIP3   OH2 2987   3.029   6.576   1.178  0.3335  0.0874  0.1762
 1008TIP3    H1 2988   3.005   6.513   1.111  0.4885 -0.1124  0.3087
 1008TIP3    H2 2989   2.962   6.645   1.171  0.2264 -0.0375 -0.0371
 1009TIP3   OH2 2990   2.854   2.315   0.179 -0.4807  0.5564  0.4605
 1009TIP3    H1 2991   2.886   2.290   0.092 -0.3026  0.4314  0.5625
 1009TIP3    H2 2992   2.891   2.402   0.194 -1.7244  1.2336 -0.2224
 1010TIP3   OH2 2993   4.049   2.866   4.955 -0.0224  0.2646 -0.3871
 1010TIP3    H1 2994   4.024   2.836   5.043  0.3848 -0.4765 -0.5254
 1010TIP3    H2 2995   4.052   2.962   4.964 -0.8279  0.2530  0.1802
 1011TIP3   OH2 2996   6.739   3.327   2.855  0.0760 -0.5446  0.0936
 1011TIP3    H1 2997   6.802   3.262   2.823  1.0279 -0.2091  1.1963
 1011TIP3    H2 2998   6.667   3.276   2.892 -0.0425 -0.9422 -0.6641
 1012TIP3   OH2 2999   4.959   6.749   2.410  0.0557 -0.1751 -0.0704
 1012TIP3    H1 3000   5.028   6.684   2.420  0.3601  0.2523  0.7686
 1012TIP3    H2 3001   4.906   6.718   2.337  0.8785 -0.7374 -0.4334
 1013TIP3   OH2 3002   6.832   5.348   1.491 -0.5600  0.3444 -0.7253
 1013TIP3    H1 3003   6.902   5.333   1.428 -0.6822  0.0470 -0.7915
 1013TIP3    H2 3004   6.808   5.440   1.479 -0.3436  0.3827 -0.8659
 1014TIP3   OH2 3005   0.330   6.067   2.778  0.3990  0.6517  0.1581
 1014TIP3    H1 3006   0.377   6.019   2.710 -0.6728  0.5325 -0.5136
 1014TIP3    H2 3007   0.263   6.006   2.809  1.9139  0.0456  2.5786
 1015TIP3   OH2 3008   6.466   0.402   1.087  0.1469 -0.0469  0.1497
 1015TIP3    H1 3009   6.414   0.428   1.164 -0.3397  1.8125 -0.7486
 1015TIP3    H2 3010   6.546   0.366   1.124 -0.2794  0.3623  1.5540
 1016TIP3   OH2 3011   0.041   5.592   5.612 -0.0034  1.0471 -0.2210
 1016TIP3    H1 3012   0.081   5.506   5.626 -0.0566  1.0291 -0.1825
 1016TIP3    H2 3013   0.069   5.645   5.686 -1.3029  0.5911  0.6299
 1017TIP3   OH2 3014   4.538   2.560   0.548 -0.8255  0.0236 -0.7710
 1017TIP3    H1 3015   4.570   2.523   0.466 -0.2963  0.3646 -0.7257
 1017TIP3    H2 3016   4.590   2.640   0.559 -0.5398 -0.2773  0.1487
 1018TIP3   OH2 3017   4.647   1.198   5.708 -0.3283  0.1346  0.4681
 1018TIP3    H1 3018   4.719   1.180   5.768 -0.2114  2.9147  1.2786
 1018TIP3    H2 3019   4.689   1.244   5.635 -0.7850 -1.4607 -0.8606
 1019TIP3   OH2 3020   1.264   5.867   2.947  0.1141 -0.3489 -0.1114
 1019TIP3    H1 3021   1.327   5.825   3.006 -1.3591 -0.7200  1.2620
 1019TIP3    H2 3022   1.178   5.846   2.984 -0.8501 -0.0100 -2.0294
 1020TIP3   OH2 3023   1.303   3.855   4.426  0.5216 -0.1897 -0.4949
 1020TIP3    H1 3024   1.216   3.891   4.412 -1.3104 -4.7798 -2.6411
 1020TIP3    H2 3025   1.353   3.881   4.349  0.7410  1.2661  0.0887
 1021TIP3   OH2 3026   0.202   6.390   5.613 -0.3133 -0.1097  0.1313
 1021TIP3    H1 3027   0.121   6.421   5.653 -0.1285  0.6773 -0.0809
 1021TIP3    H2 3028   0.264   6.384   5.686 -0.7497 -1.4297  0.4200
 1022TIP3   OH2 3029   1.640   3.496   4.860  0.2834  0.0894 -0.4165
 1022TIP3    H1 3030   1.632   3.408   4.897  0.8490  0.2953  0.2200
 1022TIP3    H2 3031   1.573   3.548   4.905 -0.1461 -0.0465 -0.8955
 1023TIP3   OH2 3032   1.476   3.746   0.132  0.0804 -0.3098  0.2001
 1023TIP3    H1 3033   1.521   3.696   0.200  0.3911 -0.0868  0.1582
 1023TIP3    H2 3034   1.418   3.805   0.180 -0.1526 -0.5836  0.2546
 1024TIP3   OH2 3035   6.467   5.847   2.865  0.3857 -0.6845 -0.2888
 1024TIP3    H1 3036   6.413   5.923   2.845  0.1512 -0.6492  0.4583
 1024TIP3    H2 3037   6.525   5.876   2.935  0.4195 -1.1433 -0.1238
 1025TIP3   OH2 3038   4.484   6.368   1.572  0.3964 -0.2662 -0.7139
 1025TIP3    H1 3039   4.551   6.376   1.504 -0.0529 -0.1045 -1.1408
 1025TIP3    H2 3040   4.482   6.274   1.592  2.4272 -0.0151  1.0201
 1026TIP3   OH2 3041  -0.004   3.307   2.286 -0.5580 -0.4956  0.4059
 1026TIP3    H1 3042   0.035   3.226   2.251  1.5517 -0.1347  1.7444
 1026TIP3    H2 3043  -0.009   3.365   2.210  1.0016 -0.7866  0.0345
 1027TIP3   OH2 3044   0.902   2.388   3.651 -0.4384  0.1121  0.0366
 1027TIP3    H1 3045   0.968   2.457   3.660 -0.7739  1.0024 -3.0679
 1027TIP3    H2 3046   0.850   2.415   3.575 -2.1468 -2.3485  0.2300
 1028TIP3   OH2 3047   1.718   5.025   1.575  0.5310  0.1705 -0.1105
 1028TIP3    H1 3048   1.655   4.988   1.513  1.8513  1.0270 -2.0873
 1028TIP3    H2 3049   1.666   5.083   1.631 -0.5460  0.3370 -1.2460
 1029TIP3   OH2 3050   0.789   1.070   0.522  0.0236  0.1043 -0.2697
 1029TIP3    H1 3051   0.875   1.103   0.498 -0.7693  2.5432 -0.0384
 1029TIP3    H2 3052   0.745   1.053   0.439  0.6230 -0.9351 -0.3869
 1030TIP3   OH2 3053   6.713   0.644   2.914 -0.7512  0.2189  0.8399
 1030TIP3    H1 3054   6.702   0.548   2.914 -0.1415  0.1319  1.7290
 1030TIP3    H2 3055   6.625   0.678   2.898 -0.9662 -0.4967  0.4609
 1031TIP3   OH2 3056   6.469   2.157   3.706  0.1993 -0.0719 -0.5683
 1031TIP3    H1 3057   6.448   2.249   3.691  1.7552  0.2293 -1.0745
 1031TIP3    H2 3058   6.564   2.154   3.715  0.2902 -1.7405 -1.5129
 1032TIP3   OH2 3059   4.004   3.022   1.805  0.7354 -0.1598  0.2368
 1032TIP3    H1 3060   3.934   3.072   1.848 -0.3229 -0.2119 -1.3618
 1032TIP3    H2 3061   3.983   2.931   1.827 -1.3981 -0.4437 -2.4484
 1033TIP3   OH2 3062   6.480   4.683   3.249 -0.0366  0.1496 -0.0177
 1033TIP3    H1 3063   6.409   4.621   3.234 -0.2637  0.0473  1.3287
 1033TIP3    H2 3064   6.460   4.722   3.334  1.4270  0.2293  0.3248
 1034TIP3   OH2 3065   5.533   0.863   3.668  0.1858  0.0309 -0.2075
 1034TIP3    H1 3066   5.558   0.774   3.646  0.1117 -0.5168  1.7757
 1034TIP3    H2 3067   5.437   0.861   3.674  0.1742  0.2808 -0.2683
 1035TIP3   OH2 3068  -0.012   1.107   3.171 -0.6369  0.1655  0.5558
 1035TIP3    H1 3069   0.024   1.166   3.237  0.5676  0.1639 -0.0688
 1035TIP3    H2 3070   0.040   1.027   3.180  0.2921  0.5410 -1.0806
 1036TIP3   OH2 3071   4.202   0.773   1.835 -0.1852  0.5015 -0.0959
 1036TIP3    H1 3072   4.245   0.855   1.856  0.9733 -0.0480 -0.2193
 1036TIP3    H2 3073   4.161   0.745   1.917  0.2249  0.7410  0.1927
 1037TIP3   OH2 3074   4.395   3.035   2.930 -0.3082 -0.2314 -0.4395
 1037TIP3    H1 3075   4.338   2.962   2.955 -0.6076 -0.2448 -1.1274
 1037TIP3    H2 3076   4.356   3.112   2.974 -1.3717 -0.0926 -1.5517
 1038TIP3   OH2 3077   0.558   4.105   1.570  0.4263  0.5128 -0.2061
 1038TIP3    H1 3078   0.553   4.186   1.620 -0.0238  0.5050 -0.2301
 1038TIP3    H2 3079   0.518   4.126   1.485 -1.9029 -0.3225  0.6023
 1039TIP3   OH2 3080   3.040   3.165   3.717 -0.2094 -0.3053  0.3248
 1039TIP3    H1 3081   2.968   3.105   3.737  1.4413 -1.8922  1.9402
 1039TIP3    H2 3082   3.002   3.230   3.658 -2.5002 -2.0335 -0.2453
 1040TIP3   OH2 3083   2.871   2.313   0.899  0.9009  0.7336 -0.0929
 1040TIP3    H1 3084   2.939   2.258   0.859 -1.3899 -1.3939 -1.3684
 1040TIP3    H2 3085   2.867   2.390   0.843 -0.1428 -0.8221 -2.3571
 1041TIP3   OH2 3086   2.393   6.631   4.859 -0.2640  0.4433 -0.6766
 1041TIP3    H1 3087   2.349   6.621   4.944  2.1121  0.7175  0.6738
 1041TIP3    H2 3088   2.425   6.544   4.838  0.7738  0.7207 -0.3135
 1042TIP3   OH2 3089   4.505   2.150   0.332 -0.0589  0.1085 -0.0004
 1042TIP3    H1 3090   4.552   2.224   0.292 -0.5444  0.4092 -0.0192
 1042TIP3    H2 3091   4.567   2.115   0.397 -0.8554  2.3979  2.1684
 1043TIP3   OH2 3092   2.515   2.045   2.570 -0.3098  0.2353 -0.0239
 1043TIP3    H1 3093   2.456   2.084   2.506 -1.1275 -0.5120  0.2521
 1043TIP3    H2 3094   2.603   2.072   2.543 -0.8077  1.7982 -0.1388
 1044TIP3   OH2 3095   1.119   1.904   2.145  0.0540 -0.1916  0.1140
 1044TIP3    H1 3096   1.067   1.829   2.174  0.4752 -0.2072  0.8610
 1044TIP3    H2 3097   1.062   1.951   2.085 -0.3503 -0.9124 -0.0751
 1045TIP3   OH2 3098   2.679   1.819   4.008  0.3074 -0.6116  0.5025
 1045TIP3    H1 3099   2.595   1.800   3.965 -0.3292 -0.1159  1.4923
 1045TIP3    H2 3100   2.689   1.748   4.072  0.1374 -0.1227  1.0817
 1046TIP3   OH2 3101   3.890   0.069   2.551  0.0576  0.5363  0.1995
 1046TIP3    H1 3102   3.844   0.055   2.634  1.2871  0.9623  0.9873
 1046TIP3    H2 3103   3.961   0.004   2.551  1.0526  1.5780  0.2740
 1047TIP3   OH2 3104   6.155   3.959   3.463 -0.1151 -0.3751 -0.2102
 1047TIP3    H1 3105   6.141   3.903   3.539  2.0167 -1.9231 -0.8352
 1047TIP3    H2 3106   6.211   4.030   3.494  1.1632 -1.2714 -0.3541
 1048TIP3   OH2 3107   7.046   5.705   0.369  0.4514 -0.2196 -0.2703
 1048TIP3    H1 3108   7.120   5.698   0.309  0.7562 -0.6186  0.1431
 1048TIP3    H2 3109   6.980   5.753   0.320  0.8734 -0.1223 -0.7526
 1049TIP3   OH2 3110   5.581   4.860   0.365  0.3007 -0.4162 -0.5314
 1049TIP3    H1 3111   5.655   4.920   0.377 -1.5918  2.4269 -1.8229
 1049TIP3    H2 3112   5.572   4.815   0.449  0.0734  3.3451  1.6746
 1050TIP3   OH2 3113   1.554   5.739   1.915 -0.4266 -0.1766  0.0338
 1050TIP3    H1 3114   1.599   5.775   1.991 -1.7680 -0.4395  0.9798
 1050TIP3    H2 3115   1.514   5.815   1.873  1.2628  0.1424 -1.1304
 1051TIP3   OH2 3116   6.300   1.615   2.516  0.1303 -0.4471  0.5307
 1051TIP3    H1 3117   6.233   1.657   2.460  0.6848  0.0374  0.2198
 1051TIP3    H2 3118   6.249   1.574   2.585 -0.5950 -1.2189 -0.4222
 1052TIP3   OH2 3119   4.935   3.473   5.247 -0.0622 -0.4213 -0.4803
 1052TIP3    H1 3120   4.842   3.497   5.251 -0.1119 -0.5707 -0.7160
 1052TIP3    H2 3121   4.949   3.449   5.155 -0.1261 -1.7520 -0.1532
 1053TIP3   OH2 3122   2.977   0.651   2.426  0.8080 -0.1964 -0.6114
 1053TIP3    H1 3123   3.068   0.631   2.447  0.9617  0.8780 -0.1660
 1053TIP3    H2 3124   2.982   0.715   2.354  0.5491  2.1462  1.3232
 1054TIP3   OH2 3125   5.952   3.639   4.909  0.0671 -1.3068 -0.0414
 1054TIP3    H1 3126   6.041   3.618   4.880  0.1347 -1.1449  0.0470
 1054TIP3    H2 3127   5.957   3.640   5.004  0.4196  0.5718 -0.0510
 1055TIP3   OH2 3128   4.932   3.942   0.477  0.4685  0.0688  0.0222
 1055TIP3    H1 3129   5.019   3.908   0.460  1.1278  1.0269  1.2781
 1055TIP3    H2 3130   4.904   3.897   0.557 -0.0405  0.0295 -0.1741
 1056TIP3   OH2 3131   1.880   6.417   0.304  0.6653 -0.0458 -0.2660
 1056TIP3    H1 3132   1.939   6.492   0.316  1.7480 -1.0292  0.7548
 1056TIP3    H2 3133   1.796   6.447   0.339  1.3236  0.4134  0.9826
 1057TIP3   OH2 3134   2.094   0.405   0.326  0.4490  0.0519  0.0777
 1057TIP3    H1 3135   2.072   0.323   0.283  0.2031  0.7859 -1.2525
 1057TIP3    H2 3136   2.055   0.473   0.270 -0.7375  1.0229  1.9680
 1058TIP3   OH2 3137   5.310   0.783   5.840 -0.0732  0.2560 -0.2818
 1058TIP3    H1 3138   5.290   0.711   5.781 -0.4857 -0.9175  1.2494
 1058TIP3    H2 3139   5.359   0.743   5.912 -2.8583  0.8499  2.1361
 1059TIP3   OH2 3140   5.808   5.028   0.443 -0.1390 -0.0395  0.7333
 1059TIP3    H1 3141   5.846   4.959   0.498  0.8442  1.6008  2.2057
 1059TIP3    H2 3142   5.884   5.073   0.406 -0.7237  1.0247  0.8006
 1060TIP3   OH2 3143   6.575   1.337   2.871 -0.0575  0.7252 -0.6151
 1060TIP3    H1 3144   6.534   1.357   2.955 -1.0703  0.9085 -1.1265
 1060TIP3    H2 3145   6.656   1.292   2.893  0.7314  2.5922  0.5143
 1061TIP3   OH2 3146   2.027   1.521   1.051 -0.0855  0.1780 -0.2595
 1061TIP3    H1 3147   2.016   1.495   1.143  0.1040  0.6355 -0.1078
 1061TIP3    H2 3148   1.949   1.572   1.031 -0.5035 -0.5647 -0.5877
 1062TIP3   OH2 3149   4.668   1.198   0.172 -0.4738  0.4445 -0.0028
 1062TIP3    H1 3150   4.637   1.110   0.195 -0.5934  0.1143 -1.3498
 1062TIP3    H2 3151   4.762   1.196   0.188 -0.3408 -0.2062 -0.8299
 1063TIP3   OH2 3152   6.315   4.357   1.471 -0.1534  0.2654 -0.4492
 1063TIP3    H1 3153   6.375   4.339   1.544 -2.0483  0.1424  1.1779
 1063TIP3    H2 3154   6.368   4.403   1.406  1.4108  1.2016  1.4029
 1064TIP3   OH2 3155   3.904   4.024   1.134 -0.6147  0.1003 -0.2136
 1064TIP3    H1 3156   3.920   4.020   1.040  0.4767  0.5858 -0.0626
 1064TIP3    H2 3157   3.860   4.108   1.147 -3.0714 -1.0318 -0.5679
 1065TIP3   OH2 3158   1.557   5.818   4.680  0.3069  0.1462  0.1775
 1065TIP3    H1 3159   1.473   5.815   4.635  0.3874  1.9506 -0.1803
 1065TIP3    H2 3160   1.622   5.800   4.611  0.2289 -2.4575  0.6771
 1066TIP3   OH2 3161   4.087   3.368   5.132 -0.4383 -0.2092  0.7037
 1066TIP3    H1 3162   4.045   3.443   5.089 -1.0242 -1.7377 -1.5957
 1066TIP3    H2 3163   4.160   3.406   5.181 -0.6974  1.8531 -0.3992
 1067TIP3   OH2 3164   0.310   3.678   3.276 -0.7044 -0.0288  0.6072
 1067TIP3    H1 3165   0.231   3.710   3.232 -0.2722  0.3819  0.1145
 1067TIP3    H2 3166   0.338   3.603   3.223 -0.5488  0.0626  0.5607
 1068TIP3   OH2 3167   0.038   3.588   1.143  0.8468  0.0930  0.1843
 1068TIP3    H1 3168   0.024   3.514   1.085  0.4825 -0.3643  0.8334
 1068TIP3    H2 3169   0.049   3.663   1.085  0.8024 -0.3990 -0.4723
 1069TIP3   OH2 3170   5.879   1.144   0.679  0.3280  0.4640  0.3651
 1069TIP3    H1 3171   5.901   1.054   0.702  2.0016  1.1195  1.5086
 1069TIP3    H2 3172   5.784   1.142   0.662 -0.0601 -1.1096  2.3165
 1070TIP3   OH2 3173   6.964   4.048   1.107  0.1970  0.0679 -0.5248
 1070TIP3    H1 3174   6.906   3.977   1.080  1.7270 -1.0720 -0.9858
 1070TIP3    H2 3175   6.932   4.074   1.194 -1.1585 -0.3009 -0.8957
 1071TIP3   OH2 3176   5.577   3.582   5.784 -0.2256 -0.4097 -0.4993
 1071TIP3    H1 3177   5.663   3.568   5.824 -0.2629 -2.4955 -1.0607
 1071TIP3    H2 3178   5.583   3.540   5.698 -1.9289 -0.9494 -0.3925
 1072TIP3   OH2 3179   4.001   6.723   5.267 -0.5989  0.0720  0.8492
 1072TIP3    H1 3180   3.963   6.650   5.316 -1.2034  0.6999  1.3191
 1072TIP3    H2 3181   4.077   6.684   5.223  0.1103 -0.4727  2.4545
 1073TIP3   OH2 3182   2.830   5.238   5.708 -0.6721  0.1820 -0.1399
 1073TIP3    H1 3183   2.880   5.225   5.788  1.9288 -0.7459 -1.7961
 1073TIP3    H2 3184   2.870   5.315   5.667 -0.6757 -0.4733 -1.4316
 1074TIP3   OH2 3185   6.740   3.878   3.639  0.0233  0.2692  0.4891
 1074TIP3    H1 3186   6.730   3.919   3.725  0.5392 -1.1582  1.2654
 1074TIP3    H2 3187   6.710   3.788   3.651 -2.2622  0.6807 -1.4886
 1075TIP3   OH2 3188   7.003   3.576   2.694  0.0055  0.0068  0.2458
 1075TIP3    H1 3189   7.046   3.496   2.724  0.7744  0.6745  1.0054
 1075TIP3    H2 3190   6.995   3.566   2.599  0.6097 -0.7125  0.2637
 1076TIP3   OH2 3191   3.495   2.967   3.013  0.4508  0.0428 -0.1060
 1076TIP3    H1 3192   3.469   3.049   2.971 -2.0323 -0.8314 -0.4063
 1076TIP3    H2 3193   3.504   2.990   3.106  1.9082  1.0755 -0.4683
 1077TIP3   OH2 3194   6.371   1.642   0.164 -0.0645  0.3405  0.6833
 1077TIP3    H1 3195   6.284   1.628   0.126 -0.4414  2.4235  0.6598
 1077TIP3    H2 3196   6.399   1.555   0.193 -1.2097 -0.7599 -1.2578
 1078TIP3   OH2 3197   6.926   0.720   4.847  0.2171 -0.6113  0.0410
 1078TIP3    H1 3198   6.873   0.700   4.770  0.7239  0.7068 -0.6795
 1078TIP3    H2 3199   6.879   0.791   4.891  0.3108 -0.8615  0.5581
 1079TIP3   OH2 3200   5.318   2.856   4.038  0.0146 -0.1857  0.2006
 1079TIP3    H1 3201   5.229   2.828   4.061  0.7060 -2.4527  0.3260
 1079TIP3    H2 3202   5.319   2.853   3.942  0.2417 -1.2366  0.2213
 1080TIP3   OH2 3203   4.880   4.509   1.933 -0.1368 -0.8310 -0.0010
 1080TIP3    H1 3204   4.939   4.568   1.979  0.5370 -1.4710 -0.0279
 1080TIP3    H2 3205   4.886   4.535   1.841  0.2809 -1.0359 -0.0349
 1081TIP3   OH2 3206   5.856   2.907   4.943  0.0566 -0.5910  0.4022
 1081TIP3    H1 3207   5.796   2.853   4.993 -0.4019 -2.4409 -1.9847
 1081TIP3    H2 3208   5.799   2.963   4.890  0.5250  0.7800  1.2941
 1082TIP3   OH2 3209   2.860   4.119   1.975  0.0836  0.0041  0.0271
 1082TIP3    H1 3210   2.808   4.053   2.020  1.9450 -1.5023  0.1193
 1082TIP3    H2 3211   2.913   4.069   1.913 -0.8445  1.8014 -2.3698
 1083TIP3   OH2 3212   3.366   1.455   3.714 -0.0069 -0.6127  0.4231
 1083TIP3    H1 3213   3.336   1.365   3.704  1.4569 -1.0756 -0.0641
 1083TIP3    H2 3214   3.444   1.461   3.658 -0.0430  0.9446  0.4803
 1084TIP3   OH2 3215   4.047   1.893   1.949 -0.1205  0.1481 -0.4348
 1084TIP3    H1 3216   3.965   1.904   1.900  1.1590  0.8629 -2.5574
 1084TIP3    H2 3217   4.115   1.906   1.884  1.7139 -1.0255  1.1486
 1085TIP3   OH2 3218   5.630   2.434   5.371 -0.8049 -0.2582  0.3460
 1085TIP3    H1 3219   5.628   2.359   5.312  1.2801 -0.3366  0.3111
 1085TIP3    H2 3220   5.697   2.412   5.436 -0.6872  1.2529  0.7757
 1086TIP3   OH2 3221   1.617   1.841   0.427 -0.4722  0.3664 -0.2985
 1086TIP3    H1 3222   1.572   1.763   0.461 -0.4734  0.8291  0.7983
 1086TIP3    H2 3223   1.611   1.905   0.498  0.6476  0.9322 -0.6918
 1087TIP3   OH2 3224   1.823   6.088   2.534  0.1674 -1.0537  0.0780
 1087TIP3    H1 3225   1.917   6.076   2.522  0.2576 -0.4599  0.1700
 1087TIP3    H2 3226   1.801   6.164   2.480 -0.1063 -0.6682  0.7228
 1088TIP3   OH2 3227   1.902   0.916   0.727  0.3094 -0.0126 -0.1681
 1088TIP3    H1 3228   1.955   0.878   0.797  0.2837  0.6732  0.2389
 1088TIP3    H2 3229   1.834   0.965   0.774  1.6801  2.4408 -0.6204
 1089TIP3   OH2 3230   3.021   4.529   4.547 -0.1334  0.0490  0.0446
 1089TIP3    H1 3231   3.017   4.453   4.489  1.0426  0.6952 -0.9217
 1089TIP3    H2 3232   2.936   4.571   4.537  0.7408  1.3519 -2.9576
 1090TIP3   OH2 3233   6.180   1.230   5.211 -0.1509 -0.2461  0.6036
 1090TIP3    H1 3234   6.215   1.202   5.296  1.1470  0.3546  0.2869
 1090TIP3    H2 3235   6.197   1.156   5.153 -0.0998 -0.2478  0.6203
 1091TIP3   OH2 3236   3.457   3.796   5.695 -0.3806 -0.3875  0.2267
 1091TIP3    H1 3237   3.508   3.716   5.687 -0.0921 -0.2348  0.5143
 1091TIP3    H2 3238   3.383   3.784   5.634  1.3018  0.4283 -2.1279
 1092TIP3   OH2 3239   3.563   1.148   0.866  0.2818  0.3312 -0.0971
 1092TIP3    H1 3240   3.478   1.171   0.831  0.3817  1.9823  0.6394
 1092TIP3    H2 3241   3.621   1.143   0.790  0.1558  2.2553 -0.3601
 1093TIP3   OH2 3242   4.155   6.646   1.632 -0.1283  0.3422  0.2508
 1093TIP3    H1 3243   4.190   6.702   1.701  0.4738 -1.3278  1.3547
 1093TIP3    H2 3244   4.086   6.699   1.591 -0.1021  1.5964  1.7418
 1094TIP3   OH2 3245   6.405   5.527   0.725  0.0383  0.0977  0.1532
 1094TIP3    H1 3246   6.344   5.454   0.727 -0.9310  0.8810 -0.0333
 1094TIP3    H2 3247   6.473   5.504   0.789 -0.9237 -0.3925  1.0301
 1095TIP3   OH2 3248   4.314   1.828   5.791 -0.2651 -0.7194  0.6684
 1095TIP3    H1 3249   4.333   1.735   5.792 -1.9395 -1.1202 -0.5603
 1095TIP3    H2 3250   4.223   1.835   5.819  0.3774  0.7619  2.6293
 1096TIP3   OH2 3251   2.660   3.873   4.433  0.1865 -0.1685  0.1328
 1096TIP3    H1 3252   2.590   3.833   4.484  1.0406 -1.0347  0.6678
 1096TIP3    H2 3253   2.710   3.799   4.398 -1.0323  0.3296 -3.0181
 1097TIP3   OH2 3254   1.290   4.032   0.941 -0.2607 -0.5013 -0.0461
 1097TIP3    H1 3255   1.373   4.012   0.985 -0.2039 -1.3563 -0.5135
 1097TIP3    H2 3256   1.295   4.126   0.923 -0.1830 -0.1818  1.5288
 1098TIP3   OH2 3257   7.034   0.520   3.883  0.0897  0.1384 -0.1827
 1098TIP3    H1 3258   6.993   0.450   3.831 -1.9061  0.7782  0.4328
 1098TIP3    H2 3259   7.089   0.567   3.820 -1.2049  0.0689 -1.4391
 1099TIP3   OH2 3260   7.121   2.690   0.151  0.1749  0.0447 -0.4727
 1099TIP3    H1 3261   7.199   2.655   0.193  2.1073  0.2948 -3.6035
 1099TIP3    H2 3262   7.128   2.664   0.059 -2.6642  1.3897 -1.1995
 1100TIP3   OH2 3263   6.893   4.451   4.543 -0.2005  0.2647 -0.0184
 1100TIP3    H1 3264   6.816   4.418   4.589 -0.3808 -0.0101 -0.5037
 1100TIP3    H2 3265   6.858   4.520   4.485 -0.0936  0.0981 -0.2823
 1101TIP3   OH2 3266   6.346   3.740   2.680 -0.9714 -0.6380  0.0228
 1101TIP3    H1 3267   6.360   3.784   2.763 -0.5657 -0.4298 -0.1562
 1101TIP3    H2 3268   6.395   3.658   2.687 -0.7642 -0.5247 -0.0894
 1102TIP3   OH2 3269   0.231   5.213   0.001  0.0401 -0.0746  0.1046
 1102TIP3    H1 3270   0.315   5.238   0.039 -0.7684  0.1238  1.8981
 1102TIP3    H2 3271   0.193   5.296  -0.028  0.6998 -0.2371 -1.3037
 1103TIP3   OH2 3272   1.781   1.827   4.461 -0.5421  0.2195  0.1033
 1103TIP3    H1 3273   1.803   1.751   4.514  1.0945  1.1283  0.8224
 1103TIP3    H2 3274   1.839   1.821   4.385 -0.9241  0.3690 -0.2056
 1104TIP3   OH2 3275   0.379   5.607   0.017 -0.1744 -0.0701 -0.5266
 1104TIP3    H1 3276   0.313   5.538   0.011 -1.7778  1.3090  0.4519
 1104TIP3    H2 3277   0.329   5.688   0.024  1.6317  1.0659 -0.0383
 1105TIP3   OH2 3278   5.050   3.835   5.549  0.2811 -0.1369  1.1121
 1105TIP3    H1 3279   5.034   3.740   5.546 -0.9269  0.0775 -1.4068
 1105TIP3    H2 3280   5.125   3.848   5.491  0.1005  0.5056  1.0248
 1106TIP3   OH2 3281   4.806   5.521   4.374 -0.1333 -0.0783 -0.3342
 1106TIP3    H1 3282   4.840   5.433   4.388  0.6904  0.2851  0.0159
 1106TIP3    H2 3283   4.755   5.539   4.453  2.2441  0.9110  1.0834
 1107TIP3   OH2 3284   2.927   5.821   2.553  0.2240 -0.2333  0.3638
 1107TIP3    H1 3285   2.867   5.792   2.621 -0.5348 -0.3545 -0.3511
 1107TIP3    H2 3286   2.953   5.909   2.579 -1.0621  0.2250  0.1581
 1108TIP3   OH2 3287   6.066   6.415   1.764  0.6061  0.3451  0.0176
 1108TIP3    H1 3288   6.067   6.496   1.815  1.3982 -1.2922  2.8104
 1108TIP3    H2 3289   6.059   6.346   1.829  0.0136 -1.8871 -2.2562
 1109TIP3   OH2 3290   0.607   0.193   3.105  0.2643 -0.4859  0.3338
 1109TIP3    H1 3291   0.673   0.162   3.043 -0.4423 -2.1548  0.3606
 1109TIP3    H2 3292   0.536   0.226   3.050 -0.8771 -3.0364  0.1111
 1110TIP3   OH2 3293   3.767   6.397   4.057  0.0948 -0.1453  0.2982
 1110TIP3    H1 3294   3.769   6.490   4.078  2.2419 -0.3597  1.4067
 1110TIP3    H2 3295   3.857   6.377   4.029 -0.1139 -2.0089  0.8094
 1111TIP3   OH2 3296   1.213   0.639   2.120  0.1197 -0.6590  0.0770
 1111TIP3    H1 3297   1.148   0.635   2.189  0.3071  0.0252  0.2958
 1111TIP3    H2 3298   1.252   0.551   2.118 -0.6765 -1.0165  0.0600
 1112TIP3   OH2 3299   1.289   2.489   5.052 -0.1287 -0.2886  0.2666
 1112TIP3    H1 3300   1.261   2.554   5.116 -0.2898 -1.5817  1.5507
 1112TIP3    H2 3301   1.277   2.405   5.096 -0.0750 -1.2108 -1.4031
 1113TIP3   OH2 3302   7.097   1.399   1.149  0.0380 -0.2955  0.2641
 1113TIP3    H1 3303   7.143   1.352   1.079 -0.2334  0.3041 -0.3270
 1113TIP3    H2 3304   7.041   1.332   1.189 -0.6624 -0.4108 -0.8412
 1114TIP3   OH2 3305   6.871   3.094   2.811  0.1500  0.4984  0.4169
 1114TIP3    H1 3306   6.900   3.052   2.891  3.1216 -0.2702 -0.9184
 1114TIP3    H2 3307   6.841   3.022   2.755  1.1670  0.5977 -0.2940
 1115TIP3   OH2 3308   6.930   4.089   2.240 -0.2683 -0.5239  0.4287
 1115TIP3    H1 3309   6.961   4.099   2.151  1.6331 -0.3749  1.0635
 1115TIP3    H2 3310   6.840   4.122   2.238  0.2414  0.9158 -1.1029
 1116TIP3   OH2 3311   0.183   2.689   2.448 -0.3315 -0.9662 -0.2181
 1116TIP3    H1 3312   0.239   2.670   2.373 -1.1648  0.9300 -1.4007
 1116TIP3    H2 3313   0.113   2.624   2.443 -0.0394 -1.2509 -0.7038
 1117TIP3   OH2 3314   4.238   2.654   4.846 -0.0219  0.7961 -0.4510
 1117TIP3    H1 3315   4.211   2.732   4.894 -2.2164  0.6151 -1.2983
 1117TIP3    H2 3316   4.214   2.672   4.755  3.2054  0.7543 -1.4428
 1118TIP3   OH2 3317   3.783   1.742   3.053 -0.1910  0.0807  0.0791
 1118TIP3    H1 3318   3.695   1.777   3.041  0.3070  1.5567  0.5494
 1118TIP3    H2 3319   3.770   1.653   3.085 -1.4997  0.0476 -0.4971
 1119TIP3   OH2 3320   2.879   1.790   4.761  0.4510  0.7488  0.1161
 1119TIP3    H1 3321   2.830   1.824   4.686  0.1548 -0.1246 -0.0894
 1119TIP3    H2 3322   2.966   1.829   4.752  1.1641 -1.1169 -1.9864
 1120TIP3   OH2 3323   1.398   4.734   1.282  0.1472  0.3820 -1.0037
 1120TIP3    H1 3324   1.424   4.710   1.193 -2.6106 -1.3422 -1.4603
 1120TIP3    H2 3325   1.415   4.656   1.334  3.5201  1.9606  0.5432
 1121TIP3   OH2 3326   5.597   1.002   1.281  0.0196  0.1957  0.1406
 1121TIP3    H1 3327   5.679   1.042   1.307  0.9101 -0.8305 -0.9886
 1121TIP3    H2 3328   5.620   0.912   1.256 -1.5906 -0.4124  0.6957
 1122TIP3   OH2 3329   6.381   3.829   0.653  0.1105  0.8378  0.3205
 1122TIP3    H1 3330   6.408   3.857   0.565 -0.0511  0.8606  0.2791
 1122TIP3    H2 3331   6.413   3.739   0.660 -1.3257  0.2377 -0.3855
 1123TIP3   OH2 3332   5.374   5.379   4.473 -0.1288 -0.0454 -0.0793
 1123TIP3    H1 3333   5.419   5.298   4.449 -1.1821 -0.7305  0.1671
 1123TIP3    H2 3334   5.309   5.351   4.538 -1.0846  0.8577 -0.6200
 1124TIP3   OH2 3335   1.407   6.373   3.227  0.1294 -0.3142 -0.3306
 1124TIP3    H1 3336   1.398   6.304   3.293 -1.6189  0.2167  0.0389
 1124TIP3    H2 3337   1.375   6.333   3.146  1.6018 -0.7367 -0.7368
 1125TIP3   OH2 3338   3.153   6.286   2.317 -0.0230  0.6483 -0.1622
 1125TIP3    H1 3339   3.061   6.260   2.310 -0.0760  0.9594 -0.6630
 1125TIP3    H2 3340   3.162   6.318   2.407 -0.4329  0.7100 -0.1406
 1126TIP3   OH2 3341   0.132   4.494   0.609 -0.4462 -0.1302  0.4471
 1126TIP3    H1 3342   0.225   4.510   0.594 -0.4150 -0.0225  0.7542
 1126TIP3    H2 3343   0.130   4.421   0.672 -0.5676 -0.0869  0.4937
 1127TIP3   OH2 3344   2.324   1.708   0.517  0.1596  0.6548  0.2538
 1127TIP3    H1 3345   2.267   1.784   0.517 -1.1929 -0.2698  2.3383
 1127TIP3    H2 3346   2.384   1.721   0.590  0.7338  0.2682 -0.1291
 1128TIP3   OH2 3347   4.273   6.474   2.107  0.2515 -0.1173  0.1147
 1128TIP3    H1 3348   4.336   6.403   2.096  2.0762  1.5299 -0.6917
 1128TIP3    H2 3349   4.327   6.554   2.107 -1.7341  1.2963  0.6847
 1129TIP3   OH2 3350   6.510   3.204   2.932  0.4629 -0.1806  0.1065
 1129TIP3    H1 3351   6.502   3.141   2.860 -0.4956 -2.1950  1.8576
 1129TIP3    H2 3352   6.459   3.165   3.003 -0.1480  2.6145  1.3184
 1130TIP3   OH2 3353   4.513   2.445   4.651  0.0476  0.6084  0.0997
 1130TIP3    H1 3354   4.507   2.436   4.746  0.5507 -2.8244 -0.0583
 1130TIP3    H2 3355   4.429   2.411   4.619  0.5147  0.2264 -0.7249
 1131TIP3   OH2 3356   2.942   0.647   5.610 -0.0821 -0.6014  0.6432
 1131TIP3    H1 3357   2.863   0.669   5.562  0.7725  1.9711  0.3039
 1131TIP3    H2 3358   3.005   0.620   5.543 -0.1362 -1.0465  0.7628
 1132TIP3   OH2 3359   2.930   0.590   4.373 -0.1637 -0.2148  0.3015
 1132TIP3    H1 3360   2.858   0.617   4.316  0.0676  0.7270  0.4424
 1132TIP3    H2 3361   2.909   0.500   4.397 -0.8643 -0.2301 -0.3284
 1133TIP3   OH2 3362   1.283   1.645   2.315  0.1101  0.8953 -0.0579
 1133TIP3    H1 3363   1.275   1.601   2.399 -0.3864  1.2035  0.0616
 1133TIP3    H2 3364   1.210   1.707   2.313  0.2298  1.0280 -0.6316
 1134TIP3   OH2 3365   6.895   6.769   2.274  0.2114  0.1065 -0.2128
 1134TIP3    H1 3366   6.975   6.743   2.228  0.4584 -0.3746  0.4833
 1134TIP3    H2 3367   6.852   6.687   2.296  0.5971  0.2815  1.2980
 1135TIP3   OH2 3368   4.824   3.367   0.937 -1.0044  0.0528  0.2036
 1135TIP3    H1 3369   4.804   3.452   0.898  1.5208  0.5732 -0.1403
 1135TIP3    H2 3370   4.863   3.317   0.866  0.2242 -0.3261  1.1152
 1136TIP3   OH2 3371   0.997   1.593   2.740 -0.2651 -0.1247  0.1956
 1136TIP3    H1 3372   1.027   1.679   2.711  0.5611  0.2953  2.1003
 1136TIP3    H2 3373   0.957   1.609   2.826 -0.6898 -1.5445  0.2887
 1137TIP3   OH2 3374   6.512   3.579   0.721 -0.2052 -0.0185 -0.1701
 1137TIP3    H1 3375   6.602   3.610   0.731 -0.6163  0.9946  0.5147
 1137TIP3    H2 3376   6.517   3.485   0.737  0.2638  0.4602  3.1636
 1138TIP3   OH2 3377   4.762   1.504   4.484  0.0266  0.1516 -0.1298
 1138TIP3    H1 3378   4.837   1.561   4.497  0.5598 -0.3693 -0.8711
 1138TIP3    H2 3379   4.712   1.511   4.566  0.3250  1.3076 -0.0360
 1139TIP3   OH2 3380   1.698   4.595   2.807 -0.0570 -0.3554 -0.0139
 1139TIP3    H1 3381   1.632   4.592   2.875 -1.6929  1.3456 -1.4245
 1139TIP3    H2 3382   1.770   4.646   2.845 -0.2686 -0.7478  0.9394
 1140TIP3   OH2 3383   6.006   0.126   2.289  0.7596 -0.0294 -0.4657
 1140TIP3    H1 3384   5.968   0.211   2.309  1.7190  0.3500 -0.1975
 1140TIP3    H2 3385   5.988   0.073   2.366  0.1066 -0.0944 -0.6585
 1141TIP3   OH2 3386   6.753   0.415   4.890 -0.6531  0.2002  0.2535
 1141TIP3    H1 3387   6.741   0.509   4.874  0.1558  0.3436  0.4260
 1141TIP3    H2 3388   6.673   0.374   4.859 -0.9685  0.9445  0.0811
 1142TIP3   OH2 3389   7.128   2.955   1.589 -0.0824 -0.5948 -0.3346
 1142TIP3    H1 3390   7.058   2.895   1.614 -0.5878 -0.0409 -0.3937
 1142TIP3    H2 3391   7.109   2.976   1.497 -0.6928  0.6839  0.0597
 1143TIP3   OH2 3392   1.121   5.894   1.292 -0.2619 -0.1521 -0.5438
 1143TIP3    H1 3393   1.055   5.960   1.269  0.9153  0.6596 -1.7427
 1143TIP3    H2 3394   1.103   5.874   1.384 -2.4124 -0.2605 -0.9382
 1144TIP3   OH2 3395   4.456   4.230   4.358 -0.3949 -0.5479  0.2121
 1144TIP3    H1 3396   4.455   4.172   4.434 -0.4284 -0.5758  0.1900
 1144TIP3    H2 3397   4.374   4.211   4.311 -0.2368 -0.7343  0.0131
 1145TIP3   OH2 3398   1.151   1.183   3.171  0.0228  0.0465  0.0551
 1145TIP3    H1 3399   1.154   1.155   3.263 -1.4188  2.7311  1.0116
 1145TIP3    H2 3400   1.087   1.124   3.131  0.6078 -1.1112  0.7555
 1146TIP3   OH2 3401   1.356   5.817   2.159 -0.1482 -0.3116  0.2597
 1146TIP3    H1 3402   1.355   5.722   2.148 -1.6428 -0.4103  1.0021
 1146TIP3    H2 3403   1.283   5.835   2.219 -0.2383  1.3478 -0.2948
 1147TIP3   OH2 3404   4.341   5.036   2.733 -0.1701 -0.1049  0.2015
 1147TIP3    H1 3405   4.382   5.068   2.814  1.0818  0.5480 -0.6486
 1147TIP3    H2 3406   4.307   5.115   2.692 -0.5479 -0.3982 -0.0408
 1148TIP3   OH2 3407   3.372   5.216   2.635  0.3907 -0.5715  0.0112
 1148TIP3    H1 3408   3.363   5.191   2.544  3.8777 -0.5039 -0.5106
 1148TIP3    H2 3409   3.399   5.308   2.633  2.2305 -1.0388  0.9299
 1149TIP3   OH2 3410   4.428   3.767   5.270 -0.4453 -0.0595 -0.6964
 1149TIP3    H1 3411   4.349   3.759   5.323  0.0674 -0.5243  0.0099
 1149TIP3    H2 3412   4.429   3.859   5.243 -0.2771  0.4148  0.8220
 1150TIP3   OH2 3413   6.335   3.394   1.313  1.0032  0.3009  0.1886
 1150TIP3    H1 3414   6.402   3.325   1.319  0.7969  0.1790  1.3283
 1150TIP3    H2 3415   6.252   3.348   1.327  0.7601  0.6055 -0.2291
 1151TIP3   OH2 3416   6.115   2.862   0.763  0.0280  0.0040  0.4012
 1151TIP3    H1 3417   6.097   2.817   0.680 -1.0664 -1.5481  1.4291
 1151TIP3    H2 3418   6.209   2.881   0.759  0.3704 -1.6044 -0.4781
 1152TIP3   OH2 3419   6.631   6.020   4.525 -0.0176 -0.0280  0.1106
 1152TIP3    H1 3420   6.629   6.093   4.586 -1.2068  0.1479 -0.1081
 1152TIP3    H2 3421   6.644   5.943   4.579 -0.3466  0.1930  0.5049
 1153TIP3   OH2 3422   2.200   4.231   4.266  0.2629  0.4386 -0.0450
 1153TIP3    H1 3423   2.198   4.317   4.309  1.1021  0.2245  0.4360
 1153TIP3    H2 3424   2.212   4.251   4.173  0.3158  0.8493  0.0466
 1154TIP3   OH2 3425   1.362   1.633   4.255 -0.3415  0.0087  0.0854
 1154TIP3    H1 3426   1.315   1.550   4.252  0.6743 -0.5459 -0.7921
 1154TIP3    H2 3427   1.431   1.620   4.320  1.6279 -0.8512 -2.0623
 1155TIP3   OH2 3428   1.910   5.503   3.576 -0.3277 -0.3503  0.0972
 1155TIP3    H1 3429   1.894   5.441   3.647  2.0588 -0.4585  0.6494
 1155TIP3    H2 3430   1.975   5.458   3.520 -0.3042  0.7303 -0.7721
 1156TIP3   OH2 3431   0.363   1.059   2.741 -0.0618 -0.0802  0.0148
 1156TIP3    H1 3432   0.369   1.120   2.667  0.3794 -0.2034 -0.0550
 1156TIP3    H2 3433   0.454   1.034   2.758 -0.2054 -0.4023  0.3071
 1157TIP3   OH2 3434   4.821   2.773   0.996  0.0135 -0.0547  0.3923
 1157TIP3    H1 3435   4.910   2.742   0.980 -0.2012 -0.1825 -0.6128
 1157TIP3    H2 3436   4.793   2.728   1.076  0.2101 -1.3741 -0.2661
 1158TIP3   OH2 3437   1.390   5.442   3.071 -0.0226  0.5637 -0.1407
 1158TIP3    H1 3438   1.475   5.486   3.073 -0.2351  0.9875  1.9073
 1158TIP3    H2 3439   1.402   5.370   3.008  2.5326 -0.6395  1.5028
 1159TIP3   OH2 3440   2.083   1.620   5.751  0.0041 -0.1956  0.1436
 1159TIP3    H1 3441   2.127   1.630   5.835 -0.6690  1.8742  0.3132
 1159TIP3    H2 3442   2.013   1.557   5.768  1.1500 -1.3992  0.5591
 1160TIP3   OH2 3443   0.887   2.918   5.696 -0.2177 -0.2227  0.0968
 1160TIP3    H1 3444   0.902   2.826   5.715  0.1888 -0.3024 -0.6110
 1160TIP3    H2 3445   0.968   2.962   5.722 -0.3382 -0.0902  0.2506
 1161TIP3   OH2 3446   4.100   3.540   0.193  0.4121  0.1598 -0.5958
 1161TIP3    H1 3447   4.024   3.489   0.163 -0.3888  1.1487 -0.3059
 1161TIP3    H2 3448   4.175   3.482   0.179 -0.4359 -0.9785 -0.5605
 1162TIP3   OH2 3449   5.109   1.347   0.538  0.1143 -0.0498  0.1285
 1162TIP3    H1 3450   5.114   1.257   0.504  0.1201  0.3602 -1.0031
 1162TIP3    H2 3451   5.130   1.402   0.463 -0.2678  0.9242  0.7168
 1163TIP3   OH2 3452   0.030   0.713   4.653 -0.0858  0.3219  0.3459
 1163TIP3    H1 3453   0.073   0.628   4.645 -1.1173 -0.3060  1.2565
 1163TIP3    H2 3454  -0.020   0.723   4.572  1.8565  1.1531 -0.8216
 1164TIP3   OH2 3455   4.498   3.416   3.780  0.5560 -0.2475 -0.4192
 1164TIP3    H1 3456   4.426   3.426   3.841  1.3284  0.2726  0.4332
 1164TIP3    H2 3457   4.573   3.391   3.835  1.1239 -0.3630 -1.2227
 1165TIP3   OH2 3458   6.169   1.282   2.461 -0.0112  0.4668  0.0041
 1165TIP3    H1 3459   6.085   1.323   2.481 -0.6520 -0.3949 -0.8338
 1165TIP3    H2 3460   6.158   1.247   2.372  1.2253  0.3175 -0.1054
 1166TIP3   OH2 3461   5.656   3.308   2.891 -0.0549 -0.2168 -0.2518
 1166TIP3    H1 3462   5.680   3.218   2.869 -2.0947 -1.1255  0.9297
 1166TIP3    H2 3463   5.702   3.326   2.973 -0.1474 -0.4260 -0.1534
 1167TIP3   OH2 3464   6.889   1.866   1.466 -0.3628  0.2930 -0.1418
 1167TIP3    H1 3465   6.818   1.931   1.470 -1.4189 -0.5431 -2.8027
 1167TIP3    H2 3466   6.951   1.895   1.533 -2.7310  1.6127  1.6634
 1168TIP3   OH2 3467   4.103   0.466   3.810 -0.3783  0.2571 -0.0827
 1168TIP3    H1 3468   4.048   0.400   3.853  1.3645 -1.8214 -0.8979
 1168TIP3    H2 3469   4.100   0.541   3.869 -2.6798 -0.3944  0.7298
 1169TIP3   OH2 3470   1.989   3.483   1.182 -0.0799 -0.0992 -0.1214
 1169TIP3    H1 3471   2.014   3.573   1.164  0.0773 -0.2358 -0.6137
 1169TIP3    H2 3472   1.939   3.487   1.263 -0.8644  0.5520 -0.6252
 1170TIP3   OH2 3473   5.662   3.348   3.173 -0.1925  0.2456 -0.1314
 1170TIP3    H1 3474   5.575   3.359   3.211  0.5828  0.4810  1.6944
 1170TIP3    H2 3475   5.695   3.267   3.212 -0.3204 -0.9668 -2.3721
 1171TIP3   OH2 3476   6.722   5.047   4.803 -0.5482  0.1975  0.2711
 1171TIP3    H1 3477   6.752   5.036   4.893  3.0432  0.9885 -0.6768
 1171TIP3    H2 3478   6.693   4.960   4.777 -2.4714  0.1136  2.3525
 1172TIP3   OH2 3479   4.634   4.898   2.893 -0.0836  0.3576  0.3388
 1172TIP3    H1 3480   4.630   4.993   2.887  0.6784  0.4246  0.8209
 1172TIP3    H2 3481   4.686   4.880   2.971  1.5407 -0.4396 -0.8522
 1173TIP3   OH2 3482   2.843   5.800   0.149 -0.2532 -0.3351 -0.1431
 1173TIP3    H1 3483   2.758   5.836   0.173 -0.5364  0.2988 -1.9447
 1173TIP3    H2 3484   2.906   5.868   0.172 -0.4755  0.0837 -0.7503
 1174TIP3   OH2 3485   5.470   1.510   5.638 -0.0997 -0.2631 -0.6634
 1174TIP3    H1 3486   5.404   1.471   5.580  0.0048  0.0354 -0.9890
 1174TIP3    H2 3487   5.489   1.595   5.598 -0.6640  0.3304  0.2793
 1175TIP3   OH2 3488   6.678   2.976   3.707  0.4651  0.0583 -0.6710
 1175TIP3    H1 3489   6.709   3.025   3.783 -1.3778 -1.2489  1.0236
 1175TIP3    H2 3490   6.746   2.911   3.691 -0.7158 -2.2151  2.4528
 1176TIP3   OH2 3491   5.387   5.702   5.451  0.5106 -0.0142  0.3733
 1176TIP3    H1 3492   5.302   5.658   5.447  0.1651  0.7329 -1.3962
 1176TIP3    H2 3493   5.373   5.785   5.405  1.5885  1.2124  2.1558
 1177TIP3   OH2 3494   6.516   5.529   5.234 -0.1625  0.2306  0.6924
 1177TIP3    H1 3495   6.601   5.559   5.264  0.5871 -1.1811  0.0602
 1177TIP3    H2 3496   6.461   5.531   5.312 -0.1032  2.9100  0.7395
 1178TIP3   OH2 3497   5.503   2.767   0.118  0.1270 -0.1267 -0.0377
 1178TIP3    H1 3498   5.492   2.861   0.104  0.2766  0.3076  2.4260
 1178TIP3    H2 3499   5.595   2.756   0.139  0.3185 -0.9906 -1.2471
 1179TIP3   OH2 3500   6.806   1.639   5.090  0.1793 -0.1756 -0.1347
 1179TIP3    H1 3501   6.806   1.561   5.034 -0.9553  0.2220 -0.7087
 1179TIP3    H2 3502   6.785   1.605   5.178  0.4114 -0.6064 -0.2427
 1180TIP3   OH2 3503   1.936   5.887   2.013  0.0881  0.0390  0.2061
 1180TIP3    H1 3504   1.873   5.825   2.048  0.4033 -0.0545  0.6114
 1180TIP3    H2 3505   1.899   5.913   1.929 -1.9260  2.0757  1.5871
 1181TIP3   OH2 3506   0.571   0.821   4.751  0.2491 -0.4047  0.0251
 1181TIP3    H1 3507   0.504   0.777   4.698 -1.0546 -0.4163  1.6111
 1181TIP3    H2 3508   0.601   0.753   4.812  1.0238 -0.1220 -0.0243
 1182TIP3   OH2 3509   2.830   0.047   0.729  0.0405  0.3358 -0.4137
 1182TIP3    H1 3510   2.851   0.064   0.821  0.9385 -0.2552 -0.4946
 1182TIP3    H2 3511   2.737   0.025   0.729 -0.8039  3.4229 -0.0842
 1183TIP3   OH2 3512   1.970   4.574   2.254 -0.2343 -0.4772 -0.7494
 1183TIP3    H1 3513   2.006   4.604   2.337  0.5918  1.6756 -1.8138
 1183TIP3    H2 3514   1.923   4.494   2.276  1.6301 -1.0801  1.4347
 1184TIP3   OH2 3515   3.808   1.335   4.291 -0.0737  0.3639  0.1554
 1184TIP3    H1 3516   3.837   1.296   4.374  1.1676  2.8870  1.0177
 1184TIP3    H2 3517   3.746   1.403   4.317  0.6588  1.4821 -0.9098
 1185TIP3   OH2 3518   4.358   5.700   4.436  0.3007  0.4334 -0.6856
 1185TIP3    H1 3519   4.403   5.780   4.408  1.5137 -0.1861 -0.5874
 1185TIP3    H2 3520   4.408   5.629   4.395 -0.8431 -0.2775 -0.9023
 1186TIP3   OH2 3521   0.216   0.831   2.651  0.5974  0.1394  0.7330
 1186TIP3    H1 3522   0.170   0.898   2.601  0.6034  0.7856  1.5691
 1186TIP3    H2 3523   0.247   0.876   2.729  2.0728 -0.4533  0.5233
 1187TIP3   OH2 3524   1.456   6.148   4.149  0.5646 -0.2592  0.4703
 1187TIP3    H1 3525   1.549   6.132   4.165  0.6077  0.6783  1.2452
 1187TIP3    H2 3526   1.454   6.218   4.084  0.4182  0.2512  1.0109
 1188TIP3   OH2 3527   5.325   1.731   4.370 -0.2539 -0.5124 -0.1082
 1188TIP3    H1 3528   5.286   1.722   4.283 -1.2312  0.4051  0.2143
 1188TIP3    H2 3529   5.343   1.825   4.379  1.8604 -0.8596 -0.1478
 1189TIP3   OH2 3530   5.889   5.895   0.620  0.0741 -0.4335  0.2693
 1189TIP3    H1 3531   5.807   5.856   0.590 -0.7883  1.8754 -0.5846
 1189TIP3    H2 3532   5.942   5.903   0.540  0.1863  0.2279  0.4084
 1190TIP3   OH2 3533   3.148   4.624   2.295  0.3033  0.3799 -0.5716
 1190TIP3    H1 3534   3.092   4.572   2.237 -0.5126 -0.0561  0.5724
 1190TIP3    H2 3535   3.087   4.679   2.344  0.7493 -0.8146  1.4060
 1191TIP3   OH2 3536   1.732   2.158   0.479 -0.1050 -0.4602 -0.5800
 1191TIP3    H1 3537   1.678   2.096   0.527  0.2513  0.1509  0.6486
 1191TIP3    H2 3538   1.788   2.104   0.424  0.6808 -1.2784  0.9763
 1192TIP3   OH2 3539   2.344   1.631   4.183 -0.2734 -0.0944 -0.1573
 1192TIP3    H1 3540   2.281   1.560   4.191 -0.1262 -0.2192 -0.1108
 1192TIP3    H2 3541   2.291   1.706   4.156 -0.9536  0.5306  2.5215
 1193TIP3   OH2 3542   0.457   2.067   4.851 -0.3234  0.3302  0.2482
 1193TIP3    H1 3543   0.472   2.053   4.944 -0.3104  0.4213  0.2598
 1193TIP3    H2 3544   0.404   1.992   4.823  3.3635 -2.2748 -0.6426
 1194TIP3   OH2 3545   0.703   2.554   2.659  0.0498  0.4337  0.2793
 1194TIP3    H1 3546   0.625   2.602   2.688 -0.2190 -0.1578  0.5417
 1194TIP3    H2 3547   0.670   2.475   2.618  0.4412  1.1549 -1.5276
 1195TIP3   OH2 3548   4.574   3.094   1.377  0.0028 -0.1936 -0.4472
 1195TIP3    H1 3549   4.615   3.017   1.414  2.4683  1.5913  0.7837
 1195TIP3    H2 3550   4.497   3.109   1.431 -0.5807 -1.7983 -0.7829
 1196TIP3   OH2 3551   6.906   5.067   1.734  0.3391  0.3078 -0.5134
 1196TIP3    H1 3552   6.871   5.065   1.823  1.1853 -0.6295 -0.1888
 1196TIP3    H2 3553   6.990   5.021   1.739 -0.2681 -1.0841 -2.0900
 1197TIP3   OH2 3554   3.012   2.883   5.837  0.4303  0.0599 -0.0910
 1197TIP3    H1 3555   3.048   2.966   5.869  2.3943 -0.6558 -0.3020
 1197TIP3    H2 3556   2.918   2.900   5.825  0.2590  1.4090  2.5307
 1198TIP3   OH2 3557   3.703   1.949   5.276 -0.9027 -0.1544 -0.8232
 1198TIP3    H1 3558   3.678   1.976   5.364 -0.5096  1.3760 -1.1546
 1198TIP3    H2 3559   3.641   1.879   5.254 -1.9939  0.4984  0.0799
 1199TIP3   OH2 3560   1.010   5.406   5.848  0.1058  0.7029 -0.3967
 1199TIP3    H1 3561   1.054   5.367   5.923 -1.0837 -0.3437 -0.2060
 1199TIP3    H2 3562   1.022   5.500   5.859  1.5836  0.4867  0.0585
 1200TIP3   OH2 3563   4.902   3.050   1.911 -0.1074  0.1956  0.3327
 1200TIP3    H1 3564   4.939   3.017   1.993  1.4750 -0.0747 -0.4474
 1200TIP3    H2 3565   4.941   2.994   1.843  0.4648  1.8673 -0.7801
 1201TIP3   OH2 3566   1.451   1.763   3.617 -0.1662  0.0109 -0.1022
 1201TIP3    H1 3567   1.522   1.701   3.600  0.1796  0.3860 -0.0435
 1201TIP3    H2 3568   1.413   1.781   3.531  0.0132  0.0499 -0.1730
 1202TIP3   OH2 3569   4.660   5.124   3.030  0.3165  0.4066  0.0176
 1202TIP3    H1 3570   4.714   5.203   3.025  0.8542 -0.0001 -1.0189
 1202TIP3    H2 3571   4.681   5.086   3.115  1.0575  0.6973 -0.0245
 1203TIP3   OH2 3572   2.975   2.349   5.285  0.2284 -0.4791 -0.0816
 1203TIP3    H1 3573   3.065   2.350   5.253  0.7259 -1.6035  1.1835
 1203TIP3    H2 3574   2.979   2.388   5.372 -0.2219 -1.7910  0.5666
 1204TIP3   OH2 3575   1.665   1.548   5.228 -0.2691 -0.2818 -0.1615
 1204TIP3    H1 3576   1.724   1.531   5.155  0.7524  2.2504 -0.0423
 1204TIP3    H2 3577   1.696   1.631   5.265 -2.1745 -0.3122  1.7067
 1205TIP3   OH2 3578   2.427   4.692   3.130 -0.1358  0.3256 -0.1477
 1205TIP3    H1 3579   2.485   4.645   3.191 -1.3043 -0.1985  0.5876
 1205TIP3    H2 3580   2.372   4.624   3.092 -0.3697  0.8372 -0.7474
 1206TIP3   OH2 3581   6.455   2.028   1.310  0.5266  0.5537 -0.3132
 1206TIP3    H1 3582   6.388   1.984   1.363  0.1686  0.3333 -0.9396
 1206TIP3    H2 3583   6.430   2.010   1.220  2.8163 -1.7152 -0.6080
 1207TIP3   OH2 3584   5.374   5.189   0.590  0.1853 -0.1737  0.2576
 1207TIP3    H1 3585   5.363   5.205   0.496 -1.8242 -2.9564 -0.1051
 1207TIP3    H2 3586   5.460   5.225   0.610  2.2852 -2.4314 -3.4602
 1208TIP3   OH2 3587   2.755   2.679   5.098 -0.4007 -0.4506 -0.3476
 1208TIP3    H1 3588   2.722   2.624   5.027  0.8231 -0.5247 -0.8822
 1208TIP3    H2 3589   2.677   2.704   5.147 -1.1910 -0.9802 -1.3001
 1209TIP3   OH2 3590   2.769   6.725   1.158 -0.2723  0.0614 -0.5772
 1209TIP3    H1 3591   2.736   6.783   1.089  0.0107  0.6785 -0.2049
 1209TIP3    H2 3592   2.727   6.641   1.141 -0.8431  0.4272 -1.0122
 1210TIP3   OH2 3593   1.757   4.529   1.939 -0.4115 -0.5472  0.4049
 1210TIP3    H1 3594   1.761   4.512   1.846 -2.0950 -1.2878  0.4484
 1210TIP3    H2 3595   1.778   4.445   1.981  0.5112 -0.1794  0.7159
 1211TIP3   OH2 3596   6.287   6.340   5.320  0.1875 -0.0502  0.0436
 1211TIP3    H1 3597   6.249   6.252   5.320 -1.4232  0.5645  1.9744
 1211TIP3    H2 3598   6.371   6.331   5.363  1.9358 -1.2405 -3.2602
 1212TIP3   OH2 3599   1.632   4.662   3.893 -0.4443  0.4881 -0.7951
 1212TIP3    H1 3600   1.563   4.603   3.864 -0.9061  1.0315 -0.8295
 1212TIP3    H2 3601   1.601   4.749   3.868  0.0251  0.7851 -0.3695
 1213TIP3   OH2 3602   2.379   6.155   2.590 -0.0555  0.1516  0.0997
 1213TIP3    H1 3603   2.363   6.127   2.500 -1.8187  3.6548 -0.8741
 1213TIP3    H2 3604   2.307   6.117   2.641  0.4602 -1.1238 -0.0916
 1214TIP3   OH2 3605   5.101   5.247   0.419 -0.3857 -0.6039 -0.1076
 1214TIP3    H1 3606   5.165   5.195   0.370 -1.4639 -1.0638 -1.0914
 1214TIP3    H2 3607   5.052   5.294   0.351  0.3873  1.5174  0.7400
 1215TIP3   OH2 3608   2.257   3.699   1.514  0.3797  0.0246  0.0596
 1215TIP3    H1 3609   2.310   3.734   1.586  0.5379  1.8008 -0.8584
 1215TIP3    H2 3610   2.231   3.776   1.465  0.2189 -1.1433 -1.7596
 1216TIP3   OH2 3611   0.683   5.103   0.196 -0.6573  0.3146 -0.6683
 1216TIP3    H1 3612   0.694   5.025   0.141  0.5084  0.1639 -0.2527
 1216TIP3    H2 3613   0.763   5.105   0.250 -1.3813  0.9350  0.4069
 1217TIP3   OH2 3614   4.437   5.427   2.126  0.1257  0.2138 -0.2938
 1217TIP3    H1 3615   4.515   5.426   2.071  0.3484  0.5308  0.0120
 1217TIP3    H2 3616   4.382   5.495   2.088 -0.5974 -0.8949 -1.3102
 1218TIP3   OH2 3617   5.264   4.723   1.356 -0.3742 -0.2553 -0.0841
 1218TIP3    H1 3618   5.335   4.715   1.419  0.3035  0.8007 -0.6987
 1218TIP3    H2 3619   5.256   4.635   1.318 -0.1938 -0.6696  0.8180
 1219TIP3   OH2 3620   6.503   3.452   3.487  0.3768 -0.1800  0.0043
 1219TIP3    H1 3621   6.423   3.495   3.517 -0.8783 -1.8393 -0.8053
 1219TIP3    H2 3622   6.527   3.392   3.557  1.6568  1.1486  0.7724
 1220TIP3   OH2 3623   0.494   4.447   3.354 -0.1663  0.5758  0.0267
 1220TIP3    H1 3624   0.472   4.433   3.262  0.8190 -1.0096 -0.0122
 1220TIP3    H2 3625   0.579   4.490   3.352  0.4367 -0.5629  0.1651
 1221TIP3   OH2 3626   5.885   2.511   2.532  0.0272 -0.5574 -0.4044
 1221TIP3    H1 3627   5.827   2.435   2.528 -3.7187  2.0488 -1.5024
 1221TIP3    H2 3628   5.920   2.520   2.443 -0.0223 -0.6478 -0.4326
 1222TIP3   OH2 3629   7.134   2.060   3.974  0.4420 -0.0479  0.2885
 1222TIP3    H1 3630   7.133   2.155   3.985 -1.8484  0.1502 -0.9859
 1222TIP3    H2 3631   7.204   2.030   4.031 -1.2318  2.0564  3.7977
 1223TIP3   OH2 3632   2.082   6.225   3.324 -0.0428 -0.0329  0.3741
 1223TIP3    H1 3633   2.072   6.291   3.255  1.8133 -1.3346 -1.2581
 1223TIP3    H2 3634   2.059   6.142   3.280  0.4769 -0.8124  1.5352
 1224TIP3   OH2 3635   5.489   3.322   0.946  0.5171 -0.0557  0.5811
 1224TIP3    H1 3636   5.573   3.338   0.988  0.0898 -0.6382  1.6913
 1224TIP3    H2 3637   5.441   3.405   0.954 -0.2519 -0.6498  2.9357
 1225TIP3   OH2 3638   5.128   3.402   1.481  0.1021 -0.2791 -0.0166
 1225TIP3    H1 3639   5.064   3.417   1.411 -0.2639 -0.1968  0.3303
 1225TIP3    H2 3640   5.142   3.489   1.519  1.3839 -0.0745 -0.9048
 1226TIP3   OH2 3641   3.755   4.118   3.878 -0.3106  0.3557 -0.0889
 1226TIP3    H1 3642   3.822   4.068   3.831  1.7461  0.8606  2.1070
 1226TIP3    H2 3643   3.738   4.193   3.821  1.4491  0.5043 -0.4848
 1227TIP3   OH2 3644   0.114   5.967   1.347 -0.3398  0.3804  0.2854
 1227TIP3    H1 3645   0.206   5.978   1.321 -0.3060 -1.8574 -0.7716
 1227TIP3    H2 3646   0.078   6.056   1.346  1.1180  1.0346 -2.0598
 1228TIP3   OH2 3647   3.459   5.490   3.863 -0.2274 -0.3694 -0.1490
 1228TIP3    H1 3648   3.415   5.533   3.790 -1.5926  0.2405  0.9942
 1228TIP3    H2 3649   3.423   5.401   3.864  3.8061 -2.3930 -3.5672
 1229TIP3   OH2 3650   3.093   1.963   2.335  0.1446 -0.1675 -0.1779
 1229TIP3    H1 3651   3.065   2.054   2.343 -0.4508 -0.3875  0.3896
 1229TIP3    H2 3652   3.080   1.926   2.422 -0.9822 -1.1690 -0.7411
 1230TIP3   OH2 3653   6.230   5.595   1.843 -0.6198 -0.1942  0.6780
 1230TIP3    H1 3654   6.225   5.690   1.833 -2.0780 -0.3461 -0.4368
 1230TIP3    H2 3655   6.287   5.566   1.772  1.0077 -0.0646  1.8846
 1231TIP3   OH2 3656   2.676   6.385   3.828 -0.3460 -0.2751 -0.0158
 1231TIP3    H1 3657   2.677   6.453   3.896  1.3485  2.0898 -2.1940
 1231TIP3    H2 3658   2.587   6.389   3.792 -0.2832  0.7773 -0.0875
 1232TIP3   OH2 3659   2.280   1.737   3.220 -0.5643  0.5815 -0.4332
 1232TIP3    H1 3660   2.324   1.791   3.155  0.6758 -2.2402 -2.1473
 1232TIP3    H2 3661   2.351   1.687   3.261 -1.7527 -1.0627 -0.2835
 1233TIP3   OH2 3662   0.297   5.792   2.087  0.4204  0.3532  0.7272
 1233TIP3    H1 3663   0.290   5.714   2.033  2.7779  0.3730  0.2593
 1233TIP3    H2 3664   0.374   5.838   2.053  2.5812 -0.0202  4.5195
 1234TIP3   OH2 3665   6.354   3.461   3.274 -0.2953 -0.4278  0.0558
 1234TIP3    H1 3666   6.397   3.441   3.356 -1.6402 -0.1307  0.8663
 1234TIP3    H2 3667   6.355   3.557   3.269  2.9500 -0.4262 -2.0683
 1235TIP3   OH2 3668   6.031   3.491   5.715 -0.2459  0.1809 -0.0794
 1235TIP3    H1 3669   6.074   3.465   5.797 -0.0886 -1.4039 -0.6300
 1235TIP3    H2 3670   5.954   3.540   5.743  0.2935  0.4361  1.0019
 1236TIP3   OH2 3671   6.389   1.410   5.316  0.0842 -0.3125  0.4984
 1236TIP3    H1 3672   6.371   1.438   5.227 -1.6032 -1.3616  0.4622
 1236TIP3    H2 3673   6.324   1.455   5.370 -0.3276 -1.3316  0.8893
 1237TIP3   OH2 3674   6.841   1.618   2.889  0.0999  0.5701 -0.1320
 1237TIP3    H1 3675   6.873   1.699   2.930 -1.5752  0.6050  1.1972
 1237TIP3    H2 3676   6.843   1.553   2.959  0.6602 -0.3563 -0.9842
 1238TIP3   OH2 3677   6.289   5.771   4.403  0.8625  0.1244 -0.0159
 1238TIP3    H1 3678   6.218   5.833   4.421  0.9424  0.3354 -0.4131
 1238TIP3    H2 3679   6.363   5.826   4.379  1.1427 -0.1005  0.3420
 1239TIP3   OH2 3680   3.794   3.436   2.054  0.2933  0.1485 -0.3347
 1239TIP3    H1 3681   3.768   3.422   1.963  0.7550 -0.3497 -0.3908
 1239TIP3    H2 3682   3.718   3.408   2.105  0.2849 -0.2036 -0.5401
 1240TIP3   OH2 3683   2.152   3.617   4.634  0.2262  0.4483  0.7945
 1240TIP3    H1 3684   2.156   3.704   4.594 -0.5452 -0.0011 -0.3319
 1240TIP3    H2 3685   2.064   3.585   4.612  0.2929 -0.3940  1.6775
 1241TIP3   OH2 3686   5.644   1.944   2.540 -0.3795  0.5027  0.0564
 1241TIP3    H1 3687   5.552   1.919   2.536 -0.4517  0.9562 -1.7539
 1241TIP3    H2 3688   5.666   1.970   2.451  1.7519 -0.4241  0.2456
 1242TIP3   OH2 3689   0.335   6.377   1.296 -0.2434 -0.7809  0.3071
 1242TIP3    H1 3690   0.356   6.339   1.381 -0.0287  0.6739  0.9375
 1242TIP3    H2 3691   0.298   6.463   1.316  0.2545 -0.2070 -1.0851
 1243TIP3   OH2 3692   2.949   0.966   4.169 -0.7316 -0.4023  0.6093
 1243TIP3    H1 3693   2.944   0.916   4.087 -0.7185 -2.3583  1.7469
 1243TIP3    H2 3694   2.864   1.009   4.176 -0.1509  1.1962 -1.2296
 1244TIP3   OH2 3695   4.538   2.729   3.066 -0.6207 -0.2961 -0.0189
 1244TIP3    H1 3696   4.622   2.691   3.040 -0.5919 -0.8250  0.7890
 1244TIP3    H2 3697   4.519   2.794   2.999  0.1948 -0.5171 -0.4806
 1245TIP3   OH2 3698   0.703   0.077   1.317  0.6557  0.6920  0.0344
 1245TIP3    H1 3699   0.704   0.112   1.406 -0.6777 -0.1409  0.4095
 1245TIP3    H2 3700   0.614   0.095   1.285  0.7702  0.0056 -0.7219
 1246TIP3   OH2 3701   1.410   5.562   3.608  0.8445  0.3792 -0.5033
 1246TIP3    H1 3702   1.499   5.565   3.643  0.4309 -1.0176  0.7516
 1246TIP3    H2 3703   1.394   5.470   3.589 -0.8890  0.3554  0.8002
 1247TIP3   OH2 3704   4.255   2.007   2.395  0.2545  0.5940  0.1257
 1247TIP3    H1 3705   4.243   1.972   2.483  1.2430  0.3295  0.1665
 1247TIP3    H2 3706   4.348   1.994   2.376 -0.2335 -0.8316 -1.5805
 1248TIP3   OH2 3707   5.063   2.312   1.526 -0.0954 -0.0633 -0.0979
 1248TIP3    H1 3708   5.013   2.231   1.514  0.9690 -0.9483  1.2950
 1248TIP3    H2 3709   5.045   2.339   1.616  1.0078  0.2436  0.0444
 1249TIP3   OH2 3710   1.845   5.244   5.117 -0.1667 -0.0858 -0.1612
 1249TIP3    H1 3711   1.881   5.221   5.203 -0.0333  0.0093 -0.1920
 1249TIP3    H2 3712   1.765   5.191   5.110 -0.7308  0.6666  0.4518
 1250TIP3   OH2 3713   1.183   4.953   1.552  0.3588  0.0272 -0.0223
 1250TIP3    H1 3714   1.266   4.997   1.566 -0.8151  2.5950 -0.5871
 1250TIP3    H2 3715   1.195   4.902   1.471  0.8695  1.8252 -1.1232
 1251TIP3   OH2 3716   3.111   0.194   3.582 -0.4627 -0.0118 -0.2586
 1251TIP3    H1 3717   3.163   0.273   3.598  2.2893 -1.7915  0.2505
 1251TIP3    H2 3718   3.146   0.159   3.500 -1.0103 -1.1738 -0.0035
 1252TIP3   OH2 3719   4.933   2.703   1.613  0.8404  0.2564 -0.0379
 1252TIP3    H1 3720   5.001   2.653   1.568  2.1498  0.6675  1.3788
 1252TIP3    H2 3721   4.961   2.794   1.606  0.4401  0.4314  0.5619
 1253TIP3   OH2 3722   6.428   6.634   4.996 -0.1197 -0.2235  0.6743
 1253TIP3    H1 3723   6.514   6.670   4.978  0.2294 -0.4217  1.8508
 1253TIP3    H2 3724   6.371   6.710   5.006  0.2310 -0.0365  1.3131
 1254TIP3   OH2 3725   0.973   1.038   0.978  0.0061 -0.0142 -0.1881
 1254TIP3    H1 3726   1.029   0.981   1.030 -0.6233 -1.5671 -1.1409
 1254TIP3    H2 3727   0.951   1.111   1.036 -0.2808 -1.4321  1.5673
 1255TIP3   OH2 3728   4.989   0.223   0.813  0.2037 -0.0715  0.8396
 1255TIP3    H1 3729   5.045   0.146   0.809 -0.4675 -0.6628  2.2789
 1255TIP3    H2 3730   4.900   0.189   0.803 -0.1878  0.3433  2.5860
 1256TIP3   OH2 3731   3.569   1.387   0.403 -0.0193 -0.0501  0.2606
 1256TIP3    H1 3732   3.574   1.309   0.459  1.1491 -0.3663 -0.2501
 1256TIP3    H2 3733   3.492   1.435   0.435 -2.1795 -2.5074 -0.8189
 1257TIP3   OH2 3734   5.609   5.156   2.355 -0.4253 -0.0397 -0.2623
 1257TIP3    H1 3735   5.695   5.163   2.395 -0.2255 -0.5837 -0.5911
 1257TIP3    H2 3736   5.626   5.143   2.262 -0.8503 -0.6123 -0.2682
 1258TIP3   OH2 3737  -0.029   3.615   1.769 -0.4963  0.4544 -0.2171
 1258TIP3    H1 3738  -0.015   3.673   1.695 -1.3966 -0.8129 -1.4411
 1258TIP3    H2 3739   0.049   3.560   1.772 -0.2014  0.8901  0.1489
 1259TIP3   OH2 3740   3.407   4.775   0.814  0.4167 -0.0172  0.7171
 1259TIP3    H1 3741   3.328   4.720   0.812  1.2788 -1.2997  0.3841
 1259TIP3    H2 3742   3.450   4.752   0.896  1.3033 -0.6415  0.1021
 1260TIP3   OH2 3743   0.067   0.418   5.454 -0.2733 -0.0723 -0.6676
 1260TIP3    H1 3744   0.019   0.394   5.375 -0.4780  1.8188 -1.1647
 1260TIP3    H2 3745   0.159   0.413   5.428 -0.3456  0.7990 -1.1267
 1261TIP3   OH2 3746   0.737   2.005   0.674  0.6636 -0.0759 -0.3767
 1261TIP3    H1 3747   0.773   2.067   0.611  2.7929  0.6585  1.3930
 1261TIP3    H2 3748   0.734   2.054   0.756  0.9437 -1.8503  0.7546
 1262TIP3   OH2 3749   4.894   1.266   1.150  0.4226 -0.4348 -0.3747
 1262TIP3    H1 3750   4.969   1.211   1.172  0.0062 -1.5680 -1.6835
 1262TIP3    H2 3751   4.865   1.235   1.065 -0.9810  0.5971 -0.3089
 1263TIP3   OH2 3752   5.770   3.794   4.104 -0.2412  0.1681 -0.2065
 1263TIP3    H1 3753   5.725   3.735   4.043  0.1520 -1.8205  1.3118
 1263TIP3    H2 3754   5.700   3.838   4.151 -0.5537  0.1128 -0.6150
 1264TIP3   OH2 3755   1.818   3.987   5.372 -0.0464 -0.1031  0.0069
 1264TIP3    H1 3756   1.816   3.901   5.413 -1.4169  0.8062  2.0107
 1264TIP3    H2 3757   1.728   4.004   5.346  0.6769 -0.4618 -3.2761
 1265TIP3   OH2 3758   2.498   5.831   4.242 -0.2398  0.0974  0.1680
 1265TIP3    H1 3759   2.540   5.780   4.311 -0.8043  0.6564  0.9494
 1265TIP3    H2 3760   2.467   5.766   4.179  0.7571 -0.3881  0.1588
 1266TIP3   OH2 3761   1.665   5.308   1.130 -0.2089  0.1614 -0.4846
 1266TIP3    H1 3762   1.676   5.314   1.225  0.3124 -2.0117 -0.3409
 1266TIP3    H2 3763   1.583   5.260   1.118 -0.0627  0.0538 -1.1096
 1267TIP3   OH2 3764   5.462   5.010   4.955  0.3966  1.0573 -0.2202
 1267TIP3    H1 3765   5.430   4.989   5.043 -1.5742  2.6894 -0.4762
 1267TIP3    H2 3766   5.557   5.015   4.965  0.1956  1.6331  1.9212
 1268TIP3   OH2 3767   6.917   0.542   3.446 -0.4220  0.3494 -0.5641
 1268TIP3    H1 3768   6.952   0.536   3.535  0.6136  0.0067 -0.9805
 1268TIP3    H2 3769   6.932   0.456   3.409 -0.2081  0.7013 -1.3020
 1269TIP3   OH2 3770   6.455   2.500   2.492  0.4463 -0.5897  0.0979
 1269TIP3    H1 3771   6.504   2.446   2.430  1.0236 -1.5024  1.2843
 1269TIP3    H2 3772   6.371   2.455   2.502 -0.6168  0.8674 -1.7856
 1270TIP3   OH2 3773   5.775   1.453   0.631 -0.1754 -0.1735 -0.3556
 1270TIP3    H1 3774   5.708   1.477   0.566 -0.3056  0.2395 -0.0793
 1270TIP3    H2 3775   5.858   1.466   0.586 -0.1842  2.0310  0.1335
 1271TIP3   OH2 3776   4.596   5.192   1.757 -0.0872 -0.3154  0.3842
 1271TIP3    H1 3777   4.540   5.263   1.726 -0.0747  0.2073  1.5270
 1271TIP3    H2 3778   4.580   5.187   1.851 -0.0276 -1.7807  0.3483
 1272TIP3   OH2 3779   5.172   3.350   2.724 -0.0563 -0.4277  0.2478
 1272TIP3    H1 3780   5.110   3.415   2.689  0.2614  1.0595  2.2650
 1272TIP3    H2 3781   5.256   3.373   2.683 -0.1503 -0.2133  0.1705
 1273TIP3   OH2 3782   1.982   1.464   1.308 -0.1718  0.0896  0.2637
 1273TIP3    H1 3783   2.023   1.386   1.345  1.7980  0.7322 -0.4714
 1273TIP3    H2 3784   2.004   1.534   1.369 -3.0296 -0.0540  1.6263
 1274TIP3   OH2 3785   1.784   4.810   4.164 -0.7409 -0.8395  0.0085
 1274TIP3    H1 3786   1.770   4.903   4.144 -1.7484 -0.9110  0.2983
 1274TIP3    H2 3787   1.811   4.771   4.081 -0.3827 -0.3027 -0.1326
 1275TIP3   OH2 3788   3.936   4.782   5.324  0.1291 -0.0512 -0.4785
 1275TIP3    H1 3789   4.022   4.764   5.361  0.0636  1.1199  0.3057
 1275TIP3    H2 3790   3.898   4.848   5.382 -2.6556 -2.8214  1.1784
 1276TIP3   OH2 3791   5.885   0.580   2.399 -0.1874 -0.0418 -0.2711
 1276TIP3    H1 3792   5.979   0.598   2.392 -0.3952  1.6021  0.5668
 1276TIP3    H2 3793   5.844   0.637   2.334 -0.7300  0.9937  0.9284
 1277TIP3   OH2 3794   2.494   2.621   5.624 -0.1955 -0.3725  0.0416
 1277TIP3    H1 3795   2.570   2.598   5.571  0.7187  0.6039  0.9088
 1277TIP3    H2 3796   2.477   2.542   5.677  1.8000  0.2081  1.6750
 1278TIP3   OH2 3797   7.239   5.068   3.369 -0.0916  0.0767 -0.6393
 1278TIP3    H1 3798   7.182   5.116   3.429 -1.9157 -2.3651 -0.2964
 1278TIP3    H2 3799   7.230   5.114   3.286 -1.7604  0.3702 -0.3199
 1279TIP3   OH2 3800   1.919   3.452   2.669 -0.4498  0.2190  0.0788
 1279TIP3    H1 3801   1.875   3.531   2.700 -0.5777  0.0620  0.2935
 1279TIP3    H2 3802   2.004   3.453   2.712  0.1313  0.9943 -1.0159
 1280TIP3   OH2 3803   5.664   1.661   5.289  0.1393 -0.0688  0.2927
 1280TIP3    H1 3804   5.727   1.685   5.221  0.4275  1.5817  1.0997
 1280TIP3    H2 3805   5.607   1.738   5.296 -0.9111 -0.8734  0.7735
 1281TIP3   OH2 3806   6.345   5.913   0.068  0.1735 -0.0820  0.6206
 1281TIP3    H1 3807   6.334   5.908  -0.027 -1.7968  2.4891  0.6208
 1281TIP3    H2 3808   6.422   5.969   0.079 -1.0533  1.7356  0.4420
 1282TIP3   OH2 3809   2.832   5.140   5.381  0.5238  0.1164  0.6438
 1282TIP3    H1 3810   2.854   5.230   5.405  1.6267 -0.4192  1.7913
 1282TIP3    H2 3811   2.912   5.107   5.340 -0.0261 -0.2135 -0.1828
 1283TIP3   OH2 3812   4.935   5.235   3.833  0.2903  0.1178  0.2742
 1283TIP3    H1 3813   4.963   5.325   3.817 -1.5924  0.6409 -0.3762
 1283TIP3    H2 3814   4.895   5.208   3.750 -1.4890 -0.3590  1.2224
 1284TIP3   OH2 3815   6.491   1.208   3.201 -0.1003 -0.0852 -0.0727
 1284TIP3    H1 3816   6.418   1.242   3.150 -2.1717  1.1460  3.3839
 1284TIP3    H2 3817   6.466   1.118   3.222 -0.0081 -0.0674  0.1105
 1285TIP3   OH2 3818   0.731   5.104   4.315 -0.2239  0.0152  0.0737
 1285TIP3    H1 3819   0.651   5.055   4.332 -0.6016  1.1145  1.7410
 1285TIP3    H2 3820   0.715   5.190   4.355  1.1871  0.7994 -0.9528
 1286TIP3   OH2 3821   4.511   6.109   1.619  0.8084 -0.6149 -0.1404
 1286TIP3    H1 3822   4.493   6.081   1.529  1.1034  0.0232 -0.4056
 1286TIP3    H2 3823   4.533   6.029   1.666  1.3711 -0.8560 -0.8113
 1287TIP3   OH2 3824   5.617   3.142   3.878  0.0620 -0.2607 -0.0333
 1287TIP3    H1 3825   5.665   3.094   3.811 -0.0127 -1.2800  0.6194
 1287TIP3    H2 3826   5.554   3.079   3.913  0.3918  0.0985  1.2994
 1288TIP3   OH2 3827   1.003   0.801   0.509 -0.2015  0.2959  0.2330
 1288TIP3    H1 3828   0.998   0.719   0.460  0.4461  0.6455 -0.4341
 1288TIP3    H2 3829   0.919   0.807   0.555 -0.4657 -0.4684 -0.1399
 1289TIP3   OH2 3830   5.898   3.342   1.897  0.4405 -0.2300 -0.2543
 1289TIP3    H1 3831   5.902   3.425   1.851  1.0074  0.2328  0.6032
 1289TIP3    H2 3832   5.950   3.356   1.976  2.3388 -2.0202 -1.0908
 1290TIP3   OH2 3833   0.243   4.892   5.500  0.7524 -0.2566  0.0453
 1290TIP3    H1 3834   0.247   4.951   5.575 -0.7909  0.4414 -0.3713
 1290TIP3    H2 3835   0.264   4.948   5.425  1.5777 -0.7814 -0.1237
 1291TIP3   OH2 3836   2.929   4.780   1.988 -0.0016 -0.3247 -0.1794
 1291TIP3    H1 3837   2.976   4.697   1.978 -0.6937 -0.6721 -0.6463
 1291TIP3    H2 3838   2.967   4.838   1.922 -1.2589 -1.0899 -1.6291
 1292TIP3   OH2 3839   4.494   0.928   3.094  0.0567  0.1471 -0.4651
 1292TIP3    H1 3840   4.504   0.962   3.005 -1.6408  2.2709  0.0721
 1292TIP3    H2 3841   4.401   0.908   3.101  0.1037  0.3516  0.9370
 1293TIP3   OH2 3842   3.025   3.730   4.093  0.0176  0.3355 -0.1370
 1293TIP3    H1 3843   3.104   3.683   4.119  0.4497  1.4297  0.5937
 1293TIP3    H2 3844   3.052   3.782   4.017 -0.6511 -1.1153 -1.4101
 1294TIP3   OH2 3845   4.012   3.127   1.526  0.2842  0.6118  0.4918
 1294TIP3    H1 3846   4.048   3.054   1.575 -0.7364  0.5554  1.1654
 1294TIP3    H2 3847   4.037   3.205   1.577 -2.2130  0.4564  2.0773
 1295TIP3   OH2 3848   2.727   4.965   4.841 -0.3358  0.1350  0.0647
 1295TIP3    H1 3849   2.651   4.995   4.792  0.1794 -0.7843 -1.3546
 1295TIP3    H2 3850   2.789   5.038   4.836 -0.5384  0.2991 -0.0728
 1296TIP3   OH2 3851   2.918   1.390   5.780 -0.0951  0.7814 -0.3089
 1296TIP3    H1 3852   2.887   1.300   5.776  2.1365  0.0025 -1.7073
 1296TIP3    H2 3853   2.877   1.433   5.705 -0.5074  0.7164 -0.1226
 1297TIP3   OH2 3854   5.160   0.476   3.411  0.0773  0.0554 -0.3634
 1297TIP3    H1 3855   5.115   0.393   3.430  0.1967 -0.0273 -0.4395
 1297TIP3    H2 3856   5.245   0.468   3.454  0.5984 -0.3871 -1.4300
 1298TIP3   OH2 3857   1.534   0.704   1.122  0.1272 -0.5000 -0.4994
 1298TIP3    H1 3858   1.544   0.610   1.140 -3.3174 -0.8248  0.4581
 1298TIP3    H2 3859   1.585   0.718   1.042  1.1963 -3.0486 -0.3823
 1299TIP3   OH2 3860   0.407   6.464   2.903  0.5459 -0.2453 -0.4275
 1299TIP3    H1 3861   0.455   6.411   2.840 -1.7120 -2.6469 -0.2823
 1299TIP3    H2 3862   0.357   6.401   2.955 -1.1912  1.9449  0.7338
 1300TIP3   OH2 3863   6.281   5.677   0.239 -0.1980  0.0271  0.2279
 1300TIP3    H1 3864   6.345   5.643   0.302 -0.5308  0.2310  0.6823
 1300TIP3    H2 3865   6.324   5.753   0.200  0.7353 -1.1425 -1.1259
 1301TIP3   OH2 3866   3.522   5.717   5.732 -0.1433 -0.4093 -0.0837
 1301TIP3    H1 3867   3.582   5.654   5.772 -0.8831 -0.8468  0.3380
 1301TIP3    H2 3868   3.577   5.794   5.714  0.6706 -1.0102 -0.2241
 1302TIP3   OH2 3869   3.849   3.666   0.985 -0.2078  0.1764  0.2428
 1302TIP3    H1 3870   3.816   3.589   0.939  0.5730 -1.2323  1.9436
 1302TIP3    H2 3871   3.944   3.659   0.979 -0.0720  2.3149 -1.5724
 1303TIP3   OH2 3872   6.833   2.718   5.625 -0.5726  0.0616  0.1352
 1303TIP3    H1 3873   6.778   2.641   5.611 -2.8742  1.5663  0.2397
 1303TIP3    H2 3874   6.814   2.745   5.715  2.3119 -0.7425  1.0947
 1304TIP3   OH2 3875   0.586   5.985   3.908 -0.1170  0.0954  0.6983
 1304TIP3    H1 3876   0.679   6.001   3.921 -0.0943  0.7556 -0.2438
 1304TIP3    H2 3877   0.543   6.066   3.935 -0.2513  0.5583 -0.8152
 1305TIP3   OH2 3878   2.072   1.482   0.519 -0.1817 -0.9506  0.2787
 1305TIP3    H1 3879   2.147   1.525   0.477  0.2998 -1.2227  0.8493
 1305TIP3    H2 3880   2.110   1.427   0.587 -0.9602 -0.2681  1.2984
 1306TIP3   OH2 3881   0.825   2.306   2.130 -0.7443  0.2267 -0.3548
 1306TIP3    H1 3882   0.875   2.330   2.052  1.9190  0.5913  1.3266
 1306TIP3    H2 3883   0.783   2.387   2.157  0.1399  0.6549 -0.2141
 1307TIP3   OH2 3884   5.119   4.711   1.845 -0.2942  0.2612  0.1120
 1307TIP3    H1 3885   5.151   4.630   1.885 -1.2342 -0.4698 -0.5717
 1307TIP3    H2 3886   5.151   4.780   1.903  1.6828 -0.4786 -0.0098
 1308TIP3   OH2 3887   4.917   5.493   4.776  0.5340 -0.4105  0.5120
 1308TIP3    H1 3888   4.881   5.531   4.696  0.2601  0.3834  1.0025
 1308TIP3    H2 3889   4.860   5.418   4.795 -0.6243  0.5775  1.0460
 1309TIP3   OH2 3890   1.944   4.039   1.313  0.3453 -0.2723  0.4312
 1309TIP3    H1 3891   1.995   4.120   1.313  0.8844 -0.5941  1.6037
 1309TIP3    H2 3892   1.976   3.990   1.238  1.0630 -0.0362  0.5785
 1310TIP3   OH2 3893   2.605   5.472   0.884  0.2501  0.0509 -0.0029
 1310TIP3    H1 3894   2.548   5.509   0.951  2.5160 -0.8676  2.5973
 1310TIP3    H2 3895   2.650   5.548   0.846  0.0518  0.4948  0.6334
 1311TIP3   OH2 3896   2.928   4.087   4.378 -0.7871  0.3511  0.4124
 1311TIP3    H1 3897   2.913   4.088   4.473  1.3476 -0.0346  0.7973
 1311TIP3    H2 3898   2.963   4.000   4.360 -0.4021  0.7005 -0.5833
 1312TIP3   OH2 3899   3.647   4.994   5.046  0.4151  0.1536 -0.3799
 1312TIP3    H1 3900   3.633   5.015   4.954  0.3175  0.6454 -0.2584
 1312TIP3    H2 3901   3.663   4.900   5.047  0.9115  0.2184 -0.9586
 1313TIP3   OH2 3902   5.760   4.625   4.732  0.4926  0.0753  0.1976
 1313TIP3    H1 3903   5.813   4.678   4.673 -0.2694  0.8546  0.1885
 1313TIP3    H2 3904   5.671   4.631   4.696  0.6267 -2.6531 -0.8244
 1314TIP3   OH2 3905   0.349   4.293   0.526  0.2007  0.0581  0.3546
 1314TIP3    H1 3906   0.406   4.223   0.493 -0.5740 -0.4349  0.0170
 1314TIP3    H2 3907   0.359   4.290   0.621  0.8768  0.1079  0.2894
 1315TIP3   OH2 3908   4.319   3.580   0.723 -0.1064 -0.2477 -0.8891
 1315TIP3    H1 3909   4.235   3.536   0.706  0.0412 -0.3256 -1.4287
 1315TIP3    H2 3910   4.307   3.622   0.808 -0.6805 -0.2956 -0.9428
 1316TIP3   OH2 3911   6.414   0.687   2.849  0.4715 -0.2079  0.2536
 1316TIP3    H1 3912   6.339   0.666   2.905 -0.2486  0.7453 -0.3266
 1316TIP3    H2 3913   6.404   0.780   2.830  1.1643 -0.3350 -0.7768
 1317TIP3   OH2 3914   1.159   4.268   2.377 -0.2641  0.1965 -0.2552
 1317TIP3    H1 3915   1.183   4.324   2.451 -0.9787 -1.6251  1.4344
 1317TIP3    H2 3916   1.203   4.308   2.302  0.2040  2.3159  1.0627
 1318TIP3   OH2 3917   2.385   1.751   3.481 -0.2886  0.4149 -0.2403
 1318TIP3    H1 3918   2.371   1.835   3.436 -1.3715  0.4954  0.2274
 1318TIP3    H2 3919   2.412   1.775   3.570 -1.3981  0.2803  0.1406
 1319TIP3   OH2 3920   1.716   1.112   2.399 -0.4532  0.1540  0.6227
 1319TIP3    H1 3921   1.812   1.107   2.394 -0.3984  0.5638  1.1429
 1319TIP3    H2 3922   1.693   1.043   2.461 -0.5328 -0.2004  0.2055
 1320TIP3   OH2 3923   0.445   1.687   1.365 -0.4038 -0.1758  0.0269
 1320TIP3    H1 3924   0.451   1.607   1.418 -0.1792 -0.5341 -0.5304
 1320TIP3    H2 3925   0.522   1.685   1.308 -0.3630  0.4723  0.0471
 1321TIP3   OH2 3926   6.045   3.263   5.229 -0.0494  0.2046 -0.1113
 1321TIP3    H1 3927   5.975   3.208   5.194 -0.1849 -0.7233  1.5316
 1321TIP3    H2 3928   6.000   3.323   5.289  0.4715  0.0487  0.4404
 1322TIP3   OH2 3929   4.234   0.468   2.004  0.2056 -0.1969 -0.5360
 1322TIP3    H1 3930   4.231   0.558   2.035 -0.8545 -0.3336 -0.2332
 1322TIP3    H2 3931   4.326   0.442   2.016  0.1811  0.3083  0.8788
 1323TIP3   OH2 3932   3.781   2.843   4.056 -0.3020 -0.3906  0.2967
 1323TIP3    H1 3933   3.794   2.884   4.142 -0.6062 -0.5637  0.4250
 1323TIP3    H2 3934   3.727   2.905   4.008  0.8990  0.2964 -0.2136
 1324TIP3   OH2 3935   4.753   5.224   4.523  0.1295  0.4474  0.2893
 1324TIP3    H1 3936   4.722   5.150   4.472 -0.6154  0.2219  1.0378
 1324TIP3    H2 3937   4.674   5.262   4.561  0.5784  1.1461  0.5527
 1325TIP3   OH2 3938   0.373   1.297   1.813 -0.0001  0.2058 -0.3798
 1325TIP3    H1 3939   0.333   1.276   1.898  1.4944 -0.3498  0.2326
 1325TIP3    H2 3940   0.316   1.255   1.749 -1.5191  1.1756  0.2681
 1326TIP3   OH2 3941   1.050   0.085   0.807  0.2243 -0.2103 -0.0467
 1326TIP3    H1 3942   1.003   0.162   0.773  0.5972  0.4433  0.8645
 1326TIP3    H2 3943   0.991   0.012   0.790 -1.0891  0.5669  0.9485
 1327TIP3   OH2 3944   4.322   1.036   3.398  0.5978  0.0720 -0.0396
 1327TIP3    H1 3945   4.417   1.027   3.404  0.3722 -1.7153  2.9541
 1327TIP3    H2 3946   4.291   0.947   3.380 -0.5723  0.3673  0.4319
 1328TIP3   OH2 3947   3.882   4.233   1.538  0.4648 -0.7714 -0.7185
 1328TIP3    H1 3948   3.945   4.295   1.575  0.8102 -0.8517 -1.1642
 1328TIP3    H2 3949   3.900   4.150   1.582 -0.0679 -0.5416 -0.0435
 1329TIP3   OH2 3950   6.156   2.974   3.918  0.3400 -0.3575 -0.6999
 1329TIP3    H1 3951   6.238   3.016   3.893  1.6885 -1.9785  0.7383
 1329TIP3    H2 3952   6.150   2.988   4.013 -0.6146 -0.9850 -0.6526
 1330TIP3   OH2 3953   1.786   5.213   0.113  0.2576  0.1747 -0.1774
 1330TIP3    H1 3954   1.743   5.200   0.029 -0.5388  1.5647 -0.0291
 1330TIP3    H2 3955   1.768   5.305   0.135  0.4832 -0.1380  1.4826
 1331TIP3   OH2 3956   2.240   5.459   1.173 -0.1375  0.1671  0.1862
 1331TIP3    H1 3957   2.240   5.365   1.154 -1.0122  0.5420 -1.9744
 1331TIP3    H2 3958   2.282   5.466   1.258 -1.2590 -2.2946  1.0339
 1332TIP3   OH2 3959   0.434   5.694   4.117 -0.3161 -0.0141  0.1284
 1332TIP3    H1 3960   0.434   5.703   4.021  0.2848  0.1344  0.1374
 1332TIP3    H2 3961   0.350   5.729   4.144  0.0215  1.1401 -0.2497
 1333TIP3   OH2 3962   3.301   3.020   2.477  0.4807  0.2700 -0.5738
 1333TIP3    H1 3963   3.385   2.991   2.515  1.4490  1.6468 -1.5714
 1333TIP3    H2 3964   3.284   2.958   2.406 -0.0539 -0.7968  0.4396
 1334TIP3   OH2 3965   4.072   6.663   4.955 -0.0008 -0.6005 -0.2000
 1334TIP3    H1 3966   4.156   6.634   4.992  0.5451  0.4648 -0.5478
 1334TIP3    H2 3967   4.013   6.589   4.967 -0.1285 -0.0510  3.5820
 1335TIP3   OH2 3968   6.572   3.370   5.764  0.2194 -0.7484  0.5412
 1335TIP3    H1 3969   6.666   3.387   5.757  0.0220  0.4034  0.5046
 1335TIP3    H2 3970   6.558   3.355   5.857  0.2533  0.3671  0.7427
 1336TIP3   OH2 3971   3.358   2.811   1.895  0.0627  0.3798 -0.1121
 1336TIP3    H1 3972   3.296   2.884   1.896  0.6474  0.9190  2.4496
 1336TIP3    H2 3973   3.346   2.767   1.979  1.9446 -0.5577 -0.2695
 1337TIP3   OH2 3974   2.531   4.619   3.632 -0.2728 -0.3988  0.1964
 1337TIP3    H1 3975   2.613   4.637   3.585 -1.2279 -0.2870 -1.5160
 1337TIP3    H2 3976   2.504   4.705   3.664  1.7305 -0.8070  3.4619
 1338TIP3   OH2 3977   6.466   1.395   4.098 -0.4711 -0.1221 -0.2576
 1338TIP3    H1 3978   6.452   1.353   4.183  0.1327  0.3915  0.1048
 1338TIP3    H2 3979   6.385   1.442   4.081  1.0234  3.9464  2.4564
 1339TIP3   OH2 3980   6.859   2.094   5.661  1.0230  0.9705 -0.0969
 1339TIP3    H1 3981   6.884   2.091   5.753  1.8136 -1.4353 -0.3252
 1339TIP3    H2 3982   6.784   2.035   5.655  2.0883 -0.3423 -1.2532
 1340TIP3   OH2 3983   6.934   2.190   4.723 -0.6148  0.3080  0.2350
 1340TIP3    H1 3984   6.950   2.220   4.812  3.5334 -0.5190 -0.0186
 1340TIP3    H2 3985   6.945   2.268   4.669 -0.3102  0.2811  0.2587
 1341TIP3   OH2 3986   1.772   6.798   1.414 -0.4157 -0.4184  0.1016
 1341TIP3    H1 3987   1.709   6.731   1.388  0.3948 -1.1409 -0.0408
 1341TIP3    H2 3988   1.775   6.858   1.339 -0.0823 -1.0246 -0.3891
 1342TIP3   OH2 3989   5.833   2.725   3.210 -0.1219  0.0735  0.5832
 1342TIP3    H1 3990   5.824   2.662   3.139  1.0807 -0.0829  0.5531
 1342TIP3    H2 3991   5.873   2.802   3.169 -0.5717  0.4538  0.8434
 1343TIP3   OH2 3992   3.390   6.507   4.146  0.2234 -0.3721 -0.6607
 1343TIP3    H1 3993   3.414   6.599   4.141  1.2791 -0.4530  1.4058
 1343TIP3    H2 3994   3.337   6.500   4.226  0.7688 -1.6348 -0.3758
 1344TIP3   OH2 3995   1.840   0.070   3.574  0.3873 -0.4388  0.6370
 1344TIP3    H1 3996   1.810   0.147   3.525 -0.1837 -2.5607 -2.7313
 1344TIP3    H2 3997   1.760   0.030   3.607  0.4025 -0.8928  0.1479
 1345TIP3   OH2 3998   5.831   3.875   2.537 -0.4038  0.2586 -0.4950
 1345TIP3    H1 3999   5.856   3.866   2.445 -0.5577 -1.8524 -0.3945
 1345TIP3    H2 4000   5.914   3.869   2.585 -0.5521 -2.7578 -0.3705
 1346TIP3   OH2 4001   4.296   2.106   0.032  0.6704  0.0522 -0.1382
 1346TIP3    H1 4002   4.292   2.047  -0.043  0.3544 -0.7670  0.5137
 1346TIP3    H2 4003   4.286   2.050   0.109 -1.5258  1.0980  0.4515
 1347TIP3   OH2 4004   5.404   5.312   2.540  0.1190  0.1331  0.2764
 1347TIP3    H1 4005   5.327   5.303   2.597 -0.0898 -3.5170 -0.3629
 1347TIP3    H2 4006   5.470   5.256   2.581  2.5240  2.9800  0.6746
 1348TIP3   OH2 4007   6.623   4.338   2.571 -0.2066 -0.5649  0.3363
 1348TIP3    H1 4008   6.599   4.410   2.512 -0.1903  0.1318  1.1683
 1348TIP3    H2 4009   6.716   4.322   2.552 -0.0087  0.1463  0.6674
 1349TIP3   OH2 4010   3.234   6.473   2.536 -0.2853  0.0361  0.2814
 1349TIP3    H1 4011   3.283   6.395   2.564 -2.3186 -1.1305  0.7291
 1349TIP3    H2 4012   3.279   6.546   2.580  2.0791 -0.7371 -0.6715
 1350TIP3   OH2 4013   6.636   4.682   1.828  0.0807 -0.2712 -0.2423
 1350TIP3    H1 4014   6.560   4.738   1.843 -0.7132 -1.1712 -0.7465
 1350TIP3    H2 4015   6.633   4.618   1.899  2.6948  1.9675  2.1525
 1351TIP3   OH2 4016   4.958   5.014   2.193 -0.3629  0.1746 -0.1349
 1351TIP3    H1 4017   4.954   4.937   2.250 -1.1332  0.7795  0.6651
 1351TIP3    H2 4018   4.993   5.083   2.249 -1.9359  0.9967 -0.1153
 1352TIP3   OH2 4019   1.103   1.838   3.452  0.4610 -0.0182  0.2811
 1352TIP3    H1 4020   1.011   1.866   3.452  0.2587 -0.6602 -0.0646
 1352TIP3    H2 4021   1.122   1.823   3.359  0.9804  0.3077  0.3321
 1353TIP3   OH2 4022   2.007   4.409   4.181  0.0377 -0.4178 -0.0588
 1353TIP3    H1 4023   2.030   4.499   4.207 -0.2449 -0.2037 -0.5517
 1353TIP3    H2 4024   1.952   4.419   4.104  1.0170 -1.0547 -0.8674
 1354TIP3   OH2 4025   0.152   1.426   2.739  0.2365 -0.0452  0.2387
 1354TIP3    H1 4026   0.152   1.339   2.780 -0.6664 -0.5966 -0.8681
 1354TIP3    H2 4027   0.161   1.487   2.812 -2.7686 -0.9076  1.4583
 1355TIP3   OH2 4028   1.646   2.096   1.523  0.1726  0.2095 -0.4605
 1355TIP3    H1 4029   1.590   2.157   1.474  0.7814 -0.0098 -1.4588
 1355TIP3    H2 4030   1.614   2.100   1.613 -0.1878  1.5410 -0.6391
 1356TIP3   OH2 4031   0.223   0.695   0.626  0.3742 -0.4627  0.2837
 1356TIP3    H1 4032   0.262   0.759   0.566  1.2014 -0.2409  1.0316
 1356TIP3    H2 4033   0.140   0.671   0.585  0.7544 -0.0512 -0.7646
 1357TIP3   OH2 4034   2.215   2.005   3.660 -0.1806  0.4827  0.3349
 1357TIP3    H1 4035   2.197   2.046   3.575 -0.1119  1.6556  0.8767
 1357TIP3    H2 4036   2.308   2.021   3.675  0.2612 -1.2922 -0.1720
 1358TIP3   OH2 4037   1.463   1.287   5.752  0.5182 -0.5223  0.1198
 1358TIP3    H1 4038   1.409   1.218   5.790  0.5478 -0.1879  0.7878
 1358TIP3    H2 4039   1.540   1.242   5.718 -0.9556 -1.2800 -2.5408
 1359TIP3   OH2 4040   2.068   3.472   3.587 -0.6472 -0.5509 -0.7919
 1359TIP3    H1 4041   2.001   3.502   3.649 -0.6710 -1.0480 -0.5771
 1359TIP3    H2 4042   2.143   3.528   3.605 -0.1540 -1.6333  0.6974
 1360TIP3   OH2 4043   2.743   4.638   2.186  0.0836  0.0667 -0.6907
 1360TIP3    H1 4044   2.807   4.642   2.115  1.4519 -0.5761  0.4645
 1360TIP3    H2 4045   2.676   4.578   2.154  1.9203 -2.1986 -0.5441
 1361TIP3   OH2 4046   2.187   0.220   0.006 -0.3710 -0.0064 -0.3962
 1361TIP3    H1 4047   2.215   0.291   0.064 -1.2817  1.1002 -1.2674
 1361TIP3    H2 4048   2.261   0.205  -0.052  0.3362 -0.7333  0.6548
 1362TIP3   OH2 4049   0.962   1.787   3.042 -0.4166  0.2745  0.4367
 1362TIP3    H1 4050   1.008   1.859   3.085 -2.0513  1.7586 -0.1983
 1362TIP3    H2 4051   0.937   1.822   2.957 -3.1358 -0.2259  0.9373
 1363TIP3   OH2 4052   1.484   2.037   4.419 -0.3215  0.5068  0.3617
 1363TIP3    H1 4053   1.517   1.985   4.346 -1.1567 -0.0023  0.3257
 1363TIP3    H2 4054   1.560   2.057   4.472  0.3582  1.1483 -0.8115
 1364TIP3   OH2 4055   5.455   1.706   0.636  0.1343 -0.2316  0.2998
 1364TIP3    H1 4056   5.435   1.652   0.712 -1.6905 -0.5305 -0.3400
 1364TIP3    H2 4057   5.399   1.672   0.567 -0.2672  1.7585 -0.4267
 1365TIP3   OH2 4058   5.995   0.854   2.488 -0.3386  0.4413 -0.5852
 1365TIP3    H1 4059   6.068   0.909   2.461  0.1316  0.9894  1.6073
 1365TIP3    H2 4060   6.036   0.783   2.538 -1.3038  1.2245  1.4251
 1366TIP3   OH2 4061   1.380   5.735   4.962 -0.4415  0.0530  0.4736
 1366TIP3    H1 4062   1.351   5.667   4.901 -0.7707 -0.0031  0.6909
 1366TIP3    H2 4063   1.329   5.812   4.938  0.2081  0.3377 -0.0228
 1367TIP3   OH2 4064   2.209   1.190   4.060  0.6089  0.1879 -0.1177
 1367TIP3    H1 4065   2.273   1.159   4.125  0.9284 -0.1262 -0.5727
 1367TIP3    H2 4066   2.198   1.116   4.000 -0.8856 -0.0956  0.4618
 1368TIP3   OH2 4067   5.790   5.493   4.188 -0.0092  0.0333 -0.3452
 1368TIP3    H1 4068   5.859   5.553   4.162 -0.3087  2.0927  3.1039
 1368TIP3    H2 4069   5.714   5.520   4.135  0.0746  2.2744  0.5719
 1369TIP3   OH2 4070   5.640   2.245   3.619  0.5870 -0.0097 -0.0654
 1369TIP3    H1 4071   5.649   2.296   3.699 -0.6273 -1.2065  0.8804
 1369TIP3    H2 4072   5.700   2.171   3.631  0.8685  0.1355 -0.5480
 1370TIP3   OH2 4073   3.264   6.281   5.778 -0.5738  0.3704  0.1135
 1370TIP3    H1 4074   3.235   6.278   5.870 -0.2000 -1.4351  0.2115
 1370TIP3    H2 4075   3.189   6.319   5.731 -0.8041  1.2402  1.1449
 1371TIP3   OH2 4076   4.211   3.249   1.251  0.0556  0.0934 -0.3803
 1371TIP3    H1 4077   4.227   3.313   1.181  0.8923  1.3163  0.8620
 1371TIP3    H2 4078   4.242   3.166   1.215  1.3472  0.8658 -1.1653
 1372TIP3   OH2 4079   3.182   1.918   5.283 -0.5910  0.0243 -0.3060
 1372TIP3    H1 4080   3.230   1.931   5.201 -0.5206  0.6120 -0.1778
 1372TIP3    H2 4081   3.102   1.969   5.273 -1.3070 -1.1145 -0.5976
 1373TIP3   OH2 4082   0.313   4.245   2.476 -0.4945  0.1697 -0.1523
 1373TIP3    H1 4083   0.364   4.319   2.443  1.1405 -0.1518  1.5113
 1373TIP3    H2 4084   0.270   4.209   2.399 -0.4946  2.2111 -1.1571
 1374TIP3   OH2 4085   5.054   4.419   5.251  0.0773  0.1386 -0.1132
 1374TIP3    H1 4086   4.959   4.428   5.245 -0.4399 -4.0532 -1.6647
 1374TIP3    H2 4087   5.070   4.400   5.344 -1.1040 -2.2170 -0.3245
 1375TIP3   OH2 4088   0.783   3.513   2.971 -0.2755 -0.5218 -0.3477
 1375TIP3    H1 4089   0.855   3.481   3.025 -0.6650 -1.2144 -0.2213
 1375TIP3    H2 4090   0.816   3.593   2.930  0.8745 -1.2872 -0.9777
 1376TIP3   OH2 4091   3.473   2.702   1.677 -0.4745  0.8176  0.1542
 1376TIP3    H1 4092   3.566   2.679   1.677 -0.5310  0.5825 -0.3250
 1376TIP3    H2 4093   3.462   2.756   1.755 -0.6982 -2.1018  2.2967
 1377TIP3   OH2 4094   5.250   4.554   4.023 -0.4484  0.0353 -0.5020
 1377TIP3    H1 4095   5.250   4.460   4.002 -1.8609 -0.3897  1.1550
 1377TIP3    H2 4096   5.165   4.586   3.994 -2.2789 -0.4776  3.5952
 1378TIP3   OH2 4097   3.550   4.396   3.890 -0.4064 -0.2138 -0.3020
 1378TIP3    H1 4098   3.508   4.380   3.974 -3.2628  1.8249 -1.1789
 1378TIP3    H2 4099   3.523   4.485   3.867 -0.2744 -0.9128 -3.6477
 1379TIP3   OH2 4100   6.969   4.838   3.926  0.2246 -0.3255 -0.2539
 1379TIP3    H1 4101   6.925   4.857   4.009  2.2619 -1.5810  1.2247
 1379TIP3    H2 4102   6.904   4.793   3.873 -0.6369 -1.1063  1.3855
 1380TIP3   OH2 4103   4.300   0.362   2.784 -0.1510  0.0782 -0.7008
 1380TIP3    H1 4104   4.370   0.426   2.771 -0.6456  0.7513 -0.1213
 1380TIP3    H2 4105   4.321   0.291   2.724  1.4383 -0.0839 -0.0031
 1381TIP3   OH2 4106   0.423   0.338   2.924 -0.7779  0.0787  0.1559
 1381TIP3    H1 4107   0.445   0.406   2.987  0.6600  0.8563 -1.1318
 1381TIP3    H2 4108   0.329   0.347   2.910 -0.9814  0.3833  1.5803
 1382TIP3   OH2 4109   0.980   4.737   3.628 -0.4640 -0.1406 -0.0196
 1382TIP3    H1 4110   0.927   4.683   3.687 -0.6806  2.3822  2.2854
 1382TIP3    H2 4111   0.919   4.763   3.559 -0.6157 -1.9016 -0.6051
 1383TIP3   OH2 4112   4.920   6.497   3.662 -0.1323 -0.3094 -0.1122
 1383TIP3    H1 4113   4.892   6.494   3.753 -0.6136  2.1527 -0.1043
 1383TIP3    H2 4114   5.007   6.537   3.665  0.1609 -0.8860 -0.6929
 1384TIP3   OH2 4115   3.093   2.563   1.148  0.3773 -0.5337 -0.0600
 1384TIP3    H1 4116   3.135   2.606   1.074  0.1932  0.9020  0.6223
 1384TIP3    H2 4117   3.063   2.635   1.204  0.7340 -1.5650  1.5398
 1385TIP3   OH2 4118   0.878   5.753   2.676 -0.0334  0.5005  0.1535
 1385TIP3    H1 4119   0.855   5.823   2.737 -0.4632 -0.8349  1.5764
 1385TIP3    H2 4120   0.870   5.794   2.590 -2.5698  1.5773  0.8105
 1386TIP3   OH2 4121   3.753   0.193   3.265 -0.0267 -0.5930 -0.4689
 1386TIP3    H1 4122   3.728   0.285   3.252  0.9732 -0.2995 -0.4125
 1386TIP3    H2 4123   3.731   0.175   3.356 -0.3570 -0.4524 -0.5191
 1387TIP3   OH2 4124   1.475   0.070   5.010 -0.4315 -0.2960 -0.1900
 1387TIP3    H1 4125   1.454   0.131   5.080 -0.5223  0.7470 -1.0937
 1387TIP3    H2 4126   1.428   0.104   4.934  0.0275 -1.1432 -0.8688
 1388TIP3   OH2 4127   1.879   3.370   0.246 -0.4928  0.8572 -0.0652
 1388TIP3    H1 4128   1.916   3.380   0.334  0.7417 -0.4452 -0.3840
 1388TIP3    H2 4129   1.866   3.275   0.237  0.2686  0.8779 -1.6090
 1389TIP3   OH2 4130   3.611   0.456   5.343  0.2721  0.1826 -0.0301
 1389TIP3    H1 4131   3.695   0.494   5.369  1.8413 -2.5388 -0.7264
 1389TIP3    H2 4132   3.631   0.365   5.324 -2.5385 -0.1593 -1.9344
 1390TIP3   OH2 4133   1.595   1.982   4.180  0.4230 -0.0744  0.3861
 1390TIP3    H1 4134   1.629   2.069   4.157 -2.5184  1.3798  0.9704
 1390TIP3    H2 4135   1.511   1.976   4.133 -1.5499 -0.6841  3.6269
 1391TIP3   OH2 4136   6.759   3.723   5.639 -0.3273 -0.0861 -0.4316
 1391TIP3    H1 4137   6.774   3.702   5.731 -0.5481  0.0795 -0.3557
 1391TIP3    H2 4138   6.666   3.707   5.626 -0.3700  0.2290 -0.5349
 1392TIP3   OH2 4139   2.927   1.785   1.699  0.0367 -0.4191  0.2753
 1392TIP3    H1 4140   2.880   1.844   1.640  0.0465  0.6232  1.2710
 1392TIP3    H2 4141   2.999   1.750   1.646 -0.5264 -0.2880 -0.6016
 1393TIP3   OH2 4142   5.582   0.328   4.804 -0.5418  0.5120  0.4658
 1393TIP3    H1 4143   5.532   0.349   4.725  0.1826 -0.3097 -0.2341
 1393TIP3    H2 4144   5.607   0.412   4.840  1.6163  0.9443 -1.8104
 1394TIP3   OH2 4145   2.907   4.970   1.738  0.2610 -0.3683 -0.7719
 1394TIP3    H1 4146   2.900   5.006   1.650 -0.0366  3.5008  0.5936
 1394TIP3    H2 4147   2.824   4.994   1.780  0.8484 -1.0357  0.8727
 1395TIP3   OH2 4148   6.704   1.004   1.703 -0.4783  0.3315 -0.1097
 1395TIP3    H1 4149   6.722   1.095   1.678  1.3273 -0.2468 -1.0786
 1395TIP3    H2 4150   6.765   0.987   1.776  1.0532 -0.8220 -1.5875
 1396TIP3   OH2 4151   3.453   2.060   5.163  0.1618  0.3500 -0.5832
 1396TIP3    H1 4152   3.546   2.042   5.146  0.1847  0.8339 -0.9812
 1396TIP3    H2 4153   3.454   2.126   5.231  0.1426  1.3394 -1.5167
 1397TIP3   OH2 4154   1.849   1.307   0.471  0.5171 -0.0228 -0.1096
 1397TIP3    H1 4155   1.925   1.362   0.490 -0.1662  0.6887  0.6099
 1397TIP3    H2 4156   1.876   1.256   0.394  2.0587 -0.4590  0.6634
 1398TIP3   OH2 4157   3.976   6.563   0.721  0.0703 -0.0204 -0.4971
 1398TIP3    H1 4158   3.991   6.641   0.774  0.7259  1.4831 -2.7238
 1398TIP3    H2 4159   4.064   6.538   0.690  0.0978 -2.6072  1.3168
 1399TIP3   OH2 4160   3.590   1.063   5.234  0.5489 -0.2078  0.2618
 1399TIP3    H1 4161   3.519   1.079   5.172 -1.5391 -2.7494  1.7909
 1399TIP3    H2 4162   3.600   1.146   5.282  0.0517  0.8053 -1.3236
 1400TIP3   OH2 4163   2.104   1.558   4.859  0.5950 -0.2195  0.8246
 1400TIP3    H1 4164   2.191   1.526   4.882  0.9269 -0.3209 -0.4614
 1400TIP3    H2 4165   2.113   1.589   4.769 -0.5182  0.4923  0.9308
 1401TIP3   OH2 4166   3.922   4.546   0.154  0.4264  0.2885  0.4917
 1401TIP3    H1 4167   3.986   4.552   0.224 -0.5591  0.2069  1.4265
 1401TIP3    H2 4168   3.934   4.626   0.103  0.6076  0.7352  1.2300
 1402TIP3   OH2 4169   3.910   6.746   1.529 -0.3505  0.1828  0.2795
 1402TIP3    H1 4170   3.863   6.689   1.590  1.0164 -1.9493 -0.5247
 1402TIP3    H2 4171   3.894   6.706   1.443  2.9973 -0.8483 -0.0150
 1403TIP3   OH2 4172   2.179   4.698   4.601 -0.8167 -0.3500  0.5473
 1403TIP3    H1 4173   2.149   4.780   4.562  0.4277 -1.1179 -2.3229
 1403TIP3    H2 4174   2.208   4.722   4.689  1.0655  2.6767 -0.7360
 1404TIP3   OH2 4175   4.792   3.680   1.765 -0.0394 -0.3699 -0.9292
 1404TIP3    H1 4176   4.877   3.666   1.725 -0.0493 -1.6466 -0.5360
 1404TIP3    H2 4177   4.774   3.600   1.814  0.0397  1.1430  1.7935
 1405TIP3   OH2 4178   0.130   6.066   0.242 -0.2015 -0.2754  0.0518
 1405TIP3    H1 4179   0.210   6.055   0.190  0.4689 -3.0086  1.4717
 1405TIP3    H2 4180   0.150   6.027   0.327 -1.8517  2.4331  1.8578
 1406TIP3   OH2 4181   1.283   3.194   1.357  0.0346 -0.0107 -0.3775
 1406TIP3    H1 4182   1.213   3.156   1.303  1.4603 -0.3383 -2.0835
 1406TIP3    H2 4183   1.361   3.146   1.332  1.1083  1.1560  0.6096
 1407TIP3   OH2 4184   4.556   3.564   0.343  0.2172  0.2271 -0.0215
 1407TIP3    H1 4185   4.554   3.528   0.432 -0.4384  1.7313  0.6132
 1407TIP3    H2 4186   4.646   3.553   0.315  0.8002  1.0156  1.4126
 1408TIP3   OH2 4187   6.259   0.315   0.290 -0.0304  0.0478 -0.0365
 1408TIP3    H1 4188   6.344   0.273   0.278 -0.7835 -1.6902  0.3946
 1408TIP3    H2 4189   6.204   0.279   0.221 -1.1970 -1.1168  1.4359
 1409TIP3   OH2 4190   1.393   2.252   1.040  0.1051  0.6411 -0.6970
 1409TIP3    H1 4191   1.340   2.309   1.096  0.2109  0.9643 -0.9182
 1409TIP3    H2 4192   1.352   2.258   0.954 -1.4183 -1.6367 -0.1871
 1410TIP3   OH2 4193   3.974   2.218   3.945 -0.2057  0.3040  0.0719
 1410TIP3    H1 4194   3.947   2.129   3.963  1.6386 -0.2346  0.4583
 1410TIP3    H2 4195   3.911   2.273   3.992 -0.7283 -0.8287  0.7279
 1411TIP3   OH2 4196   1.155   5.919   2.303  0.8045 -0.7274 -0.8643
 1411TIP3    H1 4197   1.092   5.900   2.372  0.2112 -1.2731 -1.5406
 1411TIP3    H2 4198   1.179   6.010   2.318 -0.6747 -0.2850 -0.9940
 1412TIP3   OH2 4199   5.028   6.014   2.638 -0.4690  0.4442 -0.5402
 1412TIP3    H1 4200   5.026   5.921   2.620  0.6396  0.4818 -0.9667
 1412TIP3    H2 4201   5.083   6.051   2.569  1.9263  0.9075  1.4208
 1413TIP3   OH2 4202   1.853   5.771   5.115  0.0951  0.3485  0.3236
 1413TIP3    H1 4203   1.888   5.689   5.080  2.0664  0.3524  2.0280
 1413TIP3    H2 4204   1.802   5.809   5.044  1.9968 -0.6996 -1.7208
 1414TIP3   OH2 4205   6.168   5.297   2.620  0.9436 -0.1100 -0.2043
 1414TIP3    H1 4206   6.121   5.307   2.703 -0.3988 -0.6942 -0.8706
 1414TIP3    H2 4207   6.138   5.371   2.566  1.0706 -0.2817 -0.5139
 1415TIP3   OH2 4208   3.053   4.238   1.712 -0.4062  0.4565  0.2045
 1415TIP3    H1 4209   3.036   4.255   1.619 -2.6161 -0.8909  0.2914
 1415TIP3    H2 4210   3.101   4.156   1.713 -1.0356  0.0850  0.2678
 1416TIP3   OH2 4211   5.560   5.593   4.419  0.8117 -0.1536 -0.9718
 1416TIP3    H1 4212   5.630   5.538   4.453  0.6398  1.0346  1.5343
 1416TIP3    H2 4213   5.486   5.533   4.406  1.5537 -1.0082 -1.3021
 1417TIP3   OH2 4214   6.808   1.125   5.507  0.3334 -0.0026 -0.5269
 1417TIP3    H1 4215   6.733   1.117   5.448  0.4507  0.1593 -0.7008
 1417TIP3    H2 4216   6.882   1.092   5.457  0.7060  1.5127 -1.0327
 1418TIP3   OH2 4217   2.354   5.890   5.847  0.1961 -0.6523 -0.0394
 1418TIP3    H1 4218   2.287   5.873   5.781  1.7255  1.5190 -2.3783
 1418TIP3    H2 4219   2.430   5.840   5.816  0.7290 -0.1783  0.4908
 1419TIP3   OH2 4220   1.381   5.421   1.345 -0.4098  0.2008  0.0932
 1419TIP3    H1 4221   1.327   5.493   1.314  0.3614  1.0539  0.6912
 1419TIP3    H2 4222   1.445   5.462   1.403  0.2127 -0.9268  0.2293
 1420TIP3   OH2 4223   5.638   2.573   4.391  0.1337 -0.0951 -0.0009
 1420TIP3    H1 4224   5.597   2.594   4.307 -0.2095 -0.2428  0.1251
 1420TIP3    H2 4225   5.676   2.655   4.421  0.2954 -0.0518 -0.3206
 1421TIP3   OH2 4226   0.774   5.552   4.690 -0.1459 -0.2132  0.3530
 1421TIP3    H1 4227   0.825   5.471   4.696  1.4263  0.7398  0.4394
 1421TIP3    H2 4228   0.738   5.551   4.601  0.3222 -0.7585  0.1591
 1422TIP3   OH2 4229   2.322   6.189   5.614  0.2256  0.4835 -0.1101
 1422TIP3    H1 4230   2.320   6.102   5.574 -0.6439  0.8880 -0.9961
 1422TIP3    H2 4231   2.341   6.248   5.542 -0.5710  1.1551  0.2086
 1423TIP3   OH2 4232   4.457   6.203   3.339  0.3509 -0.3407  0.1725
 1423TIP3    H1 4233   4.414   6.288   3.349  0.5099 -0.4356  1.9259
 1423TIP3    H2 4234   4.401   6.143   3.388  1.0241 -0.9719  0.1674
 1424TIP3   OH2 4235   4.113   2.662   0.082 -0.4401  0.5359 -0.0993
 1424TIP3    H1 4236   4.111   2.639  -0.011 -0.2341  2.5385 -0.6515
 1424TIP3    H2 4237   4.024   2.647   0.113 -1.3899  2.8085 -1.4587
 1425TIP3   OH2 4238   3.246   0.465   5.188 -0.3261 -0.4117 -0.1667
 1425TIP3    H1 4239   3.202   0.444   5.271 -0.0759 -0.8939 -0.1481
 1425TIP3    H2 4240   3.264   0.559   5.193  1.2958 -0.7348  1.1422
 1426TIP3   OH2 4241   2.889   5.826   5.444 -0.0215  0.0694  0.4611
 1426TIP3    H1 4242   2.931   5.884   5.381 -0.6962 -0.7361 -0.7877
 1426TIP3    H2 4243   2.946   5.828   5.521  0.5626  1.4663  0.0151
 1427TIP3   OH2 4244   5.191   2.554   5.407  0.0222  0.3326 -0.7258
 1427TIP3    H1 4245   5.229   2.475   5.446 -0.7991  0.1402 -0.2903
 1427TIP3    H2 4246   5.182   2.533   5.314  1.6522  0.6596 -0.9870
 1428TIP3   OH2 4247   6.087   4.379   1.209 -0.1463  0.0713  0.5489
 1428TIP3    H1 4248   6.023   4.449   1.223  0.3841  0.9615 -1.1172
 1428TIP3    H2 4249   6.168   4.414   1.244  0.1986  0.4814 -0.5988
 1429TIP3   OH2 4250   2.823   1.402   1.425  0.1770 -0.6122 -0.0299
 1429TIP3    H1 4251   2.836   1.407   1.520  0.0435 -2.3427  0.1024
 1429TIP3    H2 4252   2.735   1.439   1.411 -0.1038 -1.0164  0.6171
 1430TIP3   OH2 4253   1.324   0.808   5.501 -0.3477 -0.2686  0.4163
 1430TIP3    H1 4254   1.261   0.809   5.573  0.0625  1.1539  0.8013
 1430TIP3    H2 4255   1.270   0.804   5.422 -1.0803  2.2465  0.6837
 1431TIP3   OH2 4256   3.050   2.877   0.965 -0.0518 -0.2303  0.0943
 1431TIP3    H1 4257   2.975   2.850   0.913  0.4093  1.7373 -1.7430
 1431TIP3    H2 4258   3.012   2.935   1.032 -0.5257 -1.9892  1.4177
 1432TIP3   OH2 4259   2.685   3.577   0.111  0.1333 -0.2772 -0.6872
 1432TIP3    H1 4260   2.754   3.627   0.068 -0.5029  0.8438 -0.4685
 1432TIP3    H2 4261   2.709   3.486   0.098  1.3331  0.0819 -1.1234
 1433TIP3   OH2 4262   5.524   6.534   5.042  0.1841 -0.2366  0.1720
 1433TIP3    H1 4263   5.595   6.480   5.007 -0.2276 -0.5874 -0.1222
 1433TIP3    H2 4264   5.542   6.622   5.007  0.8174 -0.1940  0.6010
 1434TIP3   OH2 4265   5.957   1.018   4.293  0.4516 -0.2148 -0.1698
 1434TIP3    H1 4266   5.947   1.091   4.353  0.2825 -0.3085 -0.0839
 1434TIP3    H2 4267   6.049   0.992   4.302 -0.1678 -2.0143  2.1387
 1435TIP3   OH2 4268   6.271   4.052   0.412 -0.4717 -0.0061  0.0748
 1435TIP3    H1 4269   6.196   4.066   0.353 -0.0664  2.4129  0.0264
 1435TIP3    H2 4270   6.347   4.076   0.359  0.3939 -2.4377  0.1268
 1436TIP3   OH2 4271   4.777   1.351   3.302 -0.3879 -0.7971  0.1362
 1436TIP3    H1 4272   4.729   1.352   3.384  1.6428 -1.6722  1.4273
 1436TIP3    H2 4273   4.742   1.275   3.255  0.0818 -1.7578  1.2939
 1437TIP3   OH2 4274   5.911   1.327   2.522  0.7577  0.4099  0.2561
 1437TIP3    H1 4275   5.836   1.269   2.539  0.0113  0.8873 -1.2941
 1437TIP3    H2 4276   5.880   1.414   2.546  1.2180  0.4615  0.6874
 1438TIP3   OH2 4277   4.037   5.195   0.568 -0.1434 -0.4919 -0.2076
 1438TIP3    H1 4278   4.000   5.124   0.621 -0.0164 -0.4100 -0.0061
 1438TIP3    H2 4279   3.962   5.250   0.546  0.1277  1.0210  2.2220
 1439TIP3   OH2 4280   2.504   0.652   1.006 -0.0201  0.2652 -0.5278
 1439TIP3    H1 4281   2.463   0.715   1.065  1.0450 -1.0862  1.8087
 1439TIP3    H2 4282   2.441   0.580   1.000  0.4158 -0.1809  0.0823
 1440TIP3   OH2 4283   0.906   3.585   5.264  0.2169  0.1516  0.3290
 1440TIP3    H1 4284   0.849   3.658   5.240 -0.8443 -1.4709 -2.4682
 1440TIP3    H2 4285   0.993   3.624   5.268 -0.6807  2.2205  2.4717
 1441TIP3   OH2 4286   3.032   2.346   3.770 -0.2557  0.7012  0.0472
 1441TIP3    H1 4287   3.014   2.268   3.717 -0.6765  0.0448  1.1164
 1441TIP3    H2 4288   3.106   2.387   3.727  0.4013 -0.6487 -0.1860
 1442TIP3   OH2 4289   2.086   6.427   4.350  0.4125  0.0728 -0.0193
 1442TIP3    H1 4290   2.101   6.333   4.359  1.6153  0.4194  2.0840
 1442TIP3    H2 4291   2.028   6.434   4.274  0.6165 -2.3176 -0.4885
 1443TIP3   OH2 4292   4.290   6.680   3.177 -0.2348  0.2326  0.4105
 1443TIP3    H1 4293   4.374   6.635   3.188 -0.1355  0.6540  1.5679
 1443TIP3    H2 4294   4.227   6.610   3.165  0.4972 -0.0551 -2.5127
 1444TIP3   OH2 4295   4.423   1.623   2.501  0.7692  0.0811 -0.4650
 1444TIP3    H1 4296   4.410   1.716   2.482 -1.9354 -0.2984 -0.9128
 1444TIP3    H2 4297   4.400   1.579   2.419  0.1254 -1.0621  0.3105
 1445TIP3   OH2 4298   7.207   0.864   0.193 -0.8424 -0.5198 -0.3425
 1445TIP3    H1 4299   7.125   0.880   0.147 -0.3689 -1.9634 -1.7975
 1445TIP3    H2 4300   7.270   0.923   0.152 -0.7201 -0.8568 -0.6499
 1446TIP3   OH2 4301   0.286   1.054   4.610 -0.0651 -0.2627 -0.4178
 1446TIP3    H1 4302   0.377   1.044   4.637  0.2166 -1.5884 -1.7092
 1446TIP3    H2 4303   0.235   1.017   4.683  0.5313 -1.3150 -0.5213
 1447TIP3   OH2 4304   4.829   3.169   0.715  0.2428  0.2410 -0.3446
 1447TIP3    H1 4305   4.793   3.138   0.799  0.6124  1.3789  0.2544
 1447TIP3    H2 4306   4.913   3.124   0.707  0.2617  0.2191 -0.0417
 1448TIP3   OH2 4307   2.691   0.883   1.547 -0.5074  0.1141 -0.4351
 1448TIP3    H1 4308   2.703   0.957   1.606 -1.0844  1.8437 -2.3879
 1448TIP3    H2 4309   2.596   0.871   1.542 -0.4984  0.4026 -1.4818
 1449TIP3   OH2 4310   4.585   3.827   1.475  0.3806 -0.6951 -0.7970
 1449TIP3    H1 4311   4.510   3.858   1.425 -0.4001 -0.2073  0.6114
 1449TIP3    H2 4312   4.547   3.793   1.556  1.5634 -1.8371 -0.7011
 1450TIP3   OH2 4313   1.059   6.073   2.643  0.1983 -0.3280  0.4168
 1450TIP3    H1 4314   0.971   6.109   2.650 -0.5235 -2.0691  0.8060
 1450TIP3    H2 4315   1.094   6.110   2.562 -0.5115  1.1471  0.7649
 1451TIP3   OH2 4316   6.596   5.742   4.540 -0.4169 -0.7296 -0.5629
 1451TIP3    H1 4317   6.611   5.651   4.515  1.3443 -0.4287 -0.6951
 1451TIP3    H2 4318   6.547   5.779   4.467  1.0025 -0.9516 -1.6643
 1452TIP3   OH2 4319   3.160   3.211  -0.013 -0.5388  0.3716 -0.1219
 1452TIP3    H1 4320   3.165   3.194   0.080 -2.5091 -0.7280 -0.1521
 1452TIP3    H2 4321   3.122   3.299  -0.019 -0.5111  0.4003  0.1184
 1453TIP3   OH2 4322   5.304   5.624   0.304  0.1872 -0.4316 -0.3565
 1453TIP3    H1 4323   5.283   5.584   0.388  0.9072 -0.9241 -0.4072
 1453TIP3    H2 4324   5.223   5.669   0.278 -0.3170 -1.0253  0.1696
 1454TIP3   OH2 4325   0.215   0.222   1.942 -0.5377 -0.1579 -0.0581
 1454TIP3    H1 4326   0.147   0.245   1.878  1.0461  0.6696 -1.5030
 1454TIP3    H2 4327   0.207   0.289   2.011 -1.8831 -0.7273  0.3821
 1455TIP3   OH2 4328   4.452   5.181   2.012 -0.4951 -0.0671 -0.1367
 1455TIP3    H1 4329   4.542   5.166   2.043 -0.2983 -0.0244 -0.6763
 1455TIP3    H2 4330   4.425   5.261   2.057 -0.0188  0.2940 -0.4839
 1456TIP3   OH2 4331   2.665   5.576   1.387 -0.1789  0.0942  0.1064
 1456TIP3    H1 4332   2.712   5.589   1.469 -0.8856 -1.0628  0.7152
 1456TIP3    H2 4333   2.653   5.664   1.352  1.2589  0.5097  0.5898
 1457TIP3   OH2 4334   4.315   3.552   5.132 -0.2355  0.3422 -0.1981
 1457TIP3    H1 4335   4.290   3.636   5.170 -1.0523  1.4353 -2.9523
 1457TIP3    H2 4336   4.411   3.553   5.131 -0.2327  0.9582  0.3363
 1458TIP3   OH2 4337   2.552   4.583   3.892 -0.2163 -0.1132 -0.1522
 1458TIP3    H1 4338   2.470   4.535   3.908  0.2727 -1.1916 -0.7028
 1458TIP3    H2 4339   2.554   4.594   3.797  0.8405 -1.1877 -0.2766
 1459TIP3   OH2 4340   0.767  -0.011   4.967  0.1761  0.3606 -0.2976
 1459TIP3    H1 4341   0.802   0.062   4.915  2.2122 -0.6334 -0.4368
 1459TIP3    H2 4342   0.673   0.005   4.970  0.4456  2.4717 -1.1197
 1460TIP3   OH2 4343   2.905   4.803   0.595  0.4274  0.6100 -0.2748
 1460TIP3    H1 4344   2.964   4.798   0.670 -0.6383 -2.2144  0.4878
 1460TIP3    H2 4345   2.963   4.817   0.520  1.6607  1.7441  0.8370
 1461TIP3   OH2 4346   3.323   6.530   1.999  0.3811  0.0074 -0.2089
 1461TIP3    H1 4347   3.348   6.603   1.943 -1.5992  0.8489 -0.0965
 1461TIP3    H2 4348   3.365   6.549   2.083  2.2342 -0.5445 -0.9695
 1462TIP3   OH2 4349   2.076   5.656   4.568 -0.1765 -0.2277  0.0922
 1462TIP3    H1 4350   2.150   5.611   4.608 -0.0169  0.5524  0.6852
 1462TIP3    H2 4351   2.114   5.701   4.492 -0.6511 -2.5038 -1.5870
 1463TIP3   OH2 4352   6.243   4.398   2.216  0.4365  0.4446  0.5281
 1463TIP3    H1 4353   6.261   4.306   2.239  0.4122  0.2008 -0.4172
 1463TIP3    H2 4354   6.163   4.419   2.265  0.3246 -0.1017  0.5870
 1464TIP3   OH2 4355   3.099   0.333   2.346 -0.1228 -0.0700  0.4101
 1464TIP3    H1 4356   3.155   0.259   2.323 -0.4765 -0.0846 -0.4577
 1464TIP3    H2 4357   3.065   0.312   2.432  1.0732 -0.1343  0.8907
 1465TIP3   OH2 4358   6.313   2.951   4.928 -0.5502 -0.0043  0.2442
 1465TIP3    H1 4359   6.399   2.910   4.936 -1.3931 -1.7655  0.8165
 1465TIP3    H2 4360   6.324   3.037   4.969  0.7566 -0.4922  0.9906
 1466TIP3   OH2 4361   2.332   5.643   0.237  0.3159 -0.1131  0.0704
 1466TIP3    H1 4362   2.276   5.571   0.265  0.2160  0.1987  0.6921
 1466TIP3    H2 4363   2.279   5.691   0.173  0.4962 -0.7571 -0.5671
 1467TIP3   OH2 4364   1.650   6.033   5.532  0.0108  0.4361 -0.3936
 1467TIP3    H1 4365   1.710   5.983   5.476 -0.1015  0.3825 -0.4661
 1467TIP3    H2 4366   1.574   5.976   5.543 -0.1185  0.5929 -0.4788
 1468TIP3   OH2 4367   0.189   1.940   4.743 -0.3908 -0.2849 -0.0329
 1468TIP3    H1 4368   0.193   1.876   4.672  0.6816  0.1812 -0.4228
 1468TIP3    H2 4369   0.153   2.019   4.703 -0.2065 -0.1588  0.0438
 1469TIP3   OH2 4370   0.443   1.091   0.231  0.9087  0.0586 -0.0485
 1469TIP3    H1 4371   0.510   1.153   0.204 -0.2068  0.5925 -1.7469
 1469TIP3    H2 4372   0.419   1.044   0.151 -0.5156 -0.3220  0.5577
 1470TIP3   OH2 4373   2.515   3.922   0.056  0.4378  0.1635  0.1060
 1470TIP3    H1 4374   2.472   3.919  -0.029  1.8207  1.4362 -0.7029
 1470TIP3    H2 4375   2.546   3.832   0.071  0.1117 -0.0895 -0.7061
 1471TIP3   OH2 4376   0.164   1.613   1.365  0.0438 -0.1248  0.0702
 1471TIP3    H1 4377   0.173   1.521   1.392  0.2326 -0.2233 -0.3221
 1471TIP3    H2 4378   0.254   1.647   1.369  0.0895 -0.1705 -0.5424
 1472TIP3   OH2 4379   1.705   4.624   4.764  0.2135 -0.0252  0.8463
 1472TIP3    H1 4380   1.688   4.656   4.853 -0.8502 -1.0771  1.0544
 1472TIP3    H2 4381   1.772   4.557   4.774 -1.1720 -1.4279  1.1513
 1473TIP3   OH2 4382   6.154   3.559   4.575  0.1501 -0.0348 -0.3203
 1473TIP3    H1 4383   6.160   3.501   4.651 -1.0682 -0.5282 -0.5897
 1473TIP3    H2 4384   6.132   3.501   4.503 -0.4354  0.6798 -0.7196
 1474TIP3   OH2 4385   6.275   0.265   4.661 -0.6460  0.0438 -0.2857
 1474TIP3    H1 4386   6.236   0.347   4.693 -1.8512 -0.1224 -1.2797
 1474TIP3    H2 4387   6.222   0.196   4.700 -0.9911 -0.2052 -1.1813
 1475TIP3   OH2 4388   1.465   0.717   5.000 -0.5172 -0.0229 -0.1202
 1475TIP3    H1 4389   1.524   0.660   4.951 -0.4927 -0.1115  0.0134
 1475TIP3    H2 4390   1.402   0.658   5.040 -0.4027  0.0299  0.1406
 1476TIP3   OH2 4391   5.527   4.899   0.775 -0.5853 -0.6539 -0.1135
 1476TIP3    H1 4392   5.575   4.976   0.745 -0.7604  0.1524  1.5782
 1476TIP3    H2 4393   5.442   4.933   0.803  0.0185 -1.1277  2.4656
 1477TIP3   OH2 4394   1.097   5.639   2.896  0.2845 -0.0119 -0.4300
 1477TIP3    H1 4395   1.064   5.688   2.971  0.4683 -3.5545  2.2732
 1477TIP3    H2 4396   1.022   5.629   2.838 -0.2761  1.5449 -0.0053
 1478TIP3   OH2 4397   6.045   0.644   0.928  0.2537 -0.0126 -0.2351
 1478TIP3    H1 4398   6.116   0.690   0.973  1.6021 -1.5521 -0.6803
 1478TIP3    H2 4399   5.998   0.713   0.881  0.8838  1.1730  0.8017
 1479TIP3   OH2 4400   0.728   4.588   1.661 -0.6255 -0.1923 -0.0100
 1479TIP3    H1 4401   0.656   4.645   1.632  0.2469  1.1250  0.3165
 1479TIP3    H2 4402   0.807   4.632   1.629  0.0542 -1.5042 -0.1726
 1480TIP3   OH2 4403   4.686   0.534   4.150 -0.4087  0.4720 -0.1359
 1480TIP3    H1 4404   4.638   0.554   4.230  0.5985 -0.2100  0.6647
 1480TIP3    H2 4405   4.681   0.439   4.142  1.1543  0.3318  0.2242
 1481TIP3   OH2 4406   6.061   2.756   2.914 -0.0727  0.4240 -0.7406
 1481TIP3    H1 4407   6.151   2.764   2.880 -0.4710  0.7811 -1.7399
 1481TIP3    H2 4408   6.015   2.705   2.848 -0.3666 -0.6857  0.2745
 1482TIP3   OH2 4409   2.053   0.176   3.148 -0.0405 -0.3097 -0.0733
 1482TIP3    H1 4410   2.120   0.199   3.212 -1.0265 -0.5677  1.0821
 1482TIP3    H2 4411   2.089   0.204   3.064  1.5995 -0.6431  0.4922
 1483TIP3   OH2 4412   3.974   3.223   0.416  0.4276  0.0382  0.1003
 1483TIP3    H1 4413   4.002   3.143   0.372 -0.6021  0.2154 -0.9199
 1483TIP3    H2 4414   4.005   3.213   0.506  2.1846 -0.5268 -0.5401
 1484TIP3   OH2 4415   0.948   5.847   0.959  0.6583 -0.6320  0.4328
 1484TIP3    H1 4416   0.891   5.924   0.967  2.5909  0.9393 -0.0408
 1484TIP3    H2 4417   0.888   5.772   0.963 -1.5948  0.9228 -1.2860
 1485TIP3   OH2 4418   1.902   6.432   5.629 -0.3845 -0.6796  0.0410
 1485TIP3    H1 4419   1.846   6.370   5.676 -0.8432 -0.4456 -0.1890
 1485TIP3    H2 4420   1.905   6.399   5.539 -0.0423 -0.7619  0.0797
 1486TIP3   OH2 4421   2.713   4.686   4.839  0.1982 -0.1618  0.3839
 1486TIP3    H1 4422   2.673   4.766   4.874 -1.9547 -0.2168 -1.6888
 1486TIP3    H2 4423   2.790   4.717   4.792 -1.0244  0.8461 -1.0337
 1487TIP3   OH2 4424   2.667   2.253   5.644  0.2989  0.1576 -0.0573
 1487TIP3    H1 4425   2.581   2.219   5.668  1.2630 -1.1563  1.7178
 1487TIP3    H2 4426   2.692   2.310   5.716  1.7109 -0.9816  0.3875
 1488TIP3   OH2 4427   7.161   2.375   0.968  0.0343  0.2483  0.2834
 1488TIP3    H1 4428   7.154   2.303   0.904 -1.2707 -1.1792  1.9029
 1488TIP3    H2 4429   7.076   2.419   0.963  0.6380  1.3664 -0.3180
 1489TIP3   OH2 4430   4.840   6.336   0.712 -0.2516  0.3759  0.2090
 1489TIP3    H1 4431   4.855   6.398   0.783  1.2219  0.8997 -0.5273
 1489TIP3    H2 4432   4.909   6.271   0.722 -0.4720  0.0550 -0.3212
 1490TIP3   OH2 4433   1.339   4.241   4.256 -0.2113 -0.9633  0.1080
 1490TIP3    H1 4434   1.271   4.175   4.240  0.5076 -1.7170  0.1171
 1490TIP3    H2 4435   1.417   4.191   4.276  0.7260 -0.1393 -1.3144
 1491TIP3   OH2 4436   1.908   0.543   1.650  0.1850 -0.0825  0.1768
 1491TIP3    H1 4437   1.925   0.481   1.579  0.2828  0.5444 -0.3510
 1491TIP3    H2 4438   1.889   0.487   1.725 -2.1134 -0.8142 -0.8408
 1492TIP3   OH2 4439   0.615   6.260   0.001  0.1267 -0.2548 -0.0429
 1492TIP3    H1 4440   0.697   6.269  -0.048  0.8620 -1.4901  0.9010
 1492TIP3    H2 4441   0.638   6.283   0.091 -1.0584  1.3420 -0.1136
 1493TIP3   OH2 4442   0.896   4.211   2.475 -0.2554  0.3608  0.0490
 1493TIP3    H1 4443   0.958   4.256   2.417 -1.0032  0.2718 -0.8258
 1493TIP3    H2 4444   0.948   4.141   2.515 -0.0213 -0.3222 -1.4084
 1494TIP3   OH2 4445   0.169   0.061   3.204 -0.2045  0.5656 -0.4662
 1494TIP3    H1 4446   0.209   0.067   3.117 -0.0536 -1.2407 -0.5566
 1494TIP3    H2 4447   0.076   0.046   3.186 -0.1021 -0.2510 -0.3318
 1495TIP3   OH2 4448   3.945   1.582   2.103 -0.3034 -0.2362 -0.2959
 1495TIP3    H1 4449   4.018   1.624   2.058 -0.9801 -1.1612 -2.3580
 1495TIP3    H2 4450   3.924   1.506   2.049 -1.5333 -1.0995  1.3208
 1496TIP3   OH2 4451   4.855   6.064   5.092  0.1452  0.3290  0.1147
 1496TIP3    H1 4452   4.819   6.015   5.018  1.2984  1.4206 -1.2308
 1496TIP3    H2 4453   4.948   6.073   5.071  0.9592 -1.0545  2.7167
 1497TIP3   OH2 4454   6.685   4.038   2.468 -0.2668  0.4698 -0.0576
 1497TIP3    H1 4455   6.696   3.947   2.442  0.7730 -0.1034  2.1936
 1497TIP3    H2 4456   6.758   4.056   2.528 -1.4464  2.2272  0.9662
 1498TIP3   OH2 4457   2.179   2.877   1.804 -0.7395 -0.0485  0.3374
 1498TIP3    H1 4458   2.174   2.935   1.880 -0.8065 -0.2162  0.4627
 1498TIP3    H2 4459   2.239   2.920   1.744 -0.8526  0.1891  0.3965
 1499TIP3   OH2 4460   6.703   6.204   0.735  0.3939 -0.6166 -0.6633
 1499TIP3    H1 4461   6.676   6.276   0.677  1.0552  2.2885  2.3200
 1499TIP3    H2 4462   6.791   6.181   0.704  0.9988  1.3198 -0.5456
 1500TIP3   OH2 4463   5.152  -0.003   3.006 -1.1173 -0.1675 -0.5331
 1500TIP3    H1 4464   5.097  -0.020   2.930 -0.9364  0.0950 -0.7236
 1500TIP3    H2 4465   5.143   0.091   3.021 -0.3072 -0.0283 -0.8873
 1501TIP3   OH2 4466   2.727   4.552   2.836  0.0719 -0.3458  0.6770
 1501TIP3    H1 4467   2.724   4.509   2.922  0.1101 -0.0669  0.8202
 1501TIP3    H2 4468   2.699   4.485   2.774 -0.3531 -0.4264  0.9548
 1502TIP3   OH2 4469   6.623   1.644   3.973  0.3380 -0.0039  0.4708
 1502TIP3    H1 4470   6.716   1.655   3.994  0.5839  0.2386 -0.6684
 1502TIP3    H2 4471   6.611   1.549   3.970  0.0992 -0.0760  2.4089
 1503TIP3   OH2 4472   1.866   2.339   2.442  0.3601  0.0953 -0.2721
 1503TIP3    H1 4473   1.771   2.341   2.453  0.4442  2.3377  0.4720
 1503TIP3    H2 4474   1.881   2.261   2.388 -1.7254 -1.2064  0.8328
 1504TIP3   OH2 4475   2.294   5.188   2.534  0.2866  1.0313  0.2671
 1504TIP3    H1 4476   2.336   5.269   2.506  1.2512  1.2022  2.0409
 1504TIP3    H2 4477   2.349   5.118   2.497 -0.3658  1.1483 -0.9927
 1505TIP3   OH2 4478   4.889   6.514   4.122  0.4562 -0.3898  0.2664
 1505TIP3    H1 4479   4.832   6.585   4.153 -0.0886 -1.0831  0.8741
 1505TIP3    H2 4480   4.922   6.473   4.202  0.9584 -0.6713 -0.0827
 1506TIP3   OH2 4481   3.755   3.057   2.180 -0.5080  0.1466  0.0813
 1506TIP3    H1 4482   3.758   2.985   2.117 -0.6957 -0.4041  0.6967
 1506TIP3    H2 4483   3.718   3.019   2.259 -2.6705  1.3989 -0.2301
 1507TIP3   OH2 4484   2.365   1.644   5.619  0.6146  0.0344 -0.1681
 1507TIP3    H1 4485   2.401   1.563   5.654 -0.2601 -0.0386  0.6024
 1507TIP3    H2 4486   2.270   1.629   5.617  0.3114  1.4675  1.2129
 1508TIP3   OH2 4487   2.155   1.049   2.666 -0.1339 -1.0599  0.0255
 1508TIP3    H1 4488   2.162   1.023   2.574  0.9955 -0.5780 -0.0356
 1508TIP3    H2 4489   2.173   1.143   2.666  0.8141 -1.2313  0.8489
 1509TIP3   OH2 4490   5.111   3.859   4.108  0.4852 -0.1354 -0.3657
 1509TIP3    H1 4491   5.103   3.837   4.201  0.9907 -3.1693 -0.9360
 1509TIP3    H2 4492   5.205   3.863   4.092  0.4015  0.9420 -0.6583
 1510TIP3   OH2 4493   5.630   0.466   1.685  0.2492  0.6725  0.1198
 1510TIP3    H1 4494   5.663   0.492   1.771  1.2398  0.0838 -0.0694
 1510TIP3    H2 4495   5.619   0.549   1.637  0.2102  0.9605  0.6229
 1511TIP3   OH2 4496   3.395   6.250   4.878  0.3329  0.2910 -0.4294
 1511TIP3    H1 4497   3.322   6.188   4.871 -0.5517  1.4046 -1.4730
 1511TIP3    H2 4498   3.456   6.208   4.938 -1.0010 -0.8466  0.2013
 1512TIP3   OH2 4499   2.648   3.080   4.230  0.0490 -0.0056  0.1427
 1512TIP3    H1 4500   2.574   3.019   4.231  0.7449 -0.9544 -1.7400
 1512TIP3    H2 4501   2.637   3.130   4.149  2.6311 -1.7721 -1.4485
 1513TIP3   OH2 4502   4.932   5.515   3.843  0.1010  0.3136  0.4057
 1513TIP3    H1 4503   4.916   5.497   3.935 -0.5753  0.7987  0.3897
 1513TIP3    H2 4504   4.930   5.610   3.836  0.2668  0.2842 -0.0844
 1514TIP3   OH2 4505   3.911   1.088   1.017 -1.3671 -0.1135 -0.1769
 1514TIP3    H1 4506   3.836   1.028   1.008  0.5835 -2.5251 -1.8497
 1514TIP3    H2 4507   3.965   1.069   0.940  1.4668  0.7838  1.4787
 1515TIP3   OH2 4508   6.804   1.273   5.148  0.1992 -0.4004 -0.1797
 1515TIP3    H1 4509   6.830   1.328   5.222  2.5981 -3.2241  1.2310
 1515TIP3    H2 4510   6.880   1.218   5.130 -0.7678 -0.7960 -3.9497
 1516TIP3   OH2 4511   0.263   4.957   5.108 -0.0037  0.5055  0.3944
 1516TIP3    H1 4512   0.291   5.041   5.144  0.6176  0.1284  0.8130
 1516TIP3    H2 4513   0.177   4.942   5.146  1.0982 -0.4383  2.7240
 1517TIP3   OH2 4514   2.918   2.831   2.749  0.0849 -0.3526  0.0091
 1517TIP3    H1 4515   3.001   2.809   2.705 -0.2716 -2.3637  0.2246
 1517TIP3    H2 4516   2.855   2.840   2.677  0.3124  0.3781 -0.1067
 1518TIP3   OH2 4517   5.219   0.338   1.313 -0.0225  0.1837 -0.3913
 1518TIP3    H1 4518   5.247   0.320   1.223  0.3915  0.6882 -0.3733
 1518TIP3    H2 4519   5.272   0.279   1.367 -0.9434 -0.7858 -0.5377
 1519TIP3   OH2 4520   4.311   6.710   2.362 -0.0264 -0.1248 -0.0058
 1519TIP3    H1 4521   4.269   6.628   2.388  0.5135 -0.1518  0.8318
 1519TIP3    H2 4522   4.403   6.698   2.387 -0.2876  1.4914  2.0304
 1520TIP3   OH2 4523   6.305   5.169   4.844  0.1554 -0.7748 -0.0190
 1520TIP3    H1 4524   6.373   5.227   4.879 -1.9542  1.5032  0.6300
 1520TIP3    H2 4525   6.326   5.162   4.751  0.2396  1.5348 -0.2430
 1521TIP3   OH2 4526   5.605   6.240   4.435  0.1784 -0.1902 -0.2782
 1521TIP3    H1 4527   5.549   6.191   4.375  0.2304 -1.1657  0.4437
 1521TIP3    H2 4528   5.572   6.330   4.430  1.2384  0.1418 -2.9942
 1522TIP3   OH2 4529   6.436   3.689   4.349 -0.0803  0.0997 -0.5785
 1522TIP3    H1 4530   6.409   3.613   4.297 -3.4060  1.4153 -1.0208
 1522TIP3    H2 4531   6.393   3.763   4.307  0.9522  1.9009  1.3578
 1523TIP3   OH2 4532   6.040   5.707   4.973 -0.6623  0.2977 -0.2483
 1523TIP3    H1 4533   6.066   5.615   4.978 -2.6935 -0.3216 -0.0339
 1523TIP3    H2 4534   6.119   5.753   4.945  0.7096 -1.3538  0.7000
 1524TIP3   OH2 4535   4.977   1.905   1.994  0.8428 -0.0781  0.6643
 1524TIP3    H1 4536   4.937   1.935   2.075 -0.5965 -2.1433  0.8114
 1524TIP3    H2 4537   4.903   1.879   1.939  1.8596 -0.5349 -0.5454
 1525TIP3   OH2 4538   0.686   4.073   0.131  0.5231 -0.3634  0.7482
 1525TIP3    H1 4539   0.742   4.144   0.161  1.8042 -0.1741 -1.8384
 1525TIP3    H2 4540   0.744   4.014   0.083 -1.5176  0.6732 -3.5246
 1526TIP3   OH2 4541   3.903   4.536   2.237  0.1255  0.0091 -1.2805
 1526TIP3    H1 4542   3.964   4.521   2.309  0.3676  0.2493 -1.4329
 1526TIP3    H2 4543   3.823   4.568   2.279  0.3404  0.3610 -1.1323
 1527TIP3   OH2 4544   4.763   3.936   1.821 -0.3816  0.1970 -0.0138
 1527TIP3    H1 4545   4.825   3.982   1.878  0.6920  1.9292 -2.4059
 1527TIP3    H2 4546   4.797   3.847   1.816 -0.9571 -0.2637  2.5652
 1528TIP3   OH2 4547   1.571   2.838   0.197 -0.0270 -0.2869 -0.1694
 1528TIP3    H1 4548   1.604   2.754   0.229  0.8061  0.5679  1.3472
 1528TIP3    H2 4549   1.519   2.872   0.270  2.1864  1.8872  0.5146
 1529TIP3   OH2 4550   2.777   0.441   2.445  0.3920 -0.5903  0.1079
 1529TIP3    H1 4551   2.808   0.425   2.534 -0.9640 -1.1790  0.5053
 1529TIP3    H2 4552   2.838   0.506   2.410  1.1765 -0.6281  1.3298
 1530TIP3   OH2 4553   0.940   0.465   3.275 -0.1906  0.2910 -0.6603
 1530TIP3    H1 4554   0.990   0.485   3.195  0.4042  1.7096  0.0158
 1530TIP3    H2 4555   0.849   0.484   3.252  0.1416  2.1952 -0.6135
 1531TIP3   OH2 4556   3.382   4.892   1.941 -0.4473  0.1008  0.5537
 1531TIP3    H1 4557   3.434   4.846   1.875  0.9250  0.9785  0.9780
 1531TIP3    H2 4558   3.376   4.831   2.013  0.8317  0.3008  0.8655
 1532TIP3   OH2 4559   5.136   0.917   1.176  0.3284  0.1180 -0.1099
 1532TIP3    H1 4560   5.069   0.867   1.130  0.7978 -0.3923 -0.2442
 1532TIP3    H2 4561   5.119   0.899   1.269 -1.1078  1.7671 -0.0029
 1533TIP3   OH2 4562   6.210   1.530   2.820  0.4543  0.0920 -0.2901
 1533TIP3    H1 4563   6.133   1.477   2.837  0.1997  0.5405 -0.0326
 1533TIP3    H2 4564   6.284   1.473   2.841  0.1771 -0.0860  0.2122
 1534TIP3   OH2 4565   6.632   5.637   1.753  0.1405 -0.2226 -0.0127
 1534TIP3    H1 4566   6.564   5.581   1.717 -1.3215  0.9496  0.8049
 1534TIP3    H2 4567   6.588   5.687   1.822  1.4558  1.5973 -0.3952
 1535TIP3   OH2 4568   1.283   0.596   1.239  0.6426  0.0052 -0.1932
 1535TIP3    H1 4569   1.378   0.585   1.244  0.6031 -0.6303 -0.7443
 1535TIP3    H2 4570   1.260   0.643   1.320  1.3840 -0.0964  0.0844
 1536TIP3   OH2 4571   0.084   4.981   1.294  0.1029 -0.2929  0.0478
 1536TIP3    H1 4572   0.062   4.910   1.233 -0.8994 -0.8818  1.0619
 1536TIP3    H2 4573  -0.000   5.008   1.330  0.5148  1.1428  0.0074
 1537TIP3   OH2 4574   6.564   4.182   3.181 -0.3903 -0.3630  0.3619
 1537TIP3    H1 4575   6.531   4.141   3.261 -1.0913 -1.9592 -0.7200
 1537TIP3    H2 4576   6.624   4.250   3.213 -2.5623  0.7720  2.3018
 1538TIP3   OH2 4577   5.244   1.217   5.834 -0.0736 -0.1593 -0.0578
 1538TIP3    H1 4578   5.210   1.295   5.876 -0.1233 -0.1155 -0.1777
 1538TIP3    H2 4579   5.337   1.237   5.819 -0.4979  0.6669 -1.8536
 1539TIP3   OH2 4580   0.396   0.977   3.384  0.0316  0.2941  0.2810
 1539TIP3    H1 4581   0.485   1.007   3.369 -0.4835  1.3300 -0.8506
 1539TIP3    H2 4582   0.371   1.017   3.467 -0.4311  2.6319 -0.8997
 1540TIP3   OH2 4583   4.833   3.312   2.790  0.0198  0.5965 -0.3955
 1540TIP3    H1 4584   4.777   3.388   2.776  0.3547  1.2358  1.4323
 1540TIP3    H2 4585   4.772   3.241   2.808 -0.2818  0.5176 -1.6692
 1541TIP3   OH2 4586   2.667   2.322   3.902 -0.1673  0.7024  0.5380
 1541TIP3    H1 4587   2.731   2.257   3.873 -1.4781 -0.0551 -0.7579
 1541TIP3    H2 4588   2.632   2.286   3.984  1.2990  1.3182  1.4772
 1542TIP3   OH2 4589   6.122   1.565   2.095 -0.4811  0.4160 -0.2457
 1542TIP3    H1 4590   6.130   1.612   2.177 -1.2537 -1.7190  1.1332
 1542TIP3    H2 4591   6.035   1.588   2.063  0.5502  2.8294 -1.6041
 1543TIP3   OH2 4592   3.830   3.357   3.450  0.0275 -0.1293 -0.4643
 1543TIP3    H1 4593   3.738   3.330   3.453  0.2852 -1.0924 -0.8219
 1543TIP3    H2 4594   3.859   3.355   3.541  0.1737 -1.6141 -0.5160
 1544TIP3   OH2 4595   7.191   5.591   2.895 -0.3233  0.3728  0.3222
 1544TIP3    H1 4596   7.181   5.643   2.975 -2.5349  1.3508 -0.5149
 1544TIP3    H2 4597   7.134   5.516   2.909  0.0410  0.0439  0.0383
 1545TIP3   OH2 4598   0.585   2.357   4.316 -0.7843 -0.7724  0.0631
 1545TIP3    H1 4599   0.570   2.332   4.407 -0.8848  0.7800  0.4910
 1545TIP3    H2 4600   0.498   2.356   4.276 -0.7658 -1.2524  0.0294
 1546TIP3   OH2 4601   1.972   1.142   5.759  0.1300  0.3787 -0.3691
 1546TIP3    H1 4602   1.969   1.048   5.739 -0.0246  0.6113 -1.5191
 1546TIP3    H2 4603   2.065   1.162   5.766  0.2970  0.5667 -2.4334
 1547TIP3   OH2 4604   6.553   4.437   0.923  0.0025  0.0434  0.5523
 1547TIP3    H1 4605   6.512   4.402   1.002  1.6842  1.2584  2.0402
 1547TIP3    H2 4606   6.607   4.365   0.890 -1.3002 -0.7271  0.0113
 1548TIP3   OH2 4607   2.474   3.772   5.877  0.9721 -0.6410  0.0414
 1548TIP3    H1 4608   2.445   3.817   5.798 -0.6754 -0.0518  0.9176
 1548TIP3    H2 4609   2.393   3.756   5.927  1.9441 -0.9878  1.6013
 1549TIP3   OH2 4610   3.381   0.157   5.746 -0.4067  0.2057 -0.2221
 1549TIP3    H1 4611   3.418   0.195   5.825 -0.1722  0.4773 -0.4598
 1549TIP3    H2 4612   3.444   0.091   5.718 -0.1400  0.6016 -0.5731
 1550TIP3   OH2 4613   2.245   4.270   3.955  0.4329  0.3461 -0.6062
 1550TIP3    H1 4614   2.312   4.205   3.973 -1.9899 -1.7821  1.6720
 1550TIP3    H2 4615   2.183   4.225   3.898 -0.3166  1.3324 -0.5991
 1551TIP3   OH2 4616   7.178   2.364   1.864  0.0798  0.1028 -0.4390
 1551TIP3    H1 4617   7.112   2.357   1.933  0.7435  1.4357  0.3598
 1551TIP3    H2 4618   7.176   2.278   1.821 -0.5177 -0.6879  1.0785
 1552TIP3   OH2 4619   5.793   4.127   3.423 -0.5728 -0.2701  0.4703
 1552TIP3    H1 4620   5.888   4.119   3.411 -0.3910  1.4794  0.3771
 1552TIP3    H2 4621   5.755   4.067   3.359  0.4532 -1.6406  1.0964
 1553TIP3   OH2 4622   0.767   5.738   5.843  0.0176  0.2865 -0.3664
 1553TIP3    H1 4623   0.674   5.718   5.833 -0.1848 -0.9793  2.7507
 1553TIP3    H2 4624   0.782   5.813   5.785 -2.3468 -0.8778 -2.6964
 1554TIP3   OH2 4625   1.328   0.540   3.561  0.9012  0.0789  0.2509
 1554TIP3    H1 4626   1.303   0.559   3.651  2.3459 -0.0437  0.6868
 1554TIP3    H2 4627   1.263   0.475   3.532 -0.4511  1.1700  0.6917
 1555TIP3   OH2 4628   4.957   0.817   5.721 -0.2086  0.1882  0.1984
 1555TIP3    H1 4629   5.036   0.869   5.733  0.4899 -0.5738 -0.9248
 1555TIP3    H2 4630   4.942   0.776   5.807  0.3482  0.6857  0.5423
 1556TIP3   OH2 4631   3.116   3.095   5.527 -0.6337 -0.4887  0.1086
 1556TIP3    H1 4632   3.084   3.005   5.531  1.9513 -1.5184 -0.5743
 1556TIP3    H2 4633   3.054   3.145   5.580 -0.0731 -3.2986  3.7989
 1557TIP3   OH2 4634   1.059   3.929   4.012 -0.2754  0.4287 -0.8521
 1557TIP3    H1 4635   1.056   3.895   3.922 -3.8655  0.2513 -0.8170
 1557TIP3    H2 4636   0.979   3.895   4.053 -0.1368  2.7154  1.5789
 1558TIP3   OH2 4637   4.290   5.147   1.500  0.2895 -0.3386  0.1054
 1558TIP3    H1 4638   4.212   5.155   1.554 -0.1809 -0.3236 -0.5644
 1558TIP3    H2 4639   4.340   5.227   1.518 -1.1491  1.0114 -1.4684
 1559TIP3   OH2 4640   0.483   3.168   4.376 -0.0537 -0.0540  0.2609
 1559TIP3    H1 4641   0.512   3.080   4.351  0.5388 -0.4321  2.0974
 1559TIP3    H2 4642   0.492   3.219   4.296  0.5108 -1.4450 -0.6155
 1560TIP3   OH2 4643   3.917   5.691   4.563  0.6639 -0.3447  0.0680
 1560TIP3    H1 4644   3.872   5.666   4.644  1.1599 -0.6128  0.2634
 1560TIP3    H2 4645   3.978   5.619   4.547  2.3626  0.8722  0.8147
 1561TIP3   OH2 4646   1.010   0.389   0.979  0.2736 -0.0540  0.3868
 1561TIP3    H1 4647   1.043   0.383   0.889 -0.7226 -1.3998  0.0824
 1561TIP3    H2 4648   1.066   0.454   1.021  2.6269 -1.4650 -0.3987
 1562TIP3   OH2 4649   5.861   0.367   0.448  0.4859 -0.5094  0.0948
 1562TIP3    H1 4650   5.884   0.274   0.450 -2.3753 -1.3081  0.1322
 1562TIP3    H2 4651   5.911   0.402   0.374  0.8274 -2.3206 -0.5991
 1563TIP3   OH2 4652   2.276   4.485   4.918  0.2035 -0.0635 -0.2637
 1563TIP3    H1 4653   2.254   4.565   4.871 -0.2300 -1.4577 -2.5604
 1563TIP3    H2 4654   2.351   4.509   4.972  0.8248  1.6030 -1.7678
 1564TIP3   OH2 4655   3.502   2.281   0.506  0.1835 -0.5716  0.0941
 1564TIP3    H1 4656   3.444   2.294   0.431  1.6056 -0.8985 -1.1149
 1564TIP3    H2 4657   3.484   2.355   0.563  1.1878  1.4647 -2.0410
 1565TIP3   OH2 4658   5.786   5.285   3.458  0.3999 -0.0142  0.0174
 1565TIP3    H1 4659   5.798   5.204   3.508  0.5406  0.7578  1.2952
 1565TIP3    H2 4660   5.875   5.316   3.442  0.3528 -0.2258 -0.6916
 1566TIP3   OH2 4661   1.278   3.636   1.744 -0.0832  0.1348  0.5829
 1566TIP3    H1 4662   1.187   3.661   1.759  0.1999  1.6711 -0.0033
 1566TIP3    H2 4663   1.274   3.557   1.691 -1.1029  0.9876 -0.6613
 1567TIP3   OH2 4664   1.841   5.601   2.152 -0.0622  0.3151 -0.8182
 1567TIP3    H1 4665   1.763   5.598   2.096 -0.2697  0.8783 -0.5601
 1567TIP3    H2 4666   1.854   5.510   2.179 -2.4611  0.5805  1.6453
 1568TIP3   OH2 4667   4.386   3.433   4.491  0.2388 -0.0309 -0.3172
 1568TIP3    H1 4668   4.336   3.444   4.410 -1.6878 -1.2162  0.6487
 1568TIP3    H2 4669   4.325   3.392   4.552  1.4079  1.4410  1.9853
 1569TIP3   OH2 4670   4.677   6.129   3.940  0.0179 -0.1618 -0.0109
 1569TIP3    H1 4671   4.716   6.060   3.886 -0.8540 -1.7915  1.3830
 1569TIP3    H2 4672   4.584   6.128   3.917 -0.0746  0.2519  0.3358
 1570TIP3   OH2 4673   2.345   5.857   1.453 -0.2338 -0.2744 -0.2470
 1570TIP3    H1 4674   2.372   5.915   1.524 -0.9859  0.1915 -0.3263
 1570TIP3    H2 4675   2.249   5.862   1.453 -0.2339  0.3754 -1.8208
 1571TIP3   OH2 4676   3.769   4.514   1.672 -0.1010  0.2529  0.2581
 1571TIP3    H1 4677   3.801   4.535   1.760  1.7155  0.0968 -0.3326
 1571TIP3    H2 4678   3.723   4.430   1.683 -1.1679  0.9378  1.2899
 1572TIP3   OH2 4679   2.766   1.225   5.122  0.0927  0.1382 -0.0171
 1572TIP3    H1 4680   2.717   1.279   5.183  1.4753 -0.8971  2.1572
 1572TIP3    H2 4681   2.713   1.146   5.111 -0.0300  0.2057  0.0968
 1573TIP3   OH2 4682   0.599   6.313   4.266  0.3195  0.4091  0.5586
 1573TIP3    H1 4683   0.576   6.356   4.348  2.1727  0.6000  1.0014
 1573TIP3    H2 4684   0.568   6.223   4.276  0.7014  0.3846  1.5248
 1574TIP3   OH2 4685   6.309   2.681   2.790 -0.0149 -0.3822 -1.0537
 1574TIP3    H1 4686   6.269   2.664   2.705 -1.2699 -0.4464 -0.4641
 1574TIP3    H2 4687   6.375   2.611   2.799 -1.1732 -1.5223 -1.1571
 1575TIP3   OH2 4688   2.070   1.031   1.328  0.1790 -0.1592  0.1790
 1575TIP3    H1 4689   1.988   1.024   1.280  0.1811 -0.4207  0.2101
 1575TIP3    H2 4690   2.058   0.975   1.404  0.2969 -0.0038  0.3119
 1576TIP3   OH2 4691   1.474   0.157   4.140  0.0612 -0.7175  0.4388
 1576TIP3    H1 4692   1.412   0.201   4.199  0.0397  0.2362 -0.2668
 1576TIP3    H2 4693   1.544   0.126   4.198  0.6592  1.2668  0.8589
 1577TIP3   OH2 4694   5.020   6.444   4.650  0.4019 -0.4427 -0.8027
 1577TIP3    H1 4695   4.953   6.396   4.602  0.1122  1.5157 -2.5164
 1577TIP3    H2 4696   5.098   6.389   4.646 -0.0505 -1.0096 -2.2460
 1578TIP3   OH2 4697   3.955   4.881   3.397  0.0293  0.0118 -0.2155
 1578TIP3    H1 4698   3.960   4.800   3.347 -1.8754 -0.7842  0.7823
 1578TIP3    H2 4699   3.994   4.947   3.340  0.4585 -1.3567 -1.5739
 1579TIP3   OH2 4700   5.605   0.804   2.784 -0.0219  0.2329  0.1326
 1579TIP3    H1 4701   5.553   0.753   2.848 -0.7070  1.8626  0.9270
 1579TIP3    H2 4702   5.661   0.739   2.743 -0.2551 -1.0510  1.7126
 1580TIP3   OH2 4703   1.138   2.999   5.824  0.3517  0.1852 -0.3095
 1580TIP3    H1 4704   1.070   3.060   5.855 -0.4415 -0.1724 -1.2965
 1580TIP3    H2 4705   1.177   2.965   5.904 -0.6938  0.3366  0.2882
 1581TIP3   OH2 4706   4.955   6.659   1.251  0.2153  0.2323  0.3607
 1581TIP3    H1 4707   4.979   6.580   1.202 -0.3747  1.2825 -1.7614
 1581TIP3    H2 4708   4.959   6.633   1.342  1.0417 -1.9616 -0.2334
 1582TIP3   OH2 4709   2.890   0.976   1.844 -0.0532 -0.0799  0.1379
 1582TIP3    H1 4710   2.838   1.055   1.831  1.2315  0.8232  0.2925
 1582TIP3    H2 4711   2.975   1.008   1.874  0.4009 -1.5436  0.4932
 1583TIP3   OH2 4712   3.173   3.847   2.840 -0.2211  0.1947  0.1161
 1583TIP3    H1 4713   3.230   3.890   2.904  0.2870  0.3697 -0.4557
 1583TIP3    H2 4714   3.232   3.816   2.772 -0.7043 -0.4768 -0.0033
 1584TIP3   OH2 4715   6.756   6.308   2.456  0.3814 -0.1772  0.3379
 1584TIP3    H1 4716   6.742   6.223   2.413  0.0535 -0.4158  0.9093
 1584TIP3    H2 4717   6.668   6.336   2.481  0.4408  0.5356 -0.2172
 1585TIP3   OH2 4718   6.082   2.248   2.705  0.7463 -0.1224  0.0688
 1585TIP3    H1 4719   6.130   2.166   2.718 -0.6029 -0.7008  1.8163
 1585TIP3    H2 4720   5.990   2.221   2.704  0.3210  1.2551 -0.6145
 1586TIP3   OH2 4721   4.159   2.670   4.572 -0.3130  0.1300  0.6994
 1586TIP3    H1 4722   4.070   2.670   4.606 -0.1754 -1.8492  1.1877
 1586TIP3    H2 4723   4.171   2.582   4.536  1.6211  0.1668  1.1523
 1587TIP3   OH2 4724   6.454   6.453   3.523  0.2822  0.0089  0.2659
 1587TIP3    H1 4725   6.433   6.449   3.429  0.0687 -2.6039  0.3618
 1587TIP3    H2 4726   6.519   6.385   3.536  0.5601  0.5561  1.9876
 1588TIP3   OH2 4727   3.568   4.499   5.443  0.2698 -0.0345  0.0971
 1588TIP3    H1 4728   3.653   4.471   5.410 -0.1757 -2.2685  0.7261
 1588TIP3    H2 4729   3.588   4.548   5.523  0.9526 -0.8633  0.4438
 1589TIP3   OH2 4730   4.266   0.124   1.189 -0.0902 -0.0868  0.0940
 1589TIP3    H1 4731   4.352   0.116   1.229  0.2022 -1.2783 -0.7096
 1589TIP3    H2 4732   4.252   0.218   1.179 -0.0286  0.2392  2.6218
 1590TIP3   OH2 4733   1.837   2.183   4.331 -0.5239  0.3538 -0.0002
 1590TIP3    H1 4734   1.792   2.131   4.398 -2.2039 -0.1909 -1.4906
 1590TIP3    H2 4735   1.930   2.172   4.352 -0.9095 -1.4650  1.0475
 1591TIP3   OH2 4736   3.667   1.342   1.041 -0.3930  0.0097  0.3549
 1591TIP3    H1 4737   3.644   1.251   1.025  0.1374  0.1509 -1.4490
 1591TIP3    H2 4738   3.608   1.392   0.985  0.7737  0.6294 -0.3850
 1592TIP3   OH2 4739   2.177   2.386   3.741  0.7519  0.2888 -0.4481
 1592TIP3    H1 4740   2.216   2.409   3.825 -1.0496 -0.2550  0.5964
 1592TIP3    H2 4741   2.200   2.294   3.728  0.9148  0.3329 -0.4660
 1593TIP3   OH2 4742   0.940   0.320   0.689 -0.2290 -0.4177  0.1401
 1593TIP3    H1 4743   0.883   0.342   0.615 -1.9673  0.5025  1.6374
 1593TIP3    H2 4744   1.020   0.369   0.674 -0.9124  0.4835 -0.6937
 1594TIP3   OH2 4745   5.562   0.070   1.961  0.3889  0.2585 -0.5061
 1594TIP3    H1 4746   5.509   0.146   1.936 -0.9175 -0.4869 -0.1099
 1594TIP3    H2 4747   5.630   0.106   2.017 -2.1736  0.8266  2.5379
 1595TIP3   OH2 4748   4.424   1.488   0.420 -0.1657 -0.1559 -0.0284
 1595TIP3    H1 4749   4.336   1.450   0.418 -0.1514 -0.1803 -1.7477
 1595TIP3    H2 4750   4.415   1.568   0.472 -1.1243 -0.3402  0.1058
 1596TIP3   OH2 4751   5.732   6.666   1.153  0.0795 -0.3814 -0.2047
 1596TIP3    H1 4752   5.643   6.658   1.119  0.4137 -0.0882 -1.1740
 1596TIP3    H2 4753   5.734   6.752   1.195 -0.1279 -0.4429 -0.0649
 1597TIP3   OH2 4754   4.081   6.320   0.040 -0.1027 -0.3882  0.0119
 1597TIP3    H1 4755   4.042   6.396   0.084  0.3863  0.2322 -0.6163
 1597TIP3    H2 4756   4.006   6.264   0.019 -0.5620  0.3081 -0.2602
 1598TIP3   OH2 4757   5.620   1.808   1.781  0.7055  0.1708 -0.0113
 1598TIP3    H1 4758   5.556   1.749   1.822 -0.6111  0.8271 -1.0513
 1598TIP3    H2 4759   5.704   1.782   1.819 -0.1725 -0.6655  1.4614
 1599TIP3   OH2 4760   2.264   2.624   1.607  0.1925  0.3256  0.5699
 1599TIP3    H1 4761   2.285   2.628   1.701  3.6122 -1.0875  0.0216
 1599TIP3    H2 4762   2.328   2.683   1.566 -0.3919 -0.0684 -0.9763
 1600TIP3   OH2 4763   4.654   5.286   4.868  0.0030 -0.1932 -0.4038
 1600TIP3    H1 4764   4.578   5.321   4.820 -1.2091 -0.3131  1.3183
 1600TIP3    H2 4765   4.671   5.202   4.827 -1.0384 -0.3253 -0.6098
 1601TIP3   OH2 4766   4.021   1.216   5.520  0.0572  0.0905 -0.2873
 1601TIP3    H1 4767   3.961   1.276   5.563  0.2406  1.9477 -2.4282
 1601TIP3    H2 4768   4.107   1.258   5.526  0.9652 -1.7963  1.3907
 1602TIP3   OH2 4769   6.811   0.705   5.448  0.1788 -0.3628  0.3430
 1602TIP3    H1 4770   6.772   0.776   5.499  0.1900 -0.0745 -0.0454
 1602TIP3    H2 4771   6.815   0.631   5.509 -1.0276 -0.4213  0.3721
 1603TIP3   OH2 4772   2.251   3.205   5.420 -0.2664 -0.2258  0.1994
 1603TIP3    H1 4773   2.251   3.255   5.501 -0.8166 -0.4715  0.3503
 1603TIP3    H2 4774   2.159   3.195   5.397 -0.3268 -2.9052  1.2533
 1604TIP3   OH2 4775   6.638   0.253   4.527  0.3458 -0.0750 -0.9310
 1604TIP3    H1 4776   6.593   0.278   4.446 -0.6590  1.9610  0.1732
 1604TIP3    H2 4777   6.574   0.268   4.596  1.2569 -1.5483  0.3015
 1605TIP3   OH2 4778   6.157   6.532   2.052 -0.2085 -0.3923 -0.5522
 1605TIP3    H1 4779   6.167   6.555   2.145 -0.8836  2.0458 -1.0116
 1605TIP3    H2 4780   6.139   6.438   2.053 -0.8579 -0.3225  1.8451
 1606TIP3   OH2 4781   5.085   4.120   5.219  0.0617 -0.7376  0.5870
 1606TIP3    H1 4782   5.139   4.196   5.200 -2.8643  1.7947  1.4513
 1606TIP3    H2 4783   5.100   4.102   5.312 -0.4654 -0.0735  0.8110
 1607TIP3   OH2 4784   5.698   5.425   1.949 -0.2084  0.2704 -0.5255
 1607TIP3    H1 4785   5.728   5.393   2.034 -0.3238 -0.5390 -0.7740
 1607TIP3    H2 4786   5.709   5.350   1.891 -2.1112  0.1278 -0.7714
 1608TIP3   OH2 4787   6.025   3.571   2.413 -0.1579 -0.0431  0.2653
 1608TIP3    H1 4788   5.967   3.495   2.419  1.3260 -1.1103  2.4596
 1608TIP3    H2 4789   6.113   3.534   2.425  0.8490  1.7224 -1.2742
 1609TIP3   OH2 4790   4.568   2.106   0.946  0.3717 -0.3927  0.4437
 1609TIP3    H1 4791   4.546   2.165   1.019 -0.0482  0.0831 -0.0657
 1609TIP3    H2 4792   4.527   2.023   0.970 -0.3096 -0.0606  0.4457
 1610TIP3   OH2 4793   3.718   2.891   5.505 -0.2970  0.0787  0.7362
 1610TIP3    H1 4794   3.669   2.829   5.452 -1.0163  0.5794  0.8010
 1610TIP3    H2 4795   3.698   2.866   5.596  0.9465 -0.7898  0.7923
 1611TIP3   OH2 4796   4.787   2.131   3.257  0.1440 -0.0495 -0.2038
 1611TIP3    H1 4797   4.805   2.203   3.197  0.1178 -1.1706 -1.5980
 1611TIP3    H2 4798   4.794   2.052   3.203 -1.1831 -1.0155  0.9714
 1612TIP3   OH2 4799   5.226   2.949   5.159  0.1710  0.0288 -0.0424
 1612TIP3    H1 4800   5.300   3.009   5.167  1.4543 -1.6749  1.9733
 1612TIP3    H2 4801   5.266   2.863   5.150 -1.6068 -0.6633 -2.0331
 1613TIP3   OH2 4802   3.980   1.099   0.159  0.0619  0.6754  0.1530
 1613TIP3    H1 4803   4.014   1.014   0.188  0.3750  1.0756  0.9781
 1613TIP3    H2 4804   3.916   1.076   0.091  1.1867 -0.1382 -0.6682
 1614TIP3   OH2 4805   0.435   0.347   5.831 -0.0771  0.2678 -0.3953
 1614TIP3    H1 4806   0.484   0.421   5.798  1.8416 -1.0596 -0.6836
 1614TIP3    H2 4807   0.384   0.316   5.756 -0.4149  0.8922 -0.4325
 1615TIP3   OH2 4808   1.578   4.299   0.017  0.0156  0.1723  0.0605
 1615TIP3    H1 4809   1.484   4.315   0.024  0.2113  1.5229 -0.1002
 1615TIP3    H2 4810   1.587   4.204   0.023 -1.6548 -0.3509 -3.3089
 1616TIP3   OH2 4811   1.508   3.067   5.174  0.0785 -0.4249 -0.2199
 1616TIP3    H1 4812   1.511   3.080   5.269 -0.6070 -0.5700 -0.1669
 1616TIP3    H2 4813   1.497   2.973   5.164 -0.4198 -0.3484 -0.4205
 1617TIP3   OH2 4814   1.846   2.161   3.004 -0.5530 -0.1589  0.1999
 1617TIP3    H1 4815   1.854   2.212   3.085 -1.8289  0.1786  0.1368
 1617TIP3    H2 4816   1.797   2.083   3.030 -0.0111 -0.5898 -0.0399
 1618TIP3   OH2 4817   0.033   6.373   2.092  0.0881 -0.0991  0.3674
 1618TIP3    H1 4818   0.112   6.426   2.083 -0.9279  1.8397  2.1431
 1618TIP3    H2 4819   0.048   6.321   2.171  0.5406 -1.6006 -0.6546
 1619TIP3   OH2 4820   3.046   2.388   4.023  0.0289 -0.1696  0.0084
 1619TIP3    H1 4821   3.090   2.308   4.052 -1.4466 -0.9890  0.0599
 1619TIP3    H2 4822   3.054   2.386   3.928  0.2904 -0.1901  0.0285
 1620TIP3   OH2 4823   2.151   0.882   2.901  0.3087  0.1609  0.5268
 1620TIP3    H1 4824   2.153   0.934   2.821  0.4739  0.4920  0.7453
 1620TIP3    H2 4825   2.150   0.791   2.870 -1.8584  0.2818  0.1003
 1621TIP3   OH2 4826   5.399   6.288   4.824 -0.3463  0.0951 -0.5911
 1621TIP3    H1 4827   5.493   6.301   4.806  0.0456 -0.4542  0.9138
 1621TIP3    H2 4828   5.392   6.194   4.843 -1.2094  0.1455 -0.6402
 1622TIP3   OH2 4829   3.871   3.715   1.557  0.1080 -0.2087  0.5357
 1622TIP3    H1 4830   3.778   3.733   1.564  0.0385 -0.6248  0.7154
 1622TIP3    H2 4831   3.892   3.729   1.465  0.0684  0.8118  0.6728
 1623TIP3   OH2 4832   1.079   5.411   3.080  0.2146  0.0574 -0.0634
 1623TIP3    H1 4833   1.164   5.425   3.120  0.2409 -0.1972 -0.0248
 1623TIP3    H2 4834   1.089   5.441   2.989  0.8388 -1.5003 -0.5396
 1624TIP3   OH2 4835   2.519   0.326   2.431 -0.1211  0.0807 -0.8580
 1624TIP3    H1 4836   2.498   0.291   2.517 -0.8236  2.1967 -0.0897
 1624TIP3    H2 4837   2.610   0.356   2.439 -0.3407  0.7182 -0.6707
 1625TIP3   OH2 4838   4.231   5.021   0.439 -0.1602  0.2991  0.6868
 1625TIP3    H1 4839   4.169   5.075   0.488  0.0718  1.8443 -0.6085
 1625TIP3    H2 4840   4.274   5.083   0.380  0.4691 -1.2537 -0.5521
 1626TIP3   OH2 4841   1.695   1.252   2.980 -0.6358 -0.2046  0.3410
 1626TIP3    H1 4842   1.662   1.325   3.032 -0.2307 -0.0938  0.4469
 1626TIP3    H2 4843   1.756   1.207   3.039 -0.0036  0.0465 -0.1065
 1627TIP3   OH2 4844   2.316   0.588   1.285  0.7490  0.3223 -0.3716
 1627TIP3    H1 4845   2.336   0.519   1.349 -0.1227  0.9364  0.5963
 1627TIP3    H2 4846   2.360   0.666   1.319 -0.5276  0.8925  0.0380
 1628TIP3   OH2 4847   7.121   4.343   1.030  0.5099  0.0546 -0.1756
 1628TIP3    H1 4848   7.073   4.355   1.113  0.1342 -0.3021 -0.3386
 1628TIP3    H2 4849   7.057   4.364   0.962  0.9084  0.6502 -0.3757
 1629TIP3   OH2 4850   7.111   2.767   5.836  0.4913 -0.7533 -0.3363
 1629TIP3    H1 4851   7.135   2.807   5.752  0.3404 -1.7183 -0.8542
 1629TIP3    H2 4852   7.096   2.675   5.815 -1.4429 -0.6416  0.3857
 1630TIP3   OH2 4853   0.336   5.100   1.220 -0.6586  0.1568  0.5368
 1630TIP3    H1 4854   0.358   5.038   1.151  0.1996  0.9808  0.0419
 1630TIP3    H2 4855   0.243   5.085   1.238 -0.6071 -0.8392  0.0047
 1631TIP3   OH2 4856   7.176   4.631   2.394  0.7005 -0.3518 -0.2701
 1631TIP3    H1 4857   7.136   4.547   2.416  1.2134 -0.5511 -0.0921
 1631TIP3    H2 4858   7.102   4.692   2.389  0.4517 -0.5336  0.8979
 1632TIP3   OH2 4859   6.166   2.736   2.517  0.0282 -0.4348  0.1091
 1632TIP3    H1 4860   6.166   2.640   2.524  1.6124 -0.4447  0.3173
 1632TIP3    H2 4861   6.150   2.753   2.424 -0.2293 -0.8865  0.0642
 1633TIP3   OH2 4862   1.023   0.770   4.124  0.7606 -0.7550  0.4854
 1633TIP3    H1 4863   0.940   0.735   4.093  0.9817 -1.0916  0.2639
 1633TIP3    H2 4864   1.075   0.780   4.044  0.4399  0.7882  0.4444
 1634TIP3   OH2 4865   1.290   2.917   1.534  0.0775  1.2003  0.1856
 1634TIP3    H1 4866   1.343   2.971   1.475 -1.5945  1.3030 -1.2959
 1634TIP3    H2 4867   1.201   2.951   1.523 -1.0346 -1.7586 -0.7286
 1635TIP3   OH2 4868   6.743   6.462   3.344  0.0611 -0.1272 -0.0036
 1635TIP3    H1 4869   6.808   6.524   3.379 -0.3775 -0.2553  1.0652
 1635TIP3    H2 4870   6.679   6.518   3.301  0.8683  0.0014 -1.0931
 1636TIP3   OH2 4871   6.730   5.643   2.978  0.1382 -0.2702  0.3687
 1636TIP3    H1 4872   6.786   5.710   2.938 -2.3710  1.6463 -0.2356
 1636TIP3    H2 4873   6.700   5.590   2.905  0.5533 -0.8264  0.5947
 1637TIP3   OH2 4874   2.726   2.329   5.116 -0.2184  0.0118  0.3801
 1637TIP3    H1 4875   2.741   2.330   5.211 -0.2490 -0.3989  0.3887
 1637TIP3    H2 4876   2.649   2.273   5.105  0.6304 -1.0828 -0.0166
 1638TIP3   OH2 4877   1.746   0.789   0.929 -0.4604  0.4921  0.1843
 1638TIP3    H1 4878   1.822   0.816   0.981  0.6969 -0.3919 -0.9938
 1638TIP3    H2 4879   1.753   0.694   0.922 -0.9412  0.5250 -1.0369
 1639TIP3   OH2 4880   6.815   4.701   0.433 -0.6505  0.7027 -0.0057
 1639TIP3    H1 4881   6.787   4.630   0.491 -0.6946  0.5740 -0.1859
 1639TIP3    H2 4882   6.772   4.684   0.350  0.0840  0.4058 -0.3399
 1640TIP3   OH2 4883   2.389   3.808   3.324  0.5980  0.0297 -0.1789
 1640TIP3    H1 4884   2.304   3.807   3.279  1.8192  0.5851 -2.6446
 1640TIP3    H2 4885   2.410   3.716   3.336 -0.4906 -0.1203  0.8239
 1641TIP3   OH2 4886   3.609   6.658   3.337 -0.3083 -0.7685  0.1269
 1641TIP3    H1 4887   3.672   6.607   3.287  0.2527 -0.5322  0.5816
 1641TIP3    H2 4888   3.658   6.689   3.413 -0.7262  0.1935  0.0188
 1642TIP3   OH2 4889   1.623   0.860   5.789  0.1538 -0.6246 -0.1430
 1642TIP3    H1 4890   1.558   0.909   5.739 -1.8917 -2.1337  0.9190
 1642TIP3    H2 4891   1.689   0.834   5.724  1.4157  3.4490 -0.7452
 1643TIP3   OH2 4892   5.275   0.224   3.906  0.5105 -0.2256  0.3756
 1643TIP3    H1 4893   5.237   0.138   3.922  1.3348 -0.6157  0.2692
 1643TIP3    H2 4894   5.364   0.218   3.939  0.4716  0.6972  0.6772
 1644TIP3   OH2 4895   5.544   2.925   3.028  0.2955 -0.6847 -0.6308
 1644TIP3    H1 4896   5.619   2.966   3.070  0.5582 -0.1182 -1.6317
 1644TIP3    H2 4897   5.517   2.856   3.089  1.8071 -1.0976 -0.4015
 1645TIP3   OH2 4898  -0.017   4.721   0.638  0.1501 -0.7033  0.3809
 1645TIP3    H1 4899   0.047   4.651   0.625  1.4164  0.2229  1.3903
 1645TIP3    H2 4900   0.035   4.796   0.667 -1.1257  0.7635 -0.9121
 1646TIP3   OH2 4901   1.477   1.525   1.980 -0.6693  0.0891 -0.4681
 1646TIP3    H1 4902   1.506   1.493   2.066 -2.1604  0.6162  0.2767
 1646TIP3    H2 4903   1.442   1.612   1.998 -1.8310 -0.1501 -1.4385
 1647TIP3   OH2 4904   4.869   6.561   0.910  0.1468  0.5429 -0.1490
 1647TIP3    H1 4905   4.964   6.568   0.897  0.4451 -0.1075  1.3836
 1647TIP3    H2 4906   4.831   6.606   0.835  1.6506 -0.3773 -1.5387
 1648TIP3   OH2 4907   2.429   6.582   3.681  0.2801 -0.3435  0.2605
 1648TIP3    H1 4908   2.343   6.618   3.658  0.3079 -0.4263  0.0319
 1648TIP3    H2 4909   2.420   6.488   3.668 -0.0576 -0.5294  1.6807
 1649TIP3   OH2 4910   3.934   3.407   3.760 -0.3164 -0.3617 -0.0637
 1649TIP3    H1 4911   3.939   3.503   3.757 -1.6191 -0.2785 -2.2460
 1649TIP3    H2 4912   3.844   3.389   3.789  0.1840 -0.9585  1.1604
 1650TIP3   OH2 4913   6.871   3.037   0.161 -0.0148 -0.4592  0.6320
 1650TIP3    H1 4914   6.950   3.087   0.183 -0.0222 -0.5709  0.9256
 1650TIP3    H2 4915   6.853   3.058   0.070  0.7447 -0.9565  0.3570
 1651TIP3   OH2 4916   0.885   5.162   2.798 -0.0704 -0.7187  0.2097
 1651TIP3    H1 4917   0.889   5.091   2.734  0.4830  0.4164 -1.0625
 1651TIP3    H2 4918   0.914   5.240   2.750  0.6278  0.1361  1.9100
 1652TIP3   OH2 4919   6.157   2.472   5.331  0.7154  0.5485 -0.3399
 1652TIP3    H1 4920   6.090   2.461   5.264  0.2777  3.5270 -0.5114
 1652TIP3    H2 4921   6.108   2.489   5.411  1.2667 -0.3541  0.2032
 1653TIP3   OH2 4922   4.457   0.361   3.270 -0.1447 -0.1764 -0.4006
 1653TIP3    H1 4923   4.508   0.424   3.320 -3.6856  1.3891  1.6804
 1653TIP3    H2 4924   4.417   0.412   3.200  0.3480 -1.1352 -1.4151
 1654TIP3   OH2 4925   3.599   5.250   0.835  0.0985 -0.1811  0.0395
 1654TIP3    H1 4926   3.636   5.307   0.903 -0.0380  0.1764 -0.1798
 1654TIP3    H2 4927   3.589   5.308   0.759 -1.6483 -0.0461  0.3236
 1655TIP3   OH2 4928   6.441   0.999   3.391  0.4268  0.3037  0.0345
 1655TIP3    H1 4929   6.517   0.954   3.428  2.2114  0.5724 -3.0043
 1655TIP3    H2 4930   6.452   1.090   3.416  0.8991  0.2731 -0.0530
 1656TIP3   OH2 4931   0.787   4.330   4.614 -0.2240  0.3858 -0.1677
 1656TIP3    H1 4932   0.857   4.332   4.549  0.6308 -0.5120  0.6814
 1656TIP3    H2 4933   0.781   4.237   4.639 -1.6640  0.4627 -0.1641
 1657TIP3   OH2 4934   2.735   1.511   2.006 -0.1724 -0.0494 -0.2079
 1657TIP3    H1 4935   2.772   1.599   2.003  1.1262 -0.5613  0.1407
 1657TIP3    H2 4936   2.726   1.492   2.099  1.7229 -1.1425 -0.2166
 1658TIP3   OH2 4937   0.945   2.063   1.999 -0.3542 -0.3096  0.3927
 1658TIP3    H1 4938   0.887   2.101   2.065  0.1666  1.4931 -0.1193
 1658TIP3    H2 4939   0.894   2.066   1.918 -0.8137 -2.0701  0.5682
 1659TIP3   OH2 4940   3.982   1.945   5.311 -0.0876  0.1258 -0.0237
 1659TIP3    H1 4941   3.889   1.938   5.291  0.0967 -0.7783 -0.6286
 1659TIP3    H2 4942   3.987   2.014   5.377 -0.9397  1.7230 -1.5479
 1660TIP3   OH2 4943   4.975   3.925   2.730  0.2358  0.2238 -0.2526
 1660TIP3    H1 4944   5.059   3.909   2.687  0.3113 -0.7105  0.2110
 1660TIP3    H2 4945   4.998   3.939   2.822 -0.0847  0.2860 -0.1830
 1661TIP3   OH2 4946   7.195   6.042   4.706  0.5762  0.5907 -0.0860
 1661TIP3    H1 4947   7.174   5.991   4.628  1.3494 -1.0402  0.7254
 1661TIP3    H2 4948   7.121   6.028   4.765  1.3073 -0.6483  0.6022
 1662TIP3   OH2 4949   6.830   6.519   3.022  0.3718 -0.0921 -0.1314
 1662TIP3    H1 4950   6.857   6.557   3.106  0.6485  0.0693 -0.2919
 1662TIP3    H2 4951   6.895   6.551   2.959 -0.1476  0.2270 -0.5103
 1663TIP3   OH2 4952   0.952   4.357   4.101 -0.2338  0.3118 -0.7228
 1663TIP3    H1 4953   1.023   4.308   4.060  2.0146  1.7453  1.1448
 1663TIP3    H2 4954   0.919   4.415   4.032  1.1338  0.3303 -1.3863
 1664TIP3   OH2 4955   0.726   1.816   5.115  0.0506  0.2948 -0.3895
 1664TIP3    H1 4956   0.647   1.862   5.143 -0.4422 -0.7850  0.0281
 1664TIP3    H2 4957   0.712   1.798   5.023 -0.6826 -0.8179 -0.0854
 1665TIP3   OH2 4958   2.942   6.105   1.438  0.1792  0.3615  0.0753
 1665TIP3    H1 4959   2.975   6.104   1.348 -0.1107  1.0986 -0.0463
 1665TIP3    H2 4960   2.942   6.013   1.464 -0.4577  0.0442 -0.9527
 1666TIP3   OH2 4961   0.889   1.508   2.996 -0.2872 -0.3411  0.4468
 1666TIP3    H1 4962   0.894   1.599   3.025 -3.2940  0.1585 -0.2664
 1666TIP3    H2 4963   0.974   1.471   3.019  0.1390  1.9438  3.0292
 1667TIP3   OH2 4964   7.180   0.586   0.488 -0.4039 -0.8975  0.2212
 1667TIP3    H1 4965   7.176   0.622   0.399 -0.5134 -1.2799  0.0685
 1667TIP3    H2 4966   7.091   0.594   0.521 -0.2365 -0.2027  0.5221
 1668TIP3   OH2 4967   5.089   0.945   0.235 -0.2594  0.1668 -0.4723
 1668TIP3    H1 4968   5.021   1.012   0.239  0.0388  0.4175  0.9118
 1668TIP3    H2 4969   5.082   0.898   0.318  0.8746 -0.1734 -0.5443
 1669TIP3   OH2 4970   1.883   1.004   3.905  0.1819  0.6669  0.1465
 1669TIP3    H1 4971   1.945   1.021   3.835  0.2407  1.7451  0.4468
 1669TIP3    H2 4972   1.893   1.078   3.965 -1.0571  0.6283  0.4299
 1670TIP3   OH2 4973   2.000   0.796   4.926  0.0299  0.1282  0.0248
 1670TIP3    H1 4974   2.007   0.844   5.009  1.3759  0.2426 -0.1327
 1670TIP3    H2 4975   1.954   0.856   4.868 -0.3280  0.3159  0.5006
 1671TIP3   OH2 4976   3.160   6.403   3.605  0.3348  0.2839  0.4149
 1671TIP3    H1 4977   3.067   6.426   3.604 -0.0303 -1.0563 -1.3634
 1671TIP3    H2 4978   3.202   6.467   3.548 -0.4085 -2.0599 -3.0935
 1672TIP3   OH2 4979   4.474   2.167   3.532 -0.2515  0.4354  0.7904
 1672TIP3    H1 4980   4.431   2.082   3.525 -0.4904  0.4527  1.8186
 1672TIP3    H2 4981   4.480   2.183   3.626  1.0566  0.9205  0.6411
 1673TIP3   OH2 4982   5.619   6.237   2.264  0.3619  0.7107 -0.4641
 1673TIP3    H1 4983   5.652   6.236   2.354 -0.5793  2.5111 -0.0644
 1673TIP3    H2 4984   5.530   6.271   2.271  0.4627  1.4181 -2.1456
 1674TIP3   OH2 4985   1.561   0.049   1.667  0.3195  0.8843  0.0898
 1674TIP3    H1 4986   1.633  -0.012   1.649  2.1580  2.9225  0.0512
 1674TIP3    H2 4987   1.530   0.024   1.754 -0.3049 -1.2825 -0.7056
 1675TIP3   OH2 4988   5.974   0.171   0.813 -0.1194 -0.1688  0.2505
 1675TIP3    H1 4989   6.004   0.216   0.735  2.3677 -0.1380  1.1410
 1675TIP3    H2 4990   5.984   0.235   0.883 -0.9200 -0.6642  0.8354
 1676TIP3   OH2 4991   3.926   2.509   4.189  0.2663  0.6215  0.4309
 1676TIP3    H1 4992   3.893   2.486   4.276  0.8250  2.0422  1.0439
 1676TIP3    H2 4993   3.992   2.576   4.205  2.6933 -1.2945 -0.8357
 1677TIP3   OH2 4994   0.455   5.792   2.969  0.5528  0.6767 -0.0168
 1677TIP3    H1 4995   0.523   5.728   2.989  0.4399  0.6929  0.4128
 1677TIP3    H2 4996   0.422   5.765   2.883 -0.1142 -0.3726  0.5490
 1678TIP3   OH2 4997   2.350   6.055   0.823 -0.0331 -0.2363  0.1305
 1678TIP3    H1 4998   2.358   6.023   0.913  0.5176 -0.6967 -0.0831
 1678TIP3    H2 4999   2.255   6.056   0.807 -0.0812 -1.4400  0.2583
 1679TIP3   OH2 5000   4.664   4.195   4.117 -0.3093  0.0821 -0.5462
 1679TIP3    H1 5001   4.610   4.253   4.171 -0.0968  0.3204 -0.5882
 1679TIP3    H2 5002   4.688   4.248   4.041 -0.3959 -0.1720 -0.7502
 1680TIP3   OH2 5003   4.478   5.469   3.835  0.1803  0.0747  0.1876
 1680TIP3    H1 5004   4.548   5.421   3.878 -0.2783 -0.8411 -0.0604
 1680TIP3    H2 5005   4.521   5.542   3.792  1.2540 -1.5052 -1.5278
 1681TIP3   OH2 5006   3.283   5.870   3.945  1.1398  0.0225 -0.3341
 1681TIP3    H1 5007   3.199   5.851   3.902 -0.3024  0.5919  2.0747
 1681TIP3    H2 5008   3.322   5.938   3.890  0.7351 -1.2439 -2.2874
 1682TIP3   OH2 5009   4.831   6.155   0.426  0.0763 -0.0363 -0.3703
 1682TIP3    H1 5010   4.896   6.222   0.444  0.1195 -0.5824  1.6556
 1682TIP3    H2 5011   4.855   6.121   0.340  0.6643  1.7977 -0.9742
 1683TIP3   OH2 5012   0.925   0.731   2.941 -0.0844 -0.2688 -0.0184
 1683TIP3    H1 5013   0.868   0.767   2.873 -0.4698  1.4809  1.1568
 1683TIP3    H2 5014   1.012   0.766   2.920  0.3094 -1.6652 -0.9093
 1684TIP3   OH2 5015   5.730   5.453   0.969  0.2677  0.0338  0.4214
 1684TIP3    H1 5016   5.812   5.450   0.919  0.6829  1.1574  0.9916
 1684TIP3    H2 5017   5.757   5.482   1.056 -0.7828  0.9503  0.4663
 1685TIP3   OH2 5018   2.743   2.802   3.313 -0.4437  0.0767  1.4801
 1685TIP3    H1 5019   2.807   2.813   3.384  1.3690 -0.6313  0.0532
 1685TIP3    H2 5020   2.743   2.707   3.296 -1.1919  0.1875  0.8281
 1686TIP3   OH2 5021   3.986   0.226   3.896  0.2119  0.9183 -0.3177
 1686TIP3    H1 5022   3.964   0.212   3.988 -0.2938 -1.5485 -0.7427
 1686TIP3    H2 5023   3.938   0.157   3.850  0.1398  2.3392 -2.4946
 1687TIP3   OH2 5024   0.879   2.484   5.163  0.6499  0.1732 -0.4767
 1687TIP3    H1 5025   0.806   2.543   5.180  0.8884  0.4169 -0.2950
 1687TIP3    H2 5026   0.838   2.397   5.158  0.1211  0.4732 -2.0124
 1688TIP3   OH2 5027   2.053   5.059   2.937 -0.2059 -0.6538  0.9593
 1688TIP3    H1 5028   2.017   5.081   3.023  0.7618 -1.3445  1.5611
 1688TIP3    H2 5029   2.094   4.974   2.949  0.1957 -0.6303 -0.1188
 1689TIP3   OH2 5030   1.767   6.453   0.811  0.1002 -0.1085  0.0892
 1689TIP3    H1 5031   1.677   6.423   0.795 -0.0619  0.5587 -0.2575
 1689TIP3    H2 5032   1.757   6.542   0.844  0.5891 -0.4036  1.0794
 1690TIP3   OH2 5033   4.255   4.978   4.598 -0.3794  0.5028 -0.6754
 1690TIP3    H1 5034   4.265   5.006   4.689  0.2286  0.2290 -0.6552
 1690TIP3    H2 5035   4.209   5.051   4.556 -0.2279  0.8459 -0.2592
 1691TIP3   OH2 5036   0.235   2.338   2.236  0.5700  0.3957 -0.5906
 1691TIP3    H1 5037   0.144   2.362   2.254 -0.0492  0.0722 -2.9510
 1691TIP3    H2 5038   0.229   2.267   2.173  2.4457  0.9797 -1.4962
 1692TIP3   OH2 5039   5.832   4.403   3.302  0.0434 -0.1513 -0.5441
 1692TIP3    H1 5040   5.865   4.315   3.319  0.8368 -0.0353 -1.4027
 1692TIP3    H2 5041   5.898   4.443   3.245 -0.6780  0.7360 -0.7819
 1693TIP3   OH2 5042   5.137   0.888   1.677  0.0969 -0.1544 -0.0330
 1693TIP3    H1 5043   5.201   0.913   1.611  0.6555  0.2761  0.6651
 1693TIP3    H2 5044   5.052   0.908   1.637  0.4648  1.1804 -0.1759
 1694TIP3   OH2 5045   4.818   5.298   5.102 -0.1025  0.7588  0.0517
 1694TIP3    H1 5046   4.770   5.272   5.181 -0.1219  0.5953 -0.0133
 1694TIP3    H2 5047   4.755   5.287   5.031  0.5496 -1.2280 -0.2886
 1695TIP3   OH2 5048   4.631   2.646   2.096 -0.2614 -0.3397  0.4330
 1695TIP3    H1 5049   4.604   2.555   2.094 -1.3529 -0.0107 -1.2222
 1695TIP3    H2 5050   4.651   2.663   2.189  2.6510 -2.9538  0.4291
 1696TIP3   OH2 5051   4.391   2.925   3.274 -0.0971 -0.6636 -0.4713
 1696TIP3    H1 5052   4.438   2.904   3.194 -1.2176 -0.7519 -1.1374
 1696TIP3    H2 5053   4.300   2.903   3.254 -0.2810 -1.4653  1.1113
 1697TIP3   OH2 5054   6.432   2.131   0.459 -0.0263 -0.2579  0.3350
 1697TIP3    H1 5055   6.369   2.078   0.411  0.9960 -1.8154  0.6411
 1697TIP3    H2 5056   6.513   2.080   0.457  1.0083  1.3108  0.6490
 1698TIP3   OH2 5057   1.314   2.898   3.085  0.1228 -0.3697 -0.2763
 1698TIP3    H1 5058   1.352   2.811   3.095 -0.3540 -0.7176 -1.3675
 1698TIP3    H2 5059   1.220   2.883   3.082  0.0737  0.1079 -1.1941
 1699TIP3   OH2 5060   6.399   1.339   2.589  0.0117 -0.0625 -0.7144
 1699TIP3    H1 5061   6.308   1.342   2.560 -0.4221 -1.5720  0.3398
 1699TIP3    H2 5062   6.425   1.431   2.595 -1.5193  0.4190 -0.8139
 1700TIP3   OH2 5063   4.551   6.601   0.850  0.2395  0.0104  0.0535
 1700TIP3    H1 5064   4.593   6.630   0.769  0.0737  0.7149  0.2102
 1700TIP3    H2 5065   4.478   6.546   0.821  0.1217  0.3378 -0.2788
 1701TIP3   OH2 5066   3.391   1.919   5.804 -0.0223  0.4591  0.0327
 1701TIP3    H1 5067   3.341   1.847   5.843  1.4548  0.1120  1.3687
 1701TIP3    H2 5068   3.454   1.944   5.871  0.8145  1.6986 -1.1547
 1702TIP3   OH2 5069   4.038   6.157   0.327  0.2072 -0.3225  0.7447
 1702TIP3    H1 5070   4.014   6.180   0.237 -1.7654 -1.3916  0.9496
 1702TIP3    H2 5071   4.045   6.061   0.326  1.7188 -0.2441  1.4013
 1703TIP3   OH2 5072   4.825   2.957   3.936  0.3192 -0.2212 -0.7319
 1703TIP3    H1 5073   4.882   2.982   3.863 -0.1472  0.3621 -0.9046
 1703TIP3    H2 5074   4.745   2.925   3.895  0.7607 -1.7075 -0.5042
 1704TIP3   OH2 5075   0.479   1.144   5.136 -0.1059  0.6890  0.2025
 1704TIP3    H1 5076   0.392   1.140   5.176 -0.3053  0.1304 -0.2676
 1704TIP3    H2 5077   0.504   1.052   5.124 -0.1287  0.8361 -1.1009
 1705TIP3   OH2 5078   3.388   2.806   4.327  0.1980 -0.5304 -0.1006
 1705TIP3    H1 5079   3.333   2.833   4.400 -0.0572  1.6871 -1.0336
 1705TIP3    H2 5080   3.359   2.717   4.306 -2.0073  0.0170  0.4070
 1706TIP3   OH2 5081   3.488   0.287   3.133 -0.2208  0.4725 -0.0002
 1706TIP3    H1 5082   3.427   0.268   3.061 -0.7203 -0.2258  0.5945
 1706TIP3    H2 5083   3.487   0.207   3.186  0.1017  1.0009  0.8108
 1707TIP3   OH2 5084   0.570   6.087   0.425 -0.0885  0.0744  0.0944
 1707TIP3    H1 5085   0.535   6.167   0.465 -1.3789  0.2000 -1.2119
 1707TIP3    H2 5086   0.509   6.067   0.354 -0.1397 -2.4178  0.7422
 1708TIP3   OH2 5087   6.535   1.593   2.698  0.2694 -0.3566  0.2668
 1708TIP3    H1 5088   6.570   1.525   2.755  1.0373  0.1144  0.3737
 1708TIP3    H2 5089   6.550   1.675   2.745 -0.0744 -0.0574 -0.1321
 1709TIP3   OH2 5090   4.166   6.420   3.130  0.4706 -0.1143  0.1458
 1709TIP3    H1 5091   4.163   6.415   3.226  1.5658 -0.3829  0.1805
 1709TIP3    H2 5092   4.179   6.330   3.102 -1.8990 -0.3731 -0.3973
 1710TIP3   OH2 5093   4.087   2.298   2.600 -0.5198 -0.0188  0.4410
 1710TIP3    H1 5094   4.031   2.331   2.671 -1.5627  0.2368 -0.4792
 1710TIP3    H2 5095   4.086   2.368   2.535 -2.2572 -1.5297 -1.2770
 1711TIP3   OH2 5096   6.485   2.590   0.655  0.6955 -0.1021  0.2127
 1711TIP3    H1 5097   6.467   2.615   0.564  0.9599 -0.1300  0.1504
 1711TIP3    H2 5098   6.446   2.503   0.664 -2.3549  1.2116  1.1268
 1712TIP3   OH2 5099   3.490   3.264   0.938  0.5720  0.0482 -0.2066
 1712TIP3    H1 5100   3.554   3.307   0.881 -0.0851 -1.9587 -2.6346
 1712TIP3    H2 5101   3.538   3.248   1.019  1.6973  2.6333 -0.2670
 1713TIP3   OH2 5102   0.699   4.015   5.919  0.0406  0.3517  0.4250
 1713TIP3    H1 5103   0.639   4.090   5.920  0.6058  0.8374 -0.3954
 1713TIP3    H2 5104   0.742   4.021   5.834  2.2707  0.8482  1.5100
 1714TIP3   OH2 5105   5.938   0.459   1.775  0.5167  0.0994  0.5474
 1714TIP3    H1 5106   5.989   0.488   1.851 -0.5315 -3.4374  2.8758
 1714TIP3    H2 5107   5.882   0.534   1.754  3.9600  2.8243  0.1647
 1715TIP3   OH2 5108   4.102   4.070   0.859 -0.4211  0.3250  0.1631
 1715TIP3    H1 5109   4.079   4.033   0.774  0.8891  0.2767 -0.1883
 1715TIP3    H2 5110   4.113   4.164   0.842 -1.4408  0.5319  0.5670
 1716TIP3   OH2 5111   3.323   0.679   0.082 -0.1665  0.5859  0.1280
 1716TIP3    H1 5112   3.236   0.663   0.118 -0.0688 -0.6279 -0.1499
 1716TIP3    H2 5113   3.313   0.663  -0.012  0.0364  1.8195 -0.1183
 1717TIP3   OH2 5114   5.938   3.873   4.719 -0.0555  0.1686 -0.4741
 1717TIP3    H1 5115   5.994   3.870   4.641  0.6050 -1.4838  0.0345
 1717TIP3    H2 5116   5.932   3.967   4.740  0.3343  0.5855 -2.0821
 1718TIP3   OH2 5117   5.056   2.571   0.977  0.2030 -0.1456  0.1761
 1718TIP3    H1 5118   5.046   2.484   0.937 -2.1869 -0.4455  1.2653
 1718TIP3    H2 5119   5.148   2.576   0.999  0.5917 -2.0325 -0.7611
 1719TIP3   OH2 5120   5.647   0.410   3.768 -0.5535 -0.4895  0.0348
 1719TIP3    H1 5121   5.642   0.391   3.861  0.0192 -0.8019  0.0058
 1719TIP3    H2 5122   5.667   0.326   3.727  3.8292  0.3081  0.0674
 1720TIP3   OH2 5123   1.522   2.534   5.338  0.2618 -0.6767 -0.6593
 1720TIP3    H1 5124   1.608   2.568   5.313  1.1630 -0.3999  2.4232
 1720TIP3    H2 5125   1.477   2.608   5.378 -0.3727 -1.4448  0.1009
 1721TIP3   OH2 5126   1.375   6.579   0.853  0.1696 -0.0592 -0.6578
 1721TIP3    H1 5127   1.332   6.549   0.933 -1.4678  0.2462 -1.3800
 1721TIP3    H2 5128   1.396   6.671   0.869  1.9307 -0.5686  0.2253
 1722TIP3   OH2 5129   6.321   0.849   1.329  0.5353 -0.2254  0.1005
 1722TIP3    H1 5130   6.377   0.841   1.406  0.3824 -0.2176  0.2119
 1722TIP3    H2 5131   6.272   0.930   1.343  0.0976 -0.5189  0.2616
 1723TIP3   OH2 5132   4.231   1.676   2.709  0.3884  0.4115  0.0616
 1723TIP3    H1 5133   4.282   1.648   2.633  0.1725  0.8645 -0.2495
 1723TIP3    H2 5134   4.289   1.737   2.755 -0.8616  3.1688 -1.7999
 1724TIP3   OH2 5135   5.690   0.958   4.676 -0.1000 -0.0711 -0.0616
 1724TIP3    H1 5136   5.752   1.019   4.717 -0.5165 -0.8955  1.9126
 1724TIP3    H2 5137   5.663   0.900   4.747 -1.6914 -0.9378 -1.3074
 1725TIP3   OH2 5138   6.818   1.991   4.536  0.2327 -0.3158 -0.0773
 1725TIP3    H1 5139   6.905   2.028   4.553  1.0825 -1.8440 -0.9610
 1725TIP3    H2 5140   6.789   2.035   4.456  0.5110 -0.3565 -0.2019
 1726TIP3   OH2 5141   1.580   5.401   4.983 -0.5751  0.1145  0.1048
 1726TIP3    H1 5142   1.554   5.311   5.004 -0.5327  0.1030  0.1068
 1726TIP3    H2 5143   1.562   5.450   5.064  0.9026 -0.1912  0.6455
 1727TIP3   OH2 5144   6.214   6.093   5.401 -0.2813  0.0031 -0.1953
 1727TIP3    H1 5145   6.198   6.057   5.314  0.9789  0.9532 -0.8532
 1727TIP3    H2 5146   6.247   6.019   5.453  0.1949 -0.2811 -0.8974
 1728TIP3   OH2 5147   3.761   4.731   3.122  0.2670 -0.2104  0.0961
 1728TIP3    H1 5148   3.841   4.778   3.096 -0.5909  0.0861 -2.2920
 1728TIP3    H2 5149   3.791   4.644   3.147  1.6354  0.8263  2.3650
 1729TIP3   OH2 5150   0.868   1.862   2.808  0.9128 -0.1329  0.3169
 1729TIP3    H1 5151   0.851   1.860   2.713  2.1439  0.8207  0.0429
 1729TIP3    H2 5152   0.813   1.933   2.840 -0.0065 -0.8894  0.4403
 1730TIP3   OH2 5153   4.796   4.820   5.301 -0.1240  0.0163 -0.0410
 1730TIP3    H1 5154   4.771   4.815   5.393 -0.9653  1.3149 -0.1716
 1730TIP3    H2 5155   4.883   4.782   5.297 -0.5433 -1.1418  1.0893
 1731TIP3   OH2 5156   1.548   5.682   4.026  0.2320  0.8403 -0.0748
 1731TIP3    H1 5157   1.634   5.668   4.067 -0.3208  0.3567  0.9381
 1731TIP3    H2 5158   1.548   5.623   3.950  0.9666  1.1741 -0.3429
 1732TIP3   OH2 5159   5.265   0.889   3.706  0.8380  0.4524 -0.0089
 1732TIP3    H1 5160   5.271   0.968   3.652  0.5243  0.7239  0.3451
 1732TIP3    H2 5161   5.175   0.859   3.693  0.7986  0.4499  0.2608
 1733TIP3   OH2 5162   1.776   1.954   3.587  0.2625 -0.5975 -0.3540
 1733TIP3    H1 5163   1.843   2.010   3.548  1.0157  0.2300  1.9119
 1733TIP3    H2 5164   1.825   1.880   3.623 -0.0536 -0.2466  0.8643
 1734TIP3   OH2 5165   5.642   0.070   5.617 -0.9101  0.2142  0.2926
 1734TIP3    H1 5166   5.588   0.076   5.695  0.7441 -2.8982  1.8309
 1734TIP3    H2 5167   5.613  -0.010   5.573 -0.6759  1.0206 -1.4463
 1735TIP3   OH2 5168   3.567   6.407   1.242 -0.6078  0.2313 -0.6955
 1735TIP3    H1 5169   3.543   6.376   1.329  0.8068  0.5735 -0.1480
 1735TIP3    H2 5170   3.491   6.457   1.212 -0.9007  0.6050  0.5985
 1736TIP3   OH2 5171   1.554   5.965   0.379  0.0142  0.2945  0.3663
 1736TIP3    H1 5172   1.460   5.946   0.375  0.3759 -1.6038 -0.1197
 1736TIP3    H2 5173   1.562   6.030   0.450 -1.4770 -0.7963  1.6207
 1737TIP3   OH2 5174   5.587   6.322   0.522 -0.1576  0.0821  0.3993
 1737TIP3    H1 5175   5.536   6.321   0.441  0.6015 -3.0121 -0.1336
 1737TIP3    H2 5176   5.660   6.380   0.502 -1.7599  2.1605  0.1526
 1738TIP3   OH2 5177   3.292   1.181   3.754 -0.2434  0.2713 -0.1105
 1738TIP3    H1 5178   3.313   1.136   3.835 -0.2072  0.0832 -0.2243
 1738TIP3    H2 5179   3.198   1.196   3.758 -0.3152 -0.1375 -0.2350
 1739TIP3   OH2 5180   0.738   2.539   2.243  0.1422 -0.0572  0.0201
 1739TIP3    H1 5181   0.673   2.576   2.304  1.0717 -0.6891  1.4442
 1739TIP3    H2 5182   0.797   2.612   2.225  0.0855  0.0365  0.2003
 1740TIP3   OH2 5183   5.926   2.992   3.395  0.3080  0.2653  0.0437
 1740TIP3    H1 5184   5.929   2.937   3.473  1.0115  0.5221  0.2081
 1740TIP3    H2 5185   5.951   2.935   3.323 -0.0888  0.0915  0.0419
 1741TIP3   OH2 5186   1.890   3.251   4.810  0.2283 -0.2101 -0.1925
 1741TIP3    H1 5187   1.969   3.227   4.762  2.5169 -0.1603  3.2123
 1741TIP3    H2 5188   1.896   3.346   4.820 -0.1758 -0.2262  0.2175
 1742TIP3   OH2 5189   2.875   4.057   4.635 -0.4079  0.0192  0.3232
 1742TIP3    H1 5190   2.835   3.972   4.656 -0.4765  0.3781  1.7777
 1742TIP3    H2 5191   2.874   4.105   4.718 -1.3270  1.8561 -0.6851
 1743TIP3   OH2 5192   6.942   6.360   2.678 -0.3238  0.2853  0.3030
 1743TIP3    H1 5193   6.941   6.358   2.583  0.9072 -0.4293  0.2898
 1743TIP3    H2 5194   6.938   6.267   2.704  2.3372  0.2486  0.8683
 1744TIP3   OH2 5195   2.857   0.740   3.377 -0.3512  0.0179 -0.4170
 1744TIP3    H1 5196   2.878   0.797   3.303 -0.4380  0.3869 -0.1611
 1744TIP3    H2 5197   2.899   0.782   3.452 -2.3257  1.0261  0.2004
 1745TIP3   OH2 5198   7.149   6.534   1.197  0.1908  0.4717  0.1542
 1745TIP3    H1 5199   7.114   6.561   1.112  0.9178 -2.8157 -1.3503
 1745TIP3    H2 5200   7.072   6.518   1.251 -0.5070 -1.4697 -1.3349
 1746TIP3   OH2 5201   0.041   1.010   0.970 -0.0805  0.0086 -0.1361
 1746TIP3    H1 5202   0.130   0.975   0.967 -0.5090 -1.0973 -2.7645
 1746TIP3    H2 5203   0.052   1.104   0.955  0.6555 -0.0957 -0.3058
 1747TIP3   OH2 5204   6.129   4.703   2.544 -0.1631 -0.3820  0.0369
 1747TIP3    H1 5205   6.126   4.640   2.616 -0.2207 -0.4239 -0.0021
 1747TIP3    H2 5206   6.215   4.745   2.551  0.4618 -1.4686 -0.8071
 1748TIP3   OH2 5207   4.070   0.045   2.181  0.5823 -0.0507  0.4016
 1748TIP3    H1 5208   3.978   0.031   2.204  0.7250 -0.2102  0.8914
 1748TIP3    H2 5209   4.078   0.139   2.169  0.2325 -0.0881 -0.1912
 1749TIP3   OH2 5210   3.486   2.005   2.439 -0.2871 -0.3694 -0.3700
 1749TIP3    H1 5211   3.430   1.996   2.362 -0.2406 -0.7801 -0.3560
 1749TIP3    H2 5212   3.570   1.966   2.414  1.0101  2.8032 -1.4006
 1750TIP3   OH2 5213   2.072   3.202   3.563  0.7702 -0.2638  0.5218
 1750TIP3    H1 5214   2.133   3.174   3.494  0.8357  1.4353 -0.1712
 1750TIP3    H2 5215   2.073   3.298   3.557 -0.5282 -0.1516  1.7723
 1751TIP3   OH2 5216   6.549   6.075   2.101  0.4746  0.5258 -0.2546
 1751TIP3    H1 5217   6.583   6.133   2.032 -0.4039  0.2287 -0.9622
 1751TIP3    H2 5218   6.504   6.006   2.053  1.4060 -0.6895  0.5855
 1752TIP3   OH2 5219   1.409   2.520   2.806 -0.0990  0.1935  0.7072
 1752TIP3    H1 5220   1.491   2.470   2.805  0.3364  0.7925  2.7812
 1752TIP3    H2 5221   1.417   2.579   2.881 -0.3231  3.8634 -1.8854
 1753TIP3   OH2 5222   4.613   1.957   2.788 -0.2558  0.0307 -0.5225
 1753TIP3    H1 5223   4.696   1.975   2.743 -0.4112 -1.5493 -1.5174
 1753TIP3    H2 5224   4.546   1.993   2.730 -0.2974  1.6342  0.4544
 1754TIP3   OH2 5225   5.794   3.943   5.292  0.1054 -0.2909 -0.4978
 1754TIP3    H1 5226   5.848   4.010   5.251 -0.7730  2.1504  1.9805
 1754TIP3    H2 5227   5.828   3.937   5.382 -1.7070 -1.0104  0.1794
 1755TIP3   OH2 5228   6.246   1.185   0.802  0.1410 -0.6018  0.3175
 1755TIP3    H1 5229   6.323   1.241   0.815 -0.1651  0.5372 -2.2291
 1755TIP3    H2 5230   6.174   1.245   0.784 -0.7596 -1.7234  0.0256
 1756TIP3   OH2 5231   5.696   3.581   4.393 -0.4816  0.4164 -0.5954
 1756TIP3    H1 5232   5.629   3.578   4.325  0.4476 -0.4231 -1.5193
 1756TIP3    H2 5233   5.741   3.665   4.379 -0.1127  0.1226 -1.2175
 1757TIP3   OH2 5234   1.154   4.538   1.519 -0.1603 -0.6434 -0.0423
 1757TIP3    H1 5235   1.185   4.448   1.527  0.6305 -0.4759 -0.9947
 1757TIP3    H2 5236   1.203   4.587   1.585  0.6752 -0.6146 -0.6740
 1758TIP3   OH2 5237   3.873   1.948   1.706  0.0803 -0.1521  0.1599
 1758TIP3    H1 5238   3.895   1.882   1.641  1.5697  1.6125 -1.2624
 1758TIP3    H2 5239   3.778   1.940   1.718 -0.2150 -0.7201 -2.0741
 1759TIP3   OH2 5240   4.679   0.694   5.670  0.6027 -0.1106 -0.0726
 1759TIP3    H1 5241   4.743   0.762   5.690  1.7882 -1.0222 -0.6196
 1759TIP3    H2 5242   4.683   0.634   5.744 -0.3403  0.3255  0.3462
 1760TIP3   OH2 5243   3.152   4.153   0.562  0.0981  0.4606 -0.4515
 1760TIP3    H1 5244   3.159   4.123   0.471 -0.0041 -1.1502  0.0372
 1760TIP3    H2 5245   3.241   4.144   0.597  0.3974  2.1886 -0.6861
 1761TIP3   OH2 5246   1.290   1.447   5.603  0.1667  0.0520  0.4355
 1761TIP3    H1 5247   1.306   1.537   5.631 -2.7626  0.2732  1.7934
 1761TIP3    H2 5248   1.339   1.393   5.665 -0.6292  0.6981  1.6626
 1762TIP3   OH2 5249   5.871   1.752   3.472 -0.5049  0.1510 -0.0700
 1762TIP3    H1 5250   5.888   1.667   3.513 -0.6777  0.9865  1.8445
 1762TIP3    H2 5251   5.777   1.765   3.484 -0.3740  0.8773  0.2020
 1763TIP3   OH2 5252   2.260   4.541   2.257  0.2584  0.0740 -0.4614
 1763TIP3    H1 5253   2.178   4.498   2.233 -0.3527 -0.3344  2.0534
 1763TIP3    H2 5254   2.320   4.469   2.276  0.3229  0.3387  0.3833
 1764TIP3   OH2 5255   4.108   3.507   0.491 -0.1472 -0.0269  0.1934
 1764TIP3    H1 5256   4.116   3.552   0.407 -1.6453  1.2094  0.6673
 1764TIP3    H2 5257   4.095   3.415   0.467  0.2372  0.1839 -0.8928
 1765TIP3   OH2 5258   6.116   0.125   1.614  0.7255  0.0413  0.0752
 1765TIP3    H1 5259   6.039   0.115   1.671  0.4377  0.6274 -0.2039
 1765TIP3    H2 5260   6.147   0.036   1.601 -0.3691 -0.2908 -0.4350
 1766TIP3   OH2 5261   3.156   3.753   1.216 -0.1279  0.3108  0.8142
 1766TIP3    H1 5262   3.206   3.828   1.184 -1.6631  1.2427  0.4949
 1766TIP3    H2 5263   3.067   3.768   1.184 -0.0046 -2.9917 -1.5702
 1767TIP3   OH2 5264   4.485   0.540   5.098 -0.0108  0.4058 -0.2783
 1767TIP3    H1 5265   4.532   0.566   5.019  0.7827  1.0464  0.3765
 1767TIP3    H2 5266   4.529   0.460   5.127 -0.6762 -0.1537 -0.7923
 1768TIP3   OH2 5267   5.644   5.994   2.913  0.1286 -0.1956 -0.4153
 1768TIP3    H1 5268   5.567   5.943   2.889 -0.3094 -0.1134  0.7396
 1768TIP3    H2 5269   5.707   5.929   2.943 -0.1062 -0.1388  0.2152
 1769TIP3   OH2 5270   4.315   3.493   3.038 -0.3508 -0.0246  0.0923
 1769TIP3    H1 5271   4.312   3.401   3.011  0.0673 -0.0713  0.2076
 1769TIP3    H2 5272   4.298   3.542   2.958 -0.1129 -0.1891 -0.0572
 1770TIP3   OH2 5273   2.210   5.531   5.059  0.5966 -0.4544 -0.5124
 1770TIP3    H1 5274   2.236   5.447   5.021 -0.6343 -0.1267 -2.1964
 1770TIP3    H2 5275   2.115   5.535   5.047  0.7421  1.5863 -1.3880
 1771TIP3   OH2 5276   4.754   2.286   5.356  0.3284 -0.2724  0.5940
 1771TIP3    H1 5277   4.698   2.243   5.292  0.0287  2.0286 -0.8000
 1771TIP3    H2 5278   4.704   2.363   5.384  2.1564  1.0413  0.4291
 1772TIP3   OH2 5279   1.116   4.027   1.340  0.4107 -0.1314 -0.6583
 1772TIP3    H1 5280   1.149   3.994   1.424  0.2466 -1.5442 -1.1093
 1772TIP3    H2 5281   1.021   4.021   1.348  0.3654  0.5702 -0.6367
 1773TIP3   OH2 5282   1.275   4.625   4.712 -0.3937  0.3643 -0.0563
 1773TIP3    H1 5283   1.331   4.601   4.785  0.5556  1.5112 -0.3862
 1773TIP3    H2 5284   1.323   4.596   4.634 -0.3972  1.0500 -0.3217
 1774TIP3   OH2 5285   0.504   2.021   5.128  0.2821  0.8295  0.2777
 1774TIP3    H1 5286   0.416   1.982   5.124  0.7141 -0.5790  2.4605
 1774TIP3    H2 5287   0.522   2.028   5.222  2.1221  2.0427 -0.1215
 1775TIP3   OH2 5288   4.755   6.364   2.072 -0.0212  0.6186 -0.3882
 1775TIP3    H1 5289   4.748   6.289   2.131 -1.2001  0.9278 -0.1264
 1775TIP3    H2 5290   4.820   6.336   2.007 -0.2668 -0.5414 -0.1632
 1776TIP3   OH2 5291   0.972   1.712   0.820 -0.3798  0.0034  0.0003
 1776TIP3    H1 5292   0.956   1.751   0.906  0.1400  0.4113 -0.0778
 1776TIP3    H2 5293   1.066   1.695   0.819 -0.2916  0.4837 -0.6743
 1777TIP3   OH2 5294   1.797   0.584   5.837  0.1621  0.9263 -0.4280
 1777TIP3    H1 5295   1.753   0.545   5.912 -0.0544  3.1494  0.6726
 1777TIP3    H2 5296   1.820   0.510   5.781 -0.7470 -0.6793  1.2426
 1778TIP3   OH2 5297   4.309   3.162   2.098  0.3921 -0.3374  0.0938
 1778TIP3    H1 5298   4.233   3.218   2.111  1.5680  1.3444  0.1182
 1778TIP3    H2 5299   4.282   3.076   2.132 -0.6695  0.8379  2.4647
 1779TIP3   OH2 5300   0.693   6.788   3.807  0.1014 -0.1801 -0.5555
 1779TIP3    H1 5301   0.714   6.716   3.748 -1.8898 -1.8175  0.6035
 1779TIP3    H2 5302   0.673   6.862   3.749  3.6738  0.0317 -1.7513
 1780TIP3   OH2 5303   0.357   0.494   3.453  0.2436 -0.2138 -0.7267
 1780TIP3    H1 5304   0.344   0.425   3.389  1.6516 -0.7298 -0.5085
 1780TIP3    H2 5305   0.433   0.543   3.421  1.2450 -0.7363  0.7046
 1781TIP3   OH2 5306   2.321   3.754   4.121 -0.0035  0.1358  0.1204
 1781TIP3    H1 5307   2.242   3.802   4.147  1.0620  1.9952  0.0984
 1781TIP3    H2 5308   2.348   3.708   4.201  0.0068  1.1408  0.7101
 1782TIP3   OH2 5309   2.366   3.342   1.694 -0.2360 -0.3479 -0.0884
 1782TIP3    H1 5310   2.375   3.431   1.727 -0.9202 -0.5397  0.6452
 1782TIP3    H2 5311   2.274   3.320   1.710  0.2106 -1.6160  0.8566
 1783TIP3   OH2 5312   6.510   5.896   5.438  0.1880  0.2871  0.1509
 1783TIP3    H1 5313   6.547   5.951   5.368  1.5733  0.0153  0.6343
 1783TIP3    H2 5314   6.587   5.857   5.480 -0.7038 -0.9253  0.7136
 1784TIP3   OH2 5315   4.107   4.307   3.777  0.2745 -0.0841  0.1712
 1784TIP3    H1 5316   4.076   4.216   3.779 -0.0779  0.0110 -0.5802
 1784TIP3    H2 5317   4.181   4.308   3.837  0.7532 -1.0527 -0.3682
 1785TIP3   OH2 5318   5.446   1.387   2.136  0.2706  0.1469 -0.0968
 1785TIP3    H1 5319   5.419   1.458   2.194  3.0262  0.7066  0.6528
 1785TIP3    H2 5320   5.496   1.431   2.067 -1.3960 -0.7125 -1.9212
 1786TIP3   OH2 5321   4.318   0.378   4.292  0.5120 -0.3082  0.3781
 1786TIP3    H1 5322   4.318   0.461   4.341 -1.1658 -0.4393  0.6688
 1786TIP3    H2 5323   4.285   0.313   4.354  2.0641 -1.2764  0.2290
 1787TIP3   OH2 5324   1.095   1.030   1.843 -0.2339  0.5400 -0.4547
 1787TIP3    H1 5325   1.134   0.964   1.900  0.6470  0.5504 -1.0329
 1787TIP3    H2 5326   1.127   1.114   1.876 -1.0444  0.6616  0.0426
 1788TIP3   OH2 5327   1.304   6.464   1.120 -0.0762 -0.1369  0.2550
 1788TIP3    H1 5328   1.218   6.432   1.091 -0.5950 -0.1141  1.6738
 1788TIP3    H2 5329   1.357   6.385   1.131 -0.2085 -0.2249  0.2624
 1789TIP3   OH2 5330   2.931   4.369   1.475 -0.2659  0.8514  0.2771
 1789TIP3    H1 5331   2.854   4.331   1.516 -1.8125  1.3099 -2.0290
 1789TIP3    H2 5332   2.919   4.464   1.484  0.5901  0.9187  0.8374
 1790TIP3   OH2 5333   2.770   1.186   0.932 -0.0527  0.0893 -0.1086
 1790TIP3    H1 5334   2.780   1.176   1.027 -0.8576  1.7727  0.1963
 1790TIP3    H2 5335   2.699   1.127   0.909  0.8111 -1.0846  0.1457
 1791TIP3   OH2 5336   1.463   2.282   4.635 -0.2618 -0.1947 -0.2448
 1791TIP3    H1 5337   1.434   2.343   4.704  0.6984  1.0911 -0.9319
 1791TIP3    H2 5338   1.541   2.241   4.672 -0.8901 -1.0040  0.2055
 1792TIP3   OH2 5339   6.430   4.176   2.681 -0.0082  0.2062 -0.0972
 1792TIP3    H1 5340   6.492   4.229   2.630  0.4127  1.4830  1.6508
 1792TIP3    H2 5341   6.482   4.141   2.753 -0.4864 -1.9617 -0.7298
 1793TIP3   OH2 5342   4.773   4.418   5.207  0.2644 -0.1177 -0.0574
 1793TIP3    H1 5343   4.777   4.323   5.221 -0.8934 -0.0909  0.5821
 1793TIP3    H2 5344   4.747   4.454   5.291 -0.9777  0.6012 -0.7169
 1794TIP3   OH2 5345   6.969   3.837   4.612  0.2301 -0.1671  0.1339
 1794TIP3    H1 5346   7.051   3.828   4.660 -0.5661 -3.1020  1.1480
 1794TIP3    H2 5347   6.987   3.802   4.525  0.5425  1.1247 -0.3443
 1795TIP3   OH2 5348   6.681   3.270   1.877 -0.2642 -0.3538  0.5211
 1795TIP3    H1 5349   6.651   3.179   1.881  1.1456 -0.8020  3.0097
 1795TIP3    H2 5350   6.753   3.268   1.814 -0.7957 -0.7866 -0.0794
 1796TIP3   OH2 5351   4.268   5.325   4.362 -0.5546  0.1097  0.1210
 1796TIP3    H1 5352   4.202   5.284   4.307 -1.3442  0.4609  0.7844
 1796TIP3    H2 5353   4.349   5.321   4.310 -1.0702 -0.4105 -0.6584
 1797TIP3   OH2 5354   1.648   5.150   5.800 -0.5203 -0.2067 -0.2099
 1797TIP3    H1 5355   1.643   5.124   5.892 -0.0017  3.5459  1.0386
 1797TIP3    H2 5356   1.557   5.161   5.774 -0.6621 -1.0793 -0.1239
 1798TIP3   OH2 5357   3.260   5.512   2.578  0.0551  0.1890  0.3269
 1798TIP3    H1 5358   3.213   5.531   2.497 -0.3004 -2.5576 -0.2176
 1798TIP3    H2 5359   3.349   5.546   2.563 -0.4205  1.0869 -0.5829
 1799TIP3   OH2 5360   5.713   6.486   4.848 -0.1879 -0.2303  0.2230
 1799TIP3    H1 5361   5.689   6.403   4.807 -1.1175  0.4440 -0.6554
 1799TIP3    H2 5362   5.795   6.468   4.893  0.3428 -1.2793 -1.0915
 1800TIP3   OH2 5363   2.926   2.177   2.329 -0.2983 -0.2380 -0.0512
 1800TIP3    H1 5364   2.913   2.108   2.265  0.3561 -0.6802  0.2742
 1800TIP3    H2 5365   2.865   2.156   2.400 -1.6548  0.7345 -0.8713
 1801TIP3   OH2 5366   3.051   3.556   5.566  0.4957 -0.0350  0.1329
 1801TIP3    H1 5367   3.027   3.554   5.474  1.1219  0.6089 -0.0508
 1801TIP3    H2 5368   3.110   3.481   5.577  1.6735  0.7967 -0.3596
 1802TIP3   OH2 5369   1.120   3.136   1.770 -0.3266  0.0333  0.3907
 1802TIP3    H1 5370   1.166   3.061   1.808  2.4123  1.1079 -0.6211
 1802TIP3    H2 5371   1.103   3.110   1.680  0.3779  0.5114  0.1172
 1803TIP3   OH2 5372   0.525   1.422   2.660  0.2486  0.3435  0.0529
 1803TIP3    H1 5373   0.476   1.426   2.742  1.5290  0.0093  0.8733
 1803TIP3    H2 5374   0.488   1.492   2.606 -1.6314 -0.3867  0.3167
 1804TIP3   OH2 5375   4.927   4.415   2.571 -0.2276  0.5821  0.3190
 1804TIP3    H1 5376   4.913   4.446   2.661 -0.8773  0.6226  0.2051
 1804TIP3    H2 5377   4.931   4.319   2.580 -2.3132  0.4442  0.1420
 1805TIP3   OH2 5378   3.233   3.661   5.133  0.1570 -0.2756 -0.4610
 1805TIP3    H1 5379   3.158   3.645   5.075 -0.0404  0.3487 -0.3875
 1805TIP3    H2 5380   3.308   3.662   5.074  0.3891 -2.7735 -0.3237
 1806TIP3   OH2 5381   6.141   6.729   3.843  0.5605 -0.1450 -0.1616
 1806TIP3    H1 5382   6.156   6.706   3.752  0.9829  1.2076 -0.4555
 1806TIP3    H2 5383   6.229   6.731   3.882  0.5875  1.2918 -0.2517
 1807TIP3   OH2 5384   2.239   4.117   0.655 -0.0119  0.0699  0.2839
 1807TIP3    H1 5385   2.322   4.115   0.703 -0.1545 -0.5392  0.5258
 1807TIP3    H2 5386   2.264   4.133   0.564  0.4408 -0.7694  0.2429
 1808TIP3   OH2 5387   2.168   0.662   1.696  0.1671  0.1976 -0.6083
 1808TIP3    H1 5388   2.191   0.652   1.788 -1.1316  1.3331 -0.1353
 1808TIP3    H2 5389   2.092   0.605   1.683  0.1830  0.2454 -0.9209
 1809TIP3   OH2 5390   1.919   1.745   1.929 -0.0084  0.2581 -0.0358
 1809TIP3    H1 5391   1.931   1.785   1.843 -0.4749  0.1263 -0.1654
 1809TIP3    H2 5392   1.941   1.653   1.916 -1.1901 -0.0044 -0.2964
 1810TIP3   OH2 5393   2.857   2.073   3.221 -0.5646 -0.0113  0.2165
 1810TIP3    H1 5394   2.916   2.038   3.289 -2.6789 -1.6915  1.3099
 1810TIP3    H2 5395   2.908   2.067   3.141  1.0840 -0.5481  1.2433
 1811TIP3   OH2 5396   3.760   5.398   1.828  0.0530 -0.0463  0.5601
 1811TIP3    H1 5397   3.839   5.430   1.872  0.3135  1.2037 -0.7582
 1811TIP3    H2 5398   3.710   5.478   1.808 -0.0441 -0.5622 -1.4222
 1812TIP3   OH2 5399   1.450   6.374   4.008  0.2053  0.2164  0.0970
 1812TIP3    H1 5400   1.438   6.426   3.929  0.8934 -1.5826 -1.2781
 1812TIP3    H2 5401   1.527   6.411   4.050 -0.3459  1.3928  0.1058
 1813TIP3   OH2 5402   1.886   4.459   0.913  0.2463  0.2310 -0.1756
 1813TIP3    H1 5403   1.922   4.376   0.882 -1.7315 -0.1525 -1.6325
 1813TIP3    H2 5404   1.805   4.435   0.959  1.6383  1.0634  2.9917
 1814TIP3   OH2 5405   1.727   2.033   3.232 -0.1625  0.0874  0.9439
 1814TIP3    H1 5406   1.703   1.950   3.274  0.9138 -1.2689 -0.9330
 1814TIP3    H2 5407   1.817   2.049   3.259 -0.6523  1.1868  2.0293
 1815TIP3   OH2 5408   5.918   5.422   5.172 -0.2199  0.1237 -0.3234
 1815TIP3    H1 5409   5.881   5.346   5.127  0.5252 -1.5149  1.6403
 1815TIP3    H2 5410   6.006   5.431   5.137  0.1880 -0.8357  0.4305
 1816TIP3   OH2 5411   2.464   3.936   2.691  0.1446  0.1004 -0.4223
 1816TIP3    H1 5412   2.381   3.957   2.648 -0.3066 -0.5137  0.1274
 1816TIP3    H2 5413   2.457   3.974   2.778  0.1343 -0.5912 -0.1145
 1817TIP3   OH2 5414   4.405   2.989   5.402  0.3544  0.2801 -0.1187
 1817TIP3    H1 5415   4.372   3.003   5.314 -2.0757 -0.3525  0.6061
 1817TIP3    H2 5416   4.426   3.076   5.434 -1.9975  0.9647 -0.2041
 1818TIP3   OH2 5417   2.116   4.194   2.916 -0.1879  0.1379  0.7775
 1818TIP3    H1 5418   2.161   4.270   2.954  1.0044  0.4585 -1.1517
 1818TIP3    H2 5419   2.106   4.216   2.824  0.0186 -1.9769  0.1954
 1819TIP3   OH2 5420   6.971   6.490   4.913 -0.4879  0.5956 -0.1827
 1819TIP3    H1 5421   6.904   6.450   4.857  1.0655 -0.6200 -1.2822
 1819TIP3    H2 5422   7.038   6.520   4.851  0.3970  0.9513  0.9200
 1820TIP3   OH2 5423   2.889   5.468   2.383  0.3627 -0.2479  0.2022
 1820TIP3    H1 5424   2.951   5.534   2.353  1.3103 -0.4703  1.5587
 1820TIP3    H2 5425   2.860   5.424   2.303 -1.2653  2.5603 -0.8860
 1821TIP3   OH2 5426   5.807   6.439   0.880  0.0956  0.0998  0.0318
 1821TIP3    H1 5427   5.779   6.510   0.822  3.0963  0.3011 -1.3632
 1821TIP3    H2 5428   5.860   6.483   0.947 -0.3428 -0.5475  0.8187
 1822TIP3   OH2 5429   2.653   3.647   5.710  0.1577 -0.1527  0.7942
 1822TIP3    H1 5430   2.591   3.579   5.685 -0.4463  0.0269  1.7320
 1822TIP3    H2 5431   2.628   3.671   5.800  0.7052  0.9033  0.6888
 1823TIP3   OH2 5432   1.783   0.232   1.414  0.1887  0.3565  0.0814
 1823TIP3    H1 5433   1.738   0.255   1.495 -0.9116  0.8633 -0.6419
 1823TIP3    H2 5434   1.713   0.227   1.348  1.1276  0.6609 -0.9779
 1824TIP3   OH2 5435   6.365   1.776   1.667 -0.1703  0.1162 -0.4026
 1824TIP3    H1 5436   6.280   1.759   1.707  0.0184 -1.3276 -0.5415
 1824TIP3    H2 5437   6.426   1.780   1.741 -0.3202  0.9832 -0.3156
 1825TIP3   OH2 5438   0.035   5.810   1.085 -0.2363 -0.2006  0.3163
 1825TIP3    H1 5439   0.010   5.788   1.175  3.1194  0.3303  1.5133
 1825TIP3    H2 5440   0.057   5.904   1.089 -1.3241  0.1725 -1.4312
 1826TIP3   OH2 5441   3.072   0.490   4.905 -0.0140 -0.0886 -0.1635
 1826TIP3    H1 5442   3.020   0.558   4.948  1.2002  1.6869 -1.3436
 1826TIP3    H2 5443   3.046   0.409   4.949 -0.7830  1.2355  2.0113
 1827TIP3   OH2 5444   3.790   2.587   5.381  1.0083 -0.1718  0.3433
 1827TIP3    H1 5445   3.837   2.572   5.463 -1.1952 -0.1242  1.6982
 1827TIP3    H2 5446   3.720   2.521   5.381 -0.1433  0.9822 -0.5692
 1828TIP3   OH2 5447   2.179   5.015   0.789  0.1756 -0.2921  0.1601
 1828TIP3    H1 5448   2.230   5.079   0.839  0.7514  1.3830 -2.3861
 1828TIP3    H2 5449   2.243   4.975   0.730 -1.1984  1.6537 -2.9116
 1829TIP3   OH2 5450   1.335   3.524   0.550  0.4960  0.3696 -0.0936
 1829TIP3    H1 5451   1.271   3.593   0.563 -1.0682 -1.2216  1.2488
 1829TIP3    H2 5452   1.419   3.564   0.574 -0.6106  1.2939  2.6744
 1830TIP3   OH2 5453   0.414   4.167   3.485  0.0382  0.3224  0.0902
 1830TIP3    H1 5454   0.391   4.094   3.428  1.9859  0.3170 -0.8043
 1830TIP3    H2 5455   0.421   4.242   3.425 -0.4263  0.8954  0.7460
 1831TIP3   OH2 5456   0.168   1.355   1.988 -0.5454 -0.2367  0.3767
 1831TIP3    H1 5457   0.122   1.409   2.052  0.2094  0.7971  0.0811
 1831TIP3    H2 5458   0.111   1.355   1.911 -0.1503  0.8897  0.0720
 1832TIP3   OH2 5459   2.821   5.828   5.040 -0.6028  0.2219 -0.3943
 1832TIP3    H1 5460   2.877   5.796   4.969 -0.5644 -1.0213  0.1710
 1832TIP3    H2 5461   2.842   5.772   5.114 -3.1367 -0.8391 -0.3823
 1833TIP3   OH2 5462   5.085   6.527   5.220  0.5913  0.7315 -0.3436
 1833TIP3    H1 5463   5.093   6.517   5.125 -0.5493 -1.6290 -0.2630
 1833TIP3    H2 5464   5.154   6.471   5.256 -0.5654 -0.3784  0.1978
 1834TIP3   OH2 5465   1.055   5.671   5.802 -0.2417  0.4185 -0.1888
 1834TIP3    H1 5466   0.987   5.725   5.840  0.2140  0.6777  0.2790
 1834TIP3    H2 5467   1.083   5.718   5.724  0.2821  0.9681  0.3153
 1835TIP3   OH2 5468   3.592   6.401   2.650 -0.1179  0.3296  0.5741
 1835TIP3    H1 5469   3.573   6.368   2.562 -1.2756  0.0637  0.9029
 1835TIP3    H2 5470   3.552   6.336   2.708 -0.4177  1.1325  1.2718
 1836TIP3   OH2 5471   3.485   5.026   3.444 -0.0551 -0.0278  0.0093
 1836TIP3    H1 5472   3.512   4.966   3.375 -0.3538  1.8698 -1.8562
 1836TIP3    H2 5473   3.400   5.060   3.415 -0.5680  0.2415  1.7121
 1837TIP3   OH2 5474   5.827   4.560   1.241 -0.1964 -0.2611 -0.2833
 1837TIP3    H1 5475   5.818   4.647   1.280  0.1138 -0.3294 -0.0498
 1837TIP3    H2 5476   5.793   4.500   1.307  3.0195 -0.6585  1.2581
 1838TIP3   OH2 5477   0.528   5.223   4.583  0.4813  0.4510 -0.3624
 1838TIP3    H1 5478   0.581   5.237   4.662  2.4616 -2.8354 -0.9296
 1838TIP3    H2 5479   0.562   5.286   4.520  1.3543  0.6780  0.3169
 1839TIP3   OH2 5480   1.423   3.939   3.670  0.1096  0.0027 -0.4638
 1839TIP3    H1 5481   1.421   3.860   3.723 -2.3323  0.4223  0.2057
 1839TIP3    H2 5482   1.408   3.909   3.580 -0.5392 -0.3332 -0.2453
 1840TIP3   OH2 5483   3.827   0.919   2.192 -0.4939 -0.3460 -0.5361
 1840TIP3    H1 5484   3.892   0.986   2.213 -2.0125  0.9293  0.3664
 1840TIP3    H2 5485   3.812   0.929   2.098  0.2244 -0.3084 -0.6533
 1841TIP3   OH2 5486   0.697   2.426   1.107  0.4423  0.1522 -0.0549
 1841TIP3    H1 5487   0.645   2.487   1.161 -1.1042 -0.7887 -0.4332
 1841TIP3    H2 5488   0.788   2.457   1.118  0.1378  0.3704  2.6011
 1842TIP3   OH2 5489   3.927   4.595   3.337 -0.1564 -0.4066 -0.3796
 1842TIP3    H1 5490   3.947   4.511   3.296 -2.4915 -1.3422  0.2808
 1842TIP3    H2 5491   3.933   4.578   3.431  1.4357  0.7601 -0.2258
 1843TIP3   OH2 5492   6.040   5.251   4.780  1.0266 -0.4771 -0.9950
 1843TIP3    H1 5493   6.086   5.168   4.765 -0.1824 -1.3436 -0.0861
 1843TIP3    H2 5494   5.950   5.225   4.799  1.0198  0.9036  1.2033
 1844TIP3   OH2 5495   0.078   4.111   4.039  0.4164  0.3241  0.0579
 1844TIP3    H1 5496   0.053   4.066   3.958  0.8624  2.1866 -1.1943
 1844TIP3    H2 5497  -0.003   4.153   4.068 -0.2411 -1.9817  1.7758
 1845TIP3   OH2 5498   6.127   5.033   2.131 -0.0361 -0.2793  0.0751
 1845TIP3    H1 5499   6.158   4.944   2.149  0.2868 -0.2571 -0.3664
 1845TIP3    H2 5500   6.040   5.020   2.094 -1.4735 -0.2728  3.0983
 1846TIP3   OH2 5501   6.548   0.229   0.034  0.4016 -0.3261 -0.1226
 1846TIP3    H1 5502   6.569   0.317   0.067 -0.9465 -0.0066 -0.0555
 1846TIP3    H2 5503   6.454   0.233   0.013  0.2076 -1.8707  0.3069
 1847TIP3   OH2 5504   3.814   0.005   0.060  0.1533 -0.3360  0.0276
 1847TIP3    H1 5505   3.838   0.092   0.030  0.2550 -0.1143  0.7170
 1847TIP3    H2 5506   3.884  -0.020   0.121  0.1961 -0.9555 -0.2693
 1848TIP3   OH2 5507   4.800   6.391   5.645 -0.0493  0.4671  0.6201
 1848TIP3    H1 5508   4.893   6.385   5.670  0.2410 -0.8176 -0.6835
 1848TIP3    H2 5509   4.785   6.485   5.636  1.3143  0.6732  0.2012
 1849TIP3   OH2 5510   2.341   0.410   1.054  0.7748 -0.0285  0.4592
 1849TIP3    H1 5511   2.295   0.476   1.106 -0.7245 -0.8061  0.1933
 1849TIP3    H2 5512   2.328   0.329   1.102 -1.4992 -0.9624 -1.4881
 1850TIP3   OH2 5513   1.468   5.158   5.472 -0.1820 -0.4315 -0.5099
 1850TIP3    H1 5514   1.459   5.219   5.398 -0.4781 -0.1460 -0.2469
 1850TIP3    H2 5515   1.380   5.154   5.510 -0.0511 -0.6402 -0.2237
 1851TIP3   OH2 5516   5.697   3.081   3.295  0.3687  0.1359 -0.3282
 1851TIP3    H1 5517   5.639   3.012   3.327  0.1423  0.9288  1.0323
 1851TIP3    H2 5518   5.785   3.045   3.304  0.1782 -0.5192 -1.0155
 1852TIP3   OH2 5519   5.404   4.492   5.329 -0.5244 -0.0894  0.1805
 1852TIP3    H1 5520   5.499   4.496   5.318 -0.3383  0.0195  1.5975
 1852TIP3    H2 5521   5.389   4.405   5.367 -1.0804 -0.3911 -0.7040
 1853TIP3   OH2 5522   2.650   0.264   4.590 -0.0634  0.4815  0.1242
 1853TIP3    H1 5523   2.560   0.274   4.621 -0.2547 -0.0808 -0.2479
 1853TIP3    H2 5524   2.692   0.207   4.655 -0.3699 -0.4182 -0.4649
 1854TIP3   OH2 5525   0.182   4.427   1.000 -0.6124  0.4836  0.2527
 1854TIP3    H1 5526   0.133   4.509   0.992 -1.7644 -0.2793 -0.8463
 1854TIP3    H2 5527   0.117   4.364   1.032 -0.0304 -0.2607 -0.0130
 1855TIP3   OH2 5528   3.602   6.108   5.048 -0.2815  0.3989  0.7282
 1855TIP3    H1 5529   3.566   6.019   5.049 -0.7500  0.4695 -2.0082
 1855TIP3    H2 5530   3.673   6.104   4.984 -1.1925  2.2399 -0.5049
 1856TIP3   OH2 5531   3.287   6.354   0.322  0.3169 -0.3483  0.6462
 1856TIP3    H1 5532   3.258   6.405   0.246  0.4542 -1.4739 -0.1733
 1856TIP3    H2 5533   3.356   6.408   0.362  0.0581  0.3760  0.1318
 1857TIP3   OH2 5534   6.987   3.524   4.736  0.0405 -0.1850  0.0121
 1857TIP3    H1 5535   7.071   3.527   4.689  1.1082 -0.1122  1.8428
 1857TIP3    H2 5536   6.962   3.616   4.743  2.1470  0.2970  3.3309
 1858TIP3   OH2 5537   4.608   6.348   2.664  0.4319 -0.2896 -0.0222
 1858TIP3    H1 5538   4.560   6.381   2.588  0.2222 -1.1072 -0.2602
 1858TIP3    H2 5539   4.544   6.347   2.735  0.4700 -0.0849  0.0162
 1859TIP3   OH2 5540   6.724   5.062   3.972  0.3088  0.2403 -0.2391
 1859TIP3    H1 5541   6.728   5.117   3.893  1.8436  0.8758  0.2292
 1859TIP3    H2 5542   6.642   5.015   3.964 -1.4760  3.1118 -0.3425
 1860TIP3   OH2 5543   3.580   3.239   1.592  0.3712 -0.2631  0.3278
 1860TIP3    H1 5544   3.495   3.230   1.548  0.0507 -1.3115  1.1164
 1860TIP3    H2 5545   3.631   3.164   1.561  0.3483 -0.6829  1.2643
 1861TIP3   OH2 5546   6.117   2.495   3.566 -0.7054 -0.1585  0.4273
 1861TIP3    H1 5547   6.059   2.555   3.519  0.8789  1.2473  0.1595
 1861TIP3    H2 5548   6.060   2.423   3.593 -2.3277  0.5952 -0.7800
 1862TIP3   OH2 5549   1.498   3.487   4.631  0.0001 -0.3157  0.4215
 1862TIP3    H1 5550   1.553   3.485   4.553 -0.4828  0.1498  0.0590
 1862TIP3    H2 5551   1.558   3.508   4.703  0.7758 -2.4144  0.4852
 1863TIP3   OH2 5552   2.376   3.281   1.222 -0.2146 -0.2453  0.1176
 1863TIP3    H1 5553   2.359   3.369   1.255  1.4689  0.3871 -0.5715
 1863TIP3    H2 5554   2.322   3.274   1.143 -0.5157  0.0763  0.2893
 1864TIP3   OH2 5555   2.490   0.178   2.643 -0.0116 -0.7025  0.1765
 1864TIP3    H1 5556   2.523   0.208   2.728  0.8973  0.1443 -0.4546
 1864TIP3    H2 5557   2.433   0.105   2.664 -0.9436  0.4006  1.6335
 1865TIP3   OH2 5558   2.224   1.475   0.238 -0.9575 -0.3048 -0.0229
 1865TIP3    H1 5559   2.268   1.397   0.271 -0.8677  0.0892  0.8137
 1865TIP3    H2 5560   2.290   1.544   0.243 -0.7126 -0.3745 -1.7335
 1866TIP3   OH2 5561   1.670   2.314   2.086  0.6056  0.0302  0.1572
 1866TIP3    H1 5562   1.629   2.345   2.005  0.3012  1.1251  0.7159
 1866TIP3    H2 5563   1.762   2.301   2.063  0.6918  1.1461 -0.1515
 1867TIP3   OH2 5564   5.822   1.744   5.047  0.2026  0.2550 -0.0606
 1867TIP3    H1 5565   5.895   1.702   5.001 -0.4899 -1.3218  0.2110
 1867TIP3    H2 5566   5.815   1.831   5.008  2.4569  0.5928  0.1598
 1868TIP3   OH2 5567   2.649   1.715   1.083  0.2462  0.3475  0.0501
 1868TIP3    H1 5568   2.590   1.791   1.090  0.3930  0.7176 -2.1390
 1868TIP3    H2 5569   2.593   1.644   1.050  0.4471 -0.0867  0.6279
 1869TIP3   OH2 5570   7.189   1.288   5.831 -0.1312  0.1015 -0.1426
 1869TIP3    H1 5571   7.184   1.196   5.856  0.6319 -0.4308 -1.8483
 1869TIP3    H2 5572   7.098   1.314   5.816 -0.3728 -0.2747  0.5973
 1870TIP3   OH2 5573   0.353   6.082   4.203  0.0560 -0.1376 -0.5880
 1870TIP3    H1 5574   0.315   6.152   4.257  0.0182  0.5888 -1.5262
 1870TIP3    H2 5575   0.424   6.046   4.257 -1.4519 -1.0298  0.9036
 1871TIP3   OH2 5576   3.949   5.892   0.252 -0.2647 -0.0645  0.1802
 1871TIP3    H1 5577   3.889   5.875   0.179  1.1218  0.8571 -1.2211
 1871TIP3    H2 5578   3.906   5.851   0.327 -1.4063 -1.6838 -1.2652
 1872TIP3   OH2 5579   5.610   2.059   3.051  0.1701  0.0920 -0.0937
 1872TIP3    H1 5580   5.548   2.132   3.053  1.6462  1.4095  0.6872
 1872TIP3    H2 5581   5.556   1.980   3.057 -1.4930  1.1020 -1.0046
 1873TIP3   OH2 5582   3.018   5.937   5.866  0.0098  0.3624  0.3741
 1873TIP3    H1 5583   2.977   5.855   5.841 -1.5812  1.2294  0.0547
 1873TIP3    H2 5584   3.112   5.923   5.849  0.1577 -2.2373  2.7198
 1874TIP3   OH2 5585   1.633   2.266   3.363  0.1865 -0.4051  0.1098
 1874TIP3    H1 5586   1.698   2.295   3.427 -0.5623  0.2076  0.6130
 1874TIP3    H2 5587   1.677   2.197   3.313  1.1773 -0.0805  0.5136
 1875TIP3   OH2 5588   2.637   4.851   3.022  0.1638  0.1338 -0.2403
 1875TIP3    H1 5589   2.618   4.940   2.993  1.8301  0.5499 -0.1467
 1875TIP3    H2 5590   2.552   4.817   3.051 -0.3336  2.0893  0.7907
 1876TIP3   OH2 5591   4.151   0.591   0.478  0.2881 -0.3281  0.0433
 1876TIP3    H1 5592   4.141   0.506   0.435 -0.8289 -0.2658  0.1596
 1876TIP3    H2 5593   4.119   0.654   0.413  4.6342  0.4950 -1.6542
 1877TIP3   OH2 5594   1.028   3.680   1.850  0.0498  0.1988  0.2812
 1877TIP3    H1 5595   1.003   3.700   1.760 -0.3077 -1.4154 -0.0206
 1877TIP3    H2 5596   1.011   3.586   1.859 -0.8630  0.5057  2.3429
 1878TIP3   OH2 5597   6.735   5.245   2.658  0.1656 -0.6434 -0.0651
 1878TIP3    H1 5598   6.734   5.295   2.576 -1.4508 -1.4189 -0.5793
 1878TIP3    H2 5599   6.731   5.312   2.727  3.5859  0.1385 -0.4356
 1879TIP3   OH2 5600   2.621   4.884   0.515  0.0541 -0.1416 -0.1690
 1879TIP3    H1 5601   2.679   4.932   0.574 -1.3359 -1.2256  2.2448
 1879TIP3    H2 5602   2.666   4.800   0.501  0.4677  0.1840 -0.8081
 1880TIP3   OH2 5603   6.103   3.771   1.809 -0.2364 -0.1112 -0.4205
 1880TIP3    H1 5604   6.115   3.681   1.780 -0.6656  0.1418 -1.4271
 1880TIP3    H2 5605   6.190   3.811   1.798 -0.1130 -0.3221 -0.2309
 1881TIP3   OH2 5606   3.461   1.765   1.016  0.3259  0.7646  0.1361
 1881TIP3    H1 5607   3.494   1.845   0.977  1.0358  1.0554  1.2810
 1881TIP3    H2 5608   3.514   1.753   1.095 -1.2185  0.3726  1.1688
 1882TIP3   OH2 5609   4.556   2.481   5.425  0.3385 -0.8646 -0.3954
 1882TIP3    H1 5610   4.469   2.448   5.447  0.3898 -1.0044 -0.4081
 1882TIP3    H2 5611   4.576   2.544   5.495 -0.1012 -0.2588 -0.8072
 1883TIP3   OH2 5612   0.602   5.571   2.121 -0.0733 -0.1077 -0.4584
 1883TIP3    H1 5613   0.577   5.652   2.165 -0.0673  0.4117 -1.3898
 1883TIP3    H2 5614   0.549   5.504   2.164  1.9538 -0.1087  2.2787
 1884TIP3   OH2 5615   4.923   5.473   5.607 -0.3674  0.2455 -0.5993
 1884TIP3    H1 5616   4.912   5.506   5.518 -0.0339 -0.4468 -0.9109
 1884TIP3    H2 5617   4.844   5.421   5.623 -0.7446  0.9299 -0.2324
 1885TIP3   OH2 5618   1.234   0.311   2.781 -0.0179  0.0253  0.3390
 1885TIP3    H1 5619   1.233   0.254   2.704  0.3947 -0.6252  0.8002
 1885TIP3    H2 5620   1.323   0.302   2.816  0.0685  1.0044  0.3905
 1886TIP3   OH2 5621   3.873   3.735   2.114  0.2204  0.3808 -0.0844
 1886TIP3    H1 5622   3.880   3.740   2.018  1.3698  1.0978  0.0190
 1886TIP3    H2 5623   3.786   3.700   2.130  0.4392 -0.8636 -1.4268
 1887TIP3   OH2 5624   2.432   5.555   3.110 -0.4148  0.0525 -0.6527
 1887TIP3    H1 5625   2.504   5.495   3.092 -0.3988 -0.2015  0.1950
 1887TIP3    H2 5626   2.442   5.577   3.203  0.3477  2.3721 -1.2125
 1888TIP3   OH2 5627   0.568   3.070   0.373 -0.1521 -0.3317 -0.1595
 1888TIP3    H1 5628   0.500   3.053   0.437  0.5948 -1.0102  0.4732
 1888TIP3    H2 5629   0.617   3.144   0.409  0.2202 -0.6635  0.0208
 1889TIP3   OH2 5630   4.325   6.652   3.801 -0.4376 -0.4358 -0.0090
 1889TIP3    H1 5631   4.360   6.655   3.891  0.0273 -2.7739 -0.0381
 1889TIP3    H2 5632   4.367   6.575   3.762 -2.3758 -0.8248 -1.4884
 1890TIP3   OH2 5633   0.430   6.151   0.852 -0.0371  0.1388  0.2603
 1890TIP3    H1 5634   0.411   6.164   0.945 -2.8011 -0.4718 -0.1539
 1890TIP3    H2 5635   0.396   6.064   0.833 -2.0756  1.3165 -1.9004
 1891TIP3   OH2 5636   2.996   3.770   0.167  0.0871  0.3809  0.0483
 1891TIP3    H1 5637   2.946   3.751   0.088 -1.5630 -1.2346  1.3954
 1891TIP3    H2 5638   2.969   3.858   0.192 -1.0123  0.0815 -0.0424
 1892TIP3   OH2 5639   1.638   5.090   3.115 -0.1430 -0.3762 -0.0414
 1892TIP3    H1 5640   1.668   5.002   3.140 -0.6026 -1.2561 -2.2937
 1892TIP3    H2 5641   1.549   5.095   3.148  0.5238  0.0353  1.7799
 1893TIP3   OH2 5642   0.625   5.230   4.838  0.2664 -0.4459  0.7864
 1893TIP3    H1 5643   0.601   5.323   4.839 -1.1596 -0.7999  1.3242
 1893TIP3    H2 5644   0.626   5.204   4.930 -1.2868 -1.4038  0.5765
 1894TIP3   OH2 5645   4.795   4.338   2.859  0.0086  0.3256  0.8143
 1894TIP3    H1 5646   4.749   4.261   2.893  1.6228 -0.5705  1.0336
 1894TIP3    H2 5647   4.887   4.321   2.876  0.5682  1.4617 -0.8640
 1895TIP3   OH2 5648   3.574   6.497   0.688  0.2619 -0.2491 -0.0630
 1895TIP3    H1 5649   3.610   6.584   0.705  0.0519  0.1126 -1.4364
 1895TIP3    H2 5650   3.639   6.437   0.726  1.3905  0.4559 -0.8412
 1896TIP3   OH2 5651   6.625   2.684   4.279  0.2414  0.6823  0.3512
 1896TIP3    H1 5652   6.548   2.643   4.239 -1.0893  0.5090  2.8753
 1896TIP3    H2 5653   6.658   2.619   4.340  1.8465  1.1395  0.0094
 1897TIP3   OH2 5654   3.424   3.531   1.191 -0.2671  0.5828 -0.0282
 1897TIP3    H1 5655   3.500   3.527   1.250 -0.4670  0.9044  0.2563
 1897TIP3    H2 5656   3.462   3.544   1.104 -0.0262  1.7522  0.2363
 1898TIP3   OH2 5657   0.721   1.739   0.699  0.0185 -0.1750  0.2000
 1898TIP3    H1 5658   0.741   1.825   0.660  1.4403 -0.8918 -0.7377
 1898TIP3    H2 5659   0.805   1.707   0.730 -0.7144 -0.6974  1.7170
 1899TIP3   OH2 5660   6.941   1.390   4.237  0.1672  0.3747 -0.5827
 1899TIP3    H1 5661   6.942   1.342   4.320  0.2541  0.3671 -0.5878
 1899TIP3    H2 5662   7.023   1.365   4.194 -0.2809 -0.3125 -1.0631
 1900TIP3   OH2 5663   3.236   2.772   1.530 -0.2184  0.1139 -0.0646
 1900TIP3    H1 5664   3.325   2.773   1.566  0.2416 -0.2143 -1.1550
 1900TIP3    H2 5665   3.182   2.806   1.601  0.8827  1.1353  0.3304
 1901TIP3   OH2 5666   1.713   6.024   2.796 -0.4716  0.4679  0.0689
 1901TIP3    H1 5667   1.639   5.963   2.793 -1.3225  1.4499  0.3712
 1901TIP3    H2 5668   1.732   6.043   2.705 -0.2373 -0.1984 -0.0266
 1902TIP3   OH2 5669   4.982   2.572   2.903 -0.2943 -0.7494  0.3311
 1902TIP3    H1 5670   5.034   2.504   2.859  0.8204  0.0623  0.3415
 1902TIP3    H2 5671   5.007   2.654   2.859 -3.1239 -0.5154 -1.0718
 1903TIP3   OH2 5672   1.889   4.517   3.025  0.0519  0.3170  0.0138
 1903TIP3    H1 5673   1.799   4.515   3.056 -0.2512  1.2515 -0.7397
 1903TIP3    H2 5674   1.943   4.501   3.102 -0.6422  2.9114  1.1502
 1904TIP3   OH2 5675   0.312   2.355   5.511  0.3126  0.1554  0.1864
 1904TIP3    H1 5676   0.275   2.372   5.424 -0.2030 -0.5568  0.2550
 1904TIP3    H2 5677   0.393   2.306   5.492 -0.1595 -0.6181  0.1202
 1905TIP3   OH2 5678   6.990   1.135   4.681 -0.0878 -0.4303 -0.2884
 1905TIP3    H1 5679   7.011   1.069   4.615  1.6275  0.4578 -0.7098
 1905TIP3    H2 5680   7.033   1.215   4.649 -1.4926  0.7143  0.5602
 1906TIP3   OH2 5681   1.676   4.917   0.818  0.1309 -0.4086 -0.3230
 1906TIP3    H1 5682   1.662   4.900   0.725  0.3229 -2.2179 -0.0714
 1906TIP3    H2 5683   1.766   4.948   0.824  0.1211 -0.2987 -0.7317
 1907TIP3   OH2 5684   0.781   3.499   4.772  0.4714 -0.2439 -0.8147
 1907TIP3    H1 5685   0.752   3.436   4.707 -1.3094 -0.8058  0.4650
 1907TIP3    H2 5686   0.768   3.456   4.857  5.2413 -0.6393  0.0245
 1908TIP3   OH2 5687   4.344   3.531   2.287  0.0858  0.5207  0.3100
 1908TIP3    H1 5688   4.260   3.577   2.294 -0.3849 -0.2854  0.1998
 1908TIP3    H2 5689   4.384   3.566   2.207 -0.6808  0.0970 -0.2756
 1909TIP3   OH2 5690   0.130   2.610   0.288  0.2099 -0.0298  0.3315
 1909TIP3    H1 5691   0.167   2.618   0.200  1.4718  1.2157  0.9352
 1909TIP3    H2 5692   0.134   2.516   0.307  1.0820 -0.1716 -0.4625
 1910TIP3   OH2 5693   3.483   1.156   5.697  0.5437  0.4587 -0.0668
 1910TIP3    H1 5694   3.448   1.095   5.632  1.7970  0.1132 -0.4483
 1910TIP3    H2 5695   3.426   1.233   5.690 -1.4866 -0.8450  0.8913
 1911TIP3   OH2 5696   1.168   0.845   2.910  0.1500 -0.3989  0.2114
 1911TIP3    H1 5697   1.161   0.937   2.938 -2.8288 -1.0261  1.9888
 1911TIP3    H2 5698   1.248   0.842   2.858  0.7836  3.0294  0.7318
 1912TIP3   OH2 5699   4.926   0.526   0.636  0.7034  0.5722  0.2723
 1912TIP3    H1 5700   5.011   0.534   0.678  1.1712 -2.8680  0.2302
 1912TIP3    H2 5701   4.946   0.510   0.544 -0.1354  2.4129 -0.2716
 1913TIP3   OH2 5702   0.634   5.005   1.965  0.2117  0.1260 -0.1374
 1913TIP3    H1 5703   0.680   5.041   1.889  0.3870  0.7232  0.2451
 1913TIP3    H2 5704   0.683   5.038   2.040 -1.2474  1.4014  0.3074
 1914TIP3   OH2 5705   3.707   2.193   4.496  0.0991  0.4283 -0.0157
 1914TIP3    H1 5706   3.704   2.115   4.441  0.6310 -0.9231  1.7878
 1914TIP3    H2 5707   3.624   2.193   4.543 -0.3293  1.5468 -0.7177
 1915TIP3   OH2 5708   2.889   4.219   5.429  0.1719  0.0666 -0.0910
 1915TIP3    H1 5709   2.834   4.199   5.505  0.1769 -3.2355 -0.7899
 1915TIP3    H2 5710   2.974   4.241   5.465  0.6659 -3.1491  0.9618
 1916TIP3   OH2 5711   0.535   0.991   0.719 -0.4961  0.1557 -0.1376
 1916TIP3    H1 5712   0.496   0.903   0.719 -0.7469  0.2644 -0.2831
 1916TIP3    H2 5713   0.561   1.006   0.809 -2.4891  0.8188  0.3819
 1917TIP3   OH2 5714   6.126   4.362   4.595 -0.1987 -0.1312 -0.4064
 1917TIP3    H1 5715   6.209   4.344   4.639 -1.0107 -0.3622  1.1054
 1917TIP3    H2 5716   6.109   4.283   4.543 -0.5546 -1.0505  1.0572
 1918TIP3   OH2 5717   2.451   1.274   2.555 -0.1606  0.0274 -0.1530
 1918TIP3    H1 5718   2.419   1.356   2.592 -0.2261 -0.3438  0.6330
 1918TIP3    H2 5719   2.416   1.272   2.466  0.3710  1.1533 -0.4062
 1919TIP3   OH2 5720   6.844   3.367   5.716 -0.0202  0.1065 -0.0817
 1919TIP3    H1 5721   6.856   3.370   5.621 -2.8064 -0.4756 -0.5144
 1919TIP3    H2 5722   6.868   3.455   5.745 -0.3699  0.7042 -1.4996
 1920TIP3   OH2 5723   5.381   5.433   1.977 -0.1895 -0.2274  0.2409
 1920TIP3    H1 5724   5.460   5.423   1.925 -0.7185  0.1392 -0.6643
 1920TIP3    H2 5725   5.314   5.459   1.913 -1.1974 -1.2000  0.8799
 1921TIP3   OH2 5726   1.568   2.535   0.844 -0.1964 -0.0068  0.2629
 1921TIP3    H1 5727   1.623   2.521   0.921 -0.2291 -1.2492  0.0795
 1921TIP3    H2 5728   1.570   2.452   0.797 -0.1543  0.7353 -1.1125
 1922TIP3   OH2 5729   2.651   5.987   3.363 -0.1260  0.6415  0.3486
 1922TIP3    H1 5730   2.635   6.041   3.285  1.2020  1.6679  0.7571
 1922TIP3    H2 5731   2.731   6.024   3.402 -0.7200  0.0975  2.1607
 1923TIP3   OH2 5732   2.521   1.674   2.428 -0.2627 -0.1400  0.1846
 1923TIP3    H1 5733   2.615   1.691   2.432 -0.7996  3.3689  0.9093
 1923TIP3    H2 5734   2.491   1.720   2.350 -1.2948 -2.0719 -0.6175
 1924TIP3   OH2 5735   1.390   0.578   2.967  0.4229 -0.4232 -0.4482
 1924TIP3    H1 5736   1.454   0.507   2.972  0.3828 -0.5428 -1.5291
 1924TIP3    H2 5737   1.417   0.639   3.036  1.0919 -0.9664 -0.2162
 1925TIP3   OH2 5738   6.226   1.836   0.358 -0.2043  0.0603 -0.4198
 1925TIP3    H1 5739   6.217   1.924   0.322 -2.8460  0.4339  0.8819
 1925TIP3    H2 5740   6.193   1.778   0.290 -0.1247  0.2384 -0.6105
 1926TIP3   OH2 5741   2.115   6.128   3.019  0.2360 -0.1426 -0.2924
 1926TIP3    H1 5742   2.120   6.223   3.027 -1.5130 -0.0022 -0.4786
 1926TIP3    H2 5743   2.206   6.100   3.010  0.7073  1.6319 -1.6522
 1927TIP3   OH2 5744   1.803   6.447   2.683 -0.6669  0.0711 -0.3291
 1927TIP3    H1 5745   1.897   6.456   2.697 -0.5705  0.6511 -1.2458
 1927TIP3    H2 5746   1.795   6.414   2.594 -1.2849 -2.5055  0.6188
 1928TIP3   OH2 5747   6.319   2.765   1.372 -0.4184  0.2726  0.1557
 1928TIP3    H1 5748   6.304   2.783   1.280  0.5051 -0.1644 -0.0864
 1928TIP3    H2 5749   6.338   2.671   1.376 -0.1553  0.3436  0.7438
 1929TIP3   OH2 5750   0.191   1.238   1.602  0.3655 -0.0738 -0.3432
 1929TIP3    H1 5751   0.156   1.149   1.606 -0.1593  0.0507 -1.6756
 1929TIP3    H2 5752   0.126   1.292   1.646 -0.0109 -0.1656 -0.7819
 1930TIP3   OH2 5753   2.781   2.010   0.551  0.1521  0.2427  0.5117
 1930TIP3    H1 5754   2.759   1.919   0.568 -1.1903  0.5443  0.4782
 1930TIP3    H2 5755   2.863   2.006   0.501 -1.5064 -1.1086 -2.3457
 1931TIP3   OH2 5756   1.849   1.212   4.081  0.5032 -0.4061  0.6805
 1931TIP3    H1 5757   1.765   1.255   4.062  1.2621  1.1899  0.7850
 1931TIP3    H2 5758   1.878   1.250   4.163  0.8378 -1.7600  1.2186
 1932TIP3   OH2 5759   0.987   5.822   3.065 -0.6785  0.1532  0.0776
 1932TIP3    H1 5760   0.907   5.858   3.027 -1.0797 -1.7701 -0.9741
 1932TIP3    H2 5761   0.970   5.820   3.159 -2.7514 -2.1315 -0.2551
 1933TIP3   OH2 5762   5.482   0.577   0.571  0.0841 -0.3963 -0.5447
 1933TIP3    H1 5763   5.534   0.501   0.599 -0.0286 -0.3726 -0.2630
 1933TIP3    H2 5764   5.544   0.633   0.525  0.5169  0.0317  0.5154
 1934TIP3   OH2 5765   5.056   6.254   1.427  0.1518  0.4807  0.0988
 1934TIP3    H1 5766   5.092   6.331   1.382 -2.7566  0.6800 -2.1681
 1934TIP3    H2 5767   5.059   6.184   1.362  0.4128 -0.6786  1.3053
 1935TIP3   OH2 5768   0.263   1.605   2.981 -0.1058 -0.0198 -0.3143
 1935TIP3    H1 5769   0.343   1.563   2.950  0.7932  1.6905 -0.4538
 1935TIP3    H2 5770   0.286   1.698   2.987 -2.2211  0.5883 -0.7841
 1936TIP3   OH2 5771   1.378   2.742   4.467  0.0391 -0.3407  0.2188
 1936TIP3    H1 5772   1.316   2.719   4.399 -2.4039  0.3373  2.0806
 1936TIP3    H2 5773   1.353   2.830   4.495  2.3793  0.3145  0.5398
 1937TIP3   OH2 5774   6.971   3.554   0.425 -0.2094  0.6695 -0.5862
 1937TIP3    H1 5775   7.048   3.509   0.389 -0.6133 -0.1287 -0.4593
 1937TIP3    H2 5776   6.899   3.492   0.415 -0.7271  1.1905 -0.1760
 1938TIP3   OH2 5777   3.595   2.719   0.486 -0.3047  0.1358  0.1126
 1938TIP3    H1 5778   3.609   2.788   0.551  1.5738 -0.8816  0.8597
 1938TIP3    H2 5779   3.557   2.764   0.411 -0.4093  1.7346  1.0755
 1939TIP3   OH2 5780   4.810   6.769   1.878  0.1187 -0.3854  0.8131
 1939TIP3    H1 5781   4.893   6.781   1.832  0.3580  0.8881  1.5108
 1939TIP3    H2 5782   4.768   6.855   1.872 -1.6114 -1.2590 -0.3635
 1940TIP3   OH2 5783   5.786   5.793   3.048 -0.3975 -0.5828 -0.2796
 1940TIP3    H1 5784   5.880   5.774   3.050 -0.1802  0.5092  1.2551
 1940TIP3    H2 5785   5.745   5.708   3.028  0.9351 -0.8689 -2.0713
 1941TIP3   OH2 5786   5.939   2.238   4.977  0.0798  0.1613 -0.1444
 1941TIP3    H1 5787   5.861   2.271   4.933  0.1234 -0.3483 -0.6154
 1941TIP3    H2 5788   6.012   2.287   4.937  0.1249 -0.3369 -0.6937
 1942TIP3   OH2 5789   2.335   2.360   0.893  0.0461  0.2040 -0.9381
 1942TIP3    H1 5790   2.429   2.372   0.909  0.0018  1.8275 -1.7061
 1942TIP3    H2 5791   2.330   2.331   0.802 -0.2107  0.1749 -0.9134
 1943TIP3   OH2 5792   0.086   0.876   3.915  0.0874 -1.0175 -0.4133
 1943TIP3    H1 5793   0.138   0.847   3.841  1.6590 -1.5789  0.8530
 1943TIP3    H2 5794   0.141   0.941   3.959 -1.3528  0.2731 -0.4340
 1944TIP3   OH2 5795   4.301   4.987   5.346 -0.3071  0.0541  0.4028
 1944TIP3    H1 5796   4.246   5.049   5.298  1.7393  1.7918  0.1206
 1944TIP3    H2 5797   4.390   5.021   5.335  0.7205 -1.9983  1.7348
 1945TIP3   OH2 5798   3.020   2.646   1.891 -0.6942 -0.4596  0.9399
 1945TIP3    H1 5799   2.946   2.615   1.944 -2.5731  0.4704 -1.0234
 1945TIP3    H2 5800   2.983   2.715   1.837  1.1222 -1.3300 -1.5712
 1946TIP3   OH2 5801   0.454   4.036   2.575 -0.6099  0.4080  0.5260
 1946TIP3    H1 5802   0.384   4.100   2.561 -0.9025  0.1373  0.7444
 1946TIP3    H2 5803   0.409   3.957   2.605 -0.0968  0.7205  2.2612
 1947TIP3   OH2 5804   2.905   1.254   2.349  0.5410 -0.9617 -0.1218
 1947TIP3    H1 5805   2.919   1.211   2.433  0.7137 -3.0327 -1.1488
 1947TIP3    H2 5806   2.883   1.182   2.289  0.4861  0.4487 -1.8563
 1948TIP3   OH2 5807   5.518   2.225   5.211 -0.6959  0.3016  0.2018
 1948TIP3    H1 5808   5.534   2.132   5.196  1.2711  0.5851  0.3751
 1948TIP3    H2 5809   5.425   2.230   5.234 -1.4271 -1.3250 -2.0793
 1949TIP3   OH2 5810   1.463   3.962   3.117  0.4272 -0.3637  0.0802
 1949TIP3    H1 5811   1.459   3.868   3.103 -0.3380 -0.3173 -0.1046
 1949TIP3    H2 5812   1.425   3.999   3.037  0.2241  0.0791  0.3791
 1950TIP3   OH2 5813   0.145   3.050   3.544  0.0719 -0.1623 -0.2009
 1950TIP3    H1 5814   0.206   3.041   3.471  0.8414  0.7332  0.3074
 1950TIP3    H2 5815   0.170   2.981   3.605  1.2401  0.8054  0.4464
 1951TIP3   OH2 5816   0.086   4.593   2.160 -0.4577  0.3137 -0.2664
 1951TIP3    H1 5817   0.180   4.581   2.178 -0.5835 -1.9255 -0.9259
 1951TIP3    H2 5818   0.047   4.605   2.247  0.3011  0.1852  0.0997
 1952TIP3   OH2 5819   6.739   3.388   5.024 -0.4151 -0.5364 -0.4077
 1952TIP3    H1 5820   6.674   3.324   5.052 -1.2552  0.7034  0.6174
 1952TIP3    H2 5821   6.815   3.371   5.081 -0.9102 -0.1673  0.3889
 1953TIP3   OH2 5822   2.354   4.658   1.921  0.1879 -0.0324  0.2564
 1953TIP3    H1 5823   2.274   4.648   1.973  0.1235  0.8809  0.3575
 1953TIP3    H2 5824   2.376   4.569   1.892 -0.9297 -0.2757  0.1185
 1954TIP3   OH2 5825   1.687   6.614   0.085  0.1519  0.1639 -0.4207
 1954TIP3    H1 5826   1.726   6.548   0.027  2.0893  0.7859  0.1308
 1954TIP3    H2 5827   1.687   6.573   0.171 -3.0260 -0.8890 -0.7588
 1955TIP3   OH2 5828   0.745   5.066   3.942 -0.1152 -0.1964 -0.3525
 1955TIP3    H1 5829   0.780   4.977   3.945 -0.9001 -0.6408 -2.5204
 1955TIP3    H2 5830   0.793   5.108   3.871 -2.1433 -0.0514 -1.7268
 1956TIP3   OH2 5831   4.836   0.731   3.486 -0.0719 -0.0221  0.1093
 1956TIP3    H1 5832   4.865   0.816   3.518  1.4667 -0.2626 -0.5286
 1956TIP3    H2 5833   4.828   0.677   3.564  0.1463  0.3691  0.4058
 1957TIP3   OH2 5834   2.139   6.462   0.662  0.2141 -0.0507  0.3570
 1957TIP3    H1 5835   2.156   6.476   0.755 -1.3964  1.5281  0.4546
 1957TIP3    H2 5836   2.134   6.366   0.654  1.4698 -0.2647  1.6589
 1958TIP3   OH2 5837   6.718   3.678   5.129 -0.3153  0.1751  0.7658
 1958TIP3    H1 5838   6.760   3.609   5.180  0.7482  0.2373  0.0066
 1958TIP3    H2 5839   6.771   3.684   5.049 -1.0696  1.0895  0.3193
 1959TIP3   OH2 5840   6.224   0.561   3.506 -0.0263  0.0013 -0.2853
 1959TIP3    H1 5841   6.183   0.575   3.592 -0.6501 -0.3393 -0.5279
 1959TIP3    H2 5842   6.250   0.649   3.478  1.8386 -0.0660  1.0554
 1960TIP3   OH2 5843   3.893   0.509   0.071 -0.1645  0.6832  0.1514
 1960TIP3    H1 5844   3.929   0.597   0.081  0.5365  0.4456 -0.1865
 1960TIP3    H2 5845   3.827   0.517   0.002  1.4738  0.5332 -1.5058
 1961TIP3   OH2 5846   5.469   3.775   5.528 -0.1368  0.2527  0.3417
 1961TIP3    H1 5847   5.410   3.813   5.464 -0.8683 -0.5152  0.5424
 1961TIP3    H2 5848   5.415   3.763   5.607  0.3194 -0.3210  0.5744
 1962TIP3   OH2 5849   0.176   2.362   1.427  0.4223  0.8071  0.1179
 1962TIP3    H1 5850   0.143   2.320   1.347 -1.4116  0.5812  0.9200
 1962TIP3    H2 5851   0.157   2.299   1.496 -0.6196  2.1293  1.0969
 1963TIP3   OH2 5852   5.140   5.991   0.263 -0.3531  0.2954 -0.2622
 1963TIP3    H1 5853   5.124   5.972   0.171  0.7584 -0.7697 -0.2579
 1963TIP3    H2 5854   5.111   5.912   0.309  1.5404 -0.2725  0.0380
 1964TIP3   OH2 5855   6.026   3.332   3.021  0.6396  0.4916 -0.2073
 1964TIP3    H1 5856   6.120   3.350   3.014  0.4706  1.3347 -0.4983
 1964TIP3    H2 5857   5.994   3.393   3.087  0.2664  0.3362 -0.2388
 1965TIP3   OH2 5858   1.144   3.849  -0.028 -0.0841  0.1468 -0.0336
 1965TIP3    H1 5859   1.064   3.896  -0.004  2.0106  3.6902  0.7631
 1965TIP3    H2 5860   1.197   3.847   0.052  1.3603 -0.5109 -0.9454
 1966TIP3   OH2 5861   2.781   3.448   0.974 -0.1058 -0.2549  0.6058
 1966TIP3    H1 5862   2.826   3.365   0.955  0.0056 -0.4335  1.5898
 1966TIP3    H2 5863   2.700   3.443   0.923  0.7664 -0.1107 -0.8582
 1967TIP3   OH2 5864   0.590   2.380   2.489  0.4493 -0.3387 -0.2830
 1967TIP3    H1 5865   0.571   2.465   2.450  1.1897 -0.0989 -0.1222
 1967TIP3    H2 5866   0.558   2.317   2.424 -2.2352 -0.0029  0.5761
 1968TIP3   OH2 5867   6.396   1.118   1.575 -0.2593  0.0857 -0.2183
 1968TIP3    H1 5868   6.469   1.176   1.596 -1.5871  1.5882  0.4860
 1968TIP3    H2 5869   6.436   1.033   1.561  1.5998  0.8278  0.3137
 1969TIP3   OH2 5870   4.068   1.249   1.189 -0.0134 -0.0027 -0.0116
 1969TIP3    H1 5871   4.015   1.233   1.267  0.2450 -0.7419  0.0217
 1969TIP3    H2 5872   4.050   1.174   1.133  1.5507 -0.6384  0.3061
 1970TIP3   OH2 5873   0.478   6.751   1.520  0.2179  0.2464  0.4740
 1970TIP3    H1 5874   0.513   6.832   1.555 -3.1102  1.2761  1.8465
 1970TIP3    H2 5875   0.505   6.683   1.582 -0.4444  1.0476  1.6757
 1971TIP3   OH2 5876   1.461   0.336   0.875 -0.0022 -0.5361 -0.0799
 1971TIP3    H1 5877   1.433   0.424   0.902  0.8507  0.8945 -3.4114
 1971TIP3    H2 5878   1.386   0.301   0.826  0.3527 -0.8815 -0.3818
 1972TIP3   OH2 5879   4.129   6.007   5.448  0.1415  0.4927 -0.3396
 1972TIP3    H1 5880   4.137   6.069   5.376  0.6338 -1.0057 -1.6300
 1972TIP3    H2 5881   4.200   6.031   5.508  0.6477  0.8597 -1.0658
 1973TIP3   OH2 5882   2.346   5.648   4.824  0.6486  0.4109 -0.4020
 1973TIP3    H1 5883   2.435   5.663   4.856  0.3726  1.7530 -0.2173
 1973TIP3    H2 5884   2.294   5.632   4.902  0.6382  0.0341 -0.4815
 1974TIP3   OH2 5885   5.991   5.822   4.695 -0.3885  0.7422 -0.1876
 1974TIP3    H1 5886   6.016   5.886   4.762 -1.7452  0.1928  0.9050
 1974TIP3    H2 5887   6.055   5.751   4.704  0.0450  1.1339 -0.1708
 1975TIP3   OH2 5888   2.943   4.931   5.740 -0.0895  0.1229 -0.1249
 1975TIP3    H1 5889   3.034   4.930   5.770  0.3937 -0.4483 -1.5178
 1975TIP3    H2 5890   2.916   5.022   5.750  0.7589  0.3791 -0.0535
 1976TIP3   OH2 5891   6.665   3.231   5.357  0.5145 -0.4804 -0.3505
 1976TIP3    H1 5892   6.694   3.159   5.414  0.3959  0.6258  1.1690
 1976TIP3    H2 5893   6.693   3.205   5.270  0.5390 -2.3441  0.1679
 1977TIP3   OH2 5894   6.186   2.449   1.048 -0.4590 -0.3914  0.1037
 1977TIP3    H1 5895   6.262   2.405   1.086 -0.4057 -1.3165 -1.0171
 1977TIP3    H2 5896   6.116   2.384   1.053 -0.7892 -0.0618 -0.2051
 1978TIP3   OH2 5897   6.607   1.016   2.424 -0.0948 -0.2029 -0.4918
 1978TIP3    H1 5898   6.589   1.068   2.345 -0.7507  2.8070  1.4907
 1978TIP3    H2 5899   6.660   1.074   2.480 -0.4783 -1.8468  1.7041
 1979TIP3   OH2 5900   2.558   2.137   3.046  0.4727 -0.2338  0.1598
 1979TIP3    H1 5901   2.486   2.119   2.986  0.0304 -1.0637  0.9125
 1979TIP3    H2 5902   2.524   2.201   3.108  0.2285 -0.9083  0.7462
 1980TIP3   OH2 5903   1.510   3.700   4.215 -0.2284  0.3257 -0.2599
 1980TIP3    H1 5904   1.560   3.751   4.151  0.4118  0.4215  0.2964
 1980TIP3    H2 5905   1.568   3.626   4.236 -0.6889 -0.0359 -0.2419
 1981TIP3   OH2 5906   0.802   0.383   2.909  0.1788 -0.6519 -0.5279
 1981TIP3    H1 5907   0.884   0.431   2.896 -0.8972  2.0913  1.9036
 1981TIP3    H2 5908   0.766   0.373   2.821  1.4702  1.1924 -1.3330
 1982TIP3   OH2 5909   4.649   5.200   0.062  0.0511  0.1175  0.2924
 1982TIP3    H1 5910   4.662   5.191   0.157  1.3703 -0.1504  0.1116
 1982TIP3    H2 5911   4.570   5.254   0.054  0.9718  1.7798  1.5897
 1983TIP3   OH2 5912   1.910   0.574   2.797 -0.1589  0.5107 -0.1805
 1983TIP3    H1 5913   1.829   0.624   2.800 -0.3472  0.2464  3.4763
 1983TIP3    H2 5914   1.965   0.621   2.733 -2.7390  1.2345 -2.0525
 1984TIP3   OH2 5915   0.848   6.137   5.051  0.2993  0.0329  0.0751
 1984TIP3    H1 5916   0.878   6.109   4.965 -0.8662 -0.7019 -0.1164
 1984TIP3    H2 5917   0.905   6.210   5.074 -0.0044  0.9164 -1.7702
 1985TIP3   OH2 5918   6.010   0.881   3.613 -0.2273  0.1864 -0.0922
 1985TIP3    H1 5919   6.095   0.925   3.622 -0.5190  0.9837 -1.1513
 1985TIP3    H2 5920   6.014   0.811   3.678  1.0791  0.4659  0.1724
 1986TIP3   OH2 5921   6.559   2.085   4.495 -0.1713  0.3350 -0.1403
 1986TIP3    H1 5922   6.624   2.028   4.536 -1.6325 -0.7505  0.7504
 1986TIP3    H2 5923   6.539   2.150   4.562 -0.0853  0.6088 -0.3791
 1987TIP3   OH2 5924   2.746   4.361   4.559  0.4312  0.4195  0.2970
 1987TIP3    H1 5925   2.815   4.323   4.614  0.8490  0.0836 -0.4535
 1987TIP3    H2 5926   2.741   4.304   4.483 -1.1288  0.0669  0.6299
 1988TIP3   OH2 5927   0.660   0.587   2.407  0.1589  0.1510 -0.3000
 1988TIP3    H1 5928   0.593   0.594   2.475 -2.5671 -0.0085 -2.7806
 1988TIP3    H2 5929   0.728   0.648   2.434 -1.2952  0.9030  1.9812
 1989TIP3   OH2 5930   3.287   1.999   2.642  0.1129 -0.4262  0.0607
 1989TIP3    H1 5931   3.199   2.027   2.618  0.1631 -1.8881 -2.0456
 1989TIP3    H2 5932   3.342   2.028   2.569  1.1667 -0.7269  0.7068
 1990TIP3   OH2 5933   2.890   5.860   4.543  0.2541 -0.0139  0.3307
 1990TIP3    H1 5934   2.919   5.951   4.554  1.7663 -0.3288 -0.6929
 1990TIP3    H2 5935   2.894   5.824   4.631  1.0727  0.5311  0.5355
 1991TIP3   OH2 5936   1.071   1.460   1.013  0.2723  0.3367 -0.6724
 1991TIP3    H1 5937   1.069   1.500   0.927  0.2867 -0.8568 -1.2521
 1991TIP3    H2 5938   1.119   1.522   1.068  1.5009  0.4916 -1.8661
 1992TIP3   OH2 5939   7.086   5.188   5.749  0.0689  0.0233 -0.1974
 1992TIP3    H1 5940   7.039   5.257   5.796  1.4876  1.4846 -0.8672
 1992TIP3    H2 5941   7.043   5.184   5.664  0.5663  0.7194 -0.4831
 1993TIP3   OH2 5942   4.162   4.158   1.765 -0.1189  0.4303  0.2232
 1993TIP3    H1 5943   4.205   4.238   1.794  0.4721 -0.1155  0.8829
 1993TIP3    H2 5944   4.198   4.141   1.678 -0.8839  1.3314 -0.2915
 1994TIP3   OH2 5945   5.879   0.701   1.597  0.1989  0.0246 -0.1221
 1994TIP3    H1 5946   5.786   0.714   1.615  0.2761  0.5355 -0.0791
 1994TIP3    H2 5947   5.919   0.788   1.610  0.8927 -0.4690  1.1717
 1995TIP3   OH2 5948   2.548   4.899   4.368 -0.2173 -0.0179  0.1031
 1995TIP3    H1 5949   2.616   4.965   4.356  0.3665 -0.8636 -1.6070
 1995TIP3    H2 5950   2.540   4.856   4.282 -1.2051 -1.5581  0.9058
 1996TIP3   OH2 5951   1.586   2.712   2.045 -0.2015 -0.5876  0.3864
 1996TIP3    H1 5952   1.624   2.654   1.979  0.9833 -0.9402  1.3378
 1996TIP3    H2 5953   1.510   2.664   2.079 -0.6021 -0.5560 -0.4464
 1997TIP3   OH2 5954   6.802   1.615   0.079 -0.3206  0.0350 -0.2126
 1997TIP3    H1 5955   6.881   1.641   0.126 -1.0083  1.9750 -0.0533
 1997TIP3    H2 5956   6.733   1.668   0.117 -1.6810 -1.4478 -0.5232
 1998TIP3   OH2 5957   5.131   1.859   0.516  0.0973 -0.6311 -0.1360
 1998TIP3    H1 5958   5.221   1.883   0.495 -0.7097  2.4172 -0.5820
 1998TIP3    H2 5959   5.087   1.855   0.431 -0.4761 -0.7996  0.1626
 1999TIP3   OH2 5960   5.380   6.004   0.414 -0.1076  0.1003 -0.1096
 1999TIP3    H1 5961   5.296   5.989   0.371 -0.2878  0.7948 -0.0246
 1999TIP3    H2 5962   5.432   6.050   0.349  0.6327 -1.3544 -0.5742
 2000TIP3   OH2 5963   5.438   4.225   0.347  0.4755  0.4246 -0.2772
 2000TIP3    H1 5964   5.367   4.275   0.307 -0.0413  0.3258  0.4958
 2000TIP3    H2 5965   5.494   4.292   0.387  1.1279  0.5405 -1.3509
 2001TIP3   OH2 5966   6.194   4.096   4.784 -0.5849 -0.3174  0.1734
 2001TIP3    H1 5967   6.188   4.001   4.773 -2.2190 -0.3555  1.0714
 2001TIP3    H2 5968   6.103   4.126   4.785 -0.0966  1.2990 -0.3326
 2002TIP3   OH2 5969   2.908   1.930   0.874  0.1075  0.5029 -0.4451
 2002TIP3    H1 5970   2.958   2.004   0.906  0.7340  0.2318 -0.7925
 2002TIP3    H2 5971   2.952   1.903   0.794  0.4667 -0.8413  0.1651
 2003TIP3   OH2 5972   1.505   2.934   0.975 -0.0710  0.0002  0.2531
 2003TIP3    H1 5973   1.582   2.911   0.924  0.8872  1.1191  1.1560
 2003TIP3    H2 5974   1.463   2.850   0.995  0.6267 -0.5767 -0.6632
 2004TIP3   OH2 5975   4.309   5.644   5.871 -0.4748  0.3154  0.1258
 2004TIP3    H1 5976   4.291   5.718   5.813 -2.3895  0.0933  0.3922
 2004TIP3    H2 5977   4.233   5.587   5.862  0.0537 -0.6372  1.4420
 2005TIP3   OH2 5978   5.518   5.517   0.806  0.2199  0.2309  0.0045
 2005TIP3    H1 5979   5.578   5.491   0.876 -0.2168  2.2583  1.2050
 2005TIP3    H2 5980   5.432   5.516   0.847 -0.0894  1.1003 -0.5963
 2006TIP3   OH2 5981   5.123   0.605   1.693  0.0570  0.1980  0.4739
 2006TIP3    H1 5982   5.111   0.700   1.697 -1.2352  0.1560 -1.2978
 2006TIP3    H2 5983   5.041   0.570   1.728  1.3890 -0.3556  3.2883
 2007TIP3   OH2 5984   0.363   4.800   3.390 -0.7761  0.0920 -0.4760
 2007TIP3    H1 5985   0.291   4.745   3.359 -1.0408  1.5239 -2.6318
 2007TIP3    H2 5986   0.323   4.885   3.406  0.1585  0.4839 -0.1463
 2008TIP3   OH2 5987   1.059   0.321   4.086 -0.2661 -0.0551  0.1141
 2008TIP3    H1 5988   0.970   0.346   4.112 -0.1912  1.6735 -1.0851
 2008TIP3    H2 5989   1.064   0.342   3.993  1.2971 -0.4493  0.0761
 2009TIP3   OH2 5990   1.240   6.379   5.888 -0.4306 -0.1421  0.1767
 2009TIP3    H1 5991   1.291   6.460   5.882 -0.8217 -0.0335 -3.0173
 2009TIP3    H2 5992   1.294   6.314   5.843 -1.5658 -0.8888 -0.1275
 2010TIP3   OH2 5993   1.391   1.456   3.472  0.7855 -0.0208 -0.4055
 2010TIP3    H1 5994   1.356   1.466   3.384  1.2813  1.4290 -0.4624
 2010TIP3    H2 5995   1.322   1.490   3.530  1.5364  1.6281 -0.4360
 2011TIP3   OH2 5996   4.670   5.397   1.953 -0.3450 -0.0283  0.1617
 2011TIP3    H1 5997   4.727   5.321   1.942  1.4571  1.2487  0.2229
 2011TIP3    H2 5998   4.727   5.464   1.992 -2.3540  0.7546  1.9455
 2012TIP3   OH2 5999   1.013   6.020   4.856  0.3756 -0.0784 -0.1844
 2012TIP3    H1 6000   0.996   5.944   4.801  0.6517 -1.2631  1.2827
 2012TIP3    H2 6001   1.095   6.056   4.823  0.3530 -0.5413 -0.7620
 2013TIP3   OH2 6002   5.548   4.011   4.711 -0.3428 -0.1420 -0.0967
 2013TIP3    H1 6003   5.595   4.081   4.665 -0.5984  0.8357  1.0614
 2013TIP3    H2 6004   5.469   4.054   4.744 -1.0215 -1.2505 -0.2208
 2014TIP3   OH2 6005   6.066   3.538   3.223 -0.3796  0.6784 -0.2222
 2014TIP3    H1 6006   6.005   3.482   3.271 -0.2128  1.4812  0.9363
 2014TIP3    H2 6007   6.152   3.518   3.260 -0.1417  0.7686 -0.7090
 2015TIP3   OH2 6008   7.135   2.458   2.181  0.0855 -0.4257  0.4006
 2015TIP3    H1 6009   7.106   2.368   2.195 -1.4819 -0.0727 -0.3459
 2015TIP3    H2 6010   7.121   2.501   2.265  2.2592 -1.1989  1.2134
 2016TIP3   OH2 6011   3.440   3.357   4.815  0.5638 -0.2513  0.0110
 2016TIP3    H1 6012   3.354   3.356   4.774 -0.1646  2.7529  1.1659
 2016TIP3    H2 6013   3.422   3.349   4.909  1.4913  0.5070  0.2815
 2017TIP3   OH2 6014   2.341   4.099   5.019 -0.1846  0.8236  0.0070
 2017TIP3    H1 6015   2.253   4.125   5.046 -0.6646 -0.4788 -0.2151
 2017TIP3    H2 6016   2.392   4.180   5.022 -1.6277  1.8260 -0.8593
 2018TIP3   OH2 6017   0.231   1.465   4.142 -0.0815 -0.0393  0.4084
 2018TIP3    H1 6018   0.258   1.542   4.093  1.0195 -0.3181  0.5573
 2018TIP3    H2 6019   0.183   1.411   4.079 -1.5600  1.0979  0.4982
 2019TIP3   OH2 6020   6.480   6.370   2.524  0.6149  0.4853 -0.2726
 2019TIP3    H1 6021   6.395   6.359   2.480  0.0094  0.7037  0.7961
 2019TIP3    H2 6022   6.462   6.433   2.594  1.3543 -0.4299  0.7728
 2020TIP3   OH2 6023   3.121   2.166   1.918  0.0697 -0.0523 -0.2386
 2020TIP3    H1 6024   3.047   2.225   1.904 -0.4058 -0.8616 -1.2608
 2020TIP3    H2 6025   3.190   2.199   1.860  0.1301  0.0463 -0.1117
 2021TIP3   OH2 6026   6.733   3.381   1.035  0.4395  0.8284  0.1250
 2021TIP3    H1 6027   6.720   3.367   0.942 -0.0717  1.5140  0.0808
 2021TIP3    H2 6028   6.762   3.472   1.042  2.3267  0.2375  0.4935
 2022TIP3   OH2 6029   4.789   2.797   3.357 -0.0378  0.3936  0.2602
 2022TIP3    H1 6030   4.820   2.779   3.268  0.2680  0.2795  0.3897
 2022TIP3    H2 6031   4.722   2.731   3.373  0.7589 -0.3433  0.5640
 2023TIP3   OH2 6032   0.156   2.950  -0.009  0.3177  0.4033  0.2021
 2023TIP3    H1 6033   0.180   3.018   0.053  1.5121  0.6838 -0.5268
 2023TIP3    H2 6034   0.190   2.869   0.029  2.3903  0.7670 -0.7165
 2024TIP3   OH2 6035   6.559   4.056   3.440  0.2344 -0.1230 -0.3875
 2024TIP3    H1 6036   6.564   3.964   3.467  0.5452 -0.7498 -2.3844
 2024TIP3    H2 6037   6.531   4.103   3.519 -0.3540 -1.9814  0.5769
 2025TIP3   OH2 6038   3.353   0.683   1.301  0.2621  0.1619 -0.2277
 2025TIP3    H1 6039   3.327   0.605   1.351 -0.1036 -0.0534 -0.7464
 2025TIP3    H2 6040   3.421   0.653   1.242 -1.2830 -0.2603 -1.8788
 2026TIP3   OH2 6041   1.542   3.169   1.122 -0.2201 -0.0943  0.2576
 2026TIP3    H1 6042   1.615   3.116   1.155 -0.1683 -0.0921  0.1470
 2026TIP3    H2 6043   1.492   3.110   1.066  1.4422  0.6758 -2.2406
 2027TIP3   OH2 6044   0.842   1.888   1.344 -0.3183  0.4920 -0.1824
 2027TIP3    H1 6045   0.770   1.940   1.379 -0.5854  0.3737 -0.5569
 2027TIP3    H2 6046   0.823   1.798   1.373  0.5256  0.6890  1.0974
 2028TIP3   OH2 6047   0.152   6.087   5.383 -0.0644 -0.0608 -0.2616
 2028TIP3    H1 6048   0.102   6.017   5.342 -0.8195  0.7788 -0.8141
 2028TIP3    H2 6049   0.093   6.162   5.383 -0.2522 -0.0917  2.7414
 2029TIP3   OH2 6050   5.798   2.258   2.032 -0.1868 -0.1522 -0.2082
 2029TIP3    H1 6051   5.816   2.169   2.003 -0.8953 -0.6953  0.9465
 2029TIP3    H2 6052   5.844   2.313   1.969 -1.1541 -1.2626 -1.9926
 2030TIP3   OH2 6053   3.939   0.544   5.476  0.4094  0.2780 -0.1854
 2030TIP3    H1 6054   3.996   0.539   5.552  0.4757  0.7726 -0.1994
 2030TIP3    H2 6055   3.981   0.488   5.411  0.1054 -0.5267  0.2948
 2031TIP3   OH2 6056   1.582   6.751   5.811  0.2496  0.2587 -0.1096
 2031TIP3    H1 6057   1.597   6.706   5.894  0.5569 -0.0283 -0.3183
 2031TIP3    H2 6058   1.601   6.686   5.744 -1.2603  0.0768 -0.4128
 2032TIP3   OH2 6059   3.730   2.553   4.733 -0.3969 -0.0013 -0.0787
 2032TIP3    H1 6060   3.679   2.576   4.811  0.6119 -1.3404  1.0483
 2032TIP3    H2 6061   3.809   2.607   4.740 -0.2471 -0.2168 -0.0893
 2033TIP3   OH2 6062   2.453   1.775   3.810  0.0179 -0.3791  0.5277
 2033TIP3    H1 6063   2.365   1.772   3.849  0.1363  2.0496  1.1571
 2033TIP3    H2 6064   2.478   1.683   3.800 -1.4554 -1.1418  2.9534
 2034TIP3   OH2 6065   5.843   6.434   3.951 -0.4618  0.3239 -0.1583
 2034TIP3    H1 6066   5.791   6.381   4.012 -0.7855  0.1436 -0.5848
 2034TIP3    H2 6067   5.778   6.487   3.904 -0.3570 -0.6087 -1.3838
 2035TIP3   OH2 6068   4.103   5.514   3.029 -0.0264  0.0342 -0.3892
 2035TIP3    H1 6069   4.119   5.495   3.121 -0.1471  1.1809 -0.1244
 2035TIP3    H2 6070   4.017   5.556   3.027 -0.3518 -0.6429 -1.1164
 2036TIP3   OH2 6071   3.401   0.280   5.482  0.2319 -0.3694 -0.1166
 2036TIP3    H1 6072   3.393   0.238   5.567  0.0164  1.5733  0.8646
 2036TIP3    H2 6073   3.492   0.309   5.478  0.3651 -0.8420 -0.7634
 2037TIP3   OH2 6074   3.686   2.483   3.070  0.4438 -0.0580  0.2585
 2037TIP3    H1 6075   3.638   2.491   2.987 -1.3895 -0.3302  1.2343
 2037TIP3    H2 6076   3.754   2.550   3.064 -0.7244  1.1068 -0.7910
 2038TIP3   OH2 6077   4.141   3.095   0.912 -0.3699  0.6471 -0.0618
 2038TIP3    H1 6078   4.190   3.088   0.994 -0.4408 -0.4947 -0.1020
 2038TIP3    H2 6079   4.139   3.189   0.894 -0.7358  0.9636  1.4684
 2039TIP3   OH2 6080   1.132   4.810   5.185 -0.6340  0.0317  0.0944
 2039TIP3    H1 6081   1.086   4.888   5.218  0.3094  0.6905 -0.1209
 2039TIP3    H2 6082   1.091   4.738   5.233 -1.2952  0.6846  0.5560
 2040TIP3   OH2 6083   4.561   1.440   3.987 -0.5025 -0.2630 -0.3143
 2040TIP3    H1 6084   4.482   1.386   3.988  0.1788 -1.2750 -0.2381
 2040TIP3    H2 6085   4.630   1.382   3.955  0.0459  0.8520 -1.2330
 2041TIP3   OH2 6086   5.404   2.124   0.424 -0.0395 -0.2521  0.0592
 2041TIP3    H1 6087   5.458   2.182   0.369  0.1640 -1.7936 -1.4436
 2041TIP3    H2 6088   5.408   2.164   0.511  2.8384  0.1799 -0.1650
 2042TIP3   OH2 6089   6.189   3.041   2.873  0.1218  0.4852  0.3649
 2042TIP3    H1 6090   6.123   3.007   2.813  0.1297 -0.4928  0.8844
 2042TIP3    H2 6091   6.198   3.133   2.849 -0.4566  0.3098 -0.5918
 2043TIP3   OH2 6092   6.546   6.056   1.650 -0.8072 -0.3901 -0.1662
 2043TIP3    H1 6093   6.532   5.989   1.717 -0.2737  0.9157  1.3065
 2043TIP3    H2 6094   6.459   6.093   1.633 -0.8964 -0.5125  0.0275
 2044TIP3   OH2 6095   6.321   5.818   4.048 -0.0586  0.0046 -0.3311
 2044TIP3    H1 6096   6.408   5.786   4.073 -0.0812  0.7144  0.7257
 2044TIP3    H2 6097   6.260   5.752   4.079 -0.0813  0.8501  1.5236
 2045TIP3   OH2 6098   4.945   3.318   1.841 -0.3658 -0.6870 -0.0640
 2045TIP3    H1 6099   4.937   3.231   1.880 -0.4259 -0.8719 -0.4831
 2045TIP3    H2 6100   4.855   3.350   1.833 -0.3600 -0.6904 -0.1444
 2046TIP3   OH2 6101   3.131   2.140   3.364 -0.3823  0.1646 -0.2476
 2046TIP3    H1 6102   3.225   2.124   3.352 -0.4880 -0.3500 -0.3948
 2046TIP3    H2 6103   3.114   2.217   3.310 -0.0155  0.3537 -0.1020
 2047TIP3   OH2 6104   2.451   0.047   1.670  0.0240  0.2735  0.5197
 2047TIP3    H1 6105   2.495  -0.038   1.668 -2.1614 -0.9885  1.6205
 2047TIP3    H2 6106   2.358   0.026   1.658 -0.3516  2.7820 -1.8043
 2048TIP3   OH2 6107   5.800   1.493   4.372 -0.1777  0.3407 -0.4488
 2048TIP3    H1 6108   5.706   1.500   4.358 -0.2423  1.6037  0.4769
 2048TIP3    H2 6109   5.838   1.485   4.284 -1.1590 -0.6751 -0.8026
 2049TIP3   OH2 6110   3.626   5.135   2.774 -0.3590 -0.1792  0.5314
 2049TIP3    H1 6111   3.648   5.045   2.797 -0.1962 -0.8672 -2.0348
 2049TIP3    H2 6112   3.550   5.128   2.716  1.6512  0.9420 -2.4958
 2050TIP3   OH2 6113   5.676   3.251   5.205  0.4199  0.2444  0.6121
 2050TIP3    H1 6114   5.745   3.185   5.198 -0.0733 -0.1683 -0.7229
 2050TIP3    H2 6115   5.670   3.289   5.117 -0.9959  0.3128  0.7141
 2051TIP3   OH2 6116   4.421   5.843   5.232 -0.4535  0.2163 -0.4495
 2051TIP3    H1 6117   4.354   5.787   5.271 -0.1835  1.2389  1.5687
 2051TIP3    H2 6118   4.372   5.910   5.184 -0.9118  0.8509  0.8593
 2052TIP3   OH2 6119   3.613   1.558   1.931 -0.6938 -0.2607  0.1502
 2052TIP3    H1 6120   3.533   1.575   1.981  0.0102  0.7930  0.9476
 2052TIP3    H2 6121   3.658   1.489   1.980 -0.4225  0.1598  0.4936
 2053TIP3   OH2 6122   2.696   6.631   4.879  0.3227 -0.0431 -0.2155
 2053TIP3    H1 6123   2.719   6.573   4.952 -1.1131 -0.1730  0.1605
 2053TIP3    H2 6124   2.601   6.626   4.873  0.2355  1.5781 -0.7571
 2054TIP3   OH2 6125   0.414   3.698   1.720 -0.2120  0.0480  0.2476
 2054TIP3    H1 6126   0.350   3.714   1.650  0.5763 -1.0098 -0.7594
 2054TIP3    H2 6127   0.447   3.609   1.703 -0.9720 -0.7988  2.7822
 2055TIP3   OH2 6128   5.365   5.643   4.793  0.4298 -0.0636 -0.2043
 2055TIP3    H1 6129   5.333   5.554   4.787 -1.7661  0.7631 -2.7185
 2055TIP3    H2 6130   5.400   5.662   4.706  0.4475  1.6408  0.1370
 2056TIP3   OH2 6131   0.187   1.595   2.209  0.2091 -0.5784 -0.1357
 2056TIP3    H1 6132   0.100   1.573   2.241  0.0405  0.0473 -0.1587
 2056TIP3    H2 6133   0.185   1.689   2.196  1.8499 -0.0013  2.8743
 2057TIP3   OH2 6134   1.249   5.833   4.320 -0.3139  0.3277 -0.2933
 2057TIP3    H1 6135   1.163   5.793   4.309 -0.5740  0.9358 -0.5525
 2057TIP3    H2 6136   1.261   5.886   4.241 -0.1457  1.0482  0.2045
 2058TIP3   OH2 6137   3.734   4.014   1.894 -0.4208 -0.3943 -0.3424
 2058TIP3    H1 6138   3.828   4.010   1.877 -0.4695  1.8874 -1.4998
 2058TIP3    H2 6139   3.726   4.064   1.975 -0.6090 -2.3740  0.9196
 2059TIP3   OH2 6140   6.172   1.675   4.289  0.2363 -0.9086 -0.2171
 2059TIP3    H1 6141   6.247   1.637   4.244  1.9352 -0.1779  1.7993
 2059TIP3    H2 6142   6.135   1.603   4.340  2.3735 -0.4715  2.2152
 2060TIP3   OH2 6143   6.406   1.778   5.402  0.6329  0.3987 -0.5233
 2060TIP3    H1 6144   6.477   1.714   5.394 -1.8441 -2.9883  1.5212
 2060TIP3    H2 6145   6.326   1.726   5.391 -1.7778  2.1031  5.0874
 2061TIP3   OH2 6146   6.913   0.056   0.678 -0.9190  0.0692 -0.1434
 2061TIP3    H1 6147   6.838   0.062   0.619  1.6752  3.2459 -3.5466
 2061TIP3    H2 6148   6.972  -0.006   0.635  0.3137  1.1187  0.0092
 2062TIP3   OH2 6149   3.667   1.582   1.644  0.9983  0.2858  0.4084
 2062TIP3    H1 6150   3.668   1.561   1.738  2.2107 -1.3221  0.0813
 2062TIP3    H2 6151   3.577   1.565   1.616  0.6306  0.7618  1.2590
 2063TIP3   OH2 6152   1.824   3.887   3.814 -0.5147 -0.5157 -0.3415
 2063TIP3    H1 6153   1.916   3.865   3.802 -0.7861 -1.0184 -1.6296
 2063TIP3    H2 6154   1.815   3.973   3.773 -0.6730 -0.5766 -0.4331
 2064TIP3   OH2 6155   0.351   6.538   3.174 -0.2902  0.1300  0.1004
 2064TIP3    H1 6156   0.432   6.579   3.204  1.2774 -3.6481  1.6445
 2064TIP3    H2 6157   0.355   6.542   3.079  1.0570  1.1408  0.1747
 2065TIP3   OH2 6158   5.994   0.659   3.376 -0.8406  0.0685  0.9500
 2065TIP3    H1 6159   5.959   0.693   3.458  0.1982  0.5586  1.2119
 2065TIP3    H2 6160   6.089   0.662   3.388 -0.6874 -0.6204  0.0342
 2066TIP3   OH2 6161   1.928   2.446   3.164  0.3632  0.2476  0.2608
 2066TIP3    H1 6162   1.941   2.540   3.154  0.5233  0.1141 -0.8675
 2066TIP3    H2 6163   2.001   2.416   3.217 -0.3977  0.9564  1.7681
 2067TIP3   OH2 6164   5.043   4.812   3.804 -0.5955 -0.4475  1.0177
 2067TIP3    H1 6165   4.962   4.854   3.834  0.9552  1.4362  2.9170
 2067TIP3    H2 6166   5.030   4.718   3.822 -3.7313 -0.8510 -2.3116
 2068TIP3   OH2 6167   6.303   1.035   0.579  0.3627  0.2687 -0.2878
 2068TIP3    H1 6168   6.376   0.982   0.611  1.0445  0.9037 -0.7488
 2068TIP3    H2 6169   6.257   1.062   0.658  1.9593  1.7330  0.2164
 2069TIP3   OH2 6170  -0.011   4.094   5.226  0.1237  0.2565 -0.1007
 2069TIP3    H1 6171   0.072   4.096   5.272  0.0338  0.0734  0.0724
 2069TIP3    H2 6172  -0.055   4.175   5.253  1.2779  1.6583 -2.1572
 2070TIP3   OH2 6173   2.163   6.044   2.731  0.2645 -0.1721 -0.5312
 2070TIP3    H1 6174   2.101   6.059   2.803  1.3365  0.1574  0.3384
 2070TIP3    H2 6175   2.107   6.020   2.657 -0.7653 -2.6435  0.9218
 2071TIP3   OH2 6176   0.787   5.948   3.619  0.5793 -0.3548 -0.1753
 2071TIP3    H1 6177   0.807   5.956   3.712  1.0266  1.4483 -0.3901
 2071TIP3    H2 6178   0.701   5.987   3.609  0.6719 -0.2458 -0.5624
 2072TIP3   OH2 6179   2.831   2.369   4.761  0.2533 -0.2074  0.0987
 2072TIP3    H1 6180   2.909   2.415   4.728  0.8490 -1.3994 -0.2421
 2072TIP3    H2 6181   2.864   2.314   4.832  0.6637 -3.8736 -2.6418
 2073TIP3   OH2 6182   6.549   5.968   4.012  0.2850 -0.7295 -0.3408
 2073TIP3    H1 6183   6.468   5.949   4.060  0.4410 -1.0997 -0.2209
 2073TIP3    H2 6184   6.520   5.986   3.923 -0.1047  0.9335  0.0916
 2074TIP3   OH2 6185   4.975   1.854   3.102 -0.3944 -0.2640 -0.3046
 2074TIP3    H1 6186   4.936   1.767   3.113  0.7452 -0.9635 -1.5893
 2074TIP3    H2 6187   5.032   1.864   3.179 -0.1066 -0.8976 -0.4254
 2075TIP3   OH2 6188   2.879   0.088   5.145  0.5186  0.0507  0.1078
 2075TIP3    H1 6189   2.852   0.076   5.236 -0.1366  0.5455 -0.0161
 2075TIP3    H2 6190   2.967   0.127   5.151 -0.0716  1.3708  0.5540
 2076TIP3   OH2 6191   5.745   4.825   3.767 -0.1402  0.0499  0.8377
 2076TIP3    H1 6192   5.742   4.808   3.861 -1.4518 -2.3396  0.4390
 2076TIP3    H2 6193   5.834   4.798   3.741 -0.3718 -1.0508  1.1348
 2077TIP3   OH2 6194   6.345   0.274   0.875  0.0982 -0.5604  0.1258
 2077TIP3    H1 6195   6.391   0.319   0.946  1.0221 -0.6068 -0.4237
 2077TIP3    H2 6196   6.253   0.273   0.902  0.1909  0.8570  0.5742
 2078TIP3   OH2 6197   1.128   4.825   1.285 -0.1489 -0.1698 -0.2041
 2078TIP3    H1 6198   1.219   4.795   1.278  0.8751  2.6584 -0.5538
 2078TIP3    H2 6199   1.079   4.769   1.225  1.0002 -2.8204  1.1761
 2079TIP3   OH2 6200   7.046   3.863   5.280  0.0762 -0.4057 -1.0188
 2079TIP3    H1 6201   7.082   3.951   5.289 -0.1376 -0.5054  1.3654
 2079TIP3    H2 6202   7.075   3.817   5.359 -0.9592 -2.0681 -1.5573
 2080TIP3   OH2 6203   3.505   3.909   5.031  0.4472 -0.6173 -0.0686
 2080TIP3    H1 6204   3.595   3.943   5.028  0.1579  0.9996  3.8124
 2080TIP3    H2 6205   3.514   3.815   5.015  2.2669 -0.0407 -3.3253
 2081TIP3   OH2 6206   7.085   3.304   2.785 -0.3828 -0.0052 -0.6819
 2081TIP3    H1 6207   7.040   3.230   2.824 -0.3080 -0.7690 -2.0214
 2081TIP3    H2 6208   7.151   3.265   2.728 -1.1651  1.0640 -2.3740
 2082TIP3   OH2 6209   2.279   2.028   1.515 -0.2572  0.4487 -0.5631
 2082TIP3    H1 6210   2.269   2.002   1.423 -0.7510 -2.4281  0.1789
 2082TIP3    H2 6211   2.211   2.094   1.529 -0.6715  0.3918 -2.0805
 2083TIP3   OH2 6212   7.026   3.710   5.505 -0.0289  0.0044  0.3289
 2083TIP3    H1 6213   7.089   3.700   5.576  0.4208  2.9853  0.4697
 2083TIP3    H2 6214   6.941   3.718   5.550 -0.0007 -0.0787  0.3979
 2084TIP3   OH2 6215   4.724   5.899   0.494 -0.6762 -0.2368 -0.8157
 2084TIP3    H1 6216   4.741   5.988   0.464  0.9132  0.2134  1.2035
 2084TIP3    H2 6217   4.650   5.907   0.554 -0.0526 -0.1020 -0.0395
 2085TIP3   OH2 6218   1.099   2.220   4.763  0.0957 -0.4406 -0.6352
 2085TIP3    H1 6219   1.014   2.241   4.802 -0.9068 -1.0238 -2.3713
 2085TIP3    H2 6220   1.113   2.128   4.785 -0.6384 -0.8718 -1.8382
 2086TIP3   OH2 6221   2.574   1.491   1.680  0.0503  0.5010  0.9553
 2086TIP3    H1 6222   2.556   1.515   1.589 -1.0961 -1.3847  0.6403
 2086TIP3    H2 6223   2.666   1.466   1.680 -0.2406 -0.7013 -0.0128
 2087TIP3   OH2 6224   4.166   0.210   0.108 -0.2628  0.2031 -0.1082
 2087TIP3    H1 6225   4.121   0.145   0.161 -0.0827 -1.3865 -1.8077
 2087TIP3    H2 6226   4.096   0.254   0.060 -0.2302 -0.3855 -0.7110
 2088TIP3   OH2 6227   2.497   4.256   2.326  0.0455  0.7651 -0.1680
 2088TIP3    H1 6228   2.526   4.344   2.351 -1.7353  0.7229  2.4954
 2088TIP3    H2 6229   2.534   4.199   2.394  0.1955 -0.3969 -1.1922
 2089TIP3   OH2 6230   2.827   6.661   5.193 -0.3296 -0.1745  0.0625
 2089TIP3    H1 6231   2.863   6.582   5.152 -2.2611 -1.4068  0.5949
 2089TIP3    H2 6232   2.904   6.713   5.216  0.9201 -0.6870 -2.5854
 2090TIP3   OH2 6233   4.594   0.401   1.371  0.4086 -0.4447 -0.0942
 2090TIP3    H1 6234   4.658   0.375   1.304  0.2582  0.4141 -0.5844
 2090TIP3    H2 6235   4.509   0.377   1.333  0.4339 -2.0504  0.7683
 2091TIP3   OH2 6236   5.296   0.601   5.586  0.3430 -0.2750 -0.2841
 2091TIP3    H1 6237   5.204   0.587   5.561  0.6200 -0.5156 -1.2313
 2091TIP3    H2 6238   5.328   0.665   5.522  0.2429  1.6023  1.4323
 2092TIP3   OH2 6239   0.131   3.569   0.684 -0.5333 -0.1271  0.2877
 2092TIP3    H1 6240   0.221   3.536   0.675 -0.7677 -0.6912 -0.0418
 2092TIP3    H2 6241   0.132   3.619   0.766  0.0176 -0.3498  0.4237
 2093TIP3   OH2 6242   0.399   6.791   5.411 -0.0386  0.1081 -0.0883
 2093TIP3    H1 6243   0.461   6.720   5.396  0.6410  0.3898  1.2658
 2093TIP3    H2 6244   0.336   6.755   5.473 -0.4280  0.2711 -0.3887
 2094TIP3   OH2 6245   2.060   0.264   2.552  0.3060  0.4799 -0.3360
 2094TIP3    H1 6246   2.131   0.322   2.523  0.1534 -0.6861 -3.4061
 2094TIP3    H2 6247   1.984   0.321   2.560  0.6437  1.0627 -1.1281
 2095TIP3   OH2 6248   7.105   5.104   2.771  0.0779  0.2215  0.5893
 2095TIP3    H1 6249   7.071   5.018   2.794 -0.4143  0.5181  0.9712
 2095TIP3    H2 6250   7.060   5.126   2.689 -0.4608  0.4925  0.9496
 2096TIP3   OH2 6251   4.662   3.639   3.589  0.4002  0.9201 -0.1494
 2096TIP3    H1 6252   4.689   3.643   3.497 -0.5689 -0.9935 -0.5656
 2096TIP3    H2 6253   4.726   3.582   3.630  0.8620  1.8146  0.4062
 2097TIP3   OH2 6254   3.272   4.535   0.339 -0.1530 -0.2072 -0.2831
 2097TIP3    H1 6255   3.344   4.508   0.397 -0.6897 -0.8020  0.1260
 2097TIP3    H2 6256   3.275   4.631   0.340 -0.1205 -0.2036  0.7032
 2098TIP3   OH2 6257   6.039   2.607   5.561 -0.0893  0.5392 -0.5721
 2098TIP3    H1 6258   6.057   2.701   5.565  2.0870  0.1363  0.9827
 2098TIP3    H2 6259   6.010   2.584   5.649  0.0258 -0.3627 -0.7638
 2099TIP3   OH2 6260   5.371   5.241   5.366  0.4265 -0.6108  0.4123
 2099TIP3    H1 6261   5.396   5.198   5.447 -0.7725 -1.3100  0.4193
 2099TIP3    H2 6262   5.285   5.206   5.344  0.9381 -0.8411 -1.4444
 2100TIP3   OH2 6263   1.742   6.612   1.737  0.1987 -0.2447  0.0106
 2100TIP3    H1 6264   1.782   6.653   1.660  1.4963 -0.2320  0.6652
 2100TIP3    H2 6265   1.700   6.685   1.783  0.4234 -0.0539 -0.0813
 2101TIP3   OH2 6266   6.132   0.780   0.148  0.2650  0.2083 -0.4399
 2101TIP3    H1 6267   6.178   0.854   0.188 -2.9924  1.4151  1.4949
 2101TIP3    H2 6268   6.102   0.814   0.063  1.3822 -0.0243 -0.9531
 2102TIP3   OH2 6269   0.579   1.072   2.909  0.1332  0.2495  0.4487
 2102TIP3    H1 6270   0.652   1.125   2.940  1.0252  0.2807 -1.5616
 2102TIP3    H2 6271   0.502   1.113   2.949  1.0948  0.8517  1.7797
 2103TIP3   OH2 6272   1.749   0.219   0.257 -0.4749 -0.4566 -0.3704
 2103TIP3    H1 6273   1.793   0.203   0.174 -2.1144  0.9695 -1.5793
 2103TIP3    H2 6274   1.681   0.151   0.262 -0.9341 -0.0248 -0.6365
 2104TIP3   OH2 6275   6.036   2.278   1.224 -0.5688 -0.1882  0.0800
 2104TIP3    H1 6276   6.077   2.239   1.301 -0.6905  0.4079  0.4508
 2104TIP3    H2 6277   5.975   2.211   1.193  1.2170 -1.4444 -0.9588
 2105TIP3   OH2 6278   2.481   0.375   2.042 -0.1392  0.2707  0.0211
 2105TIP3    H1 6279   2.431   0.335   2.114 -1.2101  0.1458 -0.7696
 2105TIP3    H2 6280   2.503   0.301   1.986  0.1717  0.4517 -0.0944
 2106TIP3   OH2 6281   6.604   3.638   1.005  0.3271 -0.0675  0.0564
 2106TIP3    H1 6282   6.528   3.595   1.044 -0.5815  2.2457  1.0146
 2106TIP3    H2 6283   6.567   3.690   0.933  0.9398  1.2043  0.6323
 2107TIP3   OH2 6284   1.805   1.385   3.575  0.2375 -0.5031 -0.2284
 2107TIP3    H1 6285   1.862   1.376   3.498 -2.4040 -0.8101 -2.2693
 2107TIP3    H2 6286   1.807   1.299   3.616  0.7651 -0.6772 -0.6054
 2108TIP3   OH2 6287   5.617   6.345   3.033  0.5507 -0.7624 -0.5254
 2108TIP3    H1 6288   5.537   6.297   3.010 -0.0359  0.0845 -0.3161
 2108TIP3    H2 6289   5.585   6.428   3.069  1.5209 -0.6021 -0.0016
 2109TIP3   OH2 6290   2.298   0.617   5.041 -0.8700 -0.5627  0.4705
 2109TIP3    H1 6291   2.321   0.619   4.948  0.8845 -1.3187  0.8580
 2109TIP3    H2 6292   2.212   0.574   5.043 -0.3552 -1.7038 -0.7019
 2110TIP3   OH2 6293   0.827   3.843   4.138 -0.2937  0.0012  0.0229
 2110TIP3    H1 6294   0.737   3.868   4.116  0.3165  1.4543 -1.0003
 2110TIP3    H2 6295   0.818   3.762   4.187 -2.1261 -0.2489 -0.6389
 2111TIP3   OH2 6296   0.996   2.393   3.315  0.0719 -0.4349 -0.4908
 2111TIP3    H1 6297   1.044   2.323   3.361  0.9819 -0.1519 -0.9841
 2111TIP3    H2 6298   1.036   2.396   3.229 -0.1305  0.5388 -0.5594
 2112TIP3   OH2 6299   0.266   1.364   3.493  0.0227 -0.4294 -0.2138
 2112TIP3    H1 6300   0.279   1.358   3.588 -0.0746  1.2411 -0.0690
 2112TIP3    H2 6301   0.339   1.419   3.463 -1.5313  1.4811 -0.6770
 2113TIP3   OH2 6302   3.171   1.802   3.055  0.0714  0.2318  0.7352
 2113TIP3    H1 6303   3.180   1.710   3.079 -1.7775 -0.1495  0.1561
 2113TIP3    H2 6304   3.225   1.813   2.977  0.0100 -0.4503  0.5949
 2114TIP3   OH2 6305   5.936   2.274   3.196 -0.3306 -0.4833  0.8059
 2114TIP3    H1 6306   5.989   2.224   3.133 -1.9682 -2.4508  0.8712
 2114TIP3    H2 6307   5.938   2.364   3.163  0.8033 -1.0184 -0.7028
 2115TIP3   OH2 6308   0.685   4.548   4.210 -0.7105 -0.1722  0.4013
 2115TIP3    H1 6309   0.688   4.641   4.187 -1.7441  0.0415  1.0674
 2115TIP3    H2 6310   0.704   4.546   4.304  0.0068 -0.7115  0.2536
 2116TIP3   OH2 6311   3.138   3.550   0.194 -0.0983 -0.2198  0.2810
 2116TIP3    H1 6312   3.147   3.521   0.285 -0.0673 -0.7981  0.0971
 2116TIP3    H2 6313   3.091   3.633   0.201  2.1452  1.0738  0.9944
 2117TIP3   OH2 6314   4.138   2.531   1.882  0.1296  0.1320  0.4692
 2117TIP3    H1 6315   4.153   2.513   1.790 -1.3555 -1.5887  0.5035
 2117TIP3    H2 6316   4.206   2.481   1.928  0.4749  0.4785  0.3419
 2118TIP3   OH2 6317   5.261   5.756   3.725  1.1489 -0.1674 -0.1515
 2118TIP3    H1 6318   5.271   5.807   3.805 -2.4124  2.2500 -1.0078
 2118TIP3    H2 6319   5.231   5.669   3.754 -1.0973  0.9789  1.2484
 2119TIP3   OH2 6320   2.182   0.972   3.864  0.0472  0.8496  0.0466
 2119TIP3    H1 6321   2.270   0.947   3.890 -0.2090 -1.2705 -0.8669
 2119TIP3    H2 6322   2.128   0.956   3.941  0.1614  0.1507 -0.0137
 2120TIP3   OH2 6323   3.985   6.528   0.188  0.8119  0.4685 -0.2251
 2120TIP3    H1 6324   3.961   6.619   0.168 -2.9026 -0.4390 -0.6948
 2120TIP3    H2 6325   3.942   6.510   0.272 -1.1680 -1.6417 -1.5741
 2121TIP3   OH2 6326   2.414   3.941   0.829 -0.2641 -0.2417  0.2889
 2121TIP3    H1 6327   2.476   3.884   0.875 -0.0307  1.1312  1.7491
 2121TIP3    H2 6328   2.343   3.955   0.892 -0.9053  0.1242 -0.4985
 2122TIP3   OH2 6329   5.644   4.290   4.563 -0.1412 -0.2425 -0.0991
 2122TIP3    H1 6330   5.655   4.229   4.490 -0.4543 -0.3908 -0.0221
 2122TIP3    H2 6331   5.729   4.335   4.570  0.3311 -1.1650  0.2922
 2123TIP3   OH2 6332   1.118   3.335   4.595 -0.4556 -0.0445  0.8009
 2123TIP3    H1 6333   1.111   3.242   4.613  0.6578 -0.1538  0.6918
 2123TIP3    H2 6334   1.205   3.347   4.557 -0.6340  1.0156  0.6767
 2124TIP3   OH2 6335   6.151   2.201   3.038 -0.4805 -0.5112  0.0009
 2124TIP3    H1 6336   6.185   2.287   3.014 -0.1422 -0.3148  1.1191
 2124TIP3    H2 6337   6.194   2.140   2.979 -0.2161  0.0213 -0.3604
 2125TIP3   OH2 6338   3.544   1.146   1.534  0.3473 -0.4055 -0.0563
 2125TIP3    H1 6339   3.586   1.077   1.484 -1.0011 -0.6862 -0.8519
 2125TIP3    H2 6340   3.450   1.133   1.519  0.0387  1.2452  0.2360
 2126TIP3   OH2 6341   6.314   3.950   0.079 -0.0742 -0.0969 -0.3574
 2126TIP3    H1 6342   6.365   3.990   0.149  0.1295  1.1477 -1.1723
 2126TIP3    H2 6343   6.373   3.885   0.040  0.6805  0.8694 -0.8717
 2127TIP3   OH2 6344   4.818   4.923   3.929  0.2641  0.2140  0.0773
 2127TIP3    H1 6345   4.752   4.981   3.890  0.8769  0.0020 -1.3677
 2127TIP3    H2 6346   4.825   4.951   4.020  0.3552  2.2447 -0.5137
 2128TIP3   OH2 6347   1.684   6.111   1.377  0.0900  0.4898  0.1195
 2128TIP3    H1 6348   1.700   6.086   1.287  0.9732  0.9074  0.1542
 2128TIP3    H2 6349   1.738   6.051   1.429 -0.5116  0.1660  0.3828
 2129TIP3   OH2 6350   2.915   6.637   2.603 -0.0861  0.0615 -0.5866
 2129TIP3    H1 6351   2.916   6.621   2.697 -0.6574  1.2527 -0.3571
 2129TIP3    H2 6352   3.007   6.643   2.578  0.0698 -0.4446 -0.1382
 2130TIP3   OH2 6353   3.815   3.910   3.401 -0.2600  0.8531  0.3810
 2130TIP3    H1 6354   3.820   3.815   3.399 -0.7986  0.8037  1.0300
 2130TIP3    H2 6355   3.843   3.938   3.314 -1.3566  0.0423 -0.2538
 2131TIP3   OH2 6356   4.073   4.222   4.821 -0.2185  0.2771 -0.4227
 2131TIP3    H1 6357   4.063   4.187   4.733 -1.7432 -1.6197  0.4286
 2131TIP3    H2 6358   4.042   4.313   4.814  0.1191  0.3043 -1.9101
 2132TIP3   OH2 6359   0.391   5.216   0.442 -0.1985 -0.0347  0.3719
 2132TIP3    H1 6360   0.380   5.299   0.396  0.7397  0.6001  1.2344
 2132TIP3    H2 6361   0.439   5.239   0.522 -0.9712 -1.2294  1.2210
 2133TIP3   OH2 6362   1.298   1.183   4.852  0.6344  0.1464 -0.4719
 2133TIP3    H1 6363   1.345   1.115   4.804 -1.0033 -0.6926 -0.9636
 2133TIP3    H2 6364   1.212   1.186   4.811 -0.4448  0.2208  1.6396
 2134TIP3   OH2 6365   3.370   2.571   0.926  0.3099  0.1245 -0.6898
 2134TIP3    H1 6366   3.439   2.606   0.982 -0.0348 -0.9283  0.4331
 2134TIP3    H2 6367   3.394   2.479   0.913 -0.3840 -0.0115 -1.0593
 2135TIP3   OH2 6368   0.755   2.742   3.690  0.0302  0.2118 -0.3629
 2135TIP3    H1 6369   0.755   2.678   3.619 -2.5353 -0.5489  0.2251
 2135TIP3    H2 6370   0.821   2.807   3.664 -0.2857 -0.4312 -3.0343
 2136TIP3   OH2 6371   5.306   2.517   2.917 -0.8159  0.5697  0.6080
 2136TIP3    H1 6372   5.399   2.498   2.912 -0.8368  0.7377 -2.1092
 2136TIP3    H2 6373   5.300   2.594   2.973  0.6341  0.3320  1.1274
 2137TIP3   OH2 6374   0.001   6.269   0.404 -0.1631 -0.5079  0.0580
 2137TIP3    H1 6375   0.035   6.202   0.345 -0.2900  0.1051 -0.7258
 2137TIP3    H2 6376   0.062   6.270   0.477  0.1391 -1.1025 -0.1796
 2138TIP3   OH2 6377   2.625   4.817   0.917  1.2524 -0.1716  0.6702
 2138TIP3    H1 6378   2.578   4.751   0.866  1.1768  0.2328  0.2081
 2138TIP3    H2 6379   2.571   4.830   0.995  0.2675  0.7208 -0.1288
 2139TIP3   OH2 6380   3.877   5.562   0.140 -0.4115 -0.1535 -0.0483
 2139TIP3    H1 6381   3.811   5.493   0.141 -0.2821 -0.2782 -0.0394
 2139TIP3    H2 6382   3.931   5.543   0.063 -1.0609  0.5964 -0.6958
 2140TIP3   OH2 6383   0.029   6.513   5.778 -0.7597 -0.3274  0.2664
 2140TIP3    H1 6384   0.046   6.605   5.799 -2.1485 -0.2587  1.2322
 2140TIP3    H2 6385   0.034   6.468   5.862 -0.6618 -1.0339 -0.1128
 2141TIP3   OH2 6386   1.898   2.590   5.033  0.2045 -0.0900  0.1345
 2141TIP3    H1 6387   1.814   2.606   4.991  0.6650 -1.4636 -1.3964
 2141TIP3    H2 6388   1.931   2.510   4.992  1.4061 -0.6339  2.0387
 2142TIP3   OH2 6389   7.181   0.631   3.690  0.3685  0.3826 -0.5045
 2142TIP3    H1 6390   7.218   0.619   3.602  3.4269  2.0888  0.3724
 2142TIP3    H2 6391   7.135   0.714   3.685  2.3884  1.6064 -0.0907
 2143TIP3   OH2 6392   5.497   4.563   2.202  0.1563 -0.0598  0.3391
 2143TIP3    H1 6393   5.523   4.568   2.295  0.3737 -1.9958  0.4177
 2143TIP3    H2 6394   5.417   4.615   2.197  1.3545  1.9828  1.1110
 2144TIP3   OH2 6395   6.944   0.343   3.680 -0.7966  0.4907 -0.2980
 2144TIP3    H1 6396   6.984   0.335   3.593 -0.5238 -0.6882 -0.0779
 2144TIP3    H2 6397   6.892   0.263   3.690 -1.3833  0.9411  0.3529
 2145TIP3   OH2 6398   2.497   5.611   1.086  0.2467 -0.2092  0.6387
 2145TIP3    H1 6399   2.563   5.666   1.128 -0.9718  1.5513  0.3621
 2145TIP3    H2 6400   2.432   5.595   1.154 -0.4687  0.5226  0.1502
 2146TIP3   OH2 6401   0.747   0.269   0.871 -0.5863 -0.1196 -0.0491
 2146TIP3    H1 6402   0.814   0.313   0.819  1.6684 -2.2014  0.9062
 2146TIP3    H2 6403   0.788   0.254   0.956 -2.9811  0.1940  1.2561
 2147TIP3   OH2 6404   2.061   4.826   5.121 -0.2759  0.3792  0.0685
 2147TIP3    H1 6405   1.997   4.861   5.183  0.5017 -1.6668  2.1642
 2147TIP3    H2 6406   2.146   4.856   5.154  0.1885 -1.1757  0.3445
 2148TIP3   OH2 6407   5.295   4.634   5.109  0.1760  0.3383 -0.3794
 2148TIP3    H1 6408   5.335   4.589   5.183 -1.3186 -0.3113  0.0589
 2148TIP3    H2 6409   5.273   4.564   5.048 -1.7168  0.4845  0.0898
 2149TIP3   OH2 6410   1.713   5.772   2.417 -0.3326  0.5012  0.6925
 2149TIP3    H1 6411   1.719   5.677   2.428 -1.9441  0.1027 -1.2680
 2149TIP3    H2 6412   1.801   5.799   2.389 -1.1299 -1.5308 -5.0832
 2150TIP3   OH2 6413   6.376   4.255   5.006 -0.6073  0.4571 -0.3337
 2150TIP3    H1 6414   6.346   4.216   4.924  0.5041  0.6033 -0.8366
 2150TIP3    H2 6415   6.470   4.270   4.992 -0.5259  1.0561  0.7385
 2151TIP3   OH2 6416   7.100   6.331   3.311  0.3061  0.2025  0.1858
 2151TIP3    H1 6417   7.025   6.372   3.353  0.2014  0.4667 -0.2491
 2151TIP3    H2 6418   7.159   6.309   3.383 -0.0597  0.2543  0.5046
 2152TIP3   OH2 6419   0.475   6.713   2.918 -0.1352  0.5013 -0.0279
 2152TIP3    H1 6420   0.447   6.623   2.902 -0.2982  0.8315 -1.7557
 2152TIP3    H2 6421   0.562   6.719   2.879  2.1909 -0.2195  4.3735
 2153TIP3   OH2 6422   0.543   4.599   4.545 -0.5454 -0.5225  0.1733
 2153TIP3    H1 6423   0.570   4.647   4.623  0.1130  0.3569 -0.5785
 2153TIP3    H2 6424   0.622   4.595   4.491 -0.8596 -1.5812 -0.2217
 2154TIP3   OH2 6425   1.944   3.859   0.140 -0.5610 -0.2757  0.3828
 2154TIP3    H1 6426   1.923   3.767   0.127  1.5384 -0.8683  0.7863
 2154TIP3    H2 6427   2.036   3.867   0.115 -1.3478  2.3014 -2.1955
 2155TIP3   OH2 6428   3.334   2.991   1.186 -0.1706 -0.2172  0.1749
 2155TIP3    H1 6429   3.418   3.011   1.146 -0.2860  1.1279  0.5553
 2155TIP3    H2 6430   3.333   2.896   1.193  0.7001 -0.3517 -1.1478
 2156TIP3   OH2 6431   6.992   4.397   4.139  0.0929 -0.3986 -0.2537
 2156TIP3    H1 6432   7.076   4.442   4.134  0.9587 -0.8002  5.1072
 2156TIP3    H2 6433   7.013   4.305   4.128  0.7512 -0.6479  2.5211
 2157TIP3   OH2 6434   6.042   0.545   1.230 -0.0571 -0.1815 -0.4909
 2157TIP3    H1 6435   6.062   0.488   1.304 -1.0339  2.0030  1.5892
 2157TIP3    H2 6436   6.122   0.595   1.215 -0.2194  0.1880 -0.1309
 2158TIP3   OH2 6437   2.273   5.054   1.954  0.3122  0.1917  0.4048
 2158TIP3    H1 6438   2.232   4.988   2.010  2.7462 -0.6729  1.3224
 2158TIP3    H2 6439   2.348   5.084   2.004  1.2580  1.1086 -1.4554
 2159TIP3   OH2 6440   6.406  -0.014   0.160 -0.1427  0.5041  0.2395
 2159TIP3    H1 6441   6.452   0.069   0.170 -0.6479  0.7488  0.5872
 2159TIP3    H2 6442   6.345  -0.016   0.234 -1.8267  0.9212 -1.0820
 2160TIP3   OH2 6443   5.407   4.483   3.234 -0.3173  0.3852 -0.5179
 2160TIP3    H1 6444   5.415   4.440   3.320 -0.5368  1.4901  0.0760
 2160TIP3    H2 6445   5.347   4.428   3.185 -2.1002  0.9744  0.8826
 2161TIP3   OH2 6446   2.327   6.150   2.298  0.6940  0.0219 -0.0117
 2161TIP3    H1 6447   2.310   6.100   2.218  0.2566  0.9633 -0.5294
 2161TIP3    H2 6448   2.304   6.240   2.275  1.0085  0.3858  1.0396
 2162TIP3   OH2 6449   4.069   2.111   2.223  0.1885 -0.2569 -0.1779
 2162TIP3    H1 6450   4.037   2.025   2.194  1.5639 -0.5239 -1.0440
 2162TIP3    H2 6451   4.123   2.092   2.299 -0.9254  0.0813  0.7256
 2163TIP3   OH2 6452   4.099   3.668   2.252 -0.1590 -0.4249 -0.1405
 2163TIP3    H1 6453   4.011   3.681   2.216 -0.1081  2.0395  0.4576
 2163TIP3    H2 6454   4.102   3.725   2.328  2.8604  1.8150 -1.7438
 2164TIP3   OH2 6455   0.049   5.041   0.108 -0.1609  0.2991 -0.2825
 2164TIP3    H1 6456   0.130   5.056   0.060 -0.2617  3.8723  0.4094
 2164TIP3    H2 6457   0.060   5.091   0.189 -2.9988  0.8757 -0.1606
 2165TIP3   OH2 6458   6.599   5.492   4.432 -0.6037  0.2950 -0.2665
 2165TIP3    H1 6459   6.683   5.451   4.416 -1.0032 -0.4301 -0.5579
 2165TIP3    H2 6460   6.559   5.498   4.345 -1.4910 -0.7852  0.0518
 2166TIP3   OH2 6461   3.451   4.198   3.718  0.1315 -0.2700  0.0878
 2166TIP3    H1 6462   3.445   4.278   3.666 -1.1230  0.0796  0.7328
 2166TIP3    H2 6463   3.506   4.222   3.793  1.6264 -0.6697 -0.8458
 2167TIP3   OH2 6464   6.280   6.033   3.359 -0.2962 -0.1717  0.4550
 2167TIP3    H1 6465   6.260   5.997   3.273  3.7859 -0.6711 -0.5051
 2167TIP3    H2 6466   6.220   6.106   3.369 -0.7980  0.0452 -2.9519
 2168TIP3   OH2 6467   6.744   5.929   1.261  0.1123 -0.1116  0.0276
 2168TIP3    H1 6468   6.663   5.978   1.250 -1.0338 -2.1754 -1.3732
 2168TIP3    H2 6469   6.804   5.992   1.302 -2.1798  1.4390  1.2554
 2169TIP3   OH2 6470   1.537   1.125   2.793 -0.0580  0.3383  0.3662
 2169TIP3    H1 6471   1.490   1.067   2.853  0.6720 -0.7215 -0.0501
 2169TIP3    H2 6472   1.589   1.182   2.850 -1.3352  1.1082  0.8069
 2170TIP3   OH2 6473   1.472   0.479   0.297  0.1790  0.2039  0.1171
 2170TIP3    H1 6474   1.408   0.457   0.229 -0.6389  1.6523  0.3820
 2170TIP3    H2 6475   1.464   0.409   0.361 -0.5334 -0.0680 -0.2602
 2171TIP3   OH2 6476   1.126   2.524   3.758  0.4372  0.2716  0.1061
 2171TIP3    H1 6477   1.176   2.494   3.682  0.5683 -0.0405  0.3144
 2171TIP3    H2 6478   1.176   2.598   3.792  1.0529 -0.3688  0.6311
 2172TIP3   OH2 6479   0.639   2.106   5.370  0.3765  0.0768 -0.4029
 2172TIP3    H1 6480   0.622   2.044   5.441  1.3457  0.8018  0.5029
 2172TIP3    H2 6481   0.724   2.145   5.392  0.2849  0.9590 -1.5041
 2173TIP3   OH2 6482   0.421   1.597   3.238  0.2863  0.1990  0.0694
 2173TIP3    H1 6483   0.343   1.648   3.256  0.4316  0.5046 -0.1510
 2173TIP3    H2 6484   0.412   1.571   3.146 -1.3239 -2.8656  0.9714
 2174TIP3   OH2 6485   4.317   4.946   2.074  0.3256 -0.2788  0.2877
 2174TIP3    H1 6486   4.373   5.017   2.103 -0.8743  0.1859  1.5755
 2174TIP3    H2 6487   4.301   4.964   1.981  1.2356  0.2853  0.2324
 2175TIP3   OH2 6488   5.334   6.497   0.591 -0.3048 -0.0175 -0.1015
 2175TIP3    H1 6489   5.275   6.559   0.548  0.8582  0.4260 -1.1609
 2175TIP3    H2 6490   5.356   6.434   0.522  0.9808  0.2469  0.0299
 2176TIP3   OH2 6491   3.891   2.539   0.216 -0.7635  0.1919 -0.0889
 2176TIP3    H1 6492   3.875   2.581   0.301  2.6593 -1.2942  1.4533
 2176TIP3    H2 6493   3.886   2.445   0.235 -1.0971 -0.1707 -1.8386
 2177TIP3   OH2 6494   6.127   0.089   3.886  0.1118  0.0286 -0.1537
 2177TIP3    H1 6495   6.077   0.092   3.967 -0.6618  0.4173 -0.6327
 2177TIP3    H2 6496   6.088   0.017   3.836  1.0795 -0.7076  0.1239
 2178TIP3   OH2 6497   4.387   1.251   5.730  0.2898  0.5405 -0.0359
 2178TIP3    H1 6498   4.366   1.282   5.642 -0.8414 -2.2342 -0.8453
 2178TIP3    H2 6499   4.478   1.222   5.724  0.2087  0.3392 -0.2747
 2179TIP3   OH2 6500   1.285   1.032   5.833 -0.1947  0.6591 -0.4473
 2179TIP3    H1 6501   1.359   1.038   5.895 -2.1100  1.0679  1.9630
 2179TIP3    H2 6502   1.261   0.940   5.834 -0.0746  0.6253 -0.7765
 2180TIP3   OH2 6503   2.507   6.633   3.301  0.1934 -0.3213  0.0547
 2180TIP3    H1 6504   2.475   6.686   3.374  0.3969 -1.2167  0.8117
 2180TIP3    H2 6505   2.540   6.697   3.238 -1.0856  0.5291  0.2046
 2181TIP3   OH2 6506   0.412   0.466   0.184 -0.2038 -0.1750  0.1653
 2181TIP3    H1 6507   0.479   0.466   0.114  0.1269 -0.8050  0.4712
 2181TIP3    H2 6508   0.348   0.531   0.155  0.4834  0.3639 -0.1945
 2182TIP3   OH2 6509   2.011   5.538   1.367  0.6697 -0.2490 -0.1334
 2182TIP3    H1 6510   2.024   5.493   1.284 -0.8958 -1.9967  0.5030
 2182TIP3    H2 6511   2.011   5.468   1.432  0.0051  0.8883  1.1353
 2183TIP3   OH2 6512   7.005   4.691   1.539 -0.0621  0.8314 -0.1474
 2183TIP3    H1 6513   7.099   4.680   1.526 -0.1324  0.7782 -0.6308
 2183TIP3    H2 6514   6.993   4.685   1.634  0.5329  1.7362 -0.0041
 2184TIP3   OH2 6515   7.154   6.662   2.566  0.4366 -0.0678  0.2605
 2184TIP3    H1 6516   7.158   6.716   2.646 -0.6276  1.2801 -0.5385
 2184TIP3    H2 6517   7.143   6.726   2.496  2.0717 -1.1792 -1.0778
 2185TIP3   OH2 6518   3.419   1.930   3.811 -0.0375 -0.6268 -0.6065
 2185TIP3    H1 6519   3.412   1.864   3.741  1.1196 -1.7706  0.2988
 2185TIP3    H2 6520   3.344   1.912   3.868  1.4916 -2.7893  0.8934
 2186TIP3   OH2 6521   0.981   4.761   5.476  0.3424  0.6062  0.9957
 2186TIP3    H1 6522   0.963   4.848   5.509  1.0760  1.1158  0.0918
 2186TIP3    H2 6523   1.065   4.737   5.515  0.6859  0.7713  0.3742
 2187TIP3   OH2 6524   4.487   1.428   4.915 -0.9723 -0.3006 -0.0379
 2187TIP3    H1 6525   4.420   1.479   4.961 -2.1865 -2.9587  1.3525
 2187TIP3    H2 6526   4.439   1.354   4.879  1.0214 -1.5609 -0.2418
 2188TIP3   OH2 6527   1.245   1.772   3.210 -0.0247  0.1362  0.7665
 2188TIP3    H1 6528   1.231   1.686   3.249  0.8727 -0.5106 -0.2700
 2188TIP3    H2 6529   1.340   1.784   3.211  0.0758 -0.0702 -1.4533
 2189TIP3   OH2 6530   4.077   6.203   2.318  0.2962 -0.1507  0.0925
 2189TIP3    H1 6531   4.046   6.182   2.406 -1.1084  0.2116 -0.2844
 2189TIP3    H2 6532   4.141   6.136   2.298 -0.8174 -1.4213  0.6362
 2190TIP3   OH2 6533   6.298   4.854   3.491 -0.5304  0.1867 -0.0228
 2190TIP3    H1 6534   6.289   4.948   3.477  0.0609  0.1570 -0.6791
 2190TIP3    H2 6535   6.325   4.845   3.583 -3.1643  0.4784  0.8751
 2191TIP3   OH2 6536   4.256   5.246   0.904 -0.0168 -0.3079  0.4935
 2191TIP3    H1 6537   4.278   5.317   0.965  1.7361 -0.3097 -0.0879
 2191TIP3    H2 6538   4.168   5.267   0.874 -0.1539  0.7486  1.5365
 2192TIP3   OH2 6539   3.711   3.371   5.105 -0.2637  0.1582  0.2367
 2192TIP3    H1 6540   3.791   3.423   5.101 -1.1772  1.5621 -0.3238
 2192TIP3    H2 6541   3.725   3.301   5.040  1.7143 -1.4941  2.2676
 2193TIP3   OH2 6542   3.040   4.812   0.312  0.1622  0.0014 -0.2288
 2193TIP3    H1 6543   3.092   4.737   0.284  1.1224  0.2864  0.6902
 2193TIP3    H2 6544   2.950   4.780   0.313  0.3104 -0.5401 -1.7514
 2194TIP3   OH2 6545   3.355   0.208   1.525 -0.4284  0.5078 -0.6418
 2194TIP3    H1 6546   3.307   0.140   1.572 -0.8799  0.6859 -0.8411
 2194TIP3    H2 6547   3.435   0.165   1.495 -0.9246 -0.0653 -1.1783
 2195TIP3   OH2 6548   4.305   1.893   5.448  0.1019 -0.4640  0.6086
 2195TIP3    H1 6549   4.282   1.816   5.397  0.3483 -0.0913 -0.0706
 2195TIP3    H2 6550   4.226   1.912   5.499  0.4878 -1.9705  1.8376
 2196TIP3   OH2 6551   0.337   0.704   5.924 -0.3623 -0.0514  0.0633
 2196TIP3    H1 6552   0.269   0.640   5.900  0.3472 -1.0286  0.5922
 2196TIP3    H2 6553   0.347   0.757   5.845 -1.9044  0.2827  0.0506
 2197TIP3   OH2 6554   5.245   4.313   5.052  0.6033  0.2405  0.2923
 2197TIP3    H1 6555   5.213   4.368   5.123 -0.0226  2.4118 -1.5432
 2197TIP3    H2 6556   5.171   4.305   4.992  1.5714 -0.0820 -0.9205
 2198TIP3   OH2 6557   2.917   2.287   4.452  0.1688 -0.3032  0.7411
 2198TIP3    H1 6558   2.903   2.206   4.403 -1.7164  0.5533 -0.2359
 2198TIP3    H2 6559   2.833   2.332   4.448  1.4152  2.1649  0.4331
 2199TIP3   OH2 6560   6.335   3.629   5.869  0.0800 -0.2331 -0.5639
 2199TIP3    H1 6561   6.385   3.609   5.790  1.2893  0.6511 -0.0585
 2199TIP3    H2 6562   6.317   3.723   5.862  1.8264  0.2964  1.0333
 2200TIP3   OH2 6563   1.625   4.971   0.284 -0.8047 -0.2477 -0.3718
 2200TIP3    H1 6564   1.660   5.015   0.207  0.3357 -2.5248 -1.2666
 2200TIP3    H2 6565   1.611   4.881   0.255 -0.2087 -1.2240  2.1114
 2201TIP3   OH2 6566   1.291   1.515   1.253  0.1841  0.2761 -0.0853
 2201TIP3    H1 6567   1.338   1.512   1.170 -0.6689 -0.7249 -0.5553
 2201TIP3    H2 6568   1.353   1.553   1.315  1.2814 -0.1777 -0.8845
 2202TIP3   OH2 6569   0.293   1.713   3.665 -0.0755  0.1060  0.4593
 2202TIP3    H1 6570   0.244   1.717   3.583 -0.1029  2.5623  0.5232
 2202TIP3    H2 6571   0.376   1.757   3.646 -0.2915  1.1905  1.8436
 2203TIP3   OH2 6572   4.300   0.906   0.698 -0.3437 -0.0704  0.2451
 2203TIP3    H1 6573   4.375   0.852   0.724 -1.3590 -2.1910 -0.9144
 2203TIP3    H2 6574   4.326   0.945   0.615 -0.1695 -0.0428  0.3132
 2204TIP3   OH2 6575   0.379   4.270   0.836  0.8063  0.0108  0.7279
 2204TIP3    H1 6576   0.447   4.337   0.826  0.1028  0.5819 -0.5135
 2204TIP3    H2 6577   0.333   4.294   0.917  0.9576  0.6746  0.6247
 2205TIP3   OH2 6578   5.991   5.873   2.525  0.3182 -0.4644  0.1989
 2205TIP3    H1 6579   5.966   5.809   2.459  1.2265 -0.2368 -0.3830
 2205TIP3    H2 6580   6.031   5.945   2.475 -0.6058  0.5303  0.8308
 2206TIP3   OH2 6581   5.633   3.189   0.402  0.1682  1.3133  0.6604
 2206TIP3    H1 6582   5.574   3.153   0.336 -0.2732  1.4585  0.9747
 2206TIP3    H2 6583   5.647   3.280   0.375  4.1977  0.1345 -2.2636
 2207TIP3   OH2 6584   0.924   0.744   0.886 -0.0649 -0.3090  0.8467
 2207TIP3    H1 6585   0.856   0.794   0.839  1.0073  0.9485  0.5574
 2207TIP3    H2 6586   0.973   0.699   0.817  1.2689  1.2308  0.7226
 2208TIP3   OH2 6587   0.699   6.723   2.766 -0.3076  0.2293 -0.3215
 2208TIP3    H1 6588   0.750   6.664   2.821 -2.6594 -2.5470 -0.8755
 2208TIP3    H2 6589   0.725   6.701   2.677  1.2225  2.5138 -0.5078
 2209TIP3   OH2 6590   2.685   4.375   0.094  0.3773 -0.1268 -0.0780
 2209TIP3    H1 6591   2.708   4.282   0.084  0.9743 -0.0272  0.2683
 2209TIP3    H2 6592   2.607   4.387   0.041  0.0724 -0.9202  0.1827
 2210TIP3   OH2 6593   3.436   4.924   1.145  0.4770 -0.2139 -0.0893
 2210TIP3    H1 6594   3.418   5.007   1.100 -1.3925  0.4189  1.6849
 2210TIP3    H2 6595   3.499   4.880   1.089 -0.3605  1.3150 -2.3659
 2211TIP3   OH2 6596   2.935   3.342   2.669  0.7396  0.3384  0.2311
 2211TIP3    H1 6597   3.009   3.285   2.646  0.3765  0.5189 -1.5186
 2211TIP3    H2 6598   2.954   3.425   2.626 -0.4485  0.3944 -0.2289
 2212TIP3   OH2 6599   4.051   1.251   1.793 -0.2143 -0.0041  0.3291
 2212TIP3    H1 6600   4.038   1.169   1.841  0.2489 -0.0801  0.3276
 2212TIP3    H2 6601   3.965   1.272   1.758 -0.0582 -1.2381 -0.8630
 2213TIP3   OH2 6602   5.085   0.312   4.561  0.0878 -0.3773  0.6905
 2213TIP3    H1 6603   5.108   0.332   4.470  0.1516  1.6272  1.1073
 2213TIP3    H2 6604   5.118   0.223   4.575  3.6019  0.6398 -0.0991
 2214TIP3   OH2 6605   4.929   0.790   3.883 -0.2436 -0.1159 -0.2523
 2214TIP3    H1 6606   4.977   0.858   3.930 -1.2223  0.6983 -0.3854
 2214TIP3    H2 6607   4.966   0.792   3.794  3.3339 -3.3262  0.9206
 2215TIP3   OH2 6608   5.416   0.710   0.800 -0.0580  0.1762 -1.4031
 2215TIP3    H1 6609   5.415   0.647   0.727  0.9645  0.5414 -1.7589
 2215TIP3    H2 6610   5.506   0.744   0.800  0.0163  0.0322  0.1665
 2216TIP3   OH2 6611   6.955   1.382   3.910 -0.3234 -0.2460 -0.1102
 2216TIP3    H1 6612   6.984   1.472   3.897  0.2903 -0.4244  0.0149
 2216TIP3    H2 6613   6.865   1.390   3.941  0.0930  0.3532  0.9621
 2217TIP3   OH2 6614   5.895   0.773   2.914  0.7388  0.0663 -0.1494
 2217TIP3    H1 6615   5.862   0.850   2.867  0.5350 -0.6499 -1.1879
 2217TIP3    H2 6616   5.858   0.782   3.002  0.2337  0.8421 -0.4253
 2218TIP3   OH2 6617   1.016   1.180   4.079 -0.1182  0.4671 -0.0266
 2218TIP3    H1 6618   1.047   1.251   4.023 -1.5801  1.0913 -0.0830
 2218TIP3    H2 6619   0.943   1.141   4.031  0.4479 -0.8709  0.1642
 2219TIP3   OH2 6620   1.503   3.602   2.409 -0.6675  0.2369 -0.4264
 2219TIP3    H1 6621   1.543   3.524   2.371 -0.1148  0.0331  0.5446
 2219TIP3    H2 6622   1.566   3.672   2.391 -0.6008  0.2217 -0.2537
 2220TIP3   OH2 6623   5.845   3.360   2.448  0.1319  0.1400 -0.1565
 2220TIP3    H1 6624   5.896   3.322   2.519  1.7706  0.9863 -0.8051
 2220TIP3    H2 6625   5.808   3.286   2.401  0.4536 -0.4889  0.5766
 2221TIP3   OH2 6626   3.549   4.838   3.266  0.1986 -0.1104 -0.2306
 2221TIP3    H1 6627   3.477   4.816   3.207  0.8738  1.4625 -1.7648
 2221TIP3    H2 6628   3.628   4.812   3.217  0.7997  1.7107 -0.3106
 2222TIP3   OH2 6629   0.996   5.125   4.784  0.2233  0.4451  0.1066
 2222TIP3    H1 6630   0.930   5.114   4.853 -0.1589 -0.5674 -0.4014
 2222TIP3    H2 6631   1.053   5.049   4.794 -0.0405  0.0998 -0.9068
 2223TIP3   OH2 6632   3.654   1.621   4.749 -0.4864 -0.5469  0.5360
 2223TIP3    H1 6633   3.665   1.701   4.800  0.3388 -0.4860  0.2769
 2223TIP3    H2 6634   3.576   1.636   4.697  2.1075  2.0919 -3.0918
 2224TIP3   OH2 6635   6.084   6.030   3.639  0.0512  0.3536  0.4574
 2224TIP3    H1 6636   6.123   5.951   3.601 -0.8737 -0.8023  1.7776
 2224TIP3    H2 6637   6.056   6.002   3.726 -3.6303  1.0865 -0.3397
 2225TIP3   OH2 6638   5.382   6.650   4.262 -0.2258 -0.2145  0.1419
 2225TIP3    H1 6639   5.370   6.739   4.296 -2.0309 -0.9221  1.4751
 2225TIP3    H2 6640   5.316   6.642   4.193 -0.6436 -0.7799  0.5962
 2226TIP3   OH2 6641   5.640   2.646   5.556  0.6758 -0.2798  0.4658
 2226TIP3    H1 6642   5.584   2.569   5.550  0.6419 -0.4886  2.6581
 2226TIP3    H2 6643   5.683   2.651   5.471 -1.2844 -1.1571 -0.6516
 2227TIP3   OH2 6644   4.932   2.930   2.481 -0.2024 -0.5044  0.6679
 2227TIP3    H1 6645   5.014   2.893   2.447  0.3454  1.1084  0.1322
 2227TIP3    H2 6646   4.951   2.951   2.572  0.2117  0.4940  0.3571
 2228TIP3   OH2 6647   6.780   6.122   4.314  0.4164 -0.4781 -0.1546
 2228TIP3    H1 6648   6.700   6.138   4.365  1.1958  0.7648  0.7353
 2228TIP3    H2 6649   6.767   6.171   4.233  0.6600  0.5363  0.4023
 2229TIP3   OH2 6650   3.069   0.793   4.550  0.2133 -0.3064  0.5985
 2229TIP3    H1 6651   3.015   0.735   4.496 -0.2259  1.4627 -1.0020
 2229TIP3    H2 6652   3.159   0.767   4.531  0.0516  0.0814 -0.8431
 2230TIP3   OH2 6653   3.413   6.448   5.579 -0.3402 -0.0295  0.8312
 2230TIP3    H1 6654   3.337   6.424   5.633 -0.9568  0.4800  0.2067
 2230TIP3    H2 6655   3.477   6.482   5.641 -0.7146 -0.2348  1.3371
 2231TIP3   OH2 6656   0.888   6.509   4.270  0.7341 -0.3217  0.5213
 2231TIP3    H1 6657   0.846   6.575   4.214  0.9974 -0.0900  0.5964
 2231TIP3    H2 6658   0.958   6.473   4.216 -0.7039 -2.0637 -0.3218
 2232TIP3   OH2 6659   0.249   4.043   2.895  0.4280  0.7989 -0.1160
 2232TIP3    H1 6660   0.202   4.031   2.813  1.0037  0.4912 -0.4115
 2232TIP3    H2 6661   0.324   4.098   2.871  1.9765 -1.2727 -0.3500
 2233TIP3   OH2 6662   0.536   1.021   5.508 -0.3118 -0.3095  0.4085
 2233TIP3    H1 6663   0.581   1.098   5.474 -1.8590  0.0139 -1.0262
 2233TIP3    H2 6664   0.602   0.952   5.508  1.0310  0.9032  1.4661
 2234TIP3   OH2 6665   0.667   5.305   2.418  0.4733  0.5006  0.1894
 2234TIP3    H1 6666   0.696   5.395   2.436 -0.3691  0.7263  0.4492
 2234TIP3    H2 6667   0.690   5.257   2.498 -1.4787  1.0774  1.1494
 2235TIP3   OH2 6668   3.036   1.653   2.280 -0.0997 -0.7389  0.2972
 2235TIP3    H1 6669   3.128   1.666   2.303  0.1920 -2.6937  0.3823
 2235TIP3    H2 6670   2.998   1.740   2.285  2.0909  0.4431 -1.3640
 2236TIP3   OH2 6671   1.482   4.162   2.119 -0.4373  0.3013 -0.0100
 2236TIP3    H1 6672   1.505   4.072   2.096 -0.0023  0.2130  0.7516
 2236TIP3    H2 6673   1.468   4.160   2.213  0.2272  1.1650  0.1153
 2237TIP3   OH2 6674   4.594   1.978   2.488 -0.5196 -0.1888  0.0601
 2237TIP3    H1 6675   4.586   1.930   2.406  1.3719 -0.0565 -0.2523
 2237TIP3    H2 6676   4.669   1.938   2.532  0.1467  1.4276  0.4954
 2238TIP3   OH2 6677   4.742   1.767   2.354 -0.2904  0.4258  0.0825
 2238TIP3    H1 6678   4.763   1.728   2.269  0.6066  0.3253  0.3361
 2238TIP3    H2 6679   4.713   1.693   2.408  1.5140  0.0464  0.5963
 2239TIP3   OH2 6680   1.264   3.057   0.413  0.1603 -0.3083  0.2528
 2239TIP3    H1 6681   1.246   3.149   0.431 -2.9355 -1.1600  2.4863
 2239TIP3    H2 6682   1.327   3.031   0.481  0.3193 -0.0259  0.2112
 2240TIP3   OH2 6683   5.097   0.268   3.071  0.1443 -0.2750 -0.6026
 2240TIP3    H1 6684   5.048   0.294   2.993  0.5697  0.3847 -0.6580
 2240TIP3    H2 6685   5.064   0.326   3.141  0.8465  0.1875 -0.6460
 2241TIP3   OH2 6686   6.668   0.406   0.430 -0.2932  0.4493  0.0744
 2241TIP3    H1 6687   6.668   0.401   0.526  0.0894 -0.4117  0.0351
 2241TIP3    H2 6688   6.660   0.500   0.411  0.2364  0.6847  0.9570
 2242TIP3   OH2 6689   3.101   3.276   1.929  0.5203  0.1963  0.2159
 2242TIP3    H1 6690   3.124   3.351   1.984  0.6717 -0.0058  0.4315
 2242TIP3    H2 6691   3.063   3.213   1.990 -1.0530  0.7095 -0.2085
 2243TIP3   OH2 6692   6.450   6.659   5.772 -0.1068  0.1787  0.2393
 2243TIP3    H1 6693   6.438   6.690   5.862 -0.9664 -1.5666  0.7550
 2243TIP3    H2 6694   6.384   6.707   5.721  0.7388  1.5752  0.3995
 2244TIP3   OH2 6695   1.039   5.534   3.725 -0.1731 -0.3736 -0.0599
 2244TIP3    H1 6696   1.065   5.623   3.699  1.3927 -0.5462  0.7675
 2244TIP3    H2 6697   1.112   5.503   3.778 -1.2776 -1.6824  0.7539
 2245TIP3   OH2 6698   6.492   0.167   5.361 -0.3966  0.7849 -1.0990
 2245TIP3    H1 6699   6.463   0.094   5.306  3.2971 -0.6225 -1.4710
 2245TIP3    H2 6700   6.470   0.140   5.451  1.5753 -1.2831 -1.1524
 2246TIP3   OH2 6701   0.361   2.107   0.794  0.0770 -0.2299  0.8845
 2246TIP3    H1 6702   0.321   2.129   0.710  0.7762  1.8761  1.0496
 2246TIP3    H2 6703   0.315   2.027   0.822 -1.0937 -0.2203 -0.8518
 2247TIP3   OH2 6704   5.137   6.161   3.562 -0.2907  0.5013 -0.3140
 2247TIP3    H1 6705   5.231   6.153   3.544 -0.1532  1.7829 -0.2298
 2247TIP3    H2 6706   5.097   6.177   3.476 -0.3707  0.5252 -0.2724
 2248TIP3   OH2 6707   6.016   0.346   1.446  0.4396 -0.0724 -0.0600
 2248TIP3    H1 6708   6.088   0.309   1.497 -0.1339  0.4267  1.1591
 2248TIP3    H2 6709   5.937   0.311   1.488 -0.0459  0.3324 -0.6258
 2249TIP3   OH2 6710   4.920   0.928   4.215 -0.1915  0.2065  0.2592
 2249TIP3    H1 6711   4.913   0.985   4.139  0.0716  0.3787  0.3644
 2249TIP3    H2 6712   4.952   0.984   4.285  0.0291 -0.0585  0.3744
 2250TIP3   OH2 6713   6.985   4.397   1.320  0.1332 -0.3368 -0.0751
 2250TIP3    H1 6714   6.926   4.358   1.385 -0.9216  3.3922  1.5120
 2250TIP3    H2 6715   6.929   4.413   1.244  0.0554 -0.1622  0.0181
 2251TIP3   OH2 6716   5.580   5.395   3.128  0.0200 -0.2275 -0.0817
 2251TIP3    H1 6717   5.600   5.308   3.162 -0.4875 -0.3557 -0.0940
 2251TIP3    H2 6718   5.572   5.450   3.206  0.8948 -0.0614 -0.0989
 2252TIP3   OH2 6719   6.198   0.083   5.158  0.4183 -0.4779  0.4217
 2252TIP3    H1 6720   6.222  -0.002   5.194 -0.6418 -0.3196  1.5581
 2252TIP3    H2 6721   6.133   0.118   5.219  0.7641  1.1076 -0.0687
 2253TIP3   OH2 6722   6.473   6.525   2.996  0.5232  0.1807 -0.2187
 2253TIP3    H1 6723   6.502   6.598   3.051 -0.0315  0.3293 -0.1200
 2253TIP3    H2 6724   6.482   6.557   2.906 -0.3859  0.6366 -0.1612
 2254TIP3   OH2 6725   1.226   4.423   4.418  0.2238  0.6143  0.4445
 2254TIP3    H1 6726   1.269   4.355   4.366 -2.4348 -1.1803  0.4209
 2254TIP3    H2 6727   1.252   4.505   4.376  0.0850 -0.6250 -2.2643
 2255TIP3   OH2 6728   5.722   5.032   1.037  0.1378 -0.1414  0.2250
 2255TIP3    H1 6729   5.708   5.093   1.110  1.2496  0.4973 -0.0649
 2255TIP3    H2 6730   5.675   5.072   0.964 -0.7751 -0.6578  0.5166
 2256TIP3   OH2 6731   3.331   5.288   3.318 -0.7099  0.4010  0.1052
 2256TIP3    H1 6732   3.410   5.271   3.369 -3.0799 -4.2707  2.9145
 2256TIP3    H2 6733   3.288   5.360   3.364 -0.6259 -0.7136  2.0335
 2257TIP3   OH2 6734   2.752   0.513   0.986  0.3081 -0.0665  0.0120
 2257TIP3    H1 6735   2.683   0.576   1.004  0.4784  0.2274 -0.3621
 2257TIP3    H2 6736   2.706   0.430   0.971  0.0734  0.0070  0.3226
 2258TIP3   OH2 6737   0.539   5.488   1.802 -0.4968  0.1602 -0.2663
 2258TIP3    H1 6738   0.624   5.447   1.819 -1.0465 -0.9731 -0.0988
 2258TIP3    H2 6739   0.503   5.505   1.890 -1.6440 -2.0310 -0.2433
 2259TIP3   OH2 6740   1.093   3.311   1.043 -0.3619  0.1936  0.2795
 2259TIP3    H1 6741   1.105   3.216   1.054  0.4529  0.2573  0.0493
 2259TIP3    H2 6742   1.182   3.346   1.044 -0.5254  0.7569 -1.3614
 2260TIP3   OH2 6743   0.431   3.741   1.077  0.6469  0.9330  1.1027
 2260TIP3    H1 6744   0.526   3.730   1.084  0.8868 -0.0338 -2.1502
 2260TIP3    H2 6745   0.420   3.833   1.053  1.1873  0.2397 -2.2706
 2261TIP3   OH2 6746   0.050   0.501   4.426 -0.7982  0.2296 -0.1476
 2261TIP3    H1 6747   0.109   0.566   4.387 -1.5567  1.8076  1.1985
 2261TIP3    H2 6748   0.109   0.432   4.459  0.3858  1.8529  1.3445
 2262TIP3   OH2 6749   5.640   4.288   1.716  0.1992 -0.3025  0.5108
 2262TIP3    H1 6750   5.665   4.214   1.660  0.8521 -0.2068  0.6732
 2262TIP3    H2 6751   5.670   4.264   1.803  0.1755  0.0411  0.6152
 2263TIP3   OH2 6752   3.263   5.902   5.263 -0.3723  0.4671  0.0894
 2263TIP3    H1 6753   3.303   5.881   5.347  1.7038  2.1635 -0.3917
 2263TIP3    H2 6754   3.195   5.966   5.284  1.2673  2.2192  0.4190
 2264TIP3   OH2 6755   5.182   2.701   1.886  0.5281 -0.3035 -0.1786
 2264TIP3    H1 6756   5.259   2.650   1.911 -0.7059 -2.0342  0.3303
 2264TIP3    H2 6757   5.186   2.707   1.791  0.9978 -0.8936 -0.2011
 2265TIP3   OH2 6758   2.073   5.684   2.912  0.2014 -0.0239  0.0684
 2265TIP3    H1 6759   2.017   5.615   2.877  0.5781 -0.6840  0.7336
 2265TIP3    H2 6760   2.013   5.756   2.931 -0.8125 -1.3948  2.5796
 2266TIP3   OH2 6761   3.631   3.998   5.764  0.0670  0.5239 -0.0696
 2266TIP3    H1 6762   3.543   3.966   5.746  0.4075 -1.5314  1.5283
 2266TIP3    H2 6763   3.689   3.925   5.742  1.5188  2.1674 -2.0181
 2267TIP3   OH2 6764   3.290   1.715   2.341 -0.2187  0.5717  0.3967
 2267TIP3    H1 6765   3.326   1.797   2.309 -0.7280  1.3103  1.6619
 2267TIP3    H2 6766   3.343   1.694   2.418  0.8978 -1.1015 -0.7573
 2268TIP3   OH2 6767   6.198   3.069   4.442  0.6936  0.6318 -0.0110
 2268TIP3    H1 6768   6.232   3.073   4.531  0.1359 -0.4703  0.2668
 2268TIP3    H2 6769   6.165   3.158   4.425 -0.6314  0.4769  1.4715
 2269TIP3   OH2 6770   0.215   5.891   4.062  0.3589  0.0207 -0.0598
 2269TIP3    H1 6771   0.275   5.949   4.110 -2.6231  2.5902  0.8657
 2269TIP3    H2 6772   0.158   5.950   4.013 -0.2980 -2.3725 -2.4413
 2270TIP3   OH2 6773   3.540   6.382   3.195  0.2619 -0.2103 -0.0589
 2270TIP3    H1 6774   3.632   6.378   3.218  0.2472 -0.0228  0.0356
 2270TIP3    H2 6775   3.497   6.322   3.256  0.3248 -0.3092 -0.1138
 2271TIP3   OH2 6776   3.424   1.217   3.339 -0.0135  0.4335 -0.1899
 2271TIP3    H1 6777   3.372   1.294   3.363 -0.4971 -0.7525  3.1610
 2271TIP3    H2 6778   3.380   1.181   3.262 -1.6915  1.7569  0.0859
 2272TIP3   OH2 6779   3.896   2.633   0.482 -0.3843  0.0250 -0.3651
 2272TIP3    H1 6780   3.809   2.621   0.521  0.2517  1.3216  1.5610
 2272TIP3    H2 6781   3.913   2.726   0.489  1.4038 -0.2808 -0.2395
 2273TIP3   OH2 6782   5.128   3.718   1.267  0.5433  0.0921 -0.7025
 2273TIP3    H1 6783   5.125   3.813   1.270  2.7192  0.2096 -0.6344
 2273TIP3    H2 6784   5.114   3.697   1.174 -0.9098  0.3962 -0.5693
 2274TIP3   OH2 6785   4.501   0.093   3.312 -0.5080 -0.1426 -0.0571
 2274TIP3    H1 6786   4.498   0.179   3.271  0.0774 -0.3970 -0.6583
 2274TIP3    H2 6787   4.439   0.040   3.261 -0.5436 -0.1856  0.0313
 2275TIP3   OH2 6788   1.150   5.123   4.511  0.2737  0.6396  0.2016
 2275TIP3    H1 6789   1.126   5.110   4.603  1.0934  2.8198  0.8032
 2275TIP3    H2 6790   1.225   5.065   4.498 -1.5833 -1.8852 -0.0301
 2276TIP3   OH2 6791   0.463   4.439   3.058 -0.0522  0.1714  0.1005
 2276TIP3    H1 6792   0.483   4.353   3.021  1.4456  0.5279  0.0517
 2276TIP3    H2 6793   0.368   4.447   3.048 -0.4523 -2.0641  1.3825
 2277TIP3   OH2 6794   3.820   5.906   3.797 -0.5040 -0.5741 -0.1976
 2277TIP3    H1 6795   3.788   5.993   3.822  0.2814 -0.6894  1.3253
 2277TIP3    H2 6796   3.792   5.849   3.869  0.0456 -1.3475 -0.5811
 2278TIP3   OH2 6797   6.699   1.610   2.128  0.2339  0.1066 -0.5205
 2278TIP3    H1 6798   6.608   1.609   2.158  0.3030  0.9976 -0.2334
 2278TIP3    H2 6799   6.747   1.562   2.195  0.1883  0.9455  0.1265
 2279TIP3   OH2 6800   2.066   3.311   3.109  0.2039  0.1083  0.1229
 2279TIP3    H1 6801   2.069   3.396   3.064 -2.7939  0.7759  0.9686
 2279TIP3    H2 6802   2.111   3.327   3.192  3.8496 -0.5523 -1.5386
 2280TIP3   OH2 6803   1.913   2.810   0.286 -0.6063  0.5498 -0.4240
 2280TIP3    H1 6804   1.834   2.769   0.252 -1.6839  2.5742 -0.4771
 2280TIP3    H2 6805   1.984   2.769   0.236 -1.2812 -2.8809  1.0981
 2281TIP3   OH2 6806   3.421   5.976   1.645  0.1696  0.2040  0.2539
 2281TIP3    H1 6807   3.377   5.942   1.723  1.2370  0.1673  0.8586
 2281TIP3    H2 6808   3.493   6.029   1.679 -0.0154  1.1134 -0.7037
 2282TIP3   OH2 6809   5.500   6.524   4.045 -0.0157 -0.7693 -1.0702
 2282TIP3    H1 6810   5.424   6.568   4.082  0.8622  0.3873 -0.5671
 2282TIP3    H2 6811   5.512   6.566   3.959  0.4490 -0.4396 -0.8532
 2283TIP3   OH2 6812   3.530   3.667   4.031 -0.1236  0.4105 -0.2271
 2283TIP3    H1 6813   3.552   3.636   3.943 -0.1156 -1.4726  0.3872
 2283TIP3    H2 6814   3.525   3.762   4.022  0.1544  0.2939 -2.1920
 2284TIP3   OH2 6815   5.488   4.467   1.329 -0.1597 -0.2029  0.5546
 2284TIP3    H1 6816   5.573   4.488   1.367  0.7225 -0.3862 -1.1859
 2284TIP3    H2 6817   5.495   4.375   1.305 -1.2341 -0.4913  1.2958
 2285TIP3   OH2 6818   2.416   1.887   1.084  0.0888  0.4561 -0.0054
 2285TIP3    H1 6819   2.431   1.980   1.065  0.3403  0.4844  0.3166
 2285TIP3    H2 6820   2.354   1.887   1.157  2.6278  0.4823  2.3200
 2286TIP3   OH2 6821   6.961   2.990   3.382  0.0692  0.3522 -0.2271
 2286TIP3    H1 6822   6.924   2.929   3.446  0.6514 -0.6528 -0.8340
 2286TIP3    H2 6823   7.024   3.042   3.432 -0.8272  0.8511  0.4154
 2287TIP3   OH2 6824   2.980   3.533   3.586  0.4026 -0.1709 -0.5190
 2287TIP3    H1 6825   3.074   3.516   3.573  0.3085  0.4441 -2.2516
 2287TIP3    H2 6826   2.971   3.543   3.681  1.8868 -1.3552 -0.2044
 2288TIP3   OH2 6827   4.478   2.024   4.310 -0.4467 -0.5267  0.2095
 2288TIP3    H1 6828   4.477   1.939   4.354  1.2251 -0.6704  0.0145
 2288TIP3    H2 6829   4.435   2.007   4.225 -1.3786 -0.8270  0.7185
 2289TIP3   OH2 6830   2.599   6.756   2.785  0.3783  0.0554  0.7996
 2289TIP3    H1 6831   2.648   6.805   2.719 -1.8062  2.2970  0.6924
 2289TIP3    H2 6832   2.528   6.714   2.736  0.2666 -0.4122  1.3579
 2290TIP3   OH2 6833   2.197   1.708   2.415  0.2908  0.0933 -0.6706
 2290TIP3    H1 6834   2.201   1.724   2.510  0.2294  1.9582 -0.9457
 2290TIP3    H2 6835   2.103   1.714   2.395  0.3575  0.2178 -0.9370
 2291TIP3   OH2 6836   3.474   3.990   4.503  0.5698 -0.1062 -0.0696
 2291TIP3    H1 6837   3.440   4.073   4.469  0.9942 -0.0216 -0.2888
 2291TIP3    H2 6838   3.425   3.975   4.584 -0.9738 -0.6558 -1.0581
 2292TIP3   OH2 6839   3.603   1.302   5.030  0.1458  0.1722 -0.1906
 2292TIP3    H1 6840   3.695   1.298   5.058  0.0899  0.1730 -0.0073
 2292TIP3    H2 6841   3.589   1.395   5.009  0.6085 -0.0599 -1.6483
 2293TIP3   OH2 6842   4.877   0.226   5.271 -0.1903  0.0535  0.3775
 2293TIP3    H1 6843   4.889   0.139   5.232 -0.9571  1.4189 -3.3044
 2293TIP3    H2 6844   4.960   0.270   5.257 -0.5694  0.6567 -0.0208
 2294TIP3   OH2 6845   3.854   3.863   2.497  0.5519  0.3540 -0.6009
 2294TIP3    H1 6846   3.775   3.884   2.447  0.0403 -0.3371 -0.1118
 2294TIP3    H2 6847   3.859   3.767   2.494  0.7822  0.3349  0.2616
 2295TIP3   OH2 6848   5.647   5.185   1.741 -0.4946  0.2560 -0.4912
 2295TIP3    H1 6849   5.658   5.091   1.756 -0.7808  0.1814 -0.7368
 2295TIP3    H2 6850   5.558   5.193   1.707 -1.6498  0.9286  2.3638
 2296TIP3   OH2 6851   3.717   3.176   0.038  0.0560  0.0829  0.1112
 2296TIP3    H1 6852   3.668   3.138   0.111  0.6387 -1.5615 -0.3123
 2296TIP3    H2 6853   3.650   3.215  -0.018 -0.6755 -1.0205  0.1752
 2297TIP3   OH2 6854   2.886   4.131   0.665  0.3831  0.2342  0.1997
 2297TIP3    H1 6855   2.972   4.148   0.624  0.7502 -0.0512  0.8343
 2297TIP3    H2 6856   2.904   4.132   0.759 -0.0984 -0.9234  0.3186
 2298TIP3   OH2 6857   1.742   5.314   2.961  0.1524 -0.1856 -0.5085
 2298TIP3    H1 6858   1.688   5.248   3.005 -2.5019  2.6542  0.8925
 2298TIP3    H2 6859   1.822   5.318   3.013 -0.3496 -1.1430  0.3798
 2299TIP3   OH2 6860   6.159   0.596   1.533 -0.1766 -0.3166 -0.3912
 2299TIP3    H1 6861   6.070   0.618   1.560  0.3522  0.5241  0.7614
 2299TIP3    H2 6862   6.167   0.502   1.550 -1.0262 -0.5292 -1.0879
 2300TIP3   OH2 6863   1.554   0.248   1.247  0.5913  0.1270  0.0757
 2300TIP3    H1 6864   1.491   0.213   1.184 -0.5980 -0.7324  1.6721
 2300TIP3    H2 6865   1.529   0.340   1.256  1.5814  0.6066 -1.6012
 2301TIP3   OH2 6866   2.556   5.276   0.055  0.5057  0.4283 -0.1720
 2301TIP3    H1 6867   2.551   5.185   0.084 -1.2404  0.7739  0.6951
 2301TIP3    H2 6868   2.499   5.280  -0.022 -0.4448  1.0471  0.5460
 2302TIP3   OH2 6869   1.774   2.582   5.270  0.4340 -0.3230 -0.2241
 2302TIP3    H1 6870   1.835   2.588   5.196  1.3501 -0.6106  0.4957
 2302TIP3    H2 6871   1.778   2.668   5.312  0.4309 -0.3837 -0.0989
 2303TIP3   OH2 6872   4.960   0.754   2.022 -0.8864  0.1000  0.3456
 2303TIP3    H1 6873   5.053   0.731   2.022 -1.0358 -0.6533  2.4989
 2303TIP3    H2 6874   4.917   0.682   2.068 -2.9253 -0.8132 -2.6850
 2304TIP3   OH2 6875   4.880   2.900   5.804 -0.0595  0.3261  0.2816
 2304TIP3    H1 6876   4.970   2.880   5.780  0.4713  1.2320  1.4176
 2304TIP3    H2 6877   4.883   2.916   5.898 -1.6368 -0.8452  0.5766
 2305TIP3   OH2 6878   6.945   5.924   0.068  0.5634  0.2998 -0.3590
 2305TIP3    H1 6879   6.970   5.832   0.067 -1.1360 -0.2020  0.1720
 2305TIP3    H2 6880   6.881   5.933  -0.003  2.5396  1.6850 -2.1037
 2306TIP3   OH2 6881   2.038   0.501   4.958 -0.2102  0.4204 -0.0406
 2306TIP3    H1 6882   2.021   0.596   4.960  0.2550  0.4953  0.4136
 2306TIP3    H2 6883   1.953   0.462   4.978 -0.3769  0.7477 -0.0959
 2307TIP3   OH2 6884   2.793   6.567   3.171  0.2708 -0.2427  0.4023
 2307TIP3    H1 6885   2.767   6.650   3.131  1.5053  0.5039  1.0747
 2307TIP3    H2 6886   2.755   6.500   3.115  0.1475  0.7691 -0.7685
 2308TIP3   OH2 6887   2.057   0.032   4.575 -1.3811 -0.4445  0.2610
 2308TIP3    H1 6888   1.973   0.009   4.616 -1.7473  1.1180  0.4566
 2308TIP3    H2 6889   2.037   0.109   4.521  0.1659  0.7735  1.3257
 2309TIP3   OH2 6890   4.189   6.387   2.625 -0.2051  0.1033 -0.7426
 2309TIP3    H1 6891   4.235   6.408   2.544 -0.9677  0.2182 -1.1514
 2309TIP3    H2 6892   4.100   6.421   2.612 -0.9692 -1.7916 -0.7375
 2310TIP3   OH2 6893   4.419   4.253   0.128  0.1066 -0.3870 -0.1186
 2310TIP3    H1 6894   4.419   4.263   0.032 -1.1165  0.2439 -0.0746
 2310TIP3    H2 6895   4.336   4.292   0.156  0.5947 -0.2669  1.2376
 2311TIP3   OH2 6896   5.019   4.135   4.199 -0.0580  0.1803  0.1100
 2311TIP3    H1 6897   4.953   4.094   4.254 -0.4478 -0.4031 -0.7693
 2311TIP3    H2 6898   5.074   4.062   4.169  2.7140  0.8438  2.9394
 2312TIP3   OH2 6899   2.317   3.660   1.024  0.1910 -0.0856  0.1693
 2312TIP3    H1 6900   2.401   3.652   0.979  0.4329 -0.1644  0.6321
 2312TIP3    H2 6901   2.318   3.592   1.092 -0.4600 -0.4303 -0.1469
 2313TIP3   OH2 6902   2.817   5.478   2.075 -0.0009  0.1926  0.5623
 2313TIP3    H1 6903   2.748   5.412   2.081 -0.5782  0.8277  1.2942
 2313TIP3    H2 6904   2.804   5.518   1.989 -0.7043  0.4461  0.7718
 2314TIP3   OH2 6905   1.817   0.504   4.594 -0.0691  0.3458 -0.2822
 2314TIP3    H1 6906   1.873   0.436   4.632 -0.5442  0.5139  0.7577
 2314TIP3    H2 6907   1.806   0.478   4.503  3.9921  1.7550 -1.4264
 2315TIP3   OH2 6908   1.180   3.442   3.208  0.0279 -0.0328  0.2194
 2315TIP3    H1 6909   1.130   3.491   3.274 -0.8219  1.2198 -1.2649
 2315TIP3    H2 6910   1.260   3.493   3.196  0.1697 -0.2442  0.2706
 2316TIP3   OH2 6911   7.007   5.036   1.310  0.1202  0.3796 -0.3582
 2316TIP3    H1 6912   6.970   4.948   1.320 -0.8296  0.7703 -0.3107
 2316TIP3    H2 6913   6.941   5.084   1.260  0.6654  1.0494 -0.4500
 2317TIP3   OH2 6914   2.324   5.769   2.983  0.3667  0.1864 -0.3378
 2317TIP3    H1 6915   2.365   5.696   3.030 -0.4732  0.1761  0.3970
 2317TIP3    H2 6916   2.239   5.736   2.956  0.2330  0.6941 -0.5396
 2318TIP3   OH2 6917   1.600   6.424   0.368  0.1314  0.3162 -0.1784
 2318TIP3    H1 6918   1.515   6.453   0.400 -0.3224 -0.3031 -0.7751
 2318TIP3    H2 6919   1.614   6.340   0.411  0.2581  0.2330 -0.3826
 2319TIP3   OH2 6920   3.969   2.504   3.395  0.1966 -0.3756  0.5861
 2319TIP3    H1 6921   3.899   2.535   3.453 -0.5579  1.1293 -1.0422
 2319TIP3    H2 6922   4.048   2.544   3.430 -0.2184  0.3614  0.7048
 2320TIP3   OH2 6923   7.085   2.506   3.798  0.5094  0.4441  0.0371
 2320TIP3    H1 6924   7.038   2.462   3.728  0.2827  0.2817  0.2895
 2320TIP3    H2 6925   7.174   2.516   3.765 -0.0097  1.9980 -1.0100
 2321TIP3   OH2 6926   3.389   6.256   3.400 -0.0334  0.0440  0.0551
 2321TIP3    H1 6927   3.316   6.208   3.361 -0.2106  1.5146 -1.5019
 2321TIP3    H2 6928   3.372   6.253   3.494 -1.2741 -0.9318 -0.1846
 2322TIP3   OH2 6929   5.834   0.664   5.235 -0.4569  0.2047  0.4778
 2322TIP3    H1 6930   5.906   0.605   5.255 -0.8150 -0.5932 -0.4778
 2322TIP3    H2 6931   5.859   0.706   5.153 -1.8399 -1.4575 -0.8692
 2323TIP3   OH2 6932   2.803   0.523   0.709  0.1596  0.5958 -0.3374
 2323TIP3    H1 6933   2.799   0.516   0.804 -1.2597  0.1131 -0.4036
 2323TIP3    H2 6934   2.862   0.453   0.682  1.0229  1.0986  0.2114
 2324TIP3   OH2 6935   4.829   5.577   3.595 -0.3519 -0.4436  0.4430
 2324TIP3    H1 6936   4.872   5.532   3.667  0.9358  2.2839  1.5269
 2324TIP3    H2 6937   4.889   5.568   3.521 -0.5188 -1.1834  0.3910
 2325TIP3   OH2 6938   3.268   3.814   4.300  0.2856  0.3517 -0.0791
 2325TIP3    H1 6939   3.303   3.725   4.295  1.2863  0.7545 -0.5862
 2325TIP3    H2 6940   3.198   3.809   4.365 -0.7539 -1.1462 -1.2387
 2326TIP3   OH2 6941   4.802   0.303   4.348  0.2709  0.6806 -0.0980
 2326TIP3    H1 6942   4.752   0.274   4.424 -0.9858  1.8702 -0.4338
 2326TIP3    H2 6943   4.751   0.274   4.272  1.4680 -0.4178 -0.5152
 2327TIP3   OH2 6944   2.495   4.135   3.630 -0.1181  0.5022 -0.0018
 2327TIP3    H1 6945   2.502   4.126   3.725  0.8665  2.2318  0.1239
 2327TIP3    H2 6946   2.409   4.099   3.609  1.0921 -3.5218  0.9997
 2328TIP3   OH2 6947   6.318   3.382   1.913 -0.7201  0.3167 -0.3471
 2328TIP3    H1 6948   6.408   3.402   1.936 -0.7540  0.4894 -0.3632
 2328TIP3    H2 6949   6.273   3.371   1.998 -0.2747 -1.6655 -0.3158
 2329TIP3   OH2 6950   0.513   4.068   0.519  0.0937 -0.1276  0.1746
 2329TIP3    H1 6951   0.590   4.013   0.507 -0.0996 -0.3016 -0.2785
 2329TIP3    H2 6952   0.445   4.008   0.550 -0.9759 -0.7893 -3.0833
 2330TIP3   OH2 6953   5.248   5.535   3.964 -0.1190  0.2868  0.1635
 2330TIP3    H1 6954   5.240   5.499   4.052 -0.4239 -0.8530 -0.3128
 2330TIP3    H2 6955   5.182   5.605   3.961 -1.2963 -0.7886  0.3073
 2331TIP3   OH2 6956   2.905   0.098   2.130 -0.6276  0.2934 -0.2677
 2331TIP3    H1 6957   2.870   0.181   2.164  0.4163  1.3486 -1.6630
 2331TIP3    H2 6958   2.957   0.123   2.054 -0.2272 -1.6587 -0.6891
 2332TIP3   OH2 6959   2.688   5.987   5.692 -0.0920 -0.2985  0.4064
 2332TIP3    H1 6960   2.657   5.995   5.601 -0.1712  0.4047  0.4952
 2332TIP3    H2 6961   2.662   5.898   5.717 -2.3015  0.3081  0.5484
 2333TIP3   OH2 6962   5.321   3.709   2.527 -0.0939  0.6940 -0.4679
 2333TIP3    H1 6963   5.378   3.632   2.531 -0.1923  0.6223 -0.4617
 2333TIP3    H2 6964   5.379   3.783   2.547 -0.4505  0.4231  1.7584
 2334TIP3   OH2 6965   2.677   2.476   4.366  0.1596  0.0820  0.6958
 2334TIP3    H1 6966   2.725   2.457   4.285 -2.7780 -1.8887 -0.7569
 2334TIP3    H2 6967   2.612   2.541   4.340 -0.6681 -0.4042  1.5186
 2335TIP3   OH2 6968   0.290   2.749   1.993 -0.3274  0.6926 -0.0953
 2335TIP3    H1 6969   0.267   2.761   1.901  2.9177  0.2542 -1.0963
 2335TIP3    H2 6970   0.329   2.833   2.019 -0.8586  0.6799  0.7883
 2336TIP3   OH2 6971   5.282   2.687   2.516  0.2070 -0.4182  0.3481
 2336TIP3    H1 6972   5.313   2.777   2.517 -2.9516  0.7747  0.7316
 2336TIP3    H2 6973   5.354   2.637   2.555  1.9456  1.9156  0.3653
 2337TIP3   OH2 6974   2.662   1.108   3.230 -0.4095  0.3402  0.5730
 2337TIP3    H1 6975   2.721   1.132   3.302  0.4686  0.4726 -0.1644
 2337TIP3    H2 6976   2.575   1.137   3.259  0.0486  1.0676  1.2699
 2338TIP3   OH2 6977   4.995   1.743   1.157  0.3423  0.1559 -0.0493
 2338TIP3    H1 6978   4.955   1.727   1.071  0.2141  1.8868 -0.3503
 2338TIP3    H2 6979   4.929   1.715   1.220 -0.0767  0.0569 -0.5268
 2339TIP3   OH2 6980   3.115   1.210   0.126 -0.1978  0.9649  0.7674
 2339TIP3    H1 6981   3.194   1.200   0.072 -0.4634  1.9277  0.1778
 2339TIP3    H2 6982   3.065   1.129   0.109 -1.1016  1.9485 -1.8628
 2340TIP3   OH2 6983   6.384   1.235   3.550  0.1309 -0.3553  0.4156
 2340TIP3    H1 6984   6.291   1.244   3.572  0.5772  1.2104  1.8548
 2340TIP3    H2 6985   6.426   1.212   3.632  1.2550  0.9720  0.2602
 2341TIP3   OH2 6986   0.789   5.083   3.537 -0.6869  0.2941  0.0525
 2341TIP3    H1 6987   0.733   5.017   3.497  0.1877  0.0351 -0.7968
 2341TIP3    H2 6988   0.852   5.105   3.468  0.0950  0.7527  0.8987
 2342TIP3   OH2 6989   5.853   3.374   3.738  0.3598  0.0308 -0.2516
 2342TIP3    H1 6990   5.818   3.303   3.684 -1.6383 -0.2201  1.2352
 2342TIP3    H2 6991   5.903   3.330   3.807 -0.1671  0.0883  0.1779
 2343TIP3   OH2 6992   2.427   1.790   2.653 -1.0391 -0.2136  0.1393
 2343TIP3    H1 6993   2.436   1.741   2.571 -0.5438 -1.9633  1.1718
 2343TIP3    H2 6994   2.453   1.879   2.632 -3.0510 -0.0553 -2.1067
 2344TIP3   OH2 6995   0.644   1.713   2.926  0.3153  0.4681  0.2103
 2344TIP3    H1 6996   0.734   1.734   2.902  0.4870  1.2072  1.4053
 2344TIP3    H2 6997   0.592   1.787   2.894 -0.0249 -0.3911 -1.3017
 2345TIP3   OH2 6998   0.492   6.573   3.701 -0.1634 -0.8887  0.0254
 2345TIP3    H1 6999   0.475   6.529   3.618  1.3095  0.5490 -1.1090
 2345TIP3    H2 7000   0.551   6.514   3.748  1.9526 -0.1788 -1.5606
 2346TIP3   OH2 7001   4.400   6.144   2.707  0.0331  0.7652  0.2425
 2346TIP3    H1 7002   4.396   6.105   2.795  2.0948 -0.5748 -0.1799
 2346TIP3    H2 7003   4.345   6.222   2.713 -0.2074  0.5053  2.6066
 2347TIP3   OH2 7004   3.707   5.830   5.028 -0.1342 -0.2304 -0.1171
 2347TIP3    H1 7005   3.613   5.816   5.034 -0.4901  1.2897 -1.5534
 2347TIP3    H2 7006   3.720   5.878   4.946  1.8630 -0.1384  0.1866
 2348TIP3   OH2 7007   2.835   0.818   0.518 -0.5164 -0.2396  0.5239
 2348TIP3    H1 7008   2.759   0.761   0.503 -0.0207 -1.3456  1.9833
 2348TIP3    H2 7009   2.864   0.842   0.430 -1.8785 -0.6895 -0.0869
 2349TIP3   OH2 7010   6.383   5.210   5.773 -0.1378  0.2846  0.0561
 2349TIP3    H1 7011   6.391   5.164   5.857 -0.1828 -2.2828 -1.2450
 2349TIP3    H2 7012   6.360   5.142   5.711 -0.6336  2.2111 -1.9820
 2350TIP3   OH2 7013   3.317   3.777   0.832  0.4639  0.3543 -0.3548
 2350TIP3    H1 7014   3.357   3.792   0.746 -0.8135 -0.3120 -1.0800
 2350TIP3    H2 7015   3.382   3.723   0.879  1.5396  1.4099 -0.5664
 2351TIP3   OH2 7016   0.954   6.122   1.244  0.2499  0.0949  0.2934
 2351TIP3    H1 7017   0.918   6.111   1.332  1.1090 -2.3754  0.4170
 2351TIP3    H2 7018   0.880   6.109   1.185  0.2500 -1.8665  0.6322
 2352TIP3   OH2 7019   0.915   1.033   5.762 -0.6938 -0.3938  0.2544
 2352TIP3    H1 7020   0.981   1.100   5.779 -0.8723 -0.0591 -0.3301
 2352TIP3    H2 7021   0.868   1.024   5.845  0.0120 -0.5583  0.6417
 2353TIP3   OH2 7022   5.131   3.188   3.995  0.0973  0.0132  0.1984
 2353TIP3    H1 7023   5.215   3.199   3.950 -0.2877  1.1771 -0.2902
 2353TIP3    H2 7024   5.079   3.134   3.935 -0.1192  0.8420 -0.3863
 2354TIP3   OH2 7025   7.016   3.852   3.106 -0.2289  0.4333 -0.2376
 2354TIP3    H1 7026   7.042   3.944   3.110  0.0117  0.3821 -0.6041
 2354TIP3    H2 7027   7.079   3.812   3.048 -1.0353  0.2791 -1.0351
 2355TIP3   OH2 7028   2.010   5.447   3.932 -0.2968 -0.0615  0.0619
 2355TIP3    H1 7029   2.045   5.367   3.970 -1.2046  0.1491  1.3809
 2355TIP3    H2 7030   2.077   5.514   3.950 -0.4151 -0.1100  0.6871
 2356TIP3   OH2 7031   5.639   4.451   3.099  0.4093 -0.0725 -0.9571
 2356TIP3    H1 7032   5.570   4.481   3.159  0.3488  1.3674 -1.7153
 2356TIP3    H2 7033   5.712   4.428   3.156  0.1386  0.7031 -0.2841
 2357TIP3   OH2 7034   2.557   1.271   5.483  0.5608 -0.0058  0.3864
 2357TIP3    H1 7035   2.592   1.303   5.400  1.0867  0.0668  0.6335
 2357TIP3    H2 7036   2.575   1.342   5.545  0.7049 -0.3077  0.6920
 2358TIP3   OH2 7037   6.134   0.483   3.856  0.0516  0.3719 -0.2961
 2358TIP3    H1 7038   6.172   0.536   3.926  1.3921 -0.1204 -0.6264
 2358TIP3    H2 7039   6.187   0.403   3.855 -0.6408 -0.0908 -1.1636
 2359TIP3   OH2 7040   4.947   3.055   5.365  0.0355 -0.5308  0.0797
 2359TIP3    H1 7041   5.005   2.985   5.395  1.3860  0.2513 -0.6488
 2359TIP3    H2 7042   4.964   3.062   5.271 -1.2212 -0.2470 -0.1465
 2360TIP3   OH2 7043   1.723   4.369   2.336  0.6786  0.0142  0.9599
 2360TIP3    H1 7044   1.669   4.438   2.375 -0.4592 -0.9558  1.1511
 2360TIP3    H2 7045   1.690   4.360   2.247  0.1002 -0.9946  1.2641
 2361TIP3   OH2 7046   4.640   6.194   3.602  0.5667 -0.5523  0.0431
 2361TIP3    H1 7047   4.679   6.117   3.561 -0.3858  0.1501 -2.3331
 2361TIP3    H2 7048   4.548   6.191   3.576  0.4240  1.1504  0.2444
 2362TIP3   OH2 7049   5.458   5.430   0.194 -0.5180 -1.1749  0.4456
 2362TIP3    H1 7050   5.543   5.389   0.210  1.6843  1.5346 -2.9227
 2362TIP3    H2 7051   5.449   5.493   0.266  1.7017  0.2617 -0.4093
 2363TIP3   OH2 7052   1.371   4.674   1.706 -0.4655  0.3901  0.0395
 2363TIP3    H1 7053   1.460   4.658   1.672 -0.3607 -1.5246  1.0511
 2363TIP3    H2 7054   1.369   4.768   1.726  1.0758  0.6083 -0.6804
 2364TIP3   OH2 7055   1.988   6.025   5.359  0.0944 -0.1835  0.2513
 2364TIP3    H1 7056   2.076   6.002   5.390  0.4087  1.7457  0.9070
 2364TIP3    H2 7057   1.936   5.947   5.376  1.1408 -0.5318  2.1508
 2365TIP3   OH2 7058   0.780   1.504   0.005 -0.8038  0.1626  0.3506
 2365TIP3    H1 7059   0.746   1.443   0.071  1.1544  0.2761  1.5655
 2365TIP3    H2 7060   0.871   1.476  -0.007 -0.4116  1.7050 -0.4561
 2366TIP3   OH2 7061   1.591   2.372   3.998  0.1930 -0.2102  0.2276
 2366TIP3    H1 7062   1.596   2.278   3.982  0.6030 -0.1710  0.0969
 2366TIP3    H2 7063   1.605   2.381   4.092  1.8555 -0.1806  0.0177
 2367TIP3   OH2 7064   5.463   0.915   5.556 -0.0826 -0.1461  0.5620
 2367TIP3    H1 7065   5.537   0.863   5.527  0.3794  2.0291 -2.5703
 2367TIP3    H2 7066   5.457   0.897   5.650  1.9141 -3.3487  0.2211
 2368TIP3   OH2 7067   4.245   2.609   2.744  0.8527 -0.0145 -0.8210
 2368TIP3    H1 7068   4.154   2.640   2.750  0.9468  0.3359 -1.1299
 2368TIP3    H2 7069   4.265   2.576   2.831  0.2442 -0.6162 -0.9006
 2369TIP3   OH2 7070   3.986   4.462   2.526 -0.2257  0.0075 -0.2075
 2369TIP3    H1 7071   4.044   4.537   2.538 -0.2730 -0.1125  0.9033
 2369TIP3    H2 7072   3.944   4.451   2.611 -0.7763 -0.8185 -0.5755
 2370TIP3   OH2 7073   3.895   4.404   0.711 -0.1697 -0.1743 -0.3244
 2370TIP3    H1 7074   3.803   4.429   0.715 -0.8789 -2.4118 -0.9560
 2370TIP3    H2 7075   3.924   4.433   0.625 -0.3296  0.3719 -0.1979
 2371TIP3   OH2 7076   0.170   4.192   2.259  0.4326 -0.0394 -0.5532
 2371TIP3    H1 7077   0.143   4.217   2.171  0.5920  0.6587 -0.4089
 2371TIP3    H2 7078   0.095   4.146   2.296  0.1770  0.1204 -0.8723
 2372TIP3   OH2 7079   4.742   0.286   2.176 -0.1310 -0.3268  0.2234
 2372TIP3    H1 7080   4.706   0.216   2.121  1.3371 -0.1701 -0.9947
 2372TIP3    H2 7081   4.822   0.249   2.212 -0.4431  0.0106  1.3041
 2373TIP3   OH2 7082   4.258   4.248   5.836 -0.0741 -0.2538 -0.2527
 2373TIP3    H1 7083   4.230   4.212   5.752  0.1102  2.0901 -1.3933
 2373TIP3    H2 7084   4.177   4.266   5.883 -0.2213 -0.3578 -0.4669
 2374TIP3   OH2 7085   3.898   0.824   0.573  0.4243 -0.9792  0.0592
 2374TIP3    H1 7086   3.900   0.919   0.582  1.8877 -1.1855  2.6615
 2374TIP3    H2 7087   3.940   0.808   0.488  1.6805  0.6449  0.3161
 2375TIP3   OH2 7088   1.870   4.461   3.950 -0.3070 -0.4376 -0.6985
 2375TIP3    H1 7089   1.926   4.530   3.914  2.8533 -1.3699  1.9799
 2375TIP3    H2 7090   1.783   4.500   3.951  1.2225  3.4517  0.3830
 2376TIP3   OH2 7091   5.059   4.534   3.132  0.5795 -0.1788 -0.0161
 2376TIP3    H1 7092   5.004   4.596   3.086 -0.6747 -1.4562 -0.3069
 2376TIP3    H2 7093   5.145   4.541   3.090  1.0739  2.6972  1.2360
 2377TIP3   OH2 7094   6.640   5.461   0.873  0.4077 -0.2736 -0.5418
 2377TIP3    H1 7095   6.735   5.464   0.882  0.4138 -0.0738 -0.6638
 2377TIP3    H2 7096   6.623   5.387   0.815  0.6281  0.9807 -2.3040
 2378TIP3   OH2 7097   6.706   0.239   5.116 -0.6297  0.0266  0.5880
 2378TIP3    H1 7098   6.740   0.266   5.031  1.7263 -1.7845  0.8621
 2378TIP3    H2 7099   6.615   0.216   5.099 -0.1963 -0.3603 -1.4598
 2379TIP3   OH2 7100   0.692   6.707   0.884  0.3867  0.1338  0.1071
 2379TIP3    H1 7101   0.609   6.753   0.897 -0.5515 -0.9376 -1.6331
 2379TIP3    H2 7102   0.695   6.641   0.953 -0.1528  0.2455  0.2383
 2380TIP3   OH2 7103   2.311   3.353   4.111  0.0189 -0.0243 -0.1711
 2380TIP3    H1 7104   2.267   3.314   4.036 -0.5199  0.8325 -0.3032
 2380TIP3    H2 7105   2.301   3.447   4.100  0.1002  0.1226  0.8762
 2381TIP3   OH2 7106   6.969   0.246   1.272  0.0355  0.2843  0.5758
 2381TIP3    H1 7107   6.989   0.252   1.178 -0.6884 -0.3395  0.3644
 2381TIP3    H2 7108   7.032   0.183   1.306 -0.6474 -0.6178  0.1990
 2382TIP3   OH2 7109   6.414   0.858   4.200 -0.1628 -0.3914  0.0172
 2382TIP3    H1 7110   6.446   0.926   4.260 -0.0432  1.1974 -1.7390
 2382TIP3    H2 7111   6.422   0.777   4.249  0.6133  0.7400  1.8739
 2383TIP3   OH2 7112   6.935   1.004   3.512  0.1382  0.1883  0.0892
 2383TIP3    H1 7113   6.894   1.027   3.428 -0.0294 -0.2764  0.0393
 2383TIP3    H2 7114   6.945   1.088   3.557 -0.4586  0.3644 -0.0881
 2384TIP3   OH2 7115   6.098   1.719   1.290  0.8300 -0.0335  0.4435
 2384TIP3    H1 7116   6.094   1.665   1.369 -3.3940 -0.2120  0.2856
 2384TIP3    H2 7117   6.062   1.665   1.221  3.8846  0.3441 -1.6299
 2385TIP3   OH2 7118   6.745   2.206   5.414  0.1283  0.3445  0.0907
 2385TIP3    H1 7119   6.754   2.193   5.320 -0.1006 -0.7154  0.2053
 2385TIP3    H2 7120   6.670   2.152   5.439  0.2691  0.5092  0.9115
 2386TIP3   OH2 7121   2.318   4.573   5.429 -0.0846 -0.2973 -0.2650
 2386TIP3    H1 7122   2.270   4.638   5.481  1.2221 -0.5198  1.3106
 2386TIP3    H2 7123   2.386   4.542   5.488  0.8221 -1.3473 -1.8140
 2387TIP3   OH2 7124   2.241   3.078   1.978 -0.3117 -0.2094  0.2737
 2387TIP3    H1 7125   2.302   3.055   2.048 -0.5123  0.1134  0.5550
 2387TIP3    H2 7126   2.161   3.106   2.023 -0.9686 -1.4027 -0.0930
 2388TIP3   OH2 7127   5.911   0.966   1.606  0.3032  0.3238  0.0108
 2388TIP3    H1 7128   6.006   0.977   1.605  0.2636  0.6850 -0.4123
 2388TIP3    H2 7129   5.883   0.996   1.519 -0.3355  1.5816  0.6133
 2389TIP3   OH2 7130   5.354   1.368   3.327 -0.2676 -0.5545  0.0903
 2389TIP3    H1 7131   5.393   1.438   3.274  0.3539 -0.5646  0.5148
 2389TIP3    H2 7132   5.271   1.404   3.357  0.7482  0.6445  1.6183
 2390TIP3   OH2 7133   6.913   3.007   0.715 -0.5432  0.0371  0.2583
 2390TIP3    H1 7134   6.941   2.925   0.755  0.7967 -0.8018 -2.1494
 2390TIP3    H2 7135   6.823   2.992   0.688 -1.0845  0.2297  1.8717
 2391TIP3   OH2 7136   3.806   3.460   4.772  0.1401 -0.3476 -0.0108
 2391TIP3    H1 7137   3.743   3.405   4.725  0.1782  0.1546 -0.6699
 2391TIP3    H2 7138   3.831   3.527   4.708 -0.7546  1.1125  1.1046
 2392TIP3   OH2 7139   4.907   3.368   1.209  0.4397  0.0314  0.6003
 2392TIP3    H1 7140   4.892   3.357   1.115 -0.4583 -0.4091  0.7876
 2392TIP3    H2 7141   4.821   3.390   1.245  0.2407 -2.2576  1.6867
 2393TIP3   OH2 7142   1.566   5.163   1.741  0.3669  0.7748 -0.6655
 2393TIP3    H1 7143   1.538   5.253   1.755  1.6487  1.1788 -0.5214
 2393TIP3    H2 7144   1.580   5.128   1.829  1.9010  1.1373 -0.7369
 2394TIP3   OH2 7145   4.709   3.432   1.802 -0.1173 -0.3037 -0.7510
 2394TIP3    H1 7146   4.711   3.417   1.708 -1.7406  0.1890 -0.8908
 2394TIP3    H2 7147   4.629   3.389   1.832  0.3441 -0.4142  0.4104
 2395TIP3   OH2 7148   2.599   3.171   3.802  0.3051 -0.1209  0.0544
 2395TIP3    H1 7149   2.541   3.123   3.742  0.3302  0.3005 -0.3137
 2395TIP3    H2 7150   2.576   3.262   3.789  1.2544  0.0776 -0.3091
 2396TIP3   OH2 7151   0.266   3.744   1.441 -0.3212 -0.3640  0.5125
 2396TIP3    H1 7152   0.197   3.763   1.504 -0.6009 -0.3386  0.1997
 2396TIP3    H2 7153   0.252   3.807   1.370  0.6362  0.3088  0.9079
 2397TIP3   OH2 7154   0.455   3.757   5.298  0.4762  0.0850 -0.2205
 2397TIP3    H1 7155   0.443   3.738   5.391 -1.9718  0.1159 -0.4592
 2397TIP3    H2 7156   0.511   3.686   5.266  1.3621  0.0784  1.2399
 2398TIP3   OH2 7157   3.770   6.245   5.631  0.1428  0.4225 -0.0503
 2398TIP3    H1 7158   3.803   6.334   5.640 -0.7614  0.6300  1.6421
 2398TIP3    H2 7159   3.770   6.210   5.720  1.4026 -1.6498 -0.7893
 2399TIP3   OH2 7160   0.065   3.961   3.812  0.2543 -0.4720  0.0925
 2399TIP3    H1 7161   0.125   3.995   3.746 -1.4202 -3.2203 -3.1490
 2399TIP3    H2 7162   0.122   3.919   3.877  1.8929  0.1972 -0.8564
 2400TIP3   OH2 7163   0.372   5.647   3.333 -0.2310  0.3095  0.2604
 2400TIP3    H1 7164   0.298   5.625   3.276  0.7544 -1.1997 -0.5115
 2400TIP3    H2 7165   0.433   5.574   3.321  0.8511  0.9193  1.8052
 2401TIP3   OH2 7166   6.044   1.950   3.497 -0.0410  0.2170 -0.2145
 2401TIP3    H1 7167   5.991   1.875   3.472 -0.8352  0.4590  0.6944
 2401TIP3    H2 7168   6.120   1.947   3.438 -0.0778 -1.2629 -0.2133
 2402TIP3   OH2 7169   5.889   1.308   3.875  0.1449  0.0817 -0.1095
 2402TIP3    H1 7170   5.921   1.243   3.937 -0.6526 -0.6094 -0.4007
 2402TIP3    H2 7171   5.870   1.259   3.795 -2.3017  0.2807  0.2629
 2403TIP3   OH2 7172   0.745   5.707   1.916 -0.0020  0.2713 -0.3011
 2403TIP3    H1 7173   0.689   5.687   1.992 -0.3860  2.5184  0.0687
 2403TIP3    H2 7174   0.827   5.663   1.936 -0.4733 -0.1401  0.8727
 2404TIP3   OH2 7175   3.541   3.905   0.281  0.6467  0.0711 -0.9422
 2404TIP3    H1 7176   3.503   3.993   0.287 -0.9122 -0.6275 -0.0580
 2404TIP3    H2 7177   3.622   3.911   0.331 -0.1562  0.6726  0.3574
 2405TIP3   OH2 7178   1.427   4.065   1.713  0.1531 -0.0786 -0.6190
 2405TIP3    H1 7179   1.379   4.074   1.796  0.9266 -0.6931 -0.0931
 2405TIP3    H2 7180   1.444   3.971   1.705  2.0550  0.2119 -0.3343
 2406TIP3   OH2 7181   0.468   0.506   2.582 -0.1955 -0.6275 -0.4385
 2406TIP3    H1 7182   0.482   0.413   2.598  2.1377 -0.1943  0.4595
 2406TIP3    H2 7183   0.385   0.526   2.625 -0.1832 -2.0552  0.3181
 2407TIP3   OH2 7184   3.777   4.984   5.434  0.3718  0.5435  0.0888
 2407TIP3    H1 7185   3.792   5.004   5.342  2.1041  1.2636  0.4821
 2407TIP3    H2 7186   3.688   5.014   5.451 -0.0610  0.1742 -1.3921
 2408TIP3   OH2 7187   4.309   3.574   5.926  0.1589  0.4199 -0.0450
 2408TIP3    H1 7188   4.400   3.579   5.898 -0.0371 -1.4787 -1.1814
 2408TIP3    H2 7189   4.258   3.611   5.854 -0.0273  0.6842  0.2176
 2409TIP3   OH2 7190   0.440   5.353   2.228  0.2777 -0.2046  0.3912
 2409TIP3    H1 7191   0.371   5.371   2.292  0.8890  1.9370  0.5497
 2409TIP3    H2 7192   0.510   5.313   2.279 -0.0414 -0.4238  0.6579
 2410TIP3   OH2 7193   2.748   6.608   1.882 -0.0619 -0.2891  0.2901
 2410TIP3    H1 7194   2.766   6.514   1.893  0.5231 -0.0702  1.3127
 2410TIP3    H2 7195   2.834   6.648   1.871 -0.1815  0.2997  1.3475
 2411TIP3   OH2 7196   4.998   3.370   4.899  0.7373 -0.4462 -0.2221
 2411TIP3    H1 7197   4.946   3.297   4.933  0.6400  0.0850  0.7813
 2411TIP3    H2 7198   5.012   3.347   4.807 -0.1032 -1.2635 -0.1660
 2412TIP3   OH2 7199   5.367   5.970   5.671  0.0599 -0.0364 -0.1649
 2412TIP3    H1 7200   5.273   5.959   5.683  0.1918 -1.5565 -0.3978
 2412TIP3    H2 7201   5.386   6.056   5.709 -1.6291  0.8964 -1.2880
 2413TIP3   OH2 7202   4.811   4.473   1.658 -0.0904 -0.1002  0.3845
 2413TIP3    H1 7203   4.848   4.485   1.571  1.5159 -0.8096  0.9347
 2413TIP3    H2 7204   4.831   4.382   1.681 -0.2494  0.1510  1.6064
 2414TIP3   OH2 7205   5.924   3.809   1.610  0.3601  0.0224  0.0571
 2414TIP3    H1 7206   5.975   3.810   1.691  2.0558 -0.3919 -0.9718
 2414TIP3    H2 7207   5.986   3.835   1.542 -1.3080  1.5197 -0.9841
 2415TIP3   OH2 7208   3.152   4.364   3.727  0.0703  0.2258 -0.1844
 2415TIP3    H1 7209   3.145   4.269   3.720  1.8813  0.0371 -0.0784
 2415TIP3    H2 7210   3.063   4.394   3.743 -0.2587 -1.6605  2.0509
 2416TIP3   OH2 7211   3.836   3.173   1.945 -0.9222 -0.5244  0.1383
 2416TIP3    H1 7212   3.773   3.233   1.906 -0.7908 -0.1406  0.5072
 2416TIP3    H2 7213   3.811   3.169   2.037  0.2731  0.5457  0.5465
 2417TIP3   OH2 7214   2.280   4.666   1.071 -0.0670 -0.0100  0.5581
 2417TIP3    H1 7215   2.337   4.732   1.031 -0.1661 -0.3920 -0.2466
 2417TIP3    H2 7216   2.300   4.670   1.164  0.9967  0.1205  0.3363
 2418TIP3   OH2 7217   0.672   4.710   2.815 -0.6133  0.0174 -0.1095
 2418TIP3    H1 7218   0.708   4.657   2.886 -3.1179 -1.4803  0.1323
 2418TIP3    H2 7219   0.705   4.799   2.833  1.0896 -0.8272  1.2762
 2419TIP3   OH2 7220   1.523   0.542   0.685  0.0942  0.1515 -0.2858
 2419TIP3    H1 7221   1.534   0.505   0.773 -1.9270  0.6204  0.2060
 2419TIP3    H2 7222   1.557   0.474   0.626  0.8823 -0.4410  0.8030
 2420TIP3   OH2 7223   6.927   4.107   4.922 -0.2936  0.1432  0.0047
 2420TIP3    H1 7224   6.936   4.177   4.987  1.0044 -0.3738  0.4057
 2420TIP3    H2 7225   7.015   4.071   4.914 -0.7979 -0.9428 -0.7686
 2421TIP3   OH2 7226   4.798   3.835   5.770 -0.5532 -0.4422  0.2956
 2421TIP3    H1 7227   4.776   3.829   5.863  1.1726  0.2018  0.7921
 2421TIP3    H2 7228   4.801   3.744   5.740  2.3901 -0.9812  1.8287
 2422TIP3   OH2 7229   5.045   1.445   0.290  0.4131 -0.3753  0.1072
 2422TIP3    H1 7230   4.971   1.463   0.231  1.1497 -1.2422 -1.1319
 2422TIP3    H2 7231   5.122   1.465   0.238  1.0742 -0.4763  1.0330
 2423TIP3   OH2 7232   2.904   2.767   0.580  0.8400 -0.3106 -0.7414
 2423TIP3    H1 7233   2.916   2.817   0.661 -1.7460 -0.8494  0.0503
 2423TIP3    H2 7234   2.833   2.811   0.535  1.5554 -0.6470 -2.2443
 2424TIP3   OH2 7235   5.232   0.065   1.408  0.0816  0.3783 -0.3359
 2424TIP3    H1 7236   5.194   0.031   1.327  0.0016  2.0158 -1.0350
 2424TIP3    H2 7237   5.188   0.016   1.478  0.3295 -1.2323 -1.2640
 2425TIP3   OH2 7238   4.924   1.673   0.467 -0.8813  0.5463  0.1613
 2425TIP3    H1 7239   4.976   1.697   0.391 -0.0367 -0.2139  0.4785
 2425TIP3    H2 7240   4.970   1.598   0.505 -1.8478  0.2699  0.8350
 2426TIP3   OH2 7241   3.783   6.222   0.414  0.0294 -0.4787  0.1435
 2426TIP3    H1 7242   3.860   6.166   0.406  1.3474  1.3124 -0.2741
 2426TIP3    H2 7243   3.745   6.223   0.326  0.5245 -0.0076 -0.0669
 2427TIP3   OH2 7244   2.824   6.142   1.704  0.3250 -0.3194  0.1498
 2427TIP3    H1 7245   2.858   6.075   1.644 -0.9297 -1.2664  0.4554
 2427TIP3    H2 7246   2.803   6.094   1.784 -1.1297  0.3269  0.1803
 2428TIP3   OH2 7247   2.590   3.477   1.215  0.5926  0.0992 -0.1580
 2428TIP3    H1 7248   2.644   3.412   1.171 -0.2150 -0.1183 -0.8748
 2428TIP3    H2 7249   2.640   3.558   1.209 -0.3548  0.6005 -3.5004
 2429TIP3   OH2 7250   3.182   1.024   1.958  0.5826 -0.0056  0.6340
 2429TIP3    H1 7251   3.191   1.104   2.011  0.4409  0.8994 -0.6594
 2429TIP3    H2 7252   3.213   1.049   1.871 -4.7058  0.5334 -1.5297
 2430TIP3   OH2 7253   5.713   3.044   2.709 -0.3632 -0.1739 -0.6377
 2430TIP3    H1 7254   5.709   2.951   2.686  1.1515 -0.3175 -0.4488
 2430TIP3    H2 7255   5.764   3.046   2.790 -0.5858  0.8007 -0.5128
 2431TIP3   OH2 7256   3.650   2.029   3.888  0.6592  0.0795  0.1015
 2431TIP3    H1 7257   3.653   2.111   3.840  1.2386  0.0390  0.0605
 2431TIP3    H2 7258   3.566   1.990   3.865  0.5025  0.5321 -0.0905
 2432TIP3   OH2 7259   1.523   6.475   4.776  0.2433 -0.4668  0.3096
 2432TIP3    H1 7260   1.569   6.558   4.765 -0.1753 -0.2586  0.0843
 2432TIP3    H2 7261   1.590   6.413   4.803  0.4265  0.1341  1.3242
 2433TIP3   OH2 7262   2.774   0.958   2.551  0.4644 -0.0906  0.0059
 2433TIP3    H1 7263   2.693   0.932   2.594  0.5408  0.6773  0.6409
 2433TIP3    H2 7264   2.831   0.881   2.557 -0.3540 -0.7905 -0.8433
 2434TIP3   OH2 7265   6.845   5.782   1.645 -0.2434  0.1053 -0.0489
 2434TIP3    H1 7266   6.929   5.738   1.660 -0.7722 -1.1907 -0.7374
 2434TIP3    H2 7267   6.781   5.728   1.691 -0.7218  1.0060  0.3557
 2435TIP3   OH2 7268   4.375   1.541   1.874 -0.5241 -0.1546 -0.3088
 2435TIP3    H1 7269   4.357   1.454   1.836  0.2353 -0.1433 -0.7176
 2435TIP3    H2 7270   4.458   1.530   1.921  0.9953  0.9615 -2.5504
 2436TIP3   OH2 7271   2.207   0.150   0.568 -0.2553 -0.1380 -0.2894
 2436TIP3    H1 7272   2.164   0.208   0.505 -0.6210 -0.4119 -0.2924
 2436TIP3    H2 7273   2.272   0.206   0.612  0.1512  0.0053 -1.0508
 2437TIP3   OH2 7274   7.071   5.600   2.216  0.0374  0.2809 -0.4488
 2437TIP3    H1 7275   7.032   5.513   2.203 -0.4930  0.6055 -1.0750
 2437TIP3    H2 7276   7.110   5.621   2.132  2.1882 -0.3116  0.3362
 2438TIP3   OH2 7277   2.518   3.182   3.053  0.4071  0.2473  0.1235
 2438TIP3    H1 7278   2.566   3.147   2.978 -1.5795 -0.6506 -0.8213
 2438TIP3    H2 7279   2.475   3.260   3.019  0.1131  0.2703  0.5489
 2439TIP3   OH2 7280   1.637   6.256   2.032  0.6479  0.4816 -0.5887
 2439TIP3    H1 7281   1.572   6.262   2.102  0.9215  0.0871 -0.2942
 2439TIP3    H2 7282   1.598   6.303   1.958 -0.0985 -0.0082 -0.5158
 2440TIP3   OH2 7283   2.421   1.178   1.281  0.3813  0.2378  0.3684
 2440TIP3    H1 7284   2.505   1.137   1.259  0.7704  0.9944  0.4077
 2440TIP3    H2 7285   2.360   1.146   1.214  0.7822 -0.0326  0.1266
 2441TIP3   OH2 7286   2.658   5.465   3.010 -0.1753 -0.0630 -1.0841
 2441TIP3    H1 7287   2.615   5.474   2.924 -0.9655 -1.5797 -0.8928
 2441TIP3    H2 7288   2.736   5.412   2.992 -0.3795 -0.4424 -0.8728
 2442TIP3   OH2 7289   4.293   3.219   3.088  0.3904 -0.1100 -0.0499
 2442TIP3    H1 7290   4.332   3.252   3.169  1.8460 -1.4256 -0.1653
 2442TIP3    H2 7291   4.204   3.254   3.089  1.2966  2.4771  0.5685
 2443TIP3   OH2 7292   3.104   6.302   1.000  0.1666 -0.3425  0.0910
 2443TIP3    H1 7293   3.021   6.254   0.998  0.5061 -1.0172  1.3185
 2443TIP3    H2 7294   3.112   6.340   0.912 -2.6782  1.8659  0.6459
 2444TIP3   OH2 7295   4.242   4.766   4.903  0.0782  0.2345 -0.1977
 2444TIP3    H1 7296   4.320   4.741   4.952 -0.1090  0.4693  0.2290
 2444TIP3    H2 7297   4.169   4.747   4.963 -0.1654  0.3888 -0.4422
 2445TIP3   OH2 7298   1.572   2.067   1.779  0.2076 -0.5256 -0.5688
 2445TIP3    H1 7299   1.646   2.036   1.832  1.7406  0.2084 -2.1909
 2445TIP3    H2 7300   1.498   2.068   1.840  1.8439  0.1600  1.5284
 2446TIP3   OH2 7301   6.755   3.975   5.454  0.1412  0.2581 -0.3876
 2446TIP3    H1 7302   6.777   3.891   5.494 -1.0662 -1.1688 -2.4833
 2446TIP3    H2 7303   6.671   3.999   5.493 -1.1670 -1.2615 -2.0790
 2447TIP3   OH2 7304   2.415   6.343   5.413 -0.1339 -0.4340  0.9390
 2447TIP3    H1 7305   2.345   6.348   5.348  1.2368 -1.0214 -0.6582
 2447TIP3    H2 7306   2.493   6.316   5.364  0.8991 -1.3149  2.8889
 2448TIP3   OH2 7307   3.771   0.558   3.842  0.6438 -0.7564  0.3935
 2448TIP3    H1 7308   3.854   0.555   3.891  0.8052 -1.5881  0.0870
 2448TIP3    H2 7309   3.722   0.629   3.882  0.9607 -1.1255  1.4710
 2449TIP3   OH2 7310   6.499   5.245   2.330  0.5096 -0.2596  0.1152
 2449TIP3    H1 7311   6.406   5.258   2.310  1.0514  3.7993 -0.8350
 2449TIP3    H2 7312   6.502   5.230   2.424 -1.1088 -0.1714  0.2059
 2450TIP3   OH2 7313   3.223   3.779   5.565  0.3644 -0.5398  0.5713
 2450TIP3    H1 7314   3.175   3.830   5.500  2.1727 -0.1331 -0.4923
 2450TIP3    H2 7315   3.179   3.694   5.566  0.0786 -0.4215 -0.8813
 2451TIP3   OH2 7316   6.996   1.062   5.315 -0.6844 -0.6564  0.4095
 2451TIP3    H1 7317   7.012   0.968   5.323 -0.3699 -0.6558 -0.1723
 2451TIP3    H2 7318   7.032   1.086   5.229 -0.4996  0.0522  0.6781
 2452TIP3   OH2 7319   3.700   5.227   0.267  0.1368  0.0552  0.2715
 2452TIP3    H1 7320   3.679   5.291   0.200 -1.8644  0.2002  0.9616
 2452TIP3    H2 7321   3.782   5.257   0.305 -0.1508  1.5320 -0.2335
 2453TIP3   OH2 7322   6.041   3.902   0.548 -0.1249 -0.3675  0.6040
 2453TIP3    H1 7323   6.094   3.978   0.525  0.4697 -0.2883  2.1401
 2453TIP3    H2 7324   5.961   3.940   0.586 -0.1621 -0.5116  0.6689
 2454TIP3   OH2 7325   6.773   1.939   2.065  0.3655 -0.0999  0.4824
 2454TIP3    H1 7326   6.788   1.870   2.000  1.2405  1.0005 -0.5292
 2454TIP3    H2 7327   6.772   1.893   2.149  1.6610 -1.2491 -0.0985
 2455TIP3   OH2 7328   4.179   0.531   5.604  0.3387 -0.5502 -0.0834
 2455TIP3    H1 7329   4.226   0.482   5.537 -0.7625 -0.2634 -1.0934
 2455TIP3    H2 7330   4.223   0.616   5.608  0.4791 -0.6101 -0.3712
 2456TIP3   OH2 7331   7.068   0.959   3.994 -0.2609 -0.1708 -0.2985
 2456TIP3    H1 7332   7.038   1.026   3.933 -1.8077  0.0123  0.6218
 2456TIP3    H2 7333   7.151   0.927   3.957  0.9160  2.7325 -0.3905
 2457TIP3   OH2 7334   5.477   1.470   5.278 -0.0862 -0.5591  0.0879
 2457TIP3    H1 7335   5.483   1.449   5.372 -0.2581 -1.1945 -0.0405
 2457TIP3    H2 7336   5.542   1.540   5.266 -0.6435  0.1107  0.8417
 2458TIP3   OH2 7337   0.367   4.017   1.896  0.3951  0.0876  0.2754
 2458TIP3    H1 7338   0.273   4.011   1.883 -0.0056 -0.1165  2.8310
 2458TIP3    H2 7339   0.385   4.111   1.902  0.5446  0.1724 -1.1241
 2459TIP3   OH2 7340   3.673   0.218   5.182 -0.2261  0.1420 -0.5897
 2459TIP3    H1 7341   3.600   0.194   5.125  0.2042 -0.8541 -0.7511
 2459TIP3    H2 7342   3.725   0.138   5.189  0.4865  0.6451  0.0700
 2460TIP3   OH2 7343   4.709   1.839   3.038  0.5370 -0.5907  0.4683
 2460TIP3    H1 7344   4.666   1.857   2.955 -0.4221 -1.7001  0.6861
 2460TIP3    H2 7345   4.795   1.879   3.031 -0.3022  1.1944 -0.2196
 2461TIP3   OH2 7346   1.749   6.372   2.435  0.0765 -0.5338 -0.6840
 2461TIP3    H1 7347   1.790   6.400   2.353 -0.9762  2.9680 -0.1993
 2461TIP3    H2 7348   1.659   6.353   2.412 -0.0290 -0.2843 -0.4896
 2462TIP3   OH2 7349   6.523   6.638   2.177  0.4680 -0.2300  0.3347
 2462TIP3    H1 7350   6.496   6.613   2.088  0.4244  0.5275  0.1282
 2462TIP3    H2 7351   6.589   6.574   2.201  0.9384 -0.0671 -0.4986
 2463TIP3   OH2 7352   4.300   6.427   0.211 -0.1810 -0.2326 -0.1986
 2463TIP3    H1 7353   4.207   6.440   0.192 -0.1529  0.9619  0.4373
 2463TIP3    H2 7354   4.331   6.513   0.239  1.3182 -0.4109 -1.2115
 2464TIP3   OH2 7355   2.295   0.903   5.421  0.3567  0.1250  0.0800
 2464TIP3    H1 7356   2.305   0.810   5.440  0.1734  0.2773  0.9668
 2464TIP3    H2 7357   2.384   0.934   5.408  0.8807  0.5981  3.6959
 2465TIP3   OH2 7358   4.928   4.932   0.282  0.4655  0.3159 -0.3382
 2465TIP3    H1 7359   4.887   4.996   0.339  0.2202 -0.4524  0.3782
 2465TIP3    H2 7360   4.855   4.881   0.247  0.6967  0.0212 -0.3991
 2466TIP3   OH2 7361   6.061   4.827   0.221  0.1822  0.6153 -0.1377
 2466TIP3    H1 7362   6.017   4.751   0.260 -0.9204  0.1223 -2.1687
 2466TIP3    H2 7363   6.154   4.812   0.239 -0.1902  0.0575  1.5571
 2467TIP3   OH2 7364   4.233   3.517   1.690 -0.3155 -0.1605  0.1047
 2467TIP3    H1 7365   4.222   3.467   1.770  0.3707 -1.3482 -0.5081
 2467TIP3    H2 7366   4.229   3.609   1.717 -0.9876 -0.5444  1.3448
 2468TIP3   OH2 7367   4.163   4.950   4.271  1.2279 -0.4291  0.6476
 2468TIP3    H1 7368   4.206   4.911   4.195  0.2610 -1.9280  0.8194
 2468TIP3    H2 7369   4.131   4.875   4.322 -0.3919  0.5782  1.2098
 2469TIP3   OH2 7370   5.019   3.152   0.991  0.3615 -0.6250  0.9229
 2469TIP3    H1 7371   4.927   3.126   1.000 -0.0521  0.8438  1.1972
 2469TIP3    H2 7372   5.068   3.071   1.005 -0.9159 -1.7110 -0.4903
 2470TIP3   OH2 7373   5.432   3.126   2.891 -0.1601 -0.3658  0.0758
 2470TIP3    H1 7374   5.458   3.043   2.931  1.1471  0.3676  0.7930
 2470TIP3    H2 7375   5.488   3.192   2.932  0.3384  0.5943 -2.0161
 2471TIP3   OH2 7376   3.884   3.321   1.317 -0.7800 -0.0497  0.7353
 2471TIP3    H1 7377   3.942   3.259   1.362 -1.5322 -1.6161 -0.3957
 2471TIP3    H2 7378   3.924   3.333   1.231 -0.8812  0.7192  0.7859
 2472TIP3   OH2 7379   5.405   3.882   0.964 -0.1217  0.8838  0.7090
 2472TIP3    H1 7380   5.323   3.890   0.916 -0.3979  0.4627  1.1043
 2472TIP3    H2 7381   5.445   3.801   0.933 -0.4289  0.4700  1.3638
 2473TIP3   OH2 7382   3.626   3.985   2.417 -0.4895  0.1328 -0.6062
 2473TIP3    H1 7383   3.564   3.997   2.489  0.7727  1.3308  0.3341
 2473TIP3    H2 7384   3.607   4.058   2.357  0.8639  1.3484  0.3721
 2474TIP3   OH2 7385   1.670   5.486   2.422 -0.0618 -0.0068  0.2263
 2474TIP3    H1 7386   1.588   5.500   2.471 -0.2453 -2.7076  0.8768
 2474TIP3    H2 7387   1.642   5.441   2.342  0.7106 -0.3740  0.1576
 2475TIP3   OH2 7388   0.098   0.105   4.905 -0.1130  0.0717  0.0734
 2475TIP3    H1 7389   0.140   0.024   4.878  2.8187  2.0656 -2.0762
 2475TIP3    H2 7390   0.079   0.151   4.823 -1.0268  1.8216  1.2041
 2476TIP3   OH2 7391   0.058   0.380   0.328 -0.3189 -0.5839  0.1166
 2476TIP3    H1 7392   0.078   0.398   0.236 -2.1527 -0.6250 -0.3340
 2476TIP3    H2 7393   0.023   0.462   0.362  1.5565 -0.1825  1.1773
 2477TIP3   OH2 7394   1.378   2.754  -0.019  0.1993  0.4061 -0.4301
 2477TIP3    H1 7395   1.352   2.686   0.044  0.9895 -0.7157 -1.2743
 2477TIP3    H2 7396   1.430   2.816   0.033  2.1346 -1.3017 -0.2124
 2478TIP3   OH2 7397   4.425   4.946   0.133 -0.0109  0.4413 -0.1493
 2478TIP3    H1 7398   4.375   4.883   0.082 -1.2683  0.5750  0.8550
 2478TIP3    H2 7399   4.368   5.023   0.138  0.9326  1.1641 -0.2186
 2479TIP3   OH2 7400   6.190   6.387   3.639  0.4480  0.1307 -0.4319
 2479TIP3    H1 7401   6.215   6.309   3.687  0.3916 -0.6809 -1.6785
 2479TIP3    H2 7402   6.273   6.426   3.613  0.4942  0.8718  0.7380
 2480TIP3   OH2 7403   0.499   1.276   4.872 -0.1850 -0.4038  0.2152
 2480TIP3    H1 7404   0.535   1.210   4.812 -0.1734 -1.2610  1.1284
 2480TIP3    H2 7405   0.454   1.224   4.939  0.3007  0.4971  1.2612
 2481TIP3   OH2 7406   4.187   1.390   0.500 -0.2793 -0.3406 -0.0800
 2481TIP3    H1 7407   4.213   1.303   0.530  0.5354  0.1230  0.5990
 2481TIP3    H2 7408   4.159   1.436   0.580 -2.1056 -0.4255 -0.6149
 2482TIP3   OH2 7409   6.401   5.037   1.283  0.4373 -0.2672 -0.1318
 2482TIP3    H1 7410   6.447   4.985   1.349  1.4708 -0.4668 -0.9936
 2482TIP3    H2 7411   6.416   4.991   1.201  1.4836  1.4235 -0.9452
 2483TIP3   OH2 7412   2.049   3.685   0.938 -0.6967  0.1110 -0.7340
 2483TIP3    H1 7413   2.138   3.675   0.972 -1.2789  1.7327  1.4428
 2483TIP3    H2 7414   2.058   3.747   0.866 -0.2180  1.5903  0.5343
 2484TIP3   OH2 7415   6.865   0.523   2.077 -0.2304 -0.1132 -0.2648
 2484TIP3    H1 7416   6.950   0.509   2.037  0.6074  0.4849  1.2317
 2484TIP3    H2 7417   6.877   0.600   2.133 -2.7826  2.4952 -2.9159
 2485TIP3   OH2 7418   5.858   6.814   2.415  0.1648 -0.0128  0.6410
 2485TIP3    H1 7419   5.777   6.863   2.430 -0.0125  0.2988 -1.0977
 2485TIP3    H2 7420   5.834   6.722   2.427  0.0730  0.1845  2.1691
 2486TIP3   OH2 7421   4.017   1.448   5.681  0.0522 -0.2685  0.0549
 2486TIP3    H1 7422   4.103   1.449   5.724 -0.1492  0.3132  0.4515
 2486TIP3    H2 7423   3.956   1.419   5.749 -0.3863  1.4040  0.4078
 2487TIP3   OH2 7424   4.566   0.029   4.233 -0.2205  0.4806 -0.3303
 2487TIP3    H1 7425   4.556  -0.052   4.282 -0.0816 -0.3481 -1.6401
 2487TIP3    H2 7426   4.481   0.072   4.240  0.0202  0.7551  1.2538
 2488TIP3   OH2 7427   2.332   3.822   2.051  0.0506 -0.1958 -0.2414
 2488TIP3    H1 7428   2.269   3.892   2.067  1.3584  0.9717  0.0263
 2488TIP3    H2 7429   2.296   3.746   2.097 -1.4798  0.2416 -0.6768
 2489TIP3   OH2 7430   4.136   0.013   5.107 -0.4391  0.1147 -0.1075
 2489TIP3    H1 7431   4.041   0.015   5.095 -0.4847  2.3061  0.2767
 2489TIP3    H2 7432   4.168   0.091   5.061  1.1419 -0.3940  0.0757
 2490TIP3   OH2 7433   0.730   2.050   4.107  0.1631  0.1800  0.1937
 2490TIP3    H1 7434   0.648   2.035   4.154  0.3013  0.9946  0.7132
 2490TIP3    H2 7435   0.796   2.059   4.176  0.6429 -0.1679 -0.2109
 2491TIP3   OH2 7436   6.916   4.336   5.226  0.4003  0.0401 -0.4639
 2491TIP3    H1 7437   6.920   4.365   5.316 -1.8288  3.0481 -1.2010
 2491TIP3    H2 7438   6.849   4.267   5.226  0.0658  0.3604  0.0925
 2492TIP3   OH2 7439   1.522   6.485   3.719  0.0179 -0.0583 -0.2835
 2492TIP3    H1 7440   1.480   6.475   3.634 -0.1390  1.4266 -0.4046
 2492TIP3    H2 7441   1.580   6.560   3.709  1.3877 -0.9989  0.4024
 2493TIP3   OH2 7442   3.992   2.609   3.748  0.6065  0.6838 -0.7599
 2493TIP3    H1 7443   4.006   2.670   3.821 -1.7303 -2.1549  2.3781
 2493TIP3    H2 7444   4.070   2.554   3.747 -0.1159 -0.4499  0.9920
 2494TIP3   OH2 7445   2.330   2.459   2.338 -0.5482 -0.4509 -1.1059
 2494TIP3    H1 7446   2.387   2.524   2.297  0.5101 -0.3759  0.4133
 2494TIP3    H2 7447   2.284   2.507   2.406  1.1228 -1.4549  0.8373
 2495TIP3   OH2 7448   3.163   3.985   5.851 -0.0488  0.2193 -0.0515
 2495TIP3    H1 7449   3.091   4.048   5.853  0.3508  0.6740  0.7977
 2495TIP3    H2 7450   3.125   3.906   5.812 -2.0872 -0.8269  3.5488
 2496TIP3   OH2 7451   3.299   4.626   5.038 -0.2402  0.3846 -0.2545
 2496TIP3    H1 7452   3.209   4.603   5.062  0.2961 -1.2692  0.3266
 2496TIP3    H2 7453   3.315   4.710   5.080 -0.6159 -0.6192  2.0412
 2497TIP3   OH2 7454   6.867   3.075   4.744  0.6527  0.1676 -0.2212
 2497TIP3    H1 7455   6.857   2.984   4.772 -0.8384  0.3473 -0.1191
 2497TIP3    H2 7456   6.908   3.069   4.658  1.3777 -0.5492  0.1467
 2498TIP3   OH2 7457   1.530   2.846   3.915  0.5142  0.4540  0.0781
 2498TIP3    H1 7458   1.588   2.808   3.982  0.5259  2.6697  1.4239
 2498TIP3    H2 7459   1.572   2.826   3.832  1.3010 -1.0733  0.8048
 2499TIP3   OH2 7460   6.734   5.588   5.393  0.4344  0.4249 -0.2464
 2499TIP3    H1 7461   6.826   5.610   5.378  0.7630  0.3379  1.4249
 2499TIP3    H2 7462   6.734   5.544   5.478 -1.2514  1.2765  0.2372
 2500TIP3   OH2 7463   6.119   2.133   1.982  0.3244  0.0471  0.5944
 2500TIP3    H1 7464   6.188   2.086   1.935 -0.0799  0.5220 -0.5010
 2500TIP3    H2 7465   6.114   2.218   1.938 -0.9266  0.0374  0.6897
 2501TIP3   OH2 7466   6.152   1.805   5.122 -0.2488  0.1377 -0.1713
 2501TIP3    H1 7467   6.231   1.753   5.136  0.3343  0.2992 -2.5893
 2501TIP3    H2 7468   6.105   1.761   5.051 -1.7571  0.7197  0.4066
 2502TIP3   OH2 7469   4.817   5.541   2.142 -0.0774  0.3942  0.6374
 2502TIP3    H1 7470   4.906   5.560   2.114 -0.1577  0.6280  0.5398
 2502TIP3    H2 7471   4.828   5.486   2.220  0.1325 -1.7542 -0.8410
 2503TIP3   OH2 7472   1.752   0.788   3.406 -0.4064  0.0190  0.6480
 2503TIP3    H1 7473   1.656   0.789   3.405 -0.4093 -0.1518  0.4983
 2503TIP3    H2 7474   1.777   0.865   3.456 -0.6004  1.0970 -0.8510
 2504TIP3   OH2 7475   5.182   3.517   4.552  0.1021 -0.9011  0.2750
 2504TIP3    H1 7476   5.119   3.445   4.541 -1.8202  0.4587  1.6895
 2504TIP3    H2 7477   5.252   3.478   4.605  0.8642 -2.6098 -1.8180
 2505TIP3   OH2 7478   3.242   4.427   3.979 -0.3864  0.3341  0.8817
 2505TIP3    H1 7479   3.244   4.522   3.972  0.3074  0.4345  2.2007
 2505TIP3    H2 7480   3.245   4.397   3.888 -0.4035  1.5645  0.4522
 2506TIP3   OH2 7481   2.045   3.784   5.265 -0.9293 -0.0716  0.4738
 2506TIP3    H1 7482   1.973   3.724   5.288 -0.8342 -0.3007  0.1792
 2506TIP3    H2 7483   2.109   3.772   5.335 -0.0297 -1.7721 -0.5699
 2507TIP3   OH2 7484   6.379   4.114   0.680  0.2562  0.1900  0.2896
 2507TIP3    H1 7485   6.339   4.051   0.620  0.5645  1.6932 -1.6452
 2507TIP3    H2 7486   6.428   4.062   0.743  1.0031 -1.4950 -1.5869
 2508TIP3   OH2 7487   0.697   4.611   3.310 -0.6649 -0.1139  0.8148
 2508TIP3    H1 7488   0.724   4.617   3.218 -1.8713 -0.8391  0.3874
 2508TIP3    H2 7489   0.740   4.684   3.353 -1.4702  1.2981 -0.6799
 2509TIP3   OH2 7490   6.782   0.100   3.312 -0.0733 -0.1529  0.0592
 2509TIP3    H1 7491   6.773   0.059   3.226 -2.3723 -1.3270  0.7924
 2509TIP3    H2 7492   6.730   0.045   3.371 -0.4319  1.8780  1.7569
 2510TIP3   OH2 7493   1.561   3.991   1.027 -0.4602  0.4655 -0.4411
 2510TIP3    H1 7494   1.562   3.981   1.123  0.4737 -0.1281 -0.4939
 2510TIP3    H2 7495   1.548   3.902   0.995  0.6266  0.4439 -0.8702
 2511TIP3   OH2 7496   2.920   3.185   0.949  0.2874 -0.0039  0.0772
 2511TIP3    H1 7497   3.012   3.173   0.927  0.5945 -0.2972  1.4454
 2511TIP3    H2 7498   2.912   3.152   1.038 -1.2383 -0.3762 -0.1652
 2512TIP3   OH2 7499   1.074   0.824   5.682  0.1762  0.3535 -0.0771
 2512TIP3    H1 7500   1.033   0.737   5.688  0.4848  0.2460  0.5334
 2512TIP3    H2 7501   1.009   0.883   5.721  1.0432  0.0264  1.9781
 2513TIP3   OH2 7502   7.072   5.365   4.074  0.5272 -0.1977  0.2446
 2513TIP3    H1 7503   7.130   5.390   4.146  0.4993 -0.5200  0.3792
 2513TIP3    H2 7504   7.008   5.307   4.114  1.4344 -1.6631 -0.3362
 2514TIP3   OH2 7505   2.588   1.032   0.503 -0.5118  0.2162 -0.5206
 2514TIP3    H1 7506   2.614   1.120   0.474 -0.3031  0.2487 -0.2347
 2514TIP3    H2 7507   2.650   0.973   0.461 -1.2913  0.1034 -1.5732
 2515TIP3   OH2 7508   6.387   6.273   1.890  0.0724  0.1851 -0.1464
 2515TIP3    H1 7509   6.353   6.239   1.973 -0.2770  0.6552 -0.0941
 2515TIP3    H2 7510   6.478   6.245   1.888 -0.3301 -1.1842 -0.3271
 2516TIP3   OH2 7511   4.467   5.945   4.102 -0.3462 -0.0770 -0.7568
 2516TIP3    H1 7512   4.493   5.967   4.012 -0.7170  0.1286 -0.8126
 2516TIP3    H2 7513   4.529   5.877   4.128  2.9781  3.1710  0.6056
 2517TIP3   OH2 7514   5.557   2.735   4.137  0.4255  0.3576  0.1004
 2517TIP3    H1 7515   5.528   2.804   4.078  1.5732  0.1577 -0.7277
 2517TIP3    H2 7516   5.653   2.741   4.136  0.5997 -1.6932 -0.5746
 2518TIP3   OH2 7517   4.649   2.075   0.548  0.1503  0.1828  0.2654
 2518TIP3    H1 7518   4.570   2.080   0.601 -0.4206 -2.0743 -0.2500
 2518TIP3    H2 7519   4.692   1.994   0.576  0.9688  0.0763 -1.1727
 2519TIP3   OH2 7520   4.778   6.740   0.459  0.2583 -0.4183  0.9946
 2519TIP3    H1 7521   4.848   6.789   0.416  0.7846 -1.1135  1.0321
 2519TIP3    H2 7522   4.703   6.750   0.401  0.7227 -0.6388  0.3364
 2520TIP3   OH2 7523   5.830   2.102   3.406 -0.3971  0.3029  0.1886
 2520TIP3    H1 7524   5.902   2.039   3.400  1.7928  2.2351  3.0917
 2520TIP3    H2 7525   5.851   2.168   3.340  0.0192  0.4062  0.4191
 2521TIP3   OH2 7526   0.049   4.435   3.435  0.3675 -0.1165  0.6060
 2521TIP3    H1 7527   0.122   4.461   3.379  0.0929  0.8432  0.6754
 2521TIP3    H2 7528   0.064   4.342   3.451  1.8953  0.1729  1.0804
 2522TIP3   OH2 7529   2.676   2.550   3.035 -0.6951 -0.1642 -0.5188
 2522TIP3    H1 7530   2.721   2.477   2.992 -1.9650 -0.1185 -2.0094
 2522TIP3    H2 7531   2.737   2.624   3.028 -0.1608 -0.6172 -0.6621
 2523TIP3   OH2 7532   7.064   4.671   1.249  0.0450  0.0626  0.8007
 2523TIP3    H1 7533   6.971   4.676   1.226  0.3175 -1.5371 -0.9241
 2523TIP3    H2 7534   7.068   4.610   1.323 -0.3025  0.4194  1.1176
 2524TIP3   OH2 7535   1.697   5.855   1.504  0.4982  0.0558 -0.0941
 2524TIP3    H1 7536   1.747   5.809   1.437  0.7245  0.5195 -0.2445
 2524TIP3    H2 7537   1.613   5.809   1.507  1.1945 -1.2222  0.7123
 2525TIP3   OH2 7538   1.874   0.998   4.786  0.0171  0.2312  0.9684
 2525TIP3    H1 7539   1.855   0.919   4.736 -0.1881  2.8748 -3.7809
 2525TIP3    H2 7540   1.794   1.017   4.834 -0.2398 -1.8647  1.4477
 2526TIP3   OH2 7541   0.474   2.061   1.169 -0.3386  0.3169 -0.0126
 2526TIP3    H1 7542   0.511   2.039   1.254 -0.0773 -1.5779 -0.5725
 2526TIP3    H2 7543   0.421   1.985   1.146 -1.4616  1.3489 -0.9729
 2527TIP3   OH2 7544   5.909   5.966   3.429  0.2550 -0.1318 -0.3853
 2527TIP3    H1 7545   5.901   6.036   3.493 -1.3857  1.1580 -1.8866
 2527TIP3    H2 7546   5.968   6.002   3.362 -0.9157  0.0054 -1.3664
 2528TIP3   OH2 7547   2.264   4.730   0.231  0.3908  0.2285 -0.6843
 2528TIP3    H1 7548   2.185   4.737   0.285  0.4496  1.2854 -0.7169
 2528TIP3    H2 7549   2.237   4.760   0.145  0.7865  0.4099 -0.7446
 2529TIP3   OH2 7550   5.281   4.463   4.379  0.1979  0.9144 -0.3456
 2529TIP3    H1 7551   5.256   4.387   4.432  0.7032  0.8947 -0.1295
 2529TIP3    H2 7552   5.211   4.472   4.315  0.4864 -0.1861 -0.8388
 2530TIP3   OH2 7553   2.544   4.742   4.107  0.5039  0.4913 -0.3604
 2530TIP3    H1 7554   2.542   4.705   4.019 -1.8049 -0.1474 -0.0961
 2530TIP3    H2 7555   2.556   4.666   4.165 -0.8730  0.5410  0.0093
 2531TIP3   OH2 7556   0.808   3.908   0.487 -0.0753 -0.1636 -0.0125
 2531TIP3    H1 7557   0.797   3.881   0.396 -0.0922 -1.0234  0.2449
 2531TIP3    H2 7558   0.888   3.961   0.487 -0.2501  0.0999 -0.5823
 2532TIP3   OH2 7559   3.274   0.726   1.605 -0.1625 -0.4109 -0.6763
 2532TIP3    H1 7560   3.293   0.691   1.518 -2.1551 -1.0204 -0.9174
 2532TIP3    H2 7561   3.224   0.805   1.589  3.5474  2.3593 -0.1130
 2533TIP3   OH2 7562   4.755   6.690   4.316  0.1787  0.0792  0.0336
 2533TIP3    H1 7563   4.831   6.702   4.372 -0.8458 -1.0773  1.7619
 2533TIP3    H2 7564   4.697   6.763   4.339  0.1207  0.1022 -0.1809
 2534TIP3   OH2 7565   2.397   6.178   0.455  0.3072  0.2890  0.4711
 2534TIP3    H1 7566   2.478   6.130   0.437  1.9958  2.6535  1.1921
 2534TIP3    H2 7567   2.379   6.162   0.547  0.6269  0.6394  0.6000
 2535TIP3   OH2 7568   5.225   1.977   3.769  0.5457 -0.3952 -0.1776
 2535TIP3    H1 7569   5.278   1.965   3.690 -0.2391 -0.1452 -0.7514
 2535TIP3    H2 7570   5.265   2.051   3.815  1.6611 -1.2191  0.2263
 2536TIP3   OH2 7571   4.667   0.206   1.114 -0.9893 -0.0110  0.3511
 2536TIP3    H1 7572   4.762   0.199   1.105 -1.0207 -0.2311  0.1644
 2536TIP3    H2 7573   4.641   0.266   1.044 -1.0045 -0.0660  0.3099
 2537TIP3   OH2 7574   4.077   4.652   2.798  0.1055 -0.3879 -0.3749
 2537TIP3    H1 7575   4.057   4.745   2.803 -0.7496 -0.5911  0.1712
 2537TIP3    H2 7576   4.151   4.640   2.858  0.2810 -0.0518 -0.5192
 2538TIP3   OH2 7577   2.134   6.282   2.477  0.0138  0.0927 -0.2478
 2538TIP3    H1 7578   2.094   6.197   2.459 -2.3587  0.8323  1.0894
 2538TIP3    H2 7579   2.221   6.261   2.512 -1.3463 -1.9838  2.2258
 2539TIP3   OH2 7580   4.311   4.130   1.088  0.0986 -0.3030  0.3620
 2539TIP3    H1 7581   4.260   4.121   1.007  0.4479 -0.5435  0.1670
 2539TIP3    H2 7582   4.320   4.225   1.100  1.1300 -0.2613 -0.5793
 2540TIP3   OH2 7583   5.359   3.465   2.935  0.5559 -0.2050  0.0854
 2540TIP3    H1 7584   5.446   3.457   2.897  1.9339 -2.2154  3.2432
 2540TIP3    H2 7585   5.311   3.390   2.900  0.7857 -0.2766 -0.0790
 2541TIP3   OH2 7586   4.363   5.567   5.508  0.5029 -0.1785  0.3661
 2541TIP3    H1 7587   4.314   5.596   5.585 -0.0764 -0.4052  0.0893
 2541TIP3    H2 7588   4.345   5.473   5.502 -0.1722 -0.0045 -0.5476
 2542TIP3   OH2 7589   4.798   3.662   4.112  1.3695 -0.5370 -0.2161
 2542TIP3    H1 7590   4.830   3.607   4.040  1.7868 -0.8054  0.1729
 2542TIP3    H2 7591   4.769   3.743   4.069 -0.6070 -1.5922 -0.9839
 2543TIP3   OH2 7592   3.268   1.520   1.824  1.0267 -0.3687  0.2376
 2543TIP3    H1 7593   3.186   1.492   1.864  0.4246  0.9229 -0.0440
 2543TIP3    H2 7594   3.329   1.448   1.840 -0.3069 -1.5835 -0.0227
 2544TIP3   OH2 7595   0.753   4.515   1.008 -0.2505 -0.0557 -0.2672
 2544TIP3    H1 7596   0.719   4.461   0.937 -2.0970 -1.4280  1.5476
 2544TIP3    H2 7597   0.813   4.457   1.055  1.3316  0.9878 -0.9084
 2545TIP3   OH2 7598   1.161   2.338   2.879  0.4699  0.4252  0.2074
 2545TIP3    H1 7599   1.113   2.417   2.905  0.0443  0.4434 -0.6138
 2545TIP3    H2 7600   1.243   2.342   2.929  1.5787  2.6768 -1.6442
 2546TIP3   OH2 7601   6.554   4.557   5.160 -0.1768  0.1100  0.0907
 2546TIP3    H1 7602   6.461   4.536   5.154  0.1877 -1.2915 -1.8701
 2546TIP3    H2 7603   6.572   4.610   5.082  0.4754  1.3514  1.0431
 2547TIP3   OH2 7604   2.954   5.577   0.752  0.9175 -0.3184 -0.7829
 2547TIP3    H1 7605   2.874   5.601   0.705 -0.7493  0.0719  2.0414
 2547TIP3    H2 7606   3.020   5.638   0.719 -0.6481  1.2061 -1.2493
 2548TIP3   OH2 7607   3.923   2.217   5.380  0.0872  0.6762 -0.2846
 2548TIP3    H1 7608   3.976   2.221   5.300 -0.3910 -1.0080 -0.7143
 2548TIP3    H2 7609   3.922   2.307   5.412 -0.0182  1.4861 -2.3807
 2549TIP3   OH2 7610   3.362   3.067   5.411  0.0575 -0.0805 -0.3317
 2549TIP3    H1 7611   3.383   2.974   5.415 -1.1200 -0.4066 -1.1950
 2549TIP3    H2 7612   3.272   3.073   5.446  0.4703  0.8678  0.6378
 2550TIP3   OH2 7613   2.144   3.294   3.885 -0.2417  0.0066  0.3349
 2550TIP3    H1 7614   2.158   3.380   3.846 -0.8204  0.4738  1.1197
 2550TIP3    H2 7615   2.169   3.232   3.817  0.5436  0.7897 -0.1111
 2551TIP3   OH2 7616   2.734   3.785   3.307  0.0094 -0.3077 -0.3236
 2551TIP3    H1 7617   2.816   3.821   3.273  2.5590 -1.8599  3.4363
 2551TIP3    H2 7618   2.730   3.696   3.271 -1.5295  0.5917 -2.5494
 2552TIP3   OH2 7619   0.346   1.848   1.612 -0.2875  0.3336 -0.2505
 2552TIP3    H1 7620   0.437   1.823   1.629  0.6405 -0.5154 -4.8656
 2552TIP3    H2 7621   0.294   1.795   1.672  2.1842 -0.9095  0.9515
 2553TIP3   OH2 7622   5.258   1.628   2.865 -0.1121 -0.5716 -0.4668
 2553TIP3    H1 7623   5.286   1.565   2.799 -0.9440 -0.6559 -0.7534
 2553TIP3    H2 7624   5.173   1.595   2.895 -0.1678 -0.0356 -0.0159
 2554TIP3   OH2 7625   6.674   1.991   0.382 -0.6221  0.6941 -0.1018
 2554TIP3    H1 7626   6.684   2.033   0.468  0.8764 -0.3301  0.2531
 2554TIP3    H2 7627   6.716   2.052   0.321 -1.8352  1.5047 -0.1735
 2555TIP3   OH2 7628   5.052   5.293   1.501  0.0886 -0.0774 -0.1875
 2555TIP3    H1 7629   4.961   5.277   1.475  0.3896 -1.6908 -0.3551
 2555TIP3    H2 7630   5.085   5.206   1.524  2.2322  0.0986 -2.2158
 2556TIP3   OH2 7631   2.526   3.890   0.334  0.1445  0.2846 -0.1947
 2556TIP3    H1 7632   2.545   3.934   0.252  0.4259  1.2389  0.3682
 2556TIP3    H2 7633   2.579   3.936   0.399  0.0218 -0.5332  0.5059
 2557TIP3   OH2 7634   5.173   2.273   5.064 -0.8195 -0.2603 -0.6803
 2557TIP3    H1 7635   5.258   2.286   5.020 -0.3451 -0.3799  0.1871
 2557TIP3    H2 7636   5.133   2.201   5.015 -0.8493  0.4166 -1.6968
 2558TIP3   OH2 7637   1.819   3.082   3.609  0.0134  0.6348  0.2773
 2558TIP3    H1 7638   1.846   3.016   3.673 -1.5852  1.0286  1.4240
 2558TIP3    H2 7639   1.900   3.109   3.566  1.0236 -0.2476  1.5610
 2559TIP3   OH2 7640   4.152   4.815   1.762  0.4265  0.4066 -0.3307
 2559TIP3    H1 7641   4.204   4.748   1.807 -0.2013 -0.0141 -0.2170
 2559TIP3    H2 7642   4.191   4.898   1.789  0.9440  0.1049 -0.1314
 2560TIP3   OH2 7643   4.611   5.693   3.692  0.3460  0.4233 -0.3451
 2560TIP3    H1 7644   4.688   5.640   3.669  0.5306  0.4461  0.2138
 2560TIP3    H2 7645   4.549   5.677   3.621  0.7076  0.0752 -0.5859
 2561TIP3   OH2 7646   1.719   4.300   2.077 -0.1314 -0.1960 -0.0464
 2561TIP3    H1 7647   1.796   4.244   2.075 -0.5964 -0.8328 -0.3269
 2561TIP3    H2 7648   1.646   4.241   2.061 -0.5642  0.6054 -1.0860
 2562TIP3   OH2 7649   0.945   1.673   2.107  0.0554 -0.0510 -0.0261
 2562TIP3    H1 7650   0.945   1.626   2.190 -0.9661  0.2261  0.1370
 2562TIP3    H2 7651   0.854   1.695   2.092  0.3867  0.9548 -0.6269
 2563TIP3   OH2 7652   6.324   6.237   1.607 -0.8885  0.0255  0.1242
 2563TIP3    H1 7653   6.310   6.230   1.702  0.7002  0.5173  0.4337
 2563TIP3    H2 7654   6.318   6.331   1.589  0.0258  0.0639 -0.0284
 2564TIP3   OH2 7655   0.785   3.199   4.689  0.0558 -0.8175 -0.0368
 2564TIP3    H1 7656   0.858   3.258   4.671 -0.1989 -0.2566  0.7343
 2564TIP3    H2 7657   0.784   3.190   4.784 -2.4389  1.2757  0.2584
 2565TIP3   OH2 7658   5.257   0.816   3.156 -0.3877  0.4084  0.2203
 2565TIP3    H1 7659   5.177   0.780   3.194  0.1207 -0.8577  0.1252
 2565TIP3    H2 7660   5.226   0.883   3.095 -1.3306  0.5031  0.7765
 2566TIP3   OH2 7661   3.996   4.721   5.036 -0.3201  0.2708  0.2873
 2566TIP3    H1 7662   3.946   4.735   5.116 -2.3758  2.2960 -1.2380
 2566TIP3    H2 7663   3.936   4.744   4.965  1.8199 -0.1767 -1.8057
 2567TIP3   OH2 7664   5.081   5.558   2.475 -0.2616 -0.4389 -0.0666
 2567TIP3    H1 7665   5.128   5.510   2.544  0.3233  0.1666 -0.0374
 2567TIP3    H2 7666   5.016   5.495   2.443  0.1998 -1.1064  0.2724
 2568TIP3   OH2 7667   3.016   6.547   4.973 -0.1801  0.1219 -0.1607
 2568TIP3    H1 7668   3.096   6.563   5.022 -0.1630 -1.1252  0.2555
 2568TIP3    H2 7669   3.029   6.594   4.890  1.4800 -0.9764 -0.5777
 2569TIP3   OH2 7670   4.926   1.341   3.727 -0.1980  0.2519 -0.0159
 2569TIP3    H1 7671   5.013   1.379   3.738  0.2692  0.3344 -3.0651
 2569TIP3    H2 7672   4.873   1.414   3.694 -0.9967 -0.2008  0.2548
 2570TIP3   OH2 7673   1.323  -0.018   1.206 -0.5263  0.0793 -0.8142
 2570TIP3    H1 7674   1.280   0.038   1.141  0.7220  1.1650 -0.7432
 2570TIP3    H2 7675   1.271  -0.007   1.286  0.4534  2.2539 -0.4162
 2571TIP3   OH2 7676   0.310   6.736   1.964 -0.4894  0.9128  0.2700
 2571TIP3    H1 7677   0.315   6.647   1.997 -0.6589  0.9792  0.4761
 2571TIP3    H2 7678   0.373   6.785   2.017  2.2832  0.2445 -2.1109
 2572TIP3   OH2 7679   5.691   2.268   0.643 -0.3387 -0.5778 -0.1771
 2572TIP3    H1 7680   5.600   2.295   0.645 -0.2806 -0.4387  0.6677
 2572TIP3    H2 7681   5.741   2.349   0.637 -0.1172 -0.3062  3.3970
 2573TIP3   OH2 7682   2.254   1.629   5.179 -0.1960 -0.7154  0.2032
 2573TIP3    H1 7683   2.193   1.561   5.208  0.1541 -1.2445 -0.2751
 2573TIP3    H2 7684   2.297   1.591   5.102 -1.3510  0.7685 -1.2561
 2574TIP3   OH2 7685   3.996   4.022   3.809  0.2758 -0.5685  0.3408
 2574TIP3    H1 7686   4.020   3.993   3.897  1.1430  0.8738  0.6143
 2574TIP3    H2 7687   4.062   3.983   3.751  1.3528  0.6628  0.6871
 2575TIP3   OH2 7688   3.688   2.089   1.512 -0.9785  0.1966  0.0810
 2575TIP3    H1 7689   3.740   2.149   1.459  0.6056 -1.8559 -0.7997
 2575TIP3    H2 7690   3.598   2.106   1.484 -0.4563  1.2725 -1.0733
 2576TIP3   OH2 7691   5.046   2.589   0.406  0.5894 -0.3534 -0.2313
 2576TIP3    H1 7692   5.094   2.556   0.482  1.0302 -0.1367 -0.4137
 2576TIP3    H2 7693   5.007   2.671   0.437 -1.0075 -1.3187  0.4059
 2577TIP3   OH2 7694   2.737   1.276   4.299  0.0772  0.2542 -0.3094
 2577TIP3    H1 7695   2.799   1.349   4.305  0.9241 -0.3346 -1.5608
 2577TIP3    H2 7696   2.750   1.240   4.212 -1.2389 -0.6090 -0.1838
 2578TIP3   OH2 7697   3.758   2.842   3.132 -0.1598 -0.0873 -0.1776
 2578TIP3    H1 7698   3.668   2.849   3.099 -0.4909 -0.3889  0.6280
 2578TIP3    H2 7699   3.748   2.807   3.221  0.8805 -1.9881 -0.7580
 2579TIP3   OH2 7700   3.498   2.560   5.276  0.3467 -0.0894 -0.5080
 2579TIP3    H1 7701   3.453   2.628   5.326 -0.8078 -0.3546 -1.1505
 2579TIP3    H2 7702   3.568   2.607   5.230  0.8431  0.3042  0.6148
 2580TIP3   OH2 7703   1.148   3.094   3.909  0.8043  0.0501 -0.1150
 2580TIP3    H1 7704   1.074   3.072   3.966  0.1919  0.1270 -0.8661
 2580TIP3    H2 7705   1.195   3.163   3.955 -1.0767  1.8719 -0.7908
 2581TIP3   OH2 7706   2.152   6.163   0.334  0.5928  0.1969 -0.4243
 2581TIP3    H1 7707   2.245   6.144   0.347  0.2800 -0.3916  1.1340
 2581TIP3    H2 7708   2.116   6.169   0.422 -0.8785  0.3217 -1.0048
 2582TIP3   OH2 7709   0.200   3.716   3.964 -0.0410 -1.0035 -0.3448
 2582TIP3    H1 7710   0.121   3.666   3.986  0.9630 -3.6779 -2.2651
 2582TIP3    H2 7711   0.226   3.758   4.046 -2.3581 -1.6242  0.7885
 2583TIP3   OH2 7712   4.982   3.128   1.315 -0.0773 -0.2053 -0.3139
 2583TIP3    H1 7713   4.962   3.200   1.255 -0.1477 -0.5712 -0.7432
 2583TIP3    H2 7714   4.980   3.167   1.402  0.9537  0.5408 -0.6136
 2584TIP3   OH2 7715   5.853   5.205   5.019  0.1335 -0.3841 -0.0071
 2584TIP3    H1 7716   5.832   5.112   5.032 -0.3692 -0.1453  0.9887
 2584TIP3    H2 7717   5.787   5.237   4.959 -0.4076 -0.4040  0.5662
 2585TIP3   OH2 7718   5.303   6.754   3.186  0.6212  0.1918  0.4761
 2585TIP3    H1 7719   5.285   6.663   3.210 -0.3226  0.6868  1.7040
 2585TIP3    H2 7720   5.262   6.764   3.100  0.2918 -0.4014  0.5576
 2586TIP3   OH2 7721   3.318   6.571   3.445 -0.1035  0.0519  0.4224
 2586TIP3    H1 7722   3.323   6.661   3.414  0.3172  0.0314  0.4199
 2586TIP3    H2 7723   3.374   6.522   3.384 -0.5977 -0.2645  0.2232
 2587TIP3   OH2 7724   6.570   2.072   2.934  0.4126 -0.3074  0.0268
 2587TIP3    H1 7725   6.506   2.115   2.991  0.4991  0.1842 -0.2437
 2587TIP3    H2 7726   6.646   2.058   2.990 -0.3962 -2.1471  0.7503
 2588TIP3   OH2 7727   3.337   0.730   4.440  0.4791  0.0099  0.1341
 2588TIP3    H1 7728   3.429   0.734   4.414  1.0894  1.6074  2.2579
 2588TIP3    H2 7729   3.322   0.638   4.461  1.4275 -0.3587 -0.7270
 2589TIP3   OH2 7730   1.878   2.966   5.762 -0.2094  0.0732  0.0093
 2589TIP3    H1 7731   1.804   2.959   5.822 -0.5793  1.5903 -0.2227
 2589TIP3    H2 7732   1.921   2.881   5.767 -1.8228 -0.7691  0.3225
 2590TIP3   OH2 7733   1.268   4.134   1.925 -0.5218  0.5011 -0.1428
 2590TIP3    H1 7734   1.283   4.162   2.016  0.3263  0.0497 -0.1300
 2590TIP3    H2 7735   1.206   4.062   1.932  2.4214 -2.2132  0.5294
 2591TIP3   OH2 7736   1.103   3.196   0.708  0.5660  0.2909 -0.1060
 2591TIP3    H1 7737   1.107   3.290   0.721 -1.0976  0.3047  0.5848
 2591TIP3    H2 7738   1.162   3.159   0.775  0.4213  0.8016  0.3054
 2592TIP3   OH2 7739   0.853   6.695   4.036 -0.4349 -0.3557 -0.1463
 2592TIP3    H1 7740   0.816   6.744   3.962  0.0879 -0.7968 -0.7098
 2592TIP3    H2 7741   0.895   6.762   4.090 -1.4094  0.0614  0.1326
 2593TIP3   OH2 7742   2.654   3.424   2.759 -0.1827 -0.4008  0.5583
 2593TIP3    H1 7743   2.652   3.506   2.711 -0.4171 -0.5898  0.2465
 2593TIP3    H2 7744   2.734   3.380   2.729 -0.3827 -0.5640  0.2719
 2594TIP3   OH2 7745   2.034   6.079   2.163 -0.7139 -0.1025 -0.1662
 2594TIP3    H1 7746   2.112   6.110   2.116 -1.1084  2.2205  0.5699
 2594TIP3    H2 7747   1.981   6.038   2.095  1.3178 -2.2703 -0.5957
 2595TIP3   OH2 7748   0.666   1.638   5.507 -0.0506 -0.5472  0.0837
 2595TIP3    H1 7749   0.575   1.617   5.531 -0.5156  0.7648 -0.4417
 2595TIP3    H2 7750   0.681   1.724   5.544  0.8925 -0.6139 -0.1144
 2596TIP3   OH2 7751   1.114   4.469   0.538 -0.3042  0.0395 -0.5928
 2596TIP3    H1 7752   1.140   4.556   0.570 -0.1806  0.1552 -1.0039
 2596TIP3    H2 7753   1.169   4.454   0.461 -1.0137  0.0235 -1.1092
 2597TIP3   OH2 7754   4.347   4.816   5.671  0.4035  0.6189 -0.3528
 2597TIP3    H1 7755   4.385   4.728   5.680 -0.9620 -0.1910 -1.9669
 2597TIP3    H2 7756   4.410   4.874   5.715  0.8097 -1.2599  1.7247
 2598TIP3   OH2 7757   0.578   5.743   5.411 -0.0981  0.2468 -0.4295
 2598TIP3    H1 7758   0.573   5.834   5.438  0.9282  0.0314  0.5429
 2598TIP3    H2 7759   0.669   5.718   5.426 -0.3510 -0.9225 -0.7205
 2599TIP3   OH2 7760   4.345   2.104   5.745 -0.2454 -0.0512  0.5911
 2599TIP3    H1 7761   4.258   2.129   5.713 -0.4932  1.1650  2.0972
 2599TIP3    H2 7762   4.337   2.011   5.766 -1.0619 -0.0522  0.3161
 2600TIP3   OH2 7763   4.429   6.091   1.363 -0.3468  0.3058  0.0931
 2600TIP3    H1 7764   4.470   6.157   1.307 -0.2783  1.7623  1.7328
 2600TIP3    H2 7765   4.342   6.127   1.382 -0.5444 -0.3821  0.5328
 2601TIP3   OH2 7766   1.146   1.932   5.653  0.1234 -0.0865  0.0327
 2601TIP3    H1 7767   1.052   1.948   5.653  0.2679  1.0863  1.5977
 2601TIP3    H2 7768   1.184   2.013   5.621  0.6183 -0.3654 -0.0895
 2602TIP3   OH2 7769   6.643   6.096   0.988 -0.2993  0.2492  0.4717
 2602TIP3    H1 7770   6.651   6.104   0.893 -0.7585 -0.0432  0.4058
 2602TIP3    H2 7771   6.551   6.074   1.003 -0.2281  0.2790  0.9841
 2603TIP3   OH2 7772   1.810   3.273   3.789 -0.1146 -0.1750  0.1139
 2603TIP3    H1 7773   1.901   3.304   3.790 -0.2417  0.1809  0.7649
 2603TIP3    H2 7774   1.805   3.217   3.711  0.6151 -0.0579 -0.0232
 2604TIP3   OH2 7775   2.456   6.606   2.439  0.1018  0.1336  0.0212
 2604TIP3    H1 7776   2.527   6.670   2.440  1.2021 -1.0458  0.1793
 2604TIP3    H2 7777   2.495   6.527   2.401 -1.0934 -0.5850  0.2246
 2605TIP3   OH2 7778   2.097   1.382   5.209  0.3633 -0.3450 -0.0387
 2605TIP3    H1 7779   2.122   1.311   5.150 -0.4487 -0.2983 -0.4495
 2605TIP3    H2 7780   2.145   1.363   5.290  0.7131 -0.9614 -0.3787
 2606TIP3   OH2 7781   5.899   0.248   2.630 -0.0827 -0.2106  0.0792
 2606TIP3    H1 7782   5.988   0.260   2.597 -0.6161  1.3912 -0.8818
 2606TIP3    H2 7783   5.895   0.155   2.654  1.3789 -0.6806 -1.2849
 2607TIP3   OH2 7784   4.110   4.388   1.239 -0.6303 -0.2256 -0.1320
 2607TIP3    H1 7785   4.163   4.437   1.301 -0.9773  0.0514 -0.0468
 2607TIP3    H2 7786   4.023   4.427   1.246 -0.8794 -0.7628 -0.1689
 2608TIP3   OH2 7787   1.972   4.772   3.945 -0.4524 -0.5573 -0.1634
 2608TIP3    H1 7788   1.947   4.849   3.893 -3.1002  0.1270  1.8829
 2608TIP3    H2 7789   2.063   4.789   3.970 -0.2149  0.7172 -1.7119
 2609TIP3   OH2 7790   2.971   4.774   2.465 -0.1896  0.1846 -0.0994
 2609TIP3    H1 7791   2.958   4.729   2.549 -0.3533  0.7826  0.1965
 2609TIP3    H2 7792   2.885   4.808   2.442 -0.0084  0.6019 -0.1761
 2610TIP3   OH2 7793   2.466   2.886   5.688 -0.0837  0.0017 -0.1999
 2610TIP3    H1 7794   2.372   2.880   5.701  0.2785 -1.6420  2.3312
 2610TIP3    H2 7795   2.493   2.797   5.664  0.7199  0.6935 -2.0076
 2611TIP3   OH2 7796   0.783   4.256   2.714  0.1653 -0.5863 -0.0852
 2611TIP3    H1 7797   0.842   4.205   2.770 -0.3313 -0.1937  0.8183
 2611TIP3    H2 7798   0.833   4.273   2.634  0.7951 -1.3792  0.1350
 2612TIP3   OH2 7799   6.615   4.108   1.277  0.1758  0.2723  0.3216
 2612TIP3    H1 7800   6.596   4.044   1.208  0.2191  1.2064 -0.5826
 2612TIP3    H2 7801   6.625   4.055   1.356 -0.9744 -0.7191 -0.1668
 2613TIP3   OH2 7802   6.717   4.381   1.721 -0.5151  0.1918  0.3665
 2613TIP3    H1 7803   6.741   4.434   1.797  1.3176  0.5061 -0.3783
 2613TIP3    H2 7804   6.791   4.322   1.709 -1.3706 -0.7597 -0.4023
 2614TIP3   OH2 7805   0.579   1.687   1.106  0.1318 -0.0345 -0.0734
 2614TIP3    H1 7806   0.656   1.633   1.120  0.1237  0.3088  1.4057
 2614TIP3    H2 7807   0.606   1.753   1.042  1.3553  0.6275  1.0842
 2615TIP3   OH2 7808   6.608   3.360   0.448  0.1874 -0.2895 -0.2528
 2615TIP3    H1 7809   6.694   3.326   0.421 -0.6187 -1.1072 -1.9863
 2615TIP3    H2 7810   6.583   3.419   0.377 -1.6738 -1.8440 -0.9658
 2616TIP3   OH2 7811   1.668   0.307   1.678  0.1108  0.2088 -0.1400
 2616TIP3    H1 7812   1.666   0.213   1.696 -0.5908  0.1291 -0.6115
 2616TIP3    H2 7813   1.688   0.347   1.763 -1.8716 -0.2454  0.5963
 2617TIP3   OH2 7814   2.859   4.846   4.573 -0.3857 -0.0752 -0.2608
 2617TIP3    H1 7815   2.849   4.762   4.528  0.3080 -0.2352 -0.1319
 2617TIP3    H2 7816   2.923   4.829   4.642 -0.8449  0.3651  0.2805
 2618TIP3   OH2 7817   2.338   0.670   0.522 -0.0083 -0.2165 -0.4281
 2618TIP3    H1 7818   2.313   0.757   0.553 -1.6286 -0.5278 -0.7755
 2618TIP3    H2 7819   2.430   0.662   0.546 -0.3489  0.8007  1.4100
 2619TIP3   OH2 7820   2.009   0.311   1.176  0.0257 -0.0313 -0.0319
 2619TIP3    H1 7821   1.917   0.321   1.155 -0.1075 -2.6608 -1.1380
 2619TIP3    H2 7822   2.055   0.329   1.094  0.5285  1.1609  0.4838
 2620TIP3   OH2 7823   0.842   0.623   1.133  0.3146  0.0598 -0.2123
 2620TIP3    H1 7824   0.758   0.648   1.173  0.2489 -1.8223  0.9776
 2620TIP3    H2 7825   0.846   0.675   1.053 -2.5168 -0.5383 -0.8777
 2621TIP3   OH2 7826   6.679   3.857   1.998  0.1393 -0.7280 -0.3407
 2621TIP3    H1 7827   6.610   3.823   1.942 -0.9210  1.0782 -0.2201
 2621TIP3    H2 7828   6.639   3.864   2.085  0.4336  0.3130 -0.2672
 2622TIP3   OH2 7829   3.649   2.197   3.118  0.4887 -0.2046  0.6744
 2622TIP3    H1 7830   3.725   2.149   3.086  0.3243  0.4853 -0.8415
 2622TIP3    H2 7831   3.685   2.274   3.161  0.6689  0.2334 -0.2326
 2623TIP3   OH2 7832   3.654   5.358   1.516 -0.3244  0.0398 -0.1051
 2623TIP3    H1 7833   3.678   5.324   1.602 -0.6369 -1.7680 -0.6820
 2623TIP3    H2 7834   3.560   5.374   1.522 -0.5083 -0.8931 -0.3394
 2624TIP3   OH2 7835   1.883   3.102   2.828 -0.3292 -0.1908  0.0271
 2624TIP3    H1 7836   1.961   3.156   2.818 -0.6193  0.0669 -0.9797
 2624TIP3    H2 7837   1.849   3.124   2.915  1.0376 -0.7453  0.7153
 2625TIP3   OH2 7838   5.686   2.369   3.872  0.1115 -0.0544  0.0670
 2625TIP3    H1 7839   5.595   2.399   3.872 -0.2501 -1.0690 -0.8215
 2625TIP3    H2 7840   5.688   2.301   3.940  0.8200  1.5845  1.7689
 2626TIP3   OH2 7841   1.265   6.206   5.302 -0.3925 -0.7090 -0.8765
 2626TIP3    H1 7842   1.346   6.203   5.352 -1.2245  0.5448  0.6845
 2626TIP3    H2 7843   1.291   6.233   5.214  0.9145 -0.6351 -0.4804
 2627TIP3   OH2 7844   4.774   3.058   5.609 -0.3619  0.1595 -0.1167
 2627TIP3    H1 7845   4.824   3.055   5.527 -0.5233 -0.9499 -0.1923
 2627TIP3    H2 7846   4.826   3.009   5.672 -1.8096 -2.0217 -0.4985
 2628TIP3   OH2 7847   2.027   0.339   4.643 -0.2233 -0.0570 -0.4687
 2628TIP3    H1 7848   2.094   0.285   4.686  0.6546  0.0075 -1.6976
 2628TIP3    H2 7849   2.029   0.311   4.552  0.1863  1.9412 -1.1330
 2629TIP3   OH2 7850   3.733   5.495   3.798  0.1766 -0.1057 -0.3591
 2629TIP3    H1 7851   3.753   5.423   3.738 -0.1818  1.4415 -2.4606
 2629TIP3    H2 7852   3.644   5.521   3.775 -0.2705  0.0502  1.4268
 2630TIP3   OH2 7853   4.228   4.600   4.682  0.4977 -0.3371 -0.1094
 2630TIP3    H1 7854   4.144   4.564   4.710  0.8162 -1.5356 -0.6126
 2630TIP3    H2 7855   4.249   4.666   4.748  0.3712 -1.8205  1.5026
 2631TIP3   OH2 7856   6.771   5.959   1.847 -0.4060 -0.0220 -0.0480
 2631TIP3    H1 7857   6.787   5.924   1.759 -0.5534  1.0402 -0.5039
 2631TIP3    H2 7858   6.679   5.938   1.864 -1.2866  2.3537 -1.3971
 2632TIP3   OH2 7859   5.822   2.017   1.911 -0.7909 -0.1462  0.5508
 2632TIP3    H1 7860   5.822   1.923   1.924 -0.6214 -0.2136  0.0931
 2632TIP3    H2 7861   5.889   2.032   1.844  0.9274  0.5278  2.3205
 2633TIP3   OH2 7862   4.323   6.622   5.120  0.3402  0.2654 -0.4443
 2633TIP3    H1 7863   4.357   6.551   5.175 -1.4600  1.0554  1.8853
 2633TIP3    H2 7864   4.342   6.702   5.170 -1.4012  1.0180 -0.9044
 2634TIP3   OH2 7865   2.679   0.142   2.894 -0.5468  0.1829  0.1769
 2634TIP3    H1 7866   2.742   0.071   2.883 -1.8326 -0.8449 -0.9743
 2634TIP3    H2 7867   2.654   0.139   2.986  0.7060  0.3099  0.5404
 2635TIP3   OH2 7868   5.256   2.827   0.238 -0.0739 -0.1301  0.0183
 2635TIP3    H1 7869   5.197   2.774   0.184  0.1347  0.3151 -0.6483
 2635TIP3    H2 7870   5.343   2.810   0.202  0.1656 -0.4607  0.7338
 2636TIP3   OH2 7871   0.901   1.747   5.335 -0.4229  0.1003  0.2717
 2636TIP3    H1 7872   0.849   1.741   5.255 -1.0477  0.3922  0.6540
 2636TIP3    H2 7873   0.850   1.699   5.400  0.7464 -1.3510  0.1677
 2637TIP3   OH2 7874   6.104   3.117   5.466  0.4275 -0.2663 -0.3932
 2637TIP3    H1 7875   6.090   3.168   5.387 -2.3989 -0.2539  0.0306
 2637TIP3    H2 7876   6.134   3.181   5.531 -2.6770  0.9447  0.0205
 2638TIP3   OH2 7877   2.089   3.278   1.662 -0.2866  0.0233  0.0677
 2638TIP3    H1 7878   2.059   3.365   1.638 -0.3185 -0.7089 -3.0028
 2638TIP3    H2 7879   2.012   3.222   1.652 -0.0731 -0.4971  1.1858
 2639TIP3   OH2 7880   0.107   5.257   2.816  0.0832  0.3055 -0.2861
 2639TIP3    H1 7881   0.058   5.185   2.778  2.5447 -3.1163  2.4107
 2639TIP3    H2 7882   0.040   5.319   2.845 -2.3865 -2.0833 -0.5390
 2640TIP3   OH2 7883   4.829   0.727   4.844 -0.0742 -0.1946  0.0947
 2640TIP3    H1 7884   4.816   0.820   4.825  1.7132  0.0391 -0.2086
 2640TIP3    H2 7885   4.874   0.693   4.766 -2.3074 -1.7662 -0.5835
 2641TIP3   OH2 7886   6.715   2.540   2.531 -0.5751  0.2696 -0.0304
 2641TIP3    H1 7887   6.621   2.530   2.546 -1.0118  1.4789 -1.6246
 2641TIP3    H2 7888   6.722   2.573   2.441  1.3979 -0.0037 -0.0361
 2642TIP3   OH2 7889   5.959   6.433   4.947 -0.5227  0.1901  0.3980
 2642TIP3    H1 7890   5.922   6.439   5.035 -0.8271 -0.5068  0.3248
 2642TIP3    H2 7891   6.043   6.479   4.953  0.0286 -0.8699  1.3838
 2643TIP3   OH2 7892   3.659   5.407   0.062 -0.3729  0.1746  0.7039
 2643TIP3    H1 7893   3.725   5.356   0.015 -0.4584  0.0709  0.6965
 2643TIP3    H2 7894   3.586   5.415   0.001 -0.6493 -0.3127  0.9690
 2644TIP3   OH2 7895   6.456   3.215   2.549  0.0249 -0.3242 -0.1290
 2644TIP3    H1 7896   6.492   3.167   2.624  0.9719 -1.7999 -1.4625
 2644TIP3    H2 7897   6.361   3.202   2.557  0.2569 -3.3525 -0.9100
 2645TIP3   OH2 7898   2.626   2.878   1.120 -0.0610  0.4991 -0.3474
 2645TIP3    H1 7899   2.685   2.815   1.077  0.5843  0.7067  0.2235
 2645TIP3    H2 7900   2.680   2.954   1.138 -0.7678  1.1140 -0.7514
 2646TIP3   OH2 7901   4.825   1.867   0.665  0.8939 -0.0592  0.4481
 2646TIP3    H1 7902   4.877   1.836   0.590 -1.0628 -1.2305 -0.5037
 2646TIP3    H2 7903   4.815   1.790   0.720 -0.8002 -0.1804  0.0064
 2647TIP3   OH2 7904   4.726   2.601   2.890 -0.4796  0.1424 -0.2579
 2647TIP3    H1 7905   4.812   2.616   2.928  0.4099  3.2450 -2.9801
 2647TIP3    H2 7906   4.734   2.518   2.843  0.9156  0.1960 -0.1548
 2648TIP3   OH2 7907   1.905   1.318   4.802 -0.0372 -0.2032 -0.3271
 2648TIP3    H1 7908   1.941   1.407   4.806  1.2151 -0.6213 -1.5045
 2648TIP3    H2 7909   1.889   1.295   4.893  0.9728  0.7099  0.1079
 2649TIP3   OH2 7910   3.454   6.622   5.378  0.1833 -0.2165 -0.5078
 2649TIP3    H1 7911   3.428   6.544   5.426 -1.7184  0.2156 -0.7651
 2649TIP3    H2 7912   3.550   6.616   5.373  0.2715 -1.3312  1.4608
 2650TIP3   OH2 7913   2.228   4.758   1.513  0.0443 -0.1808 -0.3259
 2650TIP3    H1 7914   2.259   4.819   1.580  1.2477  1.0932 -1.9822
 2650TIP3    H2 7915   2.153   4.803   1.473 -0.2663 -0.6497 -0.2792
 2651TIP3   OH2 7916   2.910   4.670   5.775  0.7492  0.1432 -0.0163
 2651TIP3    H1 7917   2.934   4.622   5.696  0.8081  0.2720 -0.0751
 2651TIP3    H2 7918   2.913   4.762   5.749 -1.0587  0.1322 -0.3998
 2652TIP3   OH2 7919   0.482   5.757   3.844 -0.3065 -0.1427 -0.2398
 2652TIP3    H1 7920   0.555   5.711   3.802  1.5531 -0.0625  2.6668
 2652TIP3    H2 7921   0.521   5.837   3.880 -2.1052  0.5210  0.3423
 2653TIP3   OH2 7922   5.539   2.766   0.999  0.0265 -0.1307  0.6061
 2653TIP3    H1 7923   5.545   2.855   1.034 -1.0514  0.0263  0.4330
 2653TIP3    H2 7924   5.570   2.773   0.909 -1.6126  0.4338  0.0501
 2654TIP3   OH2 7925   3.388   4.288   2.756  0.2528 -0.3823 -0.1934
 2654TIP3    H1 7926   3.361   4.220   2.694 -2.1262 -0.5379  0.8826
 2654TIP3    H2 7927   3.363   4.370   2.713  0.3140 -0.3693 -0.2051
 2655TIP3   OH2 7928   4.862   0.645   0.127  0.2673  0.0803  0.4572
 2655TIP3    H1 7929   4.810   0.712   0.083  0.3720 -1.2133 -1.7790
 2655TIP3    H2 7930   4.799   0.577   0.149  0.2076  0.7104  2.4920
 2656TIP3   OH2 7931   6.873   5.227   3.104 -0.1203 -0.5069  0.1620
 2656TIP3    H1 7932   6.867   5.187   3.190 -1.4761 -0.3850  0.1453
 2656TIP3    H2 7933   6.847   5.158   3.043 -0.0965 -0.3152 -0.0686
 2657TIP3   OH2 7934   4.397   2.188   4.524  0.1148 -0.2116 -0.5010
 2657TIP3    H1 7935   4.390   2.114   4.585  1.2546  0.2202  0.1811
 2657TIP3    H2 7936   4.412   2.147   4.439  3.0859 -0.8130  0.1835
 2658TIP3   OH2 7937   4.963   3.996   1.394  0.3002  0.5402  0.3538
 2658TIP3    H1 7938   4.928   4.061   1.334 -0.6081  1.6126  1.9747
 2658TIP3    H2 7939   4.992   4.047   1.470 -0.4618 -0.9216  1.6771
 2659TIP3   OH2 7940   6.605   3.715   3.329 -0.6276  0.2930 -0.0806
 2659TIP3    H1 7941   6.620   3.679   3.241 -0.2492  0.0681  0.0740
 2659TIP3    H2 7942   6.626   3.643   3.388  0.3011  0.8140  0.2410
 2660TIP3   OH2 7943   2.010   1.687   1.467 -0.4141  0.3504  0.3798
 2660TIP3    H1 7944   1.958   1.765   1.487 -0.7659 -0.2044  1.7547
 2660TIP3    H2 7945   2.063   1.673   1.545 -0.0563 -0.5457 -0.0161
 2661TIP3   OH2 7946   5.492   3.289   1.850 -0.1580 -0.5154 -0.2127
 2661TIP3    H1 7947   5.573   3.241   1.863 -0.6494 -0.7546  2.4474
 2661TIP3    H2 7948   5.516   3.362   1.793  1.8210 -0.8087  0.1894
 2662TIP3   OH2 7949   2.124   2.859   1.323  0.6013  0.0527  0.1545
 2662TIP3    H1 7950   2.094   2.943   1.358  2.4701  0.1404  1.7275
 2662TIP3    H2 7951   2.209   2.878   1.282 -0.1301 -0.6394 -1.8222
 2663TIP3   OH2 7952   3.639   2.821   5.199 -0.1016 -0.2436 -0.9510
 2663TIP3    H1 7953   3.620   2.908   5.233  0.7474 -0.2050 -0.5555
 2663TIP3    H2 7954   3.730   2.805   5.223  0.0912 -0.7914 -1.9847
 2664TIP3   OH2 7955   6.849   1.874   4.196 -0.3839  0.2053 -0.1968
 2664TIP3    H1 7956   6.759   1.906   4.205 -0.1525  1.6140 -2.2016
 2664TIP3    H2 7957   6.903   1.950   4.219  0.2589 -0.0102 -0.9806
 2665TIP3   OH2 7958   2.804   5.004   3.919  0.8567  0.9349  0.2389
 2665TIP3    H1 7959   2.878   4.944   3.912  0.1884  0.1395 -0.2961
 2665TIP3    H2 7960   2.835   5.085   3.877  0.8905  0.0626 -1.5372
 2666TIP3   OH2 7961   2.293   5.008   4.758  0.3893  1.3269 -0.0036
 2666TIP3    H1 7962   2.362   4.980   4.697 -0.7795 -0.6884 -0.4824
 2666TIP3    H2 7963   2.268   5.095   4.728  2.0055  1.6675 -0.4430
 2667TIP3   OH2 7964   2.317   4.801   5.644 -0.1956  0.4717 -0.0812
 2667TIP3    H1 7965   2.410   4.812   5.621 -0.2156  0.1535 -0.3152
 2667TIP3    H2 7966   2.307   4.850   5.725  1.1054 -2.6713  2.1853
 2668TIP3   OH2 7967   3.789   2.400  -0.037 -0.2714 -0.5982  0.3795
 2668TIP3    H1 7968   3.800   2.476   0.021 -0.0720  0.2580 -0.7392
 2668TIP3    H2 7969   3.782   2.326   0.022  2.9057 -0.1693  1.4988
 2669TIP3   OH2 7970   2.237   5.760   2.064 -0.6518  0.0850  0.0219
 2669TIP3    H1 7971   2.209   5.851   2.064 -0.0681  0.2997 -1.3670
 2669TIP3    H2 7972   2.218   5.729   1.975  2.2913 -0.1118 -0.6226
 2670TIP3   OH2 7973   1.101   0.228   1.812  0.0416 -0.2403 -0.5599
 2670TIP3    H1 7974   1.038   0.282   1.861  1.1267 -1.2000  2.0914
 2670TIP3    H2 7975   1.155   0.291   1.765 -0.2134  0.8784  0.5805
 2671TIP3   OH2 7976   6.321   4.492   3.833 -0.2085  0.1298 -0.4542
 2671TIP3    H1 7977   6.373   4.571   3.824  0.6635 -0.5033 -1.0875
 2671TIP3    H2 7978   6.233   4.524   3.857  0.2078  1.2522 -0.3653
 2672TIP3   OH2 7979   2.787   3.000   3.724 -0.2938  0.0011  0.7153
 2672TIP3    H1 7980   2.714   3.056   3.751 -1.2489 -1.0294  0.3551
 2672TIP3    H2 7981   2.745   2.921   3.689  0.8934  0.4966 -2.1153
 2673TIP3   OH2 7982   2.764   4.499   2.430 -0.3760 -0.3078 -0.4002
 2673TIP3    H1 7983   2.789   4.417   2.388  1.4525  0.0572 -0.1018
 2673TIP3    H2 7984   2.762   4.563   2.360  0.7577 -0.1008 -0.2653
 2674TIP3   OH2 7985   2.832   2.054   3.953  0.1571 -0.2829 -0.0651
 2674TIP3    H1 7986   2.843   2.045   3.858 -3.3662  0.4632 -0.6892
 2674TIP3    H2 7987   2.761   1.994   3.974 -0.2240  0.7588  1.8139
 2675TIP3   OH2 7988   2.595   4.100   2.527 -0.4234 -0.2195 -0.0587
 2675TIP3    H1 7989   2.685   4.072   2.508  1.0479  2.1342  2.5769
 2675TIP3    H2 7990   2.565   4.039   2.594  0.1598  0.3689  0.7599
 2676TIP3   OH2 7991   0.287   4.503   2.788 -0.1126  0.3985 -0.2870
 2676TIP3    H1 7992   0.326   4.586   2.763 -0.2952  0.8843  0.9686
 2676TIP3    H2 7993   0.232   4.478   2.713 -0.5598  1.7221 -0.4157
 2677TIP3   OH2 7994   6.789   4.430   3.929 -0.2616 -0.6139 -0.1671
 2677TIP3    H1 7995   6.704   4.411   3.969 -1.0602  1.5087 -0.7151
 2677TIP3    H2 7996   6.850   4.431   4.002 -1.5011  2.1164  0.9818
 2678TIP3   OH2 7997   2.368   1.172   3.105 -0.1584  0.0594 -0.2325
 2678TIP3    H1 7998   2.293   1.190   3.048  0.9574 -3.3912 -3.1610
 2678TIP3    H2 7999   2.329   1.132   3.183 -1.4850 -0.2026 -0.9938
 2679TIP3   OH2 8000   2.622   6.489   2.250 -0.2168 -0.2638 -0.1449
 2679TIP3    H1 8001   2.709   6.527   2.245 -1.0905  1.8501 -0.2664
 2679TIP3    H2 8002   2.636   6.395   2.241  1.9477  0.1057 -1.1777
 2680TIP3   OH2 8003   1.471   2.333   1.665  0.4456 -0.0521 -0.0019
 2680TIP3    H1 8004   1.473   2.239   1.685  0.8787  0.1039  0.7611
 2680TIP3    H2 8005   1.501   2.339   1.574 -0.7687 -0.7393 -0.4675
 2681TIP3   OH2 8006   5.112   4.221   3.357  0.2024 -0.1399 -0.4187
 2681TIP3    H1 8007   5.041   4.201   3.418 -0.9348  1.1019 -1.2807
 2681TIP3    H2 8008   5.179   4.156   3.376 -0.2364  0.0058  1.9438
 2682TIP3   OH2 8009   5.579   1.858   4.206 -0.7484  0.2463  0.0608
 2682TIP3    H1 8010   5.650   1.851   4.271  0.5374 -0.7652 -1.4007
 2682TIP3    H2 8011   5.509   1.903   4.253  0.4567  0.3254  1.8924
 2683TIP3   OH2 8012   5.130   4.633   4.846 -0.0685 -0.5600  0.0009
 2683TIP3    H1 8013   5.148   4.700   4.912  1.3172 -1.0746  0.1829
 2683TIP3    H2 8014   5.190   4.655   4.774 -0.4749 -0.9002 -0.4439
 2684TIP3   OH2 8015   5.080   6.024   4.787 -0.2457  0.1784  0.5349
 2684TIP3    H1 8016   5.100   5.946   4.838 -0.4959 -0.9802 -1.0566
 2684TIP3    H2 8017   5.151   6.029   4.723 -1.9477 -0.7593 -1.5591
 2685TIP3   OH2 8018   4.773   3.390   2.165  0.9308  0.0295  0.0226
 2685TIP3    H1 8019   4.776   3.485   2.163  1.4797  0.0600  1.4185
 2685TIP3    H2 8020   4.725   3.369   2.245  0.9647 -0.8768 -0.1814
 2686TIP3   OH2 8021   3.354   3.701   2.039 -0.7168 -0.1691  0.6833
 2686TIP3    H1 8022   3.322   3.764   1.974 -1.5321  0.0837  1.3188
 2686TIP3    H2 8023   3.407   3.754   2.099  1.5694 -0.6864 -0.7399
 2687TIP3   OH2 8024   6.568   6.441   1.329 -0.5478  0.1981  0.9031
 2687TIP3    H1 8025   6.598   6.388   1.255  0.1559  2.2821 -0.4037
 2687TIP3    H2 8026   6.622   6.412   1.403  1.3715  0.5328 -0.2855
 2688TIP3   OH2 8027   1.189   3.662   5.248  0.3653  0.0883 -1.1563
 2688TIP3    H1 8028   1.279   3.632   5.261  1.1913  2.0457 -2.0796
 2688TIP3    H2 8029   1.183   3.684   5.156 -1.8364 -2.1996 -1.6982
 2689TIP3   OH2 8030   4.931   2.415   0.229 -0.0249  0.2594  0.5151
 2689TIP3    H1 8031   5.014   2.371   0.207  1.6002  3.5951 -0.6974
 2689TIP3    H2 8032   4.958   2.493   0.278 -2.3854  1.6734 -0.2916
 2690TIP3   OH2 8033   2.112   5.442   4.314  0.4651 -0.1511  0.6285
 2690TIP3    H1 8034   2.153   5.528   4.314  0.0265  0.0679 -0.5792
 2690TIP3    H2 8035   2.167   5.389   4.256 -0.5066 -0.0659 -0.3944
 2691TIP3   OH2 8036   3.879   1.465   1.501 -0.1401 -0.7284 -0.3731
 2691TIP3    H1 8037   3.814   1.502   1.561 -0.0759 -0.4593 -0.4697
 2691TIP3    H2 8038   3.838   1.469   1.415  0.4344  0.5000 -0.6140
 2692TIP3   OH2 8039   2.078   4.134   1.882 -0.2586  0.3679 -0.4948
 2692TIP3    H1 8040   2.022   4.057   1.879 -0.0945  0.2688 -1.5383
 2692TIP3    H2 8041   2.017   4.208   1.874 -0.2789  0.2760 -1.2180
 2693TIP3   OH2 8042   0.644   1.518   0.479 -0.6114 -0.2146 -0.1036
 2693TIP3    H1 8043   0.607   1.457   0.542 -1.0730 -0.8373 -0.9431
 2693TIP3    H2 8044   0.738   1.500   0.479 -0.7612 -1.0287 -0.4322
 2694TIP3   OH2 8045   5.696   5.378   0.628 -0.2950  0.7562  0.4068
 2694TIP3    H1 8046   5.653   5.424   0.700 -1.0891  1.5778 -0.5556
 2694TIP3    H2 8047   5.735   5.447   0.575 -0.3503  0.2240 -0.3406
 2695TIP3   OH2 8048   3.881   5.353   2.267 -0.3223  0.3378  0.1685
 2695TIP3    H1 8049   3.856   5.321   2.180 -0.4330  2.2033 -0.5246
 2695TIP3    H2 8050   3.874   5.276   2.323 -0.8347 -0.7806 -1.3488
 2696TIP3   OH2 8051   2.963   3.906   1.828  0.0639 -0.0966  0.2391
 2696TIP3    H1 8052   3.058   3.914   1.826  0.0577 -0.0865 -0.1593
 2696TIP3    H2 8053   2.947   3.812   1.840  0.1322 -0.4589 -2.0606
 2697TIP3   OH2 8054   3.241   2.768   0.804 -0.4740 -0.2984 -0.0936
 2697TIP3    H1 8055   3.189   2.814   0.870 -0.6989  0.7032 -0.9337
 2697TIP3    H2 8056   3.296   2.708   0.854 -2.0589 -1.0304  0.8695
 2698TIP3   OH2 8057   1.536   3.256   4.977  0.0064  0.5759 -1.0079
 2698TIP3    H1 8058   1.493   3.212   4.904  2.3062  1.3727 -2.9996
 2698TIP3    H2 8059   1.507   3.209   5.054 -2.0030 -0.7701 -2.4706
 2699TIP3   OH2 8060   3.829   5.856   5.313  0.2426 -0.8393 -0.0737
 2699TIP3    H1 8061   3.841   5.949   5.329  1.5669 -1.0227  0.1259
 2699TIP3    H2 8062   3.798   5.850   5.223  2.3467 -0.3072 -0.8830
 2700TIP3   OH2 8063   6.005   5.735   5.357 -0.6324 -0.6802  0.5390
 2700TIP3    H1 8064   6.019   5.661   5.416 -0.6161 -2.5752 -1.6945
 2700TIP3    H2 8065   5.910   5.734   5.339 -0.5469 -0.5161  0.0654
 2701TIP3   OH2 8066   6.465   3.440   5.300 -0.1053  0.3026  0.5595
 2701TIP3    H1 8067   6.520   3.372   5.340  1.1228 -0.7209 -2.5442
 2701TIP3    H2 8068   6.513   3.522   5.315  0.1041  0.0307  1.4441
 2702TIP3   OH2 8069   5.551   0.689   3.996 -0.4026 -0.3276 -0.6080
 2702TIP3    H1 8070   5.575   0.609   4.042  1.5770 -0.2592 -1.4137
 2702TIP3    H2 8071   5.459   0.676   3.972 -0.5164 -1.7543  0.4649
 2703TIP3   OH2 8072   0.953   0.299   4.977 -0.3465  0.2541  0.0478
 2703TIP3    H1 8073   0.971   0.365   4.909  1.6790  0.3025  0.5681
 2703TIP3    H2 8074   1.013   0.321   5.048 -2.0443 -0.1208  1.6884
 2704TIP3   OH2 8075   3.212   1.627   1.031 -0.4656  0.4850  0.9699
 2704TIP3    H1 8076   3.286   1.681   1.004  0.5469 -0.2842  2.1556
 2704TIP3    H2 8077   3.242   1.537   1.020 -1.1321  0.1616  1.7133
 2705TIP3   OH2 8078   2.086   6.128   0.596 -0.5394  0.1679  0.1784
 2705TIP3    H1 8079   2.132   6.049   0.626 -1.4215  0.0941  1.3709
 2705TIP3    H2 8080   2.017   6.142   0.660 -0.8207  1.5410 -0.3940
 2706TIP3   OH2 8081   2.555   1.897   3.203 -0.0310  0.2092 -0.6135
 2706TIP3    H1 8082   2.612   1.966   3.169  0.1537 -0.0271 -0.7899
 2706TIP3    H2 8083   2.515   1.857   3.126  1.1009 -0.9353 -0.6439
 2707TIP3   OH2 8084   6.658   6.301   3.120 -0.7155  0.8529  0.1938
 2707TIP3    H1 8085   6.661   6.376   3.061  2.6446  0.3932 -0.4199
 2707TIP3    H2 8086   6.703   6.330   3.199 -0.3343 -0.1806  0.3810
 2708TIP3   OH2 8087   6.299   6.781   2.634  0.4776  0.2733 -0.5539
 2708TIP3    H1 8088   6.352   6.762   2.556 -1.3768 -0.6568 -1.6457
 2708TIP3    H2 8089   6.330   6.866   2.663  2.2618 -0.0373 -1.4013
 2709TIP3   OH2 8090   4.632   6.724   2.828  0.0264 -0.0684 -0.3067
 2709TIP3    H1 8091   4.713   6.687   2.863  0.4205 -1.2499 -2.3024
 2709TIP3    H2 8092   4.637   6.709   2.733 -1.2571  2.3540 -0.8595
 2710TIP3   OH2 8093   1.988   1.864   2.608 -0.3267  0.2256  0.3089
 2710TIP3    H1 8094   1.965   1.792   2.549 -2.5302  1.6028 -0.6016
 2710TIP3    H2 8095   2.047   1.919   2.556  2.0695 -1.2255  1.2900
 2711TIP3   OH2 8096   1.839   2.339   1.735  0.4708  0.1616  0.0766
 2711TIP3    H1 8097   1.913   2.347   1.676 -0.1494 -0.8364 -0.8812
 2711TIP3    H2 8098   1.864   2.268   1.795  0.9981  1.0083  0.8790
 2712TIP3   OH2 8099   0.570   6.694   3.183  0.0824  0.1936 -0.3053
 2712TIP3    H1 8100   0.655   6.652   3.200 -0.9648 -2.7152 -1.7086
 2712TIP3    H2 8101   0.566   6.703   3.088 -1.5558 -0.6047 -0.3371
 2713TIP3   OH2 8102   6.517   3.292   1.588  0.0312  0.5399  0.1241
 2713TIP3    H1 8103   6.542   3.237   1.514  1.2871  0.0444  0.8863
 2713TIP3    H2 8104   6.463   3.235   1.643 -0.2374  0.6571 -0.0191
 2714TIP3   OH2 8105   0.830   0.105   2.923 -0.6382  0.0513 -0.5328
 2714TIP3    H1 8106   0.888   0.081   2.851  0.4815 -0.0355  0.3645
 2714TIP3    H2 8107   0.819   0.199   2.915 -0.0202  0.1311 -0.4602
 2715TIP3   OH2 8108   1.196   2.177   3.308  0.7319  0.1889 -0.3288
 2715TIP3    H1 8109   1.261   2.152   3.374  1.5661 -1.4543 -1.6883
 2715TIP3    H2 8110   1.247   2.218   3.239  0.3288 -0.8392 -1.2762
 2716TIP3   OH2 8111   4.841   4.010   5.522 -0.3518  0.0035  0.0947
 2716TIP3    H1 8112   4.923   3.965   5.545 -0.2173  0.4207  0.4461
 2716TIP3    H2 8113   4.790   4.010   5.603  0.3121  1.8902  0.5613
 2717TIP3   OH2 8114   2.117   0.154   5.407  0.3360  0.7545  0.1602
 2717TIP3    H1 8115   2.195   0.193   5.367 -0.6205 -0.3185 -3.1028
 2717TIP3    H2 8116   2.148   0.075   5.450  1.2823  1.3392  0.5661
 2718TIP3   OH2 8117   5.681   2.244   2.415  0.1078 -0.0278 -0.7144
 2718TIP3    H1 8118   5.682   2.301   2.338  1.0411  0.2185 -0.5384
 2718TIP3    H2 8119   5.740   2.173   2.393  0.2364 -0.0535 -0.3000
 2719TIP3   OH2 8120   7.145   1.936   5.219 -0.0893  0.8551  0.1494
 2719TIP3    H1 8121   7.176   2.026   5.230  1.6220  0.0746  2.5214
 2719TIP3    H2 8122   7.218   1.882   5.249 -1.9240 -1.2618  1.0474
 2720TIP3   OH2 8123   1.656   0.898   1.831 -0.2775  0.2137  0.1522
 2720TIP3    H1 8124   1.626   0.971   1.886  1.3640 -1.4486  3.5797
 2720TIP3    H2 8125   1.701   0.840   1.892 -0.7235 -3.2641 -2.5625
 2721TIP3   OH2 8126   1.030   4.655   4.616  0.0690 -0.0143 -0.2314
 2721TIP3    H1 8127   1.052   4.683   4.527 -0.4107 -3.5448 -1.6271
 2721TIP3    H2 8128   1.114   4.642   4.659  0.4078 -1.2206 -1.2323
 2722TIP3   OH2 8129   6.096   4.918   3.898  0.3738  0.7161  0.2428
 2722TIP3    H1 8130   6.001   4.908   3.908  0.7147 -1.3361  1.9140
 2722TIP3    H2 8131   6.111   5.011   3.913 -1.4323  1.2780 -0.9853
 2723TIP3   OH2 8132   5.478   3.146   2.603  0.8723 -0.0351 -0.0105
 2723TIP3    H1 8133   5.569   3.133   2.627  0.9698  1.1835  0.3360
 2723TIP3    H2 8134   5.431   3.151   2.686  0.6781  0.5895 -0.1514
 2724TIP3   OH2 8135   0.929   3.082   4.085  0.2234 -0.3032 -0.0920
 2724TIP3    H1 8136   0.911   3.120   3.999  0.9103  0.2956  0.0214
 2724TIP3    H2 8137   0.843   3.071   4.125 -0.1470 -1.1652 -1.0927
 2725TIP3   OH2 8138   4.026   0.764   5.265 -0.3997 -0.2272 -0.1967
 2725TIP3    H1 8139   4.008   0.693   5.327  1.2915 -0.8823 -0.4167
 2725TIP3    H2 8140   4.092   0.728   5.206 -1.1725  0.7707 -1.7207
 2726TIP3   OH2 8141   6.908   6.659   0.317 -0.0811 -0.1998 -0.0741
 2726TIP3    H1 8142   6.844   6.693   0.255 -2.1282 -2.6887  0.5236
 2726TIP3    H2 8143   6.952   6.588   0.269 -1.4266 -1.8964  1.1108
 2727TIP3   OH2 8144   4.450   2.912   2.046  0.6542  0.3561  0.3164
 2727TIP3    H1 8145   4.498   2.833   2.072 -0.9781 -0.9823 -0.5638
 2727TIP3    H2 8146   4.516   2.982   2.047  2.1661 -1.0316  0.9968
 2728TIP3   OH2 8147   0.581   0.629   3.356  0.2533  0.0340 -0.4155
 2728TIP3    H1 8148   0.650   0.653   3.418  0.1305 -1.8231  0.4982
 2728TIP3    H2 8149   0.628   0.605   3.276  0.3547  4.1138 -1.8191
 2729TIP3   OH2 8150   0.659   0.673   1.399 -0.2050  0.1833 -0.4874
 2729TIP3    H1 8151   0.726   0.742   1.400  0.8685 -0.7970  1.6750
 2729TIP3    H2 8152   0.681   0.617   1.474 -3.3408 -0.3121  0.2125
 2730TIP3   OH2 8153   1.451   4.017   1.315  0.0191  0.4602  0.2695
 2730TIP3    H1 8154   1.452   4.079   1.388  1.5261 -0.6635  1.2677
 2730TIP3    H2 8155   1.395   3.945   1.345 -0.2635  0.4989 -0.1494
 2731TIP3   OH2 8156   2.653   1.043   1.219  0.5081 -0.8783 -0.0051
 2731TIP3    H1 8157   2.720   1.108   1.239 -0.1532 -1.3303  4.6366
 2731TIP3    H2 8158   2.701   0.960   1.212  0.9396 -0.5119 -2.6046
 2732TIP3   OH2 8159   1.977   4.221   3.891  0.4352  0.3659 -0.2907
 2732TIP3    H1 8160   1.961   4.314   3.906 -0.5808  0.2593 -0.6517
 2732TIP3    H2 8161   1.939   4.178   3.968 -0.0085  0.1909 -0.5998
 2733TIP3   OH2 8162   0.652   3.533   3.740  0.1865  0.3855  0.2549
 2733TIP3    H1 8163   0.642   3.484   3.658  0.6920 -0.4219  0.6628
 2733TIP3    H2 8164   0.700   3.612   3.714 -0.4612  0.5845 -0.3728
 2734TIP3   OH2 8165   5.304   1.182   2.260  0.2794  0.6956 -0.2948
 2734TIP3    H1 8166   5.364   1.247   2.224  2.4541 -0.8116  0.4208
 2734TIP3    H2 8167   5.324   1.181   2.353 -1.2214  0.4677  0.0438
 2735TIP3   OH2 8168   3.578   3.877   1.066  0.4016 -0.0971 -0.6439
 2735TIP3    H1 8169   3.597   3.900   1.157 -1.3982  0.4984 -0.3922
 2735TIP3    H2 8170   3.592   3.959   1.018  5.2003 -1.1815 -1.6768
 2736TIP3   OH2 8171   2.279   2.659   3.715 -0.2736  0.0813  0.0974
 2736TIP3    H1 8172   2.230   2.578   3.732 -2.0569  0.8588 -1.0308
 2736TIP3    H2 8173   2.312   2.686   3.801 -0.1289 -1.5314  0.5727
 2737TIP3   OH2 8174   4.039   0.924   1.626  0.1418  0.1607 -0.2339
 2737TIP3    H1 8175   4.062   0.831   1.625 -1.6290 -0.3689  1.8590
 2737TIP3    H2 8176   4.123   0.969   1.616  1.1088 -1.6194 -0.7054
 2738TIP3   OH2 8177   3.119   2.843   4.894  0.2160 -0.3055 -0.1643
 2738TIP3    H1 8178   3.061   2.770   4.915  0.5983 -0.6777 -0.4010
 2738TIP3    H2 8179   3.171   2.856   4.973  0.7125 -0.8243 -0.3969
 2739TIP3   OH2 8180   1.734   5.033   1.975 -0.3987  0.0617  0.8722
 2739TIP3    H1 8181   1.822   5.066   1.961 -0.3120 -0.1184  0.9902
 2739TIP3    H2 8182   1.735   4.944   1.939 -0.7285  0.3080  0.2413
 2740TIP3   OH2 8183   4.965   6.398   0.473  0.7383 -0.2605  0.3743
 2740TIP3    H1 8184   4.934   6.397   0.564  0.3529  1.9864  0.3129
 2740TIP3    H2 8185   5.011   6.481   0.463  0.3918 -0.2467 -1.6147
 2741TIP3   OH2 8186   4.550   4.143   2.673 -0.0477 -0.6100 -0.4384
 2741TIP3    H1 8187   4.638   4.179   2.663 -0.5506  0.5315 -0.8335
 2741TIP3    H2 8188   4.532   4.101   2.589 -0.5450  0.6858 -1.0058
 2742TIP3   OH2 8189   3.336   0.047   0.826  1.1638 -0.6494  0.4137
 2742TIP3    H1 8190   3.399  -0.014   0.790  0.2203 -1.5541  0.2517
 2742TIP3    H2 8191   3.266  -0.008   0.862  0.6970  0.3044  1.0162
 2743TIP3   OH2 8192   5.859   2.496   0.357 -0.2446  0.2856  0.7179
 2743TIP3    H1 8193   5.851   2.492   0.452 -0.0121  1.3718  0.7909
 2743TIP3    H2 8194   5.952   2.482   0.340 -0.1322  0.9790  0.7191
 2744TIP3   OH2 8195   6.476   4.145   2.140 -0.1468  0.1535  0.2221
 2744TIP3    H1 8196   6.477   4.090   2.218  1.3620  1.2415  1.0232
 2744TIP3    H2 8197   6.389   4.132   2.102 -1.6294  0.9666  3.0910
 2745TIP3   OH2 8198   5.139   4.715   4.223 -0.3418  0.3158 -0.5227
 2745TIP3    H1 8199   5.199   4.657   4.176  1.3464  1.3361  0.2425
 2745TIP3    H2 8200   5.056   4.668   4.225  0.5840 -1.4425 -1.1398
 2746TIP3   OH2 8201   2.422   0.881   0.850  0.7503  0.5832  0.7572
 2746TIP3    H1 8202   2.365   0.895   0.926  0.2018  0.8349  0.3091
 2746TIP3    H2 8203   2.417   0.787   0.833 -1.5478  0.9153 -0.7971
 2747TIP3   OH2 8204   0.459   5.609   1.572  0.1887 -0.0796 -0.6143
 2747TIP3    H1 8205   0.508   5.546   1.519 -0.2014 -1.7155  0.8779
 2747TIP3    H2 8206   0.467   5.577   1.661  2.3009  3.5420  0.7109
 2748TIP3   OH2 8207   4.004   2.936   0.740 -0.9004  0.4002  0.0686
 2748TIP3    H1 8208   3.936   3.000   0.719 -2.1221 -0.6171  0.7938
 2748TIP3    H2 8209   4.064   2.983   0.798 -1.5073  1.0401  0.1868
 2749TIP3   OH2 8210   2.188   4.506   4.414  0.4001 -0.0160  0.1821
 2749TIP3    H1 8211   2.215   4.560   4.488 -1.0556 -0.4426  1.0605
 2749TIP3    H2 8212   2.116   4.554   4.373  1.5163  0.4756 -1.3341
 2750TIP3   OH2 8213   3.848   3.163   0.705 -0.3252  0.0730 -0.0685
 2750TIP3    H1 8214   3.786   3.098   0.674  0.3835 -0.3250 -0.6903
 2750TIP3    H2 8215   3.794   3.235   0.738 -1.1174 -0.8001  0.5926
 2751TIP3   OH2 8216   2.456   3.866   5.096 -0.2470  0.0546 -0.1353
 2751TIP3    H1 8217   2.536   3.903   5.133 -0.9068  0.4207  0.9666
 2751TIP3    H2 8218   2.397   3.940   5.086 -0.0655 -0.0193 -2.0541
 2752TIP3   OH2 8219   0.030   1.486   5.625 -0.4898  0.4573  0.5964
 2752TIP3    H1 8220   0.025   1.413   5.688 -1.5436  1.5541  1.8410
 2752TIP3    H2 8221  -0.048   1.476   5.571  0.7095 -0.8255 -1.0061
 2753TIP3   OH2 8222   3.914   5.843   3.540 -0.3252 -0.3971  0.2828
 2753TIP3    H1 8223   3.842   5.868   3.483 -0.8832 -0.3538  0.9930
 2753TIP3    H2 8224   3.882   5.860   3.629  0.9191  0.6069  0.5793
 2754TIP3   OH2 8225   3.492   2.315   3.351  0.2787 -0.0471  0.0711
 2754TIP3    H1 8226   3.526   2.404   3.351 -0.8173  0.3892 -0.2327
 2754TIP3    H2 8227   3.440   2.309   3.271 -0.8928 -0.4569  0.8368
 2755TIP3   OH2 8228   3.298   3.896   3.473 -0.3639 -0.2263  0.4373
 2755TIP3    H1 8229   3.205   3.892   3.449 -0.8329 -0.5619  2.2224
 2755TIP3    H2 8230   3.335   3.814   3.442 -0.4471  0.2558 -1.0202
 2756TIP3   OH2 8231   5.057   5.764   5.240 -0.5929  0.4101 -0.4625
 2756TIP3    H1 8232   5.028   5.771   5.331  0.1520  0.2712 -0.2038
 2756TIP3    H2 8233   5.000   5.697   5.202  0.3643 -0.9910  0.4604
 2757TIP3   OH2 8234   2.921   0.866   0.805  0.0006 -0.6278 -0.1127
 2757TIP3    H1 8235   2.934   0.877   0.711 -4.1861 -1.1712 -0.9755
 2757TIP3    H2 8236   2.833   0.902   0.821  1.8346  2.8209  4.3503
 2758TIP3   OH2 8237   6.760   0.093   0.143 -0.6609 -0.2288 -0.0324
 2758TIP3    H1 8238   6.801   0.103   0.057 -1.8871 -0.4679 -0.6729
 2758TIP3    H2 8239   6.684   0.151   0.140  0.0730  0.8822  1.4544
 2759TIP3   OH2 8240   6.078   3.564   4.290 -0.4211 -0.5535  0.1735
 2759TIP3    H1 8241   6.034   3.627   4.346  0.8464  0.1354  0.4394
 2759TIP3    H2 8242   6.023   3.559   4.212 -0.0428  1.7162 -0.3156
 2760TIP3   OH2 8243   5.373   2.869   2.009 -0.3893  0.5758  0.3637
 2760TIP3    H1 8244   5.300   2.832   1.959  0.6266 -0.9381 -0.0434
 2760TIP3    H2 8245   5.397   2.801   2.071  1.8580  0.2603 -0.7571
 2761TIP3   OH2 8246   5.587   3.920   4.268 -0.2235  0.3995 -0.1769
 2761TIP3    H1 8247   5.511   3.897   4.321  0.0300 -0.9317 -0.3548
 2761TIP3    H2 8248   5.621   4.000   4.307 -2.4527  1.7432 -0.8640
 2762TIP3   OH2 8249   3.634   3.260   4.658 -0.2032  0.0931  0.5228
 2762TIP3    H1 8250   3.582   3.180   4.655  0.0170 -0.0260 -0.0530
 2762TIP3    H2 8251   3.584   3.318   4.716 -1.2055  0.1432 -0.3681
 2763TIP3   OH2 8252   1.901   5.140   4.764  0.3428 -0.4518 -0.1427
 2763TIP3    H1 8253   1.838   5.205   4.731 -0.4827 -1.8198 -1.3544
 2763TIP3    H2 8254   1.859   5.102   4.841 -0.3548 -1.3926 -0.9746
 2764TIP3   OH2 8255   4.743   2.123   4.315 -0.3489 -0.1570 -0.2827
 2764TIP3    H1 8256   4.649   2.113   4.301 -0.4002  0.5658 -0.4642
 2764TIP3    H2 8257   4.752   2.138   4.409 -0.4406  0.0433 -0.3048
 2765TIP3   OH2 8258   6.069   4.963   4.711  0.0584  0.2995  0.0214
 2765TIP3    H1 8259   6.029   4.900   4.771 -2.3515  1.5921 -0.0753
 2765TIP3    H2 8260   6.146   4.918   4.677 -0.0004 -1.5062  2.0131
 2766TIP3   OH2 8261   2.325   2.251   0.636 -0.0348 -0.2265  0.1616
 2766TIP3    H1 8262   2.279   2.287   0.560  0.3011 -1.2468 -0.5580
 2766TIP3    H2 8263   2.401   2.206   0.598  0.7285  0.1469  1.2036
 2767TIP3   OH2 8264   3.913   0.090   3.659 -0.3280 -0.4560  0.3850
 2767TIP3    H1 8265   3.986   0.035   3.687  0.9183  1.7314  1.7251
 2767TIP3    H2 8266   3.953   0.159   3.606 -1.6931 -0.2368 -0.4222
 2768TIP3   OH2 8267   4.115   5.718   1.751  0.4874 -0.0012  0.3380
 2768TIP3    H1 8268   4.160   5.748   1.829 -0.1059 -2.3161  1.6527
 2768TIP3    H2 8269   4.030   5.762   1.753  0.7310  0.4538  0.6275
 2769TIP3   OH2 8270   1.753   6.822   4.146  0.3484 -0.3596 -0.1662
 2769TIP3    H1 8271   1.789   6.795   4.061  2.5521  0.5931  0.3863
 2769TIP3    H2 8272   1.742   6.740   4.194 -0.9058 -0.9090 -1.3284
 2770TIP3   OH2 8273   3.777   1.533   3.957  0.1935 -0.9093  0.6332
 2770TIP3    H1 8274   3.712   1.468   3.983  0.6186 -1.3519  0.5973
 2770TIP3    H2 8275   3.805   1.574   4.039  2.0703 -2.8049  1.0364
 2771TIP3   OH2 8276   5.803   6.292   3.331 -0.0262 -0.0303  0.3314
 2771TIP3    H1 8277   5.745   6.228   3.290 -0.8718  0.7019  0.3441
 2771TIP3    H2 8278   5.746   6.340   3.391  0.9734 -0.4265  1.6466
 2772TIP3   OH2 8279   6.602   1.865   0.844 -0.3838 -0.2404  0.0031
 2772TIP3    H1 8280   6.587   1.856   0.938  0.1245 -0.1768  0.0946
 2772TIP3    H2 8281   6.683   1.817   0.828  0.5037  1.2106 -0.0871
 2773TIP3   OH2 8282   5.493   3.161   0.159 -0.4039 -0.3079 -0.6889
 2773TIP3    H1 8283   5.417   3.168   0.101 -0.4890 -2.1550 -0.8540
 2773TIP3    H2 8284   5.560   3.215   0.117 -1.6716  1.6203 -0.3771
 2774TIP3   OH2 8285   3.713   4.242   2.693 -0.4784 -0.1509 -0.5374
 2774TIP3    H1 8286   3.620   4.263   2.705 -0.3925  0.1864 -0.4359
 2774TIP3    H2 8287   3.756   4.283   2.768 -0.1004  0.7442 -1.2318
 2775TIP3   OH2 8288   6.031   5.449   5.416 -0.6741 -0.5504 -0.0095
 2775TIP3    H1 8289   5.970   5.406   5.476 -1.0645 -1.0612 -0.7601
 2775TIP3    H2 8290   5.992   5.438   5.329 -0.2462  0.3959 -0.3428
 2776TIP3   OH2 8291   5.243   1.129   4.753  0.0110 -0.0224 -0.1750
 2776TIP3    H1 8292   5.251   1.158   4.661 -2.3937  0.0376 -0.4144
 2776TIP3    H2 8293   5.314   1.176   4.798  0.5695  0.8025 -1.8047
 2777TIP3   OH2 8294   2.625   1.422   5.277 -0.7229 -0.1238  0.2328
 2777TIP3    H1 8295   2.685   1.453   5.209 -2.1399 -0.5049 -1.2513
 2777TIP3    H2 8296   2.596   1.501   5.322  0.1193  0.1446  0.3164
 2778TIP3   OH2 8297   3.165   4.969   3.998 -0.1824 -0.2713  0.3348
 2778TIP3    H1 8298   3.256   4.991   4.018  0.2297 -1.3070 -0.3293
 2778TIP3    H2 8299   3.115   5.011   4.068  0.7477  0.8056  0.3826
 2779TIP3   OH2 8300   4.558   6.816   4.956  0.5381  0.1779 -0.0912
 2779TIP3    H1 8301   4.472   6.819   4.996 -0.8769 -0.8810 -2.7693
 2779TIP3    H2 8302   4.593   6.730   4.980 -0.4441 -0.5901 -1.2674
 2780TIP3   OH2 8303   4.003   3.850   5.612 -0.0932  0.2219 -0.8841
 2780TIP3    H1 8304   4.017   3.911   5.540 -0.1779  1.0164 -0.2438
 2780TIP3    H2 8305   3.908   3.847   5.623 -0.0391  0.8486 -0.1896
 2781TIP3   OH2 8306   6.587   6.553   5.577  0.0462  0.2258 -0.4476
 2781TIP3    H1 8307   6.542   6.577   5.658 -0.0101 -1.1982 -0.0326
 2781TIP3    H2 8308   6.592   6.635   5.527 -0.1332  1.0752  0.8798
 2782TIP3   OH2 8309   3.470   4.959   1.631  0.2953 -0.4457  0.0033
 2782TIP3    H1 8310   3.504   4.881   1.675 -0.9082  0.5380  2.9094
 2782TIP3    H2 8311   3.521   5.031   1.669  0.7215  0.3211 -1.9163
 2783TIP3   OH2 8312   7.023   6.733   1.594  0.5169 -0.0576  0.1768
 2783TIP3    H1 8313   6.955   6.691   1.648  0.0418  1.2406  0.6204
 2783TIP3    H2 8314   6.979   6.753   1.511  0.9212 -0.9871 -0.2756
 2784TIP3   OH2 8315   5.171   0.977   5.709 -0.3255 -0.0717  0.0720
 2784TIP3    H1 8316   5.190   1.066   5.739  0.1626 -0.4725  0.9920
 2784TIP3    H2 8317   5.243   0.925   5.743 -0.3121 -0.7313 -0.9435
 2785TIP3   OH2 8318   6.687   4.658   3.520  0.3330  0.3587 -0.1754
 2785TIP3    H1 8319   6.725   4.610   3.447 -0.7424  0.5987 -0.9073
 2785TIP3    H2 8320   6.735   4.627   3.597  0.0423 -1.4655 -0.6936
 2786TIP3   OH2 8321   7.044   3.780   1.964  0.4329 -0.1721 -0.4818
 2786TIP3    H1 8322   7.109   3.734   1.912 -0.0937  0.9686 -2.2393
 2786TIP3    H2 8323   7.074   3.770   2.055  2.7277 -0.1767 -1.1760
 2787TIP3   OH2 8324   2.683   6.004   0.420  0.5345  0.3178  0.0294
 2787TIP3    H1 8325   2.770   5.997   0.460  0.6953 -1.0923 -0.4827
 2787TIP3    H2 8326   2.701   6.015   0.326  0.1526  1.4710  0.0780
 2788TIP3   OH2 8327   2.550   3.116   5.545  0.5460 -0.2039 -0.4595
 2788TIP3    H1 8328   2.490   3.055   5.588 -0.2293  0.9805  0.1944
 2788TIP3    H2 8329   2.566   3.184   5.611  1.0792  0.5009 -1.3018
 2789TIP3   OH2 8330   5.242   1.714   5.719  0.5725  0.0447  0.2526
 2789TIP3    H1 8331   5.293   1.733   5.640  1.6512 -1.9433  0.3897
 2789TIP3    H2 8332   5.268   1.782   5.781  0.3856  1.1100 -0.7919
 2790TIP3   OH2 8333   4.047   3.865   5.120 -0.0717  0.0526 -0.0159
 2790TIP3    H1 8334   4.099   3.806   5.065 -1.1956  0.3999 -1.5136
 2790TIP3    H2 8335   4.110   3.929   5.153  0.8249 -0.8360  0.0509
 2791TIP3   OH2 8336   4.118   5.693   0.768  0.0230  0.4093 -0.5225
 2791TIP3    H1 8337   4.133   5.765   0.708 -1.0890  0.6672 -0.5220
 2791TIP3    H2 8338   4.204   5.673   0.804  0.5723  0.7781 -1.5915
 2792TIP3   OH2 8339   5.166   6.064   2.078  0.4939 -0.6366 -0.0752
 2792TIP3    H1 8340   5.132   6.144   2.118 -1.9077 -1.7058  0.1958
 2792TIP3    H2 8341   5.210   6.018   2.149 -2.4435 -1.8174  1.1226
 2793TIP3   OH2 8342   1.302   3.059   5.616 -0.0413  0.1122  0.1541
 2793TIP3    H1 8343   1.235   3.084   5.553  0.3772 -2.4341 -1.4567
 2793TIP3    H2 8344   1.255   3.013   5.685 -0.0792 -1.1701 -0.6905
 2794TIP3   OH2 8345   3.127   4.655   1.231  0.0137  0.4673  0.5143
 2794TIP3    H1 8346   3.216   4.631   1.255  0.8975  0.8040 -2.1811
 2794TIP3    H2 8347   3.128   4.751   1.225  0.0114  0.3732 -1.3468
 2795TIP3   OH2 8348   2.193   5.481   2.503 -0.2462  0.2493  0.0386
 2795TIP3    H1 8349   2.217   5.496   2.594 -1.0700  0.4993  0.2180
 2795TIP3    H2 8350   2.102   5.452   2.505 -0.4125  0.6587 -0.7251
 2796TIP3   OH2 8351   2.741   2.364   2.112 -0.5814  0.2973 -0.3797
 2796TIP3    H1 8352   2.715   2.334   2.024 -0.0390  0.8413 -0.7354
 2796TIP3    H2 8353   2.690   2.310   2.172 -1.5583  0.4628 -1.0386
 2797TIP3   OH2 8354   0.998   1.926   4.259  0.4726 -0.6675  0.3026
 2797TIP3    H1 8355   1.053   1.861   4.302  0.8411  0.3314  1.3793
 2797TIP3    H2 8356   1.017   2.008   4.304 -1.2244 -0.1231  0.1007
 2798TIP3   OH2 8357   2.107   1.521   3.200  0.1210 -0.3750  0.2185
 2798TIP3    H1 8358   2.148   1.605   3.179  0.9766 -1.2432 -1.8985
 2798TIP3    H2 8359   2.060   1.497   3.121 -1.9315 -0.9110  1.5332
 2799TIP3   OH2 8360   2.185   6.107   1.319  0.3255  0.4701 -0.0696
 2799TIP3    H1 8361   2.147   6.026   1.287  1.2092  0.5012 -1.2905
 2799TIP3    H2 8362   2.126   6.176   1.288 -0.5899  0.3074  1.2272
 2800TIP3   OH2 8363   0.264   6.623   4.202  0.5527  0.6814 -0.1067
 2800TIP3    H1 8364   0.335   6.657   4.148  1.5259 -2.0900 -0.7511
 2800TIP3    H2 8365   0.248   6.535   4.168 -0.9339 -0.0051  2.1403
 2801TIP3   OH2 8366   4.716   0.830   1.135 -0.5365  0.0803  0.7516
 2801TIP3    H1 8367   4.683   0.749   1.096 -2.0510  0.5316  1.0360
 2801TIP3    H2 8368   4.796   0.849   1.086 -2.0151  0.2770 -1.7837
 2802TIP3   OH2 8369   0.451   4.034   1.006  0.3641 -0.5275 -0.3910
 2802TIP3    H1 8370   0.537   4.037   1.048  1.4224 -1.4808 -2.3355
 2802TIP3    H2 8371   0.453   4.106   0.943 -0.6515  0.0506  0.2348
 2803TIP3   OH2 8372   0.215   1.321   1.338  0.2159 -0.3031 -0.0632
 2803TIP3    H1 8373   0.217   1.278   1.424  0.8510 -1.6264 -0.7239
 2803TIP3    H2 8374   0.222   1.250   1.275  2.1423  0.7789 -1.1753
 2804TIP3   OH2 8375   0.731   3.377   2.157  0.2083 -0.1507 -0.8616
 2804TIP3    H1 8376   0.703   3.468   2.169  1.5240  0.1703 -0.0905
 2804TIP3    H2 8377   0.767   3.352   2.241 -1.0145 -1.7304 -0.7706
 2805TIP3   OH2 8378   2.863   5.316   2.929  0.5061 -0.5075  0.6803
 2805TIP3    H1 8379   2.903   5.325   2.843  0.4138 -0.4352  0.6438
 2805TIP3    H2 8380   2.936   5.315   2.991  0.5314  0.2761  0.6661
 2806TIP3   OH2 8381   2.130   3.883   4.578  0.0849 -0.1240  0.1958
 2806TIP3    H1 8382   2.158   3.909   4.490  3.3078 -1.0904  0.7736
 2806TIP3    H2 8383   2.124   3.965   4.626  0.6875  0.2608 -0.3541
 2807TIP3   OH2 8384   6.756   4.005   3.898 -0.1289  0.1878 -0.6323
 2807TIP3    H1 8385   6.704   4.017   3.978  0.8553  1.8154 -0.1746
 2807TIP3    H2 8386   6.821   3.939   3.922 -3.3252 -3.9037 -1.9959
 2808TIP3   OH2 8387   5.319   0.816   0.042 -0.6697 -0.7274  0.2873
 2808TIP3    H1 8388   5.330   0.835   0.135 -0.0523 -1.7391  0.4360
 2808TIP3    H2 8389   5.240   0.763   0.037 -0.9569 -0.2972  0.1707
 2809TIP3   OH2 8390   5.006   2.459   3.456 -0.2941  0.3245 -0.1447
 2809TIP3    H1 8391   5.007   2.518   3.380 -2.2512 -0.9462 -1.2356
 2809TIP3    H2 8392   4.916   2.464   3.489  0.1672 -0.1899  1.2856
 2810TIP3   OH2 8393   6.419   5.294   3.699  0.1053  0.3839  0.2190
 2810TIP3    H1 8394   6.385   5.276   3.787 -1.4245  0.4974 -0.3296
 2810TIP3    H2 8395   6.514   5.287   3.709 -0.0964 -0.9167  1.5856
 2811TIP3   OH2 8396   1.865   4.218   0.506 -0.3559  0.7068 -0.2176
 2811TIP3    H1 8397   1.894   4.157   0.438  0.7585 -0.5650  1.3205
 2811TIP3    H2 8398   1.775   4.192   0.524  0.4081 -1.3037  1.1485
 2812TIP3   OH2 8399   2.477   5.353   0.397  0.1582  0.2161 -0.7685
 2812TIP3    H1 8400   2.470   5.441   0.360  0.4742  0.5686 -0.0240
 2812TIP3    H2 8401   2.405   5.304   0.359 -0.5021  1.0264 -0.5885
 2813TIP3   OH2 8402   2.780   2.682   0.997 -0.1939  0.3062  0.2200
 2813TIP3    H1 8403   2.817   2.626   1.065 -1.3067  0.1293  0.7148
 2813TIP3    H2 8404   2.775   2.626   0.920 -1.3098 -0.3277  0.7145
 2814TIP3   OH2 8405   7.121   3.874   2.562 -0.1783 -1.0827  0.1694
 2814TIP3    H1 8406   7.039   3.867   2.610  0.0221 -0.1823  0.6467
 2814TIP3    H2 8407   7.172   3.797   2.590 -0.4642 -1.1089  0.6229
 2815TIP3   OH2 8408   4.622   0.551   4.850  0.3414 -0.1159  0.4077
 2815TIP3    H1 8409   4.611   0.499   4.771 -0.4025  0.2390  0.2708
 2815TIP3    H2 8410   4.692   0.613   4.828 -0.5431  0.6458 -0.3366
 2816TIP3   OH2 8411   2.897   1.228   2.837  0.2629 -0.5271  0.5908
 2816TIP3    H1 8412   2.880   1.143   2.878  0.4194  0.2019  2.2257
 2816TIP3    H2 8413   2.826   1.238   2.774  1.7163 -3.0583 -1.6570
 2817TIP3   OH2 8414   3.001   5.973   4.091 -0.3168  0.3713 -0.2579
 2817TIP3    H1 8415   3.016   6.051   4.037  1.0974 -0.1743 -0.6990
 2817TIP3    H2 8416   3.081   5.965   4.144 -0.0160 -1.3006 -0.9040
 2818TIP3   OH2 8417   4.218   1.299   4.953 -0.0747  0.0456 -0.1075
 2818TIP3    H1 8418   4.210   1.282   4.859 -1.3428  1.1904 -0.2474
 2818TIP3    H2 8419   4.145   1.251   4.992 -0.9451  1.4112  0.0009
 2819TIP3   OH2 8420   6.650   0.854   3.506 -0.1090  0.0213  0.1811
 2819TIP3    H1 8421   6.687   0.942   3.517 -1.7431  0.8907 -0.8849
 2819TIP3    H2 8422   6.710   0.811   3.445  0.1692  0.7490 -0.0773
 2820TIP3   OH2 8423   2.081   3.862   0.726 -0.5598  0.1705 -0.0151
 2820TIP3    H1 8424   2.011   3.862   0.662 -1.2395 -0.4100  0.7108
 2820TIP3    H2 8425   2.149   3.917   0.688 -0.6695 -0.7010 -1.5311
 2821TIP3   OH2 8426   3.434   0.186   2.556  0.3005 -0.2737 -0.5266
 2821TIP3    H1 8427   3.347   0.155   2.580 -0.2716  0.9145 -0.9507
 2821TIP3    H2 8428   3.494   0.130   2.604 -0.7000 -1.1115 -0.2189
 2822TIP3   OH2 8429   1.653   1.896   1.994 -0.3413 -0.6151  0.1660
 2822TIP3    H1 8430   1.565   1.861   2.005 -0.4861 -0.1489  0.5435
 2822TIP3    H2 8431   1.711   1.819   2.000 -0.6782 -0.8428  0.5385
 2823TIP3   OH2 8432   0.807   4.581   3.815 -0.0064 -0.0820  0.3200
 2823TIP3    H1 8433   0.777   4.656   3.867 -2.6046 -1.7140  1.3999
 2823TIP3    H2 8434   0.742   4.513   3.832  0.9898 -1.8690 -2.3980
 2824TIP3   OH2 8435   5.248   0.122   5.451  0.4437  0.0331 -0.1925
 2824TIP3    H1 8436   5.294   0.130   5.368  1.4021  1.2457  0.4173
 2824TIP3    H2 8437   5.317   0.131   5.517 -0.3571 -0.4491  0.7422
 2825TIP3   OH2 8438   1.162   6.002   5.766  0.2700  0.1854 -0.6035
 2825TIP3    H1 8439   1.115   5.961   5.694  0.3730  1.1073 -1.2027
 2825TIP3    H2 8440   1.098   6.005   5.837  0.0760 -0.4406 -0.7401
 2826TIP3   OH2 8441   5.661   0.834   0.801 -0.0912  0.4243 -0.3597
 2826TIP3    H1 8442   5.683   0.803   0.889  0.7976  1.4557 -0.1923
 2826TIP3    H2 8443   5.745   0.840   0.756 -0.4439  0.7480 -0.9955
 2827TIP3   OH2 8444   4.865   0.710   2.433  0.9548  0.0918  0.0511
 2827TIP3    H1 8445   4.950   0.753   2.440  2.4921 -2.3153 -2.0754
 2827TIP3    H2 8446   4.875   0.629   2.484 -0.5240  0.3585  0.8123
 2828TIP3   OH2 8447   2.666   5.171   0.444  0.2044  0.1054  0.3174
 2828TIP3    H1 8448   2.659   5.150   0.537  0.7078  0.1228  0.3640
 2828TIP3    H2 8449   2.603   5.241   0.430 -1.3167 -1.2293  0.2116
 2829TIP3   OH2 8450   1.261   4.855   0.644 -0.4723 -0.4821  0.0116
 2829TIP3    H1 8451   1.283   4.889   0.558 -0.6996 -0.2120  0.0593
 2829TIP3    H2 8452   1.289   4.763   0.642 -0.5249 -0.4901 -0.3674
 2830TIP3   OH2 8453   0.344   3.078   1.312  0.2899 -0.4957 -0.4885
 2830TIP3    H1 8454   0.318   3.134   1.240  1.9951 -0.5338 -1.1748
 2830TIP3    H2 8455   0.383   3.001   1.271  2.9690  0.2756  0.3866
 2831TIP3   OH2 8456   6.191   3.882   4.561 -0.1564 -0.2534 -0.4992
 2831TIP3    H1 8457   6.271   3.910   4.516 -0.9912  0.4333 -1.6141
 2831TIP3    H2 8458   6.200   3.787   4.569  0.5970 -0.2326 -0.9534
 2832TIP3   OH2 8459   1.493   0.339   2.870 -0.4053  0.4208  0.5972
 2832TIP3    H1 8460   1.571   0.306   2.915 -0.1120  0.5462  0.1842
 2832TIP3    H2 8461   1.527   0.396   2.801 -0.8806  0.8960  0.7448
 2833TIP3   OH2 8462   6.937   0.044   1.553  0.2666  0.3151 -0.0758
 2833TIP3    H1 8463   6.907  -0.020   1.618 -1.2237  0.5381 -0.4979
 2833TIP3    H2 8464   6.987  -0.007   1.489  0.0045 -0.2403  0.1576
 2834TIP3   OH2 8465   1.845   4.820   2.905  0.3664 -0.4880 -0.2119
 2834TIP3    H1 8466   1.794   4.807   2.986  0.8638 -1.2657 -0.0128
 2834TIP3    H2 8467   1.932   4.788   2.927  0.4420 -0.9399 -1.1397
 2835TIP3   OH2 8468   4.343   1.263   1.761  0.1721 -0.2828  0.5642
 2835TIP3    H1 8469   4.292   1.199   1.712 -1.1767  1.9728 -1.2344
 2835TIP3    H2 8470   4.415   1.213   1.799 -0.8374 -2.8281 -0.6197
 2836TIP3   OH2 8471   4.430   1.682   0.811 -0.5119 -0.2240  0.1603
 2836TIP3    H1 8472   4.421   1.745   0.882 -0.7862 -0.6151  0.4771
 2836TIP3    H2 8473   4.500   1.623   0.839 -0.3662 -0.1562 -0.0606
 2837TIP3   OH2 8474   1.238   4.808   2.147 -0.3687  0.4020  0.0952
 2837TIP3    H1 8475   1.175   4.740   2.169 -1.3626 -0.2156 -3.8596
 2837TIP3    H2 8476   1.185   4.883   2.121  0.3727  0.1586 -2.4894
 2838TIP3   OH2 8477   0.609   6.145   3.545  0.2831  0.0906 -0.4399
 2838TIP3    H1 8478   0.546   6.092   3.594 -0.0503 -0.1336 -1.0988
 2838TIP3    H2 8479   0.556   6.193   3.482  0.6176  0.9762 -0.0732
 2839TIP3   OH2 8480   1.092   6.310   1.065 -0.2994 -0.0076 -0.1221
 2839TIP3    H1 8481   1.010   6.293   1.112 -0.5366  0.3256 -0.4128
 2839TIP3    H2 8482   1.110   6.227   1.020  0.2378 -0.5232  1.0013
 2840TIP3   OH2 8483   2.411   5.204   3.558  0.1883 -0.3424  0.1426
 2840TIP3    H1 8484   2.346   5.172   3.495  1.5654 -1.6356 -0.6800
 2840TIP3    H2 8485   2.414   5.298   3.543 -0.7850 -0.3860 -0.4793
 2841TIP3   OH2 8486   5.909   4.518   1.705  0.1696  0.1997  0.0353
 2841TIP3    H1 8487   5.948   4.469   1.778  1.4569 -0.4264 -1.0353
 2841TIP3    H2 8488   5.983   4.539   1.648 -0.0429  4.6675  1.0654
 2842TIP3   OH2 8489   6.047   4.092   0.216  0.5401  0.8398 -0.3149
 2842TIP3    H1 8490   6.070   4.132   0.132  0.1695 -1.1181 -1.4093
 2842TIP3    H2 8491   5.952   4.082   0.213  0.5689  0.3487  0.1369
 2843TIP3   OH2 8492   1.994   4.056   0.351 -0.0218 -0.0450 -0.0651
 2843TIP3    H1 8493   1.964   4.006   0.276 -0.7460 -0.3091  0.3938
 2843TIP3    H2 8494   2.090   4.058   0.342 -0.1373  0.5805 -1.3884
 2844TIP3   OH2 8495   5.124   1.346   0.909  0.7314  0.3309 -0.1826
 2844TIP3    H1 8496   5.108   1.283   0.979  0.8429 -0.7283 -1.0845
 2844TIP3    H2 8497   5.039   1.355   0.865  0.9340  0.1170 -0.6159
 2845TIP3   OH2 8498   0.576   2.910   4.851 -0.4214 -0.0957 -0.6476
 2845TIP3    H1 8499   0.543   2.827   4.819 -2.5234  1.3744 -2.6540
 2845TIP3    H2 8500   0.559   2.972   4.780  3.1851  1.6931 -0.2338
 2846TIP3   OH2 8501   3.825   5.426   3.345 -0.1001  0.2181 -0.3773
 2846TIP3    H1 8502   3.824   5.471   3.260  1.9365 -0.2371 -0.6974
 2846TIP3    H2 8503   3.802   5.335   3.325  1.8044 -0.2267 -0.7195
 2847TIP3   OH2 8504   0.660   1.382   4.100 -0.1071 -0.3993  0.0760
 2847TIP3    H1 8505   0.617   1.421   4.177  1.6128  0.6009  0.6186
 2847TIP3    H2 8506   0.748   1.421   4.101  0.3599 -1.3131 -1.7173
 2848TIP3   OH2 8507   5.149   1.931   1.262 -0.2786 -0.5318  0.0161
 2848TIP3    H1 8508   5.233   1.893   1.237 -0.4752 -1.8471  1.1979
 2848TIP3    H2 8509   5.085   1.885   1.209 -0.2087  1.5457 -2.0274
 2849TIP3   OH2 8510   2.814   5.375   0.041  0.0403 -0.1532 -0.4715
 2849TIP3    H1 8511   2.737   5.318   0.033 -0.4644  0.4869 -0.2651
 2849TIP3    H2 8512   2.855   5.349   0.123 -0.2709 -0.1206 -0.3041
 2850TIP3   OH2 8513   1.700   0.185   4.474  0.6612  0.0558  0.1795
 2850TIP3    H1 8514   1.670   0.099   4.503  0.0655 -0.4197 -1.7047
 2850TIP3    H2 8515   1.629   0.245   4.499  1.1538  0.0611  1.6452
 2851TIP3   OH2 8516   2.253   6.760   1.788  0.0710  0.3075 -0.1594
 2851TIP3    H1 8517   2.160   6.784   1.781  0.2585  0.7525 -1.4117
 2851TIP3    H2 8518   2.256   6.668   1.764  0.0845  0.5898 -1.2865
 2852TIP3   OH2 8519   5.799   5.226   3.940  0.4458  0.0929  0.0002
 2852TIP3    H1 8520   5.729   5.280   3.978  0.1191 -1.5612  1.9124
 2852TIP3    H2 8521   5.755   5.148   3.907  1.3324 -1.0631  1.4026
 2853TIP3   OH2 8522   0.562   6.036   3.187 -0.0537 -0.4493 -0.2708
 2853TIP3    H1 8523   0.496   6.003   3.126  0.2362 -1.5501 -0.0172
 2853TIP3    H2 8524   0.549   5.983   3.266  0.9360 -0.4821 -0.1186
 2854TIP3   OH2 8525   1.943   2.078   3.411 -0.0136  0.4619 -0.3809
 2854TIP3    H1 8526   1.995   2.014   3.362  0.8045  0.9285 -0.1258
 2854TIP3    H2 8527   2.005   2.145   3.437 -0.6949  0.8906  0.1691
 2855TIP3   OH2 8528   1.846   2.215   0.769  0.0897  0.3440  0.4188
 2855TIP3    H1 8529   1.770   2.262   0.735  1.1961  1.0874 -1.1676
 2855TIP3    H2 8530   1.850   2.135   0.716 -0.0037 -0.0598  1.0103
 2856TIP3   OH2 8531   0.288   2.189   5.800 -0.1792 -0.2439  0.5715
 2856TIP3    H1 8532   0.333   2.138   5.868  1.5892 -0.0854 -0.4067
 2856TIP3    H2 8533   0.252   2.264   5.846  0.3325 -0.5186  1.4533
 2857TIP3   OH2 8534   5.214   0.627   2.408 -0.3445  0.5697  0.2571
 2857TIP3    H1 8535   5.160   0.563   2.454 -0.1041  0.4390  0.3635
 2857TIP3    H2 8536   5.175   0.711   2.430 -1.3164  0.4103 -0.7553
 2858TIP3   OH2 8537   1.291   2.425   4.792 -0.4551  0.1290 -0.1130
 2858TIP3    H1 8538   1.308   2.445   4.884  0.7086  0.1727 -0.3186
 2858TIP3    H2 8539   1.231   2.350   4.795 -0.4910  0.1783  0.6804
 2859TIP3   OH2 8540   1.009   0.263   5.688  0.1527 -0.3639 -0.4224
 2859TIP3    H1 8541   1.021   0.244   5.781  1.4966 -0.2243 -0.5561
 2859TIP3    H2 8542   0.923   0.305   5.684 -0.9528 -2.3860  0.4495
 2860TIP3   OH2 8543   2.791   4.790   3.219  0.4002 -0.0721 -0.0100
 2860TIP3    H1 8544   2.733   4.817   3.147 -0.9756  0.3351  1.1939
 2860TIP3    H2 8545   2.855   4.731   3.178 -0.9306 -0.6277 -1.3840
 2861TIP3   OH2 8546   2.400   5.491   5.278  0.0560  0.5352  0.0723
 2861TIP3    H1 8547   2.332   5.517   5.217 -0.0436 -0.2761 -0.1751
 2861TIP3    H2 8548   2.377   5.401   5.303  0.9853  0.2746  0.0344
 2862TIP3   OH2 8549   3.946   0.439   3.281  0.0769 -0.0760 -0.1137
 2862TIP3    H1 8550   3.967   0.370   3.345 -0.7574 -0.0828  0.1614
 2862TIP3    H2 8551   3.852   0.453   3.291  0.6338  3.0449  1.7790
 2863TIP3   OH2 8552   1.904   4.256   5.892 -0.4615 -0.0651 -0.0479
 2863TIP3    H1 8553   1.889   4.310   5.814 -0.8724  0.1031  0.1422
 2863TIP3    H2 8554   1.842   4.183   5.882  0.5461 -0.8674 -0.6339
 2864TIP3   OH2 8555   0.644   2.996   1.980 -0.0552  0.1866 -0.2517
 2864TIP3    H1 8556   0.556   2.975   1.950 -0.7964  2.2301  0.3528
 2864TIP3    H2 8557   0.660   3.085   1.948  1.5916  0.0322  0.0790
 2865TIP3   OH2 8558  -0.003   1.487   3.554 -0.0312  0.8191 -0.0355
 2865TIP3    H1 8559   0.084   1.465   3.588 -0.0735  1.0270  0.2142
 2865TIP3    H2 8560   0.005   1.577   3.523  0.1439  0.4539 -1.0698
 2866TIP3   OH2 8561   1.764   3.432   3.181 -0.0633 -0.1444  0.4155
 2866TIP3    H1 8562   1.860   3.431   3.179 -0.0617 -0.8315  0.6359
 2866TIP3    H2 8563   1.739   3.421   3.090  0.0359  4.2777 -0.3762
 2867TIP3   OH2 8564   6.376   1.638   5.123 -0.4219 -0.1214 -0.3516
 2867TIP3    H1 8565   6.456   1.688   5.107 -0.8460  0.9085  0.5555
 2867TIP3    H2 8566   6.348   1.608   5.036  0.2195  0.6469 -0.8372
 2868TIP3   OH2 8567   3.326   1.577   0.378 -0.3094 -0.2476 -0.1255
 2868TIP3    H1 8568   3.393   1.606   0.317  0.4887 -1.6829  0.0305
 2868TIP3    H2 8569   3.321   1.647   0.444  1.0862 -0.1429 -0.1073
 2869TIP3   OH2 8570   3.422   3.050   4.187  0.3143 -0.2673  0.2611
 2869TIP3    H1 8571   3.437   2.973   4.241 -0.5446 -1.3308 -0.9668
 2869TIP3    H2 8572   3.327   3.060   4.184  0.3741  0.2184 -0.4252
 2870TIP3   OH2 8573   6.801   2.801   4.655  0.6779  0.4303  0.2939
 2870TIP3    H1 8574   6.888   2.828   4.625  1.0270 -0.7616  0.1755
 2870TIP3    H2 8575   6.808   2.706   4.665 -0.9276  0.1579 -0.8238
 2871TIP3   OH2 8576   5.546   6.576   3.157 -0.0587 -0.1024 -0.2425
 2871TIP3    H1 8577   5.461   6.606   3.189 -1.1176 -0.6854 -2.2939
 2871TIP3    H2 8578   5.607   6.645   3.183 -1.2696  0.6370  0.7419
 2872TIP3   OH2 8579   4.060   3.492   0.752 -0.0287 -0.3770  0.0011
 2872TIP3    H1 8580   4.064   3.461   0.661 -0.0362 -1.3346  0.3125
 2872TIP3    H2 8581   3.969   3.476   0.778  0.2690 -1.2439  0.5480
 2873TIP3   OH2 8582   4.988   5.932   3.653 -1.1209  0.9302  0.0925
 2873TIP3    H1 8583   5.016   6.013   3.610 -0.7374 -0.5180 -2.6312
 2873TIP3    H2 8584   5.067   5.898   3.695  0.3229 -0.7163 -3.5112
 2874TIP3   OH2 8585   6.713   0.356   1.881 -0.3451 -0.2732  0.7344
 2874TIP3    H1 8586   6.769   0.350   1.803 -0.6644  2.0150  0.2435
 2874TIP3    H2 8587   6.774   0.344   1.954  0.3589 -0.2772  0.1638
 2875TIP3   OH2 8588   4.711   0.039   2.052 -0.5815 -0.2507  0.1104
 2875TIP3    H1 8589   4.794  -0.005   2.072 -0.4152  0.0204  0.0211
 2875TIP3    H2 8590   4.692   0.016   1.961 -0.9451 -0.8536  0.3316
 2876TIP3   OH2 8591  -0.006   4.107   1.868  0.2005 -0.3231  0.1870
 2876TIP3    H1 8592   0.030   4.166   1.935  0.8988 -0.0600 -0.4070
 2876TIP3    H2 8593  -0.002   4.020   1.908  0.6552 -0.1732  0.4741
 2877TIP3   OH2 8594   1.677   0.567   4.852  0.3733  0.3922 -0.9855
 2877TIP3    H1 8595   1.702   0.509   4.780 -1.9884  0.6944 -2.1502
 2877TIP3    H2 8596   1.705   0.654   4.825 -0.6635  0.5304 -1.6454
 2878TIP3   OH2 8597   5.751   0.510   4.983  0.7052 -0.5013  0.6481
 2878TIP3    H1 8598   5.723   0.551   5.065  0.2225 -0.2363  0.3580
 2878TIP3    H2 8599   5.791   0.428   5.010 -0.9295 -1.2095  1.0652
 2879TIP3   OH2 8600   0.501   5.692   1.191  0.1356 -0.7759  0.0750
 2879TIP3    H1 8601   0.497   5.601   1.218  1.6919 -1.0539 -0.5288
 2879TIP3    H2 8602   0.575   5.696   1.131 -0.0578  0.8407 -0.1041
 2880TIP3   OH2 8603   3.836   2.442   3.956  0.1287  0.6440 -0.1036
 2880TIP3    H1 8604   3.861   2.468   4.045 -2.3656  1.0114  0.5829
 2880TIP3    H2 8605   3.879   2.506   3.899  1.3799  0.6993  0.8602
 2881TIP3   OH2 8606   4.346   4.456   2.685  0.1608  0.2251 -0.0033
 2881TIP3    H1 8607   4.303   4.533   2.648 -0.4183 -0.1534 -0.1249
 2881TIP3    H2 8608   4.439   4.469   2.666  0.6485  2.7353  3.1960
 2882TIP3   OH2 8609   1.116   0.284   5.233 -0.0147 -0.3773 -0.4192
 2882TIP3    H1 8610   1.108   0.198   5.274  1.0778  1.2127  3.6571
 2882TIP3    H2 8611   1.201   0.316   5.262  0.3231  1.5215 -3.1530
 2883TIP3   OH2 8612   4.893   0.944   5.478  0.2500 -0.3310  0.0757
 2883TIP3    H1 8613   4.873   0.908   5.565 -1.7351  0.4873 -0.0000
 2883TIP3    H2 8614   4.937   1.026   5.497 -0.0238 -0.2359  0.3172
 2884TIP3   OH2 8615   2.829   2.474   1.189 -0.0304 -0.5164  0.2980
 2884TIP3    H1 8616   2.917   2.437   1.194 -0.4180 -1.3362  2.1688
 2884TIP3    H2 8617   2.782   2.432   1.261 -1.5278  1.0137  0.2681
 2885TIP3   OH2 8618   6.596   3.042   0.843 -0.5015 -0.5728  0.2095
 2885TIP3    H1 8619   6.515   3.087   0.863 -1.9150 -3.1466  0.7385
 2885TIP3    H2 8620   6.604   3.048   0.747 -0.7094  0.6026  0.2546
 2886TIP3   OH2 8621   4.972   5.777   2.287  0.0731  0.0750  0.2311
 2886TIP3    H1 8622   5.057   5.821   2.288  0.2944 -0.3371 -0.1340
 2886TIP3    H2 8623   4.991   5.686   2.310 -0.2187 -0.1089 -0.2374
 2887TIP3   OH2 8624   7.040   6.785   1.916  0.3459  0.4090 -0.1517
 2887TIP3    H1 8625   7.086   6.747   1.991  1.4212  0.9958 -0.5017
 2887TIP3    H2 8626   6.990   6.712   1.879 -0.1644  0.1049  1.0968
 2888TIP3   OH2 8627   6.368   3.150   2.138 -0.6774 -0.3743  0.6015
 2888TIP3    H1 8628   6.293   3.105   2.100  0.7337 -1.4802 -1.0048
 2888TIP3    H2 8629   6.423   3.080   2.172  1.0810  0.1295 -1.0416
 2889TIP3   OH2 8630   1.677   2.120   1.108 -0.2723  0.5400  0.5183
 2889TIP3    H1 8631   1.762   2.155   1.081 -1.3137  2.0384 -1.0284
 2889TIP3    H2 8632   1.613   2.168   1.055 -2.0888 -0.6735  1.4934
 2890TIP3   OH2 8633   3.023   2.531   0.161 -0.1385 -0.1818  0.4450
 2890TIP3    H1 8634   3.057   2.541   0.073 -0.7543 -0.9593  0.0993
 2890TIP3    H2 8635   3.076   2.590   0.215  0.9994 -0.5445 -0.2431
 2891TIP3   OH2 8636   0.860   6.441   5.754  0.8024 -0.7294  0.1324
 2891TIP3    H1 8637   0.887   6.514   5.699  1.6458 -1.3353 -0.2804
 2891TIP3    H2 8638   0.882   6.363   5.703 -1.1398 -1.2839  0.0592
 2892TIP3   OH2 8639   5.157   3.346   0.642  0.0058  0.5521  0.4178
 2892TIP3    H1 8640   5.249   3.371   0.640  0.8333 -2.1692  0.0983
 2892TIP3    H2 8641   5.127   3.355   0.552 -0.1742  1.7665  0.5836
 2893TIP3   OH2 8642   6.390   4.728   2.385 -0.1858 -0.1650  0.2814
 2893TIP3    H1 8643   6.434   4.782   2.320 -0.4170 -1.3930 -0.9506
 2893TIP3    H2 8644   6.392   4.780   2.465 -0.0652  1.4797 -0.7467
 2894TIP3   OH2 8645   5.988   3.559   3.573  0.1857  0.3658  0.1065
 2894TIP3    H1 8646   5.965   3.500   3.645 -0.0905  1.1391  0.6678
 2894TIP3    H2 8647   5.913   3.554   3.513  0.2103  0.0711  0.1010
 2895TIP3   OH2 8648   2.506   3.396   5.685 -0.0286 -0.2945  1.0503
 2895TIP3    H1 8649   2.457   3.334   5.739 -0.8488  0.1562  0.8519
 2895TIP3    H2 8650   2.440   3.432   5.625  0.2045  1.4745  1.8064
 2896TIP3   OH2 8651   1.481   6.226   1.122  0.0066  0.2776 -0.0669
 2896TIP3    H1 8652   1.421   6.153   1.138  1.2070 -1.0926 -1.5377
 2896TIP3    H2 8653   1.555   6.187   1.075  0.6454  2.4528 -1.0033
 2897TIP3   OH2 8654   4.600   3.775   0.545  0.2071 -0.0986 -0.0255
 2897TIP3    H1 8655   4.621   3.729   0.463 -0.1247 -1.6732  0.7433
 2897TIP3    H2 8656   4.534   3.840   0.520  1.1743  0.4516 -1.2619
 2898TIP3   OH2 8657   1.584   4.386   0.929 -0.5742 -0.0410  0.0183
 2898TIP3    H1 8658   1.585   4.326   0.854  0.7796 -0.6651  0.5126
 2898TIP3    H2 8659   1.557   4.470   0.891  2.4455  0.2851 -1.7161
 2899TIP3   OH2 8660   5.763   2.576   0.861 -0.0208  0.2317 -0.2684
 2899TIP3    H1 8661   5.757   2.491   0.905 -0.1622 -0.0342 -0.7915
 2899TIP3    H2 8662   5.834   2.622   0.906 -0.8389  0.3797  0.9285
 2900TIP3   OH2 8663   1.148   3.068   0.152  0.4253  0.2565 -0.0239
 2900TIP3    H1 8664   1.090   3.144   0.145  2.2644  1.7363 -0.1428
 2900TIP3    H2 8665   1.192   3.080   0.236  2.1225  0.3904 -0.8901
 2901TIP3   OH2 8666   1.665   2.651   1.631  0.3820  0.1922 -0.2288
 2901TIP3    H1 8667   1.639   2.595   1.704  1.6692  1.6132  1.3929
 2901TIP3    H2 8668   1.713   2.592   1.573 -0.6696 -0.9689  0.0178
 2902TIP3   OH2 8669   4.524   0.773   0.861 -0.0344  0.4130  0.2862
 2902TIP3    H1 8670   4.521   0.703   0.797  0.8338  1.1854 -0.6160
 2902TIP3    H2 8671   4.565   0.733   0.938 -1.9428 -0.7842  0.7571
 2903TIP3   OH2 8672   2.254   2.854   2.254  0.9999 -0.3639  0.6122
 2903TIP3    H1 8673   2.335   2.853   2.203 -0.9116 -0.5147 -2.7613
 2903TIP3    H2 8674   2.202   2.782   2.218 -0.1625 -1.2050  3.6593
 2904TIP3   OH2 8675   5.052   1.641   2.000 -0.0451  0.6034  0.3274
 2904TIP3    H1 8676   5.033   1.731   1.974  1.5520  0.9087  0.1656
 2904TIP3    H2 8677   5.103   1.649   2.081 -0.3397 -0.1846  0.6066
 2905TIP3   OH2 8678   6.242   2.203   4.654  0.2418 -0.2815  0.0817
 2905TIP3    H1 8679   6.227   2.121   4.607 -0.9191  0.5332 -1.0242
 2905TIP3    H2 8680   6.297   2.178   4.728 -0.3069 -2.1028 -0.0754
 2906TIP3   OH2 8681   2.523   4.506   5.751  0.1233 -0.3135  0.1591
 2906TIP3    H1 8682   2.528   4.493   5.657 -0.4336  2.0199 -0.2610
 2906TIP3    H2 8683   2.570   4.432   5.789 -0.0355 -1.5298 -1.9170
 2907TIP3   OH2 8684   0.642   0.353   4.504 -0.7024  0.3285  0.0667
 2907TIP3    H1 8685   0.641   0.348   4.409 -1.3960  1.0920  0.0337
 2907TIP3    H2 8686   0.703   0.284   4.530 -0.4465  0.1636 -0.9281
 2908TIP3   OH2 8687   3.646   0.743   4.465  0.0519 -0.2492 -0.0647
 2908TIP3    H1 8688   3.739   0.762   4.459  0.2171 -1.1811 -0.7258
 2908TIP3    H2 8689   3.628   0.737   4.558  0.1277  2.3136  0.1949
 2909TIP3   OH2 8690   4.833   6.493   5.345  0.1058  0.1779 -0.2083
 2909TIP3    H1 8691   4.799   6.558   5.406  0.2719  2.3095 -2.2299
 2909TIP3    H2 8692   4.923   6.520   5.328  0.3380 -0.8587 -0.7412
 2910TIP3   OH2 8693   0.846   2.445   0.445 -0.1291 -0.1952 -0.0034
 2910TIP3    H1 8694   0.780   2.513   0.433 -0.4674 -0.0515  2.1669
 2910TIP3    H2 8695   0.920   2.474   0.392 -0.6920  1.2517 -0.0446
 2911TIP3   OH2 8696   3.116   5.017   3.500 -0.2934  0.1348  0.3585
 2911TIP3    H1 8697   3.118   4.921   3.501 -0.4607  0.1362  0.9143
 2911TIP3    H2 8698   3.068   5.039   3.420 -0.3706 -0.2495  0.2976
 2912TIP3   OH2 8699   2.316   0.442   0.141 -0.0796 -0.2365  0.1835
 2912TIP3    H1 8700   2.270   0.521   0.169 -0.9189 -0.5345 -0.3286
 2912TIP3    H2 8701   2.375   0.422   0.214 -0.9806 -0.0305  0.9921
 2913TIP3   OH2 8702   2.867   5.569   4.144  0.2452  0.2552  0.4296
 2913TIP3    H1 8703   2.935   5.604   4.201  1.7096 -1.4252 -0.1767
 2913TIP3    H2 8704   2.827   5.646   4.104  0.4402  1.3739  2.2871
 2914TIP3   OH2 8705   2.017   1.993   0.660  0.4993 -0.2957 -0.4353
 2914TIP3    H1 8706   2.090   2.039   0.700  1.0837 -1.1598 -0.4746
 2914TIP3    H2 8707   2.014   2.026   0.570  2.2410 -1.8060 -1.0972
 2915TIP3   OH2 8708   6.729   4.329   1.438  0.0561  0.0529  0.1579
 2915TIP3    H1 8709   6.707   4.287   1.521 -2.5791 -0.8671 -0.8934
 2915TIP3    H2 8710   6.699   4.268   1.371 -1.9431  2.5754 -1.4695
 2916TIP3   OH2 8711   3.765   2.561   4.455 -0.1598 -0.0630  0.0771
 2916TIP3    H1 8712   3.749   2.583   4.547  0.9186 -0.5109  0.3882
 2916TIP3    H2 8713   3.704   2.616   4.406 -1.6932 -0.7615  1.1128
 2917TIP3   OH2 8714   4.585   5.086   5.543  0.6924 -0.2057  0.6323
 2917TIP3    H1 8715   4.628   5.061   5.462 -0.8936  0.1586 -0.3563
 2917TIP3    H2 8716   4.562   5.003   5.584 -2.4343 -0.5637 -1.4974
 2918TIP3   OH2 8717   6.520   1.068   4.929 -0.2824 -0.3335 -0.2404
 2918TIP3    H1 8718   6.469   1.058   5.009  1.2421  1.0166  0.9736
 2918TIP3    H2 8719   6.537   1.162   4.923  3.7598 -0.8175  0.6527
 2919TIP3   OH2 8720   4.889   1.093   3.177  0.3815  0.2300  0.1545
 2919TIP3    H1 8721   4.831   1.051   3.240 -0.3983 -0.2030 -0.8124
 2919TIP3    H2 8722   4.830   1.129   3.111  1.1913 -1.8488 -1.8668
 2920TIP3   OH2 8723   1.838   5.869   4.028 -0.5342 -0.0689 -0.2858
 2920TIP3    H1 8724   1.875   5.787   3.996 -0.4973 -0.4531  0.7304
 2920TIP3    H2 8725   1.756   5.879   3.980 -0.5299 -0.6863 -0.4259
 2921TIP3   OH2 8726   5.066   5.761   0.443  0.0650  0.2612  0.1667
 2921TIP3    H1 8727   4.989   5.746   0.389 -0.0574 -0.2552  0.4727
 2921TIP3    H2 8728   5.104   5.673   0.455  1.4905  0.6485 -1.1252
 2922TIP3   OH2 8729   6.277   4.685   3.021  0.1824 -0.6664  0.5548
 2922TIP3    H1 8730   6.368   4.663   3.002  1.0847  3.0009 -0.1528
 2922TIP3    H2 8731   6.227   4.634   2.958  2.0057 -0.5553 -1.0902
 2923TIP3   OH2 8732   6.019   6.602   4.109  0.1978  0.0446 -0.5233
 2923TIP3    H1 8733   6.054   6.639   4.028  0.9982  1.5945  0.4811
 2923TIP3    H2 8734   5.952   6.540   4.080  1.4604 -0.5437 -2.4049
 2924TIP3   OH2 8735   5.549   3.800   0.086  0.4549 -0.0653  0.1979
 2924TIP3    H1 8736   5.545   3.869   0.019 -1.6084  0.2408  0.5613
 2924TIP3    H2 8737   5.506   3.839   0.162  0.7736 -1.1915  0.9712
 2925TIP3   OH2 8738   3.714   1.901   4.707 -0.1486 -0.0896 -0.1495
 2925TIP3    H1 8739   3.774   1.961   4.663 -0.3319  0.5091  0.3963
 2925TIP3    H2 8740   3.634   1.906   4.656 -1.1201  2.3085  1.4385
 2926TIP3   OH2 8741   4.976   5.366   0.195  0.2765  0.1935  0.4275
 2926TIP3    H1 8742   4.907   5.349   0.259  0.1744  1.0723  0.5639
 2926TIP3    H2 8743   4.943   5.328   0.114  0.9055 -1.9503  1.1091
 2927TIP3   OH2 8744   3.177   5.423   1.899 -0.2038  0.0466  0.2012
 2927TIP3    H1 8745   3.136   5.338   1.886  1.5583 -0.7482 -0.4717
 2927TIP3    H2 8746   3.150   5.475   1.824 -0.0987 -0.4253 -0.1687
 2928TIP3   OH2 8747   5.043   3.289   5.451  0.2147  0.2807 -0.4328
 2928TIP3    H1 8748   5.015   3.207   5.410 -0.2973  0.2124  0.0394
 2928TIP3    H2 8749   4.961   3.334   5.471  0.4746  0.5652 -0.0051
 2929TIP3   OH2 8750   1.066   1.988   0.689  0.5219  0.1858 -0.0753
 2929TIP3    H1 8751   1.088   2.043   0.764 -0.1821 -1.7532  1.6585
 2929TIP3    H2 8752   0.972   1.970   0.699 -0.2815  1.9987 -2.9566
 2930TIP3   OH2 8753   4.329   1.611   5.050 -0.3527  0.0679  0.1606
 2930TIP3    H1 8754   4.344   1.588   5.142 -2.7226 -0.5226  0.4773
 2930TIP3    H2 8755   4.330   1.706   5.048  2.1298  0.1099  0.2769
 2931TIP3   OH2 8756   1.897   3.106   1.029  0.6079  0.2254 -0.2659
 2931TIP3    H1 8757   1.829   3.139   0.969  1.4823  0.1257 -1.3476
 2931TIP3    H2 8758   1.853   3.101   1.114 -0.7309  0.1926 -0.9266
 2932TIP3   OH2 8759   6.210   3.431   5.467  0.6691  0.0816 -0.4785
 2932TIP3    H1 8760   6.277   3.438   5.399  2.4820 -0.5713  1.1316
 2932TIP3    H2 8761   6.256   3.390   5.540 -0.4047  3.1324  2.1306
 2933TIP3   OH2 8762   3.126   3.156   3.371  0.1718  0.2639  0.2252
 2933TIP3    H1 8763   3.047   3.209   3.359  0.0507 -0.3704 -2.0770
 2933TIP3    H2 8764   3.119   3.125   3.462 -1.7110  1.0204  0.3935
 2934TIP3   OH2 8765   5.122   5.096   3.593  0.0008 -0.3688  0.1661
 2934TIP3    H1 8766   5.159   5.074   3.679  1.3524  0.2739 -0.2240
 2934TIP3    H2 8767   5.134   5.017   3.541  0.8003 -0.1948  0.0679
 2935TIP3   OH2 8768   3.644   5.137   4.362  0.4801 -0.0791 -0.1318
 2935TIP3    H1 8769   3.658   5.124   4.268 -2.4130 -1.1949 -0.5151
 2935TIP3    H2 8770   3.699   5.071   4.404 -1.6915 -2.8385 -1.3544
 2936TIP3   OH2 8771   0.230   5.956   5.038  0.2678 -0.0116 -0.0456
 2936TIP3    H1 8772   0.142   5.937   5.071  0.1994 -1.5690 -1.0628
 2936TIP3    H2 8773   0.238   5.904   4.959  2.5409 -0.8272  0.6443
 2937TIP3   OH2 8774   1.426   4.879   3.829  0.5057  0.2432 -0.0054
 2937TIP3    H1 8775   1.408   4.948   3.893  1.8257  1.0402 -0.4533
 2937TIP3    H2 8776   1.349   4.879   3.772  0.0258  0.6133  0.6284
 2938TIP3   OH2 8777   6.872   0.888   0.567 -0.1359  0.4561 -0.0729
 2938TIP3    H1 8778   6.790   0.928   0.538  0.1106  1.1619  0.1637
 2938TIP3    H2 8779   6.926   0.962   0.595  0.2831 -0.0609  0.5307
 2939TIP3   OH2 8780   3.118   5.573   3.254  0.1250  0.2286  0.0623
 2939TIP3    H1 8781   3.135   5.535   3.341  1.1955  1.2613  0.3207
 2939TIP3    H2 8782   3.156   5.510   3.193 -0.1737 -0.2518  0.3648
 2940TIP3   OH2 8783   5.301   5.165   0.245  0.1886 -0.0026 -0.3171
 2940TIP3    H1 8784   5.311   5.217   0.165  1.0549 -1.1346 -0.9778
 2940TIP3    H2 8785   5.314   5.075   0.216 -0.2643 -0.4993  0.9809
 2941TIP3   OH2 8786   6.880   1.580   1.936  0.0419  0.3755  0.8936
 2941TIP3    H1 8787   6.818   1.608   2.004  0.3971  1.4303  0.8115
 2941TIP3    H2 8788   6.966   1.591   1.977  0.2473  0.7593  0.3688
 2942TIP3   OH2 8789   0.110   0.628   1.711 -0.0579 -0.1253 -0.2055
 2942TIP3    H1 8790   0.201   0.654   1.700  0.2935 -1.5086 -0.7121
 2942TIP3    H2 8791   0.065   0.666   1.636 -0.1017  1.2992  0.4912
 2943TIP3   OH2 8792   6.117   1.080   1.963 -0.0286 -0.1456 -0.5123
 2943TIP3    H1 8793   6.201   1.065   1.920 -0.6865 -2.0344 -1.2493
 2943TIP3    H2 8794   6.098   0.998   2.008 -0.4202  1.0381  1.6354
 2944TIP3   OH2 8795   2.600   4.533   3.305  0.1765 -0.0274  0.4255
 2944TIP3    H1 8796   2.688   4.542   3.341  0.1153 -0.2202  0.6184
 2944TIP3    H2 8797   2.569   4.448   3.335  0.6813 -0.8528 -1.2831
 2945TIP3   OH2 8798   5.608   2.658   1.829 -0.3511 -0.4881  0.2127
 2945TIP3    H1 8799   5.680   2.674   1.891 -0.3686 -1.0452  0.3804
 2945TIP3    H2 8800   5.647   2.603   1.761  0.0087  1.1285 -0.9555
 2946TIP3   OH2 8801   2.941   0.068   4.233  0.1714  0.2891 -0.0539
 2946TIP3    H1 8802   2.907   0.031   4.152 -1.8622  0.7827  0.5052
 2946TIP3    H2 8803   2.886   0.145   4.249 -0.4128 -0.5372  2.4450
 2947TIP3   OH2 8804   3.676   4.102   0.697  0.8809 -0.4362  0.0801
 2947TIP3    H1 8805   3.711   4.024   0.741  0.8782 -0.5866 -0.1851
 2947TIP3    H2 8806   3.734   4.173   0.725  0.3430 -0.3612  1.0597
 2948TIP3   OH2 8807   3.593   5.280   2.369 -0.0684  0.1869  0.1489
 2948TIP3    H1 8808   3.673   5.230   2.386  0.4513  0.5375 -1.1482
 2948TIP3    H2 8809   3.597   5.353   2.430  0.2721 -0.1505  0.5411
 2949TIP3   OH2 8810   5.654   4.579   2.857 -0.1828 -0.6416 -0.4293
 2949TIP3    H1 8811   5.561   4.601   2.857 -0.2558 -0.9434 -0.3264
 2949TIP3    H2 8812   5.667   4.531   2.938  0.2228  0.0459 -0.0781
 2950TIP3   OH2 8813   3.798   1.360   1.974 -0.3793  0.2036  0.1575
 2950TIP3    H1 8814   3.739   1.327   1.907  0.1604  2.6486 -1.6595
 2950TIP3    H2 8815   3.879   1.310   1.961 -0.4782  0.2427 -0.6418
 2951TIP3   OH2 8816   5.488   6.177   1.387 -0.1404 -0.5614  0.6824
 2951TIP3    H1 8817   5.531   6.245   1.335 -1.3253 -0.6275 -0.4337
 2951TIP3    H2 8818   5.479   6.215   1.474 -1.6694  1.1242 -0.1705
 2952TIP3   OH2 8819   2.483   2.094   5.732 -0.2531 -0.1634  0.2498
 2952TIP3    H1 8820   2.457   2.003   5.751  0.0058  0.3602  3.5698
 2952TIP3    H2 8821   2.476   2.139   5.815  0.7883  2.6454 -1.0685
 2953TIP3   OH2 8822   3.428   1.062   1.132  0.3100  0.1956 -0.7565
 2953TIP3    H1 8823   3.358   1.054   1.067 -0.0151  0.0921 -0.4000
 2953TIP3    H2 8824   3.509   1.064   1.081  0.0963 -0.4571 -1.1279
 2954TIP3   OH2 8825   0.807   1.089   2.605 -0.2172  0.0786 -0.0523
 2954TIP3    H1 8826   0.717   1.105   2.575  0.1542  0.8766 -0.7898
 2954TIP3    H2 8827   0.841   1.175   2.626 -0.4530 -0.4421  2.8059
 2955TIP3   OH2 8828   6.901   2.179   0.751 -0.3601  0.5889  0.0281
 2955TIP3    H1 8829   6.983   2.136   0.774 -0.4437 -0.7746 -1.9469
 2955TIP3    H2 8830   6.906   2.264   0.794  1.1198 -0.2776  1.6888
 2956TIP3   OH2 8831   2.927   4.935   2.697  0.2906 -0.1781  0.0468
 2956TIP3    H1 8832   3.009   4.982   2.711 -0.7094  2.3612 -1.8061
 2956TIP3    H2 8833   2.936   4.898   2.609 -0.8334  0.7911 -0.4842
 2957TIP3   OH2 8834   5.927   3.199   4.085 -0.6543 -0.3987 -0.0207
 2957TIP3    H1 8835   5.864   3.259   4.126 -0.1952 -0.8069  1.3386
 2957TIP3    H2 8836   5.888   3.112   4.094  0.1285 -0.6733  0.9542
 2958TIP3   OH2 8837   4.971   4.724   1.164 -0.9699 -0.6371  0.0337
 2958TIP3    H1 8838   5.050   4.671   1.169 -0.7371 -0.5975 -1.9927
 2958TIP3    H2 8839   4.909   4.672   1.112 -1.0114  0.6653 -1.3301
 2959TIP3   OH2 8840   3.268   5.092   3.138 -0.5410  0.0356  0.3588
 2959TIP3    H1 8841   3.356   5.105   3.103 -0.4512 -0.4649  0.3841
 2959TIP3    H2 8842   3.246   5.175   3.181  0.6280 -0.3800  1.8813
 2960TIP3   OH2 8843   0.286   3.360   3.316 -0.1183 -0.0688  0.2157
 2960TIP3    H1 8844   0.221   3.386   3.381  0.5333  1.4794  0.2820
 2960TIP3    H2 8845   0.365   3.345   3.367 -0.0686 -0.6395 -0.0220
 2961TIP3   OH2 8846   6.589   5.273   4.910 -0.5882 -0.7079  0.4548
 2961TIP3    H1 8847   6.636   5.348   4.873 -1.6270 -0.5716 -0.6486
 2961TIP3    H2 8848   6.619   5.198   4.857 -1.1362 -0.7221  0.1651
 2962TIP3   OH2 8849   5.636   5.152   5.261 -0.3061  0.3758 -0.0619
 2962TIP3    H1 8850   5.560   5.110   5.221 -0.5900  1.8576 -1.1810
 2962TIP3    H2 8851   5.689   5.183   5.187  0.1650  1.4653  0.6889
 2963TIP3   OH2 8852   2.913   3.870   1.036  0.3542 -0.3812 -0.9899
 2963TIP3    H1 8853   2.863   3.938   0.990  0.1986  0.2192  0.0497
 2963TIP3    H2 8854   2.940   3.810   0.966 -3.5495 -1.8955 -1.4287
 2964TIP3   OH2 8855   6.906   3.658   1.605 -0.1666 -0.4032 -0.3000
 2964TIP3    H1 8856   6.901   3.741   1.558 -0.5260 -0.9247 -1.2010
 2964TIP3    H2 8857   6.815   3.631   1.614 -0.0960 -0.3708  0.6081
 2965TIP3   OH2 8858   2.372   5.835   2.702  0.2213  0.1973 -0.4088
 2965TIP3    H1 8859   2.372   5.776   2.778  0.7877 -0.1722 -0.6881
 2965TIP3    H2 8860   2.305   5.900   2.722 -0.9971 -1.0090 -0.4539
 2966TIP3   OH2 8861   0.691   2.420   3.202 -0.4974  0.8614  0.3734
 2966TIP3    H1 8862   0.600   2.392   3.200 -0.0215 -0.7139 -0.9072
 2966TIP3    H2 8863   0.723   2.408   3.113  1.3013  0.2223  1.0531
 2967TIP3   OH2 8864   4.634   0.367   3.765 -0.4885  0.3889 -0.3400
 2967TIP3    H1 8865   4.725   0.358   3.794 -0.1167 -0.7692 -1.7240
 2967TIP3    H2 8866   4.622   0.294   3.705 -2.6243 -0.0027  0.4948
 2968TIP3   OH2 8867   6.228   0.756   1.094 -0.2001  0.5322  0.4826
 2968TIP3    H1 8868   6.271   0.783   1.175  1.3328  0.4388 -0.2439
 2968TIP3    H2 8869   6.277   0.802   1.025 -0.7948 -0.1889 -0.4490
 2969TIP3   OH2 8870   4.326   3.972   3.954  0.1601  0.1798  0.2543
 2969TIP3    H1 8871   4.257   3.974   4.019 -1.4318  0.3414 -1.3483
 2969TIP3    H2 8872   4.284   3.937   3.875  1.6684  1.1053 -1.0249
 2970TIP3   OH2 8873   6.735   2.855   2.702 -0.1157  0.1160  0.5150
 2970TIP3    H1 8874   6.678   2.814   2.766 -0.0556 -0.2747  0.3220
 2970TIP3    H2 8875   6.714   2.812   2.619 -1.2650  1.6367 -0.0465
 2971TIP3   OH2 8876   2.844   3.366   4.024  0.0871 -0.7444  0.2276
 2971TIP3    H1 8877   2.749   3.355   4.020 -0.4986  2.2376  2.4373
 2971TIP3    H2 8878   2.867   3.344   4.115  1.0001  1.1782  0.5185
 2972TIP3   OH2 8879   2.012   6.423   3.157 -0.5717  0.1217 -0.7161
 2972TIP3    H1 8880   1.939   6.407   3.097 -2.1496  1.7060  0.6150
 2972TIP3    H2 8881   2.068   6.485   3.111 -0.6806 -0.2491 -1.3463
 2973TIP3   OH2 8882   3.054   1.254   2.592  0.4474 -0.5311 -0.3162
 2973TIP3    H1 8883   3.086   1.165   2.579 -1.0160 -1.0157 -0.8616
 2973TIP3    H2 8884   3.052   1.265   2.687  0.7663 -1.0290 -0.2481
 2974TIP3   OH2 8885   5.871   3.585   0.811  0.2948  0.3776  0.4845
 2974TIP3    H1 8886   5.843   3.495   0.826  0.6941  0.5751  2.7145
 2974TIP3    H2 8887   5.851   3.601   0.718  0.3970 -2.0393 -0.0244
 2975TIP3   OH2 8888   1.928   5.257   4.205  0.0878 -0.0362 -1.0857
 2975TIP3    H1 8889   1.968   5.326   4.258 -0.0199 -2.3465  2.3253
 2975TIP3    H2 8890   1.835   5.260   4.228  0.0987 -1.3528 -0.8332
 2976TIP3   OH2 8891   4.269   1.299   1.409 -0.3205  0.2890  0.4666
 2976TIP3    H1 8892   4.246   1.338   1.493 -2.8872 -2.3248  1.1132
 2976TIP3    H2 8893   4.224   1.353   1.344 -1.3921  0.1827  1.0976
 2977TIP3   OH2 8894   5.546   3.092   1.520  0.4649  0.4690  0.4254
 2977TIP3    H1 8895   5.462   3.136   1.514 -0.0790 -0.5345  0.4402
 2977TIP3    H2 8896   5.611   3.162   1.516 -0.3855  1.3142  1.0597
 2978TIP3   OH2 8897   3.116   5.372   3.048 -0.4705  0.3194  0.2776
 2978TIP3    H1 8898   3.102   5.440   2.982  1.5910  1.7642  1.2339
 2978TIP3    H2 8899   3.205   5.342   3.033 -0.1485  0.3111  2.0489
 2979TIP3   OH2 8900   3.882   1.147   4.817  0.5813 -0.1449 -0.0181
 2979TIP3    H1 8901   3.850   1.237   4.826 -1.4236 -0.8596  0.6188
 2979TIP3    H2 8902   3.817   1.094   4.864  1.0863 -2.0403 -1.3538
 2980TIP3   OH2 8903   6.366   3.136   1.393  0.1545  0.2256  0.0273
 2980TIP3    H1 8904   6.426   3.073   1.352  0.4463  0.0308  0.7299
 2980TIP3    H2 8905   6.279   3.105   1.370  0.3105 -0.0626 -0.1790
 2981TIP3   OH2 8906   3.460   1.631   2.546 -0.0162 -0.1232 -0.1036
 2981TIP3    H1 8907   3.448   1.587   2.630 -0.0291 -0.1838 -0.1378
 2981TIP3    H2 8908   3.533   1.692   2.561 -1.3569  1.3989  0.5836
 2982TIP3   OH2 8909   2.411   3.417   2.960  0.5348  0.9064 -0.5586
 2982TIP3    H1 8910   2.344   3.486   2.966 -0.0538  0.3037 -0.0986
 2982TIP3    H2 8911   2.449   3.429   2.873 -0.7439  0.7413 -1.1671
 2983TIP3   OH2 8912   6.975   5.688   1.258  0.9190 -0.2236 -0.2727
 2983TIP3    H1 8913   6.917   5.643   1.321  1.5977 -0.4059  0.2337
 2983TIP3    H2 8914   6.923   5.762   1.227  0.7088  0.1133  0.8189
 2984TIP3   OH2 8915   6.497   1.277   0.863 -0.0390 -0.4597  0.3713
 2984TIP3    H1 8916   6.523   1.225   0.940 -0.2058 -0.1853  0.6128
 2984TIP3    H2 8917   6.559   1.349   0.861 -0.0693 -0.4361  0.2774
 2985TIP3   OH2 8918   2.949   3.096   1.571  0.4755 -0.3340 -0.6632
 2985TIP3    H1 8919   2.992   3.153   1.507 -0.8011 -0.5754 -1.7480
 2985TIP3    H2 8920   2.863   3.079   1.535 -0.5482  0.0616  1.4347
 2986TIP3   OH2 8921   1.514   5.429   3.884 -0.3394  0.0531  0.9331
 2986TIP3    H1 8922   1.512   5.374   3.805 -3.0488  0.4919  0.6095
 2986TIP3    H2 8923   1.453   5.387   3.944  1.7123 -0.3015  2.9316
 2987TIP3   OH2 8924   2.498   2.282   4.395 -0.9991  0.1833 -0.0220
 2987TIP3    H1 8925   2.551   2.359   4.414 -1.2813  0.4721 -0.3916
 2987TIP3    H2 8926   2.503   2.229   4.475 -0.7904  0.5747  0.2279
 2988TIP3   OH2 8927   3.809   0.373   1.757  0.4629  0.1498 -0.4101
 2988TIP3    H1 8928   3.827   0.299   1.815 -1.6054 -1.1642 -1.3272
 2988TIP3    H2 8929   3.742   0.423   1.804  2.6191  2.1802  0.7175
 2989TIP3   OH2 8930   4.557   1.416   3.526  0.4152  0.0063 -0.2008
 2989TIP3    H1 8931   4.531   1.324   3.533  0.7447 -0.1988 -1.3892
 2989TIP3    H2 8932   4.475   1.465   3.525 -0.0831 -0.6285 -4.0008
 2990TIP3   OH2 8933   4.288   2.885   0.145 -0.1714 -0.4623  0.0302
 2990TIP3    H1 8934   4.211   2.834   0.117  0.5488 -1.2050 -0.6451
 2990TIP3    H2 8935   4.362   2.843   0.101  0.6278  0.2616  0.6511
 2991TIP3   OH2 8936   1.653   0.987   5.211  0.1345  0.2066  0.4990
 2991TIP3    H1 8937   1.725   0.964   5.269 -0.1063  0.1337  0.7673
 2991TIP3    H2 8938   1.580   1.008   5.269  0.1953  1.1416  0.2544
 2992TIP3   OH2 8939   3.427   5.177   0.488 -0.0706 -0.1304 -0.2390
 2992TIP3    H1 8940   3.425   5.093   0.534  0.8533  0.6837  1.3906
 2992TIP3    H2 8941   3.457   5.156   0.399  0.9512 -1.4276  0.3868
 2993TIP3   OH2 8942   4.253   3.267   4.270 -0.0839 -0.4368  0.1683
 2993TIP3    H1 8943   4.218   3.178   4.273 -1.4454  0.0798  0.4390
 2993TIP3    H2 8944   4.176   3.323   4.280  0.6207  0.7918 -0.9578
 2994TIP3   OH2 8945   2.970   5.076   0.014  0.2485  0.0434 -0.1755
 2994TIP3    H1 8946   2.916   5.057   0.091  1.0754  0.5130  0.5344
 2994TIP3    H2 8947   2.999   5.166   0.028  0.4924  0.0925 -0.9928
 2995TIP3   OH2 8948   1.568   1.295   0.450  0.1014  0.2074  0.0560
 2995TIP3    H1 8949   1.547   1.285   0.357  0.0153  0.6477  0.0283
 2995TIP3    H2 8950   1.662   1.277   0.456 -0.1627 -1.3307  0.1153
 2996TIP3   OH2 8951   6.118   4.572   5.402 -0.6978 -0.3516 -0.8429
 2996TIP3    H1 8952   6.155   4.624   5.473 -0.5241 -1.9058  0.2543
 2996TIP3    H2 8953   6.056   4.630   5.359 -1.5325  0.3395  1.2077
 2997TIP3   OH2 8954   5.969   1.854   5.720  0.0395  0.0130 -0.1457
 2997TIP3    H1 8955   5.900   1.920   5.718  0.5285  0.5162 -1.3175
 2997TIP3    H2 8956   5.925   1.773   5.747 -0.4317  0.9526  2.1150
 2998TIP3   OH2 8957   6.170   4.325   5.588  0.2243 -0.0211 -0.0952
 2998TIP3    H1 8958   6.193   4.309   5.496 -1.1115 -2.2186 -0.1220
 2998TIP3    H2 8959   6.091   4.378   5.584 -0.1598 -0.5998 -0.2360
 2999TIP3   OH2 8960   2.943   5.579   0.274  0.0616 -0.0680  0.3798
 2999TIP3    H1 8961   2.907   5.655   0.229 -2.5132 -0.4629  1.6022
 2999TIP3    H2 8962   2.877   5.511   0.262  1.0646 -1.3045  1.5520
 3000TIP3   OH2 8963   6.247   5.420   1.039 -0.1620 -0.3924 -0.0174
 3000TIP3    H1 8964   6.302   5.364   0.985 -0.0747 -0.5205  0.2021
 3000TIP3    H2 8965   6.183   5.361   1.078 -0.0700 -0.3445  0.2145
 3001TIP3   OH2 8966   0.964   5.323   4.620  0.3918  0.3069 -0.5289
 3001TIP3    H1 8967   1.042   5.378   4.616  0.8228 -0.2563 -0.0756
 3001TIP3    H2 8968   0.987   5.254   4.682 -0.9819  0.9562  0.7633
 3002TIP3   OH2 8969   4.601   2.136   1.540 -0.4600  0.0199 -0.0357
 3002TIP3    H1 8970   4.663   2.201   1.507 -1.5364  1.3592  0.4970
 3002TIP3    H2 8971   4.528   2.140   1.480 -0.1910 -1.3339 -0.4805
 3003TIP3   OH2 8972   0.933   1.597   4.555  0.0701 -0.4667  0.2020
 3003TIP3    H1 8973   0.843   1.622   4.534 -0.1933 -1.1692  0.4880
 3003TIP3    H2 8974   0.927   1.550   4.638  0.7000 -0.5296  0.2197
 3004TIP3   OH2 8975   7.189   6.285   5.332  0.2942 -0.1473  0.0920
 3004TIP3    H1 8976   7.187   6.338   5.412 -1.4041 -2.3358  1.6194
 3004TIP3    H2 8977   7.156   6.344   5.264  0.2534  1.3091  1.3087
 3005TIP3   OH2 8978   3.448   5.647   1.296  0.6063  0.5375 -0.6629
 3005TIP3    H1 8979   3.429   5.564   1.253 -0.5729  0.2689  0.3231
 3005TIP3    H2 8980   3.408   5.713   1.239  0.6777  0.3498 -0.9318
 3006TIP3   OH2 8981   0.371   0.284   3.222  0.2630  0.0090  0.3502
 3006TIP3    H1 8982   0.348   0.368   3.182 -0.7679 -0.1509  0.5859
 3006TIP3    H2 8983   0.290   0.233   3.220  0.4180 -0.3492  1.7686
 3007TIP3   OH2 8984   4.098   3.381   3.374  0.0484 -0.0636 -0.0863
 3007TIP3    H1 8985   4.128   3.472   3.379  0.0122 -0.0236 -0.5992
 3007TIP3    H2 8986   4.005   3.385   3.398  0.6547 -0.3399  2.7080
 3008TIP3   OH2 8987   2.257   3.986   3.529  0.0325 -0.4128 -0.4107
 3008TIP3    H1 8988   2.171   3.974   3.487 -0.1251 -3.8404  0.5946
 3008TIP3    H2 8989   2.320   3.958   3.463  0.0147 -2.0895  0.2166
 3009TIP3   OH2 8990   5.358   3.621   1.385  0.2708 -0.3818  0.5122
 3009TIP3    H1 8991   5.370   3.699   1.440  0.3445 -0.2565  0.3211
 3009TIP3    H2 8992   5.289   3.646   1.324  0.4726 -0.3764  0.2865
 3010TIP3   OH2 8993   3.327   1.037   5.114  0.1271 -0.5829 -0.3570
 3010TIP3    H1 8994   3.237   1.003   5.116 -0.5386  1.1210  1.0108
 3010TIP3    H2 8995   3.329   1.103   5.183  1.6420  1.3664 -2.1439
 3011TIP3   OH2 8996   2.200   1.682   4.539  0.2664 -0.3123 -0.2250
 3011TIP3    H1 8997   2.288   1.684   4.578 -0.0444  0.2871  0.4505
 3011TIP3    H2 8998   2.144   1.726   4.602 -0.7662 -1.7611 -0.0910
 3012TIP3   OH2 8999   7.200   1.504   2.959  0.0185 -0.2920 -0.3020
 3012TIP3    H1 9000   7.283   1.537   2.994  0.8527 -1.6151 -0.9717
 3012TIP3    H2 9001   7.149   1.481   3.037  0.4446  0.1291  0.1053
 3013TIP3   OH2 9002   4.019   0.624   1.196  0.1607 -0.2557  0.3162
 3013TIP3    H1 9003   3.946   0.587   1.146 -0.0380  0.0471  0.3808
 3013TIP3    H2 9004   3.996   0.608   1.288  0.8052 -1.3482  0.3127
 3014TIP3   OH2 9005   4.986   1.067   4.917 -0.1500 -0.7424  0.0761
 3014TIP3    H1 9006   4.907   1.044   4.868 -1.8953  2.7077  0.8989
 3014TIP3    H2 9007   5.049   1.093   4.850 -0.8766 -0.4485 -0.5055
 3015TIP3   OH2 9008   4.891   5.874   3.232 -0.4873  0.2670  0.2649
 3015TIP3    H1 9009   4.848   5.907   3.311  0.1038  1.8884 -0.0503
 3015TIP3    H2 9010   4.928   5.952   3.191 -1.5630 -0.3985 -2.1096
 3016TIP3   OH2 9011   0.316   6.475   0.735 -0.3503 -0.1922  0.2747
 3016TIP3    H1 9012   0.234   6.517   0.710 -0.0817 -0.0513 -0.4032
 3016TIP3    H2 9013   0.342   6.518   0.816 -0.3511  0.5961 -0.1284
 3017TIP3   OH2 9014   3.020   6.322   0.442  0.5649  0.3393 -0.2324
 3017TIP3    H1 9015   2.974   6.399   0.409  0.5820  0.4165 -0.0762
 3017TIP3    H2 9016   3.109   6.331   0.407  0.8196  0.8671  0.5425
 3018TIP3   OH2 9017   4.519   4.179   1.572  0.2354  0.1909  0.2111
 3018TIP3    H1 9018   4.548   4.158   1.483  1.6539  0.0717  0.6778
 3018TIP3    H2 9019   4.426   4.158   1.572 -0.1097  1.4717 -1.6345
 3019TIP3   OH2 9020   4.548   3.871   2.804  0.0698  0.0876  0.6175
 3019TIP3    H1 9021   4.598   3.826   2.736 -0.0492  0.5054  0.2561
 3019TIP3    H2 9022   4.536   3.960   2.772 -0.5745  0.1005  0.8745
 3020TIP3   OH2 9023   5.794   2.089   5.751  0.7351 -0.2318 -0.0940
 3020TIP3    H1 9024   5.840   2.113   5.832  0.4513  1.0995 -0.3015
 3020TIP3    H2 9025   5.833   2.145   5.684 -0.3989  0.1037 -0.4853
 3021TIP3   OH2 9026   7.211   6.439   4.474 -0.1245 -0.4276  0.4766
 3021TIP3    H1 9027   7.198   6.533   4.461 -0.1469 -0.0366  2.9150
 3021TIP3    H2 9028   7.126   6.400   4.453 -0.4897  0.2563  0.6384
 3022TIP3   OH2 9029   2.626   5.019   1.454 -0.5629 -0.0385 -0.2988
 3022TIP3    H1 9030   2.609   4.947   1.514 -0.2512  0.2331  0.1170
 3022TIP3    H2 9031   2.710   4.997   1.413 -0.4753  0.0843 -0.1827
 3023TIP3   OH2 9032   4.876   5.610   0.699 -0.2390  0.0689 -0.0857
 3023TIP3    H1 9033   4.891   5.691   0.652  2.2910  0.7262  1.6492
 3023TIP3    H2 9034   4.872   5.635   0.791  0.3367 -1.6918  0.4805
 3024TIP3   OH2 9035   2.740   4.300   5.044  0.0422 -0.6362 -0.1511
 3024TIP3    H1 9036   2.768   4.375   5.096  1.0051 -0.5916 -0.7014
 3024TIP3    H2 9037   2.748   4.225   5.103  0.2494 -0.4663  0.0403
 3025TIP3   OH2 9038   6.319   6.595   5.288 -0.3137 -0.6912  0.4817
 3025TIP3    H1 9039   6.398   6.598   5.235 -1.1587 -0.0664 -0.8155
 3025TIP3    H2 9040   6.298   6.502   5.295  0.7577 -0.8974  1.2359
 3026TIP3   OH2 9041   0.804   2.082   4.870 -0.1224  0.0959 -0.2234
 3026TIP3    H1 9042   0.768   2.143   4.805  1.9781 -0.3591 -1.8857
 3026TIP3    H2 9043   0.769   1.997   4.845 -0.8035  0.1593  0.4333
 3027TIP3   OH2 9044   5.923   4.729   4.919  0.6997 -0.1319  0.4304
 3027TIP3    H1 9045   5.850   4.692   4.870 -1.0413  1.5802  1.5902
 3027TIP3    H2 9046   5.940   4.664   4.988 -0.7286  0.0626  1.0074
 3028TIP3   OH2 9047   6.387   2.011   1.025  0.2311  0.1145  0.0055
 3028TIP3    H1 9048   6.304   1.964   1.024  0.2074  0.1581 -0.0675
 3028TIP3    H2 9049   6.398   2.044   0.936  0.7417 -0.6035 -0.2081
 3029TIP3   OH2 9050   4.063   3.001   0.273 -0.0961 -0.9675 -0.3149
 3029TIP3    H1 9051   4.157   2.989   0.262  0.0910  1.1615 -1.6059
 3029TIP3    H2 9052   4.029   3.012   0.184 -1.3957 -0.6694  0.1868
 3030TIP3   OH2 9053   5.254   3.670   4.340 -0.1938 -0.4152 -0.2746
 3030TIP3    H1 9054   5.278   3.757   4.372 -1.7058  0.0901 -0.4279
 3030TIP3    H2 9055   5.249   3.616   4.419  1.3533 -0.5567 -0.2338
 3031TIP3   OH2 9056   3.707   3.723   2.843 -0.4426 -0.5780 -0.6114
 3031TIP3    H1 9057   3.760   3.800   2.820 -1.2821 -0.2521 -1.5465
 3031TIP3    H2 9058   3.761   3.649   2.815  0.4535 -0.3669  0.4658
 3032TIP3   OH2 9059   0.016   3.342   5.524 -0.1107 -0.2628  0.0788
 3032TIP3    H1 9060   0.062   3.417   5.487  0.1100 -0.8721 -0.9067
 3032TIP3    H2 9061   0.073   3.267   5.508 -0.3098 -0.6514  1.0870
 3033TIP3   OH2 9062   4.934   0.363   2.867 -0.0832  0.3553 -0.1784
 3033TIP3    H1 9063   4.902   0.438   2.918 -1.7463  0.8551 -1.8727
 3033TIP3    H2 9064   4.870   0.352   2.797  2.3653  0.1057 -2.5700
 3034TIP3   OH2 9065   5.956   1.630   0.801 -0.3063  0.7891  0.3324
 3034TIP3    H1 9066   5.978   1.723   0.799 -1.2834  1.0477 -1.7374
 3034TIP3    H2 9067   5.873   1.624   0.754 -0.0479 -1.1783  0.0272
 3035TIP3   OH2 9068   3.715   2.813   2.028 -0.0017  0.2325 -0.0271
 3035TIP3    H1 9069   3.653   2.752   1.986  0.3344 -0.7348  0.8178
 3035TIP3    H2 9070   3.799   2.794   1.987 -0.2218  1.5156 -1.1407
 3036TIP3   OH2 9071   4.795   0.171   5.564  0.0049  0.1409 -0.7120
 3036TIP3    H1 9072   4.840   0.189   5.481  0.3978  1.8207 -0.1815
 3036TIP3    H2 9073   4.783   0.076   5.565 -0.2522  0.1011 -2.8040
 3037TIP3   OH2 9074   0.833   4.251   0.329 -0.4171 -0.4634 -0.3507
 3037TIP3    H1 9075   0.925   4.229   0.346 -0.0428  1.8010  0.9121
 3037TIP3    H2 9076   0.805   4.298   0.408 -2.3562 -0.1941 -1.1525
 3038TIP3   OH2 9077   2.945   1.647   0.849 -0.6751 -0.6946 -0.0329
 3038TIP3    H1 9078   2.989   1.608   0.925  0.1479 -1.3782 -0.8296
 3038TIP3    H2 9079   2.887   1.712   0.886 -0.9387 -1.6121  1.2511
 3039TIP3   OH2 9080   3.477   2.581   2.065 -0.3036  0.2453  0.8698
 3039TIP3    H1 9081   3.483   2.546   2.154 -0.6005 -0.0322  0.7808
 3039TIP3    H2 9082   3.549   2.540   2.018 -1.5047 -1.4084  0.3760
 3040TIP3   OH2 9083   3.796   3.579   2.414 -0.2942 -0.2149 -0.4713
 3040TIP3    H1 9084   3.813   3.485   2.403  0.2838 -0.2111  0.2665
 3040TIP3    H2 9085   3.723   3.598   2.355 -0.0566 -1.0156 -1.0364
 3041TIP3   OH2 9086   7.134   4.383   3.136 -0.1711  0.0577  0.0317
 3041TIP3    H1 9087   7.187   4.371   3.215  2.6280 -0.7121 -1.7853
 3041TIP3    H2 9088   7.106   4.294   3.112 -0.7328  0.2449 -0.0255
 3042TIP3   OH2 9089   5.776   3.566   4.657  1.0245  0.2758  0.3732
 3042TIP3    H1 9090   5.746   3.575   4.567 -1.1553 -0.0993  0.9847
 3042TIP3    H2 9091   5.819   3.480   4.660  0.8223  0.1485 -0.2502
 3043TIP3   OH2 9092   5.387   0.584   4.920  0.5855 -0.0132 -0.1539
 3043TIP3    H1 9093   5.300   0.624   4.914  0.8824  0.5557 -0.8809
 3043TIP3    H2 9094   5.388   0.541   5.005  0.4814  2.0895  0.9738
 3044TIP3   OH2 9095   4.246   1.545   3.002 -0.0127 -0.5806  0.3030
 3044TIP3    H1 9096   4.163   1.589   3.022 -0.3350 -0.6496 -0.8352
 3044TIP3    H2 9097   4.302   1.615   2.968 -0.1237 -0.8145 -0.3726
 3045TIP3   OH2 9098   6.773   0.811   1.983 -0.0491  0.3295 -0.3545
 3045TIP3    H1 9099   6.707   0.845   2.043  0.5585 -0.2941  0.6931
 3045TIP3    H2 9100   6.847   0.870   1.993 -0.4792  1.1095 -1.6306
 3046TIP3   OH2 9101   6.997   0.085   4.234 -0.0618  0.3032  0.5109
 3046TIP3    H1 9102   6.955   0.110   4.152 -1.0376 -1.6769  0.3379
 3046TIP3    H2 9103   7.038   0.165   4.265  3.2807  0.5484 -3.5466
 3047TIP3   OH2 9104   0.766   6.685   1.914  0.0528  0.2464  0.7944
 3047TIP3    H1 9105   0.841   6.626   1.917  0.1783  0.3857  0.4556
 3047TIP3    H2 9106   0.744   6.701   2.006  1.0469  0.9801  0.9221
 3048TIP3   OH2 9107   3.746   2.316   0.794  0.2635  0.1087 -0.1323
 3048TIP3    H1 9108   3.733   2.305   0.700  1.8529  1.3872 -0.5514
 3048TIP3    H2 9109   3.829   2.273   0.812 -0.3105 -0.6438  0.8265
 3049TIP3   OH2 9110   0.648   2.018   2.136  0.2231 -0.7729  0.2614
 3049TIP3    H1 9111   0.610   1.935   2.164  3.0088 -2.8315 -1.5438
 3049TIP3    H2 9112   0.695   2.050   2.213 -1.6657 -0.2327  1.2690
 3050TIP3   OH2 9113   1.447   0.202   0.102 -0.7060  0.2822 -0.0173
 3050TIP3    H1 9114   1.486   0.196   0.015 -0.9084  0.8283 -0.1466
 3050TIP3    H2 9115   1.501   0.145   0.156 -0.2343  0.3835 -0.3778
 3051TIP3   OH2 9116   5.634   4.567   1.953 -0.0323  0.1616 -0.6781
 3051TIP3    H1 9117   5.715   4.516   1.955 -0.5198 -0.5998 -0.0599
 3051TIP3    H2 9118   5.612   4.581   2.045  0.6129  2.3587 -0.7955
 3052TIP3   OH2 9119   3.731   0.157   4.534 -0.0922  0.2664  0.0322
 3052TIP3    H1 9120   3.790   0.113   4.473 -0.2331 -0.2772  0.2789
 3052TIP3    H2 9121   3.669   0.203   4.478  0.7109  1.0501 -0.2304
 3053TIP3   OH2 9122   0.518   5.236   3.667 -0.2111  0.2629  0.5525
 3053TIP3    H1 9123   0.538   5.169   3.732  0.1214 -0.4906 -0.3110
 3053TIP3    H2 9124   0.594   5.238   3.609  0.5137  2.5543  1.4821
 3054TIP3   OH2 9125   2.464   6.455   1.023  0.5915  0.2205 -0.6535
 3054TIP3    H1 9126   2.553   6.477   1.051  0.0264  1.0157  0.6188
 3054TIP3    H2 9127   2.410   6.526   1.058 -0.6420 -0.6395 -0.7633
 3055TIP3   OH2 9128   6.741   6.493   4.363  0.5676 -0.2055  0.2405
 3055TIP3    H1 9129   6.740   6.588   4.367  1.0553 -0.2475  1.8504
 3055TIP3    H2 9130   6.760   6.473   4.271  0.3377  1.2318 -0.1403
 3056TIP3   OH2 9131   3.682   4.728   1.330 -0.0940  0.1398  0.3688
 3056TIP3    H1 9132   3.771   4.695   1.332  0.3594  1.3762  1.2190
 3056TIP3    H2 9133   3.688   4.814   1.289 -1.5076 -1.3694 -3.5550
 3057TIP3   OH2 9134   4.239   1.593   3.825 -0.4698 -0.2376  0.5592
 3057TIP3    H1 9135   4.166   1.539   3.855  1.1477 -2.5224  0.6712
 3057TIP3    H2 9136   4.239   1.583   3.730  0.2118 -1.0591  0.6238
 3058TIP3   OH2 9137   0.535   1.543   3.465 -0.0533  0.3286  0.7044
 3058TIP3    H1 9138   0.498   1.615   3.515 -0.4096  0.2774  0.5174
 3058TIP3    H2 9139   0.494   1.549   3.379  1.2143  0.9514  0.1158
 3059TIP3   OH2 9140   0.349   5.044   2.267  0.5390  0.0138  0.2226
 3059TIP3    H1 9141   0.337   5.015   2.358  1.8177 -1.3571 -0.0178
 3059TIP3    H2 9142   0.270   5.095   2.248  0.8522  1.5091  2.5370
 3060TIP3   OH2 9143   1.175   4.596   5.617 -0.6755 -0.2631  0.0440
 3060TIP3    H1 9144   1.128   4.618   5.697  0.1974 -2.1255  1.1505
 3060TIP3    H2 9145   1.224   4.517   5.640  0.2254 -0.3847 -2.1067
 3061TIP3   OH2 9146   0.744   6.234   3.135  0.1506  0.1575  0.0422
 3061TIP3    H1 9147   0.675   6.171   3.152  0.3018 -0.0195  0.0076
 3061TIP3    H2 9148   0.729   6.264   3.045  0.9430 -0.9318 -0.4697
 3062TIP3   OH2 9149   1.123   1.235   5.809 -0.6570 -0.4374  0.1159
 3062TIP3    H1 9150   1.112   1.311   5.866 -0.7187  0.2155 -0.7330
 3062TIP3    H2 9151   1.180   1.176   5.858 -1.1168 -0.1273  1.0533
 3063TIP3   OH2 9152   6.241   4.546   4.183  0.3708  0.1995  0.1416
 3063TIP3    H1 9153   6.217   4.454   4.190  4.0910 -0.9677 -0.0649
 3063TIP3    H2 9154   6.215   4.584   4.267 -0.9935 -1.0847  0.3351
 3064TIP3   OH2 9155   5.490   1.879   0.428 -0.3506  1.0687  0.4184
 3064TIP3    H1 9156   5.481   1.846   0.517 -1.1738  1.3219  0.4377
 3064TIP3    H2 9157   5.461   1.970   0.433  1.3674  1.6677  0.2560
 3065TIP3   OH2 9158   2.980   3.744   5.776  0.3525 -0.5637 -0.0236
 3065TIP3    H1 9159   3.010   3.666   5.729 -1.1028 -0.7040 -0.7715
 3065TIP3    H2 9160   2.919   3.787   5.716 -1.2100 -0.4924  1.5251
 3066TIP3   OH2 9161   1.388   6.026   4.935  0.6391 -0.0412  0.3792
 3066TIP3    H1 9162   1.350   6.104   4.977 -1.6276 -1.2315  0.7145
 3066TIP3    H2 9163   1.442   6.061   4.864  0.2075  1.8586  0.9239
 3067TIP3   OH2 9164   1.766   0.835   4.126 -0.1081  0.8438  0.0698
 3067TIP3    H1 9165   1.846   0.864   4.083 -0.7081  0.4618 -1.3602
 3067TIP3    H2 9166   1.743   0.753   4.082 -0.7428  0.4064  1.1525
 3068TIP3   OH2 9167   1.700   2.389   4.262  0.7045  0.4516  0.1073
 3068TIP3    H1 9168   1.748   2.309   4.284  0.7444  0.7475  1.1709
 3068TIP3    H2 9169   1.623   2.387   4.320  0.3865  0.8835 -0.2914
 3069TIP3   OH2 9170   6.671   5.091   4.489  0.3425  0.4835  0.2652
 3069TIP3    H1 9171   6.647   5.034   4.417  0.8102  1.7270 -0.9298
 3069TIP3    H2 9172   6.732   5.040   4.541 -2.3099 -1.5792  1.5921
 3070TIP3   OH2 9173   2.376   1.746   1.500 -0.3517  0.1683 -0.6407
 3070TIP3    H1 9174   2.456   1.724   1.452  0.4177 -0.0500  0.6847
 3070TIP3    H2 9175   2.347   1.829   1.461  2.2885  1.9713  0.8623
 3071TIP3   OH2 9176   4.823   3.392   0.219 -0.7072 -0.2049  0.3390
 3071TIP3    H1 9177   4.850   3.444   0.295  0.3711  0.2661 -0.3601
 3071TIP3    H2 9178   4.827   3.301   0.251 -0.0269 -0.0299  0.7765
 3072TIP3   OH2 9179  -0.008   2.713   4.625  0.7316  0.3898  0.1750
 3072TIP3    H1 9180   0.004   2.789   4.683  0.2736  0.8056 -0.2712
 3072TIP3    H2 9181   0.043   2.644   4.667 -1.3827  0.0104  2.3346
 3073TIP3   OH2 9182   4.941   6.242   4.486  0.2008  0.1705 -0.0272
 3073TIP3    H1 9183   4.865   6.273   4.535 -0.2373 -0.3078 -0.4040
 3073TIP3    H2 9184   4.905   6.184   4.419  0.9018 -0.1104 -0.1690
 3074TIP3   OH2 9185   2.637   1.292   0.438 -0.2142 -0.4149 -0.4887
 3074TIP3    H1 9186   2.720   1.308   0.392 -0.6758  1.7848 -0.6194
 3074TIP3    H2 9187   2.576   1.355   0.401 -0.9538  0.5670  2.1984
 3075TIP3   OH2 9188   5.184   5.685   3.349  0.6735 -0.2440 -0.3808
 3075TIP3    H1 9189   5.250   5.730   3.403 -0.0558  1.4818 -0.8370
 3075TIP3    H2 9190   5.143   5.622   3.408 -0.4280  1.9031  1.3102
 3076TIP3   OH2 9191   6.562   4.388   4.292 -0.3498 -0.3168 -0.5015
 3076TIP3    H1 9192   6.499   4.321   4.266  0.3749 -1.1386 -0.1964
 3076TIP3    H2 9193   6.645   4.341   4.303  0.2645  0.6906 -0.6343
 3077TIP3   OH2 9194   1.505   4.093   4.967  0.1864  0.7480  0.2140
 3077TIP3    H1 9195   1.575   4.035   4.939  1.3977  1.8304  0.8954
 3077TIP3    H2 9196   1.522   4.176   4.922 -0.9189  0.8980  0.0418
 3078TIP3   OH2 9197   7.050   1.109   0.598 -0.1928 -0.5525  0.4626
 3078TIP3    H1 9198   7.117   1.044   0.621  1.6355  1.1152  0.1328
 3078TIP3    H2 9199   7.087   1.192   0.626 -1.5876  0.5900 -0.9248
 3079TIP3   OH2 9200   3.688   4.892   2.867 -0.5643  0.7264  0.3377
 3079TIP3    H1 9201   3.681   4.822   2.932 -1.0504 -0.5549 -1.0282
 3079TIP3    H2 9202   3.782   4.908   2.860  0.1406 -3.1437 -2.5728
 3080TIP3   OH2 9203   5.528   4.010   1.996  0.1963 -0.0714 -0.4083
 3080TIP3    H1 9204   5.559   3.920   1.997 -1.2400 -0.6041 -0.5834
 3080TIP3    H2 9205   5.590   4.058   2.051  0.5342 -1.3297  0.3556
 3081TIP3   OH2 9206   1.284   2.747   5.687  0.0562  0.5248  1.1891
 3081TIP3    H1 9207   1.251   2.669   5.732 -0.9069  0.2212  0.0257
 3081TIP3    H2 9208   1.234   2.820   5.724 -1.6164  0.1341 -0.1745
 3082TIP3   OH2 9209   5.082   2.446   5.887  0.3817  0.0842 -0.1453
 3082TIP3    H1 9210   5.003   2.449   5.832  0.1413 -1.3946  0.0854
 3082TIP3    H2 9211   5.135   2.519   5.855 -1.4053  1.6318  0.2280
 3083TIP3   OH2 9212   0.825   0.704   0.266  0.4988 -0.1723 -0.7485
 3083TIP3    H1 9213   0.917   0.726   0.254  0.1309  1.6223 -0.4959
 3083TIP3    H2 9214   0.782   0.788   0.280 -1.1384 -1.0110 -0.5661
 3084TIP3   OH2 9215   5.893   4.395   3.688 -0.1145  0.1260 -0.3968
 3084TIP3    H1 9216   5.828   4.438   3.632  1.1875 -0.6555 -2.6450
 3084TIP3    H2 9217   5.975   4.403   3.639  1.2754  0.0597  1.8107
 3085TIP3   OH2 9218   0.540   2.888   3.752 -0.1698 -0.1098 -0.0244
 3085TIP3    H1 9219   0.630   2.855   3.758  0.3717  1.1080 -0.9195
 3085TIP3    H2 9220   0.497   2.830   3.689  0.5037  0.2970 -0.8927
 3086TIP3   OH2 9221   3.618   0.301   2.779  0.3797  0.2522 -0.2477
 3086TIP3    H1 9222   3.662   0.349   2.849 -1.3636  0.6916  0.5960
 3086TIP3    H2 9223   3.529   0.288   2.811 -0.0440 -0.8555 -1.7702
 3087TIP3   OH2 9224   6.089   4.472   3.137 -0.1975  0.0698 -0.5212
 3087TIP3    H1 9225   6.182   4.488   3.154 -0.5058 -0.1448  1.5614
 3087TIP3    H2 9226   6.086   4.385   3.098  0.5019  0.3621 -1.2726
 3088TIP3   OH2 9227   6.551   0.533   0.075 -0.6249  0.2289 -0.1485
 3088TIP3    H1 9228   6.469   0.561   0.035 -2.5822 -1.9931  1.9393
 3088TIP3    H2 9229   6.554   0.578   0.159 -0.6892 -1.0618  0.5719
 3089TIP3   OH2 9230   4.471   4.906   2.446  0.3139 -0.2474 -0.0413
 3089TIP3    H1 9231   4.476   4.914   2.542  0.3145  0.6571 -0.1071
 3089TIP3    H2 9232   4.433   4.989   2.417 -0.2744 -0.7663 -0.7826
 3090TIP3   OH2 9233   4.724   6.194   3.240  0.0561 -0.8115  0.2262
 3090TIP3    H1 9234   4.715   6.238   3.155 -0.0095 -1.3051 -0.0267
 3090TIP3    H2 9235   4.634   6.184   3.271  0.0320 -1.2405  0.0322
 3091TIP3   OH2 9236   2.965   0.117   0.207  0.3142 -0.0295 -0.2279
 3091TIP3    H1 9237   3.041   0.173   0.223  0.9806 -1.2712  1.3039
 3091TIP3    H2 9238   2.986   0.071   0.126  1.1835 -0.2826  0.1235
 3092TIP3   OH2 9239   3.574   1.710   5.262  0.2064 -0.5148  0.4256
 3092TIP3    H1 9240   3.530   1.631   5.231  0.2454 -0.6932  0.8152
 3092TIP3    H2 9241   3.600   1.689   5.352 -0.2643  0.1407  0.7188
 3093TIP3   OH2 9242   3.473   1.313   1.818 -0.3528 -0.4168  0.3229
 3093TIP3    H1 9243   3.460   1.329   1.911 -1.4729  0.3255  0.0549
 3093TIP3    H2 9244   3.511   1.224   1.814 -1.1189 -0.8150  1.4239
 3094TIP3   OH2 9245   0.609   5.412   2.911 -0.1481  0.7761 -0.3537
 3094TIP3    H1 9246   0.521   5.447   2.925 -0.0453  1.0183 -0.3114
 3094TIP3    H2 9247   0.608   5.381   2.821 -0.4934  0.1415 -0.1417
 3095TIP3   OH2 9248   0.551   4.546   1.987 -0.1288 -0.0171  0.0380
 3095TIP3    H1 9249   0.645   4.532   1.998 -0.4788 -1.4355  1.9984
 3095TIP3    H2 9250   0.538   4.639   2.004  0.6902 -0.2511  2.2879
 3096TIP3   OH2 9251   2.007   2.132   1.533 -0.3055  0.2003 -0.0288
 3096TIP3    H1 9252   1.942   2.141   1.464  0.5554 -0.6315 -0.9825
 3096TIP3    H2 9253   2.041   2.220   1.546 -1.7437  0.6942  0.6524
 3097TIP3   OH2 9254   2.226   3.372   1.947  0.3434  0.3084 -0.3700
 3097TIP3    H1 9255   2.142   3.415   1.932 -0.0356 -0.4848 -0.5878
 3097TIP3    H2 9256   2.289   3.424   1.898 -0.1181  0.5844 -0.6748
 3098TIP3   OH2 9257   0.246   6.062   4.582 -0.7669 -0.3008  0.3642
 3098TIP3    H1 9258   0.296   5.981   4.570  0.2755  0.0950  1.8149
 3098TIP3    H2 9259   0.175   6.039   4.640 -1.1743 -0.4283 -0.1753
 3099TIP3   OH2 9260   3.082   3.380   0.718  0.3629 -0.5262  0.3805
 3099TIP3    H1 9261   2.995   3.355   0.686  0.1054  1.3901 -0.5800
 3099TIP3    H2 9262   3.118   3.299   0.754 -1.4492 -1.5849 -0.0203
 3100TIP3   OH2 9263   3.435   5.547   3.235  0.3092  0.2871  0.6877
 3100TIP3    H1 9264   3.407   5.456   3.223 -0.1510  0.2410  1.8917
 3100TIP3    H2 9265   3.478   5.570   3.154 -2.9449  0.2547 -1.2353
 3101TIP3   OH2 9266   5.504   0.122   0.686 -0.9291 -0.4862  0.3744
 3101TIP3    H1 9267   5.479   0.064   0.615  0.6865 -1.4163  0.5309
 3101TIP3    H2 9268   5.452   0.093   0.761 -1.2271 -0.7376  0.0717
 3102TIP3   OH2 9269   1.532   3.392   3.348 -0.3731  0.5905 -0.1946
 3102TIP3    H1 9270   1.513   3.319   3.406 -0.2979  0.1579 -0.7033
 3102TIP3    H2 9271   1.620   3.374   3.314  0.2013  1.5999  0.6798
 3103TIP3   OH2 9272   2.522   5.714   2.040  0.1824 -0.2562  0.0102
 3103TIP3    H1 9273   2.571   5.725   2.122  1.1498 -0.8471 -0.4710
 3103TIP3    H2 9274   2.432   5.738   2.062  0.6104  0.4706  1.0175
 3104TIP3   OH2 9275   6.221   1.528   4.044 -0.3652  0.9210 -0.4979
 3104TIP3    H1 9276   6.135   1.570   4.053  0.1220  2.3323 -1.8937
 3104TIP3    H2 9277   6.256   1.563   3.961  2.0669  1.3362  0.6148
 3105TIP3   OH2 9278   5.460   1.316   4.745  0.0543  0.0472 -0.3997
 3105TIP3    H1 9279   5.521   1.300   4.673  0.0455 -1.7066 -0.0762
 3105TIP3    H2 9280   5.505   1.283   4.823 -0.8327 -0.1903  0.0288
 3106TIP3   OH2 9281   6.835   2.259   1.682  0.0388 -0.2378 -0.1852
 3106TIP3    H1 9282   6.797   2.347   1.677 -1.1781 -0.6255  1.4526
 3106TIP3    H2 9283   6.820   2.232   1.773  1.3266 -1.7359 -0.3881
 3107TIP3   OH2 9284   0.194   5.660   1.843 -0.3244  0.6694 -0.0370
 3107TIP3    H1 9285   0.261   5.599   1.809 -0.3197  0.2351  0.7311
 3107TIP3    H2 9286   0.176   5.718   1.770 -2.1028 -1.7328 -1.6707
 3108TIP3   OH2 9287   7.068   0.358   5.277  0.2951 -0.4202 -0.0040
 3108TIP3    H1 9288   6.981   0.374   5.313  0.1194 -2.1327  0.4124
 3108TIP3    H2 9289   7.080   0.428   5.213 -0.5080  1.0859  1.3922
 3109TIP3   OH2 9290   0.184   0.088   1.573  0.2759 -0.2154 -0.3004
 3109TIP3    H1 9291   0.205   0.084   1.480  0.8403  3.4399 -0.5003
 3109TIP3    H2 9292   0.102   0.138   1.576  0.1442 -0.4833  1.1539
 3110TIP3   OH2 9293   4.341   6.466   3.470 -0.3676  0.5596 -0.4331
 3110TIP3    H1 9294   4.260   6.416   3.461 -0.8619  1.0510  0.9886
 3110TIP3    H2 9295   4.371   6.448   3.559 -1.0126  3.3519  0.4491
 3111TIP3   OH2 9296   5.005   0.293   1.660  0.8640 -0.5055  0.0977
 3111TIP3    H1 9297   5.059   0.253   1.728 -0.4797  0.4957  1.8555
 3111TIP3    H2 9298   4.964   0.368   1.703  1.8594  1.6893 -2.5477
 3112TIP3   OH2 9299   0.542   2.393   5.328  0.3841  0.3981 -0.3826
 3112TIP3    H1 9300   0.528   2.479   5.288 -1.5956  0.7800  0.9384
 3112TIP3    H2 9301   0.579   2.339   5.258  0.2451  1.9182 -1.6831
 3113TIP3   OH2 9302   2.629   3.157   0.988  0.3680  0.2421  0.5986
 3113TIP3    H1 9303   2.573   3.215   0.936 -1.0006 -1.9682 -0.5750
 3113TIP3    H2 9304   2.713   3.157   0.941 -0.6318 -1.1762 -1.3347
 3114TIP3   OH2 9305   1.836   4.953   5.240 -0.4448  0.5697 -0.1874
 3114TIP3    H1 9306   1.803   4.868   5.272 -1.9946  0.2161 -2.4732
 3114TIP3    H2 9307   1.779   5.017   5.282  0.2732  0.4813  0.9888
 3115TIP3   OH2 9308   5.054   4.378   5.579  0.0831 -0.4643  0.0125
 3115TIP3    H1 9309   4.963   4.386   5.607 -0.3883  0.6537 -1.6453
 3115TIP3    H2 9310   5.098   4.452   5.620 -0.4016  0.6235 -1.3383
 3116TIP3   OH2 9311   5.940   1.036   4.921  0.2246  0.2585  0.2808
 3116TIP3    H1 9312   5.980   0.951   4.941 -2.4126 -1.7430 -2.0776
 3116TIP3    H2 9313   5.892   1.059   5.000 -1.7449 -2.2480 -0.0596
 3117TIP3   OH2 9314   6.203   5.131   1.634 -0.2779 -0.3622  0.4991
 3117TIP3    H1 9315   6.246   5.166   1.557  1.8576 -0.3277  1.6292
 3117TIP3    H2 9316   6.130   5.079   1.600  0.0390  0.4083 -1.4561
 3118TIP3   OH2 9317   4.646   5.581   4.606  0.4025 -0.2405  0.9036
 3118TIP3    H1 9318   4.609   5.500   4.642  0.3241 -0.0495  1.2633
 3118TIP3    H2 9319   4.575   5.645   4.616 -0.0549 -0.4501 -0.6715
 3119TIP3   OH2 9320   4.253   6.727   0.812  0.1840  0.4508 -0.4595
 3119TIP3    H1 9321   4.235   6.780   0.890  1.5163  2.1711 -1.2625
 3119TIP3    H2 9322   4.339   6.756   0.783  0.7059 -1.7791 -1.2979
 3120TIP3   OH2 9323   2.418   4.635   0.515 -0.7663 -0.1192 -0.3902
 3120TIP3    H1 9324   2.461   4.551   0.496 -2.5565 -1.3244  0.5856
 3120TIP3    H2 9325   2.347   4.641   0.451  0.6071  1.7358 -1.8341
 3121TIP3   OH2 9326   6.161   6.437   0.374  0.1104 -0.0647 -0.4234
 3121TIP3    H1 9327   6.103   6.394   0.436  0.2190 -0.7446 -0.7856
 3121TIP3    H2 9328   6.116   6.518   0.351 -0.5283 -0.4160 -0.4343
 3122TIP3   OH2 9329   3.228   5.334   0.377  0.5501 -0.2329 -0.0416
 3122TIP3    H1 9330   3.248   5.240   0.376  0.0965 -0.3264 -0.6835
 3122TIP3    H2 9331   3.247   5.361   0.467 -0.2490 -1.1447  0.4277
 3123TIP3   OH2 9332   3.459   6.091   5.679 -0.4155 -0.1867 -0.4539
 3123TIP3    H1 9333   3.383   6.141   5.710 -0.2270 -0.9933  1.4175
 3123TIP3    H2 9334   3.534   6.132   5.721  0.2027  0.4142 -2.0639
 3124TIP3   OH2 9335   6.528   0.533   4.001 -0.1784 -0.2438 -0.5894
 3124TIP3    H1 9336   6.527   0.533   3.905  1.8601 -3.7297 -0.7835
 3124TIP3    H2 9337   6.617   0.559   4.025 -0.8566  1.2903  0.4860
 3125TIP3   OH2 9338   5.529   3.720   3.187  0.4119 -0.2995 -0.2637
 3125TIP3    H1 9339   5.500   3.721   3.096 -0.0506 -0.3653 -0.1192
 3125TIP3    H2 9340   5.448   3.710   3.238  0.7648 -1.4809  0.1034
 3126TIP3   OH2 9341   1.660   5.391   0.692 -0.0195  0.2850 -0.1328
 3126TIP3    H1 9342   1.750   5.367   0.715 -0.1468  0.6304  0.7768
 3126TIP3    H2 9343   1.605   5.327   0.737 -0.2725  0.8886  0.4368
 3127TIP3   OH2 9344   2.898   3.778   4.733  0.4339 -0.9036 -0.1363
 3127TIP3    H1 9345   2.821   3.722   4.737 -1.1535  1.1616  0.2487
 3127TIP3    H2 9346   2.933   3.778   4.822 -1.0651  0.5921  0.5123
 3128TIP3   OH2 9347   6.848   6.659   0.819 -0.1502 -0.7412 -0.1889
 3128TIP3    H1 9348   6.803   6.585   0.860 -0.4607 -1.5786 -1.9638
 3128TIP3    H2 9349   6.814   6.661   0.730 -1.1855  2.4037  0.1482
 3129TIP3   OH2 9350   6.877   3.569   5.324  0.0840  0.0998 -0.0291
 3129TIP3    H1 9351   6.928   3.639   5.365  1.1396 -0.9789  0.5694
 3129TIP3    H2 9352   6.907   3.489   5.367  0.5192 -0.9984 -2.1996
 3130TIP3   OH2 9353   6.139   0.973   5.846  0.1829 -0.8161 -0.3105
 3130TIP3    H1 9354   6.108   0.962   5.756  1.3092 -1.4965 -0.6255
 3130TIP3    H2 9355   6.080   0.917   5.897  1.6449 -3.2391 -1.0807
 3131TIP3   OH2 9356   2.869   0.101   5.645 -0.4596  0.2460  0.0343
 3131TIP3    H1 9357   2.946   0.158   5.651  0.4077 -0.9479  0.8647
 3131TIP3    H2 9358   2.863   0.079   5.552  0.6151 -0.1719  0.0532
 3132TIP3   OH2 9359   3.451   0.267   3.701 -0.8647 -0.4092  0.0583
 3132TIP3    H1 9360   3.394   0.309   3.636 -0.8020 -0.3204  0.0609
 3132TIP3    H2 9361   3.478   0.338   3.758 -2.6006 -0.7810  1.4508
 3133TIP3   OH2 9362   0.230   3.952   0.763  0.0573  0.1415 -0.2616
 3133TIP3    H1 9363   0.140   3.948   0.730 -0.2560  1.0657  0.4650
 3133TIP3    H2 9364   0.224   4.002   0.844  1.0141 -1.0361  0.5624
 3134TIP3   OH2 9365   0.596   4.964   3.348 -0.4612  0.4373  0.0208
 3134TIP3    H1 9366   0.531   5.017   3.302 -0.9819 -0.4660 -0.3082
 3134TIP3    H2 9367   0.549   4.885   3.375  0.6391 -0.5729 -0.8390
 3135TIP3   OH2 9368   3.415   4.181   0.734 -0.5970 -0.3695 -0.0999
 3135TIP3    H1 9369   3.424   4.254   0.794 -0.9095  1.3155 -1.9955
 3135TIP3    H2 9370   3.504   4.147   0.723 -0.0958  1.0704 -0.7513
 3136TIP3   OH2 9371   6.650   5.228   2.106  0.3500  0.5136  0.3244
 3136TIP3    H1 9372   6.580   5.207   2.168 -0.2296  1.1370 -0.1122
 3136TIP3    H2 9373   6.619   5.306   2.060  1.3218  0.7880  0.1115
 3137TIP3   OH2 9374   3.293   5.840   5.785  0.2269  0.1161 -0.0126
 3137TIP3    H1 9375   3.353   5.904   5.824  0.5148  0.2684 -0.6856
 3137TIP3    H2 9376   3.350   5.780   5.737 -0.0587 -0.5410  0.4519
 3138TIP3   OH2 9377   6.562   2.782   1.084 -0.1025  0.6970  0.0248
 3138TIP3    H1 9378   6.577   2.830   1.165  1.4460 -1.6539  1.2528
 3138TIP3    H2 9379   6.479   2.736   1.099  0.3205  0.0470  0.4221
 3139TIP3   OH2 9380   7.036   0.932   4.474  1.2615  0.9564 -0.6115
 3139TIP3    H1 9381   7.116   0.893   4.439  0.5816 -0.4569 -0.6999
 3139TIP3    H2 9382   6.974   0.859   4.477 -0.1597  2.0989 -0.9796
 3140TIP3   OH2 9383   4.557   0.884   4.603 -0.0353  0.1116 -0.2948
 3140TIP3    H1 9384   4.557   0.974   4.572  2.0505  0.8405  1.5688
 3140TIP3    H2 9385   4.480   0.877   4.659  0.2852  1.0215  0.2705
 3141TIP3   OH2 9386   3.150   3.518   2.064 -0.4784 -0.3255  0.0902
 3141TIP3    H1 9387   3.133   3.498   2.156  1.6982 -0.0625  0.5886
 3141TIP3    H2 9388   3.224   3.578   2.065 -0.5479 -0.1480 -1.8393
 3142TIP3   OH2 9389   0.696   2.315   4.776 -0.4624  0.0819  0.7787
 3142TIP3    H1 9390   0.646   2.376   4.721 -1.3262 -0.3634  1.0569
 3142TIP3    H2 9391   0.763   2.370   4.817  0.5068  0.3512 -1.0578
 3143TIP3   OH2 9392   5.842   3.109   2.957  0.2901  0.2383 -0.0079
 3143TIP3    H1 9393   5.891   3.190   2.972  0.3657  0.2315 -0.2173
 3143TIP3    H2 9394   5.881   3.046   3.017  2.6330 -0.6418 -2.2677
 3144TIP3   OH2 9395   1.983   0.609   4.290 -0.0321  0.2199  0.4272
 3144TIP3    H1 9396   1.986   0.632   4.197 -1.1926  1.6326  0.7011
 3144TIP3    H2 9397   1.927   0.532   4.294 -2.4724  1.8697  0.1865
 3145TIP3   OH2 9398   0.208   4.076   5.390 -0.2635 -0.1558 -0.1776
 3145TIP3    H1 9399   0.274   4.105   5.327 -0.4861 -0.7086 -0.6778
 3145TIP3    H2 9400   0.255   4.070   5.473  0.1836 -0.0199 -0.4169
 3146TIP3   OH2 9401   2.540   4.043   3.325  0.2209  0.3358 -0.0646
 3146TIP3    H1 9402   2.533   4.071   3.234  0.0783  0.5806  0.0190
 3146TIP3    H2 9403   2.535   3.948   3.322  0.0407  0.3528 -0.2968
 3147TIP3   OH2 9404   1.847   1.207   5.046  0.2377 -0.2901 -0.2186
 3147TIP3    H1 9405   1.769   1.175   5.002 -0.4554  0.8537  0.1168
 3147TIP3    H2 9406   1.818   1.228   5.135  0.2648  2.4173 -0.7382
 3148TIP3   OH2 9407   0.404   2.303   3.131  0.5367  0.2410  0.1115
 3148TIP3    H1 9408   0.444   2.260   3.207 -0.5921 -0.0073  0.5887
 3148TIP3    H2 9409   0.339   2.362   3.169 -0.0458  0.1088 -0.6566
 3149TIP3   OH2 9410   6.766   2.540   3.320  0.1037 -0.5042 -0.8048
 3149TIP3    H1 9411   6.822   2.583   3.255 -2.1016 -0.0752 -2.5351
 3149TIP3    H2 9412   6.766   2.448   3.294  1.9517 -1.0041  0.7438
 3150TIP3   OH2 9413   6.477   4.242   1.699  0.0807 -0.4292  0.1955
 3150TIP3    H1 9414   6.428   4.202   1.771 -2.0912  0.8044 -0.5325
 3150TIP3    H2 9415   6.532   4.309   1.742  0.0525 -0.8193  0.8569
 3151TIP3   OH2 9416   6.463   0.338   3.750 -0.3268  0.3107  0.2345
 3151TIP3    H1 9417   6.411   0.334   3.830 -0.7869  0.5287 -0.0458
 3151TIP3    H2 9418   6.444   0.256   3.705 -0.9593  0.6674 -0.1793
 3152TIP3   OH2 9419   1.108   0.818   1.115 -0.6999 -0.0946  0.0789
 3152TIP3    H1 9420   1.187   0.821   1.062  1.0836 -3.0894  2.2785
 3152TIP3    H2 9421   1.050   0.757   1.069 -1.3567  1.2761 -0.9766
 3153TIP3   OH2 9422   2.791   3.722   2.676  0.3398 -0.0766  0.7429
 3153TIP3    H1 9423   2.698   3.717   2.654  0.2566 -0.9877  1.2639
 3153TIP3    H2 9424   2.807   3.814   2.695 -0.0606  0.4010 -1.0342
 3154TIP3   OH2 9425   7.004   0.836   3.701  0.5118 -0.1424 -0.3184
 3154TIP3    H1 9426   6.957   0.870   3.625  0.0399 -1.2645 -0.5554
 3154TIP3    H2 9427   6.992   0.902   3.769  0.9034  0.8612 -1.1960
 3155TIP3   OH2 9428   5.761   1.068   5.181  0.1541  0.1046  0.1413
 3155TIP3    H1 9429   5.778   1.162   5.185  0.5440  0.0028  1.0744
 3155TIP3    H2 9430   5.666   1.060   5.188  0.0487  0.4558 -0.7059
 3156TIP3   OH2 9431   1.858   6.378   4.208 -1.2427 -0.1920  0.3542
 3156TIP3    H1 9432   1.828   6.462   4.174 -2.8677 -0.2144  1.6168
 3156TIP3    H2 9433   1.827   6.314   4.145  1.3694  0.1824 -1.4736
 3157TIP3   OH2 9434   5.566   0.788   2.203 -0.0345 -0.4169 -0.1357
 3157TIP3    H1 9435   5.485   0.840   2.206  0.8185  0.9453 -0.0527
 3157TIP3    H2 9436   5.627   0.836   2.259  0.7106 -1.6673  0.1453
 3158TIP3   OH2 9437   6.883   3.223   2.451 -0.2934  0.1083 -0.4508
 3158TIP3    H1 9438   6.873   3.273   2.370  0.2237  1.1297  0.0922
 3158TIP3    H2 9439   6.823   3.149   2.441  0.1816 -0.0944 -1.9923
 3159TIP3   OH2 9440   4.486   0.956   3.940  0.9181 -0.2935 -0.0540
 3159TIP3    H1 9441   4.554   0.894   3.968 -1.3545 -2.5321  0.8968
 3159TIP3    H2 9442   4.439   0.910   3.871 -0.5538  0.5527  0.3500
 3160TIP3   OH2 9443   1.620   1.256   1.731  0.6925 -0.1721  0.0527
 3160TIP3    H1 9444   1.546   1.260   1.792  0.5876 -3.5582  0.3227
 3160TIP3    H2 9445   1.581   1.232   1.647  1.1576  1.6992 -0.7500
 3161TIP3   OH2 9446   3.301   3.554   4.303  0.0806 -0.4584 -0.6041
 3161TIP3    H1 9447   3.282   3.556   4.210 -0.2167 -0.9985 -0.5586
 3161TIP3    H2 9448   3.276   3.466   4.331 -2.2457  0.4603  0.4787
 3162TIP3   OH2 9449   2.222   4.087   2.539 -0.0049  0.0982  0.0088
 3162TIP3    H1 9450   2.261   4.174   2.537 -0.2156  0.2231  0.9076
 3162TIP3    H2 9451   2.144   4.096   2.595  0.9648 -1.0440  1.6517
 3163TIP3   OH2 9452   3.118   5.605   5.392 -0.5038  0.3003 -0.4244
 3163TIP3    H1 9453   3.117   5.690   5.436  1.5153 -0.7907  2.0010
 3163TIP3    H2 9454   3.211   5.584   5.385 -0.9613 -1.8140 -0.6951
 3164TIP3   OH2 9455   0.160   2.695   5.011  0.1247 -0.4130 -0.0060
 3164TIP3    H1 9456   0.232   2.728   5.064 -0.0848 -0.4444  0.3053
 3164TIP3    H2 9457   0.088   2.683   5.074 -0.2668 -0.0264 -0.3740
 3165TIP3   OH2 9458   6.121   5.847   2.253  0.4608  0.1733  0.2106
 3165TIP3    H1 9459   6.195   5.801   2.292 -1.1475 -0.9678  2.0654
 3165TIP3    H2 9460   6.058   5.778   2.232 -0.4641  1.1995 -0.4709
 3166TIP3   OH2 9461   0.810   2.569   0.811 -0.0538  0.1423  0.2367
 3166TIP3    H1 9462   0.715   2.566   0.801 -0.0158 -1.0426 -0.0146
 3166TIP3    H2 9463   0.840   2.623   0.738 -0.5928  1.5184  0.9943
 3167TIP3   OH2 9464   5.637   3.806   0.536  0.8104  0.3369  0.7575
 3167TIP3    H1 9465   5.549   3.778   0.510  0.1274  1.2790  1.9406
 3167TIP3    H2 9466   5.658   3.877   0.476  0.0352  1.2360  1.5120
 3168TIP3   OH2 9467   4.104   5.911   0.572  0.0738  0.3606 -0.3069
 3168TIP3    H1 9468   4.018   5.875   0.554 -0.8625  1.3279  1.8936
 3168TIP3    H2 9469   4.088   5.987   0.628  2.3988 -0.0228  1.0325
 3169TIP3   OH2 9470   2.612   5.100   5.664  0.4103 -0.4102  0.1397
 3169TIP3    H1 9471   2.632   5.014   5.700  0.8380 -0.1552  0.5231
 3169TIP3    H2 9472   2.694   5.149   5.671 -0.2693  0.6176  1.6219
 3170TIP3   OH2 9473   3.122   0.812   5.043  0.0249  0.2373  0.2923
 3170TIP3    H1 9474   3.210   0.776   5.035  0.5003  1.4866 -0.4094
 3170TIP3    H2 9475   3.115   0.875   4.972 -1.5409 -0.0128  0.1796
 3171TIP3   OH2 9476   1.000   5.023   4.214  0.0075  0.3117  0.3271
 3171TIP3    H1 9477   1.030   5.114   4.215  0.7342  0.1780 -1.9544
 3171TIP3    H2 9478   0.909   5.026   4.243  0.0892  1.7402  0.4727
 3172TIP3   OH2 9479   6.581   1.412   1.921 -0.5163  0.1555 -0.3513
 3172TIP3    H1 9480   6.499   1.447   1.886 -0.5861  0.8993  0.5159
 3172TIP3    H2 9481   6.604   1.471   1.993  1.5915  0.8579 -1.5265
 3173TIP3   OH2 9482   6.973   3.880   5.782  0.1065 -0.6390  0.2211
 3173TIP3    H1 9483   7.063   3.900   5.756  0.3609 -1.4074  0.4758
 3173TIP3    H2 9484   6.919   3.944   5.735  0.8579  0.5145  0.8923
 3174TIP3   OH2 9485   4.282   0.397   1.102 -0.4190 -0.4311  0.2203
 3174TIP3    H1 9486   4.288   0.489   1.125 -0.3563 -0.3210 -0.2151
 3174TIP3    H2 9487   4.231   0.395   1.021 -0.6371 -0.8013  0.3611
 3175TIP3   OH2 9488   7.194   5.548   5.030 -0.5557 -0.1151 -0.4521
 3175TIP3    H1 9489   7.143   5.597   4.965  1.2104  0.4741 -1.4609
 3175TIP3    H2 9490   7.194   5.604   5.107  0.0988  0.7641 -1.0665
 3176TIP3   OH2 9491   3.875   5.306   3.635  0.6712 -0.5521  0.0612
 3176TIP3    H1 9492   3.847   5.220   3.665 -0.5721 -0.3009 -0.3496
 3176TIP3    H2 9493   3.920   5.288   3.552  0.6218 -0.8293  0.0923
 3177TIP3   OH2 9494   7.135   5.366   0.109 -0.1489 -0.0528  0.0760
 3177TIP3    H1 9495   7.216   5.364   0.159  0.8225 -1.0773 -1.4676
 3177TIP3    H2 9496   7.097   5.279   0.122 -0.8358  0.3003  0.4986
 3178TIP3   OH2 9497   1.493   1.966   0.220  0.6859  0.4213 -0.4757
 3178TIP3    H1 9498   1.475   2.041   0.277  0.6873  0.1910 -0.1706
 3178TIP3    H2 9499   1.536   1.903   0.276  1.2932  0.4530 -0.8962
 3179TIP3   OH2 9500   7.232   3.440   5.797  0.1087 -0.0749  0.0876
 3179TIP3    H1 9501   7.189   3.378   5.855  2.1724 -0.4745  1.3050
 3179TIP3    H2 9502   7.208   3.411   5.709 -3.8938  1.1518  0.6005
 3180TIP3   OH2 9503   5.269   0.803   5.366 -0.2764 -0.2107 -0.1463
 3180TIP3    H1 9504   5.189   0.819   5.316 -0.2961  0.2911  0.0453
 3180TIP3    H2 9505   5.284   0.884   5.414 -0.0788 -0.5741  0.4165
 3181TIP3   OH2 9506   6.018   6.231   5.504  0.0820 -0.2323  1.0747
 3181TIP3    H1 9507   5.962   6.168   5.549  1.1469 -1.1286  1.1941
 3181TIP3    H2 9508   6.082   6.177   5.457 -1.1384  0.6322 -1.7996
 3182TIP3   OH2 9509   6.604   1.518   1.612 -0.0447  0.1684  0.2196
 3182TIP3    H1 9510   6.578   1.569   1.688 -1.0500  0.4301 -0.2751
 3182TIP3    H2 9511   6.647   1.580   1.553 -0.8565  0.3651 -0.1825
 3183TIP3   OH2 9512   3.314   0.870   4.766 -1.0152 -0.2679  0.5836
 3183TIP3    H1 9513   3.381   0.885   4.832 -1.9521  1.9161  1.1337
 3183TIP3    H2 9514   3.270   0.789   4.794  1.3529 -1.8158  0.1413
 3184TIP3   OH2 9515   4.729   4.711   3.121  0.6772 -0.2641  0.1363
 3184TIP3    H1 9516   4.717   4.778   3.188 -1.7246  1.3546 -1.7218
 3184TIP3    H2 9517   4.727   4.628   3.169 -2.4329  0.7155  2.0092
 3185TIP3   OH2 9518   1.985   1.753   5.101  0.2299 -0.4199  0.6555
 3185TIP3    H1 9519   1.975   1.659   5.116  1.6650 -0.6302  0.4519
 3185TIP3    H2 9520   2.069   1.761   5.056  0.4971  1.0271  1.3499
 3186TIP3   OH2 9521   0.433   4.503   2.457  0.0746  0.2898 -0.3187
 3186TIP3    H1 9522   0.359   4.562   2.470  0.9529  1.8772 -2.1955
 3186TIP3    H2 9523   0.493   4.525   2.528 -0.1850  0.7208 -0.2268
 3187TIP3   OH2 9524   4.088   5.384   1.427  0.0183  0.1199  0.3130
 3187TIP3    H1 9525   4.048   5.330   1.495  0.5947  1.3984  1.7382
 3187TIP3    H2 9526   4.145   5.445   1.475 -0.5513  1.9506 -1.1840
 3188TIP3   OH2 9527   0.526   0.104   1.126 -0.3789  0.0918  0.2054
 3188TIP3    H1 9528   0.516   0.159   1.049  2.7141  1.0385  0.3767
 3188TIP3    H2 9529   0.563   0.023   1.094 -1.4492 -0.5139  0.4362
 3189TIP3   OH2 9530   6.949   3.186   1.136  0.1182  0.2180  0.9122
 3189TIP3    H1 9531   6.911   3.270   1.109  2.6912  1.3274  0.4063
 3189TIP3    H2 9532   6.888   3.120   1.104 -1.1384  1.8232 -0.1859
 3190TIP3   OH2 9533   4.053   2.798   3.959 -0.0286  0.2553  0.1236
 3190TIP3    H1 9534   3.982   2.821   4.020 -0.9000  0.3161 -0.8748
 3190TIP3    H2 9535   4.116   2.750   4.013  0.8644  3.0975  1.8305
 3191TIP3   OH2 9536   1.393   4.934   4.411  0.0020 -0.3111 -0.7003
 3191TIP3    H1 9537   1.480   4.938   4.450 -0.5909  1.5512  0.5559
 3191TIP3    H2 9538   1.409   4.947   4.317  1.1487 -1.0955 -0.6295
 3192TIP3   OH2 9539   4.830   3.087   4.586 -0.4827 -0.2175  0.3043
 3192TIP3    H1 9540   4.794   3.004   4.556  0.5293 -0.5523 -0.0241
 3192TIP3    H2 9541   4.796   3.097   4.675 -2.3574  0.0953 -0.4060
 3193TIP3   OH2 9542   6.930   1.964   3.557  0.1013  0.3164 -0.1875
 3193TIP3    H1 9543   6.860   1.901   3.572  0.3755  0.2452  0.8805
 3193TIP3    H2 9544   6.885   2.049   3.553 -0.1723  0.1471 -0.7382
 3194TIP3   OH2 9545   7.002   3.272   4.883 -0.4642  0.2487 -0.4646
 3194TIP3    H1 9546   6.944   3.198   4.864  1.8296 -1.5680 -0.8193
 3194TIP3    H2 9547   6.998   3.326   4.805 -2.2970  0.6569 -0.1381
 3195TIP3   OH2 9548   6.969   6.561   3.430  0.1337  0.1227 -0.0882
 3195TIP3    H1 9549   7.023   6.618   3.375  2.6292 -1.8898  0.0929
 3195TIP3    H2 9550   6.973   6.602   3.517 -0.3095  1.0465 -0.4839
 3196TIP3   OH2 9551   1.875   3.019   0.656 -0.4455  0.1463  0.0491
 3196TIP3    H1 9552   1.840   2.986   0.739  1.2346  0.4696  0.9353
 3196TIP3    H2 9553   1.884   2.941   0.601 -0.5556 -0.2346  0.5611
 3197TIP3   OH2 9554   3.365   1.948   2.188 -0.1575 -0.0110 -0.3886
 3197TIP3    H1 9555   3.376   2.036   2.152 -1.0084  0.1008 -0.3947
 3197TIP3    H2 9556   3.274   1.926   2.171 -0.2938 -0.3901  0.7360
 3198TIP3   OH2 9557   5.394   0.940   2.909  0.1593 -0.0388 -0.2199
 3198TIP3    H1 9558   5.475   0.988   2.894  0.0830  0.1606 -0.0075
 3198TIP3    H2 9559   5.376   0.897   2.826  0.5004 -0.1122 -0.2578
 3199TIP3   OH2 9560   0.285   6.299   3.265  0.3407 -0.2220  0.2475
 3199TIP3    H1 9561   0.286   6.241   3.189 -2.5850 -0.5773  0.3626
 3199TIP3    H2 9562   0.300   6.386   3.228 -0.8997 -0.4013 -0.7991
 3200TIP3   OH2 9563   5.429   3.036   0.830  0.3150  0.0954  0.3868
 3200TIP3    H1 9564   5.459   3.056   0.919 -1.4639  2.0684  0.6370
 3200TIP3    H2 9565   5.428   3.121   0.786 -4.5019  0.3164  0.3990
 3201TIP3   OH2 9566   5.104   5.869   0.701  0.2330  0.6520  0.0439
 3201TIP3    H1 9567   5.083   5.840   0.612  0.3380  1.6529 -0.3194
 3201TIP3    H2 9568   5.199   5.883   0.700  0.3117  0.1943  0.4654
 3202TIP3   OH2 9569   1.770   4.780   3.158 -0.2800 -1.0418  0.1376
 3202TIP3    H1 9570   1.716   4.815   3.228  0.5571  0.5747  0.0168
 3202TIP3    H2 9571   1.853   4.758   3.201 -0.5732 -2.3520  0.0893
 3203TIP3   OH2 9572   6.902   5.889   2.605  0.4688  0.1507 -0.7238
 3203TIP3    H1 9573   6.940   5.801   2.610  0.3415  0.0718 -1.1138
 3203TIP3    H2 9574   6.808   5.876   2.618  0.5863  0.3716  0.4568
 3204TIP3   OH2 9575   2.441   0.843   1.301  0.4553 -0.0365 -0.6331
 3204TIP3    H1 9576   2.429   0.900   1.376  1.3446  0.1233 -0.6021
 3204TIP3    H2 9577   2.534   0.852   1.278  0.3321 -0.5363 -1.3772
 3205TIP3   OH2 9578   2.555   4.252   4.841 -0.6996 -0.5494  1.1871
 3205TIP3    H1 9579   2.622   4.274   4.906 -0.2844 -1.8446  1.2163
 3205TIP3    H2 9580   2.547   4.157   4.846 -0.7528 -0.6643 -0.5650
 3206TIP3   OH2 9581   4.929   0.964   3.590 -0.2452  0.2287 -0.1898
 3206TIP3    H1 9582   4.852   0.999   3.633 -1.3382 -1.1967 -0.8948
 3206TIP3    H2 9583   4.988   1.038   3.581 -1.5878  1.3852  0.2496
 3207TIP3   OH2 9584   5.697   3.406   4.962  0.3157  0.2049  0.0635
 3207TIP3    H1 9585   5.671   3.483   4.911 -2.0038 -1.1154 -0.9211
 3207TIP3    H2 9586   5.766   3.365   4.911 -0.5767  0.0079 -1.0271
 3208TIP3   OH2 9587   1.177   6.162   4.124  0.2609  0.3957  0.3832
 3208TIP3    H1 9588   1.271   6.171   4.109  0.4526 -0.8368  0.7239
 3208TIP3    H2 9589   1.151   6.088   4.068 -0.5079  0.7458  0.2676
 3209TIP3   OH2 9590   6.367   1.441   3.363  0.1958 -0.0765  0.0999
 3209TIP3    H1 9591   6.361   1.521   3.416  0.8457  1.0611 -1.4691
 3209TIP3    H2 9592   6.400   1.375   3.424 -1.4227  0.5240  1.7264
 3210TIP3   OH2 9593   5.227   4.040   5.738  0.1728  0.2164  0.0756
 3210TIP3    H1 9594   5.204   4.124   5.778 -0.2908 -0.0356  0.3543
 3210TIP3    H2 9595   5.218   3.977   5.809 -1.0526 -0.2976 -0.5088
 3211TIP3   OH2 9596   2.406   6.316   3.766  0.4709  0.7290 -0.2029
 3211TIP3    H1 9597   2.352   6.319   3.844  1.4740 -1.3156  0.6289
 3211TIP3    H2 9598   2.345   6.294   3.695 -0.2120  1.2859  0.1934
 3212TIP3   OH2 9599   3.393   4.717   1.336  0.1299  0.7873  0.0385
 3212TIP3    H1 9600   3.426   4.776   1.268 -0.5035  0.4602 -0.5519
 3212TIP3    H2 9601   3.339   4.773   1.392  0.3840  0.9851  0.0874
 3213TIP3   OH2 9602   7.124   2.327   4.006 -0.0969  0.2270 -0.0063
 3213TIP3    H1 9603   7.088   2.377   3.932 -1.9753  0.4968  1.0391
 3213TIP3    H2 9604   7.210   2.366   4.022 -0.5813  1.6273 -0.6547
 3214TIP3   OH2 9605   6.178   3.968   2.240 -0.2641 -0.5101 -0.1189
 3214TIP3    H1 9606   6.258   3.958   2.291 -0.1591 -4.2108 -0.7463
 3214TIP3    H2 9607   6.121   3.897   2.270 -1.7444 -0.3872 -2.3617
 3215TIP3   OH2 9608   4.179   0.592   3.315 -0.4600 -0.0787 -0.6537
 3215TIP3    H1 9609   4.099   0.580   3.263 -1.0402  1.0587 -0.0793
 3215TIP3    H2 9610   4.153   0.568   3.404  0.5974 -2.2758 -0.8725
 3216TIP3   OH2 9611   2.272   5.014   4.280  0.5406  0.4853 -0.1160
 3216TIP3    H1 9612   2.217   4.953   4.231 -1.5809  2.1456  0.0772
 3216TIP3    H2 9613   2.339   4.959   4.320 -0.4797 -1.5225 -1.0524
 3217TIP3   OH2 9614   0.359   0.044   2.974 -0.0754  0.7397 -0.8387
 3217TIP3    H1 9615   0.312  -0.009   2.910  1.7120 -1.7708 -0.2426
 3217TIP3    H2 9616   0.400   0.114   2.923 -0.5270  0.1250 -2.0719
 3218TIP3   OH2 9617   1.545   0.700   2.128  0.2281 -0.1207 -0.0131
 3218TIP3    H1 9618   1.463   0.664   2.092 -0.8643  1.1443  1.1136
 3218TIP3    H2 9619   1.520   0.735   2.213  2.2122 -0.6816  0.8506
 3219TIP3   OH2 9620   3.811   4.150   4.137  0.5616  0.4697 -0.1730
 3219TIP3    H1 9621   3.898   4.109   4.139 -0.1893 -1.2265  0.0921
 3219TIP3    H2 9622   3.782   4.140   4.046  0.6968  1.1794 -0.2992
 3220TIP3   OH2 9623   0.217   2.950   0.899  0.1356  0.1912 -0.5078
 3220TIP3    H1 9624   0.259   2.865   0.902 -1.0412 -0.4224  2.2889
 3220TIP3    H2 9625   0.194   2.963   0.807 -1.3280 -3.4229 -0.8240
 3221TIP3   OH2 9626   0.670   3.042   1.645 -0.3618 -0.0459 -0.4786
 3221TIP3    H1 9627   0.724   3.090   1.708 -0.0314 -0.4320 -0.4583
 3221TIP3    H2 9628   0.604   3.105   1.617 -0.7286  0.0318  0.5157
 3222TIP3   OH2 9629   3.384   5.364   3.024  0.5880 -0.5413  0.1064
 3222TIP3    H1 9630   3.435   5.285   3.041  1.0832 -0.5833 -1.3734
 3222TIP3    H2 9631   3.439   5.416   2.965  0.1678  0.8081  0.8563
 3223TIP3   OH2 9632   1.991   1.439   1.930  0.0285 -0.2551 -0.2979
 3223TIP3    H1 9633   1.935   1.384   1.874 -0.4261 -0.8681  0.7350
 3223TIP3    H2 9634   1.970   1.411   2.019  0.3338  1.0885  0.2162
 3224TIP3   OH2 9635   6.874   5.717   4.585 -0.0392 -0.4964  0.0581
 3224TIP3    H1 9636   6.783   5.745   4.589 -0.3560 -1.1783 -1.6945
 3224TIP3    H2 9637   6.914   5.774   4.520  0.4615 -1.0611 -0.1337
 3225TIP3   OH2 9638   4.215   3.719   3.193  0.2985 -0.0798  0.0009
 3225TIP3    H1 9639   4.136   3.759   3.157 -0.2011 -0.8756  0.2038
 3225TIP3    H2 9640   4.225   3.637   3.145 -1.1981 -1.9077  2.5820
 3226TIP3   OH2 9641   5.496   5.872   2.653  0.4009  0.1637 -0.1867
 3226TIP3    H1 9642   5.545   5.793   2.673 -0.4389 -0.8784 -2.0466
 3226TIP3    H2 9643   5.515   5.891   2.561 -2.4876 -0.2255 -0.9709
 3227TIP3   OH2 9644   4.728   2.849   1.774 -0.0858  0.1726  0.0765
 3227TIP3    H1 9645   4.739   2.854   1.869  2.0227  0.5585 -0.1348
 3227TIP3    H2 9646   4.709   2.939   1.747  0.1203  0.2062  0.0456
 3228TIP3   OH2 9647   0.808   0.042   4.306  0.4700  0.1772 -0.0686
 3228TIP3    H1 9648   0.857   0.058   4.387  2.4340 -1.4096 -0.8586
 3228TIP3    H2 9649   0.812  -0.053   4.295 -0.4503  0.2961 -1.6377
 3229TIP3   OH2 9650   2.189   3.286   2.217 -0.5035 -0.7499 -0.4716
 3229TIP3    H1 9651   2.202   3.346   2.144  0.3226 -0.0782  0.2001
 3229TIP3    H2 9652   2.238   3.207   2.193 -1.3631 -1.0612 -1.2348
 3230TIP3   OH2 9653   6.932   1.884   0.855 -0.4998 -0.2355  0.4645
 3230TIP3    H1 9654   6.886   1.945   0.914 -0.2846  2.6171 -2.0739
 3230TIP3    H2 9655   7.025   1.904   0.868 -0.4262  0.0234 -0.4363
 3231TIP3   OH2 9656   5.774   0.290   4.497  0.6904  0.3146 -0.2883
 3231TIP3    H1 9657   5.807   0.293   4.587  0.3435 -0.9083 -0.1018
 3231TIP3    H2 9658   5.679   0.289   4.506  0.6157  1.5417 -0.7370
 3232TIP3   OH2 9659   4.665   6.420   4.398 -0.7581  0.7553 -0.2831
 3232TIP3    H1 9660   4.686   6.505   4.358 -0.0675  0.5255 -0.4265
 3232TIP3    H2 9661   4.652   6.362   4.323  1.3477  0.1245 -0.2157
 3233TIP3   OH2 9662   5.015   4.767   5.587 -0.0118 -0.0773  0.6515
 3233TIP3    H1 9663   5.055   4.737   5.506 -1.1232  0.7426 -0.2363
 3233TIP3    H2 9664   5.060   4.849   5.607 -0.0735 -0.0273  0.5866
 3234TIP3   OH2 9665   5.388   0.976   1.505  0.4142 -0.3758  0.0961
 3234TIP3    H1 9666   5.412   0.917   1.577 -0.2758 -0.3601  0.3409
 3234TIP3    H2 9667   5.446   0.950   1.434  0.7814 -0.7085  0.5061
 3235TIP3   OH2 9668   3.471   5.956   1.998  0.7668 -0.2872  0.1792
 3235TIP3    H1 9669   3.564   5.970   2.016  1.7867 -4.7247 -0.4462
 3235TIP3    H2 9670   3.469   5.873   1.950 -3.4261  0.6056 -1.5840
 3236TIP3   OH2 9671   3.248   0.115   2.270 -0.0854 -0.1463  0.1588
 3236TIP3    H1 9672   3.229   0.157   2.186 -0.6708 -0.4914  0.1185
 3236TIP3    H2 9673   3.344   0.116   2.276 -0.0763  2.6813  0.9235
 3237TIP3   OH2 9674   3.399   4.657   5.307 -0.4902  0.0925  0.2335
 3237TIP3    H1 9675   3.443   4.582   5.347 -1.0977 -0.3721  0.0423
 3237TIP3    H2 9676   3.391   4.633   5.215  2.0496  1.6934 -0.4744
 3238TIP3   OH2 9677   2.408   3.360   2.404 -0.2556  0.3645  0.3365
 3238TIP3    H1 9678   2.451   3.393   2.326  0.5776 -1.5346 -0.0595
 3238TIP3    H2 9679   2.334   3.420   2.418 -0.3528  0.8164 -1.8070
 3239TIP3   OH2 9680   0.205   4.528   4.856 -0.1491 -0.2569  0.3170
 3239TIP3    H1 9681   0.144   4.540   4.929  0.0454 -1.5593  0.7072
 3239TIP3    H2 9682   0.162   4.570   4.782 -2.0572 -2.0898  0.3041
 3240TIP3   OH2 9683   3.929   3.326   0.156 -0.0986  0.2697 -0.8637
 3240TIP3    H1 9684   3.845   3.286   0.135  0.0366 -0.0035 -0.9017
 3240TIP3    H2 9685   3.953   3.287   0.241 -0.1653  0.5953 -0.6951
 3241TIP3   OH2 9686   0.072   4.134   1.614 -0.3526 -0.0209  0.1949
 3241TIP3    H1 9687   0.072   4.229   1.602  2.3669  0.0543  0.1893
 3241TIP3    H2 9688   0.037   4.121   1.702 -0.2478  1.0131  0.4042
 3242TIP3   OH2 9689   0.038   1.656   0.254 -0.6829  0.3020 -0.4746
 3242TIP3    H1 9690   0.099   1.722   0.286  0.3675 -1.7709  2.1642
 3242TIP3    H2 9691   0.088   1.575   0.253 -2.7282 -1.0355 -0.5528
 3243TIP3   OH2 9692   6.224   4.936   2.893 -0.3106 -0.4449 -0.6411
 3243TIP3    H1 9693   6.201   4.852   2.932 -3.0993 -0.1675 -1.4888
 3243TIP3    H2 9694   6.255   4.989   2.967 -0.2992 -1.6067  0.2096
 3244TIP3   OH2 9695   0.086   2.078   4.547 -0.5238  0.5073 -0.3166
 3244TIP3    H1 9696   0.052   2.002   4.501 -3.1119  2.1822 -1.4298
 3244TIP3    H2 9697   0.151   2.115   4.488 -1.0574  0.5086 -0.9174
 3245TIP3   OH2 9698   2.020   2.574   5.582 -0.2403 -0.6693 -0.3031
 3245TIP3    H1 9699   2.016   2.641   5.513  0.1947 -1.9694 -1.6610
 3245TIP3    H2 9700   1.986   2.495   5.540 -1.4510 -1.1424  1.4936
 3246TIP3   OH2 9701   4.833   5.223   3.569  0.0532  0.5082 -0.1661
 3246TIP3    H1 9702   4.923   5.198   3.550  0.0678  0.2693  0.2035
 3246TIP3    H2 9703   4.779   5.163   3.517  0.0878 -0.2689  0.6687
 3247TIP3   OH2 9704   1.813   1.672   2.201 -0.0180 -0.0283  0.1073
 3247TIP3    H1 9705   1.836   1.715   2.118  0.3146  2.6514  1.4733
 3247TIP3    H2 9706   1.718   1.682   2.206 -0.1649 -1.0664 -0.3628
 3248TIP3   OH2 9707   6.048   6.322   0.955  0.0797 -0.2054 -0.3145
 3248TIP3    H1 9708   6.039   6.376   1.033  2.1058 -0.2763  0.0041
 3248TIP3    H2 9709   5.996   6.367   0.889  0.0746  1.0105  0.4967
 3249TIP3   OH2 9710   1.692   4.963   1.093  0.4357  0.0821 -0.3038
 3249TIP3    H1 9711   1.613   5.014   1.104 -0.3756 -1.1153 -0.3601
 3249TIP3    H2 9712   1.700   4.951   0.998  0.9208  0.5495 -0.3261
 3250TIP3   OH2 9713   1.603   6.516   5.674  0.3032  0.2194 -0.1306
 3250TIP3    H1 9714   1.520   6.505   5.627 -0.5015 -1.2587  1.5365
 3250TIP3    H2 9715   1.670   6.498   5.608 -0.7742 -1.4207 -0.8409
 3251TIP3   OH2 9716   7.056   1.103   0.329 -0.0972  0.7413  0.2208
 3251TIP3    H1 9717   7.068   1.078   0.420 -2.6854 -2.5242 -0.1379
 3251TIP3    H2 9718   6.994   1.176   0.332 -1.1560 -0.1700  1.0795
 3252TIP3   OH2 9719   6.213   4.325   2.849  0.4296 -0.2535  0.0035
 3252TIP3    H1 9720   6.288   4.283   2.808 -1.3297 -2.0776 -1.6361
 3252TIP3    H2 9721   6.204   4.282   2.934  0.8873 -0.4436 -0.0446
 3253TIP3   OH2 9722   4.870   2.031   4.887  1.0891  0.3305  0.0060
 3253TIP3    H1 9723   4.776   2.043   4.895  0.7248 -1.6148 -0.7005
 3253TIP3    H2 9724   4.906   2.060   4.971 -0.1827  0.6349  0.4631
 3254TIP3   OH2 9725   3.374   3.529   3.783  0.2609  0.2652 -0.3697
 3254TIP3    H1 9726   3.313   3.496   3.718  0.0258  0.0839 -0.0562
 3254TIP3    H2 9727   3.385   3.622   3.761 -0.3487  0.3649 -0.2476
 3255TIP3   OH2 9728   6.767   6.514   2.234  0.3014 -0.0023  0.4253
 3255TIP3    H1 9729   6.835   6.481   2.176  2.1208  1.4299  1.6406
 3255TIP3    H2 9730   6.769   6.455   2.309 -0.6218 -0.6303 -0.0262
 3256TIP3   OH2 9731   3.717   1.915   2.285 -0.3046  0.0212 -0.0456
 3256TIP3    H1 9732   3.707   1.946   2.195 -1.8857  2.1500  0.7742
 3256TIP3    H2 9733   3.766   1.985   2.329 -0.6394 -0.3996  1.0241
 3257TIP3   OH2 9734   5.711   3.124   1.888 -0.2314 -0.2574  0.5848
 3257TIP3    H1 9735   5.731   3.062   1.818 -1.3643 -0.1487  0.1474
 3257TIP3    H2 9736   5.789   3.178   1.896 -0.2834  0.0814 -0.9753
 3258TIP3   OH2 9737   7.120   4.151   3.624 -0.5254  0.3858 -0.1761
 3258TIP3    H1 9738   7.066   4.163   3.703 -2.7703  0.2187 -1.6129
 3258TIP3    H2 9739   7.098   4.063   3.594  2.5690 -0.7533  0.5735
 3259TIP3   OH2 9740   0.635   1.297   0.120  0.6686 -0.1696 -0.0115
 3259TIP3    H1 9741   0.600   1.249   0.045 -0.4096 -0.8408  0.8744
 3259TIP3    H2 9742   0.707   1.243   0.151  0.3885 -0.4812  0.1068
 3260TIP3   OH2 9743   0.373   4.617   0.626  0.0461  0.1968  0.0164
 3260TIP3    H1 9744   0.406   4.575   0.546  0.6400  0.0273  0.3432
 3260TIP3    H2 9745   0.433   4.588   0.695  0.6024  1.7764  0.2165
 3261TIP3   OH2 9746   5.688   6.654   0.739 -0.4182  0.6898 -0.7421
 3261TIP3    H1 9747   5.593   6.666   0.749 -0.1535  3.1503 -0.5458
 3261TIP3    H2 9748   5.705   6.680   0.648  0.1257  0.6717 -0.6463
 3262TIP3   OH2 9749   4.217   3.411   2.638 -0.1334 -0.7032 -0.1605
 3262TIP3    H1 9750   4.127   3.413   2.606 -0.2291 -1.2406  0.0604
 3262TIP3    H2 9751   4.236   3.501   2.663 -0.7888 -0.6863  0.2867
 3263TIP3   OH2 9752   1.106   4.544   3.488  0.2656  0.5587  0.3257
 3263TIP3    H1 9753   1.140   4.504   3.568 -0.8255 -0.1328  0.4675
 3263TIP3    H2 9754   1.067   4.627   3.517  2.1493  1.5965  0.0935
 3264TIP3   OH2 9755   4.784   5.897   3.840 -0.4437  0.1117 -0.2408
 3264TIP3    H1 9756   4.714   5.856   3.789 -0.3760 -1.0931  0.6040
 3264TIP3    H2 9757   4.846   5.929   3.774  0.4972 -2.9093 -0.9607
 3265TIP3   OH2 9758   0.771   3.466   2.634 -0.7913  0.1482 -0.0007
 3265TIP3    H1 9759   0.739   3.551   2.604 -0.9792  0.4065  0.9002
 3265TIP3    H2 9760   0.824   3.486   2.712  1.0191 -0.3390 -1.0465
 3266TIP3   OH2 9761   1.696   1.153   3.697 -0.4755 -0.3770  0.2864
 3266TIP3    H1 9762   1.671   1.092   3.767 -0.1938  0.6989  1.3706
 3266TIP3    H2 9763   1.649   1.233   3.718 -0.4597 -0.0675 -0.8347
 3267TIP3   OH2 9764   2.203   2.350   0.393 -0.0463  0.6418  0.0943
 3267TIP3    H1 9765   2.135   2.304   0.343 -0.9476 -0.0185  1.8343
 3267TIP3    H2 9766   2.156   2.419   0.440  0.4812  0.2326  1.2630
 3268TIP3   OH2 9767   6.133   1.732   2.336 -0.1372 -0.1757  0.5863
 3268TIP3    H1 9768   6.047   1.744   2.376 -0.4653  1.9795 -0.6093
 3268TIP3    H2 9769   6.162   1.820   2.313  1.4135 -1.0275 -1.0246
 3269TIP3   OH2 9770   0.550   1.816   3.593  1.1740 -0.0364 -0.0414
 3269TIP3    H1 9771   0.588   1.868   3.522  3.8121 -2.8777 -0.9060
 3269TIP3    H2 9772   0.604   1.837   3.669  0.7247  0.2182  0.2116
 3270TIP3   OH2 9773   4.175   4.674   0.184 -0.0113 -0.1164  0.3819
 3270TIP3    H1 9774   4.265   4.661   0.215  0.4879  0.3924 -0.7673
 3270TIP3    H2 9775   4.131   4.722   0.254  0.6140 -0.3517  0.9478
 3271TIP3   OH2 9776   6.291   2.297   4.231 -0.3917 -0.4019 -0.4041
 3271TIP3    H1 9777   6.197   2.294   4.248 -0.3400 -1.7198 -0.2526
 3271TIP3    H2 9778   6.325   2.358   4.297 -1.0258 -0.6113  0.1275
 3272TIP3   OH2 9779   2.465   1.139   3.848  0.4539 -0.0669 -0.2205
 3272TIP3    H1 9780   2.492   1.070   3.909 -2.8108 -0.1512  1.2925
 3272TIP3    H2 9781   2.463   1.096   3.763  0.2375 -1.3604  0.4114
 3273TIP3   OH2 9782   5.201   3.717   3.634 -0.2607  0.7068  0.3117
 3273TIP3    H1 9783   5.114   3.717   3.593 -0.7913 -0.4745  1.3523
 3273TIP3    H2 9784   5.185   3.686   3.723  1.3108 -0.0749  0.3543
 3274TIP3   OH2 9785   4.125   2.728   4.219  0.2537  0.1314 -0.0463
 3274TIP3    H1 9786   4.059   2.746   4.287  1.1847 -1.4412  1.3421
 3274TIP3    H2 9787   4.205   2.769   4.252  0.2104  1.3506 -1.3521
 3275TIP3   OH2 9788   2.000   4.928   0.191  0.7776  0.7619 -0.7817
 3275TIP3    H1 9789   1.977   5.011   0.233  0.6287  0.8600 -1.0543
 3275TIP3    H2 9790   1.991   4.863   0.260  0.6146  0.9349 -0.6382
 3276TIP3   OH2 9791   2.049   1.281   3.655  0.4177  0.2124 -0.5472
 3276TIP3    H1 9792   2.123   1.285   3.716 -0.3848  0.0202  0.4500
 3276TIP3    H2 9793   1.997   1.358   3.675  0.3764  0.3867 -1.2988
 3277TIP3   OH2 9794   4.814   6.013   2.312 -0.5914  0.1984  0.1262
 3277TIP3    H1 9795   4.881   6.080   2.305 -0.0239 -0.4977 -2.6636
 3277TIP3    H2 9796   4.858   5.940   2.356  0.1967  0.1153 -0.7629
 3278TIP3   OH2 9797   0.899   5.773   0.210 -0.3387  0.0288 -0.0976
 3278TIP3    H1 9798   0.916   5.789   0.117 -1.1025  1.4147 -0.0174
 3278TIP3    H2 9799   0.890   5.860   0.249  1.1930 -0.4788  1.5399
 3279TIP3   OH2 9800   4.726   0.271   1.731 -0.1934 -0.0860 -0.0361
 3279TIP3    H1 9801   4.763   0.353   1.698  1.3479 -1.3005 -1.5188
 3279TIP3    H2 9802   4.802   0.216   1.749 -1.2090 -1.5398  0.0039
 3280TIP3   OH2 9803   3.686   3.488   3.129 -0.1290 -0.3737 -0.5099
 3280TIP3    H1 9804   3.736   3.413   3.097  0.2203 -1.3425  2.0777
 3280TIP3    H2 9805   3.601   3.451   3.155 -0.0423  0.1386  0.5545
 3281TIP3   OH2 9806   0.224   5.759   1.592 -0.2105 -0.0678  0.1969
 3281TIP3    H1 9807   0.161   5.731   1.527 -0.6125 -0.1954  0.6340
 3281TIP3    H2 9808   0.301   5.704   1.577  0.5181  1.3408 -1.5412
 3282TIP3   OH2 9809   4.227   0.651   5.124  0.0407 -0.2737  0.3778
 3282TIP3    H1 9810   4.201   0.607   5.043 -1.0216 -0.1741  0.6465
 3282TIP3    H2 9811   4.320   0.634   5.132  0.6032  1.2777 -1.8673
 3283TIP3   OH2 9812   7.052   6.100   2.498  0.6530  0.0867  0.5252
 3283TIP3    H1 9813   7.070   6.161   2.569  0.5561 -0.2178  0.8107
 3283TIP3    H2 9814   6.997   6.032   2.537  1.6827 -0.7949  0.5050
 3284TIP3   OH2 9815   1.470   4.749   0.173  0.3338  0.1222  0.4981
 3284TIP3    H1 9816   1.423   4.707   0.101 -0.1621  1.5835 -0.0561
 3284TIP3    H2 9817   1.503   4.676   0.225  1.4072 -0.9928 -1.6281
 3285TIP3   OH2 9818   6.593   0.684   1.091 -0.2194  0.0367 -0.1192
 3285TIP3    H1 9819   6.641   0.668   1.010 -1.3029  1.3263 -1.0718
 3285TIP3    H2 9820   6.530   0.612   1.097 -0.4762  0.2104 -0.7047
 3286TIP3   OH2 9821   1.333   4.115   0.590  0.1380 -0.0864 -0.2991
 3286TIP3    H1 9822   1.317   4.021   0.594  0.9218 -0.1950  1.6329
 3286TIP3    H2 9823   1.251   4.155   0.620  0.3312 -0.2412  0.4586
 3287TIP3   OH2 9824   0.437   2.594   3.896  0.4488 -0.1446  0.2979
 3287TIP3    H1 9825   0.403   2.653   3.829 -0.4350 -0.0200  0.8407
 3287TIP3    H2 9826   0.481   2.525   3.847  0.7681  0.5197 -0.3717
 3288TIP3   OH2 9827  -0.010   0.969   5.074  0.4306  0.3340  0.1278
 3288TIP3    H1 9828  -0.028   0.886   5.029 -0.7478 -0.7932  2.4820
 3288TIP3    H2 9829   0.084   0.966   5.091  0.5236 -0.1960 -0.4322
 3289TIP3   OH2 9830   1.942   2.645   4.432 -0.1988 -0.5270  0.2334
 3289TIP3    H1 9831   1.913   2.685   4.514  0.0195  1.4509 -0.5861
 3289TIP3    H2 9832   1.995   2.571   4.458 -0.0872  0.1000  1.8837
 3290TIP3   OH2 9833   0.289   1.496   1.099  0.1881  0.9048  0.5786
 3290TIP3    H1 9834   0.227   1.466   1.166  0.2949  1.2663  0.8463
 3290TIP3    H2 9835   0.368   1.520   1.149  1.4556 -1.8389  0.0411
 3291TIP3   OH2 9836   4.376   0.639   1.172  0.0397  0.3237 -0.1340
 3291TIP3    H1 9837   4.328   0.708   1.126  1.2026  0.4170 -1.2614
 3291TIP3    H2 9838   4.469   0.662   1.160  0.4879  1.4392  3.9116
 3292TIP3   OH2 9839   1.060   5.305   3.555  0.9367 -0.1211  0.7324
 3292TIP3    H1 9840   1.057   5.396   3.585  0.7220  0.5571 -1.2150
 3292TIP3    H2 9841   0.991   5.299   3.490 -0.1709 -2.1790  1.9945
 3293TIP3   OH2 9842   5.615   5.515   3.439  0.2773  0.1960 -0.1142
 3293TIP3    H1 9843   5.638   5.605   3.462 -0.0281  0.2276  0.0731
 3293TIP3    H2 9844   5.699   5.470   3.434  0.3808  0.2610  0.7906
 3294TIP3   OH2 9845   0.651   0.270   2.708  0.3802 -0.1247  0.8864
 3294TIP3    H1 9846   0.644   0.215   2.630 -0.5926  0.3600  0.6170
 3294TIP3    H2 9847   0.567   0.259   2.753 -0.6363  2.5573 -0.1488
 3295TIP3   OH2 9848   1.440   5.108   1.110 -0.1365 -0.5712  0.1607
 3295TIP3    H1 9849   1.384   5.149   1.044  0.3958 -1.2957 -0.7858
 3295TIP3    H2 9850   1.399   5.127   1.194 -0.1337  1.5028 -0.2656
 3296TIP3   OH2 9851   1.437   2.372   4.370  0.1979  0.4575  0.1202
 3296TIP3    H1 9852   1.355   2.345   4.327 -0.0701 -0.6266  1.2629
 3296TIP3    H2 9853   1.450   2.307   4.438  1.9977  0.6605 -0.0037
 3297TIP3   OH2 9854   1.555   6.408   1.813 -0.5164 -0.1411  0.1681
 3297TIP3    H1 9855   1.582   6.492   1.778 -0.9969 -0.4547 -0.9863
 3297TIP3    H2 9856   1.507   6.366   1.742 -1.1147 -0.9916  1.0395
 3298TIP3   OH2 9857   1.250   2.358   0.256  0.1313 -0.3545 -0.4130
 3298TIP3    H1 9858   1.325   2.304   0.280  0.2986 -0.1281 -0.4246
 3298TIP3    H2 9859   1.194   2.299   0.205  0.6153 -0.3516 -0.9714
 3299TIP3   OH2 9860   6.220   6.048   0.550 -0.5641 -0.1207  0.4654
 3299TIP3    H1 9861   6.172   6.095   0.619 -0.0306  0.2873  0.5608
 3299TIP3    H2 9862   6.307   6.086   0.551 -1.2899  1.9388 -2.3333
 3300TIP3   OH2 9863   2.130   5.536   1.830  0.0264  0.1560  0.1996
 3300TIP3    H1 9864   2.130   5.461   1.771 -1.4378  0.4505 -0.2226
 3300TIP3    H2 9865   2.073   5.600   1.786  0.8139  1.2936  0.8131
 3301TIP3   OH2 9866   7.016   2.953   2.515 -0.2422 -0.2575  0.5342
 3301TIP3    H1 9867   6.992   3.045   2.522 -1.2022 -0.2660 -1.8246
 3301TIP3    H2 9868   7.106   2.954   2.484 -0.9114  0.0117 -1.6167
 3302TIP3   OH2 9869   0.852   6.138   1.502  0.0921  0.1825  0.2860
 3302TIP3    H1 9870   0.810   6.093   1.576 -1.9400 -2.3226 -2.1488
 3302TIP3    H2 9871   0.835   6.231   1.517 -3.8441 -0.4778  1.0594
 3303TIP3   OH2 9872   5.176   3.899   0.803 -0.1526  1.1975  0.3180
 3303TIP3    H1 9873   5.124   3.827   0.766  0.0834  2.2127 -2.1789
 3303TIP3    H2 9874   5.120   3.937   0.871 -2.1722  1.4029 -1.3551
 3304TIP3   OH2 9875   0.639   4.984   1.555  0.4848  0.1126 -0.1382
 3304TIP3    H1 9876   0.638   5.016   1.645  0.6864  2.9175 -1.0298
 3304TIP3    H2 9877   0.731   4.970   1.536  0.4536 -0.3447  0.0381
 3305TIP3   OH2 9878   2.869   5.042   2.099  0.7435 -0.1001 -0.1715
 3305TIP3    H1 9879   2.846   4.953   2.126  1.7936 -0.4779 -0.4739
 3305TIP3    H2 9880   2.826   5.053   2.014  1.8309 -0.8773 -0.8367
 3306TIP3   OH2 9881   0.030   1.006   5.566  0.5567  0.2656  0.5301
 3306TIP3    H1 9882   0.005   1.096   5.545 -0.5890 -0.2439 -0.4324
 3306TIP3    H2 9883   0.040   0.963   5.480 -2.8927 -1.5459  0.8677
 3307TIP3   OH2 9884   0.844   5.986   0.414  0.4658  0.5071  0.3357
 3307TIP3    H1 9885   0.833   6.081   0.420  1.1050  0.7741 -1.8534
 3307TIP3    H2 9886   0.754   5.952   0.411  0.2315  1.0155  1.1651
 3308TIP3   OH2 9887   4.532   1.473   5.219  0.1726 -0.1396  0.1420
 3308TIP3    H1 9888   4.514   1.390   5.174  0.6226  0.6234 -1.5240
 3308TIP3    H2 9889   4.628   1.477   5.222  0.1805  0.8965 -0.9561
 3309TIP3   OH2 9890   1.910   0.697   2.347  0.6207 -0.2161  0.4838
 3309TIP3    H1 9891   1.895   0.659   2.260  1.0523 -0.3296  0.4548
 3309TIP3    H2 9892   1.925   0.790   2.331 -1.5145  0.2118  0.6558
 3310TIP3   OH2 9893   1.740   6.771   3.663 -0.2347  0.1078  0.4954
 3310TIP3    H1 9894   1.813   6.833   3.667 -0.2530  0.0845  1.4458
 3310TIP3    H2 9895   1.773   6.699   3.608 -0.3414  1.0950 -0.9194
 3311TIP3   OH2 9896   2.482   3.590   5.250  0.0803 -0.3025  0.4632
 3311TIP3    H1 9897   2.436   3.603   5.167 -0.8638 -1.9081  0.6865
 3311TIP3    H2 9898   2.499   3.496   5.253 -0.7060 -0.4220  2.4643
 3312TIP3   OH2 9899   2.312   5.270   4.238  0.0802 -0.6892  0.0472
 3312TIP3    H1 9900   2.388   5.298   4.289 -0.0179  0.2458 -0.3060
 3312TIP3    H2 9901   2.295   5.181   4.268  0.5541 -0.4622  1.0293
 3313TIP3   OH2 9902   3.601   3.764   1.542 -0.2497 -0.3778 -0.3842
 3313TIP3    H1 9903   3.563   3.816   1.612  0.4229  0.5098 -0.6622
 3313TIP3    H2 9904   3.557   3.679   1.549  1.0104 -0.9316  2.2356
 3314TIP3   OH2 9905   5.764   5.325   1.519 -0.0007  0.8657  0.2267
 3314TIP3    H1 9906   5.711   5.292   1.592 -3.4472  1.1389 -1.9291
 3314TIP3    H2 9907   5.774   5.250   1.461  1.6334  0.9645  0.3341
 3315TIP3   OH2 9908   7.144   3.696   0.165 -0.1502  0.2769  0.3746
 3315TIP3    H1 9909   7.231   3.693   0.205  0.3569  0.1069 -0.6938
 3315TIP3    H2 9910   7.098   3.621   0.202  0.1915  0.3234  0.8919
 3316TIP3   OH2 9911   6.302   3.258   5.650  0.0588  0.0855 -0.8447
 3316TIP3    H1 9912   6.395   3.272   5.668 -0.0871  1.5116 -1.0906
 3316TIP3    H2 9913   6.265   3.234   5.735  0.5856 -0.1474 -0.6746
 3317TIP3   OH2 9914   3.674   1.284   3.195  0.2463 -0.6076 -0.1419
 3317TIP3    H1 9915   3.757   1.260   3.236 -0.1126 -4.8329 -1.4190
 3317TIP3    H2 9916   3.608   1.259   3.260 -0.1123 -2.3071 -1.0942
 3318TIP3   OH2 9917   3.815   5.569   3.096  0.0189 -0.0079 -0.1509
 3318TIP3    H1 9918   3.738   5.544   3.045 -0.8914  0.0031  1.1934
 3318TIP3    H2 9919   3.793   5.654   3.134  0.7223  0.0291  0.2028
 3319TIP3   OH2 9920   5.764   5.112   2.100  0.1974  0.2156  0.1046
 3319TIP3    H1 9921   5.755   5.134   2.008  0.5277  0.4971  0.1388
 3319TIP3    H2 9922   5.766   5.016   2.102  1.1829  0.2225 -0.2753
 3320TIP3   OH2 9923   1.164   6.772   0.162  0.1728 -0.2314  0.1583
 3320TIP3    H1 9924   1.251   6.785   0.123  0.3823 -0.1354  0.6532
 3320TIP3    H2 9925   1.179   6.708   0.232  0.1186  0.8906  1.2128
 3321TIP3   OH2 9926   3.917   3.687   3.045  0.3233  0.4603  0.1024
 3321TIP3    H1 9927   3.933   3.660   2.954 -2.1237  1.3712 -0.6970
 3321TIP3    H2 9928   3.862   3.618   3.081  1.7827 -0.1960  1.1304
 3322TIP3   OH2 9929   2.715   5.570   2.553 -0.6028  0.7772 -0.3795
 3322TIP3    H1 9930   2.764   5.534   2.480 -2.0950 -0.6308 -0.7300
 3322TIP3    H2 9931   2.638   5.610   2.513 -0.4222  1.8259  0.2699
 3323TIP3   OH2 9932   6.160   0.771   0.565 -0.0739 -0.1936 -0.3478
 3323TIP3    H1 9933   6.231   0.833   0.548  0.2551 -0.5998 -0.4762
 3323TIP3    H2 9934   6.197   0.686   0.544 -0.7832 -0.3611 -0.9683
 3324TIP3   OH2 9935   1.041   5.006   2.114  0.5720 -0.6595 -0.5751
 3324TIP3    H1 9936   1.031   4.993   2.020  0.6077 -3.0086 -0.2930
 3324TIP3    H2 9937   0.952   5.029   2.144  0.8721  1.8291 -1.3523
 3325TIP3   OH2 9938   4.568   2.356   3.023  0.1290 -0.1903  0.4142
 3325TIP3    H1 9939   4.589   2.326   2.934  1.4775 -0.4717  0.8036
 3325TIP3    H2 9940   4.479   2.392   3.016  1.7515  3.9910 -2.0907
 3326TIP3   OH2 9941   3.998   6.547   2.965 -0.0887 -0.3405 -0.3069
 3326TIP3    H1 9942   4.022   6.585   2.881  1.3392 -0.0457  0.2193
 3326TIP3    H2 9943   4.081   6.528   3.008 -0.7815 -1.6576  0.5264
 3327TIP3   OH2 9944   6.965   3.857   4.010  0.3958 -0.2019 -0.0438
 3327TIP3    H1 9945   7.020   3.820   3.941 -1.2678 -1.0361 -0.9721
 3327TIP3    H2 9946   6.958   3.788   4.076 -0.0276 -0.3130 -0.2070
 3328TIP3   OH2 9947   3.560   5.839   2.344  0.4736 -0.6626 -0.3566
 3328TIP3    H1 9948   3.649   5.802   2.345  0.9957  0.4059 -2.1386
 3328TIP3    H2 9949   3.557   5.896   2.420  0.9036 -1.5815  0.3718
 3329TIP3   OH2 9950   2.502   1.538   3.312 -0.1522 -0.2890 -0.0496
 3329TIP3    H1 9951   2.557   1.466   3.343  0.7505  0.8922  1.1772
 3329TIP3    H2 9952   2.472   1.582   3.391 -1.7180 -0.0192 -0.7436
 3330TIP3   OH2 9953   3.631   5.862   2.671 -0.3554  0.2894 -0.2362
 3330TIP3    H1 9954   3.580   5.828   2.745 -1.1622 -1.7528 -1.6536
 3330TIP3    H2 9955   3.581   5.937   2.640 -1.1787 -0.1968 -0.0941
 3331TIP3   OH2 9956   5.849   5.534   5.708 -0.1853  0.2692  0.3568
 3331TIP3    H1 9957   5.830   5.462   5.648 -0.8349 -0.7480  1.7196
 3331TIP3    H2 9958   5.843   5.494   5.795  0.3020  1.7885  1.1167
 3332TIP3   OH2 9959   2.108   3.021   0.394  0.5825  0.1439  0.6688
 3332TIP3    H1 9960   2.036   2.964   0.367  0.6550 -0.2783  1.3439
 3332TIP3    H2 9961   2.185   2.965   0.393  0.4793 -0.0757  2.3843
 3333TIP3   OH2 9962   5.351   0.365   4.323  0.0389  0.3532  0.1671
 3333TIP3    H1 9963   5.265   0.329   4.302  0.5787 -0.7984 -0.1487
 3333TIP3    H2 9964   5.409   0.289   4.328  1.0668  1.1117  0.2745
 3334TIP3   OH2 9965   2.183   4.085   4.753  0.5291 -0.9576  0.4463
 3334TIP3    H1 9966   2.258   4.100   4.810  0.2802  2.2331  0.1067
 3334TIP3    H2 9967   2.117   4.045   4.810  1.4827 -1.1019  1.4879
 3335TIP3   OH2 9968   3.645   1.836   1.823  0.0930  0.0072  0.4062
 3335TIP3    H1 9969   3.557   1.875   1.820 -0.3898 -1.0350  0.6531
 3335TIP3    H2 9970   3.630   1.742   1.815  1.4186 -0.0341 -3.3861
 3336TIP3   OH2 9971   4.881   1.305   1.925 -0.2187  0.2090 -0.2108
 3336TIP3    H1 9972   4.956   1.305   1.984 -1.2725  0.2933  1.1657
 3336TIP3    H2 9973   4.917   1.275   1.841  1.4811  0.9468  0.2185
 3337TIP3   OH2 9974   1.049   0.872   4.788 -0.0229 -0.5595  0.3331
 3337TIP3    H1 9975   1.075   0.837   4.873 -1.7612  0.0839  1.1945
 3337TIP3    H2 9976   1.015   0.959   4.808  0.2748 -0.0898 -1.1467
 3338TIP3   OH2 9977   7.190   4.378   1.513  0.1563 -0.4493 -0.1475
 3338TIP3    H1 9978   7.157   4.421   1.592  2.4610  2.7327 -0.7452
 3338TIP3    H2 9979   7.144   4.421   1.441  3.2621  2.1019 -0.8222
 3339TIP3   OH2 9980   2.499   3.039   4.686  0.3163 -0.2181  0.0509
 3339TIP3    H1 9981   2.555   2.962   4.701  0.0017 -0.5923 -0.6266
 3339TIP3    H2 9982   2.539   3.084   4.612  0.0139 -0.2206 -0.1209
 3340TIP3   OH2 9983   5.564   1.319   3.513 -0.1193 -0.2662  0.3049
 3340TIP3    H1 9984   5.485   1.324   3.459  0.5122 -1.1038 -0.7334
 3340TIP3    H2 9985   5.596   1.229   3.501  1.4293  0.2932  0.0757
 3341TIP3   OH2 9986   2.855   6.357   4.112  0.1700  0.1035 -0.3028
 3341TIP3    H1 9987   2.887   6.415   4.043 -1.0148  0.1976 -0.8043
 3341TIP3    H2 9988   2.760   6.370   4.111  0.0108 -0.9343  0.4127
 3342TIP3   OH2 9989   6.059   6.229   3.390 -0.4370 -0.2443 -0.6144
 3342TIP3    H1 9990   6.080   6.289   3.462 -0.4853  2.6170 -2.7818
 3342TIP3    H2 9991   5.970   6.252   3.365 -0.5313 -1.3937 -1.4245
 3343TIP3   OH2 9992   2.932   3.879   1.401  0.3475  0.4534 -0.3010
 3343TIP3    H1 9993   3.001   3.940   1.427 -0.4723  1.0143  0.6341
 3343TIP3    H2 9994   2.956   3.797   1.443 -1.6589  1.6452  3.7257
 3344TIP3   OH2 9995   3.160   0.086   3.333 -1.2482 -0.1715 -0.4194
 3344TIP3    H1 9996   3.255   0.072   3.327 -0.9958 -1.0083  3.3115
 3344TIP3    H2 9997   3.122  -0.002   3.334 -1.9527  0.1252 -0.3980
 3345TIP3   OH2 9998   2.212   1.086   3.317  0.2076  0.0348  0.1515
 3345TIP3    H1 9999   2.192   1.069   3.409 -0.9731 -0.4407 -0.1687
 3345TIP3    H210000   2.148   1.033   3.268  1.1650 -0.1612 -0.9540
 3346TIP3   OH210001   0.899  -0.004   3.169 -0.3946 -0.2111 -0.3001
 3346TIP3    H110002   0.994  -0.007   3.183 -0.5505 -0.0665  0.8739
 3346TIP3    H210003   0.889   0.031   3.080  0.6456  0.2667 -0.2451
 3347TIP3   OH210004   2.627   6.727   1.536 -0.3151 -0.2530 -0.2896
 3347TIP3    H110005   2.551   6.670   1.549 -0.7532  0.3305 -0.2386
 3347TIP3    H210006   2.598   6.812   1.568  0.2570  0.0516 -0.5774
 3348TIP3   OH210007   4.777   4.174   1.662 -0.2056 -0.0335 -0.2225
 3348TIP3    H110008   4.775   4.086   1.700 -0.3674  0.9791  2.3483
 3348TIP3    H210009   4.696   4.181   1.612 -1.2850 -0.6666  1.3405
 3349TIP3   OH210010   2.648   6.037   1.422 -0.0633  0.2637  0.0316
 3349TIP3    H110011   2.585   6.097   1.381  0.2100  0.7853  0.3653
 3349TIP3    H210012   2.733   6.074   1.399  0.1292 -0.4776 -0.4751
 3350TIP3   OH210013   5.588   2.011   5.556 -0.4715  0.4611  0.1098
 3350TIP3    H110014   5.638   1.967   5.487  0.1451  0.3043  0.6403
 3350TIP3    H210015   5.651   2.023   5.627 -0.9961  0.9602  0.5029
 3351TIP3   OH210016   1.144   1.409   3.009  0.0976  0.2514  0.6816
 3351TIP3    H110017   1.222   1.451   3.045  2.2053 -1.1952 -1.8571
 3351TIP3    H210018   1.137   1.327   3.057 -0.0418  0.5102  1.1091
 3352TIP3   OH210019   3.019   1.328   1.849 -0.6553  0.3122  0.1558
 3352TIP3    H110020   3.087   1.261   1.854  0.2632  0.9600 -2.1443
 3352TIP3    H210021   3.028   1.377   1.930 -0.2854 -1.3388  1.1540
 3353TIP3   OH210022   1.020   5.625   1.804 -0.0626 -0.3197 -0.1572
 3353TIP3    H110023   1.027   5.584   1.718 -0.2786 -0.6714 -0.0067
 3353TIP3    H210024   1.007   5.718   1.785 -0.5592 -0.4606 -0.5124
 3354TIP3   OH210025   5.167   5.575   5.530 -0.6732 -0.3199  0.1393
 3354TIP3    H110026   5.217   5.504   5.570  0.3950  0.8167  0.8896
 3354TIP3    H210027   5.079   5.566   5.566 -0.2393 -0.5450  1.1777
 3355TIP3   OH210028   4.256   4.302   2.901  0.0261 -0.9227 -0.3038
 3355TIP3    H110029   4.282   4.360   2.829 -0.4146  0.3451  0.5373
 3355TIP3    H210030   4.340   4.274   2.940  0.2561 -1.3502 -1.0852
 3356TIP3   OH210031   4.476   5.529   4.224  0.0788  0.2751 -0.0704
 3356TIP3    H110032   4.516   5.455   4.177 -1.6637 -0.4892 -0.4329
 3356TIP3    H210033   4.382   5.510   4.223 -0.4948  2.8092 -0.6893
 3357TIP3   OH210034   3.121   0.907   2.807 -1.0127  0.0933 -0.0431
 3357TIP3    H110035   3.184   0.915   2.879 -0.2655 -2.4257 -0.3208
 3357TIP3    H210036   3.042   0.950   2.840  0.3250  1.9089  0.9550
 3358TIP3   OH210037   5.530   4.191   2.424  0.0474  0.3524  0.0830
 3358TIP3    H110038   5.508   4.219   2.513  0.7939 -0.1285  0.4226
 3358TIP3    H210039   5.451   4.145   2.393 -0.3746  0.8999  0.3234
 3359TIP3   OH210040   2.894   1.955   3.609  0.1547  0.0710  0.2691
 3359TIP3    H110041   2.840   1.946   3.530 -1.0622  3.2167  0.6215
 3359TIP3    H210042   2.868   1.881   3.664 -0.9766 -0.6443 -1.1580
 3360TIP3   OH210043   1.738   4.463   0.184  0.7571 -0.4118 -0.3469
 3360TIP3    H110044   1.669   4.403   0.154  0.4310 -0.7347  1.0133
 3360TIP3    H210045   1.818   4.411   0.181  0.5474 -0.7916  0.3820
 3361TIP3   OH210046   1.448   6.076   3.112 -0.2442 -0.0271  0.9878
 3361TIP3    H110047   1.428   5.982   3.109 -1.4083  0.2301 -0.3839
 3361TIP3    H210048   1.446   6.097   3.205  1.3834 -1.6128  1.4423
 3362TIP3   OH210049   2.778   6.709   5.799  0.0534 -0.5826 -0.2945
 3362TIP3    H110050   2.777   6.687   5.706 -2.0821  0.0833 -0.4875
 3362TIP3    H210051   2.770   6.804   5.801 -1.3765 -0.6970  0.5475
 3363TIP3   OH210052   1.661   4.773   5.047 -0.2991  1.0877  0.1268
 3363TIP3    H110053   1.577   4.742   5.081 -1.5152 -0.6039 -3.8750
 3363TIP3    H210054   1.727   4.734   5.106 -2.1604 -1.6067  0.6153
 3364TIP3   OH210055   3.461   0.476   0.205  0.1536  0.1537 -0.1352
 3364TIP3    H110056   3.424   0.563   0.190  0.8270  0.5157  0.2791
 3364TIP3    H210057   3.505   0.454   0.123 -0.6690 -0.1343 -0.5112
 3365TIP3   OH210058   0.563   2.177   0.159 -0.2420  0.1356  0.3022
 3365TIP3    H110059   0.514   2.259   0.160 -0.6667 -0.0965 -0.5519
 3365TIP3    H210060   0.537   2.133   0.239 -1.2970  0.0978 -0.0486
 3366TIP3   OH210061   5.092   1.631   0.706 -0.2366 -0.4742  0.2867
 3366TIP3    H110062   5.170   1.583   0.678  1.1144  1.2374  0.8441
 3366TIP3    H210063   5.106   1.720   0.673 -1.6028  0.0611  1.0505
 3367TIP3   OH210064   3.593   0.870   1.704 -0.4329  0.2409 -0.0188
 3367TIP3    H110065   3.663   0.883   1.640 -0.0423 -0.6390  0.2147
 3367TIP3    H210066   3.513   0.864   1.652 -0.0526 -1.0397 -0.4927
 3368TIP3   OH210067   0.691   0.097   3.666  0.1358 -0.9201  0.4394
 3368TIP3    H110068   0.783   0.119   3.682  0.5012 -2.5449  0.8190
 3368TIP3    H210069   0.645   0.128   3.743  0.2194  0.6258 -0.1100
 3369TIP3   OH210070   3.442   0.915   0.154  0.4769 -0.0630  0.2253
 3369TIP3    H110071   3.533   0.894   0.177  0.2639 -0.0514  1.1423
 3369TIP3    H210072   3.411   0.838   0.106  1.7161  0.9488 -2.3932
 3370TIP3   OH210073   5.185   6.456   4.953 -0.0785 -0.4312 -0.5219
 3370TIP3    H110074   5.116   6.389   4.956 -1.5874  0.5907 -4.8465
 3370TIP3    H210075   5.251   6.419   4.894  2.1533 -0.4618  1.8239
 3371TIP3   OH210076   3.141   4.949   1.235  0.1810  0.2936 -0.5040
 3371TIP3    H110077   3.234   4.970   1.229 -0.2089  2.3129 -0.1325
 3371TIP3    H210078   3.101   4.998   1.163 -0.7320  0.4170  0.0750
 3372TIP3   OH210079   2.384   1.251   4.619 -0.1243  0.3995  0.0028
 3372TIP3    H110080   2.394   1.185   4.688 -0.2362  1.1107  0.7091
 3372TIP3    H210081   2.404   1.334   4.662  0.6730  0.7647 -1.0479
 3373TIP3   OH210082   1.460   4.167   2.388  0.1337 -0.4606 -0.3348
 3373TIP3    H110083   1.555   4.158   2.400  0.2481 -0.1157 -0.9301
 3373TIP3    H210084   1.429   4.202   2.471  0.6008 -0.1348 -0.2882
 3374TIP3   OH210085   1.781   5.546   4.083  0.6815  0.0122 -0.0008
 3374TIP3    H110086   1.818   5.563   4.169  3.2072  0.3293 -1.0458
 3374TIP3    H210087   1.853   5.505   4.034 -1.0001 -1.1632 -1.6526
 3375TIP3   OH210088   5.130   3.657   1.565 -0.2463  0.3261  0.5730
 3375TIP3    H110089   5.097   3.693   1.483 -0.7697  0.4684  0.8413
 3375TIP3    H210090   5.197   3.719   1.594 -1.5022  1.3842  1.2974
 3376TIP3   OH210091   0.065   6.073   3.724  0.4016  0.3085  0.2179
 3376TIP3    H110092   0.019   5.990   3.737  2.1952 -1.4030 -3.0460
 3376TIP3    H210093  -0.004   6.140   3.730 -1.1752 -1.3655  2.5324
 3377TIP3   OH210094   4.148   4.779   1.165  0.4749 -0.2280 -0.0387
 3377TIP3    H110095   4.221   4.722   1.141 -0.3040 -0.3522 -2.3428
 3377TIP3    H210096   4.178   4.867   1.142 -0.7063 -0.4616 -2.9342
 3378TIP3   OH210097   1.043   4.079   3.056  0.1642  0.1057 -0.8343
 3378TIP3    H110098   1.087   3.995   3.043 -2.4307 -1.1989 -2.0376
 3378TIP3    H210099   1.047   4.122   2.970 -1.0992 -0.1813 -1.0567
 3379TIP3   OH210100   1.215   6.408   0.164 -0.1934 -0.1363 -0.3114
 3379TIP3    H110101   1.131   6.363   0.151 -0.1540 -0.8357  1.5664
 3379TIP3    H210102   1.198   6.471   0.234  1.1198 -1.1319  0.9554
 3380TIP3   OH210103   1.406   2.198   3.502  0.5558 -0.3488  0.1287
 3380TIP3    H110104   1.493   2.227   3.473  0.8146  0.8465  1.9394
 3380TIP3    H210105   1.424   2.136   3.573 -0.0689 -0.3925  0.2547
 3381TIP3   OH210106   1.733   2.083   5.278  0.7772  0.1203  0.5318
 3381TIP3    H110107   1.761   2.067   5.188 -0.0114 -1.4746  0.5255
 3381TIP3    H210108   1.657   2.140   5.270  1.7037  1.3474  0.3113
 3382TIP3   OH210109   1.400   3.603   3.249 -0.2088 -0.3101  0.1253
 3382TIP3    H110110   1.453   3.525   3.269  0.2113  0.2393  1.2631
 3382TIP3    H210111   1.441   3.641   3.172  0.5213 -0.3774  0.4755
 3383TIP3   OH210112   5.177   2.370   1.270  0.2778 -0.4975 -0.3134
 3383TIP3    H110113   5.169   2.465   1.258  1.4329 -0.2735  0.4876
 3383TIP3    H210114   5.149   2.356   1.361  2.6325 -0.5220  0.4683
 3384TIP3   OH210115   2.654   5.760   3.530 -0.1539  0.4381  0.1327
 3384TIP3    H110116   2.566   5.740   3.561  0.9466 -2.3904  1.8044
 3384TIP3    H210117   2.645   5.843   3.483 -3.1243  1.8499  2.8354
 3385TIP3   OH210118   0.820   5.271   4.100  0.0525  0.4740 -0.1712
 3385TIP3    H110119   0.782   5.221   4.173  2.9813 -1.4928  0.1851
 3385TIP3    H210120   0.786   5.228   4.022  0.0762 -0.0520  0.1007
 3386TIP3   OH210121   0.614   3.624   2.139 -0.1459 -0.4175  0.0907
 3386TIP3    H110122   0.577   3.684   2.075 -0.9346 -0.9952 -0.0021
 3386TIP3    H210123   0.551   3.623   2.211 -0.2330 -1.2763  0.0093
 3387TIP3   OH210124   6.712   0.677   5.114  0.0041  0.2311 -0.0520
 3387TIP3    H110125   6.802   0.645   5.126 -0.5364 -1.2189  0.2837
 3387TIP3    H210126   6.674   0.676   5.201 -0.7901 -0.6045 -0.3925
 3388TIP3   OH210127   2.717   0.630   5.455 -0.3576 -0.1447  0.2674
 3388TIP3    H110128   2.754   0.586   5.379  1.7564 -1.3136  1.8679
 3388TIP3    H210129   2.623   0.634   5.436  0.2897  1.9115 -3.4673
 3389TIP3   OH210130   5.107   1.873   3.332 -0.1262  0.0772 -0.1972
 3389TIP3    H110131   5.061   1.815   3.392 -1.7414  2.6401  1.2460
 3389TIP3    H210132   5.200   1.858   3.350 -0.5404 -1.0065  1.1631
 3390TIP3   OH210133   6.453   2.603   4.926  0.3489  0.1972  0.3160
 3390TIP3    H110134   6.400   2.540   4.975 -0.1431 -0.1657 -0.6450
 3390TIP3    H210135   6.389   2.651   4.873  0.5717  2.3105  1.8668
 3391TIP3   OH210136   5.196   6.209   5.471 -0.1037  0.3713 -0.2376
 3391TIP3    H110137   5.273   6.162   5.503 -0.6586  0.1157  0.7558
 3391TIP3    H210138   5.206   6.208   5.375  0.0922 -1.4527 -0.2401
 3392TIP3   OH210139   5.034   4.396   4.889  0.2845 -0.1851 -0.0006
 3392TIP3    H110140   4.948   4.432   4.872  1.1215  1.0621 -1.8644
 3392TIP3    H210141   5.094   4.469   4.874  1.8786 -1.7480 -1.7131
 3393TIP3   OH210142   3.376   1.506   2.764 -0.7658 -0.0401 -0.0770
 3393TIP3    H110143   3.418   1.501   2.850  0.1482  0.0135 -0.5058
 3393TIP3    H210144   3.313   1.434   2.764 -0.5288 -0.2568  0.5167
 3394TIP3   OH210145   5.102   0.147   0.071  0.4724  0.2423 -0.6167
 3394TIP3    H110146   5.148   0.124  -0.010  0.4252  0.2852 -0.6556
 3394TIP3    H210147   5.015   0.173   0.042  0.9957  1.9846 -0.7389
 3395TIP3   OH210148   5.554   2.477   3.083 -0.0227 -0.4097 -0.7043
 3395TIP3    H110149   5.618   2.438   3.024  0.9836 -2.3686  1.5145
 3395TIP3    H210150   5.496   2.405   3.107 -1.8309  0.8657 -1.0347
 3396TIP3   OH210151   2.830   5.833   1.058  0.6666 -0.2479  0.4162
 3396TIP3    H110152   2.756   5.792   1.012 -1.4998  1.2726  2.3535
 3396TIP3    H210153   2.807   5.926   1.062  1.5645 -0.0764  3.0757
 3397TIP3   OH210154   2.089   2.445   4.514  0.1698 -0.2001 -0.5491
 3397TIP3    H110155   2.165   2.432   4.571  1.2087  0.3761 -1.7471
 3397TIP3    H210156   2.045   2.360   4.513 -0.4697  0.0359  1.8782
 3398TIP3   OH210157   6.305   5.793   3.752 -0.1125  0.0751  0.4283
 3398TIP3    H110158   6.347   5.707   3.754 -1.2480 -0.4988  1.8726
 3398TIP3    H210159   6.229   5.783   3.810 -3.4047  0.4596 -3.4158
 3399TIP3   OH210160   4.322   5.455   0.478  0.0270 -0.0818 -0.0838
 3399TIP3    H110161   4.335   5.476   0.571 -0.6721  0.1470 -0.0346
 3399TIP3    H210162   4.251   5.513   0.450  0.7172  0.3695 -0.9528
 3400TIP3   OH210163   7.138   6.510   5.529  0.1217 -0.3492  1.1416
 3400TIP3    H110164   7.166   6.503   5.620  0.6374  1.9271  1.2227
 3400TIP3    H210165   7.042   6.518   5.534  0.2615  1.2485  1.6310
 3401TIP3   OH210166   4.157   0.261   5.580 -0.2737 -0.0772  0.5679
 3401TIP3    H110167   4.201   0.320   5.519 -0.2134  0.5494  1.2025
 3401TIP3    H210168   4.077   0.234   5.535 -0.3844  0.6227  0.3371
 3402TIP3   OH210169   1.821   6.631   5.280 -0.7152 -0.3620 -0.1772
 3402TIP3    H110170   1.876   6.580   5.220 -0.0851 -0.0434  0.1152
 3402TIP3    H210171   1.791   6.705   5.228  1.2379  0.8610  0.3259
 3403TIP3   OH210172   5.256   3.249   3.304 -0.5956 -0.1446 -0.5020
 3403TIP3    H110173   5.292   3.318   3.360 -1.5406  0.0058 -0.0659
 3403TIP3    H210174   5.233   3.293   3.223 -1.3852  0.1068 -0.1510
 3404TIP3   OH210175   4.720   1.806   4.779 -0.6826 -0.9411 -0.2672
 3404TIP3    H110176   4.722   1.902   4.783 -0.0647 -0.9435 -0.4544
 3404TIP3    H210177   4.717   1.787   4.685 -2.0768 -1.0936 -0.2193
 3405TIP3   OH210178   0.911   0.421   1.951 -1.0708  0.8446  0.6905
 3405TIP3    H110179   0.827   0.377   1.956 -0.9256  0.5286  0.3881
 3405TIP3    H210180   0.931   0.445   2.042 -0.9426 -0.1092  0.9247
 3406TIP3   OH210181   6.737   0.164   3.758 -0.1294 -0.1448  0.2647
 3406TIP3    H110182   6.699   0.152   3.671  1.7929 -1.0513 -0.5290
 3406TIP3    H210183   6.758   0.075   3.787  2.3733  0.3247  0.1181
 3407TIP3   OH210184   0.471   5.090   3.987  0.0908  0.2059  0.2694
 3407TIP3    H110185   0.420   5.050   3.916 -0.3439 -1.1941  1.3190
 3407TIP3    H210186   0.561   5.064   3.969 -0.0933 -0.6729  0.5256
 3408TIP3   OH210187   3.022   6.313   5.308 -0.2650 -0.3690 -0.3013
 3408TIP3    H110188   3.091   6.374   5.334 -0.0542 -0.4872 -0.5963
 3408TIP3    H210189   3.035   6.299   5.215 -1.6119  0.8166 -0.7138
 3409TIP3   OH210190   5.165   4.452   1.322  0.0165  0.0989  0.1158
 3409TIP3    H110191   5.187   4.386   1.389  0.3661  0.1095  0.0122
 3409TIP3    H210192   5.196   4.414   1.240 -0.4621  0.0621 -0.0505
 3410TIP3   OH210193   1.885   5.512   2.788  0.7200  0.0854  0.3903
 3410TIP3    H110194   1.891   5.490   2.695 -1.1994  1.3038 -0.0769
 3410TIP3    H210195   1.821   5.451   2.823  0.3676  0.5628  0.5859
 3411TIP3   OH210196   2.172   2.399   5.743 -0.9496  0.2721  0.1437
 3411TIP3    H110197   2.135   2.443   5.667 -0.3736 -0.0391 -0.3260
 3411TIP3    H210198   2.120   2.318   5.751 -0.6560  0.0411 -0.2540
 3412TIP3   OH210199   3.397   0.788   4.055  0.4327  0.1217 -0.3032
 3412TIP3    H110200   3.329   0.729   4.022  1.2421 -0.1977 -1.4360
 3412TIP3    H210201   3.351   0.844   4.118 -0.9652  0.1427 -1.2988
 3413TIP3   OH210202   4.687   1.423   0.507 -0.4468 -0.0431 -0.7007
 3413TIP3    H110203   4.720   1.379   0.428 -0.4461  0.6991 -1.1277
 3413TIP3    H210204   4.604   1.462   0.480 -0.9944 -0.7209 -0.0138
 3414TIP3   OH210205   3.041   2.446   5.537 -0.4079 -0.1077  0.1162
 3414TIP3    H110206   3.113   2.395   5.576  0.4459  1.2118  0.3071
 3414TIP3    H210207   3.031   2.521   5.595 -1.3431  0.1901 -0.4181
 3415TIP3   OH210208   4.555   2.509   3.894 -0.2152  0.3982 -0.0299
 3415TIP3    H110209   4.493   2.562   3.943  0.8780  2.1396 -0.4382
 3415TIP3    H210210   4.513   2.423   3.888 -0.8752  0.4172  2.9217
 3416TIP3   OH210211   2.537   0.346   3.575  0.1289 -0.2368 -0.3088
 3416TIP3    H110212   2.599   0.412   3.543  0.1721 -0.4525 -0.6784
 3416TIP3    H210213   2.461   0.354   3.518  0.5691 -1.2376 -1.0637
 3417TIP3   OH210214   3.597   5.681   0.250  0.0170 -0.1212 -0.0617
 3417TIP3    H110215   3.620   5.648   0.337 -1.0704 -0.9859 -0.0895
 3417TIP3    H210216   3.597   5.604   0.194  1.7219  0.5530 -1.0935
 3418TIP3   OH210217   0.090   1.032   2.512 -0.4368  0.0557  0.1332
 3418TIP3    H110218   0.158   1.098   2.503 -1.0269  1.0308  2.2379
 3418TIP3    H210219   0.008   1.078   2.492 -0.6212 -0.8577 -1.4004
 3419TIP3   OH210220   5.446   0.409   4.587  0.0497 -0.2152 -0.3248
 3419TIP3    H110221   5.404   0.402   4.501  1.5652  1.9342 -1.3600
 3419TIP3    H210222   5.437   0.502   4.610  2.5133 -0.0217  0.2234
 3420TIP3   OH210223   1.577   5.780   0.628 -0.0479 -0.0808  0.5554
 3420TIP3    H110224   1.627   5.792   0.547 -0.2176  0.4747  0.5291
 3420TIP3    H210225   1.541   5.692   0.621 -1.1689  0.4369 -0.6057
 3421TIP3   OH210226   3.237   0.586   5.791  0.0761  0.7831  0.4780
 3421TIP3    H110227   3.291   0.578   5.713 -1.5345 -0.6932 -0.5640
 3421TIP3    H210228   3.196   0.673   5.783 -2.3994 -0.4516 -2.0148
 3422TIP3   OH210229   4.884   2.148   5.135  0.4080 -0.0909  0.1574
 3422TIP3    H110230   4.839   2.225   5.170 -1.1640 -1.2863  0.9075
 3422TIP3    H210231   4.928   2.110   5.210 -2.2097 -2.1466  0.8112
 3423TIP3   OH210232   1.570   0.105   0.746  0.2004  0.1941  0.1691
 3423TIP3    H110233   1.519   0.158   0.808  0.2533 -1.8220  2.0414
 3423TIP3    H210234   1.653   0.091   0.791 -0.4159 -2.8537  0.5666
 3424TIP3   OH210235   2.628   0.106   3.637  0.2066 -0.1148 -0.3761
 3424TIP3    H110236   2.718   0.114   3.606  1.2523  0.5241  2.4828
 3424TIP3    H210237   2.588   0.190   3.614  0.5935 -0.0568 -0.8622
 3425TIP3   OH210238   5.635   0.484   5.869 -0.4669  0.2237 -0.3633
 3425TIP3    H110239   5.624   0.521   5.781  0.6420  1.4750 -0.0051
 3425TIP3    H210240   5.557   0.429   5.882 -0.8150  0.2947 -1.9845
 3426TIP3   OH210241   6.810   0.758   4.544  0.7809  0.0100 -0.2090
 3426TIP3    H110242   6.802   0.715   4.459  1.6621  0.6551 -0.6431
 3426TIP3    H210243   6.746   0.714   4.600 -0.0075 -0.2498 -1.2759
 3427TIP3   OH210244   6.261   5.936   3.113 -0.2181  0.4888  0.0364
 3427TIP3    H110245   6.235   5.862   3.057  0.0439  1.7753 -1.9038
 3427TIP3    H210246   6.294   6.002   3.051 -1.4590  2.6749  1.5533
 3428TIP3   OH210247   5.363   0.604   1.097 -0.8223  0.4385  0.3187
 3428TIP3    H110248   5.408   0.683   1.065  0.5952 -0.4656 -0.0136
 3428TIP3    H210249   5.366   0.543   1.024  1.7165 -1.3626  1.7611
 3429TIP3   OH210250   3.097   1.827   3.301 -0.0259 -0.2173 -0.1170
 3429TIP3    H110251   3.109   1.824   3.206 -1.4630 -0.0642 -0.3333
 3429TIP3    H210252   3.094   1.921   3.322  1.1750 -0.2428  0.2208
 3430TIP3   OH210253   2.675   3.105   1.521 -0.9856 -1.4770 -0.2763
 3430TIP3    H110254   2.671   3.136   1.430  1.5225 -1.3196 -0.4064
 3430TIP3    H210255   2.690   3.183   1.573 -0.3414 -1.7967  0.0310
 3431TIP3   OH210256   1.715   2.902   4.910 -0.2609 -0.1708  0.2656
 3431TIP3    H110257   1.717   2.880   5.003  2.0908  2.8285  1.0786
 3431TIP3    H210258   1.766   2.983   4.903  0.5949 -0.8501 -3.8150
 3432TIP3   OH210259   7.093   2.844   5.585 -0.5165 -0.6072 -0.4059
 3432TIP3    H110260   7.087   2.938   5.604 -3.0003 -0.6687 -0.6128
 3432TIP3    H210261   7.008   2.808   5.611  0.4202 -2.8472 -0.2082
 3433TIP3   OH210262   2.524   6.471   1.791  0.5977  0.6236 -0.0713
 3433TIP3    H110263   2.587   6.535   1.825 -0.0085  0.2794  1.7775
 3433TIP3    H210264   2.458   6.463   1.859 -1.1320  0.4726 -1.6758
 3434TIP3   OH210265   3.965   4.953   2.827 -0.0002  0.3735  0.0261
 3434TIP3    H110266   3.989   5.040   2.793 -0.2679  0.6127  0.4431
 3434TIP3    H210267   4.027   4.938   2.898  1.4507 -0.7146 -1.3854
 3435TIP3   OH210268  -0.015   2.289   2.911 -0.1587 -0.4123 -0.1172
 3435TIP3    H110269   0.067   2.240   2.902 -1.1063 -1.7357 -2.9231
 3435TIP3    H210270   0.012   2.379   2.927  1.7325 -1.2048  1.6359
 3436TIP3   OH210271   4.819   3.060   2.953  0.7682  0.1505 -0.5961
 3436TIP3    H110272   4.778   3.006   2.885 -0.5444  0.3092  0.0462
 3436TIP3    H210273   4.844   2.998   3.021  0.4733  0.1970 -0.4454
 3437TIP3   OH210274   6.914   0.243   0.393  0.3880 -0.3512  0.3706
 3437TIP3    H110275   6.820   0.263   0.390  0.1477 -1.4926 -0.4676
 3437TIP3    H210276   6.953   0.319   0.436 -0.8202  0.5111  0.0173
 3438TIP3   OH210277   6.815   0.061   4.451 -0.5524  0.1470  0.0700
 3438TIP3    H110278   6.754   0.134   4.451  1.1698  1.7180  2.1778
 3438TIP3    H210279   6.870   0.076   4.374  1.5510  2.8247  1.8979
 3439TIP3   OH210280   3.335   0.713   2.183 -0.0145 -0.6599 -0.1249
 3439TIP3    H110281   3.300   0.663   2.257 -0.5943  1.6114  1.2588
 3439TIP3    H210282   3.258   0.744   2.136  0.2974 -0.4751 -0.5243
 3440TIP3   OH210283   0.952   1.527   2.341 -0.4559 -0.0266  0.1482
 3440TIP3    H110284   0.866   1.516   2.383 -0.3465 -0.9427  0.1538
 3440TIP3    H210285   0.994   1.442   2.350  0.9929  0.7692  1.2936
 3441TIP3   OH210286   5.417   4.927   1.984  0.0987 -0.4584 -0.1903
 3441TIP3    H110287   5.323   4.928   1.970 -0.2552 -1.3101  1.7940
 3441TIP3    H210288   5.429   4.976   2.066  1.5541  0.9518 -1.1864
 3442TIP3   OH210289   5.619   6.399   1.261  0.7785  0.0377  0.0625
 3442TIP3    H110290   5.711   6.422   1.271  0.9297 -0.8935  1.0059
 3442TIP3    H210291   5.577   6.480   1.232  2.1326  0.0890 -1.9712
 3443TIP3   OH210292   0.514   3.677   4.353  0.2180 -0.3680 -0.2911
 3443TIP3    H110293   0.462   3.644   4.427  0.1623  1.0762  0.3538
 3443TIP3    H210294   0.602   3.640   4.368  0.0362 -0.6586  0.0980
 3444TIP3   OH210295   2.570   6.355   4.154  0.6596 -0.3332  0.0465
 3444TIP3    H110296   2.550   6.264   4.132 -0.5822  0.4579 -2.4021
 3444TIP3    H210297   2.492   6.404   4.130  1.4497  1.4516  0.9367
 3445TIP3   OH210298   0.963   4.389   1.128  0.6649  0.3260  0.3634
 3445TIP3    H110299   1.030   4.441   1.173  0.3076  0.5144  0.6841
 3445TIP3    H210300   1.005   4.304   1.112  0.8796  0.3350  0.8461
 3446TIP3   OH210301   6.488   1.095   1.873 -0.1321 -0.1908 -0.2311
 3446TIP3    H110302   6.504   1.179   1.916 -0.2674 -0.1947 -0.1725
 3446TIP3    H210303   6.561   1.085   1.812 -1.3864  1.1777 -2.0921
 3447TIP3   OH210304   2.218   0.751   0.126 -0.8257  0.1241 -0.1022
 3447TIP3    H110305   2.152   0.681   0.125 -0.0176 -0.6605 -1.3605
 3447TIP3    H210306   2.183   0.815   0.188 -1.0352 -1.9024  2.0362
 3448TIP3   OH210307   3.776   4.382   1.313 -0.7693  0.3460 -0.1701
 3448TIP3    H110308   3.816   4.349   1.393 -0.2823  1.1967 -0.0553
 3448TIP3    H210309   3.808   4.472   1.305 -1.2687  0.4600 -1.0123
 3449TIP3   OH210310   2.422   4.168   5.517  0.3935  0.3591 -0.2897
 3449TIP3    H110311   2.351   4.221   5.483  0.8116  0.8186 -0.4547
 3449TIP3    H210312   2.467   4.136   5.439  0.6603  0.4705 -0.1822
 3450TIP3   OH210313   4.368   0.914   2.724 -0.0141  0.8068 -0.1346
 3450TIP3    H110314   4.318   0.993   2.743  0.7568  1.2023  0.2914
 3450TIP3    H210315   4.460   0.941   2.732  0.2758  0.1129 -0.9601
 3451TIP3   OH210316   7.146   3.758   1.330  0.3161  0.0055  0.1040
 3451TIP3    H110317   7.161   3.679   1.279 -2.1125  0.0083 -0.7473
 3451TIP3    H210318   7.166   3.830   1.270  1.5815  0.0741  0.5721
 3452TIP3   OH210319   5.940   5.053   4.465 -0.0162 -0.4891  0.3021
 3452TIP3    H110320   5.909   5.120   4.526  0.1866 -0.1266  0.0149
 3452TIP3    H210321   6.017   5.015   4.506  1.8066  1.6590 -0.9055
 3453TIP3   OH210322   5.456   6.116   4.235 -0.0324 -0.1385 -0.3694
 3453TIP3    H110323   5.410   6.183   4.185  0.7532  0.6461 -0.0730
 3453TIP3    H210324   5.412   6.034   4.213 -0.5775  0.3845 -1.2638
 3454TIP3   OH210325   2.437   4.514   1.530 -0.5731 -0.0401 -0.4754
 3454TIP3    H110326   2.493   4.448   1.488  0.0083 -1.0346  1.7100
 3454TIP3    H210327   2.351   4.472   1.535 -0.4580 -0.2219 -0.0119
 3455TIP3   OH210328   5.203   0.898   0.798 -0.1313 -0.6386  0.4396
 3455TIP3    H110329   5.293   0.865   0.796  1.0921  2.4074 -0.4774
 3455TIP3    H210330   5.206   0.972   0.859 -2.4686 -1.4214  1.6309
 3456TIP3   OH210331   4.789   5.829   4.958  0.3852  0.4360  0.1910
 3456TIP3    H110332   4.816   5.738   4.945  1.3829  0.6568  0.6473
 3456TIP3    H210333   4.773   5.836   5.052  0.2064  0.7140  0.1440
 3457TIP3   OH210334   1.188   0.477   4.417  0.0747  0.4441 -0.2753
 3457TIP3    H110335   1.210   0.570   4.420  0.3728  0.4215 -1.3740
 3457TIP3    H210336   1.108   0.474   4.363  0.2979  0.0330 -0.5848
 3458TIP3   OH210337   1.214   4.186   3.501 -0.1269  0.1038 -0.0691
 3458TIP3    H110338   1.295   4.175   3.451 -0.0954  0.5082 -0.1156
 3458TIP3    H210339   1.228   4.135   3.581  0.6647  1.1237  0.4712
 3459TIP3   OH210340   6.033   1.681   4.869  0.2820 -0.0703 -0.1176
 3459TIP3    H110341   6.056   1.748   4.805 -1.0716 -0.3870 -0.9761
 3459TIP3    H210342   6.107   1.620   4.869 -0.0756 -0.5575 -2.0785
 3460TIP3   OH210343   2.012   3.966   2.777 -0.4946 -0.3962 -0.1150
 3460TIP3    H110344   2.015   3.987   2.871  1.6458 -0.2220 -0.1662
 3460TIP3    H210345   2.022   4.050   2.733 -1.0836 -0.5224 -0.4997
 3461TIP3   OH210346   2.423   6.776   0.518  0.1715  0.1124  0.1696
 3461TIP3    H110347   2.334   6.753   0.492  0.3835  1.4108 -1.8869
 3461TIP3    H210348   2.411   6.838   0.590 -0.6052  0.4670 -0.2474
 3462TIP3   OH210349   0.326   5.468   2.008 -0.3210  0.1965 -0.0655
 3462TIP3    H110350   0.371   5.406   2.066  1.6231  0.0896 -1.5976
 3462TIP3    H210351   0.237   5.433   2.002  0.1617 -1.2956  0.7245
 3463TIP3   OH210352   5.430   4.846   2.971 -0.3060 -0.5333 -0.2929
 3463TIP3    H110353   5.435   4.941   2.982  1.1548 -0.8759  3.0912
 3463TIP3    H210354   5.467   4.830   2.884  2.1511  1.8297  0.1907
 3464TIP3   OH210355   3.800   2.810   1.319 -0.2559 -0.2342  0.3087
 3464TIP3    H110356   3.888   2.780   1.295 -0.2784  0.5419 -0.8210
 3464TIP3    H210357   3.800   2.808   1.415  0.4998 -1.6186  0.3120
 3465TIP3   OH210358   3.302   2.671   0.157 -0.0029  0.3606  0.6377
 3465TIP3    H110359   3.307   2.732   0.083  2.0253  1.5589  1.6445
 3465TIP3    H210360   3.313   2.727   0.234 -2.9839 -0.7099  1.9781
 3466TIP3   OH210361   2.838   5.283   3.768 -0.5326  0.1857 -0.4651
 3466TIP3    H110362   2.753   5.293   3.726  0.0639  0.7564 -1.5870
 3466TIP3    H210363   2.820   5.295   3.861 -2.0314 -2.0270 -0.3965
 3467TIP3   OH210364   3.779   2.574   3.577  0.2633  0.3538 -0.4912
 3467TIP3    H110365   3.843   2.583   3.648 -0.6311 -2.5993  0.8866
 3467TIP3    H210366   3.694   2.575   3.621 -0.3731 -0.4925 -1.6197
 3468TIP3   OH210367   0.073   3.387   0.962 -0.2761 -0.2136 -0.1819
 3468TIP3    H110368   0.155   3.414   0.919 -0.7069  2.4767  0.5379
 3468TIP3    H210369   0.097   3.307   1.009  1.1296 -1.2115 -2.4074
 3469TIP3   OH210370   2.087   0.962   3.524 -0.3491 -0.4476 -0.3515
 3469TIP3    H110371   2.106   0.956   3.617  0.4117 -1.2771 -0.5483
 3469TIP3    H210372   2.000   1.002   3.520  0.1959  0.9237  0.6474
 3470TIP3   OH210373   2.751   3.961   0.487 -0.6008 -0.3368 -0.4038
 3470TIP3    H110374   2.821   3.957   0.422  2.3725  0.5732  2.4625
 3470TIP3    H210375   2.783   4.022   0.553 -4.1378  0.0682  1.1623
 3471TIP3   OH210376   1.144   1.745   4.392 -0.2089 -0.8318 -0.2730
 3471TIP3    H110377   1.211   1.719   4.329  0.7378 -0.8288  0.7181
 3471TIP3    H210378   1.116   1.663   4.433 -0.8929 -0.8455 -0.7510
 3472TIP3   OH210379   4.009   3.754   4.331 -0.0786 -0.0755 -0.3085
 3472TIP3    H110380   3.951   3.737   4.405 -0.3234 -0.3087 -0.5516
 3472TIP3    H210381   3.988   3.686   4.268 -0.6451  0.7796 -1.0594
 3473TIP3   OH210382   3.221   4.695   4.552  0.3549 -0.6681 -0.0178
 3473TIP3    H110383   3.173   4.612   4.553  2.5660 -2.0181  0.3495
 3473TIP3    H210384   3.174   4.750   4.490 -2.1664 -1.5407  0.9960
 3474TIP3   OH210385   1.606   4.026   4.579 -0.4747 -0.0443  0.6037
 3474TIP3    H110386   1.558   3.943   4.575  2.4354 -1.8632 -0.5601
 3474TIP3    H210387   1.543   4.089   4.612 -2.7996 -2.7633  1.8125
 3475TIP3   OH210388   3.925   0.767   2.452 -0.1060  0.4388 -0.6349
 3475TIP3    H110389   3.892   0.707   2.385 -1.9110 -0.2530  0.7839
 3475TIP3    H210390   3.879   0.850   2.434 -2.0579 -0.2539  0.7485
 3476TIP3   OH210391   3.818   5.841   2.471  0.2971 -0.0912  0.1635
 3476TIP3    H110392   3.782   5.843   2.560 -0.1551  0.1698 -0.0204
 3476TIP3    H210393   3.831   5.748   2.453 -2.8317 -0.4880 -0.7423
 3477TIP3   OH210394   6.689   1.743   4.425 -0.0352 -0.6518  0.3441
 3477TIP3    H110395   6.682   1.757   4.519  0.5047  0.4339  0.2517
 3477TIP3    H210396   6.767   1.793   4.400 -1.4839  1.0784 -1.0353
 3478TIP3   OH210397   6.990   0.419   2.531 -0.7387 -0.5458 -0.2451
 3478TIP3    H110398   6.937   0.388   2.459 -1.3305  0.4725 -0.2605
 3478TIP3    H210399   6.948   0.385   2.610 -0.9313 -0.4473 -0.3061
 3479TIP3   OH210400   3.910   3.041   4.488  0.3914  0.4183 -0.4477
 3479TIP3    H110401   3.937   3.063   4.577 -1.8202  1.9668 -0.0727
 3479TIP3    H210402   3.877   3.123   4.452 -0.8593 -0.6647 -1.8911
 3480TIP3   OH210403   2.305   1.265   0.388 -0.1240  0.6481  0.3702
 3480TIP3    H110404   2.314   1.294   0.479  0.2866 -1.4284  1.0386
 3480TIP3    H210405   2.269   1.176   0.394 -1.6941  1.0786 -1.5751
 3481TIP3   OH210406   6.789   2.864   2.024 -0.0542  0.0337  0.4128
 3481TIP3    H110407   6.702   2.899   2.008 -0.0626  0.2012  0.8261
 3481TIP3    H210408   6.844   2.941   2.041  0.3530 -0.0019 -0.6568
 3482TIP3   OH210409   5.874   2.970   2.424  0.3964 -0.1045  0.0119
 3482TIP3    H110410   5.785   2.938   2.414  0.0002  0.8510  0.3492
 3482TIP3    H210411   5.929   2.898   2.395 -0.5037 -0.3899 -1.0519
 3483TIP3   OH210412   0.101   4.065   2.634  0.3421  0.6556 -0.1333
 3483TIP3    H110413   0.152   4.091   2.557  1.4451  0.5474  0.5485
 3483TIP3    H210414   0.036   4.004   2.599  1.7187 -0.4929 -0.7900
 3484TIP3   OH210415   6.396   1.907   0.647  0.6312  0.4404 -0.4381
 3484TIP3    H110416   6.461   1.867   0.705 -0.9563  0.9096  1.7719
 3484TIP3    H210417   6.424   1.998   0.638  1.5240  0.0949 -1.4501
 3485TIP3   OH210418   4.117   4.363   2.081 -0.4218  0.1862  0.1166
 3485TIP3    H110419   4.028   4.372   2.114 -0.3307 -0.1660  0.4626
 3485TIP3    H210420   4.171   4.408   2.145  0.0425 -2.6077  1.8664
 3486TIP3   OH210421   5.430   2.163   3.461  0.4289  0.4017  0.3826
 3486TIP3    H110422   5.346   2.192   3.497  0.2796 -1.0685  1.2703
 3486TIP3    H210423   5.496   2.213   3.511  0.1684 -0.5510  1.7153
 3487TIP3   OH210424   5.005   1.613   4.496 -0.1214 -0.5803  0.6465
 3487TIP3    H110425   5.008   1.684   4.432 -0.5896  1.1623  2.4307
 3487TIP3    H210426   5.094   1.578   4.498 -0.0408 -0.5120 -0.7364
 3488TIP3   OH210427   2.298   3.314   3.358  0.2182 -0.3007 -0.1546
 3488TIP3    H110428   2.322   3.407   3.362  1.2323 -0.4659 -1.5759
 3488TIP3    H210429   2.379   3.270   3.334  0.0973 -1.7492  1.8548
 3489TIP3   OH210430   2.009   3.497   1.923  0.0695  0.5465  0.2299
 3489TIP3    H110431   2.054   3.560   1.979  0.9492  0.4072 -0.3041
 3489TIP3    H210432   1.925   3.538   1.903  0.3021  1.1809  0.5495
 3490TIP3   OH210433   5.599   0.712   1.500  0.1327 -0.1582 -0.9100
 3490TIP3    H110434   5.516   0.686   1.460  0.1659 -2.0799  0.1952
 3490TIP3    H210435   5.574   0.766   1.575 -0.0554  0.2957 -1.2932
 3491TIP3   OH210436   3.348   2.656   4.754  0.3704  0.0567  0.6222
 3491TIP3    H110437   3.397   2.724   4.801  0.9122  0.0596  0.0604
 3491TIP3    H210438   3.256   2.682   4.764  0.5327  0.5272  0.9429
 3492TIP3   OH210439   3.476   5.153   1.356 -0.0236  0.5637 -0.3253
 3492TIP3    H110440   3.515   5.146   1.444 -2.1028 -1.5461  0.5322
 3492TIP3    H210441   3.542   5.115   1.298 -0.3825 -2.4212  1.0128
 3493TIP3   OH210442   5.272   4.681   0.841 -0.0849  0.1194 -0.1057
 3493TIP3    H110443   5.310   4.634   0.767  2.5188  0.4155  0.9328
 3493TIP3    H210444   5.308   4.637   0.918 -1.3129  0.9239  0.9752
 3494TIP3   OH210445   4.978   5.721   0.169 -0.2749 -0.0128  0.2897
 3494TIP3    H110446   4.965   5.716   0.075  1.3224 -0.3721  0.0501
 3494TIP3    H210447   4.902   5.676   0.206 -0.6445 -0.3668 -0.8544
 3495TIP3   OH210448   1.560   0.687   3.991  0.5548  0.1605  0.1611
 3495TIP3    H110449   1.488   0.647   3.942 -0.2288 -0.4412  1.7609
 3495TIP3    H210450   1.522   0.765   4.032  1.7114  1.8409 -1.7503
 3496TIP3   OH210451   2.365   1.080   0.668  0.4006  0.1534  0.1316
 3496TIP3    H110452   2.380   1.027   0.746 -0.8918 -0.7381 -0.1821
 3496TIP3    H210453   2.440   1.062   0.611  1.0283  0.3194  0.8921
 3497TIP3   OH210454   2.083   1.216   2.988 -0.0351 -0.2788 -0.2866
 3497TIP3    H110455   2.021   1.271   2.940 -0.2856 -0.9851 -0.7809
 3497TIP3    H210456   2.047   1.212   3.077 -0.2795 -0.0664 -0.3741
 3498TIP3   OH210457   3.677   5.758   0.970 -0.4631 -0.2002 -0.4302
 3498TIP3    H110458   3.702   5.747   1.061  0.0968 -0.0509 -0.5644
 3498TIP3    H210459   3.616   5.686   0.952 -0.2717 -0.4560 -0.0524
 3499TIP3   OH210460   2.864   6.580   2.850 -0.1880  0.0977 -0.0448
 3499TIP3    H110461   2.858   6.659   2.903  2.5327 -0.1564  0.8158
 3499TIP3    H210462   2.826   6.511   2.905  0.5841  0.2287  0.6742
 3500TIP3   OH210463   0.974   0.031   1.361  0.5983 -0.3252  0.3844
 3500TIP3    H110464   0.982   0.115   1.316 -1.0328  1.0388  2.4252
 3500TIP3    H210465   0.880   0.013   1.361  0.9374 -2.3626 -0.2789
 3501TIP3   OH210466   3.042   0.350   2.658  0.2804 -0.4736 -0.5005
 3501TIP3    H110467   2.952   0.350   2.692  0.8320 -1.6327  1.1082
 3501TIP3    H210468   3.079   0.433   2.689  0.1593 -0.5996 -0.0044
 3502TIP3   OH210469   1.273   2.512   1.875 -0.2469  0.1716 -0.0496
 3502TIP3    H110470   1.236   2.583   1.823  0.1912  0.1646 -0.3780
 3502TIP3    H210471   1.334   2.467   1.816  1.4249  1.0999  0.8803
 3503TIP3   OH210472   2.376   3.583   1.814  0.1249 -0.0589  0.0425
 3503TIP3    H110473   2.457   3.577   1.863 -0.3424 -1.1202  0.7211
 3503TIP3    H210474   2.373   3.673   1.782  0.3438  0.7339  2.1443
 3504TIP3   OH210475   1.868   3.728   0.411  0.2392 -0.2582 -0.1960
 3504TIP3    H110476   1.835   3.704   0.325 -0.3078  0.8385 -0.3143
 3504TIP3    H210477   1.962   3.713   0.407  0.1169 -0.8636 -0.7573
 3505TIP3   OH210478   3.128   2.504   4.952 -0.1705 -0.4425 -0.7083
 3505TIP3    H110479   3.095   2.525   4.865 -1.3721 -0.8426 -0.3639
 3505TIP3    H210480   3.069   2.437   4.985 -0.5626  0.6718  0.9681
 3506TIP3   OH210481   5.500   0.430   1.425  0.0528  0.1378  0.1606
 3506TIP3    H110482   5.460   0.510   1.392 -1.5350 -0.6330  0.1318
 3506TIP3    H210483   5.458   0.415   1.510  1.5367  0.1980  0.9492
 3507TIP3   OH210484   4.832   4.609   0.971 -0.2792  0.5109 -0.3229
 3507TIP3    H110485   4.764   4.543   0.958  0.9716 -0.8617 -0.1167
 3507TIP3    H210486   4.876   4.615   0.887  1.2594 -0.8707  0.3259
 3508TIP3   OH210487   4.965   4.676   0.734  0.4091  0.1661 -0.1367
 3508TIP3    H110488   5.051   4.693   0.772  0.3402 -0.1146  0.1447
 3508TIP3    H210489   4.975   4.702   0.642  0.6756  0.5132 -0.0155
 3509TIP3   OH210490   5.923   4.758   5.331 -0.8746 -0.0605  0.2696
 3509TIP3    H110491   5.934   4.758   5.427 -0.0845  0.2489  0.1876
 3509TIP3    H210492   5.951   4.845   5.304  0.2063 -0.5865 -0.3781
 3510TIP3   OH210493   3.868   6.093   5.427  0.1777 -0.5623  0.0477
 3510TIP3    H110494   3.950   6.049   5.446  0.2958  0.1597  1.3797
 3510TIP3    H210495   3.846   6.138   5.509  0.8704  3.1132 -1.5907
 3511TIP3   OH210496   1.165   2.579   0.595  0.2176 -0.0538  0.5374
 3511TIP3    H110497   1.122   2.496   0.614 -0.3605  0.3339  0.9488
 3511TIP3    H210498   1.094   2.643   0.592  0.6020  0.3426 -0.2848
 3512TIP3   OH210499   7.206   3.930   1.017  0.2611 -0.0989 -0.0800
 3512TIP3    H110500   7.124   3.961   1.055  0.7041 -0.1481  0.9514
 3512TIP3    H210501   7.258   4.010   1.005  0.2577 -0.1238 -0.2662
 3513TIP3   OH210502   6.474   3.463   4.874  0.2595  0.4357  0.0713
 3513TIP3    H110503   6.483   3.527   4.803 -0.3856 -0.5575 -0.9320
 3513TIP3    H210504   6.559   3.466   4.918  1.1789  0.1159 -1.5832
 3514TIP3   OH210505   5.882   0.290   4.741  0.0487 -0.1997 -0.0064
 3514TIP3    H110506   5.823   0.301   4.815  0.3571  0.5380  0.1369
 3514TIP3    H210507   5.957   0.243   4.777  0.5739  0.8929  0.3554
 3515TIP3   OH210508   6.710   1.293   4.011 -0.4565 -0.9450  0.1664
 3515TIP3    H110509   6.728   1.224   4.075  0.6137  0.6264  1.6471
 3515TIP3    H210510   6.627   1.330   4.038  1.0572  1.2581  2.2193
 3516TIP3   OH210511   6.923   6.110   2.017 -0.0463  0.5042  0.2385
 3516TIP3    H110512   6.928   6.065   2.101 -1.2363  2.2219  1.3022
 3516TIP3    H210513   6.874   6.051   1.960 -0.4302 -0.1083  1.1756
 3517TIP3   OH210514   0.282   5.314   4.699 -0.0164 -0.2329 -0.2374
 3517TIP3    H110515   0.253   5.253   4.767 -0.3634 -0.8671 -0.9473
 3517TIP3    H210516   0.372   5.289   4.681 -0.0905 -0.3903 -0.3806
 3518TIP3   OH210517   2.857   1.748   1.954 -0.3271  0.0603  0.6655
 3518TIP3    H110518   2.859   1.768   1.861 -0.2159 -1.0234  0.4258
 3518TIP3    H210519   2.912   1.815   1.994  1.4625 -0.7728 -0.3052
 3519TIP3   OH210520   6.552   3.173   4.812  0.6185 -0.0959  0.2105
 3519TIP3    H110521   6.612   3.243   4.784  1.2531 -0.5231  0.4807
 3519TIP3    H210522   6.564   3.167   4.906  2.1794 -1.9855 -0.0359
 3520TIP3   OH210523   4.165   3.265   3.806  0.0576 -0.2077 -0.0741
 3520TIP3    H110524   4.092   3.324   3.790 -0.4342 -0.8671 -0.3248
 3520TIP3    H210525   4.213   3.305   3.879  0.9374  1.5764 -1.5487
 3521TIP3   OH210526   2.041   5.492   5.685 -0.4865  0.1817 -0.7141
 3521TIP3    H110527   1.973   5.477   5.751 -1.5172  2.3149 -1.1855
 3521TIP3    H210528   2.011   5.571   5.638  1.9592  0.7441 -1.4443
 3522TIP3   OH210529   4.493   5.272   4.590 -0.1527  0.1385  0.3445
 3522TIP3    H110530   4.453   5.324   4.659 -0.6900 -2.3763  2.0828
 3522TIP3    H210531   4.419   5.246   4.535 -0.2801 -0.7591  0.9170
 3523TIP3   OH210532   3.059   5.407   5.121  0.3315 -0.0310 -0.2791
 3523TIP3    H110533   3.074   5.501   5.119 -1.4390  0.3852  1.9716
 3523TIP3    H210534   3.088   5.380   5.209 -0.9055 -1.2103 -0.2013
 3524TIP3   OH210535   6.095   2.403   4.802  0.7195 -0.3948 -0.3428
 3524TIP3    H110536   6.146   2.329   4.771  0.6433 -1.3360  1.5978
 3524TIP3    H210537   6.159   2.465   4.836  0.6935 -1.1599  1.2209
 3525TIP3   OH210538   4.957   2.956   2.183  0.4046 -0.5971 -0.8829
 3525TIP3    H110539   5.017   3.025   2.209 -2.2998  1.3267  0.8023
 3525TIP3    H210540   4.986   2.879   2.232  2.6023 -0.3335 -1.6671
 3526TIP3   OH210541   1.138   4.245   0.693 -0.0239 -0.1931 -0.1841
 3526TIP3    H110542   1.117   4.331   0.658 -1.4650 -1.0957 -1.7279
 3526TIP3    H210543   1.175   4.262   0.779 -2.0004  1.8936  0.3505
 3527TIP3   OH210544   0.726   2.213   5.134  0.6319 -0.8243 -0.4230
 3527TIP3    H110545   0.734   2.171   5.048  1.2440 -1.6130  0.0109
 3527TIP3    H210546   0.681   2.148   5.188  1.0810 -0.6949  0.1100
 3528TIP3   OH210547   0.431   6.272   2.069  0.2366  0.1007  0.5614
 3528TIP3    H110548   0.391   6.212   2.132  1.7567 -2.5357 -0.7564
 3528TIP3    H210549   0.524   6.273   2.092  0.3503  1.4325  0.1163
 3529TIP3   OH210550   4.518   3.314   4.203 -0.0360 -0.3508 -0.4414
 3529TIP3    H110551   4.429   3.292   4.232 -0.0635 -0.3033 -0.4899
 3529TIP3    H210552   4.542   3.390   4.255  1.2491 -2.2944  2.0384
 3530TIP3   OH210553   2.645   3.640   3.779 -0.2562 -0.4653 -0.0046
 3530TIP3    H110554   2.676   3.654   3.690 -0.3644  0.9471  0.1588
 3530TIP3    H210555   2.724   3.616   3.828 -0.2599 -1.6247 -0.5365
 3531TIP3   OH210556   4.768   4.425   0.507  0.0510  0.2286 -0.7818
 3531TIP3    H110557   4.711   4.348   0.513  0.2618  0.0582 -0.9075
 3531TIP3    H210558   4.710   4.499   0.521  0.0509  0.0010  0.5714
 3532TIP3   OH210559   5.283   3.162   1.510 -1.1033  0.6667 -0.1178
 3532TIP3    H110560   5.258   3.147   1.420 -0.6564 -0.7655 -0.0203
 3532TIP3    H210561   5.270   3.256   1.523  0.7005  1.3033 -2.2629
 3533TIP3   OH210562   3.184   2.216   1.439 -0.2330 -0.0445  0.0535
 3533TIP3    H110563   3.185   2.137   1.493  2.2823 -0.1574 -0.0333
 3533TIP3    H210564   3.135   2.191   1.361 -2.8642 -0.2508  1.6331
 3534TIP3   OH210565   6.774   3.650   0.720 -0.1497 -0.1100 -0.5024
 3534TIP3    H110566   6.802   3.710   0.652  0.5796  0.4209  0.2495
 3534TIP3    H210567   6.841   3.582   0.722  0.3349  0.3719  0.2966
 3535TIP3   OH210568   1.018   0.276   0.058 -0.4634 -0.2761 -0.6535
 3535TIP3    H110569   1.031   0.288  -0.036  0.0195  1.5259 -0.4061
 3535TIP3    H210570   0.937   0.322   0.078 -0.2089 -0.0521 -0.0904
 3536TIP3   OH210571   3.899   6.736   0.434 -0.2400  0.2729 -0.2622
 3536TIP3    H110572   3.882   6.644   0.456 -0.0091  0.0144 -1.0885
 3536TIP3    H210573   3.887   6.783   0.516 -0.8337 -0.4344  0.0745
 3537TIP3   OH210574   4.865   1.378   0.700 -0.1407  0.2397 -0.2253
 3537TIP3    H110575   4.948   1.375   0.653  0.0249  1.9059 -0.0738
 3537TIP3    H210576   4.809   1.436   0.648 -1.1361 -0.6497 -0.1870
 3538TIP3   OH210577   6.785   1.163   0.748 -0.2268 -0.7207 -0.0809
 3538TIP3    H110578   6.872   1.175   0.710  0.2735 -1.8558  0.6662
 3538TIP3    H210579   6.796   1.093   0.812 -1.3884  0.0911  1.0448
 3539TIP3   OH210580   1.521   6.202   4.409  0.0089  0.0612 -0.4622
 3539TIP3    H110581   1.546   6.112   4.431 -1.5709 -0.3135 -0.1327
 3539TIP3    H210582   1.471   6.194   4.329  1.1939  0.8574 -1.3173
 3540TIP3   OH210583   2.818   3.695   4.292  0.4961  0.6971  0.4907
 3540TIP3    H110584   2.768   3.613   4.299  0.8146  0.5130  0.6203
 3540TIP3    H210585   2.877   3.681   4.218  1.1756  0.4710  1.0665
 3541TIP3   OH210586   2.440   0.696   1.639  0.0658 -0.0628  0.3098
 3541TIP3    H110587   2.354   0.656   1.653 -1.1636  1.9424 -1.1129
 3541TIP3    H210588   2.432   0.784   1.676  1.1521  0.5243 -0.8028
 3542TIP3   OH210589   2.527   1.987   3.677  0.1179 -0.0160  0.4170
 3542TIP3    H110590   2.496   1.910   3.726 -1.0189  0.5278  0.5973
 3542TIP3    H210591   2.570   1.950   3.600 -1.2731 -0.8481 -0.0112
 3543TIP3   OH210592   5.000   4.395   4.236  0.6556  0.1168 -0.3895
 3543TIP3    H110593   5.002   4.301   4.216  0.6424  0.3496 -1.5354
 3543TIP3    H210594   4.919   4.407   4.286  1.0385 -0.5971  0.4289
 3544TIP3   OH210595   6.185   6.517   3.286 -0.3027  0.0927  0.1321
 3544TIP3    H110596   6.213   6.603   3.317  1.3281 -0.8739  1.5690
 3544TIP3    H210597   6.136   6.480   3.359 -0.2307 -0.5176 -0.1232
 3545TIP3   OH210598   2.464   3.011   3.603  0.2764  0.5853  0.0813
 3545TIP3    H110599   2.515   3.054   3.534  1.0471  0.6923  0.6993
 3545TIP3    H210600   2.434   2.929   3.563  0.9293  0.5257 -0.3041
 3546TIP3   OH210601   6.024   0.518   5.367  0.0133  0.5867  0.2181
 3546TIP3    H110602   5.975   0.459   5.424 -1.3008  1.9691  0.5846
 3546TIP3    H210603   6.052   0.589   5.425  2.0781  0.0766 -0.0903
 3547TIP3   OH210604   4.652   5.464   2.520 -0.0561  1.1752  0.0360
 3547TIP3    H110605   4.648   5.440   2.613  1.2444 -1.5318 -0.4934
 3547TIP3    H210606   4.566   5.499   2.500 -0.4598  1.5493  2.1952
 3548TIP3   OH210607   7.138   6.715   4.261  0.0924 -0.0668  0.1927
 3548TIP3    H110608   7.229   6.744   4.246  0.0085  0.2327  0.2626
 3548TIP3    H210609   7.121   6.736   4.352 -0.5538  1.2840 -0.2099
 3549TIP3   OH210610   3.122   0.864   3.925 -0.0795 -0.0419  0.1434
 3549TIP3    H110611   3.081   0.871   3.840  0.4196  0.6834 -0.0464
 3549TIP3    H210612   3.136   0.954   3.953 -0.1394 -0.2710  0.9435
 3550TIP3   OH210613   2.936   5.184   0.615 -0.1475 -0.4686  0.5638
 3550TIP3    H110614   2.867   5.156   0.674 -0.6077 -0.8441 -0.1312
 3550TIP3    H210615   2.891   5.200   0.532  0.8593 -2.5893 -0.4565
 3551TIP3   OH210616   0.474   5.914   0.706 -0.3977  0.2834 -0.0856
 3551TIP3    H110617   0.507   5.958   0.628 -0.0132  1.6848  0.8198
 3551TIP3    H210618   0.433   5.834   0.674  0.8378  0.2182 -1.5925
 3552TIP3   OH210619   0.063   4.738   3.513  0.9359 -0.5742 -0.5952
 3552TIP3    H110620   0.087   4.701   3.428  1.7631  0.6990 -0.9320
 3552TIP3    H210621   0.048   4.662   3.569  0.3168 -1.4354 -1.8843
 3553TIP3   OH210622   6.084   3.158   1.796  0.0258  0.3396 -0.4784
 3553TIP3    H110623   6.045   3.237   1.834  0.7431  0.2541  0.4798
 3553TIP3    H210624   6.029   3.138   1.720 -0.3627  1.5634 -0.5364
 3554TIP3   OH210625   1.047   3.545   2.781 -0.2326  0.2628  0.2327
 3554TIP3    H110626   0.996   3.623   2.804 -0.7052 -0.0072  0.1259
 3554TIP3    H210627   1.072   3.558   2.690  2.1788  1.6241  1.0213
 3555TIP3   OH210628   0.358   2.533   1.018  0.8534 -0.6194  0.5802
 3555TIP3    H110629   0.365   2.437   1.017  0.5213 -0.6738  1.7499
 3555TIP3    H210630   0.350   2.555   1.110 -0.8063  0.4063  0.2362
 3556TIP3   OH210631   5.103   1.725   3.793  0.2455 -0.2152  0.0701
 3556TIP3    H110632   5.034   1.783   3.827 -0.9869 -1.2406 -0.6098
 3556TIP3    H210633   5.174   1.784   3.770 -0.2581  0.8459  1.1080
 3557TIP3   OH210634   6.355   2.797   1.865 -0.5094  0.4609 -0.0471
 3557TIP3    H110635   6.289   2.853   1.907 -0.1834  0.8051  0.0121
 3557TIP3    H210636   6.311   2.763   1.787 -0.6068  1.0649 -0.2597
 3558TIP3   OH210637   5.636   1.976   5.116  0.0378  0.1875  0.5942
 3558TIP3    H110638   5.684   1.986   5.034 -2.0836 -1.2764 -0.9126
 3558TIP3    H210639   5.544   1.979   5.091 -0.7082 -2.0902  2.6251
 3559TIP3   OH210640   1.891   2.466   0.862  0.3318  0.1484  0.1494
 3559TIP3    H110641   1.867   2.476   0.955 -0.6049  0.7882 -0.1417
 3559TIP3    H210642   1.875   2.374   0.843  0.9060 -0.0799  0.7189
 3560TIP3   OH210643   0.492   2.613   4.963 -0.2419 -0.3635 -0.2430
 3560TIP3    H110644   0.418   2.598   5.021  0.4155 -0.9903  0.4694
 3560TIP3    H210645   0.481   2.549   4.892 -0.3252 -0.5419 -0.0706
 3561TIP3   OH210646   3.158   4.935   2.931 -0.2037  0.4008 -0.2825
 3561TIP3    H110647   3.201   4.984   3.001 -0.1355 -0.2048  0.1062
 3561TIP3    H210648   3.133   5.002   2.868  2.1623  0.6893 -1.0115
 3562TIP3   OH210649   5.695   6.188   2.717  0.1150  0.8188 -0.3427
 3562TIP3    H110650   5.685   6.267   2.771  1.5976  0.7700  0.0408
 3562TIP3    H210651   5.703   6.117   2.781 -0.7349  0.3996 -0.6841
 3563TIP3   OH210652   5.724   5.875   1.298  0.2728 -0.1418  0.0408
 3563TIP3    H110653   5.715   5.969   1.281  0.4501 -0.3613 -1.3557
 3563TIP3    H210654   5.724   5.868   1.393 -0.2251  1.2273  0.1609
 3564TIP3   OH210655   1.747   0.183   5.356  0.2039  0.1226  0.1196
 3564TIP3    H110656   1.767   0.172   5.263  0.7886  0.7707  0.1636
 3564TIP3    H210657   1.655   0.156   5.363  0.5442 -1.2634 -0.3845
 3565TIP3   OH210658   3.524   3.094   0.242  0.4806  0.1262 -0.7558
 3565TIP3    H110659   3.582   3.148   0.296 -0.2613 -1.0018  1.2552
 3565TIP3    H210660   3.449   3.151   0.222  0.9681  0.6908 -1.0061
 3566TIP3   OH210661   3.562   4.229   2.231 -0.1821  0.1229 -0.3950
 3566TIP3    H110662   3.611   4.255   2.308  1.2386 -2.2128 -0.4244
 3566TIP3    H210663   3.618   4.255   2.157  0.9209 -2.0860 -0.4377
 3567TIP3   OH210664   5.165   3.018   2.962 -0.1796 -0.0945 -0.0251
 3567TIP3    H110665   5.085   3.063   2.934 -1.1220 -0.9306  1.1931
 3567TIP3    H210666   5.234   3.083   2.954 -1.3454  1.3011  0.8627
 3568TIP3   OH210667   6.105   1.197   3.624  0.3203  0.1091 -0.2281
 3568TIP3    H110668   6.015   1.168   3.640  0.6070 -0.4498  0.4196
 3568TIP3    H210669   6.095   1.283   3.584 -0.5085 -0.0001 -0.2781
 3569TIP3   OH210670   5.422   6.258   5.694 -0.2355 -0.1960 -0.0837
 3569TIP3    H110671   5.384   6.345   5.705  0.2205 -0.1034  0.7932
 3569TIP3    H210672   5.496   6.272   5.635  1.7187  0.5896  2.3887
 3570TIP3   OH210673   3.453   2.839   4.956  0.1218  1.1759  0.3448
 3570TIP3    H110674   3.421   2.813   5.043  0.7966  2.6248  1.0644
 3570TIP3    H210675   3.428   2.931   4.948 -3.2707  0.2463 -2.6194
 3571TIP3   OH210676   0.190   0.435   2.098 -0.2881  0.1683 -0.4792
 3571TIP3    H110677   0.145   0.513   2.063 -0.1241  0.6779  0.4147
 3571TIP3    H210678   0.210   0.458   2.189  1.0011 -0.3879 -0.6002
 3572TIP3   OH210679   4.273   5.897   1.189 -0.0275 -0.0651 -0.0731
 3572TIP3    H110680   4.308   5.976   1.231 -1.3321  0.0906  0.7622
 3572TIP3    H210681   4.296   5.908   1.097 -0.1191  1.2673  0.0340
 3573TIP3   OH210682   1.455   6.040   1.542  0.8846 -0.2735  0.0885
 3573TIP3    H110683   1.527   6.079   1.492  1.0460 -0.2474  0.3382
 3573TIP3    H210684   1.386   6.027   1.478  1.0803 -0.2160 -0.1370
 3574TIP3   OH210685   3.936   3.548   5.017 -0.6481  0.1971  0.4630
 3574TIP3    H110686   3.880   3.515   4.946 -1.4762  0.4420  0.9877
 3574TIP3    H210687   3.996   3.609   4.974  0.8327 -1.8021 -0.5253
 3575TIP3   OH210688   4.877   2.061   0.367  0.8232 -0.1535  0.0760
 3575TIP3    H110689   4.939   2.111   0.419  0.5599  2.4851 -1.9367
 3575TIP3    H210690   4.796   2.064   0.416  0.7373  1.7618 -0.1205
 3576TIP3   OH210691   4.703   4.754   2.458  0.2707  0.1889 -0.3285
 3576TIP3    H110692   4.611   4.760   2.435  0.6171  1.1737 -1.5828
 3576TIP3    H210693   4.748   4.735   2.376  1.0495 -2.2771  0.5619
 3577TIP3   OH210694   6.621   5.655   3.239 -0.1709 -0.4406 -0.0316
 3577TIP3    H110695   6.611   5.745   3.269 -1.0967 -0.7665  0.6694
 3577TIP3    H210696   6.677   5.662   3.161 -0.3471  0.7465 -0.0664
 3578TIP3   OH210697   5.603   5.939   1.595 -0.0318  0.1695 -0.1876
 3578TIP3    H110698   5.662   6.013   1.578 -1.9203  1.9440  0.4779
 3578TIP3    H210699   5.620   5.916   1.687  1.5551 -1.2219 -0.7964
 3579TIP3   OH210700   4.434   1.312   2.649 -0.0628 -0.0140 -0.6537
 3579TIP3    H110701   4.472   1.395   2.621  2.6065  0.5375  3.6744
 3579TIP3    H210702   4.509   1.252   2.655 -1.2780 -1.5158  0.1293
 3580TIP3   OH210703   4.208   2.416   0.942  0.1825 -0.1056  0.2269
 3580TIP3    H110704   4.234   2.447   0.855 -0.3038  1.4075  0.5804
 3580TIP3    H210705   4.184   2.496   0.989 -1.3928 -1.0630  1.1314
 3581TIP3   OH210706   6.633   1.185   0.504  0.0708 -0.1389 -0.4587
 3581TIP3    H110707   6.558   1.127   0.517  0.7556 -1.0954 -0.6250
 3581TIP3    H210708   6.669   1.198   0.592  2.4274 -3.4910 -0.7292
 3582TIP3   OH210709   3.136   5.129   2.727 -0.5118  0.5087  0.6757
 3582TIP3    H110710   3.071   5.190   2.691  1.0969  1.6202 -0.4536
 3582TIP3    H210711   3.220   5.164   2.699  0.5963 -0.9562  2.0226
 3583TIP3   OH210712   1.422   5.844   3.600 -0.1255  0.0668 -0.7220
 3583TIP3    H110713   1.435   5.750   3.584  1.0890  0.1175 -0.0989
 3583TIP3    H210714   1.455   5.886   3.520  0.7427  0.0261 -0.3993
 3584TIP3   OH210715   1.277   5.608   0.733 -0.7411  0.2702  0.0354
 3584TIP3    H110716   1.341   5.580   0.668  2.6088  2.7376  1.9785
 3584TIP3    H210717   1.213   5.660   0.683  0.3744  0.1479 -1.5895
 3585TIP3   OH210718   6.182   1.525   1.469  0.2268  0.4691 -0.1099
 3585TIP3    H110719   6.108   1.467   1.450  1.6498 -1.6862  0.5037
 3585TIP3    H210720   6.198   1.512   1.563  0.7468  1.6985 -0.0213
 3586TIP3   OH210721   1.598   5.649   5.714  0.1262 -0.0696 -0.6099
 3586TIP3    H110722   1.593   5.594   5.792 -2.2912  1.2529  0.2735
 3586TIP3    H210723   1.569   5.592   5.642  1.2358 -0.9624 -0.3719
 3587TIP3   OH210724   1.392   4.709   5.161  0.1968 -0.4136  0.1892
 3587TIP3    H110725   1.423   4.766   5.232 -0.8331  0.2290  0.1491
 3587TIP3    H210726   1.297   4.723   5.159  0.3841  1.2748 -2.7294
 3588TIP3   OH210727   0.711   6.308   2.858 -0.3343  0.6931 -0.1213
 3588TIP3    H110728   0.781   6.321   2.794 -0.2971  2.3868  0.2075
 3588TIP3    H210729   0.648   6.250   2.814  1.2898 -0.9808 -0.3654
 3589TIP3   OH210730   1.251   3.788   0.825 -0.2533 -0.1726  0.2249
 3589TIP3    H110731   1.258   3.816   0.734 -0.4055  1.2366  0.6363
 3589TIP3    H210732   1.244   3.869   0.875  0.0688 -0.9200  1.5196
 3590TIP3   OH210733   5.157   5.766   4.923 -0.5663  0.5439  0.0737
 3590TIP3    H110734   5.235   5.727   4.885  0.8631  1.9146  1.4377
 3590TIP3    H210735   5.107   5.692   4.958  1.6485 -0.1835  1.8944
 3591TIP3   OH210736   1.119   6.810   2.998  0.0826 -0.7071  0.1034
 3591TIP3    H110737   1.093   6.719   3.013  0.8279 -0.9626 -0.1449
 3591TIP3    H210738   1.166   6.835   3.077  1.5488 -1.1587 -0.5961
 3592TIP3   OH210739   5.917   1.712   5.480  0.0832  0.3242 -0.3201
 3592TIP3    H110740   5.948   1.797   5.510 -0.1535  0.2051  0.2599
 3592TIP3    H210741   5.834   1.730   5.436  0.5249  0.5239 -1.0887
 3593TIP3   OH210742   6.991   1.690   5.754 -0.7430  0.1655  0.2562
 3593TIP3    H110743   7.005   1.595   5.753  1.3831  0.4272 -1.1439
 3593TIP3    H210744   6.934   1.706   5.679 -1.4087 -0.0136  0.7115
 3594TIP3   OH210745   7.142   4.079   4.369 -0.4710  0.0769  0.3339
 3594TIP3    H110746   7.094   4.103   4.448  0.3689  0.9807  0.5946
 3594TIP3    H210747   7.232   4.066   4.400 -0.1775  0.2434 -0.4489
 3595TIP3   OH210748   0.058   0.562   3.453  0.0995 -0.1563 -0.2059
 3595TIP3    H110749   0.037   0.496   3.387  0.3317  0.4497 -0.9004
 3595TIP3    H210750   0.153   0.562   3.457  0.1139 -1.9800  1.9993
 3596TIP3   OH210751   3.670   1.077   0.306 -0.0249 -0.5003 -0.2446
 3596TIP3    H110752   3.640   1.088   0.216  1.4101 -1.0993 -0.8249
 3596TIP3    H210753   3.750   1.026   0.298 -0.5735 -1.6977  1.4916
 3597TIP3   OH210754   5.995   1.301   1.133 -0.1065 -0.0626 -0.6187
 3597TIP3    H110755   6.084   1.286   1.103  0.0630 -0.9484  0.2778
 3597TIP3    H210756   5.940   1.246   1.077 -0.0019 -0.2001 -0.5844
 3598TIP3   OH210757   4.356   4.261   3.932 -0.6810 -0.4191  0.1313
 3598TIP3    H110758   4.335   4.168   3.940 -0.2099 -0.4436  1.2274
 3598TIP3    H210759   4.413   4.279   4.006  1.4523  0.1375 -1.5704
 3599TIP3   OH210760   2.526   0.908   3.524 -0.0277  0.0874  0.3452
 3599TIP3    H110761   2.461   0.870   3.464 -2.0543 -0.1434  2.5299
 3599TIP3    H210762   2.535   0.999   3.495  2.1588 -0.9303 -2.7249
 3600TIP3   OH210763   1.108   5.586   2.530  0.1411 -0.2740  0.1708
 3600TIP3    H110764   1.075   5.676   2.526 -0.8339 -0.6372 -0.2165
 3600TIP3    H210765   1.186   5.592   2.586  1.2597  1.1439 -1.4049
 3601TIP3   OH210766   6.686   1.279   1.680  0.2807 -0.1049 -0.5386
 3601TIP3    H110767   6.680   1.289   1.775 -0.7321  0.7965 -0.6722
 3601TIP3    H210768   6.677   1.368   1.646 -0.0390 -0.4897 -1.5003
 3602TIP3   OH210769   5.404   6.635   1.386 -0.4254  0.9753 -0.1471
 3602TIP3    H110770   5.458   6.683   1.323  1.8718 -0.6239  0.4746
 3602TIP3    H210771   5.428   6.671   1.471  2.0620 -1.7211  0.4317
 3603TIP3   OH210772   5.845   1.955   0.247  0.0222  0.0469 -0.7237
 3603TIP3    H110773   5.805   2.034   0.284 -0.7302 -0.2589 -0.8736
 3603TIP3    H210774   5.858   1.897   0.322 -0.2095 -0.0249 -0.7407
 3604TIP3   OH210775   1.872   5.563   4.334 -0.1081 -0.3321  0.1337
 3604TIP3    H110776   1.956   5.522   4.355  0.4143  1.3085  1.4254
 3604TIP3    H210777   1.808   5.512   4.384  0.2732 -0.8076  0.1479
 3605TIP3   OH210778   2.586   4.462   5.494  0.3493  0.4039  0.8286
 3605TIP3    H110779   2.638   4.387   5.463  0.1822 -0.0187  1.5613
 3605TIP3    H210780   2.576   4.517   5.416 -0.8073 -1.0574 -0.1291
 3606TIP3   OH210781   6.609   3.302   0.714  0.2393 -0.2179  0.2012
 3606TIP3    H110782   6.602   3.317   0.619  0.4432 -1.7882 -0.0932
 3606TIP3    H210783   6.701   3.279   0.728  0.5142  1.2577  1.0096
 3607TIP3   OH210784   6.129   2.252   0.450 -0.0807  0.3977 -0.9043
 3607TIP3    H110785   6.175   2.335   0.438  1.2135 -0.5589 -3.0960
 3607TIP3    H210786   6.072   2.245   0.373 -0.9809 -0.2684 -0.1996
 3608TIP3   OH210787   1.343   6.383   0.462  0.2391 -0.2429  0.7425
 3608TIP3    H110788   1.279   6.444   0.424 -0.9457  0.1561  3.2055
 3608TIP3    H210789   1.291   6.306   0.485  1.5131 -1.8077 -1.2142
 3609TIP3   OH210790   6.083   6.040   1.577 -0.0905 -0.0872 -0.2069
 3609TIP3    H110791   6.011   6.103   1.582  0.6956  1.0328 -1.8342
 3609TIP3    H210792   6.148   6.083   1.522  1.6338 -1.2654  0.8159
 3610TIP3   OH210793   0.887   6.402   2.661 -0.7347  0.2252  0.3991
 3610TIP3    H110794   0.947   6.440   2.596 -1.3315  0.0958 -0.2360
 3610TIP3    H210795   0.871   6.313   2.630  0.4942 -0.5191  1.7732
 3611TIP3   OH210796   7.181   0.815   1.152  0.4103 -0.1553  0.5074
 3611TIP3    H110797   7.246   0.754   1.118  1.1713  0.0433  1.5426
 3611TIP3    H210798   7.179   0.886   1.089  0.3077 -0.7409 -0.1529
 3612TIP3   OH210799   5.032   6.138   1.670  0.3608 -0.1061  0.1723
 3612TIP3    H110800   5.068   6.050   1.666 -0.5178 -0.5336  1.2930
 3612TIP3    H210801   5.042   6.171   1.580  0.1866 -1.5387 -0.4068
 3613TIP3   OH210802   5.603   2.406   2.168  0.2576 -0.7698  0.0432
 3613TIP3    H110803   5.665   2.350   2.122  1.5170 -0.8458  1.7397
 3613TIP3    H210804   5.520   2.359   2.164  0.4880 -1.1019 -1.4850
 3614TIP3   OH210805   6.409   2.782   5.336  0.5776 -0.1598 -0.1295
 3614TIP3    H110806   6.389   2.776   5.430 -1.0880  0.3654 -0.4143
 3614TIP3    H210807   6.389   2.873   5.313  2.0187  0.0178 -0.7997
 3615TIP3   OH210808   4.154   5.935   2.319 -0.1384 -0.4000 -0.1378
 3615TIP3    H110809   4.234   5.917   2.269  0.6341  2.8997 -0.3274
 3615TIP3    H210810   4.173   5.902   2.407  2.1013  1.4911  0.2031
 3616TIP3   OH210811   2.807   2.424   4.137 -0.5661 -0.3743  0.4092
 3616TIP3    H110812   2.898   2.411   4.110 -0.0825  2.4776  0.3913
 3616TIP3    H210813   2.756   2.402   4.059  0.1759 -0.8682  0.0455
 3617TIP3   OH210814   0.447   2.866   0.054 -0.0844  0.6628  0.1592
 3617TIP3    H110815   0.501   2.944   0.067 -0.7013  0.9822  0.9063
 3617TIP3    H210816   0.441   2.856  -0.041  0.0901  1.4694  0.0581
 3618TIP3   OH210817   3.272   1.083   1.471  0.1404  0.0048 -0.5593
 3618TIP3    H110818   3.305   1.009   1.421  0.5554 -2.3491  2.8724
 3618TIP3    H210819   3.194   1.111   1.423  0.7914 -1.6684 -2.7523
 3619TIP3   OH210820   0.199   0.084   3.495  0.7346  0.2364 -0.5205
 3619TIP3    H110821   0.104   0.085   3.504  0.7274  0.0223 -0.5470
 3619TIP3    H210822   0.216   0.111   3.405  0.6835  0.0256 -0.5961
 3620TIP3   OH210823   5.065   3.570   5.517 -0.0166  0.3361 -0.9050
 3620TIP3    H110824   5.092   3.527   5.436 -0.3904 -0.6609 -0.5133
 3620TIP3    H210825   5.027   3.500   5.570  0.4738  0.9152  0.2485
 3621TIP3   OH210826   5.854   4.319   0.856 -0.2523  0.4741 -0.1890
 3621TIP3    H110827   5.946   4.345   0.852 -0.9505  3.4455  0.6997
 3621TIP3    H210828   5.825   4.319   0.764  0.6718 -0.7670 -0.4968
 3622TIP3   OH210829   6.243   3.743   1.191 -0.0564  0.3616 -0.6171
 3622TIP3    H110830   6.302   3.679   1.152  0.3843  0.6606 -0.4358
 3622TIP3    H210831   6.219   3.802   1.120  0.3550  0.6113 -0.5486
 3623TIP3   OH210832   3.511   6.258   0.993  0.1075 -0.1293  0.1593
 3623TIP3    H110833   3.512   6.299   1.079  0.3062  0.4453 -0.1061
 3623TIP3    H210834   3.427   6.214   0.987  0.7013 -1.4875  1.2432
 3624TIP3   OH210835   1.320   5.580   5.858  0.0382 -0.1124  0.0059
 3624TIP3    H110836   1.240   5.612   5.817  0.4438  0.3089 -0.4638
 3624TIP3    H210837   1.368   5.536   5.788  0.5398  0.2497  0.1157
 3625TIP3   OH210838   2.048   2.392   2.669  0.4098  0.0025  0.0157
 3625TIP3    H110839   2.001   2.369   2.588  2.0617 -1.0266 -0.7105
 3625TIP3    H210840   1.979   2.399   2.735 -0.8155 -1.0761 -1.0715
 3626TIP3   OH210841   2.499   5.329   2.400 -0.2448 -0.1214  0.1545
 3626TIP3    H110842   2.517   5.359   2.311 -1.7017 -2.4013 -1.0208
 3626TIP3    H210843   2.579   5.284   2.427  0.0237  0.1324 -0.2146
 3627TIP3   OH210844   2.143   0.662   3.638 -0.1261  0.4262  0.0934
 3627TIP3    H110845   2.138   0.654   3.733  1.4677  0.9552  0.2643
 3627TIP3    H210846   2.077   0.727   3.615 -0.2038  0.6343  0.8913
 3628TIP3   OH210847   4.108   1.084   3.727 -0.2700  0.2827 -0.3053
 3628TIP3    H110848   4.075   0.995   3.716 -0.0852 -0.1027  1.8917
 3628TIP3    H210849   4.196   1.082   3.690  0.0332 -0.6790  0.4364
 3629TIP3   OH210850   6.907   5.942   0.958  0.6476  0.4818 -0.3653
 3629TIP3    H110851   6.979   6.002   0.979  1.3020 -0.7653  1.0773
 3629TIP3    H210852   6.842   5.957   1.027  0.7591 -0.3717 -0.0689
 3630TIP3   OH210853   6.744   1.907   2.584  0.7918  0.5325  0.6929
 3630TIP3    H110854   6.660   1.943   2.613  0.9336  0.6809  0.9294
 3630TIP3    H210855   6.805   1.931   2.654  0.7265 -0.9026  1.2700
 3631TIP3   OH210856   6.338   1.097   5.454  0.0164  0.0634 -0.4027
 3631TIP3    H110857   6.395   1.114   5.529  0.3972  0.1198 -0.6999
 3631TIP3    H210858   6.250   1.098   5.490  0.1389  0.9355 -0.0942
 3632TIP3   OH210859   0.717   2.751   3.065 -0.2989  0.2086 -0.5555
 3632TIP3    H110860   0.783   2.757   2.995  2.7945  0.5092  2.1315
 3632TIP3    H210861   0.695   2.658   3.070 -0.5344  0.1748 -1.8299
 3633TIP3   OH210862   3.409   5.898   5.500  0.0438 -0.0011 -0.2743
 3633TIP3    H110863   3.439   5.955   5.571 -0.9223 -0.2446  0.3517
 3633TIP3    H210864   3.487   5.849   5.473  0.8139  1.3253 -0.5691
 3634TIP3   OH210865   5.321   2.611   1.058 -0.0961  0.3058 -0.5803
 3634TIP3    H110866   5.400   2.663   1.041  0.8012 -1.0445 -0.7167
 3634TIP3    H210867   5.280   2.655   1.133  0.6128  1.2227 -0.7040
 3635TIP3   OH210868   0.763   6.275   4.775  0.3186 -0.1530  0.0308
 3635TIP3    H110869   0.673   6.279   4.743 -0.1827  0.5197  1.4309
 3635TIP3    H210870   0.813   6.329   4.714 -0.8312  2.1371  1.0133
 3636TIP3   OH210871   0.526   6.007   5.405  0.5098 -0.4521  0.0879
 3636TIP3    H110872   0.506   6.013   5.312  2.9614 -1.2744 -0.5771
 3636TIP3    H210873   0.483   6.083   5.444  1.1251  1.0920 -2.0590
 3637TIP3   OH210874   4.547   2.385   2.127 -0.2726 -0.4494 -0.1716
 3637TIP3    H110875   4.591   2.300   2.127 -0.4149 -0.5225 -0.0402
 3637TIP3    H210876   4.461   2.368   2.166 -0.8195 -0.5218 -1.3590
 3638TIP3   OH210877   1.657   3.162   1.813 -0.1954 -0.3332 -0.3124
 3638TIP3    H110878   1.655   3.257   1.799 -0.0914 -0.4803 -1.3996
 3638TIP3    H210879   1.570   3.142   1.847  0.6292  0.4997  2.5333
 3639TIP3   OH210880   7.057   2.698   1.818  0.1108  0.2717  0.3118
 3639TIP3    H110881   7.092   2.680   1.905 -1.9115 -0.3000  1.0733
 3639TIP3    H210882   7.016   2.616   1.791 -2.0092  1.2967  0.2107
 3640TIP3   OH210883   0.544   5.182   1.370 -0.3323  0.3881 -0.4645
 3640TIP3    H110884   0.464   5.160   1.323 -0.5362  0.3764 -0.1108
 3640TIP3    H210885   0.543   5.125   1.447 -1.1023  1.9708  0.7252
 3641TIP3   OH210886   5.065   3.846   3.008  0.0267  0.0773 -0.4607
 3641TIP3    H110887   5.102   3.761   2.982 -0.9014 -0.1173 -1.1913
 3641TIP3    H210888   5.136   3.888   3.057  1.4927  0.0144 -2.3942
 3642TIP3   OH210889   7.102   4.375   2.434  0.0723  0.0550  0.0927
 3642TIP3    H110890   7.038   4.354   2.502 -0.4484  0.1367 -0.3630
 3642TIP3    H210891   7.098   4.301   2.373  0.6797 -0.1138  0.2467
 3643TIP3   OH210892   2.267   6.050   2.020 -0.0970  0.4485 -0.4787
 3643TIP3    H110893   2.226   6.110   1.957 -1.6392 -0.3550 -0.2868
 3643TIP3    H210894   2.348   6.022   1.976 -1.0051  0.1083 -2.0254
 3644TIP3   OH210895   4.832   2.128   5.570  0.3600  0.5885 -0.5082
 3644TIP3    H110896   4.824   2.202   5.509 -0.3588  0.9340 -0.0166
 3644TIP3    H210897   4.744   2.117   5.606  0.3489 -0.8093 -0.9076
 3645TIP3   OH210898   2.087   4.733   2.964  0.1397 -0.2863 -0.7066
 3645TIP3    H110899   2.114   4.653   3.009  2.1367  0.5072 -0.3954
 3645TIP3    H210900   2.126   4.726   2.877 -2.3001 -1.0299 -1.8550
 3646TIP3   OH210901   0.004   0.912   0.702 -0.4055 -0.4389  0.3321
 3646TIP3    H110902   0.085   0.935   0.747 -0.6601 -1.8208  1.5419
 3646TIP3    H210903   0.029   0.910   0.609  0.4180  1.2259  0.4697
 3647TIP3   OH210904   2.548   0.062   4.267  0.3690 -0.6932  0.6535
 3647TIP3    H110905   2.609  -0.008   4.246  0.1003 -0.5499 -0.6951
 3647TIP3    H210906   2.510   0.037   4.351 -0.5319 -2.7242 -0.3078
 3648TIP3   OH210907   7.067   0.084   3.772  0.1879 -0.1414  0.3783
 3648TIP3    H110908   7.107   0.025   3.835 -1.0941  0.0001  1.3639
 3648TIP3    H210909   7.096   0.171   3.799  1.2572 -0.2077 -0.4677
 3649TIP3   OH210910   6.813   6.517   5.127  0.0304 -0.1687 -0.3022
 3649TIP3    H110911   6.875   6.486   5.060 -0.3333 -0.7785 -0.3638
 3649TIP3    H210912   6.856   6.495   5.210 -0.2892 -0.9932 -0.3459
 3650TIP3   OH210913   4.879   5.518   4.117 -0.6219 -0.1587 -0.3164
 3650TIP3    H110914   4.969   5.535   4.143 -0.5501 -0.9474 -0.0235
 3650TIP3    H210915   4.830   5.514   4.199 -0.4042 -2.6210 -0.2312
 3651TIP3   OH210916   0.006   6.720   4.802 -0.1040 -0.2935  0.3122
 3651TIP3    H110917   0.071   6.651   4.807 -0.7576 -0.9786 -0.3466
 3651TIP3    H210918  -0.008   6.747   4.893  2.6557  1.4012  0.3490
 3652TIP3   OH210919   1.103   0.533   3.047 -0.3546 -0.4155  0.1406
 3652TIP3    H110920   1.172   0.492   2.996 -0.2621  0.7083 -0.6805
 3652TIP3    H210921   1.085   0.615   3.001  0.6934  1.3426  2.6292
 3653TIP3   OH210922   2.339   2.992   1.193 -0.3096 -0.1634 -0.2997
 3653TIP3    H110923   2.422   2.957   1.224 -0.2923 -0.0633 -0.2324
 3653TIP3    H210924   2.339   3.084   1.221  0.1786  0.2244 -1.5275
 3654TIP3   OH210925   3.141   5.081   0.859 -0.3362 -0.1343 -0.1485
 3654TIP3    H110926   3.136   5.138   0.783 -1.3221 -0.5938 -0.4419
 3654TIP3    H210927   3.055   5.089   0.901  0.1215 -0.0500  0.7975
 3655TIP3   OH210928   4.583   5.078   3.913 -0.5262 -0.2157 -0.4251
 3655TIP3    H110929   4.492   5.106   3.897 -0.4193  0.0355 -0.5975
 3655TIP3    H210930   4.630   5.159   3.930 -0.1825 -0.2692 -1.0840
 3656TIP3   OH210931   3.232   3.532   1.407 -0.0257 -0.4162  0.2478
 3656TIP3    H110932   3.320   3.540   1.443  0.6274 -1.8091 -0.9519
 3656TIP3    H210933   3.174   3.536   1.483  1.0786  0.0936  1.0921
 3657TIP3   OH210934   1.100   5.334   4.369 -0.3621  0.2431  0.2121
 3657TIP3    H110935   1.015   5.357   4.409 -0.8122  0.0433 -0.6068
 3657TIP3    H210936   1.132   5.261   4.423 -0.0121  1.2413  1.4080
 3658TIP3   OH210937   0.695   2.693   0.457 -0.6389  0.0365 -0.2163
 3658TIP3    H110938   0.633   2.719   0.389  0.6400  1.3078 -0.9658
 3658TIP3    H210939   0.663   2.737   0.537 -2.2560 -1.6262  0.1030
 3659TIP3   OH210940   7.171   4.249   2.834  0.0420  0.0788 -0.1984
 3659TIP3    H110941   7.257   4.223   2.802 -0.5038 -1.5926 -0.3946
 3659TIP3    H210942   7.121   4.269   2.755 -0.0079  0.2208 -0.1318
 3660TIP3   OH210943   6.977   4.811   2.322 -0.3497  0.1416 -0.7253
 3660TIP3    H110944   6.950   4.902   2.339  2.6236  0.6746  2.5487
 3660TIP3    H210945   6.910   4.758   2.364 -0.2542  1.0524  0.6590
 3661TIP3   OH210946   5.941   4.078   2.847 -0.0441 -0.5029 -0.1155
 3661TIP3    H110947   6.015   4.044   2.797  2.6370  1.0444  2.4602
 3661TIP3    H210948   5.915   4.158   2.801  1.5173  0.2193  0.2149
 3662TIP3   OH210949   1.050   2.966   0.536 -0.2650 -0.0299 -0.2608
 3662TIP3    H110950   1.127   3.003   0.492 -1.0327  2.0476  0.0121
 3662TIP3    H210951   1.024   3.034   0.598 -1.5793 -1.2281  0.5403
 3663TIP3   OH210952   1.877   0.876   0.299  0.3812  0.2932 -0.0032
 3663TIP3    H110953   1.844   0.836   0.380 -0.5254 -0.5542 -0.7485
 3663TIP3    H210954   1.809   0.856   0.234  0.8487  1.3956 -0.8591
 3664TIP3   OH210955   7.121   6.783   4.506 -0.1969  1.0439  0.0486
 3664TIP3    H110956   7.187   6.791   4.575  1.4571 -0.6398 -1.2205
 3664TIP3    H210957   7.040   6.812   4.547  0.9553  1.3882  2.2690
 3665TIP3   OH210958   3.117   5.674   5.078 -0.2658  0.1867 -0.6611
 3665TIP3    H110959   3.129   5.720   4.995  1.4207  0.6955 -0.1653
 3665TIP3    H210960   3.132   5.740   5.145 -1.9396 -0.1420  0.0810
 3666TIP3   OH210961   1.397   6.519  -0.011  0.2100 -0.5052 -0.4107
 3666TIP3    H110962   1.459   6.574   0.037  0.9994 -1.9523  0.2800
 3666TIP3    H210963   1.344   6.477   0.057 -0.3887 -0.6043 -0.9253
 3667TIP3   OH210964   1.709   1.278   5.266  0.0716  0.2848  0.0563
 3667TIP3    H110965   1.674   1.198   5.305  0.3529  0.5737  0.9322
 3667TIP3    H210966   1.779   1.305   5.326 -0.3994  1.4927  0.1033
 3668TIP3   OH210967   4.279   0.731   2.272  0.2046 -0.1699 -0.3552
 3668TIP3    H110968   4.287   0.728   2.368 -1.4094 -0.1909 -0.1885
 3668TIP3    H210969   4.340   0.799   2.245  1.1899 -0.6366  0.6143
 3669TIP3   OH210970   1.842   3.002   2.153 -0.5087 -0.0163 -0.0350
 3669TIP3    H110971   1.855   3.079   2.098  0.4620 -0.6626 -0.7351
 3669TIP3    H210972   1.906   3.012   2.223 -0.4659 -0.1359 -0.0582
 3670TIP3   OH210973   6.236   1.287   2.172 -0.5657 -0.2012  0.1114
 3670TIP3    H110974   6.235   1.368   2.121  0.0429  0.2298  0.7620
 3670TIP3    H210975   6.177   1.228   2.125 -0.0509  0.1885 -1.0567
 3671TIP3   OH210976   0.232   5.670   3.743 -0.9351  0.5810  0.7845
 3671TIP3    H110977   0.259   5.581   3.767 -0.3588 -0.1699 -2.2772
 3671TIP3    H210978   0.311   5.722   3.752 -0.1073 -0.1784 -1.5374
 3672TIP3   OH210979   0.143   4.609   5.823 -0.0732  0.4823  0.4171
 3672TIP3    H110980   0.094   4.660   5.759 -0.9472  1.2075  1.6156
 3672TIP3    H210981   0.232   4.605   5.788 -0.0809  2.4620  0.0519
 3673TIP3   OH210982   5.603   0.638   4.461 -0.4177 -0.3111 -0.3855
 3673TIP3    H110983   5.645   0.722   4.439  0.4268 -0.9724 -1.3922
 3673TIP3    H210984   5.522   0.663   4.506 -0.7074  1.0634 -1.6004
 3674TIP3   OH210985   0.531   5.314   0.666 -0.1046  0.3060  0.2028
 3674TIP3    H110986   0.562   5.354   0.748 -0.3865  1.5144 -0.2663
 3674TIP3    H210987   0.589   5.349   0.599  0.2549 -0.8456 -0.0967
 3675TIP3   OH210988   6.597   4.994   2.686  0.2903 -0.0867 -0.8851
 3675TIP3    H110989   6.652   5.071   2.672  2.5905 -1.6120 -0.7881
 3675TIP3    H210990   6.610   4.972   2.778  0.9393 -1.5128 -1.3064
 3676TIP3   OH210991   5.183   4.531   5.759 -0.7946 -0.2098  0.6423
 3676TIP3    H110992   5.213   4.613   5.720 -1.0409 -0.7180 -0.6645
 3676TIP3    H210993   5.127   4.558   5.832 -2.1055  0.8282 -0.7001
 3677TIP3   OH210994   0.729   1.561   1.823 -0.1893  0.1298 -0.1680
 3677TIP3    H110995   0.773   1.477   1.836  0.4985  0.4545 -0.3030
 3677TIP3    H210996   0.733   1.604   1.909 -0.4978  0.0449 -0.1105
 3678TIP3   OH210997   2.445   1.370   1.905 -0.2503 -0.4219 -0.2391
 3678TIP3    H110998   2.530   1.403   1.933  0.5557 -2.3955 -0.2063
 3678TIP3    H210999   2.445   1.383   1.810  1.2695 -2.8084 -0.6418
 3679TIP3   OH211000   4.880   1.698   0.892 -0.1265 -0.2032 -0.1770
 3679TIP3    H111001   4.960   1.662   0.854 -0.1024 -0.1384 -0.1885
 3679TIP3    H211002   4.833   1.623   0.928 -0.0425 -0.2363 -0.1376
 3680TIP3   OH211003   0.230   2.735   4.220  0.1560  0.2516  0.0735
 3680TIP3    H111004   0.174   2.782   4.282 -0.0796  0.8025 -0.5429
 3680TIP3    H211005   0.319   2.751   4.250  0.0281  0.2085  0.4808
 3681TIP3   OH211006   5.199   4.954   4.335 -0.0728 -0.0139 -0.3552
 3681TIP3    H111007   5.174   4.871   4.296  0.7192 -0.5920  0.3097
 3681TIP3    H211008   5.152   4.956   4.419  0.3587 -0.0827 -0.1045
 3682TIP3   OH211009   5.437   3.712   1.828 -0.4683  0.0295  0.1271
 3682TIP3    H111010   5.404   3.686   1.914 -0.4082 -1.7275 -0.3377
 3682TIP3    H211011   5.531   3.725   1.842 -0.1848 -1.7495  0.0436
 3683TIP3   OH211012   6.665   0.833   4.076 -0.3536 -0.1223 -0.1181
 3683TIP3    H111013   6.612   0.842   4.155  1.5025 -0.5161  1.2585
 3683TIP3    H211014   6.755   0.829   4.109  0.5469  0.5130 -2.3238
 3684TIP3   OH211015   0.836   4.974   4.595 -0.0289  0.1205 -0.1016
 3684TIP3    H111016   0.822   5.006   4.506 -0.3844 -0.7364 -0.3627
 3684TIP3    H211017   0.902   5.034   4.632 -0.5043  1.0037 -0.6398
 3685TIP3   OH211018   4.732   4.273   1.990  0.4674  0.0474 -0.0139
 3685TIP3    H111019   4.707   4.252   2.080 -1.7505  0.7426 -0.3959
 3685TIP3    H211020   4.768   4.361   1.995  0.4647  0.0363  0.2266
 3686TIP3   OH211021   6.519   2.774   2.554  0.0427 -0.4373 -0.6048
 3686TIP3    H111022   6.497   2.682   2.536  2.1195 -0.6599 -2.3096
 3686TIP3    H211023   6.473   2.824   2.487 -1.1435 -0.1451  0.3645
 3687TIP3   OH211024   6.115   1.920   1.067 -0.0939 -0.0402  0.4464
 3687TIP3    H111025   6.078   1.879   0.988  0.9143 -0.4091  0.1418
 3687TIP3    H211026   6.117   1.849   1.131  0.6996 -0.2100  0.2439
 3688TIP3   OH211027   3.454   2.671   3.952  0.5052  0.0552  0.9835
 3688TIP3    H111028   3.447   2.576   3.962 -0.3727 -0.1462 -0.9197
 3688TIP3    H211029   3.363   2.702   3.960  0.4570  0.4225 -0.5551
 3689TIP3   OH211030   2.932   0.194   1.611  0.3722 -0.1097  0.0259
 3689TIP3    H111031   2.874   0.253   1.658  1.4995  0.4658  0.7621
 3689TIP3    H211032   2.966   0.246   1.538  1.2116  0.1314  0.5608
 3690TIP3   OH211033   0.698   3.254   1.895  0.1619 -0.1014 -0.6767
 3690TIP3    H111034   0.745   3.317   1.842 -0.6466  0.5116 -0.6843
 3690TIP3    H211035   0.708   3.286   1.985  1.6858 -1.2361 -0.3985
 3691TIP3   OH211036   6.722   5.565   2.705 -0.4327  0.1798  0.4853
 3691TIP3    H111037   6.811   5.562   2.669 -0.5524 -0.7203  0.2217
 3691TIP3    H211038   6.671   5.615   2.642 -0.6495 -1.4136 -0.6558
 3692TIP3   OH211039   6.546   6.449   5.175 -0.0673  0.7882  0.0439
 3692TIP3    H111040   6.634   6.464   5.141  0.4962 -0.9100  0.6255
 3692TIP3    H211041   6.487   6.485   5.109  1.0486  0.6335 -1.0495
 3693TIP3   OH211042   4.477   0.596   3.799  0.2136 -0.5659 -0.0572
 3693TIP3    H111043   4.398   0.565   3.844 -0.5653 -0.9962 -1.6622
 3693TIP3    H211044   4.528   0.517   3.782  0.3785 -0.4385 -0.1601
 3694TIP3   OH211045   1.802   1.946   5.055  0.0143 -0.3844  0.0147
 3694TIP3    H111046   1.778   1.898   4.976 -0.4332  0.8371 -0.6337
 3694TIP3    H211047   1.870   1.893   5.096 -0.6607 -1.6869 -0.5021
 3695TIP3   OH211048   5.141   4.804   3.042  0.4982  0.3302 -0.4402
 3695TIP3    H111049   5.236   4.813   3.050  0.6958 -1.4994 -0.3096
 3695TIP3    H211050   5.105   4.860   3.111  1.5679 -0.4888  0.8380
 3696TIP3   OH211051   3.764   0.474   2.962  0.3618  0.5546 -0.3833
 3696TIP3    H111052   3.779   0.445   3.052 -0.9884 -2.0210 -0.8790
 3696TIP3    H211053   3.716   0.556   2.971 -1.0376 -0.3607  1.3447
 3697TIP3   OH211054   2.064   5.809   1.411 -0.2897 -0.3650  0.2145
 3697TIP3    H111055   2.082   5.718   1.386 -0.1969 -0.3500  0.2266
 3697TIP3    H211056   2.050   5.854   1.327  1.3928 -0.0229  0.0912
 3698TIP3   OH211057   6.628   1.430   3.225 -0.4982 -1.0595  0.2572
 3698TIP3    H111058   6.611   1.467   3.312  1.9477 -2.4464  1.4460
 3698TIP3    H211059   6.601   1.338   3.233  1.3064 -1.6424  0.1807
 3699TIP3   OH211060   6.626   6.375   0.548 -0.1417  0.2457 -0.1251
 3699TIP3    H111061   6.544   6.330   0.529  0.1776  1.0954 -4.6881
 3699TIP3    H211062   6.601   6.466   0.563 -0.1346  0.2654 -0.2328
 3700TIP3   OH211063   0.269   5.649   1.012 -0.7968 -0.3301  0.2260
 3700TIP3    H111064   0.198   5.710   1.031  0.0488  0.6246  0.3910
 3700TIP3    H211065   0.341   5.678   1.067 -0.1480 -1.0519 -0.2215
 3701TIP3   OH211066   3.572   5.323   5.831 -0.1794 -0.5492  0.0339
 3701TIP3    H111067   3.598   5.303   5.920 -1.3519 -1.7724  0.1402
 3701TIP3    H211068   3.531   5.242   5.799 -0.3695  0.0666 -1.3780
 3702TIP3   OH211069   3.739   4.050   4.512 -0.2535 -0.7882 -0.0550
 3702TIP3    H111070   3.782   4.009   4.588 -0.3385  0.0922  0.4768
 3702TIP3    H211071   3.654   4.006   4.507  0.0304 -1.3447 -0.0708
 3703TIP3   OH211072   6.951   0.877   3.044 -0.5337  0.7553 -0.4343
 3703TIP3    H111073   6.975   0.807   2.983  0.8170  0.1916  0.6938
 3703TIP3    H211074   6.942   0.833   3.128 -2.3605  1.5269 -0.1780
 3704TIP3   OH211075   3.477   5.049   4.034  0.0842 -0.1815 -0.1515
 3704TIP3    H111076   3.525   5.029   3.953  0.3848  0.0014 -0.0221
 3704TIP3    H211077   3.514   4.989   4.099  0.9973  0.7672  0.2412
 3705TIP3   OH211078   2.655   1.174   2.061 -0.1824  0.2664  0.3919
 3705TIP3    H111079   2.679   1.267   2.069  2.5432 -0.3378  0.3444
 3705TIP3    H211080   2.717   1.129   2.118 -1.8643 -1.5136  0.8892
 3706TIP3   OH211081   6.879   6.400   4.059  0.5033  0.1439  0.1557
 3706TIP3    H111082   6.837   6.316   4.076  0.0185  0.3623  0.0691
 3706TIP3    H211083   6.971   6.386   4.080 -0.0044  0.3875  3.1286
 3707TIP3   OH211084   4.775   3.951   4.124 -0.1180  0.0449 -0.6829
 3707TIP3    H111085   4.725   4.031   4.140 -0.7619 -0.3947 -0.4628
 3707TIP3    H211086   4.838   3.975   4.055 -0.2625  0.7521 -0.5723
 3708TIP3   OH211087   6.271   6.603   0.993  0.0521  0.2342 -0.0336
 3708TIP3    H111088   6.264   6.557   1.076  1.6677  0.4497  0.2431
 3708TIP3    H211089   6.191   6.655   0.988 -0.6146 -0.6540  0.8217
 3709TIP3   OH211090   5.138   1.686   1.641  0.3562 -0.1192 -0.5209
 3709TIP3    H111091   5.139   1.610   1.700 -0.1790  0.1824 -0.1172
 3709TIP3    H211092   5.056   1.678   1.593  0.0097  0.5132 -0.0565
 3710TIP3   OH211093   4.058   5.169   4.515 -0.3185 -0.0662 -0.1526
 3710TIP3    H111094   3.975   5.211   4.537  0.4895  0.9152  1.1580
 3710TIP3    H211095   4.096   5.224   4.447 -0.7152 -0.5095 -0.7450
 3711TIP3   OH211096   3.427   0.984   0.468  0.1233 -0.4590 -0.0452
 3711TIP3    H111097   3.464   1.069   0.494  1.4640 -1.2582  0.7933
 3711TIP3    H211098   3.440   0.980   0.373  1.1368 -0.2069  0.0706
 3712TIP3   OH211099   3.471   0.028   2.158  0.0268 -0.8875 -0.0230
 3712TIP3    H111100   3.437   0.052   2.072 -0.7235 -0.6034  0.3466
 3712TIP3    H211101   3.497  -0.064   2.149  1.5084 -0.4089 -1.0191
 3713TIP3   OH211102   0.904   2.740   1.017 -0.3237  0.2639  0.0188
 3713TIP3    H111103   0.876   2.687   0.942  0.1274  0.9711 -0.6647
 3713TIP3    H211104   0.827   2.744   1.073  0.0040 -2.2271  0.7847
 3714TIP3   OH211105   2.124   0.951   0.295  0.2996  0.3702 -0.3215
 3714TIP3    H111106   2.033   0.920   0.294 -0.3957  2.2371 -0.0058
 3714TIP3    H211107   2.152   0.941   0.386  0.7396 -0.9761 -0.5746
 3715TIP3   OH211108   6.940   3.255   0.836 -0.3624 -0.0712  0.3263
 3715TIP3    H111109   6.941   3.174   0.784  1.2864  0.1058  0.0363
 3715TIP3    H211110   6.941   3.225   0.927  2.0943 -0.4261  0.2302
 3716TIP3   OH211111   4.210   3.294   4.645 -0.0709 -0.2045 -0.2886
 3716TIP3    H111112   4.117   3.275   4.654 -0.0003 -0.2757  0.3527
 3716TIP3    H211113   4.249   3.210   4.621 -0.0966 -0.3130  0.0409
 3717TIP3   OH211114   6.953   1.234   3.667  0.1704 -0.3458  0.5692
 3717TIP3    H111115   6.953   1.285   3.748  0.0032 -1.0531  1.0196
 3717TIP3    H211116   6.960   1.300   3.598 -0.3779  0.3081  1.1241
 3718TIP3   OH211117   7.050   6.141   1.035  0.4315  0.1295  0.4981
 3718TIP3    H111118   7.120   6.154   1.099  1.3806 -1.1240 -0.2274
 3718TIP3    H211119   7.072   6.201   0.964 -0.1580  0.9138  0.9610
 3719TIP3   OH211120   7.122   5.878   3.828 -0.7047 -0.6680  0.3989
 3719TIP3    H111121   7.121   5.938   3.903 -0.3182 -0.0826 -0.0551
 3719TIP3    H211122   7.141   5.792   3.866  1.4057 -0.0721  0.7722
 3720TIP3   OH211123   2.359   2.601   0.649 -0.1352 -0.3366  0.7939
 3720TIP3    H111124   2.265   2.582   0.639  0.1847 -1.5125 -0.2194
 3720TIP3    H211125   2.377   2.666   0.581 -0.2223 -0.0530  1.0387
 3721TIP3   OH211126   4.992   0.486   2.199 -0.2991  0.2706 -0.4451
 3721TIP3    H111127   5.002   0.391   2.203  0.4370  0.2930 -1.3766
 3721TIP3    H211128   5.057   0.519   2.261 -2.0096  0.1437  1.5218
 3722TIP3   OH211129   1.594   2.431   3.724 -0.1917  0.0246 -0.0704
 3722TIP3    H111130   1.501   2.440   3.702 -0.3264 -0.5593  0.2479
 3722TIP3    H211131   1.596   2.420   3.819  0.1677 -0.4073 -0.1234
 3723TIP3   OH211132   6.096   6.697   1.839 -0.1962 -0.4585  0.0275
 3723TIP3    H111133   6.160   6.752   1.795 -1.5171  0.5435 -0.7028
 3723TIP3    H211134   6.143   6.662   1.915  0.9259  0.9550  0.0218
 3724TIP3   OH211135   4.539   4.539   4.666  0.5144 -0.1834 -0.1255
 3724TIP3    H111136   4.481   4.500   4.730  2.4027 -1.4297  0.9176
 3724TIP3    H211137   4.486   4.547   4.587 -1.6562  0.7033  1.3125
 3725TIP3   OH211138   4.327   2.638   4.027 -0.2952 -0.3698  0.6215
 3725TIP3    H111139   4.351   2.706   4.091  0.9777  0.8626 -1.0759
 3725TIP3    H211140   4.256   2.590   4.069 -0.0736  0.9122  2.6103
 3726TIP3   OH211141   6.962   3.414   3.542 -0.4668  0.1502 -0.0825
 3726TIP3    H111142   6.978   3.435   3.634 -0.3372  0.5217 -0.1875
 3726TIP3    H211143   7.025   3.345   3.522  0.4082  0.9721 -0.2413
 3727TIP3   OH211144   4.674   3.257   3.946  0.3435 -0.1609  0.6235
 3727TIP3    H111145   4.706   3.167   3.945  0.6618 -0.0544  1.0576
 3727TIP3    H211146   4.622   3.264   4.026 -1.5168 -0.5792 -0.4853
 3728TIP3   OH211147   1.487   4.562   4.501 -0.7147  0.8511 -0.2808
 3728TIP3    H111148   1.545   4.618   4.552  0.1911 -0.0656 -0.2623
 3728TIP3    H211149   1.513   4.577   4.410 -0.9866  1.0233 -0.3303
 3729TIP3   OH211150   5.704   1.683   5.821 -0.0010 -0.1710  0.1664
 3729TIP3    H111151   5.653   1.618   5.869  0.7701 -0.0353  1.2042
 3729TIP3    H211152   5.692   1.765   5.870  0.4061  0.0791 -0.1389
 3730TIP3   OH211153   1.576   1.029   3.962  0.0124  0.1847  0.1790
 3730TIP3    H111154   1.663   1.002   3.989 -0.2913  0.5913  1.6505
 3730TIP3    H211155   1.548   1.090   4.030 -1.2072  0.4798 -0.5605
 3731TIP3   OH211156   5.980   3.441   0.426 -0.1048 -0.1370  0.2850
 3731TIP3    H111157   5.969   3.526   0.468 -0.2548  0.1819 -0.3745
 3731TIP3    H211158   5.915   3.441   0.355  0.8089 -0.2351 -0.5748
 3732TIP3   OH211159   6.186   2.583   4.459 -0.3343 -0.3549  0.3638
 3732TIP3    H111160   6.172   2.675   4.482  0.1569 -0.1329 -0.2154
 3732TIP3    H211161   6.132   2.569   4.381 -0.3435 -0.5440  0.4025
 3733TIP3   OH211162   6.199   6.595   0.667  0.5684 -0.4369 -0.1083
 3733TIP3    H111163   6.208   6.623   0.758 -2.0668  0.1249  0.0419
 3733TIP3    H211164   6.134   6.525   0.670  0.7955 -0.7385 -1.5254
 3734TIP3   OH211165   6.097   6.709   5.141 -0.1830 -0.0659 -0.4491
 3734TIP3    H111166   6.128   6.632   5.189 -2.6679 -0.9717 -0.1546
 3734TIP3    H211167   6.176   6.760   5.123  1.3412 -1.8976  0.7327
 3735TIP3   OH211168   1.348   3.339   1.907  0.0648  0.6688 -0.6129
 3735TIP3    H111169   1.335   3.385   1.824 -0.6627  1.0318 -0.3081
 3735TIP3    H211170   1.277   3.275   1.911 -0.6610  1.4916  0.2832
 3736TIP3   OH211171   3.100   1.937   4.262  0.0892 -0.2514  0.1450
 3736TIP3    H111172   3.178   1.901   4.220 -0.8525 -0.7364 -1.2877
 3736TIP3    H211173   3.078   1.873   4.330  0.1443 -0.8429 -0.3827
 3737TIP3   OH211174   4.541   0.141   1.562  0.0534  0.4760 -0.0952
 3737TIP3    H111175   4.606   0.177   1.623  0.6222  1.4740 -1.2480
 3737TIP3    H211176   4.544   0.199   1.486  0.0646 -1.2640 -1.4972
 3738TIP3   OH211177   6.740   5.605   1.385 -0.3898 -0.2604  0.3724
 3738TIP3    H111178   6.657   5.560   1.368 -0.4281  0.9892 -3.8444
 3738TIP3    H211179   6.718   5.698   1.377  1.4165  0.0809 -1.1422
 3739TIP3   OH211180   5.983   1.584   3.275  0.1845  0.0958 -0.0064
 3739TIP3    H111181   5.945   1.669   3.296 -0.9581 -0.2700 -0.5259
 3739TIP3    H211182   5.959   1.568   3.184 -0.1268 -1.0406  0.2492
 3740TIP3   OH211183   0.910   5.709   3.517 -0.0299 -0.2682  0.7158
 3740TIP3    H111184   0.870   5.789   3.551  0.6124  0.1035  0.6005
 3740TIP3    H211185   1.001   5.732   3.499 -0.3959 -0.3735 -1.5251
 3741TIP3   OH211186   2.307   5.215   0.932  0.0143 -0.7647 -0.6126
 3741TIP3    H111187   2.379   5.206   0.994 -1.2251  0.8699  1.2146
 3741TIP3    H211188   2.307   5.308   0.908  0.0374 -1.2271 -2.5836
 3742TIP3   OH211189   7.074   3.034   5.049 -0.4972 -1.0231 -0.3939
 3742TIP3    H111190   7.074   2.960   4.987  0.8089 -1.6090  0.2542
 3742TIP3    H211191   7.096   3.110   4.995 -2.2616 -1.0145 -1.1469
 3743TIP3   OH211192   4.727   1.170   1.679 -0.3878  0.6170  0.2793
 3743TIP3    H111193   4.654   1.182   1.617 -0.5554  1.1763  0.5747
 3743TIP3    H211194   4.786   1.242   1.659  0.3030 -0.0792 -0.2424
 3744TIP3   OH211195   5.153   3.531   0.172  0.4780  0.2045 -0.2927
 3744TIP3    H111196   5.175   3.617   0.208  0.5172  0.7822 -1.6213
 3744TIP3    H211197   5.103   3.551   0.093 -1.1316 -1.0290  0.3439
 3745TIP3   OH211198   3.009   2.852   1.710  0.0514  0.1625  0.5307
 3745TIP3    H111199   2.949   2.903   1.657 -0.4711  0.4830  1.4056
 3745TIP3    H211200   3.057   2.917   1.762 -0.4943 -0.2017  1.5242
 3746TIP3   OH211201   3.990   3.264   5.562 -0.4788 -0.3435  0.4150
 3746TIP3    H111202   3.973   3.196   5.497 -1.2512 -1.5642  1.8260
 3746TIP3    H211203   3.995   3.217   5.645 -1.3010  1.3455  1.4856
 3747TIP3   OH211204   5.414   2.411   5.779  0.2375  0.0263 -0.0685
 3747TIP3    H111205   5.416   2.374   5.691  1.3607 -0.7242  0.2511
 3747TIP3    H211206   5.379   2.340   5.834 -4.3110  1.6906 -0.3774
 3748TIP3   OH211207   0.684   5.167   5.793  0.7065  0.8512  0.0569
 3748TIP3    H111208   0.699   5.227   5.866 -4.6216  1.0917  1.3512
 3748TIP3    H211209   0.646   5.221   5.724 -1.1151 -0.4037 -0.0025
 3749TIP3   OH211210   1.743   2.899   1.909  0.0974  0.2782 -0.0949
 3749TIP3    H111211   1.676   2.882   1.843  0.7335 -0.3747 -0.5926
 3749TIP3    H211212   1.770   2.990   1.894 -2.0420  1.2561  1.3987
 3750TIP3   OH211213   3.379   4.763   3.640 -0.8088 -0.1810 -0.2629
 3750TIP3    H111214   3.455   4.730   3.592  1.3266  1.2205  1.8866
 3750TIP3    H211215   3.304   4.716   3.603  1.1315 -1.9583 -2.2078
 3751TIP3   OH211216   1.901   0.650   3.949  0.1627 -0.0579  0.0565
 3751TIP3    H111217   1.996   0.660   3.936  0.3096 -0.5602  0.6857
 3751TIP3    H211218   1.884   0.558   3.928 -0.5544  0.5114 -2.1040
 3752TIP3   OH211219   5.200   6.586   4.035 -0.5358 -0.4075  0.7895
 3752TIP3    H111220   5.123   6.534   4.010  0.9728 -1.3061 -2.5543
 3752TIP3    H211221   5.176   6.676   4.013 -0.0654 -0.9145 -2.2278
 3753TIP3   OH211222   3.970   4.425   5.098  0.0695 -0.1520 -0.0235
 3753TIP3    H111223   4.022   4.480   5.156  0.1739 -0.1007 -0.1645
 3753TIP3    H211224   3.979   4.466   5.012 -0.0888 -0.2237 -0.0743
 3754TIP3   OH211225   4.639   2.036   0.015 -0.3372 -0.4448  0.2228
 3754TIP3    H111226   4.734   2.041   0.008 -0.3574 -2.1777 -3.9849
 3754TIP3    H211227   4.608   2.122  -0.016 -0.2524  0.2537  1.9352
 3755TIP3   OH211228   1.926   5.333   0.747 -0.0428 -1.1187 -0.5307
 3755TIP3    H111229   1.988   5.366   0.682 -0.6726  0.9158 -0.1632
 3755TIP3    H211230   1.976   5.332   0.829 -0.5485  0.9440 -0.1463
 3756TIP3   OH211231   2.035   0.122   1.445  0.0760  0.0749 -0.4319
 3756TIP3    H111232   1.962   0.173   1.411  0.2289  0.3934 -0.2808
 3756TIP3    H211233   2.086   0.097   1.367 -0.8918 -1.2529 -0.6826
 3757TIP3   OH211234   5.414   2.198   3.172  0.0812 -0.1889 -0.1477
 3757TIP3    H111235   5.473   2.184   3.246 -0.1383  2.9519  0.7737
 3757TIP3    H211236   5.329   2.216   3.212 -0.5204 -0.4750 -1.2593
 3758TIP3   OH211237   5.075   0.193   0.480  0.3181 -0.1453  1.1536
 3758TIP3    H111238   5.111   0.172   0.567 -0.8188 -1.1749  1.4068
 3758TIP3    H211239   5.147   0.237   0.434  1.5559 -1.2134  1.9859
 3759TIP3   OH211240   4.787   4.200   0.229 -0.0362 -0.3079  0.6178
 3759TIP3    H111241   4.737   4.221   0.150  0.6499  1.9477  0.7083
 3759TIP3    H211242   4.843   4.126   0.204  0.9699  1.0568 -1.4123
 3760TIP3   OH211243   6.290   1.284   1.235 -0.0075  0.2996  0.0551
 3760TIP3    H111244   6.341   1.320   1.308 -2.2898  1.3643  1.2367
 3760TIP3    H211245   6.231   1.221   1.276 -2.0513  1.6646 -0.6240
 3761TIP3   OH211246   2.696   0.931   5.067 -0.6906  0.8647  0.0058
 3761TIP3    H111247   2.694   0.918   4.972 -1.4014 -1.8928  0.2974
 3761TIP3    H211248   2.605   0.914   5.095 -0.2618  0.5355  1.2554
 3762TIP3   OH211249   2.396   4.197   2.072 -0.2454  0.1984 -0.3552
 3762TIP3    H111250   2.450   4.158   2.142  1.3214  0.6997 -1.2262
 3762TIP3    H211251   2.318   4.228   2.117 -1.4276 -3.4926  0.4800
 3763TIP3   OH211252   5.076   2.874   0.487 -0.1002  0.4381 -0.2041
 3763TIP3    H111253   5.136   2.863   0.413 -0.2982 -0.8494 -0.2123
 3763TIP3    H211254   5.110   2.949   0.535 -0.0861  1.4378 -1.7006
 3764TIP3   OH211255   1.655   2.710   4.125 -0.4473  0.3961 -0.3699
 3764TIP3    H111256   1.734   2.657   4.118 -0.4911  0.4696 -1.5260
 3764TIP3    H211257   1.677   2.779   4.188  0.7150  0.9630 -1.3801
 3765TIP3   OH211258   4.373   2.149   1.801 -0.0872  0.7337 -1.0182
 3765TIP3    H111259   4.380   2.084   1.871 -3.0273  0.7494 -0.5665
 3765TIP3    H211260   4.390   2.101   1.721  0.3965  0.0348 -0.5113
 3766TIP3   OH211261   0.429   3.281   0.179 -0.3876  0.1205  0.1738
 3766TIP3    H111262   0.407   3.278   0.086  1.9151 -2.0559 -0.4182
 3766TIP3    H211263   0.351   3.246   0.223 -0.7060 -0.9179 -1.1471
 3767TIP3   OH211264   3.819   4.800   3.620  0.3140 -0.0584 -0.5265
 3767TIP3    H111265   3.795   4.893   3.625 -1.2765 -0.4647  0.2867
 3767TIP3    H211266   3.892   4.797   3.558  1.1459  1.8562  0.2964
 3768TIP3   OH211267   1.372   4.420   5.668 -0.1437  1.0957 -0.5365
 3768TIP3    H111268   1.417   4.434   5.751  0.1918  0.8329 -0.6753
 3768TIP3    H211269   1.414   4.343   5.630 -1.5847  0.0246 -0.0536
 3769TIP3   OH211270   3.530   3.889   5.324  0.0989  0.2876 -0.0594
 3769TIP3    H111271   3.492   3.806   5.353  1.4122 -0.3314 -0.0109
 3769TIP3    H211272   3.601   3.863   5.265  0.4885  1.3787 -0.0917
 3770TIP3   OH211273   6.200   1.018   0.297 -0.2823 -0.3189  0.2516
 3770TIP3    H111274   6.147   1.079   0.349  0.5456  0.3567  0.3320
 3770TIP3    H211275   6.287   1.025   0.334 -0.0181 -1.0216 -0.2183
 3771TIP3   OH211276   5.473   0.073   0.193 -0.3679  0.2648 -0.0262
 3771TIP3    H111277   5.532   0.144   0.167 -1.2519  0.2507 -2.2503
 3771TIP3    H211278   5.477   0.010   0.121 -2.2065 -0.2824  0.3035
 3772TIP3   OH211279   3.002   1.646   5.355  0.2258  0.1873  0.7854
 3772TIP3    H111280   2.953   1.580   5.306 -0.5887 -0.3145  2.2142
 3772TIP3    H211281   3.064   1.681   5.292 -0.5572 -0.6576 -0.5067
 3773TIP3   OH211282   6.632   4.662   4.040  0.3247 -0.1859 -0.0838
 3773TIP3    H111283   6.602   4.604   3.970  0.3922 -0.0983 -0.1870
 3773TIP3    H211284   6.552   4.702   4.074  0.2015 -0.9222  0.5122
 3774TIP3   OH211285   1.250   1.584   0.502 -0.0052  0.2832 -0.1285
 3774TIP3    H111286   1.201   1.527   0.560 -0.0735  2.3506  1.9765
 3774TIP3    H211287   1.239   1.546   0.415 -1.2261 -2.0262  0.9699
 3775TIP3   OH211288   1.269   5.687   0.444  0.2233  0.1152 -0.3220
 3775TIP3    H111289   1.346   5.693   0.387  1.1421  2.8759  1.0361
 3775TIP3    H211290   1.220   5.767   0.426 -1.8042 -1.0554 -0.3177
 3776TIP3   OH211291   2.805   6.609   3.442  0.2686  0.2348 -0.1996
 3776TIP3    H111292   2.709   6.604   3.440  0.1054  2.1423  0.9162
 3776TIP3    H211293   2.831   6.596   3.351 -0.9356 -1.6026 -0.3493
 3777TIP3   OH211294   2.520   4.857   0.264  0.2436  0.2253 -0.3022
 3777TIP3    H111295   2.436   4.811   0.265  1.5539 -2.3880 -0.3954
 3777TIP3    H211296   2.536   4.878   0.356  0.2906 -0.9670 -0.0118
 3778TIP3   OH211297   5.935   0.762   1.345 -0.2191  0.4428  0.2065
 3778TIP3    H111298   5.922   0.738   1.436  1.5542 -0.9574  0.1470
 3778TIP3    H211299   5.967   0.682   1.303 -2.0232  0.7457 -1.9169
 3779TIP3   OH211300   3.340   0.325   4.956 -0.5937  0.3362 -0.2490
 3779TIP3    H111301   3.317   0.341   5.047 -2.1894  1.5906 -0.8097
 3779TIP3    H211302   3.367   0.411   4.923  0.7305 -0.2548 -0.7822
 3780TIP3   OH211303   0.667   6.250   1.774  0.0636 -0.2121  0.0398
 3780TIP3    H111304   0.581   6.239   1.814  0.8425 -0.3330  1.7880
 3780TIP3    H211305   0.729   6.220   1.841  1.5021  0.3791 -0.9560
 3781TIP3   OH211306   5.822   0.657   3.921 -0.2039 -0.0236  0.3731
 3781TIP3    H111307   5.727   0.649   3.923 -0.1736 -1.1786  3.7122
 3781TIP3    H211308   5.851   0.617   4.004  3.1557  0.6860 -0.3176
 3782TIP3   OH211309   4.073   0.438   5.226 -0.8386  0.4031  0.2822
 3782TIP3    H111310   4.126   0.363   5.200  0.0994  0.0131  3.0016
 3782TIP3    H211311   4.132   0.513   5.219 -0.4420  0.2322  1.5820
 3783TIP3   OH211312   3.635   4.065   3.153  0.1672  0.2488  0.0924
 3783TIP3    H111313   3.622   4.022   3.237 -1.0391  1.5918  0.6282
 3783TIP3    H211314   3.723   4.037   3.126  0.3427 -0.6822  1.4926
 3784TIP3   OH211315   0.111   0.864   5.800 -0.0016  0.0064  0.3228
 3784TIP3    H111316   0.108   0.771   5.782  2.0804 -0.0118 -0.1836
 3784TIP3    H211317   0.123   0.905   5.715  1.3346  0.5570  0.7585
 3785TIP3   OH211318   1.711   3.912   4.995 -0.1629 -0.6129 -0.3257
 3785TIP3    H111319   1.777   3.978   4.976 -1.1198 -0.1728 -2.3060
 3785TIP3    H211320   1.759   3.829   4.996  0.8599 -0.0592  1.1365
 3786TIP3   OH211321   3.401   4.418   4.698 -0.1133 -0.1175  0.7179
 3786TIP3    H111322   3.413   4.339   4.646 -0.4728 -1.0018  1.9411
 3786TIP3    H211323   3.308   4.417   4.721 -0.1418  0.7156  0.6763
 3787TIP3   OH211324   4.065   6.727   5.630 -0.1014 -0.6738  0.0714
 3787TIP3    H111325   4.006   6.771   5.569  1.0236  1.1443  0.2493
 3787TIP3    H211326   4.024   6.740   5.716  0.9519  1.4087  0.3151
 3788TIP3   OH211327   5.092   3.660   4.893 -0.0286 -0.1057  0.2646
 3788TIP3    H111328   5.060   3.682   4.806 -1.4318  1.7304  1.1623
 3788TIP3    H211329   5.069   3.568   4.905  0.1598 -0.3818 -1.2567
 3789TIP3   OH211330   0.358   1.182   0.518  0.6761 -0.1897 -0.4962
 3789TIP3    H111331   0.439   1.229   0.541  0.7930 -0.5368 -0.1775
 3789TIP3    H211332   0.320   1.232   0.446 -0.2437  1.5754  1.1314
 3790TIP3   OH211333   6.444   2.028   0.018  0.0014 -0.3354  0.0856
 3790TIP3    H111334   6.533   2.033   0.054 -0.5641 -1.6421  1.7591
 3790TIP3    H211335   6.438   1.940  -0.019 -1.0823 -0.8764  1.4519
 3791TIP3   OH211336   4.083   0.704   2.055  0.4965  0.0157 -0.4030
 3791TIP3    H111337   3.993   0.732   2.071  0.7684  0.6353  0.0724
 3791TIP3    H211338   4.128   0.720   2.138  0.5440 -2.3665  0.1191
 3792TIP3   OH211339   0.447   1.949   2.723 -0.8144 -0.6168 -0.1317
 3792TIP3    H111340   0.399   2.026   2.692  1.6303  0.6528 -0.9982
 3792TIP3    H211341   0.522   1.984   2.771 -0.6416 -2.5090  1.1170
 3793TIP3   OH211342   6.181   4.725   2.119 -0.5574  0.1598 -0.0223
 3793TIP3    H111343   6.256   4.718   2.178 -1.5170 -0.0812  1.2071
 3793TIP3    H211344   6.196   4.658   2.052 -0.2401 -0.6584  0.8594
 3794TIP3   OH211345   3.134   0.198   4.782  0.1709 -0.7517  0.1627
 3794TIP3    H111346   3.178   0.210   4.698 -0.2626 -0.5261 -0.0337
 3794TIP3    H211347   3.197   0.232   4.846 -0.2268  0.8012 -0.2204
 3795TIP3   OH211348   6.872   3.056   4.106  0.0638 -0.2422  0.0060
 3795TIP3    H111349   6.905   2.973   4.071  1.8848 -0.3446  1.8254
 3795TIP3    H211350   6.946   3.116   4.101 -0.8564  0.9327 -0.0827
 3796TIP3   OH211351   1.134   3.832   3.510 -0.5968  0.2344 -0.1243
 3796TIP3    H111352   1.087   3.915   3.509  1.4695  1.4794  0.1736
 3796TIP3    H211353   1.204   3.843   3.445 -2.4707 -2.7197 -2.9643
 3797TIP3   OH211354   0.914   6.630   5.558  0.7303  0.6848  0.2573
 3797TIP3    H111355   0.933   6.540   5.532  1.6973  0.7544  0.7021
 3797TIP3    H211356   0.996   6.676   5.548 -0.1402  1.9339 -1.5630
 3798TIP3   OH211357   2.872   3.965   2.429 -0.0635 -0.0881  0.0657
 3798TIP3    H111358   2.814   3.893   2.405  0.8068 -0.9853  0.6141
 3798TIP3    H211359   2.913   3.938   2.511  0.3451  0.9938  0.2377
 3799TIP3   OH211360   5.767   3.728   5.506  0.7504  0.5923  0.4993
 3799TIP3    H111361   5.688   3.733   5.559  0.7054 -0.5689  0.5633
 3799TIP3    H211362   5.772   3.636   5.479  1.5639  0.8567 -0.2853
 3800TIP3   OH211363   0.285   4.066   3.697 -0.8692 -0.0779  0.1033
 3800TIP3    H111364   0.351   3.998   3.710  0.0650  0.5869 -1.0239
 3800TIP3    H211365   0.309   4.109   3.616 -3.7086 -0.9229 -1.3373
 3801TIP3   OH211366   3.932   0.052   0.666 -0.0482 -0.2178  0.0844
 3801TIP3    H111367   4.015   0.014   0.638  0.8350  1.0030  0.9656
 3801TIP3    H211368   3.888   0.074   0.584  0.4153 -1.0055 -0.3944
 3802TIP3   OH211369   0.897   5.326   3.334 -0.3069  0.4471  0.4312
 3802TIP3    H111370   0.940   5.325   3.249  0.1746  0.8469  0.6660
 3802TIP3    H211371   0.830   5.394   3.327 -1.7965 -1.0131 -0.3499
 3803TIP3   OH211372   0.584   2.724   0.916 -0.1123  0.3552  0.0634
 3803TIP3    H111373   0.497   2.732   0.876 -0.3849 -1.2744  0.2567
 3803TIP3    H211374   0.572   2.662   0.988  1.4922 -1.1825 -0.9010
 3804TIP3   OH211375   0.208   5.034   3.018  0.3380  0.6713  0.1098
 3804TIP3    H111376   0.179   5.104   2.960  0.0700  1.8892  1.6477
 3804TIP3    H211377   0.271   5.076   3.077  0.8267 -0.5907  0.5205
 3805TIP3   OH211378   6.968   5.582   0.077  0.3781  0.1467 -0.1920
 3805TIP3    H111379   6.902   5.576   0.008  0.7395 -0.2740 -0.5038
 3805TIP3    H211380   7.008   5.495   0.079  0.6867  0.2990  0.2336
 3806TIP3   OH211381   2.200   2.510   4.264  0.0194 -0.1247  0.9389
 3806TIP3    H111382   2.127   2.525   4.205  1.2573 -0.5249 -0.7920
 3806TIP3    H211383   2.160   2.478   4.345 -1.6092 -2.6514 -0.7269
 3807TIP3   OH211384   6.255   6.479   5.591  0.6399 -0.2583  0.3659
 3807TIP3    H111385   6.336   6.520   5.560  0.5201  1.1878  1.7824
 3807TIP3    H211386   6.279   6.389   5.610  1.6037 -0.1792 -0.3945
 3808TIP3   OH211387   6.402   2.218   1.638 -0.1477 -0.3645 -0.0411
 3808TIP3    H111388   6.470   2.173   1.688  0.4037 -0.7245 -1.0748
 3808TIP3    H211389   6.450   2.283   1.586 -0.5208 -0.9196 -1.1100
 3809TIP3   OH211390   6.212   1.289   5.727  0.1375 -0.5878  0.6629
 3809TIP3    H111391   6.123   1.269   5.755 -0.5620 -0.3321 -1.2118
 3809TIP3    H211392   6.263   1.212   5.752 -0.7056 -0.9384  1.3423
 3810TIP3   OH211393   4.413   4.409   4.934  0.2200  0.1700  0.2216
 3810TIP3    H111394   4.331   4.373   4.968  0.9662 -0.7409  1.1280
 3810TIP3    H211395   4.480   4.347   4.962  1.2531  1.0070 -0.3155
 3811TIP3   OH211396   6.213   0.822   2.059 -0.2722  0.3161 -0.2036
 3811TIP3    H111397   6.255   0.856   1.981 -0.1814  0.7567  0.0334
 3811TIP3    H211398   6.190   0.732   2.037  1.2983 -0.1323 -0.1536
 3812TIP3   OH211399   3.407   3.111   2.097  0.5644 -0.3031  0.2194
 3812TIP3    H111400   3.459   3.116   2.017 -0.0527  1.8493 -0.1053
 3812TIP3    H211401   3.403   3.017   2.117  1.2288 -0.8423 -1.9168
 3813TIP3   OH211402   4.247   5.968   0.911  0.7392  0.0812  0.1949
 3813TIP3    H111403   4.179   5.960   0.844 -0.6467 -1.6721  1.7177
 3813TIP3    H211404   4.296   5.886   0.907  2.7389  1.2405 -0.7464
 3814TIP3   OH211405   0.793   3.974   1.283 -0.0358 -0.0800  0.1131
 3814TIP3    H111406   0.708   3.939   1.310 -0.0787 -0.0908 -0.0343
 3814TIP3    H211407   0.774   4.025   1.204  0.2823 -1.1267 -0.6710
 3815TIP3   OH211408   3.152   5.074   0.265  0.1020 -0.4029 -0.1107
 3815TIP3    H111409   3.078   5.020   0.294 -1.4650  0.9206 -1.4474
 3815TIP3    H211410   3.186   5.028   0.188  0.2330 -0.6374  0.0835
 3816TIP3   OH211411   4.918   1.418   4.782 -0.0890 -0.7071 -0.4755
 3816TIP3    H111412   4.952   1.388   4.866 -1.3588 -0.1603  0.2577
 3816TIP3    H211413   4.986   1.477   4.749  0.0982 -0.3380  0.5230
 3817TIP3   OH211414   6.652   1.221   2.607  0.0546  0.9699 -0.3175
 3817TIP3    H111415   6.561   1.250   2.617 -0.5738 -0.8079 -0.5035
 3817TIP3    H211416   6.669   1.167   2.684  0.8139  0.9352 -0.4987
 3818TIP3   OH211417   6.690   2.072   4.793 -1.0774 -0.0503 -0.3842
 3818TIP3    H111418   6.722   2.115   4.873 -1.5972  2.1687 -1.3008
 3818TIP3    H211419   6.770   2.058   4.741 -0.8080 -0.9691  0.2542
 3819TIP3   OH211420   4.496   3.252   5.086 -0.1311 -0.1406  0.1792
 3819TIP3    H111421   4.444   3.192   5.138  1.3256 -1.2316  0.4452
 3819TIP3    H211422   4.436   3.286   5.020 -2.3102  1.9974  3.0071
 3820TIP3   OH211423   5.464   0.323   2.115 -0.0877 -0.0780 -0.0458
 3820TIP3    H111424   5.395   0.266   2.149 -0.9305 -0.3485 -2.0379
 3820TIP3    H211425   5.472   0.393   2.179 -2.4623  0.1333  0.1029
 3821TIP3   OH211426   4.269   5.611   1.354  0.1948  0.2946  0.6808
 3821TIP3    H111427   4.229   5.537   1.309  1.0680  0.6398 -0.7359
 3821TIP3    H211428   4.352   5.578   1.388  0.2395  0.4338  0.7115
 3822TIP3   OH211429   1.409   1.743   3.929 -0.3087  0.2399 -0.0496
 3822TIP3    H111430   1.428   1.775   3.840 -1.5936 -1.7320 -1.1123
 3822TIP3    H211431   1.316   1.723   3.927 -1.0097  2.5706  2.6294
 3823TIP3   OH211432   6.826   5.398   5.601  0.3209 -0.2097 -0.6930
 3823TIP3    H111433   6.849   5.480   5.643 -2.6481  0.7079 -0.6130
 3823TIP3    H211434   6.905   5.372   5.553  1.5482  2.3408 -0.2045
 3824TIP3   OH211435   4.166   2.611   0.516  0.0471 -0.0668  0.3903
 3824TIP3    H111436   4.203   2.575   0.435  0.0349 -1.2940  0.9149
 3824TIP3    H211437   4.072   2.596   0.507 -0.1015  0.9249  0.1040
 3825TIP3   OH211438   3.296   0.639   0.877  0.3345  0.7072 -0.0287
 3825TIP3    H111439   3.267   0.716   0.927 -0.6527 -0.4532  1.2356
 3825TIP3    H211440   3.304   0.672   0.787  0.2386  2.3568  0.5200
 3826TIP3   OH211441   6.244   3.339   0.376  0.4670  0.0216  0.2175
 3826TIP3    H111442   6.162   3.388   0.370  0.3765 -0.1862 -0.3474
 3826TIP3    H211443   6.297   3.389   0.437  0.4974  1.0140 -0.5897
 3827TIP3   OH211444   1.422   3.440   3.968 -0.1026  0.3204 -0.8025
 3827TIP3    H111445   1.437   3.357   4.012  0.8447  1.0006  0.2061
 3827TIP3    H211446   1.501   3.454   3.916  0.5542  1.4119  0.4245
 3828TIP3   OH211447   1.200   1.509   4.065  0.1041  0.8516  0.6553
 3828TIP3    H111448   1.187   1.602   4.084 -1.3049  0.4374  1.9123
 3828TIP3    H211449   1.182   1.465   4.148  1.3915 -0.5139  0.2421
 3829TIP3   OH211450   7.210   5.528   1.194  0.3404 -0.5514  0.0682
 3829TIP3    H111451   7.207   5.530   1.098  1.7439  0.3767  0.0175
 3829TIP3    H211452   7.125   5.562   1.221  0.3831  0.3330 -0.8559
 3830TIP3   OH211453   1.849   3.681   4.899  0.2330  0.2584 -0.0945
 3830TIP3    H111454   1.931   3.648   4.862  0.2612  0.6682 -0.4118
 3830TIP3    H211455   1.782   3.620   4.868  0.1887  0.8677 -1.2464
 3831TIP3   OH211456   5.825   4.916   3.288 -0.0758  0.3842 -0.2577
 3831TIP3    H111457   5.778   4.865   3.354  0.6296  1.5719  1.2042
 3831TIP3    H211458   5.901   4.861   3.266  1.3238  1.2129  2.1741
 3832TIP3   OH211459   4.223   4.497   1.016  0.6861 -0.1244  0.0417
 3832TIP3    H111460   4.312   4.526   1.036  0.5618 -0.5985  1.3374
 3832TIP3    H211461   4.194   4.452   1.095 -0.8622  0.3887 -0.2109
 3833TIP3   OH211462   6.233   1.084   3.847  0.3018 -0.0587 -0.2905
 3833TIP3    H111463   6.183   1.103   3.767  1.1904  3.3101 -0.1978
 3833TIP3    H211464   6.168   1.085   3.917 -0.2005 -0.9838 -0.7288
 3834TIP3   OH211465   6.426   5.045   5.562  0.8730 -1.2051 -0.0793
 3834TIP3    H111466   6.358   5.040   5.495 -0.5294 -0.5759  1.2436
 3834TIP3    H211467   6.505   5.072   5.515 -0.8432  2.9228 -1.0475
 3835TIP3   OH211468   5.433   4.277   2.695 -0.0484 -0.2150  0.4858
 3835TIP3    H111469   5.383   4.358   2.682  0.3513  0.0204  0.3851
 3835TIP3    H211470   5.519   4.307   2.724 -0.2345 -0.6479  1.5469
 3836TIP3   OH211471   5.965   3.204   5.740 -0.2698  0.2763 -0.1661
 3836TIP3    H111472   6.044   3.195   5.793 -1.1654  0.2796  1.2058
 3836TIP3    H211473   5.967   3.294   5.710 -1.0062  1.0569  1.9697
 3837TIP3   OH211474   4.920   5.677   1.646  0.5347 -0.1169 -0.0651
 3837TIP3    H111475   4.906   5.623   1.568 -0.3877 -0.3540  0.2547
 3837TIP3    H211476   4.843   5.662   1.700  0.6883  0.8230  0.4416
 3838TIP3   OH211477   1.148   4.212   3.982 -0.5727 -0.3485 -0.2014
 3838TIP3    H111478   1.200   4.209   3.902 -0.1333 -2.2672  0.1123
 3838TIP3    H211479   1.117   4.123   3.994 -1.3931  0.1023  1.2925
 3839TIP3   OH211480   0.945   5.903   1.827 -0.3826  0.3796  0.1122
 3839TIP3    H111481   0.984   5.953   1.899 -0.8806  1.6346 -0.4628
 3839TIP3    H211482   0.856   5.885   1.857 -0.4714  0.5793 -0.0289
 3840TIP3   OH211483   4.380   5.069   1.247  0.3636 -0.7007 -0.5572
 3840TIP3    H111484   4.355   5.088   1.338  1.1857 -0.0261 -0.4635
 3840TIP3    H211485   4.302   5.090   1.196  0.3606  0.3402 -0.1515
 3841TIP3   OH211486   0.981   4.399   1.787 -0.4019 -0.3033  0.4448
 3841TIP3    H111487   0.958   4.373   1.698 -0.1705 -0.4199  0.4183
 3841TIP3    H211488   1.077   4.401   1.787 -0.4089  0.1875  0.5489
 3842TIP3   OH211489   4.287   3.656   2.754  0.3994 -0.3273 -0.4467
 3842TIP3    H111490   4.265   3.748   2.765 -0.6815 -0.6423  0.1889
 3842TIP3    H211491   4.383   3.654   2.746  0.3377  0.9944 -2.1109
 3843TIP3   OH211492   4.234   5.891   5.776  0.2760 -0.2580 -0.0372
 3843TIP3    H111493   4.283   5.962   5.735  0.1971 -1.1599 -1.7771
 3843TIP3    H211494   4.198   5.930   5.856  0.4555  1.5754 -0.8012
 3844TIP3   OH211495   3.383   1.798   5.006  0.3854  0.5794  0.2911
 3844TIP3    H111496   3.383   1.821   4.913  1.4768  2.0833  0.6291
 3844TIP3    H211497   3.474   1.808   5.034  0.3462 -1.2403  1.2187
 3845TIP3   OH211498   3.204   4.395   0.105  0.0255 -0.2644  0.0861
 3845TIP3    H111499   3.238   4.435   0.186 -0.7976  0.0975  0.2616
 3845TIP3    H211500   3.115   4.368   0.128  0.0291 -0.7898 -0.5038
 3846TIP3   OH211501   3.867   1.417   4.765 -0.0359  0.6005 -0.2538
 3846TIP3    H111502   3.948   1.461   4.738 -1.3923  1.8827 -2.5709
 3846TIP3    H211503   3.798   1.483   4.751 -1.6652 -0.9383  0.1537
 3847TIP3   OH211504   2.948   1.169   4.807  0.2049  0.0720 -0.3588
 3847TIP3    H111505   2.943   1.081   4.843 -0.6412 -0.0916 -0.8497
 3847TIP3    H211506   2.956   1.156   4.712 -0.7019  0.5226 -0.5062
 3848TIP3   OH211507   4.721   3.468   4.548 -0.0610 -0.3583 -0.6568
 3848TIP3    H111508   4.743   3.539   4.488  0.6989  0.7914  0.9270
 3848TIP3    H211509   4.765   3.391   4.511  1.0560  0.4935 -1.1355
 3849TIP3   OH211510   0.951   2.383   3.940  0.1248  0.3863 -0.0595
 3849TIP3    H111511   0.888   2.387   3.869  0.1754 -0.8346 -0.2020
 3849TIP3    H211512   1.031   2.422   3.905  0.5266 -1.2752 -1.1309
 3850TIP3   OH211513   2.845   3.443   4.513 -0.0716 -0.4606  0.1884
 3850TIP3    H111514   2.786   3.392   4.569 -0.9948  0.1293 -0.2239
 3850TIP3    H211515   2.840   3.532   4.547  1.9728 -0.7126  1.2597
 3851TIP3   OH211516   0.682   2.658   5.652  0.3390  0.8892 -0.1384
 3851TIP3    H111517   0.727   2.590   5.601 -0.8860  0.5868 -0.8426
 3851TIP3    H211518   0.601   2.675   5.604 -0.6342  0.9382  1.4374
 3852TIP3   OH211519   0.093   5.901   2.849  0.6472 -0.2796 -0.5753
 3852TIP3    H111520   0.078   5.904   2.754  0.3513  0.1641 -0.5203
 3852TIP3    H211521   0.006   5.891   2.886  0.8674 -1.7431 -0.3852
 3853TIP3   OH211522   2.381   0.935   4.036  0.0294  0.3398  0.7813
 3853TIP3    H111523   2.359   0.966   4.124 -1.7703 -0.6584  0.7371
 3853TIP3    H211524   2.459   0.881   4.048 -0.2841  0.0900  1.8045
 3854TIP3   OH211525   5.807   1.918   1.615 -0.2157  0.5397  0.1168
 3854TIP3    H111526   5.770   1.981   1.552 -0.5200 -0.1025 -0.3547
 3854TIP3    H211527   5.732   1.874   1.653  0.0122  0.1190  0.0870
 3855TIP3   OH211528   2.521   4.548   5.057 -0.2646  0.2877 -0.2585
 3855TIP3    H111529   2.590   4.552   4.991 -1.1361  1.3658 -1.1466
 3855TIP3    H211530   2.545   4.616   5.120  0.5364 -0.7020  0.5311
 3856TIP3   OH211531   0.465   3.766   4.969 -0.2451 -0.0345 -0.0731
 3856TIP3    H111532   0.526   3.781   5.040 -1.7789  0.1036  1.2719
 3856TIP3    H211533   0.421   3.851   4.957 -1.0124 -0.4414 -0.1966
 3857TIP3   OH211534   0.616   0.558   3.905 -0.0740  0.8094 -0.0051
 3857TIP3    H111535   0.703   0.577   3.871  0.4442 -1.0930  0.1502
 3857TIP3    H211536   0.568   0.522   3.831  0.2781 -1.0421  0.6303
 3858TIP3   OH211537   4.318   5.891   1.848 -0.2245  0.4248  0.0785
 3858TIP3    H111538   4.397   5.849   1.814 -0.7602 -1.7510  1.3329
 3858TIP3    H211539   4.337   5.985   1.843  1.3550  0.0621 -2.1278
 3859TIP3   OH211540   0.625   4.785   1.014  0.3909 -0.9956 -0.6975
 3859TIP3    H111541   0.654   4.867   0.976  0.7262 -0.9306 -0.3068
 3859TIP3    H211542   0.696   4.723   0.996  0.5027 -0.9917 -0.2745
 3860TIP3   OH211543   0.798   6.668   2.514 -0.3069  0.2085  1.0649
 3860TIP3    H111544   0.887   6.631   2.514  0.0469  0.9948  1.9310
 3860TIP3    H211545   0.741   6.594   2.496  0.5926 -0.1157 -0.6254
 3861TIP3   OH211546   1.593   3.688   3.533  0.4727  0.2792 -0.2399
 3861TIP3    H111547   1.603   3.629   3.607  1.3328  1.3119  0.4996
 3861TIP3    H211548   1.669   3.669   3.477  0.8604  0.7914  0.0974
 3862TIP3   OH211549   2.887   0.336   1.159  0.2530 -0.4913 -0.7371
 3862TIP3    H111550   2.817   0.299   1.213  2.2321  1.6130  3.7373
 3862TIP3    H211551   2.850   0.417   1.125  0.1675  0.1106  0.7521
 3863TIP3   OH211552   4.644   3.989   5.109 -0.3166 -0.2858 -0.9453
 3863TIP3    H111553   4.698   3.911   5.124 -1.7568 -0.9585  1.2668
 3863TIP3    H211554   4.675   4.052   5.174 -2.2494 -0.7928  0.5875
 3864TIP3   OH211555   3.732   2.604   1.782  0.0843  0.3557 -0.0663
 3864TIP3    H111556   3.708   2.530   1.838 -3.0566  0.4718 -1.0409
 3864TIP3    H211557   3.820   2.584   1.751 -1.0459 -3.7108 -1.2897
 3865TIP3   OH211558   1.088   5.906   3.938  0.4012  0.2487 -0.4710
 3865TIP3    H111559   1.097   5.937   3.848  1.2057 -0.5344 -0.6645
 3865TIP3    H211560   1.165   5.852   3.953 -0.3454 -0.6433  0.2717
 3866TIP3   OH211561   0.775   5.140   2.158 -0.4723  0.0480 -0.5546
 3866TIP3    H111562   0.739   5.146   2.246  0.1368  1.3861 -0.3722
 3866TIP3    H211563   0.821   5.222   2.145  0.2998 -0.5377 -1.7558
 3867TIP3   OH211564   5.395   5.796   3.496  0.0806 -0.3255  0.7314
 3867TIP3    H111565   5.337   5.788   3.571  0.0401 -0.2653  0.7070
 3867TIP3    H211566   5.481   5.812   3.534  0.0025  0.0343  0.7573
 3868TIP3   OH211567   4.737   1.504   1.738  0.0634  0.9364 -0.4600
 3868TIP3    H111568   4.800   1.477   1.672 -2.0209 -3.7255 -0.9929
 3868TIP3    H211569   4.775   1.473   1.821 -0.6873 -0.3552 -0.5723
 3869TIP3   OH211570   5.367   3.839   3.950  0.2306 -0.0921 -0.4442
 3869TIP3    H111571   5.441   3.854   3.891 -0.3103  0.7942 -0.9310
 3869TIP3    H211572   5.324   3.761   3.914 -0.3002  0.6514 -1.4626
 3870TIP3   OH211573   6.796   1.097   4.191  0.0950  0.1290  0.0602
 3870TIP3    H111574   6.785   1.150   4.270  1.3294  1.5960 -0.6856
 3870TIP3    H211575   6.872   1.041   4.209  0.0242  0.0525  0.1211
 3871TIP3   OH211576   4.880   0.527   1.777  0.4901 -0.1638  0.1055
 3871TIP3    H111577   4.845   0.614   1.756 -0.4025 -0.6208 -0.3716
 3871TIP3    H211578   4.847   0.508   1.865  0.2941 -0.2150  0.0211
 3872TIP3   OH211579   6.493   6.756   3.135 -0.6737 -0.3393  0.3165
 3872TIP3    H111580   6.442   6.819   3.186 -0.2352  1.5483 -1.4299
 3872TIP3    H211581   6.573   6.745   3.185 -1.0288 -0.0105  0.9810
 3873TIP3   OH211582   3.817   6.224   3.260 -0.7505  0.3583  0.0833
 3873TIP3    H111583   3.910   6.209   3.274 -0.9963  0.7093  2.5720
 3873TIP3    H211584   3.773   6.175   3.330 -2.3835  0.8451 -0.5374
 3874TIP3   OH211585   1.021   4.787   2.874 -0.7008 -0.2299 -0.1602
 3874TIP3    H111586   1.033   4.821   2.786 -0.1083 -0.3111 -0.1187
 3874TIP3    H211587   0.944   4.833   2.908 -2.5051 -2.0309 -1.6119
 3875TIP3   OH211588  -0.020   3.154   1.784 -0.3886  0.2350 -0.2683
 3875TIP3    H111589  -0.036   3.108   1.701 -1.0207  1.8543 -1.0813
 3875TIP3    H211590   0.073   3.177   1.781  0.2653 -1.9861  0.7163
 3876TIP3   OH211591   4.239   0.040   5.717 -0.5545 -0.1327 -0.1146
 3876TIP3    H111592   4.169  -0.004   5.765 -1.3514  0.3040 -0.8313
 3876TIP3    H211593   4.195   0.113   5.673  0.4077  0.3110 -0.3710
 3877TIP3   OH211594   3.828   1.498   0.294  0.3608 -0.1102 -0.5543
 3877TIP3    H111595   3.901   1.455   0.248  1.1183 -1.5291  1.8231
 3877TIP3    H211596   3.783   1.426   0.339 -0.6278  1.1436  0.5206
 3878TIP3   OH211597   6.526   6.604   0.647  0.3137  0.1868  0.5881
 3878TIP3    H111598   6.543   6.561   0.731  2.1264 -0.6649 -0.1351
 3878TIP3    H211599   6.437   6.637   0.654 -1.7010 -4.4940  0.9483
 3879TIP3   OH211600   2.306   4.882   1.734 -0.0386  0.2958  0.3122
 3879TIP3    H111601   2.303   4.956   1.795  1.7378 -0.1829  1.0613
 3879TIP3    H211602   2.335   4.809   1.789  0.4755 -0.4168 -0.8896
 3880TIP3   OH211603   1.635   1.504   5.565 -0.2175 -0.3305  0.3031
 3880TIP3    H111604   1.667   1.476   5.650 -0.3521  0.7988  0.7504
 3880TIP3    H211605   1.603   1.593   5.580 -0.7709 -0.3261 -0.8007
 3881TIP3   OH211606   3.846   2.110   2.415  0.1671 -0.2990  0.2511
 3881TIP3    H111607   3.927   2.142   2.453  0.5269 -1.0216  0.1166
 3881TIP3    H211608   3.778   2.164   2.453  0.7620  0.6976 -0.0709
 3882TIP3   OH211609   4.354   0.545   3.093 -0.1425 -0.0094  0.6610
 3882TIP3    H111610   4.304   0.601   3.152  0.3743  1.4017 -0.2075
 3882TIP3    H211611   4.380   0.602   3.021  2.3782 -0.7801  0.8801
 3883TIP3   OH211612   2.557   5.004   5.411  0.1507  0.0280  0.6723
 3883TIP3    H111613   2.579   5.061   5.485  0.8985  0.4283  0.1548
 3883TIP3    H211614   2.631   5.012   5.351  1.6669 -3.6509  1.7815
 3884TIP3   OH211615   4.618   0.683   2.950 -0.0895  0.0503  0.7395
 3884TIP3    H111616   4.639   0.774   2.930  0.8078 -0.4984 -1.0682
 3884TIP3    H211617   4.688   0.655   3.009 -1.1625  0.8933  2.4821
 3885TIP3   OH211618   0.089   3.419   1.564 -0.2754  0.2385 -0.6438
 3885TIP3    H111619   0.136   3.439   1.483 -0.2992 -0.5196 -0.8559
 3885TIP3    H211620   0.001   3.395   1.536  0.1755 -1.6809 -0.5754
 3886TIP3   OH211621   1.276   4.346   2.125  0.2745  0.0494 -0.2447
 3886TIP3    H111622   1.359   4.299   2.131  0.1731 -0.0587  0.4674
 3886TIP3    H211623   1.298   4.432   2.089  0.7293  0.0992  0.1468
 3887TIP3   OH211624   6.433   3.492   3.841 -0.1838 -0.1905 -0.1591
 3887TIP3    H111625   6.360   3.463   3.785  0.6232 -1.6587 -0.5139
 3887TIP3    H211626   6.474   3.410   3.870 -0.5000  0.5220  2.5310
 3888TIP3   OH211627   4.016   0.238   3.466  0.1220  0.0047 -0.0071
 3888TIP3    H111628   4.000   0.159   3.414 -1.1867  0.3461 -0.1782
 3888TIP3    H211629   4.109   0.255   3.456  0.3947 -1.4164 -0.1081
 3889TIP3   OH211630   6.818   1.212   4.430  0.2857  0.0061  0.5343
 3889TIP3    H111631   6.741   1.267   4.449 -0.5397 -1.3959  1.4565
 3889TIP3    H211632   6.796   1.127   4.468  1.1201 -1.2704 -1.6690
 3890TIP3   OH211633   0.363   0.329   4.301 -0.3082 -0.0476 -0.5444
 3890TIP3    H111634   0.273   0.317   4.332 -1.0211 -1.4882 -2.8671
 3890TIP3    H211635   0.411   0.254   4.336  1.0504  2.4528  3.6332
 3891TIP3   OH211636   0.091   2.665   5.536 -0.3742  0.1570 -0.1066
 3891TIP3    H111637   0.015   2.723   5.547  0.4936  1.2117  0.5478
 3891TIP3    H211638   0.155   2.719   5.488  0.5236 -0.1936  0.6806
 3892TIP3   OH211639   1.837   4.912   5.547  0.1510 -0.0961 -0.2224
 3892TIP3    H111640   1.919   4.919   5.497  0.9878 -0.8652  0.9811
 3892TIP3    H211641   1.794   4.996   5.533  0.9264  0.1557 -1.2596
 3893TIP3   OH211642   0.746   0.010   5.565 -0.0392  0.3266 -0.2716
 3893TIP3    H111643   0.686   0.019   5.640 -1.3523 -1.9238 -0.9567
 3893TIP3    H211644   0.832  -0.004   5.605 -0.8608 -1.9188  0.9514
 3894TIP3   OH211645   4.637   0.665   4.466 -0.0939 -0.1801  0.4243
 3894TIP3    H111646   4.728   0.693   4.451 -0.9651  2.1162 -0.9795
 3894TIP3    H211647   4.599   0.735   4.518 -1.3274 -0.6417  0.1636
 3895TIP3   OH211648   0.284   3.445   5.191 -0.3361 -0.0440 -0.1979
 3895TIP3    H111649   0.371   3.470   5.222 -0.5248 -0.2087  0.4791
 3895TIP3    H211650   0.232   3.434   5.271 -0.8438 -0.4485 -0.5774
 3896TIP3   OH211651   4.592   2.595   3.314  0.2175  0.1010 -0.2198
 3896TIP3    H111652   4.520   2.535   3.330  0.3320  0.1735  0.6158
 3896TIP3    H211653   4.557   2.661   3.255 -0.3190 -0.0141 -0.0287
 3897TIP3   OH211654   4.566   1.511   1.427 -0.1027 -0.6320  0.3452
 3897TIP3    H111655   4.542   1.419   1.414 -1.8941  0.1936 -3.3934
 3897TIP3    H211656   4.504   1.542   1.493 -0.4261 -1.7555  0.5980
 3898TIP3   OH211657   4.250   6.240   1.169  0.4328  0.0916 -0.0115
 3898TIP3    H111658   4.223   6.325   1.134 -0.6348 -0.7204 -1.2423
 3898TIP3    H211659   4.214   6.176   1.107  1.7818 -1.2364  0.5224
 3899TIP3   OH211660   0.092   3.229   3.840 -0.1897  0.0883 -0.3525
 3899TIP3    H111661   0.153   3.171   3.795  0.7801  1.1900 -0.4815
 3899TIP3    H211662   0.146   3.284   3.897 -1.0646  0.9820 -0.3403
 3900TIP3   OH211663   6.400   5.408   0.129  0.4569 -0.0332 -0.7578
 3900TIP3    H111664   6.480   5.381   0.173 -0.1856 -1.5804 -0.4593
 3900TIP3    H211665   6.412   5.501   0.112  1.8014  0.0286  0.3478
 3901TIP3   OH211666   4.010   5.327   0.798 -0.1710 -0.1866  0.6062
 3901TIP3    H111667   3.945   5.396   0.791  0.3731  0.2908  0.1562
 3901TIP3    H211668   3.998   5.273   0.719  0.3020  0.1993  0.2611
 3902TIP3   OH211669   4.826   3.737   0.341  0.2000 -0.1777 -0.6682
 3902TIP3    H111670   4.854   3.819   0.382 -3.3954  0.1457  1.5173
 3902TIP3    H211671   4.857   3.669   0.401 -2.1588  0.1028  1.0191
 3903TIP3   OH211672   1.087   2.984   5.435  0.1340 -0.2702 -0.2799
 3903TIP3    H111673   1.078   3.024   5.348  0.4384  0.7037  0.1160
 3903TIP3    H211674   1.050   2.896   5.425 -2.3355  0.7314 -0.7101
 3904TIP3   OH211675   0.544   5.385   3.373  0.2252 -0.1562 -0.3682
 3904TIP3    H111676   0.566   5.333   3.295  0.7948  0.5759 -0.7198
 3904TIP3    H211677   0.627   5.393   3.420  0.4094  1.3129 -0.8792
 3905TIP3   OH211678   4.276   4.473   0.447 -0.0046 -0.6809 -0.5801
 3905TIP3    H111679   4.327   4.536   0.396 -0.5714 -0.3306 -0.7179
 3905TIP3    H211680   4.315   4.388   0.424 -2.1009 -0.9232 -3.9720
 3906TIP3   OH211681   0.048   5.184   0.350 -0.5547  0.0674  0.0665
 3906TIP3    H111682   0.070   5.258   0.407 -1.2664  0.1659  0.2261
 3906TIP3    H211683  -0.001   5.124   0.406  0.5665 -0.8495  0.1110
 3907TIP3   OH211684   0.205   6.625   1.703  0.3616 -0.6498 -0.2503
 3907TIP3    H111685   0.265   6.658   1.770  1.8879 -0.4540 -1.6544
 3907TIP3    H211686   0.177   6.540   1.736  1.2054 -0.6316  0.5719
 3908TIP3   OH211687   3.798   4.807   5.849  0.0419 -0.0071  0.0495
 3908TIP3    H111688   3.887   4.822   5.818  0.4239  0.1938  1.1937
 3908TIP3    H211689   3.775   4.887   5.896 -2.2706  1.6862 -3.4794
 3909TIP3   OH211690   5.635   3.515   1.782  0.3084  0.3796  0.0778
 3909TIP3    H111691   5.731   3.511   1.782  0.3018 -0.4191 -1.2689
 3909TIP3    H211692   5.612   3.532   1.691 -0.8512 -0.0829  0.2722
 3910TIP3   OH211693   2.482   2.507   5.222  0.4264  0.2696 -0.3171
 3910TIP3    H111694   2.505   2.448   5.294  1.5432  1.6884  0.5216
 3910TIP3    H211695   2.515   2.462   5.144 -0.8138 -1.2953 -0.0024
 3911TIP3   OH211696   6.882   4.646   4.155  0.2465  0.1332  0.3489
 3911TIP3    H111697   6.800   4.643   4.106  0.3551  2.3172 -0.0629
 3911TIP3    H211698   6.913   4.555   4.155 -0.1441 -0.1267 -2.9689
 3912TIP3   OH211699   5.267   3.392   4.968  0.5503 -0.3623  0.1569
 3912TIP3    H111700   5.182   3.361   4.935  0.6897 -1.4503  0.7687
 3912TIP3    H211701   5.258   3.387   5.063  0.4007  2.0434  0.3405
 3913TIP3   OH211702   5.619   6.376   5.541  0.0413  0.0997  0.7575
 3913TIP3    H111703   5.640   6.293   5.499 -0.3888  0.5388 -0.3625
 3913TIP3    H211704   5.653   6.443   5.482  0.1654  0.7366  1.5229
 3914TIP3   OH211705   2.065   6.715   0.893 -0.0089  0.3025 -0.0798
 3914TIP3    H111706   1.972   6.722   0.873  0.1415  0.2824 -0.7867
 3914TIP3    H211707   2.090   6.803   0.924 -0.3110  0.2462  0.3242
 3915TIP3   OH211708   6.463   4.931   5.113  0.3202  0.5350  0.6523
 3915TIP3    H111709   6.529   4.862   5.112 -0.3369 -0.1076 -0.2530
 3915TIP3    H211710   6.472   4.975   5.028  1.2441  2.1069  1.5033
 3916TIP3   OH211711   0.772   5.436   0.797 -0.7669  0.0405  0.5102
 3916TIP3    H111712   0.741   5.445   0.887  0.6864  2.6724  0.8494
 3916TIP3    H211713   0.727   5.507   0.749 -0.0111 -0.0560 -0.3618
 3917TIP3   OH211714   0.836   5.669   5.346  0.2461 -1.1311  0.3974
 3917TIP3    H111715   0.864   5.743   5.399 -0.1634 -1.5547  1.2157
 3917TIP3    H211716   0.861   5.693   5.257 -1.8696  1.0170  0.2608
 3918TIP3   OH211717   1.722   1.716   1.590  0.2346 -0.1332  0.2575
 3918TIP3    H111718   1.648   1.657   1.576 -0.1000  0.3731 -0.1219
 3918TIP3    H211719   1.764   1.684   1.670 -0.0322 -0.7922  0.1337
 3919TIP3   OH211720   7.104   4.717   3.035  0.0786 -0.1343 -0.1958
 3919TIP3    H111721   7.156   4.720   3.115 -0.3700 -0.0572  0.0988
 3919TIP3    H211722   7.165   4.687   2.967  0.6075  0.3679  0.0555
 3920TIP3   OH211723   5.962   3.510   5.376 -0.0184 -0.0592  0.5004
 3920TIP3    H111724   6.013   3.471   5.446  1.1366 -0.0609 -0.3118
 3920TIP3    H211725   5.872   3.507   5.407  0.4443 -0.2274  1.8925
 3921TIP3   OH211726   3.726   1.490   1.277 -0.2517  0.2559  0.3734
 3921TIP3    H111727   3.746   1.446   1.194  0.3270  0.3646  0.4509
 3921TIP3    H211728   3.641   1.454   1.303 -0.2579 -0.0643 -0.0730
 3922TIP3   OH211729   1.389   3.178   0.648 -0.2947  0.0073  0.0384
 3922TIP3    H111730   1.394   3.148   0.739 -0.7539 -1.6044 -0.4334
 3922TIP3    H211731   1.298   3.205   0.637 -0.9783 -2.2617 -0.5998
 3923TIP3   OH211732   0.004   1.761   3.490 -0.1362 -0.0701  0.3351
 3923TIP3    H111733  -0.035   1.846   3.473 -1.2713 -1.1293 -3.2114
 3923TIP3    H211734   0.074   1.753   3.425  2.5555 -0.4449  3.0409
 3924TIP3   OH211735   1.722   6.620   1.127  0.1030  0.1527  0.4052
 3924TIP3    H111736   1.675   6.541   1.153 -1.4302  1.4191  1.7692
 3924TIP3    H211737   1.809   6.610   1.165  0.2305 -1.2551 -0.2121
 3925TIP3   OH211738   3.973   2.145   4.424 -0.0075 -0.2855 -0.0743
 3925TIP3    H111739   3.975   2.108   4.512 -1.2488 -1.1934 -0.3943
 3925TIP3    H211740   3.892   2.196   4.421  0.3290  0.2316 -0.5076
 3926TIP3   OH211741   1.470   3.159   2.830 -0.3425  0.1933  0.1530
 3926TIP3    H111742   1.476   3.166   2.735 -0.0436 -0.3962  0.1244
 3926TIP3    H211743   1.377   3.146   2.848 -0.3569 -0.0355 -0.0839
 3927TIP3   OH211744   1.334   4.909   2.814  0.1524  0.2948  0.0871
 3927TIP3    H111745   1.294   4.947   2.736 -1.1583 -0.2965  0.4466
 3927TIP3    H211746   1.260   4.876   2.866  1.0499 -0.0620  1.1867
 3928TIP3   OH211747   2.496   3.565   3.368 -0.5868  0.2558  0.1026
 3928TIP3    H111748   2.543   3.490   3.330  0.3857  0.9311 -0.0597
 3928TIP3    H211749   2.555   3.598   3.436  0.5400  2.8225 -1.9348
 3929TIP3   OH211750   0.695   1.711   3.230 -0.4299  0.1807  0.0525
 3929TIP3    H111751   0.701   1.705   3.135 -0.8939 -0.2627  0.0430
 3929TIP3    H211752   0.604   1.688   3.250 -0.4980  0.8616  0.5592
 3930TIP3   OH211753   6.326   2.480   1.387  0.0565 -0.5328  0.2861
 3930TIP3    H111754   6.400   2.453   1.441 -0.0580 -1.0404  0.1911
 3930TIP3    H211755   6.342   2.439   1.302  1.1226  1.5907 -0.6410
 3931TIP3   OH211756   3.364   0.499   2.636  0.3015  0.4841 -0.0695
 3931TIP3    H111757   3.443   0.526   2.590  0.3636 -1.9367 -1.5689
 3931TIP3    H211758   3.381   0.408   2.661 -1.5192  0.3225  0.7335
 3932TIP3   OH211759   0.149   5.719   0.732 -0.2113  0.3044  0.6610
 3932TIP3    H111760   0.163   5.813   0.740  1.8609  0.2759 -1.5919
 3932TIP3    H211761   0.054   5.710   0.720 -0.4324  2.0919  0.7377
 3933TIP3   OH211762   0.343   4.923   2.521 -0.1961  0.6226  0.4258
 3933TIP3    H111763   0.352   4.996   2.582 -0.0801 -1.5830  3.2304
 3933TIP3    H211764   0.251   4.896   2.530 -0.0435 -0.0499  0.0006
 3934TIP3   OH211765   5.083   4.966   0.049  0.0973 -0.1264  0.1446
 3934TIP3    H111766   5.038   4.968   0.134  0.4560  2.7505  0.3715
 3934TIP3    H211767   5.175   4.954   0.071  0.3659  1.9570  0.3370
 3935TIP3   OH211768   6.455   4.630   2.805  0.0519  0.2650 -0.0629
 3935TIP3    H111769   6.472   4.541   2.838  1.5306  0.0618 -1.2613
 3935TIP3    H211770   6.362   4.629   2.783  0.1576 -1.1956 -0.6022
 3936TIP3   OH211771   5.317   3.854   5.317  0.0263  0.2413  0.1024
 3936TIP3    H111772   5.378   3.911   5.270  0.6679 -1.2030 -0.9240
 3936TIP3    H211773   5.259   3.821   5.248  1.3087 -2.3417  0.1130
 3937TIP3   OH211774   1.270   6.726   5.125  0.4037 -0.5213 -0.2400
 3937TIP3    H111775   1.197   6.747   5.067 -0.0262 -0.8351  0.1853
 3937TIP3    H211776   1.345   6.719   5.066  0.1567  0.1054 -0.6440
 3938TIP3   OH211777   3.421   4.694   4.196  0.0424  0.3484 -0.0273
 3938TIP3    H111778   3.331   4.726   4.204 -0.4030 -0.7316 -0.4463
 3938TIP3    H211779   3.411   4.601   4.174  1.2551 -0.2395  1.6806
 3939TIP3   OH211780   0.996   5.998   2.107  0.1703  0.0234  0.4364
 3939TIP3    H111781   0.976   5.954   2.189  0.1110 -0.2319  0.2861
 3939TIP3    H211782   1.091   6.001   2.103  0.1703  0.3441  0.6784
 3940TIP3   OH211783   5.781   1.469   3.463  0.0375 -0.5053  0.0291
 3940TIP3    H111784   5.812   1.417   3.390 -0.8642 -1.3368  0.2194
 3940TIP3    H211785   5.696   1.432   3.485  0.2115 -0.1659  1.3905
 3941TIP3   OH211786   4.757   4.506   5.478  0.2693  0.0014  0.0598
 3941TIP3    H111787   4.773   4.594   5.513  0.2237  0.4177 -0.9414
 3941TIP3    H211788   4.761   4.449   5.555 -0.9953  1.0260  0.9503
 3942TIP3   OH211789   5.891   0.980   3.392  0.6114  0.5288 -0.0850
 3942TIP3    H111790   5.800   1.001   3.412  0.3600  0.8303 -1.4364
 3942TIP3    H211791   5.924   0.935   3.470 -0.2416  1.7537  1.0251
 3943TIP3   OH211792   2.360   2.885   1.521 -0.8359 -0.1873 -0.0147
 3943TIP3    H111793   2.337   2.976   1.499 -2.5099  0.3107  3.1927
 3943TIP3    H211794   2.453   2.889   1.544 -0.1130  0.0298 -2.6454
 3944TIP3   OH211795   3.719   2.672   2.344  0.2781  0.3321  0.0509
 3944TIP3    H111796   3.697   2.765   2.342  0.5658  0.6688  3.9906
 3944TIP3    H211797   3.637   2.628   2.322 -0.0249  1.4771 -1.2670
 3945TIP3   OH211798   4.403   0.955   0.412 -0.0205 -0.1997 -0.2396
 3945TIP3    H111799   4.453   0.934   0.333  0.1181 -0.7667 -0.0102
 3945TIP3    H211800   4.340   1.020   0.384  0.2114 -0.1948 -0.7583
 3946TIP3   OH211801   6.513   0.258   4.808  0.4426  0.3079 -0.0033
 3946TIP3    H111802   6.431   0.260   4.759  0.5450  0.3869 -0.1709
 3946TIP3    H211803   6.489   0.220   4.893  0.1025  0.9510  0.1952
 3947TIP3   OH211804   4.485   3.690   3.844 -0.0536 -0.3207  0.0922
 3947TIP3    H111805   4.468   3.751   3.772 -1.5098 -1.1041 -0.2517
 3947TIP3    H211806   4.522   3.612   3.802 -1.5060 -1.0320  0.0809
 3948TIP3   OH211807   5.900   3.158   0.240  0.0505 -0.2786 -0.7439
 3948TIP3    H111808   5.894   3.071   0.200  1.3162 -0.4899 -0.5239
 3948TIP3    H211809   5.809   3.184   0.255 -0.3465 -1.7374 -0.4317
 3949TIP3   OH211810   1.660   4.588   1.650 -1.2350  0.3426  0.0659
 3949TIP3    H111811   1.692   4.600   1.561  0.6845  1.7524  0.8510
 3949TIP3    H211812   1.626   4.498   1.652 -0.7343  0.0634 -1.9057
 3950TIP3   OH211813   3.883   2.827   4.308  0.1005 -0.1919 -0.0271
 3950TIP3    H111814   3.800   2.779   4.304  0.4262 -0.7471 -0.4313
 3950TIP3    H211815   3.871   2.892   4.377  0.2126 -1.9790  1.7702
 3951TIP3   OH211816   4.830   4.369   0.756  0.1752 -0.4970  0.0220
 3951TIP3    H111817   4.740   4.366   0.787 -0.2296 -0.1861 -1.0687
 3951TIP3    H211818   4.823   4.398   0.664  1.4158  0.1832  0.1119
 3952TIP3   OH211819   0.540   2.365   0.780 -0.0638 -0.0222  0.2162
 3952TIP3    H111820   0.492   2.293   0.739 -1.8372  1.6258 -0.7611
 3952TIP3    H211821   0.551   2.338   0.871 -0.6385 -1.5249 -0.1315
 3953TIP3   OH211822   4.082   5.532   3.347 -0.2267  0.1693 -0.6249
 3953TIP3    H111823   4.106   5.582   3.425  2.5033 -2.4599  0.4086
 3953TIP3    H211824   3.995   5.498   3.366  0.4730 -0.6198  1.4543
 3954TIP3   OH211825   0.212   3.447   1.327  0.4123 -0.2430 -0.9515
 3954TIP3    H111826   0.151   3.510   1.289 -0.6454  1.0879  2.6046
 3954TIP3    H211827   0.288   3.449   1.268 -0.2935  3.0496 -1.9503
 3955TIP3   OH211828   5.637   3.481   0.611  0.0470 -0.2799  0.2935
 3955TIP3    H111829   5.698   3.498   0.539  0.0687 -3.1193 -0.4603
 3955TIP3    H211830   5.691   3.444   0.681 -0.6474 -2.3144 -0.1801
 3956TIP3   OH211831   3.982   1.745   4.511 -0.3412  0.3174  0.3928
 3956TIP3    H111832   4.051   1.779   4.454 -0.8567 -0.2370 -0.5850
 3956TIP3    H211833   4.026   1.681   4.567 -0.4100 -1.7258 -1.7446
 3957TIP3   OH211834   6.547   4.658   1.301  0.4828 -0.4630  0.4156
 3957TIP3    H111835   6.611   4.668   1.231  1.1258 -0.1208  1.0465
 3957TIP3    H211836   6.598   4.657   1.382 -0.1095 -2.3004  0.8176
 3958TIP3   OH211837   3.623   2.397   4.180  0.2368  0.0002 -0.0741
 3958TIP3    H111838   3.686   2.440   4.122  1.0622 -1.4905 -0.3216
 3958TIP3    H211839   3.667   2.393   4.265  0.2170 -0.4590 -0.0839
 3959TIP3   OH211840   1.702   0.509   5.151 -0.4423 -0.7414  0.5037
 3959TIP3    H111841   1.704   0.528   5.057  3.4819  0.2529  0.6410
 3959TIP3    H211842   1.718   0.415   5.157  0.3914 -0.6198  0.1919
 3960TIP3   OH211843   4.841   6.463   0.226  0.0595 -0.0593  0.7204
 3960TIP3    H111844   4.845   6.449   0.320  0.0071  1.8311  1.0310
 3960TIP3    H211845   4.795   6.546   0.215 -0.3699 -0.4788 -0.9985
 3961TIP3   OH211846   3.951   2.701   2.996 -0.3605  0.0004  0.0489
 3961TIP3    H111847   3.987   2.749   2.921 -0.1003  0.9970  0.7839
 3961TIP3    H211848   3.885   2.761   3.033  0.3634  0.0540  1.3181
 3962TIP3   OH211849   0.966   0.138   3.755  0.6084  0.2616 -0.1717
 3962TIP3    H111850   0.949   0.105   3.842 -1.2242 -0.3601 -0.7368
 3962TIP3    H211851   1.019   0.070   3.713  0.2550 -0.0976 -0.0285
 3963TIP3   OH211852   5.422   6.021   4.920  0.2459 -0.3784  0.6143
 3963TIP3    H111853   5.458   5.994   4.836  1.5272 -0.4404  1.1658
 3963TIP3    H211854   5.439   5.948   4.979 -1.6220 -0.7988  0.7076
 3964TIP3   OH211855   2.512   2.300   5.405  0.1206 -0.8205 -0.8874
 3964TIP3    H111856   2.442   2.253   5.450 -0.3640  0.4690 -0.2563
 3964TIP3    H211857   2.586   2.297   5.466 -0.9270  2.0452  0.6811
 3965TIP3   OH211858   4.304   1.029   1.541  0.1100 -0.2812  0.5073
 3965TIP3    H111859   4.396   1.028   1.517  0.3790 -1.9370  1.4397
 3965TIP3    H211860   4.268   1.107   1.498  2.0636  0.7401  0.6669
 3966TIP3   OH211861   1.744   3.072   1.300  0.1619 -0.5392  0.5715
 3966TIP3    H111862   1.811   3.133   1.333  1.6934 -1.2736 -1.0115
 3966TIP3    H211863   1.758   2.992   1.350  0.7682 -0.8249 -0.0407
 3967TIP3   OH211864   6.671   5.248   5.763  0.1809 -0.0112 -0.1334
 3967TIP3    H111865   6.708   5.305   5.696 -0.1906  0.3352 -0.0454
 3967TIP3    H211866   6.595   5.207   5.720 -0.4470  0.7008  0.2641
 3968TIP3   OH211867   3.792   4.175   3.432 -0.4147  0.5104  0.5945
 3968TIP3    H111868   3.757   4.087   3.446 -0.3837  0.4361  0.2346
 3968TIP3    H211869   3.886   4.161   3.419 -0.6270  0.4050 -1.0509
 3969TIP3   OH211870   5.270   2.646   5.828 -0.3317 -0.5792  1.0033
 3969TIP3    H111871   5.334   2.578   5.810 -0.7001 -0.1668 -2.7409
 3969TIP3    H211872   5.320   2.728   5.826 -0.7823 -0.2292 -2.2205
 3970TIP3   OH211873   5.113   3.082   4.253  0.4846 -0.2774  0.3656
 3970TIP3    H111874   5.188   3.074   4.312  1.7607 -1.4098 -1.3094
 3970TIP3    H211875   5.147   3.131   4.178 -1.1012  1.1599  0.5376
 3971TIP3   OH211876   5.241   6.297   4.599  0.2282 -0.5109 -0.1070
 3971TIP3    H111877   5.291   6.295   4.680 -0.8723  0.7657  0.6476
 3971TIP3    H211878   5.249   6.208   4.563  0.5552 -1.1580  1.5011
 3972TIP3   OH211879   4.836   5.823   5.816 -0.2138  0.5856  0.2710
 3972TIP3    H111880   4.838   5.919   5.817  2.8700  0.6397 -0.7155
 3972TIP3    H211881   4.853   5.798   5.907 -0.4636  0.9732  0.4270
 3973TIP3   OH211882   2.701   2.850   2.553 -0.0120  0.3146 -0.0548
 3973TIP3    H111883   2.608   2.839   2.534  0.0377 -0.4448  0.0974
 3973TIP3    H211884   2.744   2.781   2.503  0.4914  0.7616 -0.2548
 3974TIP3   OH211885   4.221   5.425   5.703  0.9203  0.3553  0.8728
 3974TIP3    H111886   4.155   5.435   5.771 -0.6138  0.9529 -0.6341
 3974TIP3    H211887   4.265   5.343   5.723 -2.0177 -1.4331  0.5387
 3975TIP3   OH211888   6.868   2.445   2.726  0.5734  0.3355  0.2946
 3975TIP3    H111889   6.823   2.455   2.643 -0.3138  0.8631  0.8202
 3975TIP3    H211890   6.906   2.531   2.744  1.0404  0.1343  0.2759
 3976TIP3   OH211891   5.609   2.919   3.685  0.3307  0.5621  0.1715
 3976TIP3    H111892   5.596   2.841   3.632 -0.3539  1.5899 -1.2348
 3976TIP3    H211893   5.546   2.982   3.651  1.2546  1.9218  0.8761
 3977TIP3   OH211894   7.178   2.014   2.665  0.0669 -0.4821  0.5139
 3977TIP3    H111895   7.219   1.978   2.744 -0.5705 -0.9711  0.6347
 3977TIP3    H211896   7.084   2.002   2.680 -0.0398 -1.1803 -0.6003
 3978TIP3   OH211897   5.785   4.339   0.585  0.2667 -0.1387  0.4230
 3978TIP3    H111898   5.723   4.397   0.540  0.7267  0.9603  1.1582
 3978TIP3    H211899   5.864   4.341   0.532  0.2313 -0.2210  0.3669
 3979TIP3   OH211900   0.327   2.586   5.691  0.5246 -0.1231 -0.5545
 3979TIP3    H111901   0.260   2.645   5.655  1.1379  0.6029 -0.5419
 3979TIP3    H211902   0.314   2.504   5.644  0.7440  0.5408 -1.8232
 3980TIP3   OH211903   5.275   3.529   3.409 -0.2080 -0.3498 -0.1682
 3980TIP3    H111904   5.234   3.552   3.493  0.7083  1.2538 -0.1136
 3980TIP3    H211905   5.262   3.607   3.355 -1.2865 -1.5743 -1.7398
 3981TIP3   OH211906   1.067   1.915   5.067  0.0821 -0.7530  0.6303
 3981TIP3    H111907   1.078   1.963   4.985  0.6863 -0.0741  1.1040
 3981TIP3    H211908   0.972   1.905   5.075 -0.0368  0.0176  0.3273
 3982TIP3   OH211909   1.301   0.205   3.920  0.1615  0.2533 -0.6073
 3982TIP3    H111910   1.277   0.114   3.903  0.8423 -0.5018  1.9657
 3982TIP3    H211911   1.361   0.200   3.994  0.2136  2.8113 -0.3965
 3983TIP3   OH211912   1.243   0.328   5.537  0.1357 -0.1533 -0.4763
 3983TIP3    H111913   1.323   0.276   5.537  0.1548 -0.1355 -1.2329
 3983TIP3    H211914   1.174   0.266   5.559  0.4362 -0.0200  0.9058
 3984TIP3   OH211915   5.797   4.074   0.102  0.3202 -0.7379 -0.4023
 3984TIP3    H111916   5.808   4.164   0.073  0.9953 -0.9495 -0.8398
 3984TIP3    H211917   5.746   4.032   0.032 -2.3023 -0.0787  1.0158
 3985TIP3   OH211918   5.522   0.026   3.196 -0.1028 -0.0259  0.5146
 3985TIP3    H111919   5.440   0.069   3.175 -2.6111 -3.9779  1.2288
 3985TIP3    H211920   5.521   0.016   3.291  1.5345  0.3262  0.6119
 3986TIP3   OH211921   5.063   2.453   2.040  0.1781  0.0217 -0.0333
 3986TIP3    H111922   5.093   2.490   1.957  0.9606 -0.2474  0.1268
 3986TIP3    H211923   5.140   2.412   2.078 -0.1310  0.3146  0.9337
 3987TIP3   OH211924   3.704   3.618   5.415 -0.5548  0.6949 -0.0375
 3987TIP3    H111925   3.719   3.542   5.472  0.2268  3.1026  3.2773
 3987TIP3    H211926   3.609   3.621   5.404 -0.7408  0.1969  1.2534
 3988TIP3   OH211927   2.847   0.336   3.653 -0.4102 -0.2281 -0.9309
 3988TIP3    H111928   2.866   0.408   3.592  0.3047  0.7121  0.3366
 3988TIP3    H211929   2.906   0.265   3.626  1.6344  0.9876  0.0111
 3989TIP3   OH211930   3.811   0.997   5.067 -0.6167  0.4064  0.3362
 3989TIP3    H111931   3.793   0.903   5.074 -0.4811  0.4983  2.6069
 3989TIP3    H211932   3.757   1.036   5.135  0.6864  1.7952  0.6110
 3990TIP3   OH211933   0.083   3.302   5.062 -0.3663 -0.1095  0.1839
 3990TIP3    H111934   0.133   3.382   5.081 -1.0410  0.7059 -1.3001
 3990TIP3    H211935  -0.008   3.327   5.079 -0.3493 -1.5786  2.8642
 3991TIP3   OH211936   1.433   5.773   3.155 -0.1133  0.0680 -0.4525
 3991TIP3    H111937   1.491   5.703   3.122  1.0184  1.0572 -0.6491
 3991TIP3    H211938   1.432   5.760   3.249  1.2546  0.6019 -0.3323
 3992TIP3   OH211939   4.077   1.491   2.432  0.7664 -0.1297 -0.0571
 3992TIP3    H111940   4.103   1.583   2.435  2.0547 -0.4518 -0.5076
 3992TIP3    H211941   3.984   1.493   2.408  0.4688  1.0651  1.0669
 3993TIP3   OH211942   4.443   2.943   4.819 -0.2351  0.2701  0.1049
 3993TIP3    H111943   4.455   2.862   4.768  1.1343  0.5875 -0.1117
 3993TIP3    H211944   4.390   2.999   4.762 -0.6777 -0.2414  0.0057
 3994TIP3   OH211945   5.414   4.868   3.694 -0.5313  0.0667 -0.2650
 3994TIP3    H111946   5.386   4.787   3.652 -2.2667  0.5899 -0.1928
 3994TIP3    H211947   5.426   4.930   3.622  2.6071 -0.6823 -0.5087
 3995TIP3   OH211948   4.724   4.263   3.389 -0.1693  0.4156  0.2097
 3995TIP3    H111949   4.775   4.330   3.434 -2.1818  1.7640  0.6023
 3995TIP3    H211950   4.724   4.290   3.297  2.3064 -1.2856 -0.4022
 3996TIP3   OH211951   0.075   4.543   0.324  0.3087 -0.1685  0.1148
 3996TIP3    H111952   0.072   4.636   0.301 -0.9315  0.0567  1.0936
 3996TIP3    H211953   0.096   4.542   0.417 -0.4183 -0.8363  0.2813
 3997TIP3   OH211954   6.608   2.018   1.758  0.2562  0.4952  0.9993
 3997TIP3    H111955   6.619   2.001   1.665  0.0873 -1.0156  1.2277
 3997TIP3    H211956   6.697   2.031   1.791  0.3242  0.8935  0.6617
 3998TIP3   OH211957   5.041   2.943   1.683 -0.2014  0.4598 -0.1642
 3998TIP3    H111958   5.135   2.959   1.686 -0.2480  0.5698  1.6579
 3998TIP3    H211959   5.002   3.027   1.659  0.0146  1.3152  2.1911
 3999TIP3   OH211960   6.047   5.989   1.247  0.6599  0.1284  0.0813
 3999TIP3    H111961   6.126   6.034   1.276  1.2826 -0.2260 -1.0226
 3999TIP3    H211962   6.072   5.948   1.164 -0.5270 -0.4320 -0.0126
 4000TIP3   OH211963   3.792   6.354   0.776  0.3910  0.1975 -0.0290
 4000TIP3    H111964   3.795   6.308   0.860  0.8535  1.1174  0.4695
 4000TIP3    H211965   3.878   6.396   0.769 -0.6442  2.5282  0.4190
 4001TIP3   OH211966   6.792   0.760   0.800  0.0755 -0.1448  0.4931
 4001TIP3    H111967   6.857   0.820   0.838  0.9785 -0.6863 -0.1481
 4001TIP3    H211968   6.817   0.754   0.707  0.1285 -1.6653  0.5849
 4002TIP3   OH211969   0.594   1.990   1.431  0.4156 -0.3799 -0.2614
 4002TIP3    H111970   0.577   2.047   1.506 -0.1894  0.7148 -1.1962
 4002TIP3    H211971   0.542   1.911   1.448 -2.1686  1.0754 -0.9047
 4003TIP3   OH211972   1.449   1.395   5.396 -0.0887 -0.0027 -0.1884
 4003TIP3    H111973   1.528   1.405   5.449  0.2707 -0.3236 -0.6571
 4003TIP3    H211974   1.377   1.419   5.455  0.2736 -0.7180  0.5680
 4004TIP3   OH211975   2.309   2.140   4.704  0.3618  0.4006 -0.0467
 4004TIP3    H111976   2.214   2.135   4.703  0.3532 -0.6395 -2.8590
 4004TIP3    H211977   2.329   2.229   4.674  0.2663  0.2329 -0.6091
 4005TIP3   OH211978   0.009   2.045   0.556 -0.4391 -0.4318 -0.2951
 4005TIP3    H111979   0.047   2.016   0.473  0.3105 -1.4019  0.3624
 4005TIP3    H211980  -0.015   1.964   0.601  0.5125 -0.0141  1.0381
 4006TIP3   OH211981   4.772   2.406   4.976 -0.0152  0.0507 -0.1347
 4006TIP3    H111982   4.685   2.415   4.939 -0.1575  0.0291  0.1898
 4006TIP3    H211983   4.782   2.311   4.990  0.3906 -0.0348 -0.9524
 4007TIP3   OH211984   0.487   2.928   5.105 -0.3863  0.2902 -0.1558
 4007TIP3    H111985   0.428   3.003   5.110 -1.0742 -0.2464  0.0081
 4007TIP3    H211986   0.521   2.930   5.016  1.2647  2.0065  0.4435
 4008TIP3   OH211987   1.320   2.843   2.219  0.1245 -0.8565 -0.2989
 4008TIP3    H111988   1.329   2.872   2.310 -0.6836 -0.1874 -0.4128
 4008TIP3    H211989   1.349   2.752   2.219  0.0050 -0.9048  0.6574
 4009TIP3   OH211990   4.147   6.224   5.247  0.8405 -0.1458  0.6304
 4009TIP3    H111991   4.226   6.252   5.202  0.5888  0.6326  0.6568
 4009TIP3    H211992   4.086   6.200   5.177  0.6333  0.5589  0.5606
 4010TIP3   OH211993   3.517   3.879   1.781  0.1469 -0.4602  0.1524
 4010TIP3    H111994   3.495   3.943   1.714 -0.6307 -1.4391 -0.5627
 4010TIP3    H211995   3.581   3.924   1.837 -0.5048  0.9866 -0.2085
 4011TIP3   OH211996   0.538   4.803   3.102  0.7685 -0.1940 -0.5127
 4011TIP3    H111997   0.508   4.740   3.036 -0.0206 -0.5334  0.1482
 4011TIP3    H211998   0.477   4.792   3.175  0.3205  1.6752 -0.5534
 4012TIP3   OH211999   4.567   3.359   2.373 -0.7865 -0.3225 -0.4643
 4012TIP3    H112000   4.490   3.415   2.378 -0.4445  0.3626 -2.1362
 4012TIP3    H212001   4.543   3.281   2.422 -1.2188  1.2920  2.0489
 4013TIP3   OH212002   6.856   0.349   0.775 -0.0118  0.1303  0.0754
 4013TIP3    H112003   6.763   0.361   0.756 -0.1585 -0.9022  0.1109
 4013TIP3    H212004   6.864   0.257   0.800  1.2511 -0.1575 -1.2770
 4014TIP3   OH212005   5.479   1.094   5.146  0.0311 -0.1452 -0.2563
 4014TIP3    H112006   5.446   1.178   5.116 -1.2596 -0.6410 -0.3080
 4014TIP3    H212007   5.420   1.029   5.106  0.0181 -0.9732  1.0215
 4015TIP3   OH212008   3.367   0.381   4.116 -0.2002 -0.0572 -0.4764
 4015TIP3    H112009   3.309   0.456   4.101 -0.3570 -0.0712  0.0570
 4015TIP3    H212010   3.452   0.408   4.081 -0.0725  0.6330  0.3574
 4016TIP3   OH212011   4.572   4.093   1.298 -0.0248  0.1092  0.1961
 4016TIP3    H112012   4.611   4.006   1.293 -0.8054 -0.2584  0.3711
 4016TIP3    H212013   4.478   4.077   1.308 -0.0694  0.9438  1.3956
 4017TIP3   OH212014   2.727   1.241   2.637  0.0361  0.3603  0.0234
 4017TIP3    H112015   2.640   1.272   2.615 -1.0097 -0.8012  2.2037
 4017TIP3    H212016   2.726   1.148   2.618  1.1318  0.4977 -0.7987
 4018TIP3   OH212017   4.767   6.118   1.818 -0.6205 -0.0581 -0.3641
 4018TIP3    H112018   4.838   6.090   1.760 -0.6137  0.3101 -0.5393
 4018TIP3    H212019   4.774   6.061   1.894  0.9447  1.0669  0.3846
 4019TIP3   OH212020   5.518   2.622   1.410 -0.6246  0.1777  0.0039
 4019TIP3    H112021   5.484   2.710   1.431 -1.8469  0.1026 -1.4877
 4019TIP3    H212022   5.567   2.635   1.329 -1.6691 -0.6521 -0.7952
 4020TIP3   OH212023   6.379   2.533   5.457  0.4589 -0.1980  0.0140
 4020TIP3    H112024   6.440   2.550   5.385 -0.0804 -2.1803 -0.9751
 4020TIP3    H212025   6.292   2.540   5.417  0.0913  0.2213  0.8580
 4021TIP3   OH212026   0.690   4.260   5.730 -0.2146 -0.7201  0.3565
 4021TIP3    H112027   0.740   4.342   5.725 -1.9984  0.5621  1.6566
 4021TIP3    H212028   0.640   4.269   5.811 -0.1611 -3.3367  0.7507
 4022TIP3   OH212029   3.911   2.396   2.792 -0.2733 -0.6693  0.1557
 4022TIP3    H112030   3.850   2.457   2.833 -0.4044 -1.7874  1.7065
 4022TIP3    H212031   3.859   2.317   2.775  0.2916 -0.9639 -0.2337
 4023TIP3   OH212032   0.668   0.251   4.235  0.6811  0.2907  0.4148
 4023TIP3    H112033   0.581   0.219   4.257  0.2164  1.4904  0.3710
 4023TIP3    H212034   0.723   0.172   4.233 -0.3844 -0.4670  0.4812
 4024TIP3   OH212035   3.440   4.531   3.022  0.3567  0.0252 -0.2310
 4024TIP3    H112036   3.381   4.587   3.073 -1.9448 -2.0964 -0.3913
 4024TIP3    H212037   3.398   4.526   2.936  0.8461 -1.4244 -0.3969
 4025TIP3   OH212038   0.771   5.583   3.306 -0.2790 -0.3453 -0.4831
 4025TIP3    H112039   0.843   5.611   3.364 -1.5833 -0.7414  1.4034
 4025TIP3    H212040   0.693   5.625   3.343 -1.4007 -1.8802 -1.0198
 4026TIP3   OH212041   5.541   0.413   2.576 -0.3411  0.4344 -0.0316
 4026TIP3    H112042   5.463   0.422   2.631 -0.8133  2.9066 -0.9568
 4026TIP3    H212043   5.518   0.460   2.496  1.2214 -0.9565 -1.3533
 4027TIP3   OH212044   3.609   6.322   0.199 -0.0459 -0.2399  0.2793
 4027TIP3    H112045   3.586   6.389   0.264 -2.4592 -0.2221 -0.4999
 4027TIP3    H212046   3.568   6.242   0.232  1.5299 -1.0274  0.4182
 4028TIP3   OH212047   3.114   5.470   4.409  0.5773  0.6213  0.3931
 4028TIP3    H112048   3.195   5.499   4.451  0.4070  1.1339  0.3786
 4028TIP3    H212049   3.063   5.550   4.397 -0.2645  0.2105  1.0993
 4029TIP3   OH212050   6.327   4.455   3.291  0.4983 -0.2810  0.1961
 4029TIP3    H112051   6.315   4.469   3.385 -0.5043  1.1577 -0.1135
 4029TIP3    H212052   6.411   4.409   3.285  1.3243  0.9071  1.7136
 4030TIP3   OH212053   6.593   6.188   5.652  0.3119 -0.0932  0.4255
 4030TIP3    H112054   6.594   6.208   5.558  0.3102 -1.7139  0.0518
 4030TIP3    H212055   6.673   6.228   5.685  0.7622 -0.2536 -0.4348
 4031TIP3   OH212056   3.474   0.083   4.993 -0.4575  0.3405  0.3588
 4031TIP3    H112057   3.421   0.163   4.994  0.5720  1.0479  0.1321
 4031TIP3    H212058   3.437   0.031   4.922 -0.2989  1.2266 -0.4052
 4032TIP3   OH212059   2.371   2.971   2.671 -0.3629 -0.4254 -0.6584
 4032TIP3    H112060   2.354   3.055   2.629  1.7009  0.7786  0.6682
 4032TIP3    H212061   2.421   2.922   2.607 -0.3630 -0.0583 -0.9448
 4033TIP3   OH212062   1.809   0.398   1.901 -0.8674  0.3923  0.4819
 4033TIP3    H112063   1.886   0.349   1.928 -0.0759  1.5385  0.3429
 4033TIP3    H212064   1.773   0.433   1.982  1.0649  3.1787  0.2605
 4034TIP3   OH212065   0.529   0.715   0.810  0.2075 -0.2958  0.5018
 4034TIP3    H112066   0.572   0.726   0.894 -0.5098  1.3079  0.7042
 4034TIP3    H212067   0.445   0.673   0.831 -0.5689  1.3417  0.7952
 4035TIP3   OH212068   5.914   2.592   5.205 -0.0254  0.2858  0.8279
 4035TIP3    H112069   5.945   2.594   5.115  0.2491 -0.7174  0.8830
 4035TIP3    H212070   5.826   2.554   5.200  0.4937 -1.0102  1.0883
 4036TIP3   OH212071   0.627   4.739   1.459  0.2528  0.1953  0.0743
 4036TIP3    H112072   0.611   4.833   1.473 -1.8112  0.3122 -2.2341
 4036TIP3    H212073   0.722   4.732   1.449  0.5771  1.8069  1.5629
 4037TIP3   OH212074   3.055   5.584   2.090  0.3995 -0.3595 -0.5474
 4037TIP3    H112075   3.120   5.546   2.032  1.5120  0.9508 -0.1943
 4037TIP3    H212076   2.975   5.535   2.071  0.4561  0.6026 -3.8545
 4038TIP3   OH212077   4.690   4.350   3.902  0.2120 -0.0419  0.4123
 4038TIP3    H112078   4.657   4.425   3.951  1.1815 -0.0780  1.1381
 4038TIP3    H212079   4.628   4.340   3.829 -0.2236  1.1244  0.6048
 4039TIP3   OH212080   3.473   3.458   2.118 -0.5878  0.0778 -0.1023
 4039TIP3    H112081   3.476   3.498   2.031  0.7157 -0.6304 -0.4018
 4039TIP3    H212082   3.434   3.526   2.173 -1.3610  0.5694 -1.2053
 4040TIP3   OH212083   2.299   1.956   4.361 -0.3665  0.5216  0.0188
 4040TIP3    H112084   2.263   1.929   4.276 -2.2710  1.5121  0.4378
 4040TIP3    H212085   2.286   1.881   4.418  1.7066 -0.4625 -0.7248
 4041TIP3   OH212086   3.237   5.883   0.401 -0.2933 -0.0630 -0.2402
 4041TIP3    H112087   3.246   5.955   0.463 -0.3586 -0.8119  0.6513
 4041TIP3    H212088   3.326   5.865   0.373 -0.2062 -0.0633  0.0320
 4042TIP3   OH212089   0.692   4.155   1.092 -0.2555  0.3300 -0.2019
 4042TIP3    H112090   0.691   4.239   1.138  2.4650 -0.4144  1.4552
 4042TIP3    H212091   0.711   4.177   1.001 -1.0025  1.5481 -0.0898
 4043TIP3   OH212092   2.088   2.130   4.398 -0.1941  0.0989  0.4391
 4043TIP3    H112093   2.162   2.069   4.389  0.8852  1.2470  1.2217
 4043TIP3    H212094   2.058   2.117   4.488 -1.0296 -0.4310  0.0925
 4044TIP3   OH212095   7.168   4.508   4.987  0.0587 -0.2814  0.2204
 4044TIP3    H112096   7.134   4.595   5.010  0.5552 -0.3939  1.4555
 4044TIP3    H212097   7.114   4.480   4.914 -3.8398 -1.2354  3.1368
 4045TIP3   OH212098   5.352   5.946   1.319 -0.0788  0.4645  0.1308
 4045TIP3    H112099   5.403   6.026   1.328  1.2603 -0.4633  1.3816
 4045TIP3    H212100   5.354   5.907   1.406  0.6354 -1.6633 -0.7680
 4046TIP3   OH212101   2.939   1.485   2.942 -0.6232  0.2972 -0.4316
 4046TIP3    H112102   2.915   1.407   2.892 -1.3897  0.7428 -0.7766
 4046TIP3    H212103   2.877   1.552   2.914 -1.7405  0.3085  1.8231
 4047TIP3   OH212104   3.283   2.486   2.912  0.0245  0.0442  0.0959
 4047TIP3    H112105   3.339   2.493   2.834  0.8714 -0.4934  0.6341
 4047TIP3    H212106   3.285   2.573   2.951 -0.7545  0.4292 -0.7164
 4048TIP3   OH212107   6.268   3.873   4.229  0.0458 -0.3589  0.5495
 4048TIP3    H112108   6.191   3.815   4.228  1.3663 -2.2403  1.5471
 4048TIP3    H212109   6.285   3.892   4.136  0.2813 -2.6602  0.0518
 4049TIP3   OH212110   4.249   4.552   4.053 -0.7032  0.4951 -0.0547
 4049TIP3    H112111   4.202   4.609   3.992  0.8755  2.5345  0.5004
 4049TIP3    H212112   4.217   4.579   4.139 -2.2979 -1.7830  0.1450
 4050TIP3   OH212113   5.365   1.994   4.278 -0.3258  0.0660 -0.0884
 4050TIP3    H112114   5.407   2.070   4.239 -0.5603 -0.0374 -0.5598
 4050TIP3    H212115   5.273   2.020   4.288 -0.1722  0.2541  0.8316
 4051TIP3   OH212116   4.546   2.586   0.222 -0.7603  0.3697 -0.3703
 4051TIP3    H112117   4.461   2.580   0.266 -0.4740  0.2214  0.1738
 4051TIP3    H212118   4.577   2.495   0.219 -0.1850  0.5429  0.3090
 4052TIP3   OH212119   5.506   2.303   0.226 -0.3869 -0.6461 -0.7548
 4052TIP3    H112120   5.555   2.307   0.143 -0.6130  0.2193 -0.8539
 4052TIP3    H212121   5.451   2.381   0.225 -0.0107 -0.3480  0.4571
 4053TIP3   OH212122   6.792   0.932   4.932 -0.0210  0.6155  0.0147
 4053TIP3    H112123   6.859   0.970   4.989  1.2850  0.1071 -1.1465
 4053TIP3    H212124   6.713   0.983   4.952 -0.0971 -0.5516  3.4291
 4054TIP3   OH212125   0.150   1.762   4.548 -0.2604 -0.1251  0.6601
 4054TIP3    H112126   0.124   1.678   4.511 -1.3352  0.7855 -0.7529
 4054TIP3    H212127   0.231   1.784   4.502  1.0850 -1.2161  2.3841
 4055TIP3   OH212128   7.140   0.049   3.501 -0.3730  0.2969 -0.0697
 4055TIP3    H112129   7.070   0.001   3.458 -0.7875  1.1676 -0.3900
 4055TIP3    H212130   7.121   0.041   3.595 -1.1420  0.8761 -0.1675
 4056TIP3   OH212131   3.392   3.221   1.388 -0.1705  0.1289  0.0792
 4056TIP3    H112132   3.346   3.168   1.323  0.7036  1.6132 -1.8794
 4056TIP3    H212133   3.328   3.236   1.457 -1.3891 -0.9170 -0.7785
 4057TIP3   OH212134   5.069   0.224   4.999 -0.3412 -0.1488 -0.3588
 4057TIP3    H112135   5.095   0.278   4.925 -1.2504  0.8251  0.0090
 4057TIP3    H212136   5.110   0.266   5.075  0.3960 -1.0076 -0.2552
 4058TIP3   OH212137   5.743   2.985   4.265  0.2308  0.1599 -0.3461
 4058TIP3    H112138   5.782   2.902   4.237 -2.1730 -1.1116 -0.2207
 4058TIP3    H212139   5.667   2.996   4.208 -1.1704  0.7312  1.5462
 4059TIP3   OH212140   3.779   4.653   4.122 -0.2191 -0.0349 -0.0463
 4059TIP3    H112141   3.741   4.572   4.087 -2.6719  0.8831  0.2877
 4059TIP3    H212142   3.829   4.690   4.050  0.1665 -1.3919 -0.4901
 4060TIP3   OH212143   0.417   0.502   1.955  0.3497 -0.7855  0.0777
 4060TIP3    H112144   0.446   0.534   2.041  0.5444  1.5243 -0.7880
 4060TIP3    H212145   0.327   0.473   1.970 -0.0219  0.6529  0.8650
 4061TIP3   OH212146   6.835   6.644   3.932  0.3462 -0.2256  0.3982
 4061TIP3    H112147   6.833   6.557   3.973 -0.1890 -1.2237 -1.5956
 4061TIP3    H212148   6.903   6.691   3.979  1.0011 -1.8991  1.2308
 4062TIP3   OH212149   5.273   4.976   0.930  0.2451 -0.3700  0.7335
 4062TIP3    H112150   5.293   4.957   1.022  1.8622 -2.6832 -0.0067
 4062TIP3    H212151   5.281   4.891   0.886 -1.0087  0.5741 -1.4901
 4063TIP3   OH212152   4.560   3.906   1.992 -0.3516 -0.4606 -0.0609
 4063TIP3    H112153   4.644   3.915   1.947 -0.9257  1.5752 -0.8612
 4063TIP3    H212154   4.523   3.995   1.991 -2.3750 -1.2350  0.5353
 4064TIP3   OH212155   2.237   1.558   1.916 -0.6269  0.0872 -0.3910
 4064TIP3    H112156   2.298   1.484   1.921 -1.4703 -0.7744 -2.0534
 4064TIP3    H212157   2.151   1.517   1.908 -1.5795  1.2641  2.5015
 4065TIP3   OH212158   6.130   1.067   1.370  0.5083 -0.0636 -0.5679
 4065TIP3    H112159   6.052   1.054   1.316 -0.1024  0.9067  0.0630
 4065TIP3    H212160   6.134   0.989   1.425 -0.2097  0.0258 -0.3781
 4066TIP3   OH212161   6.315   2.053   2.844 -0.4548  0.1142 -0.2135
 4066TIP3    H112162   6.367   2.050   2.763  1.4678  1.2386  0.9157
 4066TIP3    H212163   6.326   1.967   2.883  2.7101  1.0136  1.1988
 4067TIP3   OH212164   2.908   5.693   5.757  0.3168 -0.3595  0.3836
 4067TIP3    H112165   2.955   5.614   5.784 -0.0676 -0.2325  1.4711
 4067TIP3    H212166   2.833   5.660   5.707  1.3803 -0.5727 -1.1612
 4068TIP3   OH212167   2.141   6.641   3.557  0.0913  0.2573  0.1723
 4068TIP3    H112168   2.075   6.616   3.494  1.5196  0.1010 -1.3221
 4068TIP3    H212169   2.096   6.700   3.618 -1.0867  1.2879 -1.6237
 4069TIP3   OH212170   1.025   5.058   0.953 -0.1094  0.3985  0.3239
 4069TIP3    H112171   0.977   5.078   0.873 -1.1523  0.2085  0.8858
 4069TIP3    H212172   1.088   5.130   0.962  0.1278  0.3436 -0.7269
 4070TIP3   OH212173   5.000   1.551   5.637 -0.1342  0.0316 -0.3197
 4070TIP3    H112174   5.036   1.635   5.667 -1.1903  0.8144 -1.1895
 4070TIP3    H212175   4.925   1.574   5.584 -1.3710 -1.5298  0.6533
 4071TIP3   OH212176   5.817   0.206   5.050 -0.0573  0.3033 -0.0680
 4071TIP3    H112177   5.882   0.136   5.057  0.3021  0.7688  2.2732
 4071TIP3    H212178   5.738   0.169   5.088  0.5463  1.4944  2.6818
 4072TIP3   OH212179   0.786   1.896   3.865 -0.3300  0.2518  0.0593
 4072TIP3    H112180   0.812   1.950   3.790 -0.1971 -1.5984 -1.2989
 4072TIP3    H212181   0.782   1.957   3.938 -2.0118  2.4703 -1.7290
 4073TIP3   OH212182   6.154   2.134   1.423  0.3565  0.0492 -0.0685
 4073TIP3    H112183   6.179   2.041   1.424 -1.6139 -0.6160  3.2394
 4073TIP3    H212184   6.210   2.174   1.489 -0.4359  0.6591  0.2507
 4074TIP3   OH212185   6.448   2.977   4.312  0.0921  0.8262 -0.1341
 4074TIP3    H112186   6.366   2.959   4.357  0.1737 -0.0600 -0.3191
 4074TIP3    H212187   6.516   2.961   4.377  0.2568 -1.2853 -0.7588
 4075TIP3   OH212188   3.601   2.240   2.542  0.0528  0.2514  0.2029
 4075TIP3    H112189   3.633   2.232   2.631  0.1449  1.5308  0.3079
 4075TIP3    H212190   3.562   2.155   2.522 -1.6905  0.5108  2.1434
 4076TIP3   OH212191   4.941   2.863   1.307  0.4316  0.4459 -0.2902
 4076TIP3    H112192   4.887   2.845   1.383  0.5397  2.0921  0.2271
 4076TIP3    H212193   4.943   2.959   1.301  1.4117  0.3774 -1.6472
 4077TIP3   OH212194   3.153   3.892   5.317 -0.1609 -0.1022  0.0627
 4077TIP3    H112195   3.193   3.975   5.344 -3.5926  1.6457  0.3539
 4077TIP3    H212196   3.192   3.874   5.231  1.5435  1.1521  0.5211
 4078TIP3   OH212197   5.371   2.862   1.391  0.3749 -0.1124 -0.9551
 4078TIP3    H112198   5.400   2.929   1.454 -2.3394 -1.7254  2.3393
 4078TIP3    H212199   5.316   2.910   1.329  2.3543  1.3757 -1.7023
 4079TIP3   OH212200   0.548   1.196   5.771  0.0912 -0.4951 -0.1101
 4079TIP3    H112201   0.557   1.168   5.680  3.7360  0.4062 -0.1683
 4079TIP3    H212202   0.480   1.263   5.769 -1.8994 -2.4155 -1.5847
 4080TIP3   OH212203   6.816   5.051   5.077 -0.0369  0.2042  0.6993
 4080TIP3    H112204   6.828   5.117   5.145  0.0014  0.4460  0.4606
 4080TIP3    H212205   6.794   4.970   5.124 -0.3064  0.4410  0.9767
 4081TIP3   OH212206   1.619   5.462   5.485 -0.3769 -0.2108  0.1655
 4081TIP3    H112207   1.687   5.395   5.490  0.5557  0.5327 -1.6550
 4081TIP3    H212208   1.659   5.533   5.435 -2.0480  0.8330  0.2303
 4082TIP3   OH212209   6.732   4.631   1.480 -0.1250  0.0937  0.1071
 4082TIP3    H112210   6.824   4.654   1.490  0.1522 -0.7210 -0.4638
 4082TIP3    H212211   6.729   4.536   1.496 -0.9067  0.1565  0.3863
 4083TIP3   OH212212   1.007   2.373   0.708 -0.1269  0.2230  0.0790
 4083TIP3    H112213   0.957   2.351   0.630 -0.8461 -2.7553  1.2751
 4083TIP3    H212214   0.948   2.427   0.761 -1.0511 -0.8940  0.2112
 4084TIP3   OH212215   2.791   2.541   3.331 -0.1828  0.0753  0.0595
 4084TIP3    H112216   2.808   2.524   3.423  0.2412 -0.8289 -0.1699
 4084TIP3    H212217   2.736   2.467   3.303  0.8695 -0.4378 -0.7412
 4085TIP3   OH212218   2.389   5.228   4.542  0.5665  0.0186 -0.0407
 4085TIP3    H112219   2.317   5.167   4.523  0.7382 -0.9549  2.1132
 4085TIP3    H212220   2.346   5.309   4.570  0.2501 -0.5600  1.2423
 4086TIP3   OH212221   4.477   3.920   3.047  0.1973 -0.0452  0.1004
 4086TIP3    H112222   4.407   3.858   3.068  1.5741 -1.1414  1.6434
 4086TIP3    H212223   4.500   3.900   2.956 -3.7287  2.6740 -1.8077
 4087TIP3   OH212224   1.635   4.439   5.027  0.1493  0.5306  0.3991
 4087TIP3    H112225   1.709   4.498   5.011  0.7865  0.1587  1.7945
 4087TIP3    H212226   1.656   4.361   4.976  0.5228  0.5802  0.4717
 4088TIP3   OH212227   5.454   3.616   4.873 -0.5552  0.6624 -0.1198
 4088TIP3    H112228   5.411   3.559   4.809  0.4972 -0.9140  0.5073
 4088TIP3    H212229   5.453   3.566   4.955  0.2574  1.6198  0.5018
 4089TIP3   OH212230   1.305   4.619   3.073  0.1938 -0.3118  0.0284
 4089TIP3    H112231   1.232   4.600   3.015 -1.8711  0.0979  2.3297
 4089TIP3    H212232   1.288   4.568   3.152  2.3908 -0.1692  0.6707
 4090TIP3   OH212233   6.795   6.217   3.433 -0.2203 -0.1715  0.0218
 4090TIP3    H112234   6.808   6.306   3.399 -1.9611 -0.5165 -1.7352
 4090TIP3    H212235   6.702   6.200   3.420  0.3937 -2.9633 -1.5191
 4091TIP3   OH212236   3.637   0.678   2.792 -0.5603  0.0132 -0.6172
 4091TIP3    H112237   3.628   0.653   2.700 -1.3062 -1.1119 -0.2545
 4091TIP3    H212238   3.584   0.614   2.840  0.4474  0.1106  0.6702
 4092TIP3   OH212239   6.611   3.794   2.321  0.4503 -0.2508  0.5292
 4092TIP3    H112240   6.519   3.777   2.300  0.3761  0.8502 -0.1377
 4092TIP3    H212241   6.653   3.708   2.317 -0.3268 -0.6101 -0.2906
 4093TIP3   OH212242   1.648   6.244   3.492 -0.0313  0.0213 -0.2456
 4093TIP3    H112243   1.723   6.190   3.518 -0.2950  0.0780  0.6523
 4093TIP3    H212244   1.687   6.324   3.457  0.3319  0.0879  0.2982
 4094TIP3   OH212245   4.204   5.898   4.234 -0.1291 -0.4173 -0.3528
 4094TIP3    H112246   4.132   5.910   4.172 -0.2379 -1.6078 -0.4715
 4094TIP3    H212247   4.281   5.929   4.187 -0.5736  1.1073 -0.1344
 4095TIP3   OH212248   5.457   5.594   1.366 -0.4006  0.0211 -0.1173
 4095TIP3    H112249   5.427   5.664   1.425  0.7262 -0.4879  1.1021
 4095TIP3    H212250   5.382   5.535   1.360 -0.1121 -0.6277  1.9303
 4096TIP3   OH212251   5.970   0.754   5.003 -0.0472  0.0302  0.4907
 4096TIP3    H112252   6.054   0.791   4.979  0.3532 -0.9675  0.3319
 4096TIP3    H212253   5.927   0.734   4.920  0.8067 -2.2188  0.5265
 4097TIP3   OH212254   1.017   4.650   3.180  0.1971 -0.2371 -0.1459
 4097TIP3    H112255   0.934   4.657   3.133  1.0487 -0.9902 -1.8235
 4097TIP3    H212256   1.032   4.738   3.216 -0.0981  0.6219 -1.9936
 4098TIP3   OH212257   1.988   5.883   4.707 -0.3820 -0.8019 -0.1128
 4098TIP3    H112258   2.027   5.908   4.791  0.2765 -0.3233 -0.5552
 4098TIP3    H212259   2.044   5.813   4.674  1.5620  1.4089 -1.8321
 4099TIP3   OH212260   3.148   0.279   1.231  0.0630  0.0770  0.7813
 4099TIP3    H112261   3.056   0.303   1.221  0.1098 -0.3647 -1.1214
 4099TIP3    H212262   3.185   0.349   1.285 -1.3636  0.2948  1.5271
 4100TIP3   OH212263   2.142   3.088   5.872  0.1139 -0.1518  0.6594
 4100TIP3    H112264   2.165   3.025   5.941 -0.8183 -1.6197 -0.2970
 4100TIP3    H212265   2.050   3.069   5.853 -0.5150  2.2132  1.0148
 4101TIP3   OH212266   2.953   2.351   5.806  0.5403  0.0891 -0.1645
 4101TIP3    H112267   3.024   2.329   5.745  1.3255  0.2189  0.6920
 4101TIP3    H212268   2.889   2.280   5.794  1.2857 -0.5911 -0.2109
 4102TIP3   OH212269   5.019   3.598   2.629  0.0915 -0.4321 -0.1240
 4102TIP3    H112270   4.938   3.583   2.581  0.3635 -1.7794 -0.2075
 4102TIP3    H212271   5.056   3.677   2.589 -0.8605 -0.1649 -0.5010
 4103TIP3   OH212272   0.674   1.110   3.999  0.0989 -0.4847  0.0075
 4103TIP3    H112273   0.719   1.129   3.917 -1.1221  0.0826 -0.5577
 4103TIP3    H212274   0.658   1.196   4.038 -0.9136 -0.6449 -0.0384
 4104TIP3   OH212275   6.527   5.813   1.509 -0.2888  0.2506  0.1355
 4104TIP3    H112276   6.536   5.900   1.547  1.7382  0.0130  0.2953
 4104TIP3    H212277   6.573   5.755   1.570  1.8153 -0.3478 -1.8842
 4105TIP3   OH212278   1.043   3.223   2.152  0.5345  0.0432  0.1653
 4105TIP3    H112279   1.013   3.269   2.230  2.8315  2.6494 -0.3289
 4105TIP3    H212280   1.002   3.271   2.079 -0.3031 -1.3461 -0.3080
 4106TIP3   OH212281   1.574   1.766   5.543 -0.2926 -0.9218  0.0540
 4106TIP3    H112282   1.481   1.769   5.519 -0.0710  1.3165 -0.7915
 4106TIP3    H212283   1.620   1.790   5.463  0.8523  0.4692  1.0878
 4107TIP3   OH212284   5.590   4.424   5.576 -0.3006  0.3595  0.4146
 4107TIP3    H112285   5.570   4.348   5.521  0.8349  0.7545 -0.5789
 4107TIP3    H212286   5.625   4.489   5.516 -0.7882  1.5010  1.3367
 4108TIP3   OH212287   4.059   4.747   0.739 -0.1819 -0.9639  0.4273
 4108TIP3    H112288   4.104   4.747   0.655 -1.4617 -0.1490 -0.2815
 4108TIP3    H212289   3.974   4.708   0.721 -1.0277  0.5222  1.0171
 4109TIP3   OH212290   2.560   4.580   4.605 -0.0558  0.3133  0.0164
 4109TIP3    H112291   2.594   4.621   4.684 -2.3574 -0.6173  1.6181
 4109TIP3    H212292   2.628   4.520   4.577  1.2513  1.4598  0.6281
 4110TIP3   OH212293   3.818   0.851   1.254 -0.1784 -0.2468 -0.1088
 4110TIP3    H112294   3.777   0.899   1.182 -1.7106 -1.7444 -0.2913
 4110TIP3    H212295   3.884   0.795   1.211  2.7455  2.6263  0.2424
 4111TIP3   OH212296   6.373   5.466   5.697  0.3819 -0.2623  0.2023
 4111TIP3    H112297   6.370   5.391   5.757  0.0480 -0.0618  0.4378
 4111TIP3    H212298   6.377   5.427   5.610  0.0641 -0.5590  0.3171
 4112TIP3   OH212299   6.070   3.246   4.932 -0.3870  0.4022 -0.2887
 4112TIP3    H112300   6.092   3.181   4.998  0.2634 -1.2410 -2.0170
 4112TIP3    H212301   6.154   3.269   4.892 -0.4037  3.3268  1.0531
 4113TIP3   OH212302   1.324   3.494   2.598 -0.6294  0.6729  0.1928
 4113TIP3    H112303   1.356   3.539   2.519 -0.6626 -0.7073 -0.6322
 4113TIP3    H212304   1.228   3.495   2.589 -0.7538  2.3902  1.3051
 4114TIP3   OH212305   1.536   3.039   5.463  0.3350 -0.1290  0.1955
 4114TIP3    H112306   1.615   3.081   5.497  0.0657  1.3446 -0.8905
 4114TIP3    H212307   1.468   3.059   5.527  0.4755  0.1020  0.2731
 4115TIP3   OH212308   1.808   6.613   2.246 -0.4226  0.0252  0.3874
 4115TIP3    H112309   1.831   6.578   2.160 -0.9195 -0.4755  0.4520
 4115TIP3    H212310   1.798   6.707   2.231 -0.9631 -0.1166 -0.2188
 4116TIP3   OH212311   3.901   3.531   2.779 -0.5650  0.0624 -0.7388
 4116TIP3    H112312   3.892   3.439   2.803 -2.6651  0.1304 -1.1010
 4116TIP3    H212313   3.880   3.534   2.685 -2.0164  1.0676 -0.4218
 4117TIP3   OH212314   5.407   6.323   3.522  0.1914  0.1782  0.0251
 4117TIP3    H112315   5.409   6.364   3.609 -2.4962 -1.2939  0.9117
 4117TIP3    H212316   5.476   6.256   3.526  0.1257  0.1458  1.0335
 4118TIP3   OH212317   1.545   2.917   2.915 -0.3608 -0.2204  0.6768
 4118TIP3    H112318   1.453   2.894   2.927 -0.0758 -1.4986  0.5345
 4118TIP3    H212319   1.543   3.003   2.874 -1.4787  0.0256  1.2201
 4119TIP3   OH212320   2.808   1.476   5.561  0.3666 -0.0545  0.2598
 4119TIP3    H112321   2.726   1.524   5.546 -0.0106 -0.8147 -0.1306
 4119TIP3    H212322   2.876   1.534   5.527 -0.0244  0.4654  0.3408
 4120TIP3   OH212323   2.345   1.413   3.564 -0.9559 -0.3387  0.0925
 4120TIP3    H112324   2.324   1.355   3.638 -0.2487  0.7238  1.1667
 4120TIP3    H212325   2.261   1.450   3.538 -1.4136 -1.7778 -0.5791
 4121TIP3   OH212326   6.755   4.352   3.572  0.4260  0.6269  0.5598
 4121TIP3    H112327   6.817   4.393   3.632  1.6575 -0.1221 -0.1518
 4121TIP3    H212328   6.710   4.286   3.625  0.6635  0.7736  0.9501
 4122TIP3   OH212329   1.700   1.181   5.656  0.1483  0.6889 -0.3219
 4122TIP3    H112330   1.701   1.139   5.570 -1.1378 -1.6986  0.7288
 4122TIP3    H212331   1.791   1.183   5.683  0.3541 -0.6446 -0.8250
 4123TIP3   OH212332   1.527   1.064   2.000 -0.7411  0.3616  0.0872
 4123TIP3    H112333   1.480   1.146   1.987  0.0127  0.6509 -0.9574
 4123TIP3    H212334   1.459   1.000   2.021 -1.2031  1.5288  2.5026
 4124TIP3   OH212335   6.403   6.222   5.022  0.2334  0.1081 -0.0746
 4124TIP3    H112336   6.308   6.219   5.035  0.2612 -0.4144  0.0290
 4124TIP3    H212337   6.439   6.175   5.097  0.6880  2.0785  1.0198
 4125TIP3   OH212338   1.318   3.574   3.561  0.4823  0.2686 -0.1322
 4125TIP3    H112339   1.403   3.617   3.554 -0.0232  1.1844 -0.8839
 4125TIP3    H212340   1.301   3.540   3.473 -0.4467  1.1415 -0.3187
 4126TIP3   OH212341   1.057   1.283   1.615  0.2948 -0.3774 -0.4296
 4126TIP3    H112342   1.043   1.372   1.646 -0.7775 -0.0293 -1.8398
 4126TIP3    H212343   1.073   1.232   1.695 -0.4388  0.8224  0.5067
 4127TIP3   OH212344   0.605   4.396   4.836  0.0993 -0.2292 -0.2227
 4127TIP3    H112345   0.635   4.371   4.748  0.4204 -0.4314 -0.0564
 4127TIP3    H212346   0.511   4.380   4.834  0.0271  0.2037 -0.6775
 4128TIP3   OH212347   1.936   1.887   1.148 -0.3581  0.1040 -0.2192
 4128TIP3    H112348   1.901   1.910   1.234 -0.5145  0.2199 -0.3143
 4128TIP3    H212349   1.926   1.966   1.096  0.7834  0.3924 -0.0174
 4129TIP3   OH212350   2.566   3.367   2.138  0.0775 -0.6310 -0.3057
 4129TIP3    H112351   2.572   3.362   2.043  1.7913 -1.3053 -0.1909
 4129TIP3    H212352   2.647   3.411   2.165 -0.5578 -0.1184  0.8210
 4130TIP3   OH212353   2.306   6.418   0.203 -0.5338 -0.1550  0.1409
 4130TIP3    H112354   2.301   6.383   0.292  1.4720 -2.5731 -0.5774
 4130TIP3    H212355   2.333   6.509   0.215  2.3152 -1.1142  2.0419
 4131TIP3   OH212356   0.387   0.618   1.684  0.4802 -0.2572  0.1649
 4131TIP3    H112357   0.417   0.708   1.700  2.2093 -0.5911 -0.9532
 4131TIP3    H212358   0.411   0.571   1.764  2.1149 -0.2961 -0.3216
 4132TIP3   OH212359   1.046   1.469   0.099 -0.2218 -0.5653 -0.0261
 4132TIP3    H112360   1.137   1.453   0.073  0.0234  0.2328  0.3156
 4132TIP3    H212361   1.044   1.444   0.192 -0.6044 -1.5255 -0.2825
 4133TIP3   OH212362   3.068   5.459   4.798  0.5035  0.6655  0.0346
 4133TIP3    H112363   3.148   5.428   4.755 -0.9219 -0.9546 -1.6167
 4133TIP3    H212364   3.054   5.397   4.870 -1.2891 -1.5287 -2.0709
 4134TIP3   OH212365   1.627   5.325   4.161  0.1992  0.2487 -0.0804
 4134TIP3    H112366   1.673   5.405   4.135 -0.1962  0.1042 -1.2763
 4134TIP3    H212367   1.551   5.356   4.211  1.3020  0.5031  1.5333
 4135TIP3   OH212368   6.097   5.466   3.927  0.2767 -0.1943  0.0895
 4135TIP3    H112369   6.074   5.375   3.945 -0.9877  0.1169  0.1728
 4135TIP3    H212370   6.116   5.503   4.012 -0.3072 -0.1084  0.1877
 4136TIP3   OH212371   7.047   5.102   2.042  0.1178 -0.6367 -1.0734
 4136TIP3    H112372   7.058   5.046   2.118  0.7294 -2.1311 -2.1984
 4136TIP3    H212373   6.972   5.065   1.996  0.9351 -0.9858 -2.1754
 4137TIP3   OH212374   4.087   0.266   1.866 -0.5456  0.0886  0.7001
 4137TIP3    H112375   4.008   0.279   1.918  0.5444  1.9774  2.0202
 4137TIP3    H212376   4.150   0.329   1.902  0.4398  1.2335 -2.6291
 4138TIP3   OH212377   4.353   4.158   2.093  0.4191  0.0397 -0.3435
 4138TIP3    H112378   4.417   4.181   2.025  0.3832  3.2217  0.5428
 4138TIP3    H212379   4.281   4.219   2.079 -0.1051 -0.0207  1.8651
 4139TIP3   OH212380   5.681   2.076   0.865 -0.4692 -0.0293 -0.2765
 4139TIP3    H112381   5.586   2.069   0.851 -0.5326  1.2323 -0.5697
 4139TIP3    H212382   5.716   2.101   0.779  0.1286 -0.4671 -0.1648
 4140TIP3   OH212383   3.351   5.576   4.546 -0.0499 -0.2757  0.3490
 4140TIP3    H112384   3.377   5.647   4.487  0.9905 -0.1623  0.9114
 4140TIP3    H212385   3.434   5.540   4.577 -0.5175 -2.4538 -0.7554
 4141TIP3   OH212386   4.558   5.630   1.162  0.4313 -0.2779 -0.9451
 4141TIP3    H112387   4.523   5.661   1.079  0.9074 -0.6778 -1.2967
 4141TIP3    H212388   4.643   5.592   1.140 -0.1163 -1.8076 -0.5329
 4142TIP3   OH212389   1.714   2.360   4.808 -0.7180 -0.2624 -0.0811
 4142TIP3    H112390   1.727   2.441   4.759 -1.0600  0.2448  0.6509
 4142TIP3    H212391   1.794   2.310   4.792 -1.0231 -0.3194 -1.5286
 4143TIP3   OH212392   1.530   6.007   3.383  0.6162  0.6007  0.2164
 4143TIP3    H112393   1.605   5.983   3.329  2.4785  2.4465  1.8482
 4143TIP3    H212394   1.555   6.088   3.426 -1.8219  0.6134  1.8503
 4144TIP3   OH212395   3.838   0.150   0.415  0.3976  0.1386 -0.7308
 4144TIP3    H112396   3.752   0.109   0.419  0.8792 -1.0714 -1.9663
 4144TIP3    H212397   3.822   0.235   0.372 -0.7294  1.7530  2.5811
 4145TIP3   OH212398   1.732   6.605   4.292 -0.1271 -0.1745 -0.3065
 4145TIP3    H112399   1.690   6.624   4.376 -0.5697 -0.1561 -0.5278
 4145TIP3    H212400   1.676   6.540   4.252  0.5992 -0.8881 -0.1842
 4146TIP3   OH212401   6.463   5.814   1.228 -0.0673 -0.0677  0.0285
 4146TIP3    H112402   6.497   5.734   1.189 -1.0072  0.0724 -1.1159
 4146TIP3    H212403   6.489   5.808   1.320  1.6002 -0.7289 -0.4525
 4147TIP3   OH212404   0.992   3.367   3.517  0.4157  0.1858  0.4628
 4147TIP3    H112405   1.046   3.315   3.576  2.1389 -0.5943 -1.6564
 4147TIP3    H212406   1.048   3.440   3.491  0.1932 -0.1741 -1.1380
 4148TIP3   OH212407   3.778   3.780   5.222  0.6151 -0.3070  0.2805
 4148TIP3    H112408   3.866   3.747   5.206  0.4777 -1.9950  2.5377
 4148TIP3    H212409   3.741   3.720   5.287 -1.5908  1.3239  0.6492
 4149TIP3   OH212410   0.252   3.489   2.129 -0.2531  0.4988  0.2671
 4149TIP3    H112411   0.167   3.458   2.101  0.8252 -0.4429 -2.2204
 4149TIP3    H212412   0.267   3.569   2.079 -0.1251  1.3502  1.5894
 4150TIP3   OH212413   4.638   3.766   0.054 -0.0601  0.0646  0.8879
 4150TIP3    H112414   4.657   3.768   0.148 -1.6218  0.8129  1.2267
 4150TIP3    H212415   4.564   3.826   0.044  1.0588  1.1791 -1.0779
 4151TIP3   OH212416   5.807   0.034   3.290  0.1268  0.6027 -0.3334
 4151TIP3    H112417   5.860  -0.039   3.324 -0.7816 -0.5000 -1.1922
 4151TIP3    H212418   5.841   0.050   3.202 -0.7092  0.1089 -0.7648
 4152TIP3   OH212419   4.753   2.878   4.434 -0.5797  0.2243 -0.2472
 4152TIP3    H112420   4.797   2.912   4.356  1.1871  0.2873  0.7146
 4152TIP3    H212421   4.781   2.786   4.439  0.2451  0.5183  0.8988
 4153TIP3   OH212422   0.559   1.154   3.274  0.5878  0.1841 -0.1086
 4153TIP3    H112423   0.639   1.200   3.248 -0.2653  1.1502 -1.1043
 4153TIP3    H212424   0.493   1.183   3.211 -0.4549 -0.9185  0.4382
 4154TIP3   OH212425   5.501   4.732   4.763  0.3752 -0.6504 -0.0027
 4154TIP3    H112426   5.502   4.789   4.687  2.1762  0.8719  1.0837
 4154TIP3    H212427   5.450   4.780   4.829  0.4943 -1.0579  0.3928
 4155TIP3   OH212428   3.992   6.325   1.618  0.0932 -0.5811  0.7515
 4155TIP3    H112429   4.079   6.337   1.656  0.2669  1.0621 -0.0774
 4155TIP3    H212430   3.931   6.354   1.685  0.3308  0.8824  0.3645
 4156TIP3   OH212431   4.172   0.858   3.135 -0.4535  0.1312 -0.5472
 4156TIP3    H112432   4.145   0.821   3.051  1.2347 -0.2871 -0.9310
 4156TIP3    H212433   4.125   0.807   3.201  0.6409 -1.7036 -1.1315
 4157TIP3   OH212434   3.430   6.791   2.776 -0.2181  0.1755  0.3091
 4157TIP3    H112435   3.451   6.709   2.821 -1.0328  0.1089  0.5846
 4157TIP3    H212436   3.383   6.842   2.842 -1.1305  0.2117 -0.3540
 4158TIP3   OH212437   4.062   3.999   5.872  0.6620  0.5395 -0.4373
 4158TIP3    H112438   4.110   3.941   5.930  0.7819 -0.2599 -1.3161
 4158TIP3    H212439   3.995   3.944   5.832  0.6248  1.0505 -1.1000
 4159TIP3   OH212440   6.834   6.316   4.727  0.7630 -0.1462  0.1247
 4159TIP3    H112441   6.914   6.329   4.674  0.1542 -0.5155 -0.9207
 4159TIP3    H212442   6.763   6.316   4.663 -0.0057 -0.6611  0.9557
 4160TIP3   OH212443   6.803   2.292   5.011  0.0094  0.2154 -0.2688
 4160TIP3    H112444   6.770   2.216   5.059  0.8039 -0.0173 -0.0823
 4160TIP3    H212445   6.838   2.350   5.078 -0.8988  0.9121 -0.3781
 4161TIP3   OH212446   5.093   2.167   1.135 -0.3949 -0.1317  0.1305
 4161TIP3    H112447   5.123   2.087   1.177  0.4082  0.0934  0.0061
 4161TIP3    H212448   5.113   2.237   1.198  0.2441  0.1327 -0.3554
 4162TIP3   OH212449   7.145   5.886   4.483 -0.4128  0.3444  0.3984
 4162TIP3    H112450   7.062   5.882   4.436 -0.0670 -0.3571 -0.1777
 4162TIP3    H212451   7.201   5.823   4.437  0.4310  0.8022  0.7857
 4163TIP3   OH212452   5.095   4.352   0.645  0.1358 -0.2535 -0.3178
 4163TIP3    H112453   5.064   4.339   0.555 -0.1323 -0.7060 -0.1665
 4163TIP3    H212454   5.014   4.362   0.695  0.2997  2.2940 -0.4369
 4164TIP3   OH212455   2.924   0.426   2.166  0.8528 -0.4872 -0.6642
 4164TIP3    H112456   2.995   0.406   2.227  0.3097  0.1630  0.1930
 4164TIP3    H212457   2.968   0.438   2.082  2.2574  3.0372  0.3871
 4165TIP3   OH212458   0.231   2.654   1.549 -0.4561 -0.2712 -0.3911
 4165TIP3    H112459   0.255   2.602   1.625 -0.6319 -0.3428 -0.3827
 4165TIP3    H212460   0.185   2.730   1.586 -0.5053 -0.2851 -0.4239
 4166TIP3   OH212461   7.118   2.912   4.172  0.1322  0.5416  0.1766
 4166TIP3    H112462   7.167   2.955   4.243  1.1837 -2.7184  1.6018
 4166TIP3    H212463   7.156   2.824   4.167 -2.4315 -0.5566 -1.9609
 4167TIP3   OH212464   3.814   3.900   0.819  0.3644  0.0430  0.1467
 4167TIP3    H112465   3.796   3.836   0.888  1.1511  0.9003  1.1646
 4167TIP3    H212466   3.886   3.861   0.768 -0.7573 -0.9719 -0.7482
 4168TIP3   OH212467   3.649   3.919   1.328  0.2010  0.1998  0.1589
 4168TIP3    H112468   3.667   3.996   1.382  2.3062 -1.1102  1.4420
 4168TIP3    H212469   3.636   3.848   1.390  3.5302 -1.5540 -0.9422
 4169TIP3   OH212470   2.388   5.190   3.964 -0.0894 -0.3001  0.2917
 4169TIP3    H112471   2.298   5.176   3.992 -0.6707 -1.0194 -1.7474
 4169TIP3    H212472   2.441   5.142   4.028 -1.4636 -3.6159 -0.7914
 4170TIP3   OH212473   1.895   4.276   4.434 -0.5732 -0.6500 -0.7496
 4170TIP3    H112474   1.938   4.280   4.349 -1.9309  0.5381 -1.4191
 4170TIP3    H212475   1.943   4.337   4.489 -0.5505 -0.3781 -1.0728
 4171TIP3   OH212476   2.601   3.668   1.522  0.2343  0.7069 -0.0242
 4171TIP3    H112477   2.592   3.711   1.437  0.9965 -0.4726 -0.7381
 4171TIP3    H212478   2.523   3.693   1.570 -0.7782  0.4871 -1.5021
 4172TIP3   OH212479   1.124   6.141   1.580 -0.1116 -0.3636 -0.1347
 4172TIP3    H112480   1.068   6.174   1.510  2.1518  1.0313 -1.4018
 4172TIP3    H212481   1.093   6.052   1.596 -1.8956 -0.0536 -1.5544
 4173TIP3   OH212482   1.401   0.469   1.929  0.3503 -0.0850 -0.2212
 4173TIP3    H112483   1.442   0.413   1.995 -1.6661 -0.3984  0.8523
 4173TIP3    H212484   1.473   0.519   1.892  1.6569 -0.4183  1.7230
 4174TIP3   OH212485   7.007   5.963   4.908 -0.3242 -0.1900 -0.2225
 4174TIP3    H112486   6.915   5.967   4.933  0.2491  2.7288  2.0494
 4174TIP3    H212487   7.055   5.973   4.991  2.0162 -0.0140 -1.4997
 4175TIP3   OH212488   0.460   0.090   3.437  0.1557 -0.0442  0.0610
 4175TIP3    H112489   0.523   0.118   3.503  0.9037 -1.2145 -0.1170
 4175TIP3    H212490   0.378   0.082   3.484  0.4493  0.1352  0.6171
 4176TIP3   OH212491   2.821   5.531   3.232  0.0823 -0.8077  0.0246
 4176TIP3    H112492   2.818   5.453   3.287 -0.0425 -0.5648  0.3672
 4176TIP3    H212493   2.760   5.512   3.161  0.1550 -1.0771  0.0334
 4177TIP3   OH212494   3.370   2.201   3.723  0.4092  0.4064 -0.3445
 4177TIP3    H112495   3.457   2.206   3.764  0.7694 -1.3872 -0.7861
 4177TIP3    H212496   3.329   2.124   3.764 -0.2843  0.2052 -1.3922
 4178TIP3   OH212497   3.644   4.990   0.716  0.4077  0.1377  0.3592
 4178TIP3    H112498   3.626   5.078   0.749  0.7094  0.3790 -0.1029
 4178TIP3    H212499   3.562   4.963   0.674  0.4337  0.3626  0.1579
 4179TIP3   OH212500   6.656   0.681   1.349 -0.0629  0.2487 -0.1535
 4179TIP3    H112501   6.608   0.755   1.386 -2.3839 -0.5394 -1.3668
 4179TIP3    H212502   6.683   0.710   1.262 -0.2985 -0.0711 -0.3346
 4180TIP3   OH212503   1.244   2.333   4.066  0.0027  0.5687  0.1629
 4180TIP3    H112504   1.303   2.409   4.069  0.3403  0.3198 -0.1564
 4180TIP3    H212505   1.264   2.290   3.983  0.2825 -0.2458  0.6359
 4181TIP3   OH212506   7.166   6.427   5.116  0.7241  0.3821  0.1523
 4181TIP3    H112507   7.114   6.452   5.040  0.2819  0.9144  0.6208
 4181TIP3    H212508   7.219   6.354   5.086 -0.8261 -0.6727 -0.1403
 4182TIP3   OH212509   5.119   3.078   0.672  0.4327  0.3085 -0.0832
 4182TIP3    H112510   5.185   3.034   0.726  0.3613  0.2656 -0.0301
 4182TIP3    H212511   5.150   3.169   0.665  0.5656  0.2561 -0.1700
 4183TIP3   OH212512   5.227   6.420   1.322  0.3967 -0.1597  0.1205
 4183TIP3    H112513   5.288   6.388   1.257  0.9244 -0.1102  0.5852
 4183TIP3    H212514   5.272   6.493   1.365 -0.6352  0.9884 -0.6626
 4184TIP3   OH212515   5.563   6.525   0.039  0.3220  0.1060 -0.0315
 4184TIP3    H112516   5.656   6.510   0.023  0.2586 -1.0861  0.6241
 4184TIP3    H212517   5.560   6.606   0.091  1.0609 -0.3756  0.7714
 4185TIP3   OH212518   6.693   5.415   0.150  0.4530  0.2015  0.4891
 4185TIP3    H112519   6.766   5.383   0.098 -0.8864 -1.5242 -0.4509
 4185TIP3    H212520   6.699   5.366   0.232  0.0530 -0.3630  0.1884
 4186TIP3   OH212521   3.880   3.942   3.131 -0.0396  0.1277 -0.0411
 4186TIP3    H112522   3.954   3.989   3.091  0.1468 -1.1885 -1.3108
 4186TIP3    H212523   3.885   3.854   3.094 -1.6840 -0.2637  0.5983
 4187TIP3   OH212524   4.231   3.570   4.315  0.2600  0.0656  0.2576
 4187TIP3    H112525   4.266   3.622   4.243 -1.9780  0.2903 -0.7693
 4187TIP3    H212526   4.211   3.634   4.383 -1.5587  0.5133 -0.6219
 4188TIP3   OH212527   0.604   0.506   0.630  0.4204  0.3009 -0.1813
 4188TIP3    H112528   0.535   0.441   0.614  1.9921 -2.6360  3.4631
 4188TIP3    H212529   0.560   0.575   0.679 -0.1341 -1.3057  1.6898
 4189TIP3   OH212530   1.409   0.911   2.312 -0.4958 -0.5615 -0.0742
 4189TIP3    H112531   1.433   0.995   2.274 -2.7177 -1.3780 -3.7484
 4189TIP3    H212532   1.322   0.924   2.349 -0.6659 -1.1530 -0.2560
 4190TIP3   OH212533   5.099   6.325   0.140  0.4773 -0.7438  0.2822
 4190TIP3    H112534   5.044   6.384   0.192  1.5760  0.4270  0.1741
 4190TIP3    H212535   5.055   6.240   0.145 -0.7494 -0.0895  1.0747
 4191TIP3   OH212536   5.586   0.611   3.587  0.5653  0.0964 -0.2569
 4191TIP3    H112537   5.604   0.564   3.506 -0.5084 -1.2344  0.2471
 4191TIP3    H212538   5.585   0.544   3.655  3.0352  1.3656  1.1819
 4192TIP3   OH212539   3.501   6.234   0.553 -0.0927  0.1740 -0.0014
 4192TIP3    H112540   3.585   6.219   0.510 -1.0281  2.8358 -3.1904
 4192TIP3    H212541   3.518   6.304   0.616  0.3369 -0.3490  0.4754
 4193TIP3   OH212542   2.064   4.658   2.011 -0.0818 -0.9193 -0.4258
 4193TIP3    H112543   1.995   4.637   1.948 -0.5425 -1.4479  0.2311
 4193TIP3    H212544   2.020   4.652   2.096  0.5421 -0.2728 -0.0557
 4194TIP3   OH212545   6.940   2.274   2.936 -0.3774 -0.2356 -0.0619
 4194TIP3    H112546   7.030   2.299   2.917 -0.7026 -0.1322 -1.6133
 4194TIP3    H212547   6.888   2.318   2.869 -1.6039 -0.2001  0.8771
 4195TIP3   OH212548   3.712   1.840   0.765 -0.4432 -0.0362 -0.0321
 4195TIP3    H112549   3.796   1.885   0.752 -0.2425  0.2552  2.0090
 4195TIP3    H212550   3.647   1.909   0.754 -0.1781  0.6433  2.1815
 4196TIP3   OH212551   4.945   5.738   4.439 -0.1970  0.1314 -0.1171
 4196TIP3    H112552   4.933   5.757   4.532  1.6212  0.0127  0.1829
 4196TIP3    H212553   4.919   5.646   4.429 -2.0144  0.6110 -0.0984
 4197TIP3   OH212554   3.672   5.827   4.446  0.2101 -0.3463  0.2010
 4197TIP3    H112555   3.762   5.794   4.449 -0.1180 -1.3014 -0.2028
 4197TIP3    H212556   3.632   5.781   4.372 -0.5683  0.1927  0.2737
 4198TIP3   OH212557   0.664   1.249   1.771 -0.1195  0.6265  0.2384
 4198TIP3    H112558   0.664   1.257   1.675 -0.0655 -2.0630 -0.0424
 4198TIP3    H212559   0.571   1.247   1.794 -0.2823 -2.4548 -0.2401
 4199TIP3   OH212560   0.365   5.102   3.260 -0.5113 -0.2380 -0.1014
 4199TIP3    H112561   0.354   5.184   3.211  0.6721 -0.1413 -0.2194
 4199TIP3    H212562   0.323   5.120   3.345 -1.9879 -0.1849 -0.7959
 4200TIP3   OH212563   4.124   5.561   0.321  0.0173  0.4429 -0.0587
 4200TIP3    H112564   4.186   5.620   0.278 -0.9920  1.5432 -0.0685
 4200TIP3    H212565   4.049   5.558   0.261  0.4004 -1.5973 -0.5025
 4201TIP3   OH212566   7.106   2.562   2.430  0.3211  0.3183  0.0293
 4201TIP3    H112567   7.039   2.611   2.479  1.1399  3.0619 -1.3945
 4201TIP3    H212568   7.107   2.476   2.472 -4.9173 -0.3958 -0.6173
 4202TIP3   OH212569   0.107   6.367   1.764  0.8218  0.3131  0.4269
 4202TIP3    H112570   0.079   6.292   1.816  0.6339  0.4907  0.5793
 4202TIP3    H212571   0.029   6.394   1.716  1.4469 -1.1520 -1.5702
 4203TIP3   OH212572   0.713   3.721   2.573 -0.1370 -0.0799  0.2107
 4203TIP3    H112573   0.671   3.773   2.642 -1.5032  0.7916 -1.1910
 4203TIP3    H212574   0.785   3.776   2.542  0.3399 -0.3769  0.7708
 4204TIP3   OH212575   2.298   1.370   5.791 -0.4647  0.0003 -0.2833
 4204TIP3    H112576   2.278   1.280   5.817  0.1400 -0.4836 -1.4129
 4204TIP3    H212577   2.393   1.371   5.779 -0.2500  1.2177  1.2115
 4205TIP3   OH212578   5.595   5.054   3.881  0.1247  0.1724 -0.1982
 4205TIP3    H112579   5.546   5.122   3.835  0.2902 -0.0663 -0.7329
 4205TIP3    H212580   5.576   4.973   3.833  1.3726  0.1455 -0.6794
 4206TIP3   OH212581   0.126   3.461   4.293 -0.1769 -0.7060  0.6229
 4206TIP3    H112582   0.160   3.543   4.256  0.1258 -1.0861  0.0475
 4206TIP3    H212583   0.204   3.418   4.330 -0.0656 -1.4408 -0.4315
 4207TIP3   OH212584   5.989   1.541   0.475  0.2417  0.3512  0.5258
 4207TIP3    H112585   6.073   1.512   0.441 -0.1124  2.1929 -2.2913
 4207TIP3    H212586   5.989   1.636   0.460 -1.6464  0.6529  2.0996
 4208TIP3   OH212587   2.881   1.679   3.390 -0.8259 -0.5466  0.6867
 4208TIP3    H112588   2.892   1.591   3.356  0.6548  0.2750 -1.1723
 4208TIP3    H212589   2.965   1.722   3.373 -1.3869  1.1307  1.8248
 4209TIP3   OH212590   0.866   3.046   3.102 -0.1772 -0.2028 -0.1444
 4209TIP3    H112591   0.774   3.054   3.126 -0.0866  1.8844 -0.3183
 4209TIP3    H212592   0.888   3.130   3.063  2.0140 -0.3699  0.5893
 4210TIP3   OH212593   4.821   0.446   3.309  0.2086 -0.2603  0.2714
 4210TIP3    H112594   4.833   0.424   3.402  0.4127 -0.7688  0.1321
 4210TIP3    H212595   4.739   0.403   3.285  1.5895 -2.6969 -0.5151
 4211TIP3   OH212596   4.234   2.495   5.121  0.6924  0.1620  0.0376
 4211TIP3    H112597   4.224   2.529   5.033  1.0044 -0.4426 -0.2349
 4211TIP3    H212598   4.297   2.554   5.163  0.6031  0.4005 -0.1691
 4212TIP3   OH212599   4.102   0.685   2.662 -0.0352  0.1813 -0.4805
 4212TIP3    H112600   4.178   0.700   2.606  0.8457  0.2233  0.6970
 4212TIP3    H212601   4.029   0.724   2.614  0.5716 -0.3633 -1.8974
 4213TIP3   OH212602   6.758   5.912   5.255 -0.1020  0.1138  0.7695
 4213TIP3    H112603   6.803   5.844   5.205 -0.6812 -0.0260  0.4281
 4213TIP3    H212604   6.828   5.959   5.301  0.5344  0.7636 -0.7857
 4214TIP3   OH212605   6.319   0.071   3.718 -0.0068  0.4783 -0.0839
 4214TIP3    H112606   6.251   0.065   3.785 -0.0572 -0.5603 -0.2196
 4214TIP3    H212607   6.371  -0.008   3.729  0.0946  0.3818 -1.1527
 4215TIP3   OH212608   6.445   2.503   4.112 -0.0472  0.6963 -0.5448
 4215TIP3    H112609   6.388   2.428   4.131 -0.0427  0.8051 -0.0697
 4215TIP3    H212610   6.401   2.550   4.041  0.7497 -0.6140 -1.9519
 4216TIP3   OH212611   3.874   6.160   5.158 -0.6431 -0.4927 -0.2921
 4216TIP3    H112612   3.866   6.166   5.253 -1.1437 -1.9378 -0.2133
 4216TIP3    H212613   3.794   6.201   5.124 -0.2713  0.3949 -0.1204
 4217TIP3   OH212614   5.455   3.474   2.630  0.0614  0.0421  0.5627
 4217TIP3    H112615   5.497   3.392   2.603  0.4761  0.5027 -0.2114
 4217TIP3    H212616   5.527   3.536   2.640 -0.3431  0.5763  0.1970
 4218TIP3   OH212617   5.167   2.279   0.217  0.1690  0.4145  0.3404
 4218TIP3    H112618   5.199   2.364   0.188 -0.4652  1.0751  1.4841
 4218TIP3    H212619   5.246   2.231   0.242  0.7347 -0.1976 -2.3819
 4219TIP3   OH212620   2.200   4.035   2.248  0.1456  0.2126  0.2955
 4219TIP3    H112621   2.208   4.075   2.335  0.6837  2.7156 -0.8200
 4219TIP3    H212622   2.110   4.054   2.221  0.5888  1.2896 -0.4938
 4220TIP3   OH212623   1.939   2.107   3.755 -0.6099 -0.3512  0.1505
 4220TIP3    H112624   2.004   2.129   3.821  0.2252 -1.0561 -0.4265
 4220TIP3    H212625   1.964   2.021   3.723 -1.1463 -0.1441 -0.8940
 4221TIP3   OH212626   1.496   3.730   0.945  0.5296 -0.0221  0.4052
 4221TIP3    H112627   1.537   3.645   0.931 -0.5488 -0.6020  0.6145
 4221TIP3    H212628   1.420   3.730   0.887  0.9688  1.1416 -0.1995
 4222TIP3   OH212629   2.208   4.768   4.870 -0.4034  0.0766  0.2383
 4222TIP3    H112630   2.164   4.769   4.956 -1.0625 -0.1518 -0.0867
 4222TIP3    H212631   2.206   4.859   4.841 -1.7426 -0.0929 -0.2947
 4223TIP3   OH212632   0.185   6.686   2.763  0.0550 -0.1865 -0.2563
 4223TIP3    H112633   0.230   6.717   2.685 -1.6345  1.1375 -0.7510
 4223TIP3    H212634   0.247   6.702   2.834  1.3519 -0.7937 -1.2054
 4224TIP3   OH212635   0.750   5.638   4.426 -0.1030  0.1692  0.1379
 4224TIP3    H112636   0.811   5.667   4.358  0.3781 -1.3589 -0.1097
 4224TIP3    H212637   0.720   5.719   4.467  1.0892  1.0211 -0.6115
 4225TIP3   OH212638   5.169   0.576   0.763 -0.1028  0.0697 -0.2313
 4225TIP3    H112639   5.219   0.501   0.794 -0.8612 -0.3182  0.0851
 4225TIP3    H212640   5.233   0.648   0.759  0.1561  0.0232  1.7704
 4226TIP3   OH212641   0.560   1.748   2.535  0.5120 -0.3464 -0.2743
 4226TIP3    H112642   0.629   1.810   2.560  0.0998 -0.7186  2.0390
 4226TIP3    H212643   0.487   1.769   2.594 -1.0269 -0.6005 -2.0058
 4227TIP3   OH212644   6.889   2.357   5.888  0.4366  0.0911 -0.6180
 4227TIP3    H112645   6.937   2.274   5.884  0.2914 -0.0047 -0.4221
 4227TIP3    H212646   6.830   2.354   5.813  0.8937  0.3095 -0.9883
 4228TIP3   OH212647   0.314   2.604   2.240 -0.0041  0.3434 -0.0567
 4228TIP3    H112648   0.309   2.509   2.230  1.1331  0.4145 -1.8222
 4228TIP3    H212649   0.314   2.638   2.150  2.4034  1.8173  0.4057
 4229TIP3   OH212650   3.586   1.746   5.701 -0.3035  0.0725 -0.6296
 4229TIP3    H112651   3.567   1.676   5.763 -2.7018 -1.2031 -2.6407
 4229TIP3    H212652   3.527   1.817   5.725  0.8486  0.7691  0.2789
 4230TIP3   OH212653   1.873   1.946   1.728  0.1791 -0.5248  0.5341
 4230TIP3    H112654   1.804   1.901   1.678 -1.5875  1.1821  1.3107
 4230TIP3    H212655   1.903   2.016   1.670 -0.5039  0.2562  1.1100
 4231TIP3   OH212656   0.524   3.561   4.010 -0.5416  0.1042 -0.0004
 4231TIP3    H112657   0.500   3.652   3.989  0.4804  0.2407 -0.6813
 4231TIP3    H212658   0.571   3.531   3.932 -0.6397 -0.9307  0.3306
 4232TIP3   OH212659   4.537   4.830   3.513 -0.1354 -0.2913  0.5925
 4232TIP3    H112660   4.592   4.900   3.479 -0.8414 -0.0934 -0.1477
 4232TIP3    H212661   4.476   4.874   3.572 -1.2436 -0.1194 -0.6501
 4233TIP3   OH212662   7.231   1.281   4.063  0.2687 -0.0463  0.7230
 4233TIP3    H112663   7.145   1.280   4.022  0.5021 -3.4933  0.0350
 4233TIP3    H212664   7.215   1.252   4.153  0.4415  2.2672  1.5839
 4234TIP3   OH212665   5.438   1.976   1.273  0.1558 -0.2570  0.4781
 4234TIP3    H112666   5.438   2.069   1.249 -0.1739 -0.4392 -0.2829
 4234TIP3    H212667   5.508   1.938   1.221 -1.1024 -0.8116 -0.8879
 4235TIP3   OH212668   6.525   6.144   3.354  0.1711  0.3233  0.2217
 4235TIP3    H112669   6.435   6.111   3.351  0.7270 -1.2333 -1.6240
 4235TIP3    H212670   6.522   6.226   3.306 -0.0049 -0.5085 -1.2271
 4236TIP3   OH212671   2.098   0.606   5.621  0.0371 -0.0190  0.3946
 4236TIP3    H112672   2.189   0.590   5.596  0.2564  1.4616  0.1444
 4236TIP3    H212673   2.047   0.548   5.565  0.7243  0.7869 -1.1372
 4237TIP3   OH212674   6.877   3.032   3.115  0.9292  0.7691 -0.1265
 4237TIP3    H112675   6.904   2.983   3.193  3.3402 -0.5272 -1.6394
 4237TIP3    H212676   6.897   3.123   3.137  1.9343  0.3830  0.6607
 4238TIP3   OH212677   0.636   6.323   1.287  0.0705  0.0175 -0.0865
 4238TIP3    H112678   0.588   6.292   1.364  0.0000  0.1017 -0.0974
 4238TIP3    H212679   0.588   6.400   1.257 -0.3326 -0.4506 -0.6591
 4239TIP3   OH212680   4.690   5.980   0.023 -0.1121 -0.4168 -0.4361
 4239TIP3    H112681   4.620   5.999   0.085 -0.4835  1.4720 -1.3552
 4239TIP3    H212682   4.650   5.922  -0.042 -0.6222  0.0697 -0.5623
 4240TIP3   OH212683   0.196   3.879   2.296  0.3850 -0.1920  0.5775
 4240TIP3    H112684   0.280   3.888   2.251  0.9950 -1.7337  1.3042
 4240TIP3    H212685   0.152   3.963   2.284  2.5079  1.0741  1.1290
 4241TIP3   OH212686   7.180   2.137   0.815 -0.3158  0.3097 -0.0186
 4241TIP3    H112687   7.233   2.062   0.844 -1.2163 -0.1675  0.4692
 4241TIP3    H212688   7.195   2.143   0.721 -0.0673 -0.3607 -0.0263
 4242TIP3   OH212689   1.242   5.689   5.272  0.2411 -0.1285  0.3805
 4242TIP3    H112690   1.217   5.772   5.231  1.7407 -0.0258 -0.3697
 4242TIP3    H212691   1.219   5.622   5.208 -0.5490 -0.2717  0.7997
 4243TIP3   OH212692   2.127   0.573   5.290  0.1038 -0.2116  0.1336
 4243TIP3    H112693   2.138   0.654   5.340 -0.0773 -0.7165  1.0235
 4243TIP3    H212694   2.096   0.510   5.355  1.2544 -1.2709 -0.3145
 4244TIP3   OH212695   6.704   0.567   3.274  0.4659  0.7621  0.1372
 4244TIP3    H112696   6.758   0.551   3.197 -1.8244 -1.1557 -1.1917
 4244TIP3    H212697   6.762   0.550   3.348  2.7496  2.7124 -1.0550
 4245TIP3   OH212698   0.889   0.548   5.741 -0.4062  0.6434  0.1977
 4245TIP3    H112699   0.802   0.554   5.703 -0.7542  0.8488  1.0085
 4245TIP3    H212700   0.874   0.528   5.834  0.4562 -1.8596 -0.1201
 4246TIP3   OH212701   1.009   2.830   1.308  0.0071 -0.1192 -0.7127
 4246TIP3    H112702   0.922   2.848   1.272  0.3404  2.0724 -0.5386
 4246TIP3    H212703   1.035   2.747   1.266 -1.5718 -0.1037 -1.8228
 4247TIP3   OH212704   4.405   1.647   1.231 -1.0254 -0.2136 -0.4706
 4247TIP3    H112705   4.466   1.606   1.293 -1.1147 -2.3870 -1.7257
 4247TIP3    H212706   4.328   1.591   1.233 -1.4936  0.3574 -1.6671
 4248TIP3   OH212707   0.861   5.319   1.501  0.0672  0.1196  0.1742
 4248TIP3    H112708   0.785   5.262   1.510 -0.0652 -0.2870 -2.7031
 4248TIP3    H212709   0.825   5.404   1.477  0.4349  0.6795  1.4829
 4249TIP3   OH212710   6.167   2.535   0.367 -0.0539  0.6801  0.5334
 4249TIP3    H112711   6.193   2.626   0.381 -0.3211  0.8675 -0.1325
 4249TIP3    H212712   6.198   2.515   0.278 -1.1517  0.5551  0.1615
 4250TIP3   OH212713   4.855   3.986   3.462 -0.1597 -0.4167 -0.0675
 4250TIP3    H112714   4.806   3.904   3.456 -0.4786 -0.3441  1.3061
 4250TIP3    H212715   4.862   4.016   3.371 -0.1937 -1.8612 -0.5741
 4251TIP3   OH212716   6.957   3.074   5.662 -0.0895 -0.0237 -0.1856
 4251TIP3    H112717   6.959   3.169   5.674  1.3914 -0.1343  0.6570
 4251TIP3    H212718   6.943   3.039   5.749  0.9354 -0.6018 -0.2372
 4252TIP3   OH212719   6.599   3.285   1.257 -0.0924  0.2169 -0.4745
 4252TIP3    H112720   6.596   3.191   1.236 -1.1170  0.5673 -2.1234
 4252TIP3    H212721   6.641   3.325   1.180  2.3755  0.9353  1.1386
 4253TIP3   OH212722   3.628   6.082   1.200 -0.6424  0.3463 -0.1936
 4253TIP3    H112723   3.544   6.077   1.246 -1.2912 -1.0995 -1.4319
 4253TIP3    H212724   3.691   6.044   1.260 -1.1688 -0.0475  0.1177
 4254TIP3   OH212725   4.076   2.081   0.503 -0.1246 -0.6284  0.4711
 4254TIP3    H112726   4.116   2.152   0.452 -1.2315  0.0467  0.5184
 4254TIP3    H212727   4.135   2.007   0.490  0.5523  0.0260 -0.3516
 4255TIP3   OH212728   3.216   1.426   3.357 -0.7822  0.3779 -0.5339
 4255TIP3    H112729   3.256   1.511   3.376  0.0190  0.0317 -0.6199
 4255TIP3    H212730   3.181   1.436   3.268 -2.7724  1.3547  0.3106
 4256TIP3   OH212731   5.975   5.952   2.799  0.0520  0.0887  0.2927
 4256TIP3    H112732   5.949   5.923   2.711  1.0341 -1.1784  0.3969
 4256TIP3    H212733   6.001   6.044   2.787 -1.1750  0.3662 -0.4472
 4257TIP3   OH212734   2.299   6.414   5.784  0.1367 -0.0703 -0.1815
 4257TIP3    H112735   2.392   6.402   5.806  0.8258  1.7467 -1.8167
 4257TIP3    H212736   2.274   6.333   5.739  1.2111 -0.2079 -0.5579
 4258TIP3   OH212737   0.187   6.098   5.694 -0.0769  0.1478  0.3338
 4258TIP3    H112738   0.282   6.097   5.697 -0.0600 -2.3941  0.6256
 4258TIP3    H212739   0.165   6.123   5.604  0.8809 -0.2897 -0.0255
 4259TIP3   OH212740   4.877   3.219   4.349 -0.1548  0.1142  0.1603
 4259TIP3    H112741   4.953   3.178   4.309  0.4492 -0.1086  1.4855
 4259TIP3    H212742   4.853   3.161   4.422 -0.2735  1.2673  1.0734
 4260TIP3   OH212743   2.469   0.901   0.124  0.4736 -0.2696 -0.5325
 4260TIP3    H112744   2.374   0.903   0.135  0.6387  2.1163  1.1661
 4260TIP3    H212745   2.495   0.814   0.156 -0.9418 -0.1206  1.1707
 4261TIP3   OH212746   1.059   2.929   2.134  0.2872  0.5732  0.3870
 4261TIP3    H112747   1.147   2.890   2.140  0.3989  0.0208 -2.8268
 4261TIP3    H212748   1.075   3.023   2.127  0.3768  0.7665  2.5537
 4262TIP3   OH212749   4.102   2.254   5.166  0.2525 -0.3076 -0.2204
 4262TIP3    H112750   4.152   2.333   5.189  0.1355 -0.3443  0.1761
 4262TIP3    H212751   4.067   2.272   5.079 -0.4267  0.4029  0.1897
 4263TIP3   OH212752   4.699   1.051   3.700  0.0237 -0.1447 -0.4056
 4263TIP3    H112753   4.675   1.115   3.767  2.5179 -0.4689  0.9293
 4263TIP3    H212754   4.680   0.966   3.741  0.7533 -0.3256 -0.4358
 4264TIP3   OH212755   1.068   4.614   2.215  0.1987  0.2780  0.7751
 4264TIP3    H112756   1.055   4.566   2.134  1.9885 -0.4630  0.8878
 4264TIP3    H212757   0.980   4.627   2.250 -0.7549  1.6551 -1.8307
 4265TIP3   OH212758   0.935   1.959   0.379  0.1836  0.0848  0.2866
 4265TIP3    H112759   0.878   1.884   0.358 -1.2510  1.4185 -0.7778
 4265TIP3    H212760   1.010   1.919   0.424 -0.0595 -2.1065 -1.0777
 4266TIP3   OH212761   5.989   6.638   0.285  0.2483 -0.4493  0.1352
 4266TIP3    H112762   5.964   6.594   0.204  2.3158  0.8119 -1.3067
 4266TIP3    H212763   5.987   6.731   0.263 -0.8830  0.0494  2.1151
 4267TIP3   OH212764   1.704   4.033   1.476  0.6445  0.3601 -0.1771
 4267TIP3    H112765   1.627   3.980   1.455 -0.3610  1.7167 -0.0452
 4267TIP3    H212766   1.763   4.019   1.403  0.7448 -1.5128  0.2047
 4268TIP3   OH212767   4.851   4.170   1.197 -0.4813  0.2201 -0.8339
 4268TIP3    H112768   4.792   4.229   1.244 -0.3386  0.0487 -0.4426
 4268TIP3    H212769   4.859   4.210   1.110 -1.0292  0.3418 -0.8350
 4269TIP3   OH212770   4.121   4.327   0.827  0.2900 -0.2396  0.5879
 4269TIP3    H112771   4.156   4.394   0.886 -1.0799 -0.6279  1.9189
 4269TIP3    H212772   4.063   4.375   0.768  0.1406 -0.1040  0.8421
 4270TIP3   OH212773   2.186   1.969   1.785  0.0870 -0.1418 -0.2575
 4270TIP3    H112774   2.145   2.032   1.726  1.1152 -0.0996 -0.9581
 4270TIP3    H212775   2.167   1.884   1.746  0.3508 -0.1436 -0.3846
 4271TIP3   OH212776   4.544   5.867   4.630 -0.1664 -0.1801 -0.5119
 4271TIP3    H112777   4.537   5.929   4.557  0.4896  1.8848  1.0892
 4271TIP3    H212778   4.638   5.855   4.642 -0.2521 -0.0916  0.2961
 4272TIP3   OH212779   3.422   3.820   3.716  0.0775  0.6553  0.5306
 4272TIP3    H112780   3.443   3.865   3.798 -2.1385 -0.7365  1.9494
 4272TIP3    H212781   3.340   3.859   3.686 -0.4455 -0.5300  0.3308
 4273TIP3   OH212782   4.248   4.994   1.008  0.2386 -0.0923 -0.6749
 4273TIP3    H112783   4.213   4.948   0.932  0.0167 -1.4240  0.2027
 4273TIP3    H212784   4.273   5.080   0.975 -0.5203 -0.3968 -2.0873
 4274TIP3   OH212785   6.743   4.746   2.731 -0.0748 -0.3067 -0.4749
 4274TIP3    H112786   6.720   4.814   2.669  0.6880  0.4973  0.0954
 4274TIP3    H212787   6.661   4.726   2.777 -0.5178 -0.5204 -1.3471
 4275TIP3   OH212788   7.204   3.599   3.263 -0.2200 -0.6457 -0.0026
 4275TIP3    H112789   7.230   3.555   3.344 -2.8873  0.0134  1.3333
 4275TIP3    H212790   7.113   3.624   3.278 -0.1717  1.3363 -2.4470
 4276TIP3   OH212791   6.577   6.322   5.417 -0.0739  0.6775  0.3854
 4276TIP3    H112792   6.578   6.397   5.478  1.5476  1.1413 -0.1734
 4276TIP3    H212793   6.577   6.362   5.330 -1.4226  0.0071  0.0429
 4277TIP3   OH212794   5.646   2.294   1.282  0.0087  0.1466 -0.0828
 4277TIP3    H112795   5.570   2.284   1.225  0.1351  0.7234 -0.3559
 4277TIP3    H212796   5.661   2.388   1.286  0.2540  0.0882  0.5718
 4278TIP3   OH212797   2.590   3.762   5.451 -0.1393  0.7532  0.7220
 4278TIP3    H112798   2.570   3.675   5.416 -0.3702  1.1180 -0.0740
 4278TIP3    H212799   2.657   3.746   5.517  0.3379  0.0429  0.0887
 4279TIP3   OH212800   3.019   2.633   4.741  0.2635 -0.7487  0.1926
 4279TIP3    H112801   3.061   2.650   4.656  1.4402  0.4281  0.9817
 4279TIP3    H212802   2.932   2.670   4.732 -0.0288 -1.6189 -0.8622
 4280TIP3   OH212803   1.910   5.032   0.781 -0.0940  0.1264 -0.5559
 4280TIP3    H112804   1.873   5.111   0.741 -0.0761 -0.1360 -1.1050
 4280TIP3    H212805   2.001   5.032   0.754 -0.2562 -0.4345 -1.1323
 4281TIP3   OH212806   3.789   5.272   4.910  0.3405  0.6179  0.2435
 4281TIP3    H112807   3.824   5.208   4.972  0.0152  2.5268  2.5434
 4281TIP3    H212808   3.846   5.265   4.834  1.4016 -1.1475  1.1372
 4282TIP3   OH212809   0.185   4.496   3.034 -0.2090 -0.4754 -0.2249
 4282TIP3    H112810   0.100   4.453   3.040 -0.5839 -0.1380 -2.2989
 4282TIP3    H212811   0.208   4.491   2.941  1.4066  0.6478  0.0635
 4283TIP3   OH212812   4.466   3.284   3.285 -0.2200 -0.2147  0.1523
 4283TIP3    H112813   4.540   3.295   3.225 -0.3788  2.8102  0.3370
 4283TIP3    H212814   4.504   3.244   3.363  1.1053  0.6894  0.0001
 4284TIP3   OH212815   5.582   5.226   2.883  0.3553 -0.0311 -0.3389
 4284TIP3    H112816   5.513   5.183   2.832  1.6955 -1.1110 -1.3397
 4284TIP3    H212817   5.536   5.278   2.947 -1.4609  1.4839 -2.6998
 4285TIP3   OH212818   1.212   3.207   4.168  0.1024  0.3650 -0.3285
 4285TIP3    H112819   1.205   3.117   4.199  0.6733 -0.3975 -2.3348
 4285TIP3    H212820   1.128   3.247   4.193 -0.3827 -0.8697  0.0760
 4286TIP3   OH212821   6.048   5.389   4.543  0.2583 -0.3254  0.3234
 4286TIP3    H112822   6.049   5.341   4.626 -0.2110 -2.0943 -0.6388
 4286TIP3    H212823   5.991   5.464   4.560 -0.0988 -0.8376  1.5053
 4287TIP3   OH212824   7.003   2.396   4.523 -0.0869  0.3126 -0.4446
 4287TIP3    H112825   7.095   2.371   4.519 -0.1998 -0.1759 -0.1051
 4287TIP3    H212826   6.962   2.351   4.449 -0.4051 -1.0540  0.5154
 4288TIP3   OH212827   4.223   5.817   2.896  0.6049 -0.2603  0.1750
 4288TIP3    H112828   4.256   5.738   2.939 -1.2577 -1.2565 -0.1075
 4288TIP3    H212829   4.175   5.784   2.819 -1.8128  0.9445  1.0561
 4289TIP3   OH212830   3.830   6.483   0.499  0.6975 -0.2727  0.0510
 4289TIP3    H112831   3.815   6.389   0.500 -0.3450 -0.1253 -0.3170
 4289TIP3    H212832   3.860   6.504   0.588  3.2283 -1.2640 -0.4846
 4290TIP3   OH212833   6.093   6.100   0.788 -0.0045  0.0284 -0.1309
 4290TIP3    H112834   6.077   6.179   0.839  1.1076 -0.5238  1.1310
 4290TIP3    H212835   6.161   6.053   0.836 -0.8147 -1.8408 -0.7032
 4291TIP3   OH212836   1.714   4.736   2.122  0.1320  0.3266  0.2604
 4291TIP3    H112837   1.733   4.664   2.062  0.4102  0.5375  0.0960
 4291TIP3    H212838   1.799   4.770   2.148  0.0059  1.6334 -0.9173
 4292TIP3   OH212839   1.539   0.388   4.554  0.2202  0.7534  0.9281
 4292TIP3    H112840   1.453   0.400   4.595  0.7447  1.6899  1.7930
 4292TIP3    H212841   1.552   0.468   4.503 -0.0045  0.0125 -0.3378
 4293TIP3   OH212842   2.883   4.253   2.386 -0.5056 -0.2498 -0.6136
 4293TIP3    H112843   2.951   4.256   2.319 -0.3318  0.2521 -0.4140
 4293TIP3    H212844   2.858   4.160   2.390 -0.8559 -0.2147 -1.7057
 4294TIP3   OH212845   2.660   6.734   5.380  0.3365 -0.4391 -0.2549
 4294TIP3    H112846   2.691   6.820   5.410 -0.9038  0.0944 -0.4304
 4294TIP3    H212847   2.720   6.711   5.309  0.8135  0.1960 -0.0704
 4295TIP3   OH212848   6.406   6.346   4.731 -0.6783  0.3566 -0.6568
 4295TIP3    H112849   6.485   6.346   4.677  0.1187 -1.6124  0.3837
 4295TIP3    H212850   6.438   6.352   4.821 -1.6942 -0.2766 -0.2271
 4296TIP3   OH212851   5.825   5.274   2.713 -0.0118 -0.1194  0.3472
 4296TIP3    H112852   5.900   5.232   2.755  0.5039 -0.8657 -1.2640
 4296TIP3    H212853   5.752   5.259   2.773  0.5531 -1.7320  0.6698
 4297TIP3   OH212854   6.762   0.627   1.788 -0.7423 -0.2706  0.0805
 4297TIP3    H112855   6.762   0.711   1.833  1.2575 -0.0210 -0.2753
 4297TIP3    H212856   6.787   0.564   1.855  1.2549 -0.0338 -0.3589
 4298TIP3   OH212857   2.013   4.215   2.651  0.1680  0.4119 -0.4417
 4298TIP3    H112858   2.053   4.283   2.597 -1.1549  0.7476 -1.0299
 4298TIP3    H212859   1.945   4.260   2.701 -0.7565 -0.4764 -0.8704
 4299TIP3   OH212860   6.904   4.121   3.112  0.2418 -0.1302  0.2118
 4299TIP3    H112861   6.915   4.168   3.194 -1.5054  0.0891  0.3714
 4299TIP3    H212862   6.854   4.043   3.136 -1.5506  0.6427 -0.7957
 4300TIP3   OH212863   2.292   0.249   2.175  0.2580 -0.1646  0.1653
 4300TIP3    H112864   2.256   0.259   2.263  0.1317  0.5561  0.0414
 4300TIP3    H212865   2.225   0.200   2.127 -0.0371  0.1480  0.2547
 4301TIP3   OH212866   4.594   2.859   4.098  0.6377  0.2422 -0.3098
 4301TIP3    H112867   4.690   2.863   4.100  0.6131  1.3020 -0.6418
 4301TIP3    H212868   4.573   2.866   4.005  0.2787 -1.8866 -0.4459
 4302TIP3   OH212869   5.404   2.226   1.174  0.1818  0.1567 -0.5008
 4302TIP3    H112870   5.395   2.219   1.079 -3.9464 -1.9446 -0.1538
 4302TIP3    H212871   5.333   2.283   1.201 -0.1196 -1.0605  1.4447
 4303TIP3   OH212872   5.037   2.490   4.547  0.1402 -0.0785 -0.1053
 4303TIP3    H112873   4.958   2.449   4.512  0.8536 -1.0299 -0.6817
 4303TIP3    H212874   5.030   2.479   4.641 -0.6292  0.2609 -0.1159
 4304TIP3   OH212875   7.173   2.451   3.294  0.2069  0.1327 -0.0166
 4304TIP3    H112876   7.116   2.496   3.232  0.5272  0.5998  0.0281
 4304TIP3    H212877   7.125   2.452   3.376  0.1697  0.2953 -0.0413
 4305TIP3   OH212878   3.345   0.115   1.102  0.1478  0.0389  0.3930
 4305TIP3    H112879   3.346   0.026   1.136 -1.9107  0.3038  1.3168
 4305TIP3    H212880   3.304   0.167   1.172 -0.9116  1.2569 -1.0625
 4306TIP3   OH212881   1.650   4.495   0.589 -0.1186  0.4057 -0.0375
 4306TIP3    H112882   1.596   4.426   0.626 -0.5740  0.6462 -0.2447
 4306TIP3    H212883   1.700   4.529   0.663  0.8621 -0.8103 -0.1109
 4307TIP3   OH212884   5.381   0.479   2.807 -0.2123 -0.0858 -0.1526
 4307TIP3    H112885   5.329   0.556   2.831  0.4125  0.5948 -0.9528
 4307TIP3    H212886   5.465   0.491   2.852 -1.4774 -2.4512  3.3249
 4308TIP3   OH212887   2.860   3.648   0.663  0.1845 -0.1073  0.4174
 4308TIP3    H112888   2.825   3.635   0.575  1.4275  0.6459 -0.2113
 4308TIP3    H212889   2.883   3.560   0.693  2.0377 -0.1787 -1.0167
 4309TIP3   OH212890   3.963   2.999   3.192 -0.3684 -0.1062  0.4618
 4309TIP3    H112891   3.891   2.947   3.156 -0.6511  0.6872 -0.1299
 4309TIP3    H212892   4.027   2.933   3.221 -1.4076 -0.8343  1.2224
 4310TIP3   OH212893   0.037   1.304   0.927 -0.1057 -0.4881 -0.4932
 4310TIP3    H112894   0.101   1.370   0.902  0.8009 -0.7117  1.0665
 4310TIP3    H212895  -0.030   1.307   0.858 -0.4908  2.5518 -0.1206
 4311TIP3   OH212896   6.089   4.203   3.056  0.1323 -0.2311 -0.9487
 4311TIP3    H112897   6.034   4.155   2.994 -1.2567 -1.7188  1.2864
 4311TIP3    H212898   6.078   4.157   3.139 -0.0356  3.0439  1.0366
 4312TIP3   OH212899   6.699   5.828   5.630 -0.0484 -0.2853  0.3392
 4312TIP3    H112900   6.645   5.775   5.689 -1.8476  0.3841 -0.6490
 4312TIP3    H212901   6.744   5.764   5.575 -1.0429 -0.8420  0.1469
 4313TIP3   OH212902   5.327   2.100   1.511  0.0992  0.4516  0.0157
 4313TIP3    H112903   5.248   2.141   1.475  1.3532  2.2021 -0.8896
 4313TIP3    H212904   5.356   2.041   1.441  0.4316  0.9698 -0.2869
 4314TIP3   OH212905   0.709   4.810   5.705 -0.1306 -0.3510  0.2857
 4314TIP3    H112906   0.737   4.898   5.682  0.2176 -0.0290  1.8364
 4314TIP3    H212907   0.638   4.791   5.644  0.8045  0.3742 -1.0903
 4315TIP3   OH212908   5.149   4.971   1.973  0.7295 -0.1534  1.0190
 4315TIP3    H112909   5.070   4.989   2.023 -2.0806 -1.4842 -2.5077
 4315TIP3    H212910   5.157   5.045   1.912  2.9024  0.4808  1.9772
 4316TIP3   OH212911   0.184   3.494   3.096 -0.1526 -0.4467  0.3170
 4316TIP3    H112912   0.126   3.550   3.148  0.6767 -0.0116  0.7971
 4316TIP3    H212913   0.235   3.446   3.161  1.6870  0.9276 -0.0318
 4317TIP3   OH212914   6.242   0.958   2.302 -0.0860 -0.2920 -0.2819
 4317TIP3    H112915   6.271   0.919   2.219 -1.6828 -1.0187 -0.5371
 4317TIP3    H212916   6.166   1.011   2.278 -1.0207 -1.0963  0.8066
 4318TIP3   OH212917   5.718   2.710   5.876  0.3873  0.1404 -0.3746
 4318TIP3    H112918   5.789   2.669   5.925 -0.3573 -0.5088  0.1811
 4318TIP3    H212919   5.728   2.675   5.787  1.7392  1.3240 -0.7334
 4319TIP3   OH212920   6.460   2.032   5.281 -0.1436  0.1012 -1.0206
 4319TIP3    H112921   6.374   2.073   5.293 -0.5716 -0.9901 -0.2119
 4319TIP3    H212922   6.444   1.939   5.296  1.1544 -0.1407 -1.0671
 4320TIP3   OH212923   4.415   5.561   2.393  0.2189 -0.1749 -0.1274
 4320TIP3    H112924   4.422   5.518   2.307 -0.6845 -0.4003 -0.1002
 4320TIP3    H212925   4.472   5.637   2.386 -0.7584  0.4989 -1.3776
 4321TIP3   OH212926   1.612   6.793   3.331 -0.0618 -0.0958  0.1387
 4321TIP3    H112927   1.675   6.853   3.290  0.5302  0.5021  1.8352
 4321TIP3    H212928   1.610   6.717   3.273  3.3273 -0.7550  0.6792
 4322TIP3   OH212929   2.606   3.348   3.238 -0.3839 -0.1313 -0.2885
 4322TIP3    H112930   2.574   3.277   3.183 -2.0193  0.6129 -0.3366
 4322TIP3    H212931   2.700   3.331   3.245 -0.5774 -1.7600 -1.0593
 4323TIP3   OH212932   0.347   5.476   0.373  0.0017 -0.5310 -0.0176
 4323TIP3    H112933   0.297   5.541   0.322  0.4680 -0.2376 -0.1034
 4323TIP3    H212934   0.429   5.467   0.326  1.1507  1.0012  1.5598
 4324TIP3   OH212935   2.284   0.382   4.245 -0.1637  0.0719 -0.2016
 4324TIP3    H112936   2.242   0.469   4.247  0.9724  0.7187 -2.1560
 4324TIP3    H212937   2.357   0.392   4.185 -0.6226 -2.5255 -1.3195
 4325TIP3   OH212938   6.000   1.772   0.096  0.2088 -0.1045 -0.7452
 4325TIP3    H112939   5.916   1.740   0.063 -0.0447  0.2022 -0.3948
 4325TIP3    H212940   5.977   1.845   0.153  0.8334  1.4123 -2.3393
 4326TIP3   OH212941   2.332   3.641   4.359 -0.1949  0.4284  0.2269
 4326TIP3    H112942   2.353   3.557   4.398  0.5520  1.1132  1.3436
 4326TIP3    H212943   2.364   3.706   4.421 -1.5567  1.5502 -0.1710
 4327TIP3   OH212944   3.934   2.749   5.216 -0.6223 -0.0661  0.1422
 4327TIP3    H112945   4.018   2.761   5.259 -1.3743 -0.7811  1.9259
 4327TIP3    H212946   3.902   2.665   5.248 -1.2806 -0.6354 -1.8236
 4328TIP3   OH212947   2.814   3.025   3.166  0.2703 -0.2170 -0.0221
 4328TIP3    H112948   2.834   3.016   3.073  1.3286 -0.2945  0.2014
 4328TIP3    H212949   2.771   2.943   3.189  0.8605 -0.5961 -0.2388
 4329TIP3   OH212950   0.833   5.420   2.091 -0.4571 -0.5907  0.7940
 4329TIP3    H112951   0.895   5.466   2.147 -0.5142 -0.6360  0.8947
 4329TIP3    H212952   0.750   5.467   2.104 -0.1109  0.4557 -0.5245
 4330TIP3   OH212953   1.266   0.126   5.774 -0.4979  0.0346 -0.2167
 4330TIP3    H112954   1.267   0.217   5.803 -0.9473 -0.5848  1.9230
 4330TIP3    H212955   1.183   0.091   5.807 -0.4332 -1.1093 -1.1848
 4331TIP3   OH212956   3.057   4.728   1.667  0.4098 -0.4235 -0.5926
 4331TIP3    H112957   3.009   4.805   1.698  1.7724 -0.8096  2.9606
 4331TIP3    H212958   3.133   4.764   1.620  0.5584  0.3878  0.2488
 4332TIP3   OH212959   1.245   3.972   5.104 -0.4649  0.1779  0.0105
 4332TIP3    H112960   1.307   3.994   5.035 -0.6474  1.0217  0.0948
 4332TIP3    H212961   1.171   3.933   5.058  0.6779 -2.1635  0.0438
 4333TIP3   OH212962   5.514   5.781   5.021  0.1522  0.1471  0.1231
 4333TIP3    H112963   5.604   5.764   4.992 -0.0309 -1.9922  0.5922
 4333TIP3    H212964   5.465   5.705   4.988 -1.0386  0.1783  1.7316
 4334TIP3   OH212965   6.461   3.006   2.365  0.4456 -0.2515  0.0085
 4334TIP3    H112966   6.411   3.068   2.418  0.6348 -1.7722  2.0588
 4334TIP3    H212967   6.551   3.015   2.397  0.8650 -0.0769 -1.1779
 4335TIP3   OH212968   6.892   2.772   0.868  0.0132 -0.1884  0.7774
 4335TIP3    H112969   6.975   2.730   0.844 -0.7620 -0.3419 -1.9170
 4335TIP3    H212970   6.827   2.702   0.861 -1.0695  0.9338 -2.3360
 4336TIP3   OH212971   2.428   0.908   4.571 -0.2188  0.1338  0.6323
 4336TIP3    H112972   2.511   0.941   4.537 -1.0037  1.3338 -0.2061
 4336TIP3    H212973   2.453   0.853   4.646  1.2887  0.9048  0.7387
 4337TIP3   OH212974   5.831   4.331   2.008  0.3318 -0.2986  0.0364
 4337TIP3    H112975   5.870   4.243   2.013  0.2666 -0.3794 -0.7149
 4337TIP3    H212976   5.765   4.331   2.077  1.2989 -0.3387  0.9903
 4338TIP3   OH212977   0.332   0.189   3.713  0.1093 -0.3402 -0.4076
 4338TIP3    H112978   0.275   0.154   3.644  0.4333 -2.1114  0.1599
 4338TIP3    H212979   0.273   0.236   3.771 -0.4595 -0.4263 -0.9040
 4339TIP3   OH212980   4.628   6.253   4.168 -0.6709 -0.1672  0.2286
 4339TIP3    H112981   4.532   6.259   4.164 -0.5861  0.9153 -0.7633
 4339TIP3    H212982   4.653   6.225   4.080  0.0625  2.5516 -0.5292
 4340TIP3   OH212983   0.679   5.728   0.409  0.3292  0.5759  0.1681
 4340TIP3    H112984   0.750   5.702   0.351 -0.1536  1.0336 -0.6527
 4340TIP3    H212985   0.612   5.763   0.350 -0.5266  0.2661  0.9323
 4341TIP3   OH212986   3.366   6.592   1.172  0.0496 -0.4185  0.0901
 4341TIP3    H112987   3.366   6.666   1.232  2.1312 -0.0664 -0.2617
 4341TIP3    H212988   3.396   6.628   1.089 -0.6637 -1.3282 -0.5939
 4342TIP3   OH212989   1.943   4.986   1.730  0.0264 -0.0136 -0.0866
 4342TIP3    H112990   1.862   5.006   1.683  0.0006 -0.2421 -0.1402
 4342TIP3    H212991   1.945   4.891   1.734  0.4767 -0.0208 -0.4070
 4343TIP3   OH212992   3.417   5.913   3.558 -0.3017  0.2861  0.0251
 4343TIP3    H112993   3.433   5.885   3.468 -0.8304 -1.2826  0.3751
 4343TIP3    H212994   3.345   5.857   3.588 -1.3788  2.0287  0.8573
 4344TIP3   OH212995   4.133   1.384   2.169 -0.0667 -0.5604  0.2946
 4344TIP3    H112996   4.082   1.461   2.143  1.0142 -0.4923 -1.8020
 4344TIP3    H212997   4.133   1.388   2.265 -2.4349  0.4204  0.3445
 4345TIP3   OH212998   1.463   5.682   0.217  0.1219 -0.6283  0.1050
 4345TIP3    H112999   1.544   5.702   0.170  0.4878 -1.1806  0.4766
 4345TIP3    H213000   1.445   5.591   0.195  0.1637 -0.8194  0.8250
 4346TIP3   OH213001   2.835   4.508   0.499  0.0139 -0.1320 -0.4734
 4346TIP3    H113002   2.915   4.456   0.508 -0.4144 -0.8778 -0.8428
 4346TIP3    H213003   2.866   4.598   0.490  0.9525 -0.5929 -2.6313
 4347TIP3   OH213004   4.359   0.404   5.438 -0.0005 -0.0190  0.1699
 4347TIP3    H113005   4.357   0.313   5.408 -0.7555  0.0134  0.1211
 4347TIP3    H213006   4.453   0.425   5.442  0.1870 -0.8781  0.4450
 4348TIP3   OH213007   1.536   1.935   2.448 -0.8350  0.4814 -0.4933
 4348TIP3    H113008   1.582   1.969   2.371 -0.7344  0.9156 -0.2456
 4348TIP3    H213009   1.449   1.975   2.443 -1.0403  0.0139 -0.7184
 4349TIP3   OH213010   5.478   2.728   3.190 -0.2964 -0.0726  0.0383
 4349TIP3    H113011   5.510   2.639   3.176  0.1541  0.1474 -0.3681
 4349TIP3    H213012   5.506   2.750   3.279 -0.2307 -0.2569  0.0634
 4350TIP3   OH213013  -0.002   0.325   1.532  0.3217  0.3538  1.1038
 4350TIP3    H113014   0.092   0.341   1.530  0.1309  1.4929  0.4709
 4350TIP3    H213015  -0.038   0.382   1.464 -0.8089 -0.2249  1.1858
 4351TIP3   OH213016   4.456   6.294   2.081 -0.3825 -0.5593  0.5054
 4351TIP3    H113017   4.513   6.285   2.004 -0.0784  1.1641  0.4885
 4351TIP3    H213018   4.514   6.279   2.155  0.0504  0.8424  0.4764
 4352TIP3   OH213019   0.533   2.920   2.486 -0.6933  0.0863  0.4425
 4352TIP3    H113020   0.478   2.999   2.486 -0.4755  0.2523  1.8548
 4352TIP3    H213021   0.564   2.914   2.396 -0.6422  1.6750  0.3168
 4353TIP3   OH213022   5.388   3.548   0.673  0.3041 -0.5423 -0.1695
 4353TIP3    H113023   5.477   3.530   0.643  0.1827 -0.3131 -0.6650
 4353TIP3    H213024   5.362   3.627   0.627 -0.0732 -0.4753  0.1508
 4354TIP3   OH213025   1.420   5.727   2.483  0.0043 -0.0733  0.2974
 4354TIP3    H113026   1.405   5.634   2.501 -2.2058  0.1089 -0.4136
 4354TIP3    H213027   1.349   5.772   2.528  0.7898  1.2522  0.2474
 4355TIP3   OH213028   6.278   5.743   4.750 -0.6076  0.1241 -0.3221
 4355TIP3    H113029   6.302   5.651   4.742 -1.1005  0.0089 -0.5068
 4355TIP3    H213030   6.319   5.785   4.675 -2.6372 -0.4225 -1.8252
 4356TIP3   OH213031   7.166   0.681   0.828 -0.1288  0.2619  0.0152
 4356TIP3    H113032   7.148   0.707   0.919  1.3119 -1.2001  0.7680
 4356TIP3    H213033   7.170   0.764   0.781  1.9562  1.3465  1.8686
 4357TIP3   OH213034   4.798   1.629   1.303  0.9236 -0.3068  0.7014
 4357TIP3    H113035   4.736   1.569   1.344  1.5046 -0.8527  0.7898
 4357TIP3    H213036   4.791   1.610   1.209  0.9525 -0.3654  0.7111
 4358TIP3   OH213037   1.789   3.442   0.704 -0.3120 -0.0835 -0.0882
 4358TIP3    H113038   1.777   3.523   0.655  0.8369  0.6187  0.7128
 4358TIP3    H213039   1.737   3.376   0.658 -0.0974  0.7842 -1.6063
 4359TIP3   OH213040   4.305   5.646   3.223  0.2494 -0.5777 -0.4171
 4359TIP3    H113041   4.364   5.571   3.227 -0.3248 -1.0470 -0.7066
 4359TIP3    H213042   4.226   5.618   3.268  0.6388  0.4354  0.9734
 4360TIP3   OH213043   4.526   6.681   1.982  0.3736 -0.5604  0.2766
 4360TIP3    H113044   4.612   6.659   2.017  0.0184 -1.8954  0.3919
 4360TIP3    H213045   4.530   6.657   1.889  0.1310 -0.6530  0.2873
 4361TIP3   OH213046   4.053   0.538   3.551 -0.0114  0.0913  0.1555
 4361TIP3    H113047   3.963   0.531   3.517 -0.0873  0.8721  0.1886
 4361TIP3    H213048   4.051   0.488   3.633 -0.1855 -0.6299 -0.2758
 4362TIP3   OH213049   2.827   0.589   3.947  0.1504 -0.4942  0.1934
 4362TIP3    H113050   2.921   0.574   3.934  0.4205 -0.6396  1.9890
 4362TIP3    H213051   2.792   0.602   3.859  1.9138 -0.0664 -0.4896
 4363TIP3   OH213052   0.800   6.422   1.618  0.0757  0.3236  0.2686
 4363TIP3    H113053   0.737   6.494   1.614 -1.8224 -1.2545 -2.4666
 4363TIP3    H213054   0.763   6.362   1.683 -0.8832 -0.1661 -0.6720
 4364TIP3   OH213055   1.593   5.661   3.393  0.9190  0.1419 -0.7583
 4364TIP3    H113056   1.621   5.667   3.484 -0.7365 -1.8527 -0.0286
 4364TIP3    H213057   1.666   5.620   3.348 -0.0710 -3.8592  0.8536
 4365TIP3   OH213058   2.824   2.827   2.084 -0.8057 -0.9012  0.5926
 4365TIP3    H113059   2.835   2.756   2.147 -1.6910 -2.1999 -0.6386
 4365TIP3    H213060   2.772   2.788   2.013 -1.1122  0.9222 -0.2386
 4366TIP3   OH213061   5.302   2.645   4.308  0.1230  0.2522 -0.2273
 4366TIP3    H113062   5.377   2.704   4.303  0.2947  0.3550  2.2617
 4366TIP3    H213063   5.253   2.661   4.228  2.2003  0.9340 -1.4291
 4367TIP3   OH213064   4.353   3.880   0.868  0.0484 -0.4974  0.3398
 4367TIP3    H113065   4.306   3.939   0.810  1.2671  0.3762  0.2009
 4367TIP3    H213066   4.436   3.925   0.887  0.7967 -1.9299  0.6488
 4368TIP3   OH213067   6.218   0.453   2.807 -0.1554  0.0096 -0.0788
 4368TIP3    H113068   6.169   0.376   2.838 -0.4087  0.3152  0.2893
 4368TIP3    H213069   6.151   0.519   2.791  0.1721  0.5930  0.9030
 4369TIP3   OH213070   4.359   2.857   1.792  0.0061 -0.3137 -0.2174
 4369TIP3    H113071   4.387   2.768   1.772 -1.7936 -0.6546 -1.5151
 4369TIP3    H213072   4.393   2.874   1.880 -1.0758 -2.9549  0.8262
 4370TIP3   OH213073   5.055   5.947   4.329 -0.6149  0.2878  0.3765
 4370TIP3    H113074   4.984   6.010   4.343 -0.5758  0.3018  0.5136
 4370TIP3    H213075   5.029   5.870   4.378  0.0970  0.7668  1.5568
 4371TIP3   OH213076   4.431   5.723   3.495 -0.0563  0.0752  0.1748
 4371TIP3    H113077   4.336   5.719   3.506 -0.0829  1.0292  0.3879
 4371TIP3    H213078   4.444   5.735   3.400 -0.0489 -2.0892 -0.1546
 4372TIP3   OH213079   3.371   5.837   1.142 -0.4750 -0.4415  0.0578
 4372TIP3    H113080   3.363   5.892   1.063 -1.8087 -0.8513 -0.1285
 4372TIP3    H213081   3.364   5.899   1.215 -0.0146 -0.1479 -0.1428
 4373TIP3   OH213082   4.982   0.602   0.379  0.1377 -0.3265  0.0975
 4373TIP3    H113083   4.958   0.597   0.286  0.2009 -2.8268  0.1501
 4373TIP3    H213084   5.076   0.583   0.381 -0.2821 -2.6658  0.7777
 4374TIP3   OH213085   1.066   3.528   2.497  0.0436 -0.0457  0.2044
 4374TIP3    H113086   1.084   3.549   2.405  0.9374  1.6948  0.7237
 4374TIP3    H213087   0.992   3.468   2.494 -0.4506  0.5800 -1.6325
 4375TIP3   OH213088   5.797   4.125   1.466  0.1589  0.3562 -0.2002
 4375TIP3    H113089   5.891   4.124   1.484  0.2289  1.3355 -0.4874
 4375TIP3    H213090   5.780   4.040   1.426  0.6849 -0.3354  0.9654
 4376TIP3   OH213091   0.763   5.549   2.506  0.0671 -0.2111 -0.1866
 4376TIP3    H113092   0.708   5.616   2.465 -2.1317  0.2846  3.1649
 4376TIP3    H213093   0.818   5.598   2.567  0.6264 -1.2062  0.1289
 4377TIP3   OH213094   4.806   4.514   4.537  0.0817  0.8387  0.3615
 4377TIP3    H113095   4.881   4.567   4.563 -1.2731  2.2477  1.5595
 4377TIP3    H213096   4.736   4.538   4.598 -1.6161  0.2436 -1.2276
 4378TIP3   OH213097   4.311   2.436   5.818  0.2118  0.6101  0.5715
 4378TIP3    H113098   4.277   2.348   5.832  1.7096  0.2261  2.1196
 4378TIP3    H213099   4.254   2.492   5.871 -1.2866  0.7583 -1.0939
 4379TIP3   OH213100   4.552   2.245   2.449 -0.4791  0.2950  0.2269
 4379TIP3    H113101   4.557   2.150   2.457  0.1408  0.3054 -0.0283
 4379TIP3    H213102   4.479   2.270   2.506 -0.8779 -0.3665  0.0132
 4380TIP3   OH213103   1.719   4.029   0.073  0.0778  0.2103  0.2273
 4380TIP3    H113104   1.765   4.112   0.081 -1.1434  1.0513 -0.9612
 4380TIP3    H213105   1.788   3.964   0.065  1.1067  0.8531  2.7750
 4381TIP3   OH213106   4.978   2.076   1.436 -0.2896  0.4440  0.3394
 4381TIP3    H113107   4.895   2.059   1.391 -0.6584 -2.5741  1.9142
 4381TIP3    H213108   5.036   2.006   1.406  0.7635  0.8547  1.3587
 4382TIP3   OH213109   1.602   6.415   1.266 -0.7850  0.1638  0.0713
 4382TIP3    H113110   1.653   6.368   1.332 -1.8649 -0.2618  0.6184
 4382TIP3    H213111   1.564   6.346   1.211 -0.4217  0.4927 -0.6042
 4383TIP3   OH213112   6.510   0.805   1.554 -0.2708  0.2508 -0.2754
 4383TIP3    H113113   6.524   0.712   1.568 -1.2652  0.2178  0.6133
 4383TIP3    H213114   6.582   0.848   1.600  0.5871 -0.0703 -1.2630
 4384TIP3   OH213115   0.535   5.006   5.488  0.1722  0.1454  0.1114
 4384TIP3    H113116   0.615   5.057   5.496  0.7510 -0.9123  1.2499
 4384TIP3    H213117   0.471   5.052   5.542  0.5324 -0.0137  0.6733
 4385TIP3   OH213118   4.163   1.116   2.756 -0.8902  0.7201  0.0359
 4385TIP3    H113119   4.074   1.151   2.768 -0.4967  1.4069  1.1163
 4385TIP3    H213120   4.188   1.144   2.668 -1.2325  1.7112  0.2410
 4386TIP3   OH213121   2.320   3.270   4.387 -0.1336  0.1183 -0.1518
 4386TIP3    H113122   2.243   3.214   4.394  0.2550 -0.8867 -2.7686
 4386TIP3    H213123   2.329   3.287   4.293  1.2448  2.5158  0.3410
 4387TIP3   OH213124   0.716   5.838   4.986 -0.4628 -0.4552 -0.2551
 4387TIP3    H113125   0.661   5.777   4.937 -1.9327 -0.4952  1.3403
 4387TIP3    H213126   0.657   5.911   5.007  0.6440  0.4499 -0.1862
 4388TIP3   OH213127   4.750   5.662   0.333 -0.2225 -0.2733 -0.2576
 4388TIP3    H113128   4.721   5.747   0.367 -0.1459 -0.4330  0.2217
 4388TIP3    H213129   4.727   5.600   0.402  1.5281 -0.3730  0.2862
 4389TIP3   OH213130   3.700   1.061   3.910  0.2494  0.1932  0.0252
 4389TIP3    H113131   3.732   1.059   4.000  0.5107  0.0402 -0.0694
 4389TIP3    H213132   3.728   1.146   3.876  1.3853 -0.3146 -0.3528
 4390TIP3   OH213133   2.563   4.785   1.631  0.1469 -0.3158 -0.0187
 4390TIP3    H113134   2.508   4.707   1.635  0.5835 -0.6016  0.6514
 4390TIP3    H213135   2.570   4.813   1.722  0.6105  0.0675 -0.1703
 4391TIP3   OH213136   5.503   0.647   3.031  0.3249  0.0163  0.1425
 4391TIP3    H113137   5.469   0.732   3.059 -0.0169  0.0660 -0.4241
 4391TIP3    H213138   5.472   0.586   3.098 -0.5946  0.1162 -0.1775
 4392TIP3   OH213139   1.879   2.486   2.884  0.0600 -0.1994 -0.1671
 4392TIP3    H113140   1.797   2.535   2.889  0.2825  0.2420 -0.7673
 4392TIP3    H213141   1.879   2.431   2.962 -1.4782 -1.2497 -0.8620
 4393TIP3   OH213142   2.258   0.393   3.852  0.4157 -0.4742  0.0045
 4393TIP3    H113143   2.296   0.305   3.852  0.2225 -0.5812  1.7841
 4393TIP3    H213144   2.320   0.445   3.801  1.4049 -1.2873  0.3399
 4394TIP3   OH213145   2.140   3.823   3.190 -0.0223  0.3010  0.7821
 4394TIP3    H113146   2.110   3.733   3.206  1.1369 -0.2887 -0.2126
 4394TIP3    H213147   2.084   3.877   3.246 -1.0372 -0.9948  1.0654
 4395TIP3   OH213148   4.434   5.255   4.142  0.1356 -0.1440 -0.0339
 4395TIP3    H113149   4.395   5.259   4.055  0.6216  1.2207 -0.2077
 4395TIP3    H213150   4.479   5.170   4.145 -0.0652 -0.2918 -1.0242
 4396TIP3   OH213151   6.832   3.354   2.198 -0.1626  0.0739 -0.3139
 4396TIP3    H113152   6.834   3.444   2.165 -0.1402  0.8790  1.7220
 4396TIP3    H213153   6.753   3.350   2.252 -0.6262 -1.4038 -1.0605
 4397TIP3   OH213154   7.131   5.888   2.206 -0.0967  0.2725  0.1902
 4397TIP3    H113155   7.106   5.796   2.220  0.0409  0.1946 -0.0710
 4397TIP3    H213156   7.050   5.937   2.218  0.2009  0.3260  2.3096
 4398TIP3   OH213157   0.848   5.010   5.555 -0.1764  0.0450 -0.4424
 4398TIP3    H113158   0.818   5.066   5.483 -1.1986  2.1405  1.5034
 4398TIP3    H213159   0.883   5.071   5.620  2.8651 -1.9075 -0.0177
 4399TIP3   OH213160   6.237   6.177   1.342  0.0170  0.0934 -0.2023
 4399TIP3    H113161   6.309   6.163   1.281 -1.2673  1.1323 -2.0874
 4399TIP3    H213162   6.275   6.228   1.414  1.4807 -0.7452 -0.3601
 4400TIP3   OH213163   2.836   5.056   0.256  0.2518  0.1834 -0.0395
 4400TIP3    H113164   2.806   4.969   0.283  0.9187  0.1914  0.7683
 4400TIP3    H213165   2.784   5.117   0.308  1.0128  0.2134  0.7237
 4401TIP3   OH213166   2.601   1.650   4.263 -0.0174 -0.1935 -0.7420
 4401TIP3    H113167   2.506   1.643   4.253 -0.3093  0.5883  1.0801
 4401TIP3    H213168   2.616   1.743   4.280  0.6393 -0.7413  2.3233
 4402TIP3   OH213169   1.507   4.327   1.585 -0.1839  0.0844 -0.0340
 4402TIP3    H113170   1.423   4.313   1.541 -0.0866 -2.4429  0.4532
 4402TIP3    H213171   1.514   4.255   1.648  2.0544  0.6036  0.3995
 4403TIP3   OH213172   4.520   2.245   4.045  0.1149 -0.2709  0.2927
 4403TIP3    H113173   4.569   2.296   4.108  0.9396  1.2263 -1.4703
 4403TIP3    H213174   4.429   2.250   4.075  0.1186  2.5535  0.0264
 4404TIP3   OH213175   4.302   1.467   4.601 -0.1252  0.2873  0.1405
 4404TIP3    H113176   4.344   1.487   4.517  0.1188  1.5432  0.5419
 4404TIP3    H213177   4.345   1.387   4.631  0.9939  0.7788 -0.1162
 4405TIP3   OH213178   1.478   5.817   5.377 -0.7324  0.2042  0.2369
 4405TIP3    H113179   1.452   5.824   5.469 -0.6674 -0.3180  0.2981
 4405TIP3    H213180   1.401   5.783   5.332 -0.1230 -1.5525  0.4570
 4406TIP3   OH213181   3.588   6.803   0.111  0.1126  0.4209 -0.1430
 4406TIP3    H113182   3.544   6.719   0.102  2.3214 -0.6876 -1.5599
 4406TIP3    H213183   3.573   6.847   0.027  0.6002  0.5735 -0.1541
 4407TIP3   OH213184   5.427   5.808   0.819  0.0864  0.5000  0.2152
 4407TIP3    H113185   5.428   5.755   0.739  0.0089  0.3682  0.3018
 4407TIP3    H213186   5.446   5.897   0.788  0.2231  0.4218  0.0707
 4408TIP3   OH213187   1.468   0.461   5.877 -0.4552 -0.0445 -0.5342
 4408TIP3    H113188   1.494   0.412   5.799 -0.7022  1.1146 -1.3853
 4408TIP3    H213189   1.407   0.403   5.923 -2.0852  0.0639 -2.3889
 4409TIP3   OH213190   6.007   2.519   2.792  0.1447 -0.0698 -0.3095
 4409TIP3    H113191   6.041   2.430   2.792 -1.2162 -0.6634  2.1111
 4409TIP3    H213192   5.961   2.528   2.709  0.2419 -1.6472 -0.5482
 4410TIP3   OH213193   5.132   0.976   2.970 -0.1129  0.5950 -0.0497
 4410TIP3    H113194   5.226   0.981   2.951  0.1630 -0.9468  0.7580
 4410TIP3    H213195   5.104   1.067   2.975  1.3728  1.0870 -0.1196
 4411TIP3   OH213196   1.619   0.947   2.620 -0.4156  0.2883 -0.0721
 4411TIP3    H113197   1.578   1.012   2.676  2.2498  1.7434  0.3960
 4411TIP3    H213198   1.686   0.906   2.675 -0.8792 -1.6541 -0.8640
 4412TIP3   OH213199   2.297   3.530   0.607 -0.3124 -0.3196 -0.0725
 4412TIP3    H113200   2.309   3.494   0.695 -0.7439 -0.9895 -0.2783
 4412TIP3    H213201   2.351   3.609   0.605  0.9837 -1.1689  0.2545
 4413TIP3   OH213202   1.880   1.356   4.325 -0.5612 -0.1559  0.4608
 4413TIP3    H113203   1.787   1.354   4.349  0.0063 -2.2551  2.9109
 4413TIP3    H213204   1.922   1.293   4.384  2.4417  0.6439 -0.6160
 4414TIP3   OH213205   4.731   6.332   4.638 -0.0974  0.8454 -0.0500
 4414TIP3    H113206   4.665   6.365   4.699 -0.7764 -0.8667  0.1742
 4414TIP3    H213207   4.692   6.344   4.552 -0.9776 -0.6743  0.1100
 4415TIP3   OH213208   6.287   3.133   3.383 -0.5007  0.3671 -0.2043
 4415TIP3    H113209   6.349   3.070   3.420 -0.3147  1.0489  0.6687
 4415TIP3    H213210   6.297   3.124   3.288 -0.0902 -0.5269 -0.0831
 4416TIP3   OH213211   2.651   5.949   5.416 -0.7280 -0.0509 -0.1451
 4416TIP3    H113212   2.736   5.913   5.391 -1.4586 -0.9105 -1.5110
 4416TIP3    H213213   2.594   5.873   5.423 -1.4156  0.5254  0.7244
 4417TIP3   OH213214   0.356   5.797   4.529  0.2812  0.6676  0.1202
 4417TIP3    H113215   0.405   5.734   4.581 -0.9097  0.4857  1.0699
 4417TIP3    H213216   0.296   5.744   4.476  0.4805  0.9200 -0.3601
 4418TIP3   OH213217   5.246   1.753   4.668 -0.0486 -0.7596 -0.1377
 4418TIP3    H113218   5.261   1.725   4.577  2.1223 -0.6728  0.1530
 4418TIP3    H213219   5.284   1.841   4.672 -1.8285  0.0264  0.4046
 4419TIP3   OH213220   0.490   6.670   4.034  0.0213  0.1006 -0.0909
 4419TIP3    H113221   0.514   6.694   3.944 -0.2858 -0.4220 -0.3198
 4419TIP3    H213222   0.573   6.664   4.080  0.1942  0.2249 -0.3814
 4420TIP3   OH213223   2.719   5.617   1.846  0.4040  0.2678 -0.1625
 4420TIP3    H113224   2.711   5.659   1.761  1.4721 -1.7768 -1.3592
 4420TIP3    H213225   2.652   5.658   1.900 -1.7819  0.1883 -2.6056
 4421TIP3   OH213226   4.900   3.821   5.036  0.5133  0.1699 -0.3695
 4421TIP3    H113227   4.990   3.818   5.004  0.5256  0.5529 -0.3744
 4421TIP3    H213228   4.907   3.794   5.128  0.3961 -1.5387 -0.8342
 4422TIP3   OH213229   4.487   1.170   2.363 -0.6647 -0.0796  0.2763
 4422TIP3    H113230   4.478   1.183   2.268  0.4675  1.3616  0.3365
 4422TIP3    H213231   4.399   1.183   2.397 -0.5868  2.3165 -0.2910
 4423TIP3   OH213232   4.388   3.505   3.519  0.2409 -0.7885  0.0104
 4423TIP3    H113233   4.394   3.410   3.511  1.4043 -0.7645  0.4978
 4423TIP3    H213234   4.435   3.526   3.599 -2.1923 -0.0159  1.3199
 4424TIP3   OH213235   4.597   5.097   0.888  0.3207  0.6066 -0.1336
 4424TIP3    H113236   4.633   5.124   0.804  0.3354  1.0405  0.0114
 4424TIP3    H213237   4.652   5.024   0.916 -0.4212 -0.3532 -1.0726
 4425TIP3   OH213238   5.063   5.096   4.030  0.3138 -0.0486 -0.8343
 4425TIP3    H113239   5.031   5.161   3.967  1.0722  0.0296 -1.1581
 4425TIP3    H213240   5.114   5.035   3.977 -1.2826 -1.5701 -0.7145
 4426TIP3   OH213241   1.842   1.099   3.155 -0.2820  0.4572  0.1225
 4426TIP3    H113242   1.908   1.035   3.129 -2.0220 -2.4452  2.2718
 4426TIP3    H213243   1.885   1.150   3.224  0.4435  0.1493 -0.0913
 4427TIP3   OH213244   0.271   3.056   1.577  0.3507  0.1929 -0.5424
 4427TIP3    H113245   0.281   3.062   1.482  2.6671  0.1581 -0.3622
 4427TIP3    H213246   0.308   2.970   1.600 -0.5912  0.0011  0.3619
 4428TIP3   OH213247   0.740   5.678   1.015  0.0447  0.1001  0.3714
 4428TIP3    H113248   0.700   5.650   0.933  0.4603 -1.0987  0.5514
 4428TIP3    H213249   0.775   5.597   1.054  2.8412  1.0645  0.1265
 4429TIP3   OH213250   1.395   6.261   2.612  0.2347  0.0514  0.8891
 4429TIP3    H113251   1.374   6.217   2.695  0.5229  0.3017  1.0979
 4429TIP3    H213252   1.317   6.249   2.558 -0.4547  0.9634  1.6410
 4430TIP3   OH213253   4.507   4.454   4.113 -0.4349  0.1578 -0.2875
 4430TIP3    H113254   4.524   4.490   4.200 -0.4132  0.9816 -0.6242
 4430TIP3    H213255   4.431   4.503   4.081  0.3983  0.8345 -1.2774
 4431TIP3   OH213256   0.353   3.433   5.493 -0.2838  0.6250  0.0645
 4431TIP3    H113257   0.373   3.434   5.586 -0.6369  0.5686  0.1409
 4431TIP3    H213258   0.438   3.445   5.450  0.0241 -0.3951  0.3706
 4432TIP3   OH213259   4.318   4.649   3.264  0.4359  0.7417  0.6699
 4432TIP3    H113260   4.252   4.588   3.230 -1.2206  1.6107  2.1589
 4432TIP3    H213261   4.400   4.601   3.259 -0.6403 -1.1947  0.7394
 4433TIP3   OH213262   6.647   3.835   1.425 -0.4052  0.0401 -0.0102
 4433TIP3    H113263   6.644   3.744   1.395 -0.6453  0.3460 -0.9699
 4433TIP3    H213264   6.582   3.840   1.495 -1.7400 -0.1234 -1.1821
 4434TIP3   OH213265   3.250   2.019   5.587 -0.1551  0.2502 -0.0015
 4434TIP3    H113266   3.329   1.977   5.623 -0.5481 -0.7785 -0.2931
 4434TIP3    H213267   3.247   1.991   5.496 -0.3313  1.0918 -0.2634
 4435TIP3   OH213268   7.213   1.380   1.758 -0.6872  0.0826  0.1050
 4435TIP3    H113269   7.198   1.471   1.733 -1.1397  0.2012  0.7763
 4435TIP3    H213270   7.127   1.349   1.786 -0.6367 -0.6928 -0.5415
 4436TIP3   OH213271   2.895   5.103   1.096  0.7076 -0.2486  0.0255
 4436TIP3    H113272   2.972   5.160   1.095  1.4886 -1.2926 -0.5138
 4436TIP3    H213273   2.831   5.151   1.149  0.8969  1.6895 -1.4201
 4437TIP3   OH213274   2.025   3.831   2.540  0.4826 -0.1559  0.5248
 4437TIP3    H113275   2.115   3.824   2.507  0.4493 -1.2707  0.6329
 4437TIP3    H213276   2.030   3.900   2.606  0.9471  0.7895 -0.4601
 4438TIP3   OH213277   0.462   0.756   2.731 -0.5724  0.3304  0.5489
 4438TIP3    H113278   0.375   0.772   2.696 -0.4331 -0.5191 -0.2270
 4438TIP3    H213279   0.484   0.668   2.700 -1.1495 -1.2679  4.1868
 4439TIP3   OH213280   4.077   5.317   5.476  0.0213 -0.2745  0.5073
 4439TIP3    H113281   4.121   5.290   5.395 -1.6665  0.0615 -0.5664
 4439TIP3    H213282   4.144   5.363   5.525  1.4698 -1.6664 -0.0690
 4440TIP3   OH213283   1.268   0.400   0.123  0.1489  0.6001  0.3047
 4440TIP3    H113284   1.182   0.364   0.102  0.0285  1.3241 -0.4957
 4440TIP3    H213285   1.329   0.327   0.114 -0.2827  0.2653  0.1053
 4441TIP3   OH213286   3.444   3.644   3.482  0.1154  0.0961 -0.1122
 4441TIP3    H113287   3.505   3.641   3.408 -1.1835 -0.0371 -1.2329
 4441TIP3    H213288   3.490   3.694   3.549  1.2858  0.3629 -1.0677
 4442TIP3   OH213289   0.369   1.425   5.780 -0.0639 -0.3900 -0.1535
 4442TIP3    H113290   0.389   1.506   5.826  0.0304  0.0489 -0.9453
 4442TIP3    H213291   0.297   1.386   5.829 -0.5116  0.4757 -0.1129
 4443TIP3   OH213292   1.757   3.522   4.156 -0.3859  0.5159  0.4541
 4443TIP3    H113293   1.758   3.443   4.102 -1.4431  0.6238  0.2671
 4443TIP3    H213294   1.825   3.578   4.118  0.9197 -0.6050  1.0689
 4444TIP3   OH213295   3.516   4.474   4.960 -0.2767 -0.2474  0.4204
 4444TIP3    H113296   3.429   4.508   4.981  0.2662  1.3239  0.2363
 4444TIP3    H213297   3.503   4.423   4.880 -0.8216  1.0837 -0.3698
 4445TIP3   OH213298   5.719   2.388   5.846 -0.0235 -0.4859  0.0755
 4445TIP3    H113299   5.760   2.381   5.760  0.0878  0.9294 -0.0024
 4445TIP3    H213300   5.634   2.428   5.830  0.2273  0.3215  0.6659
 4446TIP3   OH213301   1.946   4.117   2.185  0.2993  0.0193 -0.0010
 4446TIP3    H113302   1.917   4.034   2.146 -0.5605  0.7898 -1.0534
 4446TIP3    H213303   1.912   4.114   2.274 -2.0175  0.3148 -0.7946
 4447TIP3   OH213304   4.306   2.700   2.369 -0.2737 -0.6570  0.1751
 4447TIP3    H113305   4.387   2.663   2.404  0.6970  0.9278 -0.2884
 4447TIP3    H213306   4.295   2.783   2.415 -0.8618 -0.1878 -0.7717
 4448TIP3   OH213307   4.106   1.319   3.092 -0.0094 -0.4651  0.3884
 4448TIP3    H113308   4.150   1.376   3.030 -0.8892 -0.0708  0.1111
 4448TIP3    H213309   4.176   1.290   3.151  0.2526  2.0675  1.4493
 4449TIP3   OH213310   0.191   2.360   0.378  0.7957 -0.0851 -0.3275
 4449TIP3    H113311   0.208   2.290   0.441 -0.0389 -0.8671 -0.9416
 4449TIP3    H213312   0.260   2.349   0.312  0.8232 -0.1581 -0.2870
 4450TIP3   OH213313   6.942   0.299   3.347  0.2140 -0.2422  0.6852
 4450TIP3    H113314   6.872   0.236   3.363 -0.6259  0.3473 -0.5585
 4450TIP3    H213315   6.920   0.340   3.263  2.1333 -0.1521  0.1668
 4451TIP3   OH213316   5.197   2.105   1.966  0.0333  0.5798  0.0266
 4451TIP3    H113317   5.250   2.081   1.890  1.0417 -0.3191  0.9608
 4451TIP3    H213318   5.149   2.025   1.988 -0.6022  0.9636  0.0759
 4452TIP3   OH213319   6.438   1.433   0.634  0.3555 -0.0787  0.0750
 4452TIP3    H113320   6.452   1.390   0.719  0.7055 -0.7357 -0.3089
 4452TIP3    H213321   6.392   1.514   0.656 -2.2413 -1.5934  0.6460
 4453TIP3   OH213322   3.403   5.548   5.376  0.8370 -0.1121 -0.5813
 4453TIP3    H113323   3.440   5.486   5.438  0.3118  0.1871  0.0496
 4453TIP3    H213324   3.471   5.613   5.363  0.3339  0.8156  1.1054
 4454TIP3   OH213325   1.488   2.952   2.509 -0.2999  0.1830  0.0458
 4454TIP3    H113326   1.404   2.908   2.514  0.2007 -0.9008 -0.6529
 4454TIP3    H213327   1.469   3.044   2.530 -1.6118 -0.0800  0.0709
 4455TIP3   OH213328   3.917   0.758   3.191  0.1764  0.3147  0.2676
 4455TIP3    H113329   3.891   0.818   3.121 -0.7384  1.0770  1.2298
 4455TIP3    H213330   3.862   0.783   3.265  0.7082 -0.8689  1.0817
 4456TIP3   OH213331   6.641   3.006   4.525 -0.0276  0.5129  0.0077
 4456TIP3    H113332   6.661   2.926   4.574  2.6498  1.1968  0.2027
 4456TIP3    H213333   6.611   3.068   4.591  2.4662  1.0734  0.7162
 4457TIP3   OH213334   4.384   1.890   4.098  0.0825 -0.6568 -0.2420
 4457TIP3    H113335   4.394   1.805   4.055 -0.7449 -0.1879 -1.4262
 4457TIP3    H213336   4.377   1.953   4.026  1.1217  0.4915  0.6011
 4458TIP3   OH213337   3.627   5.720   5.416  0.4846  0.2889 -0.4019
 4458TIP3    H113338   3.639   5.711   5.511 -1.4111  0.5006 -0.1105
 4458TIP3    H213339   3.692   5.785   5.390 -1.0502  2.7102  1.3504
 4459TIP3   OH213340   4.029   3.637   3.961  0.0709 -0.0019  0.5013
 4459TIP3    H113341   3.997   3.549   3.981 -1.3377  0.5984  1.0429
 4459TIP3    H213342   3.999   3.653   3.871 -2.0963  0.9106  1.3208
 4460TIP3   OH213343   5.145   1.344   5.258 -0.0321 -0.3829 -0.2854
 4460TIP3    H113344   5.123   1.260   5.217  1.0732 -0.1807 -1.3362
 4460TIP3    H213345   5.237   1.334   5.284 -0.4052 -0.1242  1.2333
 4461TIP3   OH213346   4.102   0.664   0.746  0.4304  0.6615 -0.2402
 4461TIP3    H113347   4.148   0.698   0.669  0.2525  0.4619 -0.4393
 4461TIP3    H213348   4.014   0.642   0.713  0.0488  1.4305  0.2248
 4462TIP3   OH213349   6.597   3.505   1.733  0.0288 -0.3432  0.7738
 4462TIP3    H113350   6.631   3.459   1.810  1.1439 -1.8286 -0.5528
 4462TIP3    H213351   6.567   3.436   1.675  3.3693  0.3602 -2.0728
 4463TIP3   OH213352   4.573   0.339   2.977  0.0399  0.4541  0.0874
 4463TIP3    H113353   4.584   0.375   2.890 -1.3885 -1.2425 -0.8682
 4463TIP3    H213354   4.499   0.388   3.014  2.0076  2.6858  1.2783
 4464TIP3   OH213355   4.139   1.437   1.599  0.1991 -0.3200  0.5733
 4464TIP3    H113356   4.048   1.439   1.567 -0.0730  0.7728  1.3714
 4464TIP3    H213357   4.135   1.384   1.678  0.7815 -2.5784 -0.8022
 4465TIP3   OH213358   1.298   0.544   0.961  0.0845  0.1701  0.2400
 4465TIP3    H113359   1.284   0.535   1.055  1.4591  2.5391  0.7373
 4465TIP3    H213360   1.268   0.633   0.941 -1.4528 -0.7482 -1.8605
 4466TIP3   OH213361   0.670   1.650   2.064  0.2163 -0.5676  0.2937
 4466TIP3    H113362   0.617   1.571   2.071 -1.4195  0.4678  0.2385
 4466TIP3    H213363   0.612   1.720   2.094  1.0286  0.8210 -1.2013
 4467TIP3   OH213364   0.254   3.338   4.563 -0.2321  0.0639 -0.1640
 4467TIP3    H113365   0.261   3.319   4.657  1.9757 -0.2987 -0.3499
 4467TIP3    H213366   0.279   3.256   4.520 -1.6629  0.0862 -1.1099
 4468TIP3   OH213367   6.620   6.312   4.541  0.3057  0.0202 -0.0684
 4468TIP3    H113368   6.671   6.374   4.488  1.0577 -2.5565 -2.6110
 4468TIP3    H213369   6.557   6.274   4.480 -1.2073 -0.5972  1.7864
 4469TIP3   OH213370   2.119   2.655   2.153  0.6520  0.2830  0.8863
 4469TIP3    H113371   2.043   2.677   2.100  0.9038 -1.3738 -0.2219
 4469TIP3    H213372   2.112   2.561   2.168  1.8034  0.3269  1.8805
 4470TIP3   OH213373   4.572   5.957   5.512 -0.7673  0.0740  0.3829
 4470TIP3    H113374   4.578   5.884   5.574  2.3518  1.9855  2.6309
 4470TIP3    H213375   4.641   5.940   5.448 -2.3714 -0.6403 -1.2322
 4471TIP3   OH213376   3.729   3.307   2.527  0.3303  0.2981  0.2923
 4471TIP3    H113377   3.675   3.315   2.449 -1.1299  0.7324  1.3148
 4471TIP3    H213378   3.819   3.313   2.494 -0.2682  1.6065 -1.2164
 4472TIP3   OH213379   6.458   3.737   5.174  0.2524  0.0033  0.2950
 4472TIP3    H113380   6.548   3.729   5.141 -0.6008 -0.7607 -2.0776
 4472TIP3    H213381   6.415   3.658   5.143 -1.7838  1.3594 -0.5204
 4473TIP3   OH213382   6.292   6.058   4.624  0.1457  0.3097 -0.1771
 4473TIP3    H113383   6.198   6.046   4.606  0.0058  1.7076 -0.5249
 4473TIP3    H213384   6.328   6.089   4.541  0.8872  0.0179  0.0242
 4474TIP3   OH213385   4.331   1.942   3.540 -0.0865  0.4253 -0.6014
 4474TIP3    H113386   4.340   1.930   3.634  1.1017 -0.6087 -0.8343
 4474TIP3    H213387   4.241   1.916   3.521  0.3262 -1.4930 -0.0619
 4475TIP3   OH213388   1.543   2.335   5.028  0.2727  0.3420  0.0534
 4475TIP3    H113389   1.525   2.425   5.053 -0.4601  0.1045  0.4186
 4475TIP3    H213390   1.609   2.342   4.959 -0.1828  1.1849 -0.3125
 4476TIP3   OH213391   0.705   0.959   0.979 -0.0791  0.3477 -0.0065
 4476TIP3    H113392   0.644   1.032   0.984 -0.7732 -0.0308 -1.9655
 4476TIP3    H213393   0.776   0.990   0.923  0.6506  0.1866  0.8090
 4477TIP3   OH213394   4.723   6.427   3.477 -0.1344  0.3003 -0.0632
 4477TIP3    H113395   4.778   6.463   3.546 -0.2742  0.0430  0.1875
 4477TIP3    H213396   4.711   6.335   3.502 -0.5404  0.3131 -0.1953
 4478TIP3   OH213397   4.775   0.291   2.653 -0.1116 -0.1850  0.5055
 4478TIP3    H113398   4.703   0.324   2.599 -0.4548  2.2866  2.3332
 4478TIP3    H213399   4.747   0.203   2.679 -0.5144 -0.9276 -2.1740
 4479TIP3   OH213400   6.907   2.829   3.673  0.0385  0.1494 -0.7314
 4479TIP3    H113401   6.955   2.771   3.613 -1.4173 -1.7225 -0.1805
 4479TIP3    H213402   6.975   2.886   3.710  1.3921 -0.5331 -2.0292
 4480TIP3   OH213403   6.175   0.270   2.513  0.5420 -0.1858  0.2069
 4480TIP3    H113404   6.212   0.354   2.540 -2.4276  0.9787  1.0888
 4480TIP3    H213405   6.149   0.283   2.421  0.1949 -0.1650  0.3058
 4481TIP3   OH213406   5.195   4.205   4.447 -0.0234 -0.1447  0.2785
 4481TIP3    H113407   5.144   4.234   4.522 -1.6657  0.0664 -0.8630
 4481TIP3    H213408   5.133   4.207   4.374  1.5259 -0.2844 -1.0989
 4482TIP3   OH213409   2.785   1.732   2.413 -0.6073  0.1060  0.3411
 4482TIP3    H113410   2.805   1.799   2.479  0.8961  0.4218 -0.3893
 4482TIP3    H213411   2.854   1.666   2.425 -2.1893 -1.4940  1.2128
 4483TIP3   OH213412   5.505   1.514   4.288  0.2127 -0.0813  0.5766
 4483TIP3    H113413   5.458   1.582   4.336 -0.1875  0.7079 -0.8649
 4483TIP3    H213414   5.436   1.459   4.250  0.5352 -1.2673  1.6593
 4484TIP3   OH213415   6.706   2.502   1.728 -0.0473  0.2232  0.9897
 4484TIP3    H113416   6.718   2.535   1.817 -0.1080  1.3038  0.6122
 4484TIP3    H213417   6.728   2.577   1.672 -0.4808 -0.2999  0.1057
 4485TIP3   OH213418   5.103   4.408   2.816  0.3353 -0.5568 -0.5659
 4485TIP3    H113419   5.126   4.385   2.727  1.4231  1.2228 -0.8076
 4485TIP3    H213420   5.112   4.504   2.819 -0.6167 -0.4727  1.1871
 4486TIP3   OH213421   1.381   2.936   4.154  0.5460  0.0669 -0.0793
 4486TIP3    H113422   1.308   2.883   4.188  1.3132  0.1446  1.7455
 4486TIP3    H213423   1.406   2.891   4.073  0.0403 -1.3858  0.5236
 4487TIP3   OH213424   2.387   2.830   0.939  0.4203 -0.4644 -0.3700
 4487TIP3    H113425   2.403   2.740   0.968  0.7826  0.0240  1.0108
 4487TIP3    H213426   2.402   2.884   1.017 -1.2698  0.6690 -0.7571
 4488TIP3   OH213427   0.197   6.791   0.560  0.7410 -0.1319  0.2411
 4488TIP3    H113428   0.228   6.777   0.471  1.2098  0.6481  0.2670
 4488TIP3    H213429   0.109   6.754   0.562  0.9332 -0.6382 -0.3882
 4489TIP3   OH213430   2.737   3.868   0.796 -0.3234 -0.2096 -0.5167
 4489TIP3    H113431   2.719   3.915   0.714  2.8491 -0.2874 -1.4001
 4489TIP3    H213432   2.813   3.814   0.776 -1.9971 -3.5607  1.3400
 4490TIP3   OH213433   6.847   0.740   2.266 -0.4278  0.1010 -0.3111
 4490TIP3    H113434   6.856   0.826   2.225  0.8343  0.8799  1.4630
 4490TIP3    H213435   6.862   0.756   2.359  2.4274 -2.3754 -0.2008
 4491TIP3   OH213436   1.819   1.258   2.709 -0.4406  0.1226 -0.3694
 4491TIP3    H113437   1.751   1.267   2.776  1.0193  2.8910  0.9335
 4491TIP3    H213438   1.772   1.271   2.626 -1.6365  1.3592  0.4508
 4492TIP3   OH213439   2.812   2.527   0.470 -0.3563 -0.5251 -0.8463
 4492TIP3    H113440   2.782   2.564   0.387 -1.5123  0.1217 -0.1800
 4492TIP3    H213441   2.862   2.598   0.511 -2.1562  0.2155  0.2126
 4493TIP3   OH213442   4.692   0.935   3.278 -0.0408  0.6868 -0.0879
 4493TIP3    H113443   4.731   0.847   3.285  0.2186  0.7682 -0.5017
 4493TIP3    H213444   4.621   0.924   3.215  0.6843  1.0079 -0.9783
 4494TIP3   OH213445   0.614   2.856   0.676 -0.6227 -0.2876 -0.5086
 4494TIP3    H113446   0.670   2.933   0.688 -0.7407 -0.0345 -1.5016
 4494TIP3    H213447   0.597   2.824   0.765  0.6587 -0.0531 -0.1582
 4495TIP3   OH213448   1.202   6.150   0.647  0.3961 -0.3407  0.2188
 4495TIP3    H113449   1.270   6.082   0.648  2.8557  1.8175 -2.5888
 4495TIP3    H213450   1.147   6.128   0.572 -0.0285 -0.3127  0.5186
 4496TIP3   OH213451   3.617   0.652   0.927  0.1145  0.3512  0.6530
 4496TIP3    H113452   3.661   0.628   0.846  0.1353  0.7337  0.5528
 4496TIP3    H213453   3.528   0.619   0.917  0.0225  0.6966  0.3356
 4497TIP3   OH213454   0.738   5.888   3.029 -0.2054  0.2715  0.1042
 4497TIP3    H113455   0.705   5.940   3.102  0.2174 -0.2750  0.6984
 4497TIP3    H213456   0.707   5.800   3.046  3.0717 -0.7176  1.7809
 4498TIP3   OH213457   4.062   1.965   5.594 -0.2703 -0.0606  0.4633
 4498TIP3    H113458   4.057   2.057   5.617  0.9186  0.1758 -0.1048
 4498TIP3    H213459   4.063   1.919   5.677  1.9842  0.6431  0.8980
 4499TIP3   OH213460   6.297   4.571   1.269 -0.0494  0.4113  0.0342
 4499TIP3    H113461   6.387   4.596   1.289  0.0490  0.4340 -0.4294
 4499TIP3    H213462   6.256   4.652   1.238 -0.9166  1.0075  2.4774
 4500TIP3   OH213463   2.115   3.526   5.808  0.6774 -0.1577 -0.1998
 4500TIP3    H113464   2.086   3.617   5.802  0.2028 -0.2390  0.7137
 4500TIP3    H213465   2.194   3.529   5.861 -0.0448 -0.4104  0.9142
 4501TIP3   OH213466   2.734   1.902   1.544 -0.1977 -0.5504  0.0654
 4501TIP3    H113467   2.744   1.918   1.450  0.4718  1.7339  0.4855
 4501TIP3    H213468   2.639   1.906   1.558 -0.1916  2.1810 -0.0992
 4502TIP3   OH213469   6.735   1.077   3.318 -0.0099  0.1466  0.1777
 4502TIP3    H113470   6.660   1.118   3.275  0.4336  0.3051 -0.4606
 4502TIP3    H213471   6.740   0.989   3.281  1.4269  0.8494 -1.4835
 4503TIP3   OH213472   2.688   4.157   1.168  0.5288  0.4091  0.0090
 4503TIP3    H113473   2.783   4.149   1.174  0.4528 -1.2614 -0.3634
 4503TIP3    H213474   2.661   4.081   1.117 -1.2312 -0.8245  2.5414
 4504TIP3   OH213475   4.397   5.426   0.749 -0.1182  0.2848 -0.1897
 4504TIP3    H113476   4.415   5.497   0.810  0.2525  0.1157 -0.0995
 4504TIP3    H213477   4.445   5.351   0.785  0.3619  0.2644 -0.8515
 4505TIP3   OH213478   5.149   4.535   3.402 -0.1682  0.2145 -0.7838
 4505TIP3    H113479   5.098   4.478   3.460  0.0512 -0.3538 -1.1335
 4505TIP3    H213480   5.147   4.490   3.317  0.7369  0.2867 -0.8519
 4506TIP3   OH213481   6.691   2.636   2.258  0.1286 -0.5336 -0.4028
 4506TIP3    H113482   6.620   2.691   2.224 -0.5155 -1.5769 -0.8127
 4506TIP3    H213483   6.765   2.696   2.270 -1.1211  0.8138  1.0818
 4507TIP3   OH213484   3.259   3.855   0.127 -0.6413 -0.1334 -0.1751
 4507TIP3    H113485   3.317   3.812   0.190  0.4446  0.7694 -0.5332
 4507TIP3    H213486   3.181   3.799   0.125  0.2773 -1.4843  0.1722
 4508TIP3   OH213487   5.883   3.066   5.172  0.2812  0.2976 -0.0801
 4508TIP3    H113488   5.895   2.983   5.218 -2.0692 -0.2468 -0.3240
 4508TIP3    H213489   5.900   3.045   5.080 -1.6459 -0.2975 -0.3340
 4509TIP3   OH213490   5.740   1.470   5.059 -0.1882 -0.5355 -0.2971
 4509TIP3    H113491   5.769   1.561   5.056 -2.3523  0.2516  0.6450
 4509TIP3    H213492   5.796   1.430   5.126  0.6728  0.1175 -0.6045
 4510TIP3   OH213493   6.147   6.009   0.249 -0.0025  0.0960 -0.2592
 4510TIP3    H113494   6.185   5.971   0.170 -0.5599  0.1458 -0.5570
 4510TIP3    H213495   6.206   6.081   0.272  1.4152 -1.3210  0.6811
 4511TIP3   OH213496   5.892   2.408   1.795  0.1354  0.1986 -0.5685
 4511TIP3    H113497   5.986   2.423   1.785  0.1070  0.5647 -0.3133
 4511TIP3    H213498   5.853   2.451   1.719  0.1020  0.9255 -0.1538
 4512TIP3   OH213499   0.701   2.686   4.363 -0.1487  0.1222 -0.4227
 4512TIP3    H113500   0.787   2.672   4.404  0.1570  0.1268 -1.0496
 4512TIP3    H213501   0.705   2.636   4.282 -2.0594 -2.8761  1.1636
 4513TIP3   OH213502   6.285   3.763   5.387  0.0342  0.1289  0.6262
 4513TIP3    H113503   6.195   3.744   5.360  0.0858 -0.5285  0.9081
 4513TIP3    H213504   6.335   3.765   5.305 -0.1051 -0.2390  0.5298
 4514TIP3   OH213505   5.869   6.151   5.185 -0.6209 -0.2642 -0.3616
 4514TIP3    H113506   5.816   6.079   5.150  0.8061 -1.2034 -0.6716
 4514TIP3    H213507   5.959   6.121   5.177  0.1193  2.0627 -1.6072
 4515TIP3   OH213508   6.365   3.866   4.838 -0.0706  0.6759  0.0562
 4515TIP3    H113509   6.370   3.823   4.752  1.4552  0.7422  0.0882
 4515TIP3    H213510   6.313   3.806   4.891  0.6716 -0.3546 -0.3538
 4516TIP3   OH213511   3.513   6.121   4.661 -0.5544 -0.4979 -0.2354
 4516TIP3    H113512   3.456   6.145   4.588  1.0536  1.3997 -0.9403
 4516TIP3    H213513   3.465   6.149   4.739 -0.1172  2.3101 -0.8886
 4517TIP3   OH213514   1.120   2.167   4.361 -0.3476 -0.3380 -0.7630
 4517TIP3    H113515   1.151   2.218   4.436 -1.0705 -1.1913  0.1411
 4517TIP3    H213516   1.071   2.230   4.308  0.4192  0.3437 -0.6830
 4518TIP3   OH213517   1.249   2.790   3.876  0.5059 -0.1867 -0.0953
 4518TIP3    H113518   1.342   2.810   3.891  0.4710  0.1282 -0.2949
 4518TIP3    H213519   1.208   2.875   3.863  0.3128 -0.3698 -0.7252
 4519TIP3   OH213520   2.062   0.665   1.198  0.0685  0.2502 -0.1849
 4519TIP3    H113521   2.082   0.593   1.138  0.5734 -0.3109  0.6284
 4519TIP3    H213522   2.147   0.703   1.219 -0.2420  1.4637 -1.0402
 4520TIP3   OH213523   1.298   6.709   4.672 -0.1644 -0.6421  0.1874
 4520TIP3    H113524   1.317   6.791   4.625  1.8840 -2.5277 -2.5900
 4520TIP3    H213525   1.204   6.714   4.690 -0.2959  1.9170 -0.6637
 4521TIP3   OH213526   0.542   0.116   0.802  0.0793  0.4654  0.4767
 4521TIP3    H113527   0.479   0.175   0.760  0.4978  1.3237  1.0163
 4521TIP3    H213528   0.620   0.169   0.814  0.2342  0.0125  1.6080
 4522TIP3   OH213529   2.862   1.487   1.691 -0.2355 -0.0544  0.6968
 4522TIP3    H113530   2.879   1.581   1.700 -0.7027 -0.0251  1.3676
 4522TIP3    H213531   2.911   1.447   1.763  1.0294 -0.4699 -0.3609
 4523TIP3   OH213532   4.076   2.201   5.732  0.1883  0.4535  0.7029
 4523TIP3    H113533   4.093   2.218   5.825 -1.5497  1.5743  0.8636
 4523TIP3    H213534   4.034   2.282   5.701 -1.9047 -0.9505 -0.3242
 4524TIP3   OH213535   4.405   0.130   0.508 -0.3872  0.5292  0.2546
 4524TIP3    H113536   4.463   0.193   0.550 -0.9946  1.4629 -0.2593
 4524TIP3    H213537   4.410   0.152   0.415  1.3614 -1.8430 -0.2977
 4525TIP3   OH213538   4.596   4.922   1.749 -0.2064  0.5668  0.0194
 4525TIP3    H113539   4.594   5.017   1.746  1.0455  0.5681 -1.8080
 4525TIP3    H213540   4.687   4.900   1.769  0.1076 -0.2466 -2.1191
 4526TIP3   OH213541   3.155   3.099   4.129  0.0688  0.1548  0.0975
 4526TIP3    H113542   3.072   3.072   4.170 -0.1317  1.9688  0.9770
 4526TIP3    H213543   3.130   3.166   4.066  0.6575 -0.9010 -1.3032
 4527TIP3   OH213544   0.593   5.523   0.194  0.3698  0.1024 -0.1628
 4527TIP3    H113545   0.659   5.499   0.128  1.6162  1.0499  0.6923
 4527TIP3    H213546   0.517   5.548   0.142  1.1613  0.3710 -1.2542
 4528TIP3   OH213547   3.767  -0.020   1.204 -0.6095 -0.2456 -0.4246
 4528TIP3    H113548   3.829  -0.017   1.132 -0.9711 -0.0072 -0.7255
 4528TIP3    H213549   3.740   0.071   1.217 -0.7369 -0.3197 -0.1512
 4529TIP3   OH213550   1.620   4.723   5.568  0.5100 -0.3006  0.5416
 4529TIP3    H113551   1.604   4.698   5.659  2.0506 -0.0282  0.9106
 4529TIP3    H213552   1.692   4.786   5.572  0.1787  0.2074 -0.8213
 4530TIP3   OH213553   6.715   4.480   1.989 -0.2480 -0.6058 -0.4795
 4530TIP3    H113554   6.790   4.422   2.004  1.1244  1.0889 -0.4030
 4530TIP3    H213555   6.640   4.433   2.024  1.2346 -1.1356  2.2732
 4531TIP3   OH213556   2.932   4.136   5.862 -0.1038 -0.0186 -0.2482
 4531TIP3    H113557   2.938   4.206   5.797  0.9485  1.2271  1.1236
 4531TIP3    H213558   2.855   4.159   5.915 -0.0130 -0.1290 -0.0674
 4532TIP3   OH213559   1.387   0.148   1.474  0.1849  0.1884 -0.6267
 4532TIP3    H113560   1.439   0.117   1.548  0.3062 -0.0271 -0.8059
 4532TIP3    H213561   1.441   0.132   1.397  0.0147  0.3196 -0.7751
 4533TIP3   OH213562   5.039   0.205   2.139  0.1166 -0.3063  0.8048
 4533TIP3    H113563   5.041   0.141   2.068  0.2047  0.4756  0.1011
 4533TIP3    H213564   5.121   0.189   2.187  1.3257  0.8804 -0.8016
 4534TIP3   OH213565   0.999   5.519   0.120  0.1874 -0.1251 -0.3345
 4534TIP3    H113566   0.957   5.443   0.159 -1.6653  1.5933  1.2302
 4534TIP3    H213567   0.974   5.592   0.176  3.3290  1.4240 -0.7550
 4535TIP3   OH213568   6.441   3.943   0.887  0.4812  0.2140  0.1184
 4535TIP3    H113569   6.369   3.921   0.946  0.2325 -0.1091 -0.3046
 4535TIP3    H213570   6.434   3.880   0.816  0.2812  1.1219 -0.6805
 4536TIP3   OH213571   6.646   1.340   4.938 -0.5939 -0.2798 -0.3833
 4536TIP3    H113572   6.686   1.318   5.022  0.9142 -0.1715 -1.0375
 4536TIP3    H213573   6.710   1.397   4.895 -2.0313  0.9668 -0.9593
 4537TIP3   OH213574   2.780   0.259   4.362  0.0435  0.4596  0.6582
 4537TIP3    H113575   2.732   0.246   4.444 -0.1120 -2.2314  0.2367
 4537TIP3    H213576   2.715   0.291   4.300 -0.4373  0.0553  0.9456
 4538TIP3   OH213577   2.354   0.775   3.337 -0.5973  0.5777  0.3634
 4538TIP3    H113578   2.356   0.760   3.243 -0.0881 -1.0570  0.6137
 4538TIP3    H213579   2.268   0.743   3.365 -0.6788  0.8978  0.4872
 4539TIP3   OH213580   4.881   0.356   3.572 -0.2812 -0.0992 -0.1454
 4539TIP3    H113581   4.803   0.307   3.599 -0.3432 -0.2847 -0.6513
 4539TIP3    H213582   4.911   0.400   3.652 -0.6043 -0.4407  0.1662
 4540TIP3   OH213583   0.260   3.174   1.814  0.1156  0.0946 -0.0167
 4540TIP3    H113584   0.256   3.127   1.730 -0.4416 -0.7009  0.4466
 4540TIP3    H213585   0.327   3.241   1.800 -1.1625  1.1161 -1.6785
 4541TIP3   OH213586   0.253   1.097   0.755  0.9754  0.5906 -0.5377
 4541TIP3    H113587   0.275   1.108   0.662  1.3260  0.9930 -0.4142
 4541TIP3    H213588   0.271   1.183   0.794 -0.2326  0.7535 -0.3019
 4542TIP3   OH213589   4.035   1.867   0.269  0.3871  0.3962  0.3144
 4542TIP3    H113590   4.064   1.785   0.309  0.1641  1.0300  1.8120
 4542TIP3    H213591   4.112   1.923   0.271  0.6308  0.1424 -1.0077
 4543TIP3   OH213592   5.328   0.242   0.338  0.3794 -0.2018 -1.0488
 4543TIP3    H113593   5.358   0.213   0.252 -0.5563 -1.1354 -1.0849
 4543TIP3    H213594   5.406   0.237   0.393  0.6855 -0.9182 -1.5277
 4544TIP3   OH213595   2.371   2.668   4.809  0.2194 -0.1104 -0.8358
 4544TIP3    H113596   2.437   2.725   4.848 -0.2587  0.6286 -1.0979
 4544TIP3    H213597   2.341   2.613   4.881  0.8276 -0.1737 -0.6270
 4545TIP3   OH213598   4.563   5.839   1.381  0.2713  0.3292  0.3162
 4545TIP3    H113599   4.546   5.778   1.309  0.5275 -0.8261  1.2048
 4545TIP3    H213600   4.514   5.918   1.358  0.1715 -0.0943 -1.0049
 4546TIP3   OH213601   0.852   6.747   1.342  0.8440  0.2318  0.7222
 4546TIP3    H113602   0.925   6.713   1.394  0.4045  0.9748  1.8901
 4546TIP3    H213603   0.832   6.831   1.383 -1.1551 -0.2940  0.9229
 4547TIP3   OH213604   1.695   4.103   1.750 -0.0939 -0.0519  0.2158
 4547TIP3    H113605   1.722   4.074   1.663  0.5869 -0.9557  0.7091
 4547TIP3    H213606   1.600   4.090   1.751 -0.1519  0.2696 -0.4953
 4548TIP3   OH213607   4.104   4.085   1.315  0.6503  0.3663 -0.9997
 4548TIP3    H113608   4.027   4.057   1.265 -0.1663  1.4941 -0.4129
 4548TIP3    H213609   4.104   4.180   1.306 -1.3830  1.0517  3.5884
 4549TIP3   OH213610   0.015   3.103   2.072 -0.0620 -0.5985  0.0534
 4549TIP3    H113611   0.100   3.061   2.063  0.2093  0.0372 -0.4623
 4549TIP3    H213612  -0.011   3.122   1.982  0.0198  0.7100  0.2911
 4550TIP3   OH213613   4.809   0.099   4.976 -0.3767 -0.2723 -0.9973
 4550TIP3    H113614   4.841   0.034   4.913  0.9251 -2.1726  1.4326
 4550TIP3    H213615   4.888   0.138   5.013 -1.0092 -0.4400  0.6073
 4551TIP3   OH213616   7.090   0.069   3.223 -0.1570  0.5272  0.1559
 4551TIP3    H113617   7.065   0.104   3.308 -0.6851 -1.2374  0.7606
 4551TIP3    H213618   7.053  -0.019   3.221  0.4176  0.2861 -1.6331
 4552TIP3   OH213619   4.449   1.485   4.368  0.3488  0.3355  0.4819
 4552TIP3    H113620   4.403   1.442   4.296  0.2356 -0.9442  1.3058
 4552TIP3    H213621   4.535   1.444   4.369  0.9235  1.4837  0.0812
 4553TIP3   OH213622   0.197   5.098   4.172 -0.1793 -0.3400  0.1649
 4553TIP3    H113623   0.191   5.188   4.142  0.3136 -0.7797 -1.3466
 4553TIP3    H213624   0.165   5.100   4.262  0.3784  1.4400  0.3560
 4554TIP3   OH213625   6.391   3.247   0.163  0.4998  0.1390 -0.3594
 4554TIP3    H113626   6.442   3.167   0.178  0.5972 -0.0372 -1.5717
 4554TIP3    H213627   6.362   3.274   0.251  1.9691 -0.2219  0.2611
 4555TIP3   OH213628   3.018   5.854   3.846  0.2618 -0.1620  0.5792
 4555TIP3    H113629   2.946   5.799   3.815  0.0936 -0.2842  1.1626
 4555TIP3    H213630   2.987   5.889   3.929  0.2145  1.1401  0.0361
 4556TIP3   OH213631   3.745   0.283   1.265  0.0049 -0.1002 -0.0421
 4556TIP3    H113632   3.712   0.297   1.354 -0.8489 -1.8176 -0.0438
 4556TIP3    H213633   3.839   0.299   1.272 -0.0422 -0.2702  1.1850
 4557TIP3   OH213634   5.132   2.011   4.073 -0.5006  0.1732  0.1968
 4557TIP3    H113635   5.077   1.967   4.008 -0.6455 -0.0469  0.4690
 4557TIP3    H213636   5.214   2.029   4.027 -0.4729 -0.2979  0.0592
 4558TIP3   OH213637   5.448   4.775   3.241  0.1501  0.0404  0.1314
 4558TIP3    H113638   5.438   4.681   3.255  1.2250 -0.0540  0.3179
 4558TIP3    H213639   5.456   4.785   3.146 -1.0214  0.0654  0.0185
 4559TIP3   OH213640   5.229   1.431   5.550  0.2321 -0.4708  0.3177
 4559TIP3    H113641   5.191   1.420   5.463  1.3097 -0.2762 -0.1980
 4559TIP3    H213642   5.166   1.484   5.598  0.0093  0.1227 -0.6121
 4560TIP3   OH213643   5.108   5.775   4.029 -0.0134  0.7188 -0.0341
 4560TIP3    H113644   5.042   5.806   4.091 -0.3828 -0.7185  0.3141
 4560TIP3    H213645   5.174   5.845   4.027 -0.5848  1.3055  1.0697
 4561TIP3   OH213646   6.181   5.783   0.511 -0.0935 -0.8186  0.4131
 4561TIP3    H113647   6.215   5.871   0.526  3.0628 -2.3606  3.6243
 4561TIP3    H213648   6.208   5.762   0.421  0.1750  1.0251  0.0246
 4562TIP3   OH213649   3.350   2.049   0.650  0.3403 -0.0265  0.5251
 4562TIP3    H113650   3.405   2.121   0.619  0.5262  0.2197  1.4196
 4562TIP3    H213651   3.294   2.028   0.575  0.3113  1.0124  0.2481
 4563TIP3   OH213652   5.683   2.348   0.983  0.3509  0.1105  0.3034
 4563TIP3    H113653   5.599   2.362   0.939  2.0120  2.7076 -2.4536
 4563TIP3    H213654   5.706   2.257   0.965 -0.0239  0.5132 -2.5841
 4564TIP3   OH213655   2.388   0.962   1.800 -0.4277  0.3450 -0.0152
 4564TIP3    H113656   2.473   0.966   1.844 -0.6345 -0.2695  0.4536
 4564TIP3    H213657   2.336   1.032   1.840 -0.2936  0.4237  0.0195
 4565TIP3   OH213658   2.308   3.345   0.820  0.3842 -0.3811  0.0257
 4565TIP3    H113659   2.293   3.283   0.891 -0.9920  0.1310  0.1938
 4565TIP3    H213660   2.234   3.333   0.760  2.0835 -1.6543 -1.9939
 4566TIP3   OH213661   6.709   4.471   0.555  0.0844 -0.8786  0.5644
 4566TIP3    H113662   6.728   4.401   0.493 -1.4825  0.6997 -1.9003
 4566TIP3    H213663   6.619   4.455   0.584 -1.0552  1.0360 -1.5851
 4567TIP3   OH213664   6.078  -0.003   5.763  0.1235  0.0079  0.0191
 4567TIP3    H113665   6.039   0.029   5.845  1.1485  2.9786 -0.5299
 4567TIP3    H213666   6.168   0.028   5.765  0.2455 -0.0243 -2.1149
 4568TIP3   OH213667   4.857   3.733   1.478  0.2259  0.1255  0.0579
 4568TIP3    H113668   4.775   3.783   1.478  0.4222  0.4580 -0.2997
 4568TIP3    H213669   4.925   3.800   1.466  0.4427 -0.3017 -1.2657
 4569TIP3   OH213670   0.741   2.396   2.925  0.0410 -0.5029 -0.0515
 4569TIP3    H113671   0.804   2.374   2.857 -0.8514 -1.0450 -0.7249
 4569TIP3    H213672   0.663   2.425   2.877  0.4947  2.3807  0.7740
 4570TIP3   OH213673   2.091   1.948   3.232 -0.2386  0.4233 -0.3341
 4570TIP3    H113674   2.134   1.862   3.232  0.5553  0.8004 -1.0454
 4570TIP3    H213675   2.155   2.006   3.274 -0.2615  0.8926 -0.9359
 4571TIP3   OH213676   3.919   1.001   5.369 -0.1542 -0.0572 -0.2074
 4571TIP3    H113677   3.975   1.076   5.387  0.9838 -0.9988  0.3510
 4571TIP3    H213678   3.974   0.941   5.319 -1.1389 -0.4021 -0.9214
 4572TIP3   OH213679   6.033   1.595   1.069 -0.2959  0.1999  0.3752
 4572TIP3    H113680   6.001   1.582   0.980  0.4112 -0.4491  0.2035
 4572TIP3    H213681   6.026   1.509   1.110 -4.5701  1.2644  2.3491
 4573TIP3   OH213682   2.974   0.498   3.478  0.0502 -0.2693 -0.1026
 4573TIP3    H113683   3.034   0.435   3.439  0.1589 -0.5736  0.5346
 4573TIP3    H213684   2.950   0.557   3.406 -1.3637 -1.9969 -1.1443
 4574TIP3   OH213685   4.952   6.103   0.080  0.3555  0.0444 -0.1377
 4574TIP3    H113686   4.870   6.054   0.068 -2.0284  3.8200 -1.1202
 4574TIP3    H213687   5.016   6.056   0.028 -2.3117 -0.7511 -3.0136
 4575TIP3   OH213688   3.571   0.541   1.210  0.5993  0.2959  0.6202
 4575TIP3    H113689   3.649   0.556   1.156  1.1219 -1.9510  0.6764
 4575TIP3    H213690   3.604   0.533   1.299  0.0272  1.4153  0.9554
 4576TIP3   OH213691   0.028   3.467   0.319 -0.0561 -0.4250  0.1099
 4576TIP3    H113692   0.060   3.442   0.406  0.2549  0.5621  0.2870
 4576TIP3    H213693   0.106   3.500   0.273 -0.6302  1.1781  0.2429
 4577TIP3   OH213694   1.211   5.953   5.189  0.4178  0.7228 -0.4246
 4577TIP3    H113695   1.216   6.034   5.239  2.0931  1.9146 -2.4155
 4577TIP3    H213696   1.248   5.974   5.104 -0.2477 -1.8252 -1.4386
 4578TIP3   OH213697   1.782   1.009   2.082  0.3033 -0.0185 -0.1877
 4578TIP3    H113698   1.789   0.916   2.062  1.3983  0.4543 -2.2600
 4578TIP3    H213699   1.688   1.024   2.092  0.0201 -1.1122 -1.0371
 4579TIP3   OH213700   3.445   3.367   3.261 -0.2151  0.0970 -0.2979
 4579TIP3    H113701   3.400   3.299   3.209  1.6732 -0.9520 -0.6650
 4579TIP3    H213702   3.440   3.335   3.351  2.4046 -1.6973 -0.6779
 4580TIP3   OH213703   6.976   3.654   4.188  0.0242  0.0813 -0.2619
 4580TIP3    H113704   6.909   3.585   4.185  0.6664 -0.7731  2.2199
 4580TIP3    H213705   6.987   3.672   4.281  0.4761  3.0227 -0.7959
 4581TIP3   OH213706   6.293   4.752   3.950 -0.0741  0.1235 -0.4881
 4581TIP3    H113707   6.263   4.683   4.009  1.5332 -0.4791 -0.3220
 4581TIP3    H213708   6.218   4.811   3.941 -1.0090 -0.8752  0.5069
 4582TIP3   OH213709   2.704   0.739   4.522 -0.6492  0.6149  0.2949
 4582TIP3    H113710   2.635   0.674   4.536 -0.8004  1.1335  2.2333
 4582TIP3    H213711   2.785   0.693   4.542 -0.6921  0.7916  0.8969
 4583TIP3   OH213712   4.446   6.429   3.721  0.3049  0.0805 -0.2631
 4583TIP3    H113713   4.521   6.473   3.761 -0.8851  0.5591  1.5860
 4583TIP3    H213714   4.458   6.337   3.743  1.4560 -0.2180 -1.9167
 4584TIP3   OH213715   3.641   4.877   2.554 -0.2659  0.4880 -0.2303
 4584TIP3    H113716   3.710   4.851   2.615 -0.0160  2.9509  0.6598
 4584TIP3    H213717   3.560   4.847   2.594  0.1484 -0.8848 -0.3985
 4585TIP3   OH213718   6.602   1.128   5.306 -0.0517 -0.0722 -0.0085
 4585TIP3    H113719   6.670   1.179   5.260 -0.7514 -0.2709 -1.3269
 4585TIP3    H213720   6.528   1.188   5.312 -0.7427 -0.7708 -1.2079
 4586TIP3   OH213721   2.221   3.108   4.779 -0.2629  0.3782  0.0277
 4586TIP3    H113722   2.173   3.025   4.785  1.2572 -0.4427  4.1274
 4586TIP3    H213723   2.310   3.082   4.753  0.0858  0.7505  0.8240
 4587TIP3   OH213724   2.617   1.666   5.499  0.7248 -0.3659  0.0145
 4587TIP3    H113725   2.628   1.741   5.440 -0.3419 -1.1957 -1.3214
 4587TIP3    H213726   2.529   1.677   5.535  0.2601 -1.3264 -0.7701
 4588TIP3   OH213727   6.513   1.542   4.735 -0.1174  0.3046 -0.1167
 4588TIP3    H113728   6.579   1.531   4.803 -1.1561  0.5032  0.9712
 4588TIP3    H213729   6.527   1.631   4.702 -1.5346  1.4575  2.0861
 4589TIP3   OH213730   2.274   3.371   0.141  0.6786  0.2452  0.3849
 4589TIP3    H113731   2.341   3.407   0.083  0.0375  0.9465  0.0623
 4589TIP3    H213732   2.309   3.384   0.229  1.3264 -0.1454  0.1934
 4590TIP3   OH213733   1.515   0.992   3.227 -0.4626  0.1816 -0.2497
 4590TIP3    H113734   1.605   0.987   3.259 -0.0363 -1.3759 -1.5478
 4590TIP3    H213735   1.484   0.902   3.230 -1.4768  0.4778 -1.1891
 4591TIP3   OH213736   3.503   2.933   3.623 -0.5894  0.0142  0.2211
 4591TIP3    H113737   3.410   2.946   3.607 -0.5455  1.2003  0.8115
 4591TIP3    H213738   3.514   2.946   3.717 -0.0094 -1.4232  0.3828
 4592TIP3   OH213739   1.274   5.282   0.918 -0.5560 -0.4341  0.0020
 4592TIP3    H113740   1.230   5.267   0.835  0.7290  1.3597 -1.0707
 4592TIP3    H213741   1.351   5.335   0.896  0.3536 -0.6974  2.2096
 4593TIP3   OH213742   4.535   3.279   4.679  0.4500 -0.6741 -0.2884
 4593TIP3    H113743   4.601   3.245   4.739  1.1174 -0.7928 -1.0741
 4593TIP3    H213744   4.481   3.203   4.657 -0.6623 -0.3668  1.2063
 4594TIP3   OH213745   2.132   3.962   4.275 -0.4162  0.6019  0.0852
 4594TIP3    H113746   2.038   3.966   4.259 -1.1575  0.8774  3.6814
 4594TIP3    H213747   2.162   4.052   4.261 -0.5823  0.4696 -1.2909
 4595TIP3   OH213748   3.010   6.196   3.930 -0.2691  0.1622  0.4080
 4595TIP3    H113749   3.073   6.264   3.955 -0.4729  0.6196 -0.2996
 4595TIP3    H213750   2.930   6.219   3.977  0.6143 -1.5419  2.9075
 4596TIP3   OH213751   6.651   6.434   3.872  0.0662  0.2924  0.3565
 4596TIP3    H113752   6.716   6.387   3.819 -1.0576 -1.5751  0.5577
 4596TIP3    H213753   6.666   6.526   3.851  0.1182 -0.3047 -2.6815
 4597TIP3   OH213754   5.482   6.524   2.839  0.1235  0.8115  0.2658
 4597TIP3    H113755   5.479   6.597   2.776 -0.5438  0.0170 -0.6481
 4597TIP3    H213756   5.537   6.557   2.911  0.7919  1.7956 -0.6573
 4598TIP3   OH213757   0.433   3.302   2.812 -0.3613 -0.1387 -0.4375
 4598TIP3    H113758   0.424   3.352   2.731 -0.0075  1.2062  0.3120
 4598TIP3    H213759   0.420   3.367   2.881  0.7005 -0.9709  0.5850
 4599TIP3   OH213760   5.026   3.269   4.618  0.1472  0.2661  0.3944
 4599TIP3    H113761   4.948   3.217   4.597  1.0156 -0.2649 -1.8349
 4599TIP3    H213762   5.098   3.206   4.618  0.8020  0.9902  0.8211
 4600TIP3   OH213763   2.707   6.351   4.722 -0.6230  0.2335 -0.2444
 4600TIP3    H113764   2.690   6.384   4.634  1.4599  3.4412  0.3764
 4600TIP3    H213765   2.626   6.370   4.770 -0.9965  0.4748 -0.9500
 4601TIP3   OH213766   4.965   3.612   3.174 -0.1722 -0.5030  0.2692
 4601TIP3    H113767   5.018   3.659   3.109 -0.2312 -0.8936 -0.0640
 4601TIP3    H213768   4.883   3.592   3.127 -0.9540  0.8055  1.0151
 4602TIP3   OH213769   5.912   1.013   1.215 -0.3488  0.1962  0.0624
 4602TIP3    H113770   5.909   0.919   1.233  0.2854  0.3367  0.9664
 4602TIP3    H213771   5.950   1.020   1.128 -1.8558 -0.4385 -0.6832
 4603TIP3   OH213772   4.908   4.737   4.399  0.2460 -0.2541  0.3169
 4603TIP3    H113773   4.829   4.732   4.346 -0.5183  0.6958  1.3204
 4603TIP3    H213774   4.876   4.741   4.489  1.3613  1.6748  0.6697
 4604TIP3   OH213775   4.407   6.191   0.667 -0.0278 -0.0710 -0.2511
 4604TIP3    H113776   4.380   6.223   0.581  1.4442  0.3103 -0.5948
 4604TIP3    H213777   4.367   6.252   0.729 -0.5061  0.0719 -0.6901
 4605TIP3   OH213778   5.267   0.523   0.397 -0.4751  0.0235 -0.4113
 4605TIP3    H113779   5.308   0.437   0.386 -0.6469  0.0275 -1.1372
 4605TIP3    H213780   5.334   0.576   0.439 -0.1836 -0.3273 -0.4279
 4606TIP3   OH213781   0.952   4.322   5.466  0.1469  0.3121 -0.2228
 4606TIP3    H113782   0.878   4.368   5.428  1.1253  1.0326 -1.3188
 4606TIP3    H213783   1.006   4.296   5.391 -0.1289 -2.2485  0.3791
 4607TIP3   OH213784   2.216   3.694   0.150 -0.2301 -0.5262 -0.1878
 4607TIP3    H113785   2.252   3.629   0.089  1.1906  0.3389 -0.3269
 4607TIP3    H213786   2.203   3.646   0.231  2.4186 -0.6906  0.2341
 4608TIP3   OH213787   5.603   3.496   1.132 -0.0842  0.0535  0.3196
 4608TIP3    H113788   5.536   3.557   1.100 -0.3146 -0.7608 -0.8170
 4608TIP3    H213789   5.554   3.431   1.183 -0.0836 -0.1527  0.0634
 4609TIP3   OH213790   3.489   1.537   4.947 -0.0781  0.5487  0.4147
 4609TIP3    H113791   3.395   1.545   4.929  0.1511  0.5716 -0.9242
 4609TIP3    H213792   3.530   1.555   4.862  1.0686 -1.0382  0.6011
 4610TIP3   OH213793   3.317   3.533   2.655  0.2283 -0.5896 -0.0637
 4610TIP3    H113794   3.221   3.531   2.665  0.0983 -1.0562 -1.2764
 4610TIP3    H213795   3.346   3.446   2.682  0.2623 -0.5909 -0.1039
 4611TIP3   OH213796   0.091   5.437   3.605  0.2033  0.7896  0.1148
 4611TIP3    H113797   0.145   5.512   3.629  0.8301  0.1162  0.8449
 4611TIP3    H213798   0.153   5.373   3.570 -0.1486  0.1118  0.7028
 4612TIP3   OH213799   1.036   4.842   4.910 -0.0917  0.3680  0.1379
 4612TIP3    H113800   1.075   4.839   4.997  1.3668 -0.4580 -0.5139
 4612TIP3    H213801   0.947   4.808   4.922  0.2817 -0.2684  1.2082
 4613TIP3   OH213802   2.500   6.267   2.828  0.3501 -0.8322  0.0876
 4613TIP3    H113803   2.469   6.340   2.774  0.4984 -0.9825 -0.2082
 4613TIP3    H213804   2.468   6.189   2.783 -0.8877 -0.9301  1.0842
 4614TIP3   OH213805   6.369   2.358   5.665  0.4651 -0.5103 -0.2359
 4614TIP3    H113806   6.286   2.317   5.640 -0.6190  1.3283  0.1973
 4614TIP3    H213807   6.388   2.418   5.593  1.3214 -0.7537 -0.2247
 4615TIP3   OH213808   0.293   5.729   5.544 -0.5191  0.5580 -0.6526
 4615TIP3    H113809   0.210   5.765   5.575 -1.3978 -0.6901 -1.4748
 4615TIP3    H213810   0.320   5.790   5.475 -0.5451  1.1735 -0.1306
 4616TIP3   OH213811   7.142   6.121   1.848  0.4631 -0.0221 -0.4934
 4616TIP3    H113812   7.064   6.121   1.903  0.5702 -0.9248 -0.3325
 4616TIP3    H213813   7.205   6.067   1.895  0.5241 -0.8966 -1.5318
 4617TIP3   OH213814   1.865  -0.004   5.505 -0.4912 -0.1641 -0.0340
 4617TIP3    H113815   1.841   0.080   5.465 -0.0477 -0.2651 -0.5186
 4617TIP3    H213816   1.951  -0.024   5.469  0.2736  0.1178  1.5564
 4618TIP3   OH213817   4.426   2.905   0.842 -0.1834  0.2953 -0.0313
 4618TIP3    H113818   4.401   2.847   0.914  2.7941 -1.2814 -0.1018
 4618TIP3    H213819   4.388   2.865   0.764  1.3071 -1.3177  0.0063
 4619TIP3   OH213820   2.748   4.886   2.343  1.1415 -0.4396  0.5038
 4619TIP3    H113821   2.737   4.806   2.292 -1.0676  1.5173 -2.4162
 4619TIP3    H213822   2.681   4.881   2.411 -2.2680  0.7090 -2.4515
 4620TIP3   OH213823   6.846   2.584   1.990  0.0700 -0.0367 -0.2475
 4620TIP3    H113824   6.854   2.531   2.069 -0.4521  1.2455  0.6989
 4620TIP3    H213825   6.828   2.673   2.022 -0.3426  0.4735 -1.8074
 4621TIP3   OH213826   6.012   3.293   3.344  0.0588 -0.0089 -0.4409
 4621TIP3    H113827   6.105   3.276   3.357  0.2453  2.0898  1.5778
 4621TIP3    H213828   5.968   3.226   3.397  0.6066  1.4746  2.0721
 4622TIP3   OH213829   6.242   6.367   2.381  0.4528 -0.5664  0.0621
 4622TIP3    H113830   6.200   6.450   2.401  1.6438 -0.0884  0.6537
 4622TIP3    H213831   6.269   6.376   2.289  1.2267 -0.0072  0.3383
 4623TIP3   OH213832   2.608   0.480   4.828  0.1356 -0.5102 -0.4333
 4623TIP3    H113833   2.567   0.440   4.751 -1.0996 -1.3626  0.6339
 4623TIP3    H213834   2.625   0.408   4.888 -0.7025  0.3395  0.8879
 4624TIP3   OH213835   6.234   3.620   4.913  0.3751  0.9264 -0.0529
 4624TIP3    H113836   6.309   3.568   4.882 -0.0542  0.2363  0.0572
 4624TIP3    H213837   6.222   3.593   5.004  0.5039  1.6433  0.1825
 4625TIP3   OH213838   3.246   5.949   2.697  0.0181  0.1940 -0.4190
 4625TIP3    H113839   3.236   6.020   2.760  0.2648 -0.5627  0.4978
 4625TIP3    H213840   3.258   5.871   2.750  0.8295 -0.3872 -1.4195
 4626TIP3   OH213841   3.387   4.905   5.409 -0.1739 -0.3374  0.2416
 4626TIP3    H113842   3.395   4.823   5.360  1.6253 -0.8411  1.2798
 4626TIP3    H213843   3.405   4.973   5.344  0.0038 -0.8609 -0.2719
 4627TIP3   OH213844   7.014   5.307   1.102 -0.3742 -0.7701  0.6264
 4627TIP3    H113845   7.039   5.311   1.195 -0.2120  0.4840  0.5474
 4627TIP3    H213846   7.086   5.261   1.060  0.1695 -0.2139  0.9351
 4628TIP3   OH213847   5.439   4.896   5.674  0.8742 -0.1059  0.0838
 4628TIP3    H113848   5.424   4.982   5.634 -0.0212 -0.1595  0.2775
 4628TIP3    H213849   5.396   4.834   5.615  0.9316 -0.3478  0.2956
 4629TIP3   OH213850   2.367   4.044   2.949 -0.0080 -0.0090 -0.4568
 4629TIP3    H113851   2.296   4.100   2.917  1.2170  0.7329 -2.0737
 4629TIP3    H213852   2.402   4.092   3.024 -1.2102 -0.4013  0.3781
 4630TIP3   OH213853   0.395   0.432   1.060  0.2992  0.0908 -0.3589
 4630TIP3    H113854   0.463   0.469   1.003  0.6176 -2.4400 -1.7523
 4630TIP3    H213855   0.430   0.444   1.149  0.6437  2.4504 -0.7383
 4631TIP3   OH213856   6.758   0.515   5.672  0.4964  0.1257 -0.1543
 4631TIP3    H113857   6.744   0.442   5.733  0.2888 -2.3086 -2.8771
 4631TIP3    H213858   6.671   0.534   5.636  0.9789 -0.6153 -1.8372
 4632TIP3   OH213859   2.342   1.098   5.168 -0.4589  0.0317 -0.0470
 4632TIP3    H113860   2.371   1.179   5.209 -0.0338  0.2512 -0.7703
 4632TIP3    H213861   2.258   1.120   5.128 -0.3603  0.1033 -0.2130
 4633TIP3   OH213862   2.666   2.197   4.602  0.8533 -0.1464  0.2093
 4633TIP3    H113863   2.695   2.240   4.682  1.4139 -1.0591  0.5182
 4633TIP3    H213864   2.743   2.147   4.573  0.7317  0.3796 -1.0373
 4634TIP3   OH213865   4.077   2.684   0.955 -0.3582 -0.0364 -0.5575
 4634TIP3    H113866   4.005   2.622   0.959 -2.7253  2.5624  0.5466
 4634TIP3    H213867   4.046   2.754   0.898  2.0375  0.3950 -1.4649
 4635TIP3   OH213868   1.373   1.122   3.004 -0.0028  0.3476 -0.3766
 4635TIP3    H113869   1.299   1.148   3.059 -0.0249 -0.0187 -0.2307
 4635TIP3    H213870   1.447   1.116   3.064  0.2769  1.2664 -0.6187
 4636TIP3   OH213871   2.735   5.153   2.386 -0.1655 -0.3742  0.0369
 4636TIP3    H113872   2.691   5.176   2.304 -0.0211  0.9406  0.2962
 4636TIP3    H213873   2.757   5.061   2.377 -1.3661 -0.6000 -0.8404
 4637TIP3   OH213874   2.738   0.408   0.004  0.2122 -0.1383  0.3442
 4637TIP3    H113875   2.656   0.395  -0.044 -0.1647  0.3890  0.8384
 4637TIP3    H213876   2.730   0.351   0.080  0.4450 -0.3324  0.2225
 4638TIP3   OH213877   2.428   6.362   3.308 -0.0332 -0.3186 -0.6827
 4638TIP3    H113878   2.369   6.355   3.383  0.0316 -1.6430 -0.7266
 4638TIP3    H213879   2.450   6.455   3.302  0.9410 -0.3394  1.6877
 4639TIP3   OH213880   1.671   2.105   3.931  0.7073  0.3792 -0.6092
 4639TIP3    H113881   1.627   2.095   3.847  0.4899  0.8292 -0.5576
 4639TIP3    H213882   1.764   2.099   3.911  0.6154 -1.7755 -0.5501
 4640TIP3   OH213883   3.927   1.265   2.651 -0.0771 -0.1155 -0.2380
 4640TIP3    H113884   3.981   1.339   2.679 -1.4855  1.0548 -0.4929
 4640TIP3    H213885   3.863   1.304   2.591 -1.4714 -1.3716  0.3899
 4641TIP3   OH213886   0.913   6.801   4.307 -0.1570  0.6918  0.0896
 4641TIP3    H113887   0.839   6.862   4.306 -1.5097 -0.8686 -1.2895
 4641TIP3    H213888   0.889   6.735   4.372  0.7520  0.9858  0.7366
 4642TIP3   OH213889   5.923   6.269   1.293 -0.1946 -0.1598  0.1108
 4642TIP3    H113890   5.971   6.198   1.336 -0.6201 -1.2188 -1.1258
 4642TIP3    H213891   5.907   6.332   1.364  2.1047 -0.2181  0.7830
 4643TIP3   OH213892   6.393   4.619   0.422 -0.3535 -0.1176 -0.0538
 4643TIP3    H113893   6.418   4.569   0.500  0.4819 -0.3074 -0.4331
 4643TIP3    H213894   6.374   4.707   0.455  2.9290  0.6652  0.0460
 4644TIP3   OH213895   3.331   4.764   3.131  0.4656  0.1941 -0.3541
 4644TIP3    H113896   3.305   4.815   3.055  0.3745 -2.0260 -1.9015
 4644TIP3    H213897   3.257   4.769   3.191  0.5284  1.9471 -0.3739
 4645TIP3   OH213898   3.674   3.128   3.531 -0.2125  0.5428 -0.0017
 4645TIP3    H113899   3.761   3.091   3.544 -0.7727 -0.9470 -0.2399
 4645TIP3    H213900   3.615   3.059   3.560 -1.3340  1.1696 -0.7339
 4646TIP3   OH213901   3.759   0.613   3.565 -0.5723  0.2350 -0.4293
 4646TIP3    H113902   3.715   0.697   3.578 -0.6727  0.2735 -0.9847
 4646TIP3    H213903   3.790   0.588   3.652  1.4416  1.9568 -0.5658
 4647TIP3   OH213904   3.292   1.244   0.653 -0.1698 -0.2739  0.2293
 4647TIP3    H113905   3.264   1.262   0.564  1.1994 -0.3955 -0.2543
 4647TIP3    H213906   3.222   1.191   0.690 -0.2477 -1.1942 -1.1612
 4648TIP3   OH213907   3.906   2.719   1.582  0.1315 -0.7390 -0.0973
 4648TIP3    H113908   3.909   2.632   1.620  1.7038 -1.0427 -0.8108
 4648TIP3    H213909   3.998   2.745   1.575 -0.3232  2.0823  2.5003
 4649TIP3   OH213910   1.916   4.334   1.472  0.2120 -0.1856  0.3623
 4649TIP3    H113911   1.869   4.339   1.389 -0.9701 -0.5070  0.9796
 4649TIP3    H213912   2.004   4.365   1.452 -0.6969  2.0242 -0.4991
 4650TIP3   OH213913   3.529   0.704   0.585  0.1867  0.3507 -0.1063
 4650TIP3    H113914   3.588   0.676   0.515  0.6546  0.3992  0.2631
 4650TIP3    H213915   3.515   0.798   0.569  0.7703  0.4932  0.2082
 4651TIP3   OH213916   1.539   3.474   0.275 -0.1203 -0.2468  0.5248
 4651TIP3    H113917   1.571   3.437   0.357 -1.9514  0.0484  1.4099
 4651TIP3    H213918   1.611   3.530   0.246  1.2381 -1.6519  1.0162
 4652TIP3   OH213919   2.520   0.792   2.142  0.1435  0.2365  0.3529
 4652TIP3    H113920   2.581   0.729   2.180  1.2834  2.5033  2.6052
 4652TIP3    H213921   2.565   0.824   2.063  0.0452 -0.9079 -0.1848
 4653TIP3   OH213922   1.747   0.770   4.689 -0.1049  0.2653 -0.3300
 4653TIP3    H113923   1.657   0.794   4.671 -0.0928  0.7102  0.1488
 4653TIP3    H213924   1.757   0.682   4.654 -0.9956 -0.1558  0.4222
 4654TIP3   OH213925   1.559   3.742   1.501 -0.2591 -0.0990  0.2280
 4654TIP3    H113926   1.518   3.770   1.583 -0.7396 -2.9950  1.1004
 4654TIP3    H213927   1.489   3.751   1.436 -0.9486 -0.8091  0.8335
 4655TIP3   OH213928   2.886   6.184   4.339  0.1692  0.5736 -0.1392
 4655TIP3    H113929   2.883   6.229   4.254 -0.4292  0.5003 -0.1574
 4655TIP3    H213930   2.808   6.129   4.340 -0.9140  2.0400  1.2669
 4656TIP3   OH213931   2.952   0.711   1.037 -0.5599 -0.3365 -0.0164
 4656TIP3    H113932   2.905   0.628   1.043 -1.2148 -0.0246 -0.6574
 4656TIP3    H213933   2.935   0.742   0.948  0.0353  0.2737  0.0755
 4657TIP3   OH213934   0.241   3.079   3.108  1.0498  0.3384 -0.0367
 4657TIP3    H113935   0.301   3.152   3.126  0.8630  0.7996 -1.1717
 4657TIP3    H213936   0.212   3.095   3.018 -2.1873  1.1496  1.0302
 4658TIP3   OH213937   4.752   6.638   2.150  0.1727  0.5617 -0.0366
 4658TIP3    H113938   4.727   6.548   2.131 -2.6908  1.3808 -0.6742
 4658TIP3    H213939   4.815   6.661   2.081  0.5356 -0.7639 -0.1663
 4659TIP3   OH213940   0.494   3.894   5.603 -0.1039 -0.4477  0.0439
 4659TIP3    H113941   0.418   3.872   5.550  0.5580 -0.6040 -0.8614
 4659TIP3    H213942   0.489   3.988   5.615 -0.6891 -0.5172  0.3903
 4660TIP3   OH213943   6.524   0.780   4.927  0.1563 -0.0599  0.2345
 4660TIP3    H113944   6.516   0.876   4.923  0.2869  0.0399  1.6949
 4660TIP3    H213945   6.603   0.765   4.979 -1.1728 -0.9068  2.1172
 4661TIP3   OH213946   3.449   5.497   1.930 -0.4187  0.1082  0.1187
 4661TIP3    H113947   3.371   5.442   1.927 -0.6586  0.3728  1.1876
 4661TIP3    H213948   3.468   5.508   2.023  1.4109 -0.6651 -0.1238
 4662TIP3   OH213949   0.986   2.937   3.616 -0.2317  0.5460  0.1141
 4662TIP3    H113950   0.997   2.953   3.522  1.6003 -1.9187 -0.1858
 4662TIP3    H213951   1.014   3.019   3.657  2.9843  0.4073 -1.4386
 4663TIP3   OH213952   1.043   3.074   2.477  0.1431  0.2244  0.0182
 4663TIP3    H113953   1.124   3.043   2.436 -1.2020 -3.7594 -0.0492
 4663TIP3    H213954   1.036   3.025   2.558 -0.8868  2.5990  1.4812
 4664TIP3   OH213955   3.205   1.560   4.522  0.5365  0.1633 -1.2247
 4664TIP3    H113956   3.270   1.552   4.592 -0.3577  1.2982 -0.2380
 4664TIP3    H213957   3.167   1.472   4.515  2.1135 -0.5144 -1.8017
 4665TIP3   OH213958   3.085   3.450   1.141 -0.3996 -0.2169 -0.0475
 4665TIP3    H113959   3.026   3.466   1.068 -0.3836  0.7627  0.1391
 4665TIP3    H213960   3.134   3.372   1.116 -0.7867 -0.2196 -0.8236
 4666TIP3   OH213961   3.390   2.197   4.388  0.4841  0.2756 -0.2325
 4666TIP3    H113962   3.399   2.140   4.312 -1.7743  1.1329 -1.2377
 4666TIP3    H213963   3.363   2.138   4.459  1.8286 -0.4066 -0.2467
 4667TIP3   OH213964   0.258   4.356   5.207 -0.0433  0.2474 -0.2441
 4667TIP3    H113965   0.188   4.366   5.271  0.8174 -2.7130  1.3380
 4667TIP3    H213966   0.323   4.421   5.232 -0.6373  0.5296  0.6152
 4668TIP3   OH213967   3.342   2.355   0.280  0.1040 -0.6143 -0.3563
 4668TIP3    H113968   3.374   2.316   0.198 -2.0433 -0.7069 -1.2060
 4668TIP3    H213969   3.315   2.443   0.255 -0.5700 -0.6464  0.2575
 4669TIP3   OH213970   3.684   0.261   1.540  0.3824 -0.3303  0.4303
 4669TIP3    H113971   3.690   0.167   1.554  2.2015 -0.2032  0.6762
 4669TIP3    H213972   3.709   0.301   1.623 -1.6268  0.4097  0.7414
 4670TIP3   OH213973   5.504   2.190   1.688 -0.4882 -0.2593 -0.5381
 4670TIP3    H113974   5.581   2.144   1.654 -0.9994 -0.4845 -1.4297
 4670TIP3    H213975   5.430   2.153   1.639 -1.0857  0.4303 -0.1809
 4671TIP3   OH213976   3.743   5.015   1.256 -0.5008  0.2985  0.3608
 4671TIP3    H113977   3.765   5.106   1.234  0.1818  0.7451  2.6289
 4671TIP3    H213978   3.699   4.982   1.178 -0.4354  2.4618 -0.6774
 4672TIP3   OH213979   1.889   5.522   4.760  0.1367 -1.0638 -0.0208
 4672TIP3    H113980   1.936   5.572   4.693 -0.5917 -0.1439  0.1407
 4672TIP3    H213981   1.797   5.527   4.734 -0.1936 -0.4393  1.1900
 4673TIP3   OH213982   3.693   4.178   0.009  0.2427  0.4123 -0.1905
 4673TIP3    H113983   3.649   4.099  -0.022 -0.5119  0.7849 -0.0977
 4673TIP3    H213984   3.762   4.146   0.067  0.2366 -0.1951 -0.5143
 4674TIP3   OH213985   3.586   1.417   3.574  0.1557 -0.5875 -0.9895
 4674TIP3    H113986   3.671   1.445   3.608 -0.5063 -0.3285  0.5681
 4674TIP3    H213987   3.593   1.322   3.567 -0.1913 -0.9004  1.6559
 4675TIP3   OH213988   0.798   0.380   4.010  0.1965  0.3505 -0.3609
 4675TIP3    H113989   0.781   0.474   4.004 -1.3325  0.2263  1.3299
 4675TIP3    H213990   0.747   0.351   4.085  3.6322 -1.1752  1.6161
 4676TIP3   OH213991   5.673   4.362   0.153 -0.1252 -0.1620  0.1262
 4676TIP3    H113992   5.725   4.343   0.075 -0.5044  1.5002 -0.5617
 4676TIP3    H213993   5.583   4.368   0.121 -0.1367  1.8236  0.4150
 4677TIP3   OH213994   3.493   0.280   0.744  0.3219 -0.3614  0.1867
 4677TIP3    H113995   3.481   0.304   0.652 -1.3417 -1.5149  0.0508
 4677TIP3    H213996   3.553   0.346   0.778  0.7203  0.2903 -1.6349
 4678TIP3   OH213997   0.038   2.306   4.681  0.1086 -0.1616 -0.3107
 4678TIP3    H113998   0.002   2.273   4.764 -2.2108 -0.0092 -1.1829
 4678TIP3    H213999   0.041   2.229   4.624  0.6276 -0.0420 -0.4522
 4679TIP3   OH214000   6.324   6.277   0.844 -0.2337  0.3826 -0.1434
 4679TIP3    H114001   6.382   6.351   0.862  0.4804 -0.5170  1.4749
 4679TIP3    H214002   6.238   6.306   0.874 -0.1601  0.8676 -0.3813
 4680TIP3   OH214003   5.499   4.350   4.133 -0.1182  0.2439 -0.1382
 4680TIP3    H114004   5.415   4.306   4.123 -0.1163  0.2826 -0.3276
 4680TIP3    H214005   5.479   4.443   4.124 -0.2630  0.3617  1.1392
 4681TIP3   OH214006   3.254   5.133   4.395 -0.2168 -0.4164 -0.4363
 4681TIP3    H114007   3.263   5.168   4.307  0.0986  1.6888  0.3755
 4681TIP3    H214008   3.164   5.155   4.420 -0.0384 -0.2299  0.0587
 4682TIP3   OH214009   5.767   1.257   5.427  0.4526  0.1082  0.1269
 4682TIP3    H114010   5.796   1.249   5.518 -1.3178  1.4446  0.8566
 4682TIP3    H214011   5.673   1.240   5.430  0.3849  0.0617 -1.4847
 4683TIP3   OH214012   0.059   2.873   4.401  0.2381  0.4308  0.1053
 4683TIP3    H114013   0.099   2.948   4.444 -0.6861  0.6582  0.5963
 4683TIP3    H214014   0.018   2.823   4.472  0.2668 -0.1836 -0.2950
 4684TIP3   OH214015   4.999   6.408   1.101 -0.0030 -0.5484  0.5901
 4684TIP3    H114016   5.021   6.333   1.046  0.2161  0.9583 -1.4968
 4684TIP3    H214017   4.931   6.454   1.052  0.9221  1.4102  1.0679
 4685TIP3   OH214018   5.371   6.330   0.801 -0.0834 -0.1352  0.3033
 4685TIP3    H114019   5.372   6.404   0.739 -0.2999 -2.0763 -2.1762
 4685TIP3    H214020   5.280   6.301   0.802  0.0052 -0.4230  1.2238
 4686TIP3   OH214021   6.885   1.638   2.617  0.0521 -0.0909 -0.0847
 4686TIP3    H114022   6.857   1.621   2.706 -1.5838 -1.2321 -0.7701
 4686TIP3    H214023   6.962   1.582   2.605  0.0265 -0.2494  0.4640
 4687TIP3   OH214024   6.815   6.389   0.943 -0.4310 -0.1784 -0.2642
 4687TIP3    H114025   6.823   6.342   0.860 -0.0428 -1.0609  0.2553
 4687TIP3    H214026   6.773   6.326   1.002 -0.3648  0.3066  0.3113
 4688TIP3   OH214027   2.586   3.637   0.888 -0.4546 -0.4023 -0.5410
 4688TIP3    H114028   2.653   3.680   0.836 -2.9532  1.8505 -2.1617
 4688TIP3    H214029   2.582   3.547   0.854  1.7616 -0.6450 -0.2741
 4689TIP3   OH214030   1.251   4.603   0.097 -0.0730  0.2490  0.1172
 4689TIP3    H114031   1.159   4.624   0.109  0.2138  0.9355  1.3226
 4689TIP3    H214032   1.253   4.507   0.090 -0.9681  0.3031 -1.0148
 4690TIP3   OH214033   0.519   5.670   5.720 -0.6166  0.2870  0.4517
 4690TIP3    H114034   0.446   5.692   5.661  0.7422  0.6582 -1.1558
 4690TIP3    H214035   0.578   5.617   5.666  0.6470  0.6008  1.4902
 4691TIP3   OH214036   6.983   0.940   0.907 -0.8184  0.1322 -0.1193
 4691TIP3    H114037   6.957   1.005   0.972  2.1304  0.4001  0.9577
 4691TIP3    H214038   7.068   0.970   0.876 -0.6702 -1.7381 -1.7316
 4692TIP3   OH214039   0.720   2.156   0.912 -0.1504  0.1984  0.2453
 4692TIP3    H114040   0.769   2.128   0.989 -0.7499 -0.4015  0.4233
 4692TIP3    H214041   0.723   2.251   0.914  0.7540  0.1716  0.4072
 4693TIP3   OH214042   3.703   3.248   0.355 -1.1436 -0.1338  0.5447
 4693TIP3    H114043   3.680   3.338   0.379 -0.2046  0.8184 -1.8195
 4693TIP3    H214044   3.795   3.240   0.379 -1.3030 -0.6079  1.0290
 4694TIP3   OH214045   5.836   2.588   3.948 -0.5051 -0.2513 -0.7992
 4694TIP3    H114046   5.831   2.494   3.966 -0.5459 -0.1791 -0.4285
 4694TIP3    H214047   5.924   2.613   3.977 -0.7924 -0.0138 -0.1263
 4695TIP3   OH214048   4.931   3.322   4.091 -0.5908 -0.3385  0.1241
 4695TIP3    H114049   4.914   3.304   4.183 -0.1959  1.7252  0.6518
 4695TIP3    H214050   4.995   3.256   4.064 -0.9176 -1.1250  1.2427
 4696TIP3   OH214051   2.054   0.190   0.885 -0.0503 -0.3069  0.1114
 4696TIP3    H114052   2.022   0.273   0.851 -0.5166 -0.4390  0.2245
 4696TIP3    H214053   2.095   0.148   0.809 -1.3662 -0.7413 -0.4007
 4697TIP3   OH214054   6.549   4.083   2.936  0.1332  0.4535  0.2178
 4697TIP3    H114055   6.468   4.033   2.941 -0.2002  0.8828 -0.6625
 4697TIP3    H214056   6.550   4.135   3.015 -1.6197  2.1558 -0.7968
 4698TIP3   OH214057   0.747   2.503   3.463 -0.0801  0.5644 -0.2372
 4698TIP3    H114058   0.750   2.478   3.370  0.7151  1.1352 -0.3700
 4698TIP3    H214059   0.654   2.498   3.485 -0.0900 -1.5904 -0.4863
 4699TIP3   OH214060   0.322   0.254   5.589 -0.0341 -0.3487  0.4815
 4699TIP3    H114061   0.349   0.163   5.591  0.0974 -0.3336 -0.4381
 4699TIP3    H214062   0.331   0.281   5.498  0.6074  0.7865  0.8527
 4700TIP3   OH214063   0.462   5.563   4.587  0.2161  0.3582 -0.3878
 4700TIP3    H114064   0.420   5.480   4.610 -0.1613  0.1934 -1.5890
 4700TIP3    H214065   0.466   5.562   4.491  0.8991  1.3917 -0.3867
 4701TIP3   OH214066   2.255   0.387   1.611 -0.0888  0.1029 -0.3528
 4701TIP3    H114067   2.194   0.393   1.537 -0.9081  0.4460  0.3390
 4701TIP3    H214068   2.199   0.367   1.686  0.6802  0.2092  0.2536
 4702TIP3   OH214069   3.690   0.854   5.382 -0.3428  0.1156 -0.5160
 4702TIP3    H114070   3.774   0.889   5.354 -0.3764  2.1981  1.7220
 4702TIP3    H214071   3.626   0.901   5.329 -0.3080  2.7255  1.5518
 4703TIP3   OH214072   5.471   2.612   5.168  0.0171 -0.2973 -0.8059
 4703TIP3    H114073   5.528   2.550   5.213  0.1129  0.2996 -0.0736
 4703TIP3    H214074   5.431   2.562   5.097  0.5637 -1.0232 -0.6084
 4704TIP3   OH214075   5.612   3.678   2.040 -0.0767  0.1219 -0.1877
 4704TIP3    H114076   5.640   3.638   2.122 -0.3106  0.7354  0.1972
 4704TIP3    H214077   5.627   3.610   1.974  2.4282  0.4351 -0.0401
 4705TIP3   OH214078  -0.004   4.522   0.033  0.0222  0.5755  0.4637
 4705TIP3    H114079   0.049   4.600   0.014  1.6663 -0.1513  1.8114
 4705TIP3    H214080   0.011   4.506   0.126 -2.3165  0.0904  0.8195
 4706TIP3   OH214081   0.380   1.214   3.070 -0.5911  0.1908  0.4845
 4706TIP3    H114082   0.350   1.277   3.005 -1.5471 -1.1580 -0.4372
 4706TIP3    H214083   0.311   1.212   3.136 -1.6247 -1.3552 -0.5569
 4707TIP3   OH214084   1.185   0.329   1.547  0.6328  0.0027  0.2074
 4707TIP3    H114085   1.121   0.314   1.477  0.0286 -0.4731  0.8404
 4707TIP3    H214086   1.266   0.290   1.515  0.2232 -0.6781 -0.0110
 4708TIP3   OH214087   6.297   5.032   4.267 -0.1586  0.2633  0.0599
 4708TIP3    H114088   6.284   5.127   4.267 -3.5361 -0.0941 -0.5139
 4708TIP3    H214089   6.213   4.996   4.240  0.8264 -2.9512  0.8730
 4709TIP3   OH214090   4.146   6.336   0.510  0.7444 -0.3563 -0.0535
 4709TIP3    H114091   4.215   6.304   0.452 -0.9818  0.9213 -3.0722
 4709TIP3    H214092   4.065   6.296   0.475 -0.5247  1.4079  0.7219
 4710TIP3   OH214093   0.753   2.104   3.162 -0.2314  0.3053 -0.3637
 4710TIP3    H114094   0.789   2.170   3.221 -1.2008  1.3401 -0.9108
 4710TIP3    H214095   0.678   2.068   3.210  0.5322 -0.7377  0.1106
 4711TIP3   OH214096   4.295   5.604   0.049 -0.1495 -0.3646  0.2616
 4711TIP3    H114097   4.261   5.596  -0.040 -1.2362 -0.8404  0.6901
 4711TIP3    H214098   4.262   5.688   0.080 -0.0998 -0.3755  0.3433
 4712TIP3   OH214099   4.944   2.665   5.435  0.1503 -0.4614  0.1965
 4712TIP3    H114100   5.030   2.625   5.447  0.4539  0.4339  1.1596
 4712TIP3    H214101   4.911   2.628   5.353  1.0891 -1.4502  0.2505
 4713TIP3   OH214102   5.313   0.424   1.608 -0.0629  0.5348 -0.4848
 4713TIP3    H114103   5.309   0.363   1.682 -1.0070 -0.2685 -1.1745
 4713TIP3    H214104   5.228   0.469   1.610 -0.3570  0.0399 -1.4558
 4714TIP3   OH214105   2.314   5.661   5.611  0.3556 -0.1956 -0.1956
 4714TIP3    H114106   2.248   5.718   5.650  0.6991  1.0831 -1.3948
 4714TIP3    H214107   2.306   5.579   5.659 -1.1166  0.3964  0.6476
 4715TIP3   OH214108   3.801   1.033   3.618  0.1793 -0.3227  0.4592
 4715TIP3    H114109   3.893   1.008   3.624  0.7644  1.9263  2.2174
 4715TIP3    H214110   3.758   0.988   3.691 -0.2696 -1.7858 -0.6690
 4716TIP3   OH214111   0.405   1.526   5.492  0.4687  0.3509  0.5570
 4716TIP3    H114112   0.361   1.608   5.514  0.8537  0.2367  1.8098
 4716TIP3    H214113   0.365   1.461   5.550  2.1064  0.1989  1.5574
 4717TIP3   OH214114   0.452   5.934   3.602 -0.1992  0.5052  0.1022
 4717TIP3    H114115   0.380   5.970   3.551 -0.5454  0.1185  0.3059
 4717TIP3    H214116   0.411   5.905   3.684 -0.0644 -0.8955 -0.2949
 4718TIP3   OH214117   1.870   6.326   2.211 -0.2599  0.3669  0.7411
 4718TIP3    H114118   1.855   6.273   2.132  0.1303 -0.2554  1.0726
 4718TIP3    H214119   1.963   6.314   2.231 -0.1803  1.1551  0.8461
 4719TIP3   OH214120   2.841   6.540   0.432  0.0559  0.1677 -0.4137
 4719TIP3    H114121   2.785   6.574   0.503  0.9576  1.4343 -0.2734
 4719TIP3    H214122   2.813   6.589   0.355 -0.2082 -0.4650 -0.7296
 4720TIP3   OH214123   0.346   5.504   2.925 -0.0034 -0.3816 -0.3506
 4720TIP3    H114124   0.275   5.542   2.978  0.3973  0.6103 -0.4969
 4720TIP3    H214125   0.310   5.498   2.837 -0.7469 -2.2364  0.0242
 4721TIP3   OH214126   5.764   4.509   3.998  0.1063  0.2947 -0.6271
 4721TIP3    H114127   5.708   4.530   4.073 -0.6397 -0.2809 -1.0088
 4721TIP3    H214128   5.719   4.548   3.923  0.1323 -0.3199 -0.9643
 4722TIP3   OH214129   0.070   6.601   3.022  0.2421  0.5210  0.6178
 4722TIP3    H114130   0.092   6.666   3.089 -0.4189  0.1096  1.2443
 4722TIP3    H214131   0.103   6.639   2.940  0.0442  1.5526  1.0020
 4723TIP3   OH214132   1.925   3.589   3.803  0.1239 -0.2346  0.2367
 4723TIP3    H114133   1.853   3.648   3.781 -0.3639 -1.4896 -1.7911
 4723TIP3    H214134   1.955   3.619   3.888 -1.5886  1.4860  0.3060
 4724TIP3   OH214135   0.296   4.804   1.645 -0.7239  0.3452 -0.5862
 4724TIP3    H114136   0.307   4.893   1.610  0.3139 -0.2779 -1.9380
 4724TIP3    H214137   0.310   4.814   1.739  0.3244  1.4901 -0.8270
 4725TIP3   OH214138   7.010   1.596   4.431  0.4154 -0.1217 -0.4171
 4725TIP3    H114139   6.962   1.563   4.355  2.1540 -3.2954 -0.3363
 4725TIP3    H214140   7.101   1.599   4.402  0.8887  0.2139  1.0419
 4726TIP3   OH214141   3.085   2.270   0.750  0.4810 -0.0260  0.1232
 4726TIP3    H114142   3.141   2.200   0.782  1.0748  0.6997  0.7174
 4726TIP3    H214143   3.142   2.347   0.746 -0.2389  0.5071 -0.1602
 4727TIP3   OH214144   3.565   1.886   0.337 -0.0270  0.0116 -0.0777
 4727TIP3    H114145   3.595   1.826   0.270  0.1369 -1.1946  1.0344
 4727TIP3    H214146   3.643   1.903   0.390 -0.7532 -1.4082  1.5352
 4728TIP3   OH214147   5.758   5.780   5.593 -0.5047 -0.4441 -0.2630
 4728TIP3    H114148   5.675   5.817   5.562 -0.4241  0.0246  0.0677
 4728TIP3    H214149   5.740   5.686   5.604 -1.5198 -0.0977  1.4577
 4729TIP3   OH214150   6.474   2.255   2.366 -0.4341 -0.5917 -0.2432
 4729TIP3    H114151   6.532   2.200   2.418 -0.2003 -1.5848 -1.4852
 4729TIP3    H214152   6.431   2.193   2.307 -1.1473  0.4119 -0.7944
 4730TIP3   OH214153   6.946   2.021   2.792 -0.3455  0.4451  0.4017
 4730TIP3    H114154   6.954   1.959   2.864  0.8169  0.8481  0.6537
 4730TIP3    H214155   6.947   2.107   2.834 -0.2734  0.6717 -0.0520
 4731TIP3   OH214156   0.379   0.293   0.691 -0.1582  0.3148 -0.2288
 4731TIP3    H114157   0.335   0.280   0.607  0.5135 -0.9342 -0.4186
 4731TIP3    H214158   0.310   0.285   0.757 -0.2699 -1.5065 -0.5302
 4732TIP3   OH214159   0.797   2.827   1.527 -0.1983  0.1034 -0.5904
 4732TIP3    H114160   0.777   2.910   1.572  1.2066  0.2888 -0.2601
 4732TIP3    H214161   0.848   2.777   1.591  0.8332 -0.1095 -1.5472
 4733TIP3   OH214162   0.298   0.519   3.155  0.0820 -0.1406  0.2384
 4733TIP3    H114163   0.316   0.613   3.166  1.3136 -0.3392 -0.0403
 4733TIP3    H214164   0.222   0.516   3.097 -0.5312  0.6934  0.9534
 4734TIP3   OH214165   2.620   0.791   4.077  0.0511 -0.0816  0.3354
 4734TIP3    H114166   2.655   0.846   4.147  0.9748 -0.6767  0.3542
 4734TIP3    H214167   2.642   0.702   4.104  0.2681 -0.3251 -0.6230
 4735TIP3   OH214168   3.364   1.816   4.466  0.6959  0.1325  0.2730
 4735TIP3    H114169   3.408   1.773   4.393  1.3324  1.1103  0.0548
 4735TIP3    H214170   3.271   1.809   4.446  0.7390 -1.6424  0.5525
 4736TIP3   OH214171   6.264   0.422   5.233  0.0301  0.4198 -0.0428
 4736TIP3    H114172   6.186   0.411   5.287  1.0669  0.2881  1.5083
 4736TIP3    H214173   6.280   0.336   5.196  0.2801  0.0762  0.8513
 4737TIP3   OH214174   5.244   6.784   5.642 -0.0103  0.0140 -0.2109
 4737TIP3    H114175   5.260   6.769   5.549 -0.1480  0.7946 -0.3649
 4737TIP3    H214176   5.260   6.699   5.683  0.8049 -0.1470 -0.8429
 4738TIP3   OH214177   0.920   6.478   5.229  0.0849 -0.3083 -0.4624
 4738TIP3    H114178   0.969   6.454   5.150 -2.0067 -2.0048 -1.3249
 4738TIP3    H214179   0.899   6.571   5.217  0.7548 -0.2551 -1.3459
 4739TIP3   OH214180   3.673   4.888   1.009 -0.9129  0.1121 -0.1136
 4739TIP3    H114181   3.686   4.942   0.931 -0.0766  0.5179  0.2918
 4739TIP3    H214182   3.756   4.842   1.021 -1.2637 -0.4563  0.1552
 4740TIP3   OH214183   3.322   4.058   5.149  0.3749  0.5390 -0.1433
 4740TIP3    H114184   3.391   4.010   5.103  0.9798  1.5797 -0.3683
 4740TIP3    H214185   3.369   4.127   5.196 -0.6314  2.6038 -1.9645
 4741TIP3   OH214186   0.923   5.926   3.309  0.6300  0.0137 -0.2623
 4741TIP3    H114187   0.840   5.922   3.358  0.6017 -2.5335 -0.3479
 4741TIP3    H214188   0.946   6.018   3.308 -2.0481  0.7842  0.0451
 4742TIP3   OH214189   5.472   4.086   3.319 -0.3421 -0.2261  0.1676
 4742TIP3    H114190   5.568   4.084   3.316 -0.2853  1.2457  0.4502
 4742TIP3    H214191   5.446   3.996   3.300  1.1272 -0.8974  1.1596
 4743TIP3   OH214192   3.420   2.942   0.012  0.2720  0.2580  0.3404
 4743TIP3    H114193   3.450   3.008  -0.051  0.2838  0.5723  0.6729
 4743TIP3    H214194   3.489   2.938   0.078 -0.0708  0.4445  0.7123
 4744TIP3   OH214195   5.090   3.645   0.998  0.0096 -0.0745 -0.0648
 4744TIP3    H114196   5.007   3.691   0.985 -0.4893 -1.0823 -0.5927
 4744TIP3    H214197   5.082   3.565   0.945  2.5225  1.2254 -2.6839
 4745TIP3   OH214198   6.615   1.342   4.540  0.2794 -0.4107 -0.6275
 4745TIP3    H114199   6.555   1.335   4.615 -0.8647  1.8556 -1.2245
 4745TIP3    H214200   6.610   1.434   4.514  4.7040  0.1583 -0.2394
 4746TIP3   OH214201   2.206   1.080   2.340  0.3900  0.2192 -0.0481
 4746TIP3    H114202   2.212   1.173   2.316  1.2478  0.2580  0.2866
 4746TIP3    H214203   2.296   1.048   2.334 -0.2049 -1.2353 -2.6222
 4747TIP3   OH214204   1.159   1.062   3.408  0.3714 -0.1625  0.0241
 4747TIP3    H114205   1.068   1.037   3.394 -0.2854  0.9833  1.9936
 4747TIP3    H214206   1.200   0.984   3.445 -0.2054 -0.2091  0.5826
 4748TIP3   OH214207   3.152   2.750   3.704  0.8463 -0.3132  0.4091
 4748TIP3    H114208   3.164   2.669   3.655 -0.3078 -0.3988  0.2188
 4748TIP3    H214209   3.199   2.737   3.786 -0.2643 -1.6485  0.8618
 4749TIP3   OH214210   6.241   3.459   2.478 -0.1597 -0.1389  0.6198
 4749TIP3    H114211   6.326   3.475   2.520  1.3373 -2.0053 -1.4783
 4749TIP3    H214212   6.263   3.433   2.389 -2.9895 -0.4564 -0.0700
 4750TIP3   OH214213   2.830   4.051   5.205 -0.4027 -0.5990  0.6259
 4750TIP3    H114214   2.889   4.019   5.137  0.6387  1.3226  0.5407
 4750TIP3    H214215   2.887   4.100   5.264 -1.2928 -2.1272  2.8784
 4751TIP3   OH214216   6.048   3.806   0.197  0.0144  0.0532 -0.0443
 4751TIP3    H114217   6.132   3.788   0.155 -0.4425  0.4968 -1.1888
 4751TIP3    H214218   6.047   3.902   0.206 -0.8382  0.1578 -1.0880
 4752TIP3   OH214219   1.569   3.437   1.200  0.6249  0.2667  0.2703
 4752TIP3    H114220   1.630   3.487   1.147 -0.2201  0.0839 -0.9164
 4752TIP3    H214221   1.576   3.347   1.168 -0.6426  0.3347 -0.2899
 4753TIP3   OH214222   1.195   5.656   4.744  0.0328  0.3806 -0.0651
 4753TIP3    H114223   1.228   5.708   4.671  0.6619  0.3395  0.1850
 4753TIP3    H214224   1.110   5.695   4.765 -0.6960 -0.3239 -1.5608
 4754TIP3   OH214225   4.163   5.793   3.855  0.1334  0.1617  0.4765
 4754TIP3    H114226   4.207   5.763   3.776 -0.3910  1.9741 -0.5661
 4754TIP3    H214227   4.081   5.744   3.857 -0.2363  0.7052 -0.6011
 4755TIP3   OH214228   1.104   5.983   0.120 -0.1392 -0.4552 -0.0107
 4755TIP3    H114229   1.188   5.962   0.079  1.5011  1.8298  1.9263
 4755TIP3    H214230   1.095   5.918   0.190  0.6834  0.0062  0.5519
 4756TIP3   OH214231   3.683   3.660   0.607  0.1215 -0.3580  0.4862
 4756TIP3    H114232   3.670   3.571   0.638 -0.0497 -0.6976 -0.5143
 4756TIP3    H214233   3.773   3.682   0.631 -0.4687 -0.0281  2.5610
 4757TIP3   OH214234   5.985   4.491   5.740  0.0458  0.7600  0.0732
 4757TIP3    H114235   5.907   4.440   5.764  0.7104 -0.9910 -1.3272
 4757TIP3    H214236   6.049   4.469   5.807  0.5478 -0.8569 -0.8810
 4758TIP3   OH214237   1.596   1.357   4.479 -0.2821  0.1038  0.1083
 4758TIP3    H114238   1.582   1.451   4.491  0.3003  0.0612  1.2377
 4758TIP3    H214239   1.602   1.322   4.568 -0.5548 -1.0176 -0.3007
 4759TIP3   OH214240   4.135   5.223   2.977 -0.1834  0.0466  0.1750
 4759TIP3    H114241   4.154   5.317   2.978 -0.2184  0.2539 -3.6522
 4759TIP3    H214242   4.219   5.181   2.958 -0.6562 -0.4006 -1.0478
 4760TIP3   OH214243   1.423   4.951   2.485 -0.0590  0.1042 -0.1282
 4760TIP3    H114244   1.443   4.898   2.563 -0.1998  0.0359 -0.1375
 4760TIP3    H214245   1.462   4.902   2.413 -2.1248 -1.2048 -0.4469
 4761TIP3   OH214246   3.441   6.017   2.533  0.1735  0.0862 -0.1873
 4761TIP3    H114247   3.408   6.030   2.444 -1.0322  0.3055  0.2833
 4761TIP3    H214248   3.368   5.980   2.581  0.1571  1.7949  1.2136
 4762TIP3   OH214249   2.569   1.386   0.671  0.1619  0.0047  0.3516
 4762TIP3    H114250   2.602   1.351   0.588  0.1489 -0.3532  0.4939
 4762TIP3    H214251   2.641   1.375   0.733  0.3659  0.7834  0.2579
 4763TIP3   OH214252   0.002   5.822   0.194 -0.1281 -0.2844 -0.0835
 4763TIP3    H114253   0.005   5.915   0.219 -2.5398 -0.0830 -0.3007
 4763TIP3    H214254   0.044   5.819   0.108  1.7600  0.2301  0.7660
 4764TIP3   OH214255   1.828   5.299   3.775  0.2007  0.0727 -0.1599
 4764TIP3    H114256   1.886   5.330   3.844 -0.7992  1.4619  0.0959
 4764TIP3    H214257   1.743   5.337   3.795 -0.1081  0.5997 -2.2016
 4765TIP3   OH214258  -0.022   4.281   5.913  0.0602  0.3494 -0.4297
 4765TIP3    H114259   0.064   4.321   5.925  0.7273 -1.0261 -0.4378
 4765TIP3    H214260  -0.037   4.282   5.818  0.3784 -0.0273 -0.4843
 4766TIP3   OH214261   4.157   6.259   3.715 -0.2752  0.2094  0.0445
 4766TIP3    H114262   4.171   6.204   3.792  0.4905  0.2228 -0.0778
 4766TIP3    H214263   4.223   6.328   3.722  1.2478 -0.9778 -1.6980
 4767TIP3   OH214264   1.831   0.688   1.350  0.1157  0.1964 -0.0554
 4767TIP3    H114265   1.846   0.634   1.428 -0.7576  1.3513  0.9438
 4767TIP3    H214266   1.910   0.677   1.298  1.0972  0.0945  1.4022
 4768TIP3   OH214267   5.044   3.988   1.034  0.3868  0.0348  0.6202
 4768TIP3    H114268   4.985   4.062   1.048  1.9907  1.8092 -1.2693
 4768TIP3    H214269   5.128   4.018   1.067  0.7316 -1.6440  1.3575
 4769TIP3   OH214270   5.107   5.060   1.667 -0.3454 -0.2540  0.1256
 4769TIP3    H114271   5.179   5.003   1.641  0.8655  1.1487  0.2847
 4769TIP3    H214272   5.030   5.003   1.668  0.9570 -2.1045  1.1759
 4770TIP3   OH214273   3.207   0.051   1.676  0.0541  0.2494  0.0882
 4770TIP3    H114274   3.127   0.101   1.689 -0.0397 -0.3212  1.9247
 4770TIP3    H214275   3.203  -0.019   1.741  0.9507 -1.2040 -1.3315
 4771TIP3   OH214276   5.171   4.471   2.049 -0.1894 -0.3393  0.4831
 4771TIP3    H114277   5.216   4.458   2.132  0.9702 -1.1249 -0.2424
 4771TIP3    H214278   5.237   4.453   1.982 -1.2627 -0.3588 -0.6208
 4772TIP3   OH214279   0.609   1.086   4.698  0.0987 -0.4349  0.3918
 4772TIP3    H114280   0.591   0.994   4.721  1.1128 -0.6910  0.2128
 4772TIP3    H214281   0.686   1.081   4.641 -0.3973  0.4609 -0.3726
 4773TIP3   OH214282   2.391   1.729   4.750  0.2847  0.1776  0.2456
 4773TIP3    H114283   2.438   1.812   4.742  0.5405  0.0620  0.5536
 4773TIP3    H214284   2.458   1.665   4.774 -0.1757  0.1824  1.6027
 4774TIP3   OH214285   0.470   0.151   1.821  0.6437  0.3408 -0.2833
 4774TIP3    H114286   0.408   0.192   1.882 -0.7092  0.2920 -1.5841
 4774TIP3    H214287   0.527   0.099   1.878 -3.4429 -3.6280  0.8167
 4775TIP3   OH214288   3.942   1.105   0.630  0.6231 -0.6380  0.7119
 4775TIP3    H114289   3.904   1.192   0.645  0.8900 -0.2046 -0.9372
 4775TIP3    H214290   4.027   1.109   0.674  1.3295  0.5316 -0.6524
 4776TIP3   OH214291   2.106   5.175   3.990 -0.1419  0.2182  0.0156
 4776TIP3    H114292   2.063   5.146   4.071 -0.7642  1.2191  0.0651
 4776TIP3    H214293   2.073   5.116   3.923 -1.0071  0.4759  0.1932
 4777TIP3   OH214294   5.127   2.285   3.184  0.2536 -0.3101  0.1966
 4777TIP3    H114295   5.042   2.246   3.205  1.2551 -1.5596  2.1630
 4777TIP3    H214296   5.107   2.377   3.167 -1.5251 -0.6466  0.1869
 4778TIP3   OH214297   2.329   4.008   3.983  0.1497 -0.4209  0.1658
 4778TIP3    H114298   2.338   3.938   4.047 -0.3500  0.0520  0.7745
 4778TIP3    H214299   2.375   3.977   3.905 -0.7990 -1.7828  0.1206
 4779TIP3   OH214300   6.505   0.397   4.253  0.4734  0.3662  0.7469
 4779TIP3    H114301   6.459   0.314   4.240  2.4327 -0.9554  1.7288
 4779TIP3    H214302   6.520   0.430   4.164 -0.2106 -0.3891  0.3325
 4780TIP3   OH214303   2.900   6.108   2.579 -0.5299  0.2515  0.1759
 4780TIP3    H114304   2.889   6.194   2.539  2.4538  0.7731  0.1846
 4780TIP3    H214305   2.813   6.069   2.578 -1.6623  2.5851 -1.3798
 4781TIP3   OH214306   4.617   3.492   1.294 -0.1674  0.1753 -0.2411
 4781TIP3    H114307   4.645   3.556   1.229  0.1025  1.2788  0.9213
 4781TIP3    H214308   4.538   3.531   1.333  0.2918  0.0569  0.8300
 4782TIP3   OH214309   5.733   2.835   4.485  0.2213  0.3643 -0.2311
 4782TIP3    H114310   5.671   2.902   4.515  1.2942  0.8740  0.9407
 4782TIP3    H214311   5.757   2.862   4.396  0.2061  1.2269  0.0158
 4783TIP3   OH214312   6.234   1.804   2.957  0.3153 -0.3016 -0.2706
 4783TIP3    H114313   6.242   1.760   3.042 -2.9765 -0.6445 -0.0242
 4783TIP3    H214314   6.229   1.733   2.894  1.8666 -0.0582 -0.7082
 4784TIP3   OH214315   5.508   1.395   2.854  0.3118  0.0003 -0.9129
 4784TIP3    H114316   5.545   1.464   2.800  0.1886  0.2519 -0.6751
 4784TIP3    H214317   5.514   1.428   2.944 -1.3633  0.4394 -0.9508
 4785TIP3   OH214318   1.061   4.229   5.235  0.3734 -0.4814  0.7453
 4785TIP3    H114319   1.071   4.301   5.172 -1.2396 -0.3284  0.6266
 4785TIP3    H214320   1.112   4.158   5.198  1.9197  0.5372  0.8046
 4786TIP3   OH214321   3.189   5.255   5.321  0.3970  0.1495 -0.2638
 4786TIP3    H114322   3.221   5.267   5.410 -0.1537  1.6436 -0.2482
 4786TIP3    H214323   3.268   5.240   5.269  0.7429 -0.4157  0.4099
 4787TIP3   OH214324   6.032   4.421   4.333 -0.0396 -0.0888  0.0721
 4787TIP3    H114325   5.966   4.491   4.340  1.2528  1.1161  0.6568
 4787TIP3    H214326   6.043   4.391   4.423 -0.0222 -0.5312 -0.0760
 4788TIP3   OH214327   0.736   5.542   5.571 -0.0910 -0.3743 -0.0206
 4788TIP3    H114328   0.805   5.562   5.635 -0.0815  0.1133 -0.1741
 4788TIP3    H214329   0.781   5.544   5.486 -0.6090  1.7807 -0.3077
 4789TIP3   OH214330   1.141   1.267   1.960  0.0218 -0.3270 -0.4492
 4789TIP3    H114331   1.046   1.282   1.954 -0.2879 -1.0253  1.8424
 4789TIP3    H214332   1.171   1.332   2.023  0.9253 -0.6453 -0.5411
 4790TIP3   OH214333   3.301   4.290   2.335  0.0950  0.2112  0.0000
 4790TIP3    H114334   3.333   4.376   2.364  0.0314  0.8968 -1.8511
 4790TIP3    H214335   3.367   4.259   2.273 -0.6668 -0.3540 -0.5563
 4791TIP3   OH214336   6.758   6.263   1.197 -0.1502 -0.4664 -0.4663
 4791TIP3    H114337   6.841   6.246   1.241 -1.2653 -1.5651  1.2993
 4791TIP3    H214338   6.749   6.192   1.133  0.1332 -0.4983 -0.4708
 4792TIP3   OH214339   4.800   4.666   4.088  0.0391 -0.0110 -0.1760
 4792TIP3    H114340   4.776   4.736   4.028 -0.1485  1.9607  2.0629
 4792TIP3    H214341   4.747   4.682   4.166 -0.1725 -2.8131  0.3583
 4793TIP3   OH214342   3.190   3.311   4.699 -0.4288 -0.6223 -0.0187
 4793TIP3    H114343   3.150   3.283   4.616 -0.0982  0.3316 -0.5040
 4793TIP3    H214344   3.164   3.243   4.761 -2.4235 -0.2951 -0.4196
 4794TIP3   OH214345   3.009   5.763   4.823  0.1155 -0.1690 -0.7060
 4794TIP3    H114346   3.052   5.677   4.827 -0.4352 -0.4392 -0.5744
 4794TIP3    H214347   3.069   5.817   4.772  1.0244 -0.3027  0.1811
 4795TIP3   OH214348   6.489   1.492   3.699  0.3625  0.4156  0.3102
 4795TIP3    H114349   6.433   1.551   3.748 -3.1123  0.0314 -2.7744
 4795TIP3    H214350   6.474   1.406   3.738 -0.8428  0.4113 -0.1191
 4796TIP3   OH214351   6.306   0.544   5.809  0.0038  0.5879 -0.2308
 4796TIP3    H114352   6.401   0.559   5.810  0.5384 -2.0541 -1.1417
 4796TIP3    H214353   6.291   0.486   5.883 -0.8196  0.6063 -0.3762
 4797TIP3   OH214354   1.469   5.515   0.555  0.2050  0.0698 -0.1144
 4797TIP3    H114355   1.472   5.475   0.468  0.4200  1.0166 -0.5439
 4797TIP3    H214356   1.543   5.477   0.601  1.1027  0.8312 -0.9051
 4798TIP3   OH214357   0.617   2.869   2.224 -0.4110  0.0249 -0.1404
 4798TIP3    H114358   0.615   2.914   2.139 -1.4386 -1.4506 -0.9422
 4798TIP3    H214359   0.702   2.827   2.227  1.7072  3.8690  1.7376
 4799TIP3   OH214360   5.564   1.611   1.056 -1.1256 -0.2067 -0.1695
 4799TIP3    H114361   5.596   1.587   1.143 -0.3759 -0.3905 -0.4867
 4799TIP3    H214362   5.571   1.707   1.054 -0.8334 -0.2248 -0.1392
 4800TIP3   OH214363   4.843   1.177   0.887 -0.3307  0.2517  1.0620
 4800TIP3    H114364   4.775   1.111   0.879 -0.8661  0.8173  0.8963
 4800TIP3    H214365   4.835   1.230   0.808  1.0913 -0.3993  0.4537
 4801TIP3   OH214366   0.683   0.920   3.301 -0.1205  0.1899 -0.1618
 4801TIP3    H114367   0.600   0.876   3.281  0.0757 -0.1178 -0.3106
 4801TIP3    H214368   0.663   1.013   3.295 -0.9903  0.1865  1.8907
 4802TIP3   OH214369   6.335   0.141   2.678  0.5567  0.0885  0.3190
 4802TIP3    H114370   6.395   0.216   2.678 -0.2953  0.7876  0.4520
 4802TIP3    H214371   6.261   0.170   2.624 -0.5441 -0.0213  1.7297
 4803TIP3   OH214372   3.468   4.654   3.870 -0.0677 -0.5820 -0.3809
 4803TIP3    H114373   3.446   4.727   3.927  1.6641 -1.0166  0.9152
 4803TIP3    H214374   3.436   4.681   3.783  0.2828  1.5788  0.1048
 4804TIP3   OH214375   6.522   3.745   1.829 -0.5976  0.2751  0.3585
 4804TIP3    H114376   6.546   3.669   1.776 -0.7550 -0.4244  1.2674
 4804TIP3    H214377   6.493   3.811   1.765  1.0490  0.1611 -0.5705
 4805TIP3   OH214378   3.940   0.411   4.873 -0.3204  0.3764 -0.5243
 4805TIP3    H114379   3.900   0.413   4.786  0.0313  1.5419 -0.6712
 4805TIP3    H214380   3.871   0.445   4.931  0.0019  1.1335 -0.5843
 4806TIP3   OH214381   4.368   1.971   4.688 -0.1778  0.1273  0.2406
 4806TIP3    H114382   4.280   1.966   4.724 -0.5448 -0.6390 -0.7260
 4806TIP3    H214383   4.404   1.883   4.701  0.6258  0.5539  1.0380
 4807TIP3   OH214384   3.395   2.485   4.325 -0.1764 -0.0975  0.5136
 4807TIP3    H114385   3.447   2.464   4.247 -0.4396  0.5524  0.1584
 4807TIP3    H214386   3.372   2.400   4.362  1.1706 -0.4040  0.7001
 4808TIP3   OH214387   1.655   1.433   3.204  0.3432  0.5399  0.0912
 4808TIP3    H114388   1.716   1.496   3.243  0.6782  0.5550 -0.4444
 4808TIP3    H214389   1.643   1.367   3.272  0.6742  0.7237  0.3359
 4809TIP3   OH214390   5.959   0.096   0.390 -0.1851  0.2180 -0.7306
 4809TIP3    H114391   5.895   0.025   0.381 -0.7309  0.6069 -0.0467
 4809TIP3    H214392   6.005   0.098   0.306  1.3018 -2.3121 -0.1031
 4810TIP3   OH214393   3.161   0.301   0.222 -0.0448 -0.2044  0.0876
 4810TIP3    H114394   3.144   0.359   0.296 -0.6314  0.7258 -0.7453
 4810TIP3    H214395   3.157   0.358   0.145  4.0220 -0.3929 -0.4990
 4811TIP3   OH214396   6.220   3.494   5.168 -0.8013 -0.0946  0.1533
 4811TIP3    H114397   6.301   3.453   5.199 -0.8705 -0.3111  0.0523
 4811TIP3    H214398   6.154   3.426   5.180 -0.9758  0.0992  0.2768
 4812TIP3   OH214399   2.094   1.450   4.091 -0.4676  0.2190 -0.3428
 4812TIP3    H114400   2.140   1.366   4.089  0.7298  0.8518 -2.5491
 4812TIP3    H214401   2.040   1.446   4.170 -0.2292 -2.4967 -0.2268
 4813TIP3   OH214402   4.072   1.407   4.126  0.1992 -0.2686 -0.0479
 4813TIP3    H114403   4.104   1.467   4.193  2.7815 -1.2865 -0.2285
 4813TIP3    H214404   3.981   1.389   4.151  0.5115  0.7972  2.1038
 4814TIP3   OH214405   2.564   4.298   1.411  0.8918 -0.0913 -0.5944
 4814TIP3    H114406   2.594   4.232   1.349  0.3463  1.6196 -2.7732
 4814TIP3    H214407   2.576   4.381   1.366  1.2754  1.3285  1.9573
 4815TIP3   OH214408   4.270   5.292   2.653  0.2368 -0.0011 -0.0314
 4815TIP3    H114409   4.273   5.388   2.656 -2.1070  0.1179  1.0688
 4815TIP3    H214410   4.177   5.272   2.643  0.7346 -2.1926 -0.8504
 4816TIP3   OH214411   1.513   0.089   5.680 -0.2246 -0.0382 -0.3624
 4816TIP3    H114412   1.538   0.177   5.654 -0.4538 -0.4532 -2.1267
 4816TIP3    H214413   1.433   0.101   5.732  0.7668  0.8943  1.0254
 4817TIP3   OH214414   1.009   2.525   0.246  0.2698  0.0417 -0.0586
 4817TIP3    H114415   1.089   2.485   0.212 -0.9194 -0.7349 -2.1257
 4817TIP3    H214416   1.018   2.618   0.226  1.8603  0.4873  2.3324
 4818TIP3   OH214417   4.596   4.003   4.624 -0.0322  0.4122  0.4437
 4818TIP3    H114418   4.509   4.028   4.654 -0.3001 -1.2248  1.1917
 4818TIP3    H214419   4.620   3.929   4.681  1.3896  0.1447 -0.4515
 4819TIP3   OH214420   5.138   0.623   0.025  0.3384 -0.9242 -0.5145
 4819TIP3    H114421   5.148   0.542   0.074 -1.5159  0.3001  2.1296
 4819TIP3    H214422   5.050   0.654   0.048  0.6981  1.4454 -2.0265
 4820TIP3   OH214423   3.227   6.664   5.201  0.0375  0.3987  0.0699
 4820TIP3    H114424   3.302   6.662   5.261 -0.0153  0.2721  0.1323
 4820TIP3    H214425   3.264   6.692   5.117  0.2642 -0.2695 -0.0543
 4821TIP3   OH214426   0.621   0.944   2.324  0.3510  0.2019  0.0743
 4821TIP3    H114427   0.590   0.999   2.396 -0.3217  1.5738 -1.1928
 4821TIP3    H214428   0.693   0.893   2.362 -0.4542  0.3411  1.8829
 4822TIP3   OH214429   5.387   3.070   5.614 -0.4661  0.0053  0.3996
 4822TIP3    H114430   5.462   3.017   5.643  0.4145  0.3719 -1.0933
 4822TIP3    H214431   5.314   3.009   5.612  0.5541 -1.2512 -1.4253
 4823TIP3   OH214432   6.150   1.409   4.439  0.7990  0.8533 -0.4423
 4823TIP3    H114433   6.179   1.458   4.516  1.5592  0.1896 -0.2876
 4823TIP3    H214434   6.088   1.345   4.472  0.9572  0.7156 -0.4083
 4824TIP3   OH214435   6.904   4.727   4.826 -0.3990 -0.1735  0.1399
 4824TIP3    H114436   6.941   4.768   4.904 -2.4866  1.0497  0.5599
 4824TIP3    H214437   6.967   4.747   4.757  1.6674 -1.5626  1.4848
 4825TIP3   OH214438   1.604   2.993  -0.016  0.5463 -0.4339  0.4733
 4825TIP3    H114439   1.565   3.074   0.016 -0.6175 -1.6481  2.3767
 4825TIP3    H214440   1.572   2.926   0.045  2.6639 -2.0984 -0.1283
 4826TIP3   OH214441   4.406   1.742   2.943  0.2439 -0.1381 -0.2806
 4826TIP3    H114442   4.480   1.791   2.906 -0.0115 -0.2635 -0.9644
 4826TIP3    H214443   4.357   1.807   2.994  0.8636 -0.0710  0.2558
 4827TIP3   OH214444   6.761   3.936   3.282  0.5986  0.3836 -0.1984
 4827TIP3    H114445   6.713   4.015   3.309 -0.0820  0.2642 -1.0046
 4827TIP3    H214446   6.708   3.864   3.316 -0.6485  0.2111 -2.3338
 4828TIP3   OH214447   3.223   2.633   5.156  0.5576  0.5915 -1.0969
 4828TIP3    H114448   3.179   2.585   5.086 -0.8356 -1.2184  0.8813
 4828TIP3    H214449   3.291   2.573   5.187 -2.0755 -0.9549  2.3129
 4829TIP3   OH214450   0.612   1.839   1.677 -0.2728  0.4435  0.9030
 4829TIP3    H114451   0.659   1.917   1.707  0.9836  1.3258 -2.7746
 4829TIP3    H214452   0.653   1.767   1.725  1.1042  1.7232  1.7463
 4830TIP3   OH214453   5.456   1.534   0.830  0.0683 -0.7314 -0.4037
 4830TIP3    H114454   5.467   1.440   0.819 -2.0237 -1.2491  1.1561
 4830TIP3    H214455   5.500   1.554   0.912 -0.5239 -0.5981 -0.1140
 4831TIP3   OH214456   0.126   5.565   3.196 -0.2318 -0.1992  0.2943
 4831TIP3    H114457   0.074   5.528   3.267 -0.0128  0.8654  1.0270
 4831TIP3    H214458   0.065   5.620   3.147 -0.5250 -1.3695 -0.7206
 4832TIP3   OH214459   1.856   2.589   3.480 -0.2513 -0.6607 -0.8677
 4832TIP3    H114460   1.893   2.590   3.568  1.2468 -0.6716 -1.4685
 4832TIP3    H214461   1.862   2.498   3.452  2.0150 -0.2115 -2.0465
 4833TIP3   OH214462   5.750   0.930   2.359  0.1308  0.8487  0.3299
 4833TIP3    H114463   5.824   0.900   2.413 -0.7503 -1.4896  0.3330
 4833TIP3    H214464   5.783   1.010   2.317  2.0381  0.8510  1.6700
 4834TIP3   OH214465   4.058   5.200   4.246  0.1431  0.3010 -0.1800
 4834TIP3    H114466   4.056   5.211   4.151  1.1226  1.4474 -0.0815
 4834TIP3    H214467   4.076   5.106   4.259  1.8635  0.4659 -1.1445
 4835TIP3   OH214468   3.021   3.791   4.486  0.4676 -0.2123  0.1548
 4835TIP3    H114469   2.952   3.756   4.430  0.9631 -0.0600 -0.5710
 4835TIP3    H214470   2.989   3.779   4.575 -1.2855  1.4365 -0.1876
 4836TIP3   OH214471   3.360   4.770   5.632  0.0007  0.2215  0.0150
 4836TIP3    H114472   3.378   4.821   5.554 -0.9036 -1.0204 -1.0381
 4836TIP3    H214473   3.447   4.743   5.663  0.3323 -0.0029 -1.0687
 4837TIP3   OH214474   6.584   1.976   4.216  0.3895 -0.4035 -0.2791
 4837TIP3    H114475   6.570   2.019   4.300 -2.4714 -1.3329 -0.1788
 4837TIP3    H214476   6.563   2.042   4.151  1.4996 -0.0305 -0.2871
 4838TIP3   OH214477   4.244   5.383   5.004 -0.0540  0.4358 -0.4151
 4838TIP3    H114478   4.209   5.466   5.036  1.2016  0.0833  2.1718
 4838TIP3    H214479   4.196   5.316   5.052  0.5859 -0.2368 -0.6812
 4839TIP3   OH214480   0.475   5.346   4.088 -0.1125 -0.6661 -0.9634
 4839TIP3    H114481   0.471   5.256   4.055  0.0687 -0.2812 -2.0739
 4839TIP3    H214482   0.559   5.379   4.056 -0.3767  0.0406 -0.9348
 4840TIP3   OH214483   6.049   4.499   3.923 -0.0522 -0.1984  0.6288
 4840TIP3    H114484   5.990   4.484   3.849  0.2983 -1.3160  0.5600
 4840TIP3    H214485   5.994   4.540   3.989 -0.4888  0.3711 -0.0649
 4841TIP3   OH214486   3.037   1.519   2.036  0.1459 -0.4062 -0.5997
 4841TIP3    H114487   3.062   1.589   2.096  0.7594  0.0646 -1.3748
 4841TIP3    H214488   2.941   1.520   2.037  0.1392 -1.0515  1.0713
 4842TIP3   OH214489   0.522   5.954   2.073 -0.6123  0.2598  0.0646
 4842TIP3    H114490   0.459   5.970   2.144 -0.0530 -0.9583  0.8706
 4842TIP3    H214491   0.605   5.986   2.108 -0.7749  2.0541 -1.0725
 4843TIP3   OH214492   3.621   1.169   0.580  0.2792  0.1450  0.2570
 4843TIP3    H114493   3.698   1.219   0.606 -0.4755  1.5548 -0.1399
 4843TIP3    H214494   3.647   1.125   0.499  1.2594 -0.9155  1.1114
 4844TIP3   OH214495   3.676   3.955   3.650  0.4063 -0.3123  0.4683
 4844TIP3    H114496   3.582   3.939   3.654  0.0948  1.4808  1.8306
 4844TIP3    H214497   3.698   3.945   3.558 -1.6738  1.8009 -0.3902
 4845TIP3   OH214498   3.676   6.680   4.839 -0.5115 -0.2477 -0.0783
 4845TIP3    H114499   3.641   6.594   4.819  0.0103 -0.7315  1.0212
 4845TIP3    H214500   3.662   6.691   4.933  0.0327  0.5872 -0.0767
 4846TIP3   OH214501   5.647   0.750   5.399  0.2967  0.1090  0.2789
 4846TIP3    H114502   5.685   0.699   5.328  1.0561 -0.0471  0.7900
 4846TIP3    H214503   5.719   0.804   5.431  0.0200  0.0146  1.0718
 4847TIP3   OH214504   6.890   3.969   1.417 -0.2693 -0.0104 -0.2737
 4847TIP3    H114505   6.805   3.927   1.427 -0.3868  0.3290  0.1670
 4847TIP3    H214506   6.951   3.896   1.406 -0.6825 -0.2306 -1.1095
 4848TIP3   OH214507   6.089   4.137   4.468 -0.2002  0.3227  0.6776
 4848TIP3    H114508   6.051   4.117   4.382  0.3298  1.9085  0.0450
 4848TIP3    H214509   6.116   4.052   4.502 -0.1642 -0.3192 -0.8566
 4849TIP3   OH214510   6.817   2.523   4.684 -0.2223  0.4397  0.2788
 4849TIP3    H114511   6.891   2.494   4.632  0.1500 -0.0333  1.0457
 4849TIP3    H214512   6.742   2.477   4.647 -0.0700  0.6054 -0.2437
 4850TIP3   OH214513   1.258   1.163   5.512  0.3558  0.0585 -0.3492
 4850TIP3    H114514   1.268   1.248   5.553 -1.8012 -0.1707  0.7855
 4850TIP3    H214515   1.209   1.111   5.575 -1.5634 -0.8792 -2.4618
 4851TIP3   OH214516   2.750   1.949   5.734 -0.2200  0.1909 -0.0119
 4851TIP3    H114517   2.660   1.983   5.729 -1.3615 -2.3452  1.2841
 4851TIP3    H214518   2.787   1.992   5.810 -1.4280 -0.9015  1.2516
 4852TIP3   OH214519   6.734   4.807   5.207  0.7121 -0.4848 -0.0644
 4852TIP3    H114520   6.757   4.749   5.134 -2.1701 -0.3932 -1.1452
 4852TIP3    H214521   6.721   4.748   5.281  1.2401 -0.8199 -0.2282
 4853TIP3   OH214522   5.170   1.014   1.944 -0.1483 -0.1694 -0.1270
 4853TIP3    H114523   5.218   0.934   1.966 -2.0246 -0.8541  1.8116
 4853TIP3    H214524   5.121   0.992   1.865  1.5780  0.0976 -1.3283
 4854TIP3   OH214525   7.155   6.640   2.155  0.3150  0.9710 -0.4048
 4854TIP3    H114526   7.225   6.678   2.207  0.5151 -0.0206  0.0769
 4854TIP3    H214527   7.200   6.591   2.086  0.0524  2.2558 -1.5347
 4855TIP3   OH214528   5.044   1.466   2.929  0.3291 -0.3624  0.0605
 4855TIP3    H114529   4.958   1.479   2.969  0.8293 -0.4874  1.2140
 4855TIP3    H214530   5.036   1.386   2.877 -0.3656 -0.1255 -0.2034
 4856TIP3   OH214531   5.026   6.336   3.087  0.1788 -0.1952 -0.6971
 4856TIP3    H114532   5.089   6.386   3.035 -0.5630  1.3035 -0.2171
 4856TIP3    H214533   4.958   6.309   3.025  1.9983 -3.2787 -1.5787
 4857TIP3   OH214534   4.091   5.857   3.161 -1.2076  0.3115  0.1097
 4857TIP3    H114535   4.129   5.845   3.074  1.2785  1.2739  0.9693
 4857TIP3    H214536   4.123   5.781   3.211 -0.3212  1.1458  0.8551
 4858TIP3   OH214537   4.790   5.372   3.062  0.2910 -0.1658  0.6409
 4858TIP3    H114538   4.856   5.382   2.994 -1.7460 -0.7773 -1.5502
 4858TIP3    H214539   4.771   5.462   3.090  1.0518  0.1058  0.2919
 4859TIP3   OH214540   6.092   3.798   3.701 -0.0623 -0.6376  0.2589
 4859TIP3    H114541   6.093   3.757   3.787 -0.6177 -0.5961  0.2916
 4859TIP3    H214542   6.085   3.725   3.639 -0.5260 -0.6309  0.2945
 4860TIP3   OH214543   2.949   0.410   3.131 -0.2955  0.2079  0.2426
 4860TIP3    H114544   2.957   0.486   3.073  0.8595 -0.1213 -0.0629
 4860TIP3    H214545   2.859   0.380   3.119  0.0247 -0.1340 -1.7781
 4861TIP3   OH214546   1.798   6.092   5.092 -0.1843  0.1536 -0.3668
 4861TIP3    H114547   1.811   6.065   5.183 -1.4452  1.4511  0.2429
 4861TIP3    H214548   1.740   6.025   5.055  0.8458 -0.7306 -0.4402
 4862TIP3   OH214549   6.721   3.735   4.326 -0.0915 -0.2297 -0.3436
 4862TIP3    H114550   6.670   3.768   4.399 -0.4845  2.1044 -1.5649
 4862TIP3    H214551   6.746   3.646   4.351 -1.9610 -0.2477  1.6895
 4863TIP3   OH214552   2.820   1.918   0.060 -0.6754  0.3732 -0.2349
 4863TIP3    H114553   2.828   1.822   0.062  2.1658  0.4880 -1.7879
 4863TIP3    H214554   2.849   1.946   0.147 -0.3007 -0.1081 -0.1996
 4864TIP3   OH214555   3.141   3.112   0.815 -0.2003  0.1682 -0.3068
 4864TIP3    H114556   3.236   3.100   0.809 -0.3239 -0.4396 -1.1675
 4864TIP3    H214557   3.110   3.034   0.861 -0.3342  0.1664 -0.4025
 4865TIP3   OH214558   2.462   1.193   3.419 -0.1859  0.6868 -0.6444
 4865TIP3    H114559   2.435   1.262   3.479  0.5491  0.8272 -0.4626
 4865TIP3    H214560   2.382   1.169   3.371 -0.7960  0.5310  0.4178
 4866TIP3   OH214561   2.845   3.439   5.756 -0.2062  0.7221 -0.3335
 4866TIP3    H114562   2.761   3.473   5.723  0.1783  0.2520 -1.8811
 4866TIP3    H214563   2.911   3.487   5.706  0.4145  0.1542 -0.0605
 4867TIP3   OH214564   3.670   2.646   4.981  0.5500 -0.9046 -0.1775
 4867TIP3    H114565   3.756   2.643   5.023  2.0911  0.3042 -2.9555
 4867TIP3    H214566   3.634   2.730   5.009  0.8679 -0.7975 -0.0799
 4868TIP3   OH214567   0.090   4.201   1.256 -0.5142  0.2735 -0.0273
 4868TIP3    H114568   0.127   4.278   1.298  1.1519 -0.2109 -0.5374
 4868TIP3    H214569   0.031   4.164   1.321  1.0300  0.2503  1.4191
 4869TIP3   OH214570   4.441   0.581   1.689  0.3344  0.0296  0.6969
 4869TIP3    H114571   4.419   0.500   1.734  0.5926  0.5666  1.8292
 4869TIP3    H214572   4.445   0.647   1.759 -0.6799  1.1922 -0.2927
 4870TIP3   OH214573   6.215   4.831   5.082  0.1481  0.5367  0.4103
 4870TIP3    H114574   6.151   4.897   5.054  0.9779  0.5263 -1.6974
 4870TIP3    H214575   6.292   4.881   5.107 -0.1578  0.4730  1.5369
 4871TIP3   OH214576   0.843   4.353   3.675 -0.7682 -0.3512  0.1013
 4871TIP3    H114577   0.850   4.439   3.715  0.8237  0.2303 -1.3123
 4871TIP3    H214578   0.753   4.325   3.694 -1.0142  1.1751  1.4018
 4872TIP3   OH214579   3.229   2.050   5.012  0.4661 -0.3560 -0.2220
 4872TIP3    H114580   3.233   1.991   4.937  0.2204 -0.2179 -0.3489
 4872TIP3    H214581   3.310   2.035   5.060  1.4257  0.7167 -1.4094
 4873TIP3   OH214582   2.965   3.067   2.060 -0.2019 -0.0100  0.0124
 4873TIP3    H114583   3.020   2.990   2.075  0.8525  0.4135 -1.4907
 4873TIP3    H214584   2.876   3.032   2.055 -0.2452 -0.6428  3.0575
 4874TIP3   OH214585   1.204   0.142   1.022 -0.6502 -0.5086  0.1124
 4874TIP3    H114586   1.155   0.109   0.946 -0.0360 -1.3139  0.0558
 4874TIP3    H214587   1.159   0.224   1.045  0.5355  1.0380 -2.5560
 4875TIP3   OH214588   6.637   3.110   5.084 -0.2524  0.1607 -0.5632
 4875TIP3    H114589   6.549   3.082   5.108 -0.2908 -0.0264 -0.9146
 4875TIP3    H214590   6.681   3.029   5.057  0.5129 -0.0163  1.0568
 4876TIP3   OH214591   0.781   3.375   4.165 -0.2078 -0.2902  0.3063
 4876TIP3    H114592   0.696   3.337   4.144 -0.9875  1.6668 -0.2994
 4876TIP3    H214593   0.804   3.426   4.087  0.9174  0.2152  0.9442
 4877TIP3   OH214594   6.380   2.830   0.775  0.2985  0.2550  0.2990
 4877TIP3    H114595   6.460   2.871   0.810 -0.2791  0.6213  1.2406
 4877TIP3    H214596   6.406   2.740   0.755  0.9443  0.3617  0.6213
 4878TIP3   OH214597   3.191   6.096   4.902 -0.2172 -0.1213  0.2051
 4878TIP3    H114598   3.178   6.022   4.843 -1.3378  0.4790 -0.3270
 4878TIP3    H214599   3.104   6.135   4.912  0.2139  0.6773  1.0830
 4879TIP3   OH214600   3.712   0.922   2.885  0.5362  0.2081 -0.1695
 4879TIP3    H114601   3.806   0.934   2.869  0.3692 -0.8405 -2.1832
 4879TIP3    H214602   3.695   0.832   2.859 -0.6870 -0.3108  2.1267
 4880TIP3   OH214603   2.264   6.776   3.957  0.1722 -0.2694  0.3120
 4880TIP3    H114604   2.229   6.689   3.936 -0.3666 -0.4931  1.9618
 4880TIP3    H214605   2.242   6.789   4.050  3.0915  0.2484  1.0303
 4881TIP3   OH214606   0.186   4.493   1.741  0.2931  0.0587  0.2806
 4881TIP3    H114607   0.255   4.547   1.703  1.2851 -1.3195  0.0125
 4881TIP3    H214608   0.233   4.417   1.777 -1.0290 -0.6120  0.6467
 4882TIP3   OH214609   3.117   3.093   4.518 -0.3707 -0.4686  0.3207
 4882TIP3    H114610   3.110   3.002   4.487 -0.9739 -0.0549 -0.7896
 4882TIP3    H214611   3.084   3.089   4.608 -1.3351 -1.1911 -0.0369
 4883TIP3   OH214612   7.095   2.756   2.946 -0.1818  0.2015 -0.2064
 4883TIP3    H114613   7.162   2.810   2.989 -0.0842  0.9750 -1.3127
 4883TIP3    H214614   7.016   2.772   2.997  0.2570 -0.0459  0.5808
 4884TIP3   OH214615   5.563   4.383   5.026 -0.3934 -0.2683  0.0571
 4884TIP3    H114616   5.560   4.415   4.936  0.9063  0.2023  0.1584
 4884TIP3    H214617   5.480   4.337   5.039 -0.6994 -0.1116 -1.2921
 4885TIP3   OH214618   6.881   4.509   0.814  0.0363 -0.1740  0.6864
 4885TIP3    H114619   6.910   4.597   0.791  0.5714 -0.7688 -1.1035
 4885TIP3    H214620   6.812   4.489   0.750 -0.1144 -1.0345  1.1079
 4886TIP3   OH214621   5.192   3.808   1.913 -0.1197  0.0171 -0.7037
 4886TIP3    H114622   5.134   3.753   1.862  0.8717  1.2644 -3.3660
 4886TIP3    H214623   5.271   3.817   1.859  1.4180  0.6977  1.4821
 4887TIP3   OH214624   3.049   6.729   0.472  0.0762 -0.2758 -0.3679
 4887TIP3    H114625   3.012   6.648   0.508  2.3471 -1.4634 -0.5078
 4887TIP3    H214626   3.005   6.739   0.388  0.5109 -2.0118 -0.8479
 4888TIP3   OH214627   3.989   6.504   4.336  0.2874 -0.0723 -0.5489
 4888TIP3    H114628   3.940   6.507   4.418  2.5423 -1.7783  1.0094
 4888TIP3    H214629   4.044   6.582   4.339 -1.1627  1.0444 -1.5792
 4889TIP3   OH214630   5.626   6.288   4.078 -0.5013 -0.4161  0.2851
 4889TIP3    H114631   5.572   6.362   4.051  0.4010  1.3378  2.8924
 4889TIP3    H214632   5.564   6.215   4.085 -1.4348  0.0271 -2.2203
 4890TIP3   OH214633   1.459   4.161   5.560 -0.0315 -0.2704 -0.2651
 4890TIP3    H114634   1.430   4.110   5.635  2.6314 -3.2594 -1.0475
 4890TIP3    H214635   1.453   4.101   5.486  1.3186  1.2087 -1.6708
 4891TIP3   OH214636   5.994   2.151   0.922 -0.9692 -0.3713  0.1804
 4891TIP3    H114637   6.053   2.106   0.982 -1.0325  2.0993  2.3280
 4891TIP3    H214638   5.917   2.172   0.976 -1.2079  1.6030 -0.8181
 4892TIP3   OH214639   2.963   6.635   4.727 -0.3353 -0.1252  0.2400
 4892TIP3    H114640   3.000   6.724   4.729  0.2104 -0.3476  0.1127
 4892TIP3    H214641   2.875   6.646   4.763  0.4907  0.1109  2.3477
 4893TIP3   OH214642   0.092   2.941   2.442  0.3863 -0.3056 -0.3678
 4893TIP3    H114643   0.161   2.970   2.384  0.3707 -0.7306 -0.6048
 4893TIP3    H214644   0.099   2.845   2.443 -0.8421 -0.4273 -1.2172
 4894TIP3   OH214645   3.252   2.465   3.668  0.1727 -0.5442  0.3339
 4894TIP3    H114646   3.303   2.391   3.637  0.9983  0.1867 -0.0980
 4894TIP3    H214647   3.294   2.491   3.750 -0.8226 -1.2568  1.1015
 4895TIP3   OH214648   0.203   1.499   5.236 -0.1478  0.2951  0.2342
 4895TIP3    H114649   0.150   1.579   5.233  0.6045  0.8185  0.7652
 4895TIP3    H214650   0.293   1.529   5.225  0.0592 -0.5921 -0.6755
 4896TIP3   OH214651   2.653   3.856   1.331 -0.3888  0.2675 -0.5956
 4896TIP3    H114652   2.744   3.861   1.361 -0.4999  0.3931 -0.2716
 4896TIP3    H214653   2.655   3.888   1.241 -0.0038 -0.3804 -0.8217
 4897TIP3   OH214654   2.713   3.895   1.696  0.2191  0.1090 -0.0814
 4897TIP3    H114655   2.780   3.854   1.750 -0.2435 -1.1496 -0.4339
 4897TIP3    H214656   2.754   3.975   1.663  0.9594  0.2154  1.0351
 4898TIP3   OH214657   4.347   1.015   1.028  0.6855  0.0267 -0.2797
 4898TIP3    H114658   4.310   1.081   0.969 -0.4794  1.2814  1.7487
 4898TIP3    H214659   4.294   0.937   1.013  0.1979  0.4204 -0.6576
 4899TIP3   OH214660   4.512   5.698   0.606 -0.1567 -0.8305  0.0921
 4899TIP3    H114661   4.476   5.723   0.692 -0.2697  1.5565 -0.5701
 4899TIP3    H214662   4.480   5.766   0.547  0.5636 -2.0034 -1.7172
 4900TIP3   OH214663   5.222   1.471   4.450  0.1886  0.3689  0.0505
 4900TIP3    H114664   5.236   1.381   4.479  1.6441  0.5359 -0.0893
 4900TIP3    H214665   5.242   1.471   4.357 -1.4679  0.5086 -0.3515
 4901TIP3   OH214666   0.508   5.815   0.232 -0.3934  0.2332 -0.0852
 4901TIP3    H114667   0.453   5.893   0.237 -2.7049 -1.2849 -0.3263
 4901TIP3    H214668   0.536   5.811   0.141 -0.8927  0.3803 -0.2479
 4902TIP3   OH214669   0.074   5.968   1.997 -0.8919 -0.7912  0.4402
 4902TIP3    H114670   0.021   5.946   2.073 -0.0243 -1.2953  0.9131
 4902TIP3    H214671   0.160   5.929   2.015 -0.5328 -0.5063 -0.5750
 4903TIP3   OH214672   1.867   3.962   1.934  0.3183  0.7247 -0.2872
 4903TIP3    H114673   1.858   3.867   1.928 -0.3169  0.8212 -1.0400
 4903TIP3    H214674   1.792   3.997   1.885 -1.1998  1.6289  2.3862
 4904TIP3   OH214675   1.012   1.524   5.570 -0.3617 -0.7811 -0.3782
 4904TIP3    H114676   1.009   1.616   5.597 -1.2513 -0.2342 -2.2172
 4904TIP3    H214677   1.100   1.495   5.594  0.7238  1.1932 -1.7104
 4905TIP3   OH214678   4.251   2.858   0.629  0.3588 -0.2478 -0.1373
 4905TIP3    H114679   4.244   2.775   0.582 -0.3259 -0.7582  0.8353
 4905TIP3    H214680   4.161   2.881   0.650  0.6063  0.3588  0.2729
 4906TIP3   OH214681   1.215   3.690   1.121  0.3337  0.6155 -0.1425
 4906TIP3    H114682   1.240   3.703   1.029 -0.5934  1.5505 -0.2866
 4906TIP3    H214683   1.236   3.599   1.138  3.2006  1.1326 -0.3978
 4907TIP3   OH214684   0.774   0.043   0.073 -0.1286 -0.0120 -0.8815
 4907TIP3    H114685   0.786   0.076   0.162 -0.9407 -0.8220 -0.4569
 4907TIP3    H214686   0.710   0.102   0.034  1.1032  1.0566 -1.3413
 4908TIP3   OH214687   4.451   5.200   2.449 -0.0432 -0.8977  0.4681
 4908TIP3    H114688   4.395   5.241   2.515 -2.5397 -1.2083 -1.3569
 4908TIP3    H214689   4.444   5.258   2.373  2.8597 -0.4922  0.3914
 4909TIP3   OH214690   3.858   3.757   1.276  0.1362  0.2076  0.5537
 4909TIP3    H114691   3.793   3.825   1.256  0.9637  0.8566  0.0240
 4909TIP3    H214692   3.835   3.684   1.218 -1.4184 -0.4284  1.8792
 4910TIP3   OH214693   4.217   1.666   2.058  0.6451  0.0656  0.1373
 4910TIP3    H114694   4.266   1.628   1.984 -1.9992  1.3278 -2.4584
 4910TIP3    H214695   4.211   1.759   2.037 -1.2425  0.2532  1.3284
 4911TIP3   OH214696   0.380   6.353   1.791  0.0390 -0.0851  0.0252
 4911TIP3    H114697   0.287   6.358   1.774  0.0691 -0.7325 -0.3548
 4911TIP3    H214698   0.388   6.289   1.862  0.4154 -2.6675 -2.1817
 4912TIP3   OH214699   1.382   1.627   0.092  0.3532  0.1350 -0.2582
 4912TIP3    H114700   1.323   1.699   0.113  1.6955  1.6804 -1.4777
 4912TIP3    H214701   1.437   1.661   0.022  0.6638 -2.3184 -1.2973
 4913TIP3   OH214702   6.627   0.119   1.005 -0.5371  0.1127  0.1767
 4913TIP3    H114703   6.605   0.065   1.082  0.6325  0.0960  0.5190
 4913TIP3    H214704   6.656   0.202   1.042  0.3230  0.0006 -0.2272
 4914TIP3   OH214705   2.936   1.528   0.513 -0.3208  0.9645 -0.4554
 4914TIP3    H114706   2.905   1.565   0.430  1.1034  0.8019 -1.0900
 4914TIP3    H214707   3.028   1.552   0.517  0.6622 -2.3173 -0.8229
 4915TIP3   OH214708   6.533   5.387   1.356  0.2054 -0.0813 -0.0767
 4915TIP3    H114709   6.594   5.357   1.288  0.2562 -1.3534  0.5241
 4915TIP3    H214710   6.561   5.343   1.435  0.8188  2.2051  1.0645
 4916TIP3   OH214711   6.644   3.392   2.409  0.9947 -0.1113  1.0682
 4916TIP3    H114712   6.578   3.324   2.418 -0.2448  1.1181  1.5097
 4916TIP3    H214713   6.671   3.411   2.499  1.7837 -0.4038  0.9104
 4917TIP3   OH214714   7.110   0.512   1.313  0.6411 -0.0802  0.1726
 4917TIP3    H114715   7.129   0.573   1.241  0.5197  0.0182  0.2223
 4917TIP3    H214716   7.083   0.431   1.270  3.2469 -0.9583  0.0451
 4918TIP3   OH214717   5.511   5.346   4.049 -0.0570 -0.2149  0.0338
 4918TIP3    H114718   5.448   5.300   3.993 -1.4830 -0.4279  1.7061
 4918TIP3    H214719   5.481   5.437   4.048  0.2685 -0.1071 -0.0087
 4919TIP3   OH214720   0.166   3.149   1.069  0.0308 -0.2840 -0.1565
 4919TIP3    H114721   0.181   3.086   0.998  0.1178  0.0671 -0.4553
 4919TIP3    H214722   0.081   3.125   1.105 -0.7618  0.4762 -1.4114
 4920TIP3   OH214723   4.044   1.164   3.978 -0.1086 -0.3176  0.0993
 4920TIP3    H114724   4.058   1.255   4.005 -1.5537 -0.1853  0.4906
 4920TIP3    H214725   4.079   1.160   3.889 -0.1848  0.6764  0.0162
 4921TIP3   OH214726   6.845   3.484   4.365 -0.0181  0.0616 -0.1533
 4921TIP3    H114727   6.904   3.481   4.440 -0.6363  2.5900  0.5396
 4921TIP3    H214728   6.810   3.395   4.359  1.7147 -0.7763  1.1494
 4922TIP3   OH214729   5.276   1.213   1.540  0.0483  0.0858  0.4648
 4922TIP3    H114730   5.287   1.118   1.550  0.1842  0.0642  0.1489
 4922TIP3    H214731   5.364   1.245   1.519 -0.3967 -0.0564 -1.9016
 4923TIP3   OH214732   6.982   1.114   1.655  0.3479  0.2607  0.4416
 4923TIP3    H114733   6.976   1.148   1.566 -2.2283  0.3289  0.5518
 4923TIP3    H214734   6.973   1.192   1.710 -0.3033  0.0030  0.7162
 4924TIP3   OH214735   2.927   6.486   4.419  0.4574 -0.0421 -0.0586
 4924TIP3    H114736   2.844   6.439   4.429  0.7191 -0.7672 -1.1034
 4924TIP3    H214737   2.992   6.417   4.410  1.1065  0.5243  0.2234
 4925TIP3   OH214738   6.581   3.313   3.975  0.1823 -0.2754  0.0987
 4925TIP3    H114739   6.581   3.236   4.032 -1.7655  1.3382  2.5057
 4925TIP3    H214740   6.666   3.355   3.991  0.4439 -0.8638  0.2814
 4926TIP3   OH214741   1.770   3.348   2.450  0.1893 -0.3814  0.1116
 4926TIP3    H114742   1.836   3.338   2.380  1.2549  1.7779  0.7284
 4926TIP3    H214743   1.815   3.398   2.518 -2.5224  2.6691 -0.1040
 4927TIP3   OH214744   5.740   6.568   5.371  0.0096  0.0524 -0.0879
 4927TIP3    H114745   5.767   6.526   5.289  2.3912  0.3697  0.4564
 4927TIP3    H214746   5.780   6.654   5.368 -1.3442  0.7331  0.6776
 4928TIP3   OH214747   2.948   3.853   3.158 -0.1855 -0.4510 -0.7771
 4928TIP3    H114748   2.994   3.784   3.110  0.8679  0.6896 -1.4673
 4928TIP3    H214749   3.017   3.907   3.195 -0.8953  1.7127 -2.4211
 4929TIP3   OH214750   3.034   2.662   4.019  0.3511  0.1184 -0.1060
 4929TIP3    H114751   3.056   2.570   4.036  0.5636  0.2624  0.4241
 4929TIP3    H214752   2.977   2.687   4.092 -2.4408 -0.5127 -1.9454
 4930TIP3   OH214753   5.809   0.740   0.081 -0.2722 -0.1422  0.0119
 4930TIP3    H114754   5.838   0.766   0.169  2.2711 -0.1547 -0.7643
 4930TIP3    H214755   5.743   0.671   0.097  1.8894 -1.9257  1.9451
 4931TIP3   OH214756   0.310   4.056   4.174 -0.1709 -0.1227 -0.2808
 4931TIP3    H114757   0.267   4.091   4.251 -1.0357 -1.2088 -0.2455
 4931TIP3    H214758   0.246   4.068   4.103  0.0647 -0.3872 -0.5423
 4932TIP3   OH214759   1.362   4.751   5.461  0.4667 -0.0445  0.2918
 4932TIP3    H114760   1.324   4.668   5.490 -0.8908  0.1718 -0.8105
 4932TIP3    H214761   1.449   4.752   5.502 -0.2960 -1.0108  2.0658
 4933TIP3   OH214762   6.985   2.967   4.491 -0.3066  0.3974 -0.0666
 4933TIP3    H114763   7.051   3.018   4.444 -0.7156  1.2840  0.2909
 4933TIP3    H214764   6.979   2.884   4.443  1.6291 -0.0312  0.3580
 4934TIP3   OH214765   1.766   3.600   0.185 -0.6477 -0.1224 -0.2022
 4934TIP3    H114766   1.796   3.618   0.096 -0.7246 -1.9377 -0.6224
 4934TIP3    H214767   1.802   3.515   0.207 -0.5142  0.3399  1.5861
 4935TIP3   OH214768   6.765   5.807   4.169  0.3337  0.1326  0.3777
 4935TIP3    H114769   6.736   5.716   4.169  0.5510  0.0525 -0.2634
 4935TIP3    H214770   6.720   5.846   4.093 -1.4453  1.1285  1.8708
 4936TIP3   OH214771   4.481   4.809   4.575 -0.4977 -0.3018  0.2749
 4936TIP3    H114772   4.387   4.819   4.558 -0.7141 -1.4469  0.6867
 4936TIP3    H214773   4.485   4.745   4.646  0.5534  0.7010  1.1436
 4937TIP3   OH214774   2.892   2.918   3.970  0.0435 -0.1794 -0.3126
 4937TIP3    H114775   2.918   2.831   3.940  1.9200  0.3828 -0.4107
 4937TIP3    H214776   2.871   2.966   3.890 -1.5019 -0.6516 -0.2297
 4938TIP3   OH214777   7.101   0.199   5.574 -0.4623  0.4687  0.9428
 4938TIP3    H114778   7.145   0.246   5.644 -0.4468  0.0809  1.1969
 4938TIP3    H214779   7.171   0.173   5.514 -0.3686  0.0743  1.2158
 4939TIP3   OH214780   5.719   6.381   3.588 -0.0108  0.0434  0.5534
 4939TIP3    H114781   5.699   6.318   3.657 -1.9586  0.1219  0.1272
 4939TIP3    H214782   5.674   6.461   3.615 -1.1043 -0.0264 -0.9372
 4940TIP3   OH214783   6.680   6.753   5.041 -0.2976  0.0269 -0.2699
 4940TIP3    H114784   6.732   6.818   5.087 -2.0271  0.9068  0.5637
 4940TIP3    H214785   6.721   6.669   5.062  1.3340  0.7440 -0.4830
 4941TIP3   OH214786   6.782   0.974   0.275  0.1734  0.7330  0.4440
 4941TIP3    H114787   6.802   0.913   0.204 -0.0840  0.2901  0.7445
 4941TIP3    H214788   6.865   0.984   0.322 -0.0811 -0.5087  1.2365
 4942TIP3   OH214789   6.717   1.808   3.605  0.4206 -0.3433  0.3518
 4942TIP3    H114790   6.662   1.809   3.527  1.0528  1.1865 -0.1151
 4942TIP3    H214791   6.666   1.856   3.671  0.9437  0.6486  0.0640
 4943TIP3   OH214792   3.698   2.598   2.761  0.3191 -0.2746  0.4822
 4943TIP3    H114793   3.748   2.603   2.679 -0.2268 -1.5947  0.0411
 4943TIP3    H214794   3.687   2.689   2.788 -1.2407  0.3595 -1.9835
 4944TIP3   OH214795   3.911   2.335   4.681 -0.1980 -0.3015 -0.2682
 4944TIP3    H114796   3.832   2.388   4.676 -0.2710 -0.3959 -0.1393
 4944TIP3    H214797   3.887   2.251   4.640 -0.2210 -0.3934 -0.0705
 4945TIP3   OH214798   4.454   1.777   4.420  0.0838 -0.0910  0.3141
 4945TIP3    H114799   4.480   1.709   4.482 -1.1079 -1.8061 -0.9664
 4945TIP3    H214800   4.497   1.753   4.338  2.2507  2.5542  0.5313
 4946TIP3   OH214801   5.998   4.379   2.373  0.5361 -0.1155  0.8673
 4946TIP3    H114802   5.976   4.305   2.316  0.0345  0.8828 -0.2933
 4946TIP3    H214803   5.917   4.397   2.421  0.5807 -0.1577  0.9584
 4947TIP3   OH214804   3.158   6.427   2.819 -0.2865  0.3236  0.4477
 4947TIP3    H114805   3.168   6.479   2.898  2.1128  0.5596  0.0651
 4947TIP3    H214806   3.146   6.490   2.749  2.0036  0.4532  0.0736
 4948TIP3   OH214807   0.140   0.003   5.354 -0.5811 -0.3044 -0.0515
 4948TIP3    H114808   0.112   0.071   5.293 -0.1897  1.6459  1.8152
 4948TIP3    H214809   0.229  -0.020   5.326 -0.7090 -0.0444 -0.6873
 4949TIP3   OH214810   0.992   5.056   1.345 -0.1501 -0.6177  0.2489
 4949TIP3    H114811   1.048   4.981   1.326  1.4554  0.7550 -0.6425
 4949TIP3    H214812   1.053   5.126   1.368 -1.4956  0.9326 -0.7388
 4950TIP3   OH214813   0.893   1.508   3.619  0.4830  0.4168 -0.1426
 4950TIP3    H114814   0.888   1.552   3.704  1.3697 -0.3257  0.3215
 4950TIP3    H214815   0.814   1.455   3.614  0.9103 -0.3345  0.7060
 4951TIP3   OH214816   1.172   6.621   0.654 -0.4221 -0.4603  0.5719
 4951TIP3    H114817   1.115   6.546   0.673  0.7898 -1.1829  1.4326
 4951TIP3    H214818   1.245   6.612   0.714  1.2430 -0.2377 -1.3202
 4952TIP3   OH214819   1.709   0.766   0.524  0.4299 -0.1461 -0.4322
 4952TIP3    H114820   1.631   0.731   0.568 -0.2005  0.5020 -1.0221
 4952TIP3    H214821   1.772   0.781   0.595  0.5556 -1.9911 -0.0928
 4953TIP3   OH214822   0.099   6.243   3.450  0.0290 -0.2471 -0.1242
 4953TIP3    H114823   0.139   6.167   3.493  1.0547  0.6381  0.5337
 4953TIP3    H214824   0.160   6.266   3.381  2.0915  2.6099  2.3974
 4954TIP3   OH214825   1.529   6.091   4.697 -0.0934 -0.4301  0.0328
 4954TIP3    H114826   1.619   6.112   4.723 -0.5474 -0.2974  1.5471
 4954TIP3    H214827   1.535   6.002   4.661  0.9803  0.3354 -1.8492
 4955TIP3   OH214828   4.364   6.076   5.637  0.2135  0.6629 -0.4818
 4955TIP3    H114829   4.393   6.160   5.670  1.5281 -0.4653  1.4144
 4955TIP3    H214830   4.442   6.037   5.598  0.0430 -0.3126  0.1083
 4956TIP3   OH214831   2.433   5.736   1.772  0.5104  0.3985  0.4925
 4956TIP3    H114832   2.348   5.706   1.739  0.3664  1.9876 -0.7225
 4956TIP3    H214833   2.436   5.706   1.863 -1.1221 -0.1473  0.3980
 4957TIP3   OH214834   5.799   5.731   5.889  0.1747 -0.6685 -0.4741
 4957TIP3    H114835   5.713   5.764   5.865  0.4036 -0.6769 -1.3672
 4957TIP3    H214836   5.834   5.695   5.807  0.9656 -0.7883 -0.0930
 4958TIP3   OH214837   4.343   3.835   4.761  0.5977  0.0078  0.3639
 4958TIP3    H114838   4.366   3.906   4.822  0.6701  0.6354 -0.3720
 4958TIP3    H214839   4.285   3.877   4.697 -0.4210 -0.9120  0.6528
 4959TIP3   OH214840   0.663   1.465   0.911  0.5309  0.3907  0.6106
 4959TIP3    H114841   0.601   1.529   0.875  0.9737  0.6387  0.2901
 4959TIP3    H214842   0.723   1.518   0.965  1.9887  0.5240 -1.0593
 4960TIP3   OH214843   1.013   2.958   0.898 -0.4418 -0.0610  0.0779
 4960TIP3    H114844   0.929   3.003   0.886 -0.1919  0.0314 -1.4966
 4960TIP3    H214845   0.990   2.875   0.941 -1.1363  0.6302  1.1030
 4961TIP3   OH214846   0.615   5.205   5.112  0.4611  0.1431  0.0737
 4961TIP3    H114847   0.609   5.297   5.138  0.8462  0.1320  0.2181
 4961TIP3    H214848   0.525   5.177   5.099  0.3658  0.7329 -0.6404
 4962TIP3   OH214849   4.005   0.460   2.842  0.4448  1.0180 -0.1879
 4962TIP3    H114850   4.008   0.534   2.781 -1.1657  0.0760 -1.4944
 4962TIP3    H214851   3.913   0.455   2.869  0.1501 -1.3637 -1.3290
 4963TIP3   OH214852   4.686   5.067   2.063 -0.0215  0.2651 -0.7523
 4963TIP3    H114853   4.733   5.051   2.145  1.9209  2.3681 -1.3740
 4963TIP3    H214854   4.730   5.013   1.998 -0.9154 -0.6140 -0.6634
 4964TIP3   OH214855   6.380   6.817   0.253  0.3503  0.0696  0.3465
 4964TIP3    H114856   6.337   6.815   0.339 -1.5659  2.0293 -0.4748
 4964TIP3    H214857   6.401   6.725   0.236 -2.5755 -0.9216  1.3413
 4965TIP3   OH214858   0.146   0.206   3.984 -0.7327 -0.5530  0.1900
 4965TIP3    H114859   0.129   0.264   3.910 -0.3251 -1.2038 -0.4195
 4965TIP3    H214860   0.100   0.248   4.058  1.0642  1.5382  0.2137
 4966TIP3   OH214861   2.621   3.813   3.543  0.1899  0.1912  0.1647
 4966TIP3    H114862   2.647   3.790   3.453 -0.5130  0.9211 -0.2415
 4966TIP3    H214863   2.655   3.901   3.556 -0.8422  0.6230  0.1077
 4967TIP3   OH214864   0.937   2.559   4.427  0.1055 -0.3572  0.4207
 4967TIP3    H114865   1.020   2.542   4.471 -0.5202 -0.0634  1.7660
 4967TIP3    H214866   0.959   2.560   4.334  1.4102 -1.3510  0.6883
 4968TIP3   OH214867   2.980   1.065   4.529  0.7576 -0.5146 -0.5252
 4968TIP3    H114868   2.929   1.078   4.449  0.9049  0.4812 -0.4736
 4968TIP3    H214869   3.012   0.975   4.523 -0.0596 -0.7756 -1.1035
 4969TIP3   OH214870   5.404   4.409   1.631  0.3096 -0.4112 -0.0013
 4969TIP3    H114871   5.481   4.360   1.660  1.1877 -0.2403 -1.8993
 4969TIP3    H214872   5.354   4.346   1.578 -0.8391 -0.4981  1.1535
 4970TIP3   OH214873   3.061   5.131   5.040 -0.9172  0.3479  0.5894
 4970TIP3    H114874   3.146   5.123   4.997 -0.4586 -2.5909  1.8119
 4970TIP3    H214875   3.060   5.220   5.075  2.2273  0.1147  1.5761
 4971TIP3   OH214876   5.743   2.282   2.968  0.3274  0.1220 -0.1931
 4971TIP3    H114877   5.714   2.213   3.028  2.5461  0.9491  2.0311
 4971TIP3    H214878   5.792   2.236   2.900 -2.0615 -0.8303 -1.3542
 4972TIP3   OH214879   0.770   4.839   5.102  0.0611  0.4273 -0.3432
 4972TIP3    H114880   0.785   4.745   5.116  2.6246  0.8609  0.4265
 4972TIP3    H214881   0.688   4.858   5.148  0.3684 -1.1305  0.9272
 4973TIP3   OH214882   6.359   1.917   2.588  0.4211 -0.1510  0.1828
 4973TIP3    H114883   6.308   1.949   2.514  1.0886  0.5439  0.0093
 4973TIP3    H214884   6.402   1.838   2.554 -1.4916 -1.4887  0.7148
 4974TIP3   OH214885   7.050   6.430   0.214 -0.3822 -0.4186 -0.1057
 4974TIP3    H114886   7.110   6.425   0.289  0.4049 -1.2193 -0.7608
 4974TIP3    H214887   7.060   6.345   0.171 -1.2547 -0.1758 -0.7980
 4975TIP3   OH214888   4.405   0.706   4.769  0.0986 -0.0548  0.1675
 4975TIP3    H114889   4.349   0.675   4.840  0.2894  0.1518  0.4117
 4975TIP3    H214890   4.490   0.665   4.786 -0.0333 -0.5418 -0.3255
 4976TIP3   OH214891   0.052   1.305   0.049  0.3131  0.3987  0.6849
 4976TIP3    H114892   0.094   1.227   0.013 -0.5385  0.0208  0.4831
 4976TIP3    H214893  -0.014   1.271   0.109 -0.7593  0.9121 -0.1609
 4977TIP3   OH214894   1.141   1.361   3.844  0.0709  0.5188  0.2677
 4977TIP3    H114895   1.197   1.395   3.914  1.3661  1.2587 -1.0664
 4977TIP3    H214896   1.118   1.438   3.792 -2.7795  0.3433  1.0990
 4978TIP3   OH214897   4.238   0.099   3.176  0.4616  0.7052  0.2441
 4978TIP3    H114898   4.244   0.188   3.140 -1.6968  0.9509  0.4007
 4978TIP3    H214899   4.248   0.042   3.100 -0.9648  1.1544 -0.2996
 4979TIP3   OH214900   0.381   3.030   2.007  0.1571 -0.2079 -0.0367
 4979TIP3    H114901   0.408   3.096   2.070  1.2998  0.0638 -0.7877
 4979TIP3    H214902   0.320   3.075   1.949 -0.9641 -0.4802  0.8916
 4980TIP3   OH214903   0.278   1.606   0.548  0.1561 -0.0467 -0.1951
 4980TIP3    H114904   0.355   1.609   0.606  1.7483 -1.6454 -2.0783
 4980TIP3    H214905   0.270   1.695   0.515  1.6597  0.0236 -0.4654
 4981TIP3   OH214906   4.805   2.464   1.077 -0.8100 -0.0987 -0.2926
 4981TIP3    H114907   4.772   2.453   0.988  0.2710  1.2661 -0.9000
 4981TIP3    H214908   4.899   2.479   1.067 -0.7925  0.8651  1.0055
 4982TIP3   OH214909   4.094   2.168   2.923 -0.3407 -0.2057 -0.0834
 4982TIP3    H114910   4.019   2.127   2.965 -1.5403  2.6018  0.7702
 4982TIP3    H214911   4.059   2.249   2.886  2.1180  0.8612 -0.2753
 4983TIP3   OH214912   0.453   2.867   2.985 -0.3500  0.3684  0.3460
 4983TIP3    H114913   0.378   2.919   2.956  0.2029  0.9577 -0.0764
 4983TIP3    H214914   0.529   2.924   2.969  0.2357 -0.4152  0.2640
 4984TIP3   OH214915   0.139   4.569   4.354  0.2433  0.5340  0.1584
 4984TIP3    H114916   0.081   4.493   4.348  1.9930 -0.9904  1.3398
 4984TIP3    H214917   0.200   4.559   4.281  0.3658  0.9222  0.2011
 4985TIP3   OH214918   1.144   5.528   1.001 -0.1349  0.3800  0.0880
 4985TIP3    H114919   1.146   5.561   0.911 -2.3625 -0.9906 -0.5688
 4985TIP3    H214920   1.172   5.437   0.994  0.5982  0.5224  0.9637
 4986TIP3   OH214921   6.924   3.955   0.293  0.1975  0.4337 -0.1456
 4986TIP3    H114922   6.960   4.021   0.353  0.3691  0.1080  0.1072
 4986TIP3    H214923   7.001   3.909   0.260 -0.0078 -0.6315  0.8157
 4987TIP3   OH214924   0.922   6.258   2.230  0.2358 -0.5640 -0.1720
 4987TIP3    H114925   0.995   6.279   2.289  0.5382 -0.4922 -0.5719
 4987TIP3    H214926   0.916   6.163   2.233  0.6005 -0.5968 -0.4435
 4988TIP3   OH214927   5.190   5.484   0.081 -0.4157 -0.2686  0.0236
 4988TIP3    H114928   5.143   5.423   0.137 -0.3504  0.1507  0.5471
 4988TIP3    H214929   5.277   5.490   0.119 -0.6784  0.8045  0.5030
 4989TIP3   OH214930   3.074   2.848   2.435  0.6009  0.3288 -0.6959
 4989TIP3    H114931   3.059   2.802   2.517  0.5250 -0.4210 -1.1192
 4989TIP3    H214932   3.028   2.932   2.446  0.1276  0.0105 -0.1788
 4990TIP3   OH214933   5.739   2.026   2.255  0.0801  0.0553 -0.0923
 4990TIP3    H114934   5.781   1.940   2.255  2.9206  1.3442 -0.7999
 4990TIP3    H214935   5.679   2.023   2.181 -0.1268 -1.4019  0.1026
 4991TIP3   OH214936   6.838   4.131   5.814 -0.8164  0.0047  0.0966
 4991TIP3    H114937   6.816   4.217   5.777 -1.4441  1.1955  2.9411
 4991TIP3    H214938   6.759   4.105   5.862  0.7050 -0.1249  2.7212
 4992TIP3   OH214939   0.536   4.066   3.129 -0.0442  0.5451 -0.5220
 4992TIP3    H114940   0.623   4.055   3.168  0.0656 -0.8431 -1.0903
 4992TIP3    H214941   0.475   4.041   3.198  0.1559 -2.0855 -1.1857
 4993TIP3   OH214942   2.497   3.408   3.808 -0.4472 -0.4358 -0.1969
 4993TIP3    H114943   2.539   3.485   3.769 -0.8280 -0.4526 -0.6526
 4993TIP3    H214944   2.416   3.443   3.846  0.9937  0.0171  2.6736
 4994TIP3   OH214945   5.026   3.282   2.266 -0.1049 -0.4489 -0.7033
 4994TIP3    H114946   4.958   3.330   2.219  0.6507  1.0075 -0.3678
 4994TIP3    H214947   4.992   3.274   2.355 -0.5581 -1.2118 -0.9415
 4995TIP3   OH214948   6.296   4.882   0.530 -0.0182 -0.6947 -0.1637
 4995TIP3    H114949   6.241   4.948   0.488  1.2196  0.2288 -0.3919
 4995TIP3    H214950   6.247   4.855   0.607  0.3901  2.1126  1.1877
 4996TIP3   OH214951   6.427   5.220   1.029 -0.1726 -0.2746  0.5337
 4996TIP3    H114952   6.506   5.174   0.999 -0.3581 -0.3503  0.1427
 4996TIP3    H214953   6.435   5.223   1.124 -1.4616 -3.6011  0.8815
 4997TIP3   OH214954   6.213   5.482   3.650 -0.3816 -0.2686 -0.5156
 4997TIP3    H114955   6.177   5.473   3.738  0.4174  0.3480 -0.1081
 4997TIP3    H214956   6.305   5.457   3.659 -0.6598 -1.8374 -1.5401
 4998TIP3   OH214957   3.797   5.530   2.462 -0.1182  0.7533  0.1573
 4998TIP3    H114958   3.829   5.478   2.389 -0.8008  1.8589 -0.9885
 4998TIP3    H214959   3.824   5.482   2.540  1.4684  0.0191 -0.7905
 4999TIP3   OH214960   4.721   3.257   3.114  0.5732 -0.1095 -0.3897
 4999TIP3    H114961   4.756   3.181   3.068  3.0885  0.3211  0.6272
 4999TIP3    H214962   4.729   3.329   3.052  0.8530 -0.1617 -0.4164
 5000TIP3   OH214963   6.782   2.211   1.932 -0.0367  0.2590 -0.4573
 5000TIP3    H114964   6.782   2.132   1.986 -0.3465 -0.2386 -1.1559
 5000TIP3    H214965   6.780   2.283   1.994 -0.8629 -0.3023  0.1927
 5001TIP3   OH214966   4.861   2.990   0.128 -0.5923  0.3428  0.0307
 5001TIP3    H114967   4.826   2.914   0.175  1.8852 -0.8601  0.0981
 5001TIP3    H214968   4.874   3.056   0.196  0.5061 -0.4600  0.6317
 5002TIP3   OH214969   0.549   5.965   1.564  0.5153  0.6277 -0.0241
 5002TIP3    H114970   0.531   6.005   1.649  0.1631 -0.2994  0.3495
 5002TIP3    H214971   0.613   5.897   1.583  2.3965  2.0334 -0.9094
 5003TIP3   OH214972   5.235   2.298   4.449  0.3667 -0.1747 -0.0011
 5003TIP3    H114973   5.329   2.311   4.458  0.4908 -0.7914 -0.3011
 5003TIP3    H214974   5.196   2.348   4.520  0.9398 -0.1111  0.2684
 5004TIP3   OH214975   6.698   4.127   5.200  0.2457  0.1609  0.2530
 5004TIP3    H114976   6.734   4.066   5.265  0.1668  1.5746  1.6969
 5004TIP3    H214977   6.641   4.074   5.145  0.9663 -1.2421  0.8228
 5005TIP3   OH214978   6.874   3.919   2.673  0.9824  0.2388  0.4481
 5005TIP3    H114979   6.864   3.997   2.728  1.8966 -0.1715  1.2129
 5005TIP3    H214980   6.808   3.858   2.705 -0.3959  1.0114 -0.7787
 5006TIP3   OH214981   0.943   4.612   0.049 -1.0049  0.3315 -0.1397
 5006TIP3    H114982   0.957   4.660   0.130  2.9939 -1.3305  0.3576
 5006TIP3    H214983   0.917   4.524   0.076  1.1102 -0.4642 -0.5147
 5007TIP3   OH214984   6.087   0.399   4.213 -0.6381 -0.3702  0.0599
 5007TIP3    H114985   6.019   0.455   4.250 -1.2660 -0.8379 -0.3745
 5007TIP3    H214986   6.152   0.459   4.177 -1.2169  0.0747 -0.2392
 5008TIP3   OH214987   4.827   6.346   2.842 -0.3016  0.0930  0.1758
 5008TIP3    H114988   4.847   6.254   2.862  1.0671  0.1137 -0.9351
 5008TIP3    H214989   4.745   6.342   2.792  0.2605 -0.6367 -0.7269
 5009TIP3   OH214990   0.304   0.252   0.328 -0.6573  0.3875  0.0116
 5009TIP3    H114991   0.226   0.306   0.340 -2.2327 -1.2048 -2.3241
 5009TIP3    H214992   0.364   0.307   0.277 -1.0331  0.9329  0.1488
 5010TIP3   OH214993   2.284   6.440   1.940 -0.5095 -0.7720 -0.5716
 5010TIP3    H114994   2.285   6.460   2.033 -1.6678 -0.2309 -0.6559
 5010TIP3    H214995   2.204   6.389   1.927 -0.0111 -1.4263 -1.1650
 5011TIP3   OH214996   0.271   2.171   4.044 -0.2699  0.2300  0.0520
 5011TIP3    H114997   0.288   2.132   3.958  0.9679 -0.8595  0.7484
 5011TIP3    H214998   0.348   2.226   4.061 -0.2673  0.0552  0.6471
 5012TIP3   OH214999   3.107   1.921   2.030 -0.2682 -0.3673  0.0030
 5012TIP3    H115000   3.099   2.003   1.981 -2.3945 -1.1779 -1.1751
 5012TIP3    H215001   3.055   1.935   2.109  0.1310 -0.2835  0.2534
 5013TIP3   OH215002   6.836   2.525   0.575 -0.0514 -0.2158 -0.4813
 5013TIP3    H115003   6.834   2.492   0.485  0.9921 -1.0507 -0.2128
 5013TIP3    H215004   6.918   2.492   0.611 -0.3028  0.3857  0.6847
 5014TIP3   OH215005   5.094   6.661   0.564  0.6227 -0.0961  0.2696
 5014TIP3    H115006   5.016   6.701   0.602  0.8641  0.5879  0.0603
 5014TIP3    H215007   5.096   6.694   0.474  1.4586  0.3257  0.4438
 5015TIP3   OH215008   2.260   5.382   5.816  0.6480 -0.5339 -0.6780
 5015TIP3    H115009   2.229   5.291   5.823  1.2104 -0.6816 -0.0007
 5015TIP3    H215010   2.183   5.431   5.787  0.1483 -1.1140 -0.3577
 5016TIP3   OH215011   4.371   1.253   2.901 -0.5362  0.2966 -0.2200
 5016TIP3    H115012   4.410   1.279   2.818 -0.1387 -1.8222 -0.7696
 5016TIP3    H215013   4.294   1.201   2.876  1.1184 -2.7945  0.5076
 5017TIP3   OH215014   5.501   3.051   4.107  0.2679  0.4700 -0.0812
 5017TIP3    H115015   5.457   2.966   4.112  2.0909 -0.4504  3.4808
 5017TIP3    H215016   5.437   3.113   4.140  0.1591 -0.1632  0.9484
 5018TIP3   OH215017   6.757   6.250   3.718 -0.3420 -0.4215 -0.4517
 5018TIP3    H115018   6.807   6.206   3.649  1.3341 -0.0406  0.4652
 5018TIP3    H215019   6.721   6.178   3.770 -1.4669 -0.7109 -1.5714
 5019TIP3   OH215020   2.029   6.064   1.623 -0.7388 -0.0651 -0.2179
 5019TIP3    H115021   2.033   5.983   1.573  1.0645  0.4370 -0.9690
 5019TIP3    H215022   2.115   6.072   1.663 -0.6752  1.7254 -0.6074
 5020TIP3   OH215023   0.912   1.259   5.544  0.4703  0.6082  0.1809
 5020TIP3    H115024   0.964   1.333   5.575  1.8568 -0.5862  0.7730
 5020TIP3    H215025   0.920   1.193   5.612  1.2627 -1.0052 -1.3967
 5021TIP3   OH215026   4.387   6.231   3.908 -0.0446  0.3126  0.4520
 5021TIP3    H115027   4.369   6.311   3.958 -0.2345 -0.6786  2.0211
 5021TIP3    H215028   4.326   6.166   3.942  2.6379 -1.5956  2.0165
 5022TIP3   OH215029   1.876   3.091   5.303 -0.0805  0.2240 -0.2971
 5022TIP3    H115030   1.829   3.133   5.231  0.1394  0.5158 -0.2702
 5022TIP3    H215031   1.942   3.036   5.261 -0.2265  0.0737 -0.3280
 5023TIP3   OH215032   1.675   5.142   2.381  0.7236 -0.0863  0.3828
 5023TIP3    H115033   1.675   5.117   2.289  0.8831  0.5873  0.1952
 5023TIP3    H215034   1.597   5.100   2.418  0.7152 -0.4398 -0.0371
 5024TIP3   OH215035   4.607   0.837   0.538  0.1127 -0.5559 -0.7850
 5024TIP3    H115036   4.527   0.865   0.493  0.5877  0.8450 -0.8037
 5024TIP3    H215037   4.672   0.828   0.468  0.1975 -0.8541 -0.6692
 5025TIP3   OH215038   1.923   5.706   0.676  0.3064 -0.3976  0.1115
 5025TIP3    H115039   1.892   5.735   0.590  0.1693  2.5365  1.0302
 5025TIP3    H215040   1.997   5.649   0.656 -0.7189 -1.1263 -1.9517
 5026TIP3   OH215041   5.774   4.830   2.134  0.3898  0.0789  0.4042
 5026TIP3    H115042   5.838   4.810   2.202  0.7759  0.5123  0.1756
 5026TIP3    H215043   5.692   4.791   2.166  0.9881 -1.4230  0.1889
 5027TIP3   OH215044   5.319   1.532   0.133  0.2211 -0.4580  0.9597
 5027TIP3    H115045   5.403   1.559   0.171  1.3801 -2.0548 -0.3332
 5027TIP3    H215046   5.287   1.609   0.087  0.2747  0.5881  2.6027
 5028TIP3   OH215047   0.693   6.584   0.643 -0.7926  0.1702 -0.0674
 5028TIP3    H115048   0.649   6.653   0.593 -4.5405 -1.2725  0.8858
 5028TIP3    H215049   0.699   6.619   0.732  0.7562  0.6227 -0.3269
 5029TIP3   OH215050   0.444   2.883   4.124  0.2680 -0.9623  0.1571
 5029TIP3    H115051   0.512   2.817   4.121 -0.3648 -1.6233  0.1367
 5029TIP3    H215052   0.453   2.931   4.041  1.6784 -0.0243  0.7999
 5030TIP3   OH215053   0.596   0.196   3.924 -0.4419 -0.1023 -0.0381
 5030TIP3    H115054   0.563   0.286   3.919 -1.4946 -0.5421 -1.2874
 5030TIP3    H215055   0.686   0.206   3.958  0.1364  1.5736 -1.8872
 5031TIP3   OH215056   4.903   5.055   0.751 -0.1945 -0.2963 -0.5581
 5031TIP3    H115057   4.880   5.000   0.825 -1.1620 -0.7446 -1.1656
 5031TIP3    H215058   4.993   5.030   0.729  0.1664 -0.0311  0.5482
 5032TIP3   OH215059   0.238   2.823   0.404  0.3800  0.2911 -0.3231
 5032TIP3    H115060   0.217   2.741   0.359  0.6565  0.1949 -0.2821
 5032TIP3    H215061   0.156   2.873   0.403  0.0126 -0.2832  0.2903
 5033TIP3   OH215062   4.237   2.230   4.066  0.0331 -0.0039  0.8380
 5033TIP3    H115063   4.162   2.234   4.006  1.4707 -1.9758 -1.2404
 5033TIP3    H215064   4.213   2.289   4.138 -2.4097  1.3468 -0.9460
 5034TIP3   OH215065   3.951   2.771   5.699  0.2681 -0.0699  0.5019
 5034TIP3    H115066   3.871   2.822   5.688  1.3059  1.4345 -0.3203
 5034TIP3    H215067   3.922   2.680   5.690 -1.1699  0.4857 -1.1524
 5035TIP3   OH215068   5.488   5.017   1.446  0.1916 -0.0188  0.7495
 5035TIP3    H115069   5.518   4.946   1.390  3.0134  1.8502 -0.2948
 5035TIP3    H215070   5.456   4.973   1.525 -0.4121 -2.5083 -0.7575
 5036TIP3   OH215071   1.397   0.809   1.707  0.3009 -0.1914  0.2299
 5036TIP3    H115072   1.457   0.879   1.733  0.2064 -0.0944  0.1837
 5036TIP3    H215073   1.346   0.791   1.786  0.8210 -0.7099  0.4587
 5037TIP3   OH215074   5.184   1.211   3.975 -0.4169 -0.0772 -0.0877
 5037TIP3    H115075   5.159   1.249   3.890 -0.6210  2.9742  1.1901
 5037TIP3    H215076   5.279   1.218   3.977 -0.5226  2.3148  0.8226
 5038TIP3   OH215077   1.353   2.289   3.085 -0.1114 -0.0136 -0.6744
 5038TIP3    H115078   1.422   2.351   3.108  0.6844 -1.0500 -0.2309
 5038TIP3    H215079   1.398   2.208   3.064 -1.1937 -0.7382 -0.3136
 5039TIP3   OH215080   5.594   4.529   3.800  0.7622  0.1051 -0.5285
 5039TIP3    H115081   5.591   4.556   3.708 -0.3725  0.0761 -0.5046
 5039TIP3    H215082   5.588   4.434   3.797 -1.2053  0.1928 -0.3627
 5040TIP3   OH215083   0.012   4.617   2.763  0.8671 -0.4157  0.3457
 5040TIP3    H115084   0.079   4.681   2.786  2.0680 -0.8265 -1.7604
 5040TIP3    H215085   0.060   4.544   2.723 -0.8637  0.0641 -2.9700
 5041TIP3   OH215086   0.757   2.983   4.263  0.6948  0.0784 -0.3217
 5041TIP3    H115087   0.750   2.966   4.357  4.1007 -1.3287 -0.1748
 5041TIP3    H215088   0.768   2.896   4.224 -2.1996  0.4700 -2.3324
 5042TIP3   OH215089   6.463   2.177   4.088  0.3389  0.0943  0.1808
 5042TIP3    H115090   6.384   2.215   4.125  1.2619  2.7523 -0.3463
 5042TIP3    H215091   6.432   2.112   4.025 -1.4232  1.1596 -0.0933
 5043TIP3   OH215092   5.326   4.316   3.029  0.0136  0.0133 -0.3368
 5043TIP3    H115093   5.413   4.316   3.070  1.1020  0.2328 -2.4842
 5043TIP3    H215094   5.326   4.238   2.974 -0.8490  0.4494 -0.9767
 5044TIP3   OH215095   1.978   4.717   1.748  0.3945 -0.3756  0.3360
 5044TIP3    H115096   1.947   4.646   1.692  0.1410  0.1447 -0.2077
 5044TIP3    H215097   2.072   4.702   1.757  0.1686 -1.4028  1.1544
 5045TIP3   OH215098   2.877   3.308   4.282  0.1657  0.1969  0.4339
 5045TIP3    H115099   2.879   3.217   4.313 -0.5954 -0.3378 -0.9971
 5045TIP3    H215100   2.901   3.360   4.359  3.0375 -1.3201  0.7378
 5046TIP3   OH215101   0.667   5.845   4.153 -0.4181 -0.1846  0.2026
 5046TIP3    H115102   0.718   5.846   4.072  1.4818  0.1887  1.3521
 5046TIP3    H215103   0.604   5.773   4.140  0.4397 -0.7236 -1.2460
 5047TIP3   OH215104   3.408   3.524   0.036  0.4262 -0.1921 -0.2138
 5047TIP3    H115105   3.411   3.472   0.117  0.6747  0.2686  0.0783
 5047TIP3    H215106   3.318   3.559   0.034 -0.7016 -2.8691 -1.8631
 5048TIP3   OH215107   3.422   1.999   1.779  0.2167 -0.3257 -0.8881
 5048TIP3    H115108   3.340   1.950   1.782 -0.9646  1.5816 -0.6167
 5048TIP3    H215109   3.399   2.083   1.739  1.5075  1.1710  1.2803
 5049TIP3   OH215110   6.947   3.125   1.423  0.8190 -0.8643  0.0220
 5049TIP3    H115111   6.969   3.203   1.474  1.1323 -0.5523 -0.5682
 5049TIP3    H215112   6.947   3.156   1.332 -0.5676 -1.2150 -0.1143
 5050TIP3   OH215113   0.689   0.950   1.433  0.4976  0.0359  0.2307
 5050TIP3    H115114   0.668   0.907   1.516 -1.6417  0.7546  0.1169
 5050TIP3    H215115   0.779   0.925   1.416  0.8037 -0.6350  2.4607
 5051TIP3   OH215116   6.964   0.525   1.562 -0.5096  0.5502  0.3583
 5051TIP3    H115117   6.951   0.620   1.569 -1.9765  0.6203 -1.8805
 5051TIP3    H215118   7.012   0.514   1.480  0.2954 -0.6245  0.9677
 5052TIP3   OH215119   1.825   1.649   4.719 -0.0609  0.2523  0.3501
 5052TIP3    H115120   1.869   1.734   4.724  0.3380  0.0759 -0.0717
 5052TIP3    H215121   1.873   1.601   4.652  2.1877 -1.7190  3.1223
 5053TIP3   OH215122   6.925   6.535   1.838  0.0882  0.0801 -0.7185
 5053TIP3    H115123   6.933   6.477   1.914  0.1904  1.7242  0.5968
 5053TIP3    H215124   6.832   6.556   1.833  0.2882  1.2559  0.0078
 5054TIP3   OH215125   7.141   6.831   0.244 -0.0547  0.2130  0.5513
 5054TIP3    H115126   7.065   6.773   0.246 -0.2326  0.4560  1.2624
 5054TIP3    H215127   7.205   6.785   0.190 -0.0659 -0.8085  1.3743
 5055TIP3   OH215128   6.046   1.471   3.509  0.0636  0.1598 -0.1382
 5055TIP3    H115129   5.953   1.464   3.528  0.3828 -0.6355  1.3159
 5055TIP3    H215130   6.051   1.510   3.422 -1.6055  0.7612  0.0128
 5056TIP3   OH215131   1.439   4.419   3.546  0.3702 -0.2020 -0.0585
 5056TIP3    H115132   1.385   4.417   3.625 -0.1513  0.2805 -0.3898
 5056TIP3    H215133   1.509   4.480   3.567 -0.1194  0.4157 -0.1780
 5057TIP3   OH215134   6.872   0.563   0.984  0.2465 -0.1256  0.6840
 5057TIP3    H115135   6.839   0.478   0.956  1.1507 -0.5339  0.8343
 5057TIP3    H215136   6.840   0.624   0.916  2.9311 -1.1808 -1.7282
 5058TIP3   OH215137   5.564   4.608   2.469  0.1532 -0.7147 -0.1352
 5058TIP3    H115138   5.593   4.699   2.464  0.3526 -0.8404 -1.8953
 5058TIP3    H215139   5.641   4.559   2.496  0.0991 -0.3985  0.6137
 5059TIP3   OH215140   5.404   5.439   3.626 -0.6626 -0.0744  0.0247
 5059TIP3    H115141   5.440   5.471   3.544 -1.1244 -0.3463 -0.2885
 5059TIP3    H215142   5.313   5.418   3.606 -1.2102  1.2371  0.9619
 5060TIP3   OH215143   3.385   1.164   0.065 -0.4338 -0.5140 -0.0675
 5060TIP3    H115144   3.400   1.159  -0.030 -0.1948 -1.4584  0.0078
 5060TIP3    H215145   3.379   1.072   0.093  0.5206 -0.2797  0.9854
 5061TIP3   OH215146   3.393   4.915   0.584 -0.1577  0.3266  0.6044
 5061TIP3    H115147   3.298   4.924   0.591 -0.1991 -0.1152  0.6694
 5061TIP3    H215148   3.417   4.856   0.656 -0.1588 -1.5861 -0.8687
 5062TIP3   OH215149   3.219   4.578   0.785  0.1966 -0.0036 -0.2546
 5062TIP3    H115150   3.153   4.645   0.766  1.5250  1.3607 -0.2213
 5062TIP3    H215151   3.176   4.520   0.847 -1.2076  0.4543 -0.7509
 5063TIP3   OH215152   4.144   5.373   0.095 -0.0645 -0.2801  0.1890
 5063TIP3    H115153   4.199   5.450   0.110  2.0100 -1.6029 -0.0942
 5063TIP3    H215154   4.142   5.362   0.000  2.0459 -2.0437  0.2366
 5064TIP3   OH215155   4.518   0.039   1.246  0.9086 -0.1707  0.2878
 5064TIP3    H115156   4.586  -0.018   1.281  1.0997 -1.2857 -1.7559
 5064TIP3    H215157   4.564   0.097   1.185  0.7019  2.1962  2.2221
 5065TIP3   OH215158   1.015   4.074   0.478  0.0325 -0.4740 -0.3317
 5065TIP3    H115159   1.071   4.005   0.513 -0.1598 -0.4606  0.0173
 5065TIP3    H215160   1.014   4.141   0.547  0.4152 -0.0113 -0.7720
 5066TIP3   OH215161   6.789   2.569   4.935 -0.1805  0.5086  0.7120
 5066TIP3    H115162   6.807   2.562   4.841  0.1420 -1.8305  0.8935
 5066TIP3    H215163   6.756   2.483   4.960 -1.7216  1.5217  2.4866
 5067TIP3   OH215164   5.897   1.537   1.690  0.2111 -0.0436 -0.0936
 5067TIP3    H115165   5.813   1.498   1.667 -0.1095  1.3095 -1.3307
 5067TIP3    H215166   5.881   1.581   1.773 -0.2383 -0.0015 -0.2007
 5068TIP3   OH215167   6.650   6.208   1.890  0.5383  0.2228  0.0331
 5068TIP3    H115168   6.729   6.188   1.939 -0.9074 -2.4713  1.5334
 5068TIP3    H215169   6.673   6.191   1.798  1.8822  0.1734  0.3663
 5069TIP3   OH215170   3.575   3.430   4.292 -0.3746  0.0042 -0.0729
 5069TIP3    H115171   3.600   3.522   4.288 -1.1707  0.1930 -3.7964
 5069TIP3    H215172   3.483   3.431   4.316 -0.5006  0.2356 -0.5476
 5070TIP3   OH215173   0.115   5.913   0.496 -0.8196 -0.3404  0.0673
 5070TIP3    H115174   0.148   5.969   0.566 -1.2087  1.0455 -0.8249
 5070TIP3    H215175   0.042   5.866   0.536  0.2242 -1.1051  1.1561
 5071TIP3   OH215176   3.200   1.311   5.769 -0.0209  0.2815  0.3393
 5071TIP3    H115177   3.227   1.253   5.841  2.2635  1.2493  0.3230
 5071TIP3    H215178   3.104   1.304   5.769  0.0196 -1.3989  2.0650
 5072TIP3   OH215179   7.194   1.276   3.382 -0.4131 -0.2996  0.5337
 5072TIP3    H115180   7.189   1.339   3.454  2.3707 -0.3872  0.9254
 5072TIP3    H215181   7.210   1.192   3.424  2.0302 -0.2412 -0.1016
 5073TIP3   OH215182   5.882   3.809   4.360 -0.2225  0.0930  0.0740
 5073TIP3    H115183   5.845   3.801   4.272  0.1358 -0.1485 -0.0590
 5073TIP3    H215184   5.912   3.900   4.365  1.0279 -0.2593 -0.5760
 5074TIP3   OH215185   0.992   3.299   0.112  0.3222  0.4025  0.1357
 5074TIP3    H115186   0.914   3.266   0.068 -0.2900  1.2622  0.5628
 5074TIP3    H215187   1.021   3.372   0.057 -0.0225  1.0140  0.7525
 5075TIP3   OH215188   4.770   4.462   4.904  0.3300 -0.3509  0.3482
 5075TIP3    H115189   4.731   4.471   4.991  1.0843 -0.9548  0.7627
 5075TIP3    H215190   4.738   4.377   4.873 -1.5329  0.7004 -0.8232
 5076TIP3   OH215191   4.141   1.837   0.700  0.3284 -0.6260 -0.3392
 5076TIP3    H115192   4.071   1.903   0.694  1.3981  0.4910 -1.1413
 5076TIP3    H215193   4.178   1.849   0.787  0.6740  0.0253 -0.5683
 5077TIP3   OH215194   3.975   6.439   5.335 -0.1820  0.0523  0.1198
 5077TIP3    H115195   4.048   6.387   5.303  0.4030  0.0107  1.4677
 5077TIP3    H215196   3.974   6.424   5.429 -0.1405  2.2535  0.5369
 5078TIP3   OH215197   3.840   1.713   5.134 -0.1574 -0.0820 -0.2037
 5078TIP3    H115198   3.887   1.758   5.205 -0.4111  0.4838 -0.3878
 5078TIP3    H215199   3.757   1.687   5.173 -1.5149  2.7054 -1.0015
 5079TIP3   OH215200   3.587   4.240   1.459 -0.2739 -0.3658  0.5886
 5079TIP3    H115201   3.536   4.317   1.481 -0.3598 -0.2598  0.0265
 5079TIP3    H215202   3.636   4.265   1.381 -0.2975 -0.8751  0.4061
 5080TIP3   OH215203   5.670   5.130   0.157 -0.4110 -0.1690 -0.2235
 5080TIP3    H115204   5.694   5.107   0.247 -0.5702  1.0875  0.1584
 5080TIP3    H215205   5.723   5.072   0.103  1.4037  0.5744  0.6500
 5081TIP3   OH215206   3.756   3.679   4.189 -0.5085  0.0024  0.3311
 5081TIP3    H115207   3.736   3.765   4.224  1.6104  1.3427 -1.5383
 5081TIP3    H215208   3.680   3.658   4.134 -0.9001  0.8138  0.5460
 5082TIP3   OH215209   4.846   0.176   1.450  0.7672  0.2869 -0.4408
 5082TIP3    H115210   4.876   0.248   1.394  1.7715 -0.8170 -1.3769
 5082TIP3    H215211   4.877   0.199   1.537 -0.5869  1.9056 -0.3482
 5083TIP3   OH215212   3.656   4.628   2.341  0.0773 -0.7727  0.4354
 5083TIP3    H115213   3.623   4.580   2.418 -0.6456 -2.0936 -0.6499
 5083TIP3    H215214   3.580   4.635   2.283  1.0229 -1.4187 -0.9231
 5084TIP3   OH215215   0.968   3.733   0.678 -0.3114  0.3664  0.9353
 5084TIP3    H115216   1.060   3.752   0.657 -0.3675  0.4388  0.7598
 5084TIP3    H215217   0.919   3.765   0.603 -0.4541  0.0544  0.8958
 5085TIP3   OH215218   3.358   0.226   4.588 -0.2008  0.2090  0.0044
 5085TIP3    H115219   3.427   0.248   4.651  1.3946 -2.8155 -0.4572
 5085TIP3    H215220   3.405   0.203   4.508 -1.6396 -2.4156 -0.1983
 5086TIP3   OH215221   6.942   2.424   5.217  0.0300  0.3520  0.0641
 5086TIP3    H115222   6.940   2.373   5.298  1.4876  0.7499  0.3642
 5086TIP3    H215223   6.916   2.512   5.244  0.0372  0.3719  0.0057
 5087TIP3   OH215224   0.504   0.748   4.388 -0.3527  0.3913  0.3888
 5087TIP3    H115225   0.539   0.822   4.339 -0.6711 -0.5974 -1.4250
 5087TIP3    H215226   0.516   0.673   4.330 -1.6545 -0.6774  1.4334
 5088TIP3   OH215227   0.630   0.488   0.971  0.1533  0.4054  0.2361
 5088TIP3    H115228   0.679   0.410   0.945 -2.5288 -1.3919  0.0561
 5088TIP3    H215229   0.673   0.518   1.051  1.4907 -1.0741  0.1138
 5089TIP3   OH215230   4.262   1.185   0.255  0.3757  0.0730  0.0495
 5089TIP3    H115231   4.173   1.150   0.246  0.6991 -0.3920 -1.8259
 5089TIP3    H215232   4.252   1.279   0.239  0.3211 -0.1127 -1.0949
 5090TIP3   OH215233   5.745   4.346   5.770  0.6885 -0.7048  0.2016
 5090TIP3    H115234   5.684   4.394   5.714 -0.0262  0.4130  1.8645
 5090TIP3    H215235   5.714   4.255   5.766  0.2888 -0.5373 -0.7398
 5091TIP3   OH215236   6.041   5.368   2.097  0.1720  0.8294 -0.2204
 5091TIP3    H115237   6.069   5.317   2.021 -1.7344 -0.7078  0.0356
 5091TIP3    H215238   6.107   5.351   2.163  0.1632 -0.4602 -0.5139
 5092TIP3   OH215239   3.411   4.598   2.174  0.4345  0.3829 -0.3566
 5092TIP3    H115240   3.406   4.503   2.167  0.8588  0.0124  3.0492
 5092TIP3    H215241   3.320   4.626   2.183  0.4448  0.0392  0.9012
 5093TIP3   OH215242   0.688   0.969   0.286 -0.6714 -0.3779 -0.0894
 5093TIP3    H115243   0.696   0.972   0.191  1.1026 -1.0730 -0.0030
 5093TIP3    H215244   0.594   0.955   0.302 -0.9558 -0.4991 -1.7262
 5094TIP3   OH215245   2.704   3.086   3.420 -0.2558 -0.1802  0.0195
 5094TIP3    H115246   2.768   3.057   3.356  0.6836  0.9086  0.4251
 5094TIP3    H215247   2.757   3.116   3.495 -1.3038 -1.0597  1.1581
 5095TIP3   OH215248   5.405   5.200   1.263  0.1280 -0.1237  0.3458
 5095TIP3    H115249   5.431   5.174   1.351 -1.6432  0.1876  1.0017
 5095TIP3    H215250   5.352   5.127   1.231 -0.1229  0.2186 -0.0389
 5096TIP3   OH215251   6.718   4.834   2.203  0.2107 -0.1123  0.4239
 5096TIP3    H115252   6.715   4.769   2.274 -0.5267 -0.1234  0.3809
 5096TIP3    H215253   6.633   4.876   2.204  0.7345  0.9655  0.5324
 5097TIP3   OH215254   0.239   1.332   4.807 -0.2618 -0.1678 -0.2600
 5097TIP3    H115255   0.334   1.324   4.815 -0.0483 -0.0907 -2.0962
 5097TIP3    H215256   0.226   1.359   4.716 -1.9602  1.6037  0.4543
 5098TIP3   OH215257   1.452   6.625   2.970 -0.2538 -0.6726 -0.7838
 5098TIP3    H115258   1.499   6.589   2.895 -2.1781 -0.4250 -2.1976
 5098TIP3    H215259   1.413   6.549   3.013 -0.7923 -0.6550 -1.2328
 5099TIP3   OH215260   5.303   6.022   2.791  0.0656  0.2642 -0.5646
 5099TIP3    H115261   5.217   6.034   2.752  0.0613  0.4745 -0.4945
 5099TIP3    H215262   5.351   5.969   2.728 -0.2404 -0.1844 -0.4229
 5100TIP3   OH215263   4.848   6.018   0.732 -0.5512 -0.0887 -0.4561
 5100TIP3    H115264   4.756   5.998   0.747 -0.8155  1.4912  0.2713
 5100TIP3    H215265   4.851   6.054   0.643 -1.0342  1.7947  0.2321
 5101TIP3   OH215266   0.267   6.283   2.456 -0.2894  0.3871 -0.1019
 5101TIP3    H115267   0.229   6.359   2.500 -0.5063  0.4236 -0.3496
 5101TIP3    H215268   0.359   6.308   2.441 -0.9976  1.7711 -2.7247
 5102TIP3   OH215269   5.686   0.504   0.211  0.1694  0.8983  0.2117
 5102TIP3    H115270   5.674   0.561   0.287 -1.1677  0.7178  0.1586
 5102TIP3    H215271   5.617   0.531   0.150 -1.4803 -1.7381  0.7779
 5103TIP3   OH215272   4.513   0.305   1.908 -0.4612  0.2485  0.3960
 5103TIP3    H115273   4.460   0.226   1.919 -1.1800  0.6054 -0.3627
 5103TIP3    H215274   4.571   0.285   1.835  0.7889 -0.2942  1.4893
 5104TIP3   OH215275   0.305   4.553   4.112 -0.2919  0.5255 -0.0589
 5104TIP3    H115276   0.293   4.591   4.024 -0.8268 -0.1100 -0.2682
 5104TIP3    H215277   0.376   4.491   4.101 -0.8183 -0.0622 -0.2154
 5105TIP3   OH215278   4.087   4.708   3.743 -0.4685  0.4391  0.1922
 5105TIP3    H115279   4.144   4.737   3.672  3.1098 -1.0738  2.1847
 5105TIP3    H215280   4.049   4.626   3.712  1.3280 -0.3923  0.0997
 5106TIP3   OH215281   5.169   3.715   5.138 -0.2614  0.1719  0.0184
 5106TIP3    H115282   5.163   3.706   5.043 -0.9349  0.5380  0.0209
 5106TIP3    H215283   5.180   3.625   5.170  0.5740  0.0998 -0.4382
 5107TIP3   OH215284   7.151   1.550   2.660  0.3280 -0.4853 -0.4459
 5107TIP3    H115285   7.214   1.480   2.676 -1.5148 -1.7127  2.3559
 5107TIP3    H215286   7.172   1.616   2.726 -1.5981 -1.2401  1.0366
 5108TIP3   OH215287   0.312   1.999   5.328  0.7631 -0.2223 -0.2133
 5108TIP3    H115288   0.239   2.060   5.333 -0.3482 -1.2836 -2.1665
 5108TIP3    H215289   0.319   1.963   5.416 -1.6864 -0.7396 -0.1569
 5109TIP3   OH215290   1.758   6.330   4.483  0.0487  0.4758  0.3900
 5109TIP3    H115291   1.669   6.338   4.448 -0.3239 -0.6402  1.0447
 5109TIP3    H215292   1.814   6.351   4.408 -0.7525  0.5529 -0.2090
 5110TIP3   OH215293   4.752   2.955   3.599  0.8258  0.8670 -0.0050
 5110TIP3    H115294   4.758   2.903   3.518 -0.6037 -1.4916  1.2789
 5110TIP3    H215295   4.664   2.992   3.597  0.6224  0.4376  0.6467
 5111TIP3   OH215296   4.598   2.057   4.839 -0.0263 -0.6670  0.5359
 5111TIP3    H115297   4.541   2.058   4.917 -0.5876  1.7255  0.1707
 5111TIP3    H215298   4.537   2.056   4.765  0.3760  0.9319  0.1451
 5112TIP3   OH215299   1.439  -0.008   3.440  0.0212  0.3692  0.3963
 5112TIP3    H115300   1.351   0.019   3.410 -0.3815 -0.0806  1.1566
 5112TIP3    H215301   1.493   0.070   3.426 -0.8689  1.2167  1.4549
 5113TIP3   OH215302   2.579   5.615   0.339 -0.1492 -0.6279  0.0346
 5113TIP3    H115303   2.643   5.635   0.271 -0.4813  0.9125  0.1386
 5113TIP3    H215304   2.494   5.626   0.296 -0.3685  0.8498  0.7986
 5114TIP3   OH215305   0.647   5.274   3.142  0.6826  1.0812  0.5363
 5114TIP3    H115306   0.739   5.255   3.126 -0.0791 -1.4438 -1.6205
 5114TIP3    H215307   0.609   5.287   3.055 -1.3579 -0.2475  1.1445
 5115TIP3   OH215308   2.627   3.174   2.451 -0.2698 -0.0321  0.1679
 5115TIP3    H115309   2.690   3.201   2.384  0.8845  0.2934  1.3498
 5115TIP3    H215310   2.553   3.233   2.439  0.7188  1.2950  0.3779
 5116TIP3   OH215311   4.239   0.763   4.508  0.0139  0.3104 -0.0640
 5116TIP3    H115312   4.286   0.762   4.591 -1.4446 -0.0259  0.7895
 5116TIP3    H215313   4.222   0.855   4.490  0.2616  0.3764  0.0420
 5117TIP3   OH215314   4.946   0.983   2.220  0.8194 -0.3200 -0.9415
 5117TIP3    H115315   4.988   0.973   2.305  0.0905 -0.3152 -0.5700
 5117TIP3    H215316   4.977   0.909   2.168  1.2986 -0.2990 -0.6907
 5118TIP3   OH215317   5.605   4.300   2.158 -0.1667 -0.0315  0.0926
 5118TIP3    H115318   5.623   4.255   2.240  0.5119 -0.5215 -0.3165
 5118TIP3    H215319   5.540   4.367   2.181  0.2818  0.0733  1.0984
 5119TIP3   OH215320   6.838   0.800   5.804  0.3973  0.0161 -0.5130
 5119TIP3    H115321   6.929   0.824   5.789  1.8517 -2.6669  2.8346
 5119TIP3    H215322   6.823   0.726   5.746  0.8515 -0.4873  0.0103
 5120TIP3   OH215323   6.660   4.840   4.657  0.0785  0.0926 -0.4761
 5120TIP3    H115324   6.591   4.775   4.672  1.5061 -1.6603 -1.2059
 5120TIP3    H215325   6.698   4.816   4.572  0.9829  1.6036 -0.5426
 5121TIP3   OH215326   1.718   1.558   0.387  0.0387 -0.5159  0.3607
 5121TIP3    H115327   1.738   1.471   0.353 -0.9570 -0.6014 -0.0439
 5121TIP3    H215328   1.756   1.618   0.323  1.3026 -0.6259  0.9771
 5122TIP3   OH215329   3.196   0.990   0.949 -0.0124  0.2652 -0.0247
 5122TIP3    H115330   3.227   0.960   0.863 -1.2931  2.5518 -1.3823
 5122TIP3    H215331   3.101   0.981   0.944 -0.0714 -0.0269  1.3631
 5123TIP3   OH215332   1.738   4.169   1.169  0.4646 -0.2000  0.1313
 5123TIP3    H115333   1.725   4.116   1.090 -1.0299 -2.0208  1.5197
 5123TIP3    H215334   1.796   4.116   1.224 -1.0066 -0.4109  1.5308
 5124TIP3   OH215335   2.902   4.572   5.502 -0.1873  0.2602 -0.0442
 5124TIP3    H115336   2.986   4.612   5.479 -0.4936 -0.1656 -2.0999
 5124TIP3    H215337   2.838   4.643   5.490 -0.5570 -0.3765 -2.3429
 5125TIP3   OH215338   5.564   2.441   2.757 -0.3541 -0.1091 -0.2253
 5125TIP3    H115339   5.540   2.500   2.686  0.7314 -0.6918 -1.1097
 5125TIP3    H215340   5.649   2.405   2.731 -0.6270 -1.4742  0.6436
 5126TIP3   OH215341   0.128   6.477   2.601 -0.2827 -0.0072  0.3465
 5126TIP3    H115342   0.056   6.516   2.552  1.5059  0.5521 -2.0182
 5126TIP3    H215343   0.154   6.545   2.664 -0.2134  0.8188 -0.5434
 5127TIP3   OH215344   7.053   2.196   1.444  0.0736 -0.7818  0.2931
 5127TIP3    H115345   7.014   2.272   1.401 -2.1775 -1.6779  0.6062
 5127TIP3    H215346   7.054   2.128   1.376  0.6317 -0.9245  0.4407
 5128TIP3   OH215347   4.438   4.486   5.419  0.0303 -0.7895  0.5573
 5128TIP3    H115348   4.498   4.426   5.463 -0.7148 -1.2076  1.0173
 5128TIP3    H215349   4.484   4.570   5.419  0.4534 -1.0136  1.2473
 5129TIP3   OH215350   4.457   5.221   0.541 -0.2816  0.2707 -0.0654
 5129TIP3    H115351   4.427   5.199   0.629 -1.3209 -2.8325 -1.0462
 5129TIP3    H215352   4.398   5.289   0.511 -0.6057  0.5863  1.2277
 5130TIP3   OH215353   3.436   4.833   2.770  0.2146  0.1191  0.3238
 5130TIP3    H115354   3.391   4.915   2.790 -0.2136 -0.1639  0.5284
 5130TIP3    H215355   3.517   4.837   2.820  1.3728  1.4960 -1.5162
 5131TIP3   OH215356   0.253   1.243   2.513  0.2223 -0.3763  0.5997
 5131TIP3    H115357   0.191   1.276   2.578 -0.6998 -1.1592  0.1322
 5131TIP3    H215358   0.303   1.321   2.486 -1.4550  0.5360  0.0149
 5132TIP3   OH215359   3.891   6.687   1.888  0.2747  0.0620 -0.3799
 5132TIP3    H115360   3.954   6.754   1.862 -0.2359  1.6606  2.1398
 5132TIP3    H215361   3.880   6.699   1.982 -1.7516 -1.9572 -0.2591
 5133TIP3   OH215362   0.458   3.926   2.158  0.1921 -0.4326  0.0727
 5133TIP3    H115363   0.431   3.985   2.087 -1.7700 -1.5149 -0.1518
 5133TIP3    H215364   0.503   3.983   2.221  0.6583  0.8104 -1.3442
 5134TIP3   OH215365   4.104   3.817   1.187  0.3813 -0.4850 -0.3460
 5134TIP3    H115366   4.014   3.793   1.206  0.0588 -0.1142 -1.3511
 5134TIP3    H215367   4.099   3.908   1.157  1.2831  0.0612  1.0768
 5135TIP3   OH215368   0.811   4.572   4.433 -0.3522 -0.2776  0.2561
 5135TIP3    H115369   0.841   4.622   4.509 -0.4590 -0.0646  0.1589
 5135TIP3    H215370   0.866   4.494   4.432  0.5010  0.3146 -0.1798
 5136TIP3   OH215371   1.001   4.703   1.695  0.0616 -0.4744  0.5179
 5136TIP3    H115372   1.029   4.641   1.628 -1.9715 -0.3855 -0.4845
 5136TIP3    H215373   1.082   4.744   1.725  1.0082  0.8723 -3.2496
 5137TIP3   OH215374   4.992   1.803   4.302 -0.3650 -0.3619 -0.3912
 5137TIP3    H115375   5.046   1.837   4.231  0.4380 -0.5442  0.1229
 5137TIP3    H215376   4.996   1.871   4.369 -0.5753 -0.4899 -0.2489
 5138TIP3   OH215377   2.885   3.607   1.484  0.3800  0.2251 -0.0696
 5138TIP3    H115378   2.794   3.636   1.498  0.4471  0.8297 -0.8473
 5138TIP3    H215379   2.896   3.608   1.389  1.5008  1.0733  0.0593
 5139TIP3   OH215380   6.051   0.134   4.138 -0.9302  0.5515  0.0031
 5139TIP3    H115381   6.049   0.230   4.147 -3.2444  0.7764 -1.9468
 5139TIP3    H215382   6.013   0.102   4.219 -0.7633  1.3048  0.3911
 5140TIP3   OH215383   1.903   6.694   3.002 -0.1152  0.3318 -0.4012
 5140TIP3    H115384   1.893   6.745   2.922  2.1997  0.4954 -0.6346
 5140TIP3    H215385   1.994   6.664   3.001 -0.4218 -0.8463  1.4879
 5141TIP3   OH215386   2.616   0.338   4.140  0.1889 -0.1506  0.2110
 5141TIP3    H115387   2.631   0.339   4.046 -0.4387 -0.9457  0.0886
 5141TIP3    H215388   2.590   0.248   4.160  1.3681 -0.2745  1.3255
 5142TIP3   OH215389   0.158   6.028   1.642  0.3225 -0.2105 -0.0455
 5142TIP3    H115390   0.191   5.939   1.627  0.1712 -0.7114  2.2128
 5142TIP3    H215391   0.086   6.016   1.704  2.1833  1.6855  2.6888
 5143TIP3   OH215392   6.310   0.168   5.812  0.2100 -0.2314 -0.4755
 5143TIP3    H115393   6.287   0.212   5.894  1.7383 -0.4515  0.0998
 5143TIP3    H215394   6.297   0.236   5.745 -1.0927 -0.0625 -0.0812
 5144TIP3   OH215395   6.913   4.302   1.950  0.0109  0.5357 -0.1200
 5144TIP3    H115396   6.910   4.206   1.947  1.8539  0.4440  0.0316
 5144TIP3    H215397   7.001   4.322   1.983 -0.4849  2.2803  0.2202
 5145TIP3   OH215398   6.648   1.514   3.482 -0.4148  0.0752 -0.7514
 5145TIP3    H115399   6.586   1.503   3.554 -1.7296  0.4510 -1.7590
 5145TIP3    H215400   6.734   1.498   3.520 -1.0619  0.3323  0.8938
 5146TIP3   OH215401   5.927   0.073   5.535 -0.3243 -0.1629 -0.2466
 5146TIP3    H115402   5.982   0.045   5.608 -0.2401  1.8406  0.5350
 5146TIP3    H215403   5.839   0.043   5.557 -0.2236  0.0670  0.5007
 5147TIP3   OH215404   4.009   1.785   2.821  0.0531 -0.3080 -0.4888
 5147TIP3    H115405   3.944   1.716   2.828  0.7910 -1.0530 -0.7880
 5147TIP3    H215406   4.084   1.744   2.778  0.8390  0.4311  0.1141
 5148TIP3   OH215407   1.922   0.404   0.751  0.5760 -0.4703 -0.3077
 5148TIP3    H115408   1.860   0.350   0.702 -0.7336  1.8303 -1.3446
 5148TIP3    H215409   1.968   0.454   0.684  0.6398  0.8277  0.6747
 5149TIP3   OH215410   4.809   0.486   5.342  0.0483  0.1643  0.0957
 5149TIP3    H115411   4.738   0.489   5.407 -1.1227 -0.7142 -1.0835
 5149TIP3    H215412   4.813   0.395   5.314  0.7719  0.4485 -0.7951
 5150TIP3   OH215413   4.608   0.297   5.095 -0.1628  0.2202  0.6091
 5150TIP3    H115414   4.700   0.282   5.076  0.7152  1.2338  3.5068
 5150TIP3    H215415   4.575   0.210   5.121  0.2550  0.0685  0.6390
 5151TIP3   OH215416   7.029   6.566   2.838 -0.1468  0.0144 -0.4897
 5151TIP3    H115417   7.111   6.549   2.883 -1.8605 -2.0697  2.1655
 5151TIP3    H215418   7.009   6.484   2.792 -0.9663  0.3187 -0.6946
 5152TIP3   OH215419   0.330   5.444   5.485  0.6141 -0.0028 -0.0854
 5152TIP3    H115420   0.321   5.532   5.523 -0.0397  0.1324 -0.5312
 5152TIP3    H215421   0.317   5.457   5.391 -1.2785 -0.8050  0.0266
 5153TIP3   OH215422   5.877   2.562   4.907  0.1115 -0.0937  0.1097
 5153TIP3    H115423   5.944   2.503   4.871  0.5779  0.6724 -0.3095
 5153TIP3    H215424   5.820   2.582   4.832 -1.8315 -2.3127  0.8654
 5154TIP3   OH215425   5.197   0.214   5.750 -0.0649  0.1824  0.7040
 5154TIP3    H115426   5.157   0.208   5.662 -0.2569  1.2937  0.7025
 5154TIP3    H215427   5.122   0.215   5.810  0.0733 -0.8307  0.9151
 5155TIP3   OH215428   5.993   1.579   3.865 -0.0761 -0.0226  0.0262
 5155TIP3    H115429   5.922   1.599   3.804  1.3720 -0.2782 -1.8254
 5155TIP3    H215430   5.999   1.484   3.864 -1.4242 -0.2247  2.3238
 5156TIP3   OH215431   3.926   0.769   4.836  0.2153 -0.1308  0.7345
 5156TIP3    H115432   3.953   0.776   4.928 -2.7845  0.6652  1.6681
 5156TIP3    H215433   3.833   0.744   4.840  0.2513 -1.1078 -2.1270
 5157TIP3   OH215434   2.756   3.588   3.100 -0.6639 -0.4700 -0.4513
 5157TIP3    H115435   2.742   3.547   3.014 -1.1378 -0.0456 -0.5859
 5157TIP3    H215436   2.835   3.641   3.089  0.0126 -1.4128 -0.2449
 5158TIP3   OH215437   6.903   1.912   5.075 -0.3629 -0.4856 -0.1189
 5158TIP3    H115438   6.991   1.913   5.111  0.7352 -0.3173 -2.6182
 5158TIP3    H215439   6.878   1.819   5.076 -0.2339 -0.5211  0.6879
 5159TIP3   OH215440   0.463   3.415   1.727  0.7198 -0.2299  0.0780
 5159TIP3    H115441   0.470   3.405   1.632  0.8127 -2.0418  0.2322
 5159TIP3    H215442   0.547   3.385   1.760  0.8445  0.7928  0.7366
 5160TIP3   OH215443   2.801   3.870   2.138  0.0893  0.0091  0.1066
 5160TIP3    H115444   2.771   3.820   2.213 -0.1255  0.8415  0.5957
 5160TIP3    H215445   2.728   3.869   2.077  0.0986 -0.2939  0.1005
 5161TIP3   OH215446   6.925   4.333   2.655  0.3883  0.6480  0.2350
 5161TIP3    H115447   6.937   4.423   2.683  1.3128  0.3673  0.7732
 5161TIP3    H215448   6.872   4.293   2.724  1.6498  0.2757  1.0276
 5162TIP3   OH215449   2.556   5.807   1.282 -0.0416 -0.5171 -0.0436
 5162TIP3    H115450   2.474   5.814   1.331 -0.7794  0.5673 -1.3729
 5162TIP3    H215451   2.605   5.884   1.307 -0.0366 -0.4313 -0.3127
 5163TIP3   OH215452   4.278   6.529   1.360  0.1894 -0.2614  0.3640
 5163TIP3    H115453   4.358   6.476   1.360  0.1194 -0.3849 -0.5736
 5163TIP3    H215454   4.264   6.551   1.452  1.7959  0.5303  0.4552
 5164TIP3   OH215455   0.290   3.120   5.106  0.0093 -0.0096 -0.6404
 5164TIP3    H115456   0.311   3.140   5.198  0.3536  1.0715 -0.9310
 5164TIP3    H215457   0.231   3.191   5.079  0.5624  0.1493 -1.4803
 5165TIP3   OH215458   5.734   3.557   3.459 -0.3255  0.0301 -0.0969
 5165TIP3    H115459   5.679   3.631   3.485 -1.0023 -0.6009  0.2985
 5165TIP3    H215460   5.677   3.481   3.467  0.4335 -0.5665 -0.2653
 5166TIP3   OH215461   5.385   1.325   5.044 -0.6375 -0.4622 -0.0572
 5166TIP3    H115462   5.407   1.385   5.116  0.1854 -0.6697 -0.1263
 5166TIP3    H215463   5.319   1.372   4.994 -0.5202  0.0971  0.2964
 5167TIP3   OH215464   2.621   2.360   0.360  0.3459  0.2107  0.2059
 5167TIP3    H115465   2.686   2.348   0.290  0.5519 -1.3051  0.6297
 5167TIP3    H215466   2.669   2.406   0.429  0.5226  0.4799 -0.0865
 5168TIP3   OH215467   4.363   3.889   1.220 -0.1094  0.2605  0.8980
 5168TIP3    H115468   4.283   3.837   1.222  0.7167 -1.0941  0.8706
 5168TIP3    H215469   4.342   3.964   1.164 -1.1471 -0.4306  0.3193
 5169TIP3   OH215470   4.078   5.503   3.700 -0.0214  0.4045 -0.1971
 5169TIP3    H115471   4.009   5.442   3.675 -0.6490  1.1331 -0.2480
 5169TIP3    H215472   4.050   5.539   3.784 -0.4180  1.7694 -0.8882
 5170TIP3   OH215473   4.789   5.379   1.209 -0.6115  0.4444 -0.3069
 5170TIP3    H115474   4.732   5.305   1.229 -1.8798  1.6357  0.6566
 5170TIP3    H215475   4.831   5.355   1.126 -0.7534 -1.4585  0.1257
 5171TIP3   OH215476   4.837   2.371   3.085 -0.5052 -0.4386  0.0532
 5171TIP3    H115477   4.742   2.373   3.073 -0.5888 -1.3564  0.4506
 5171TIP3    H215478   4.872   2.392   2.999 -1.0782 -0.5338 -0.2109
 5172TIP3   OH215479   1.694   2.606   0.250  0.0261 -0.3334  0.1326
 5172TIP3    H115480   1.633   2.553   0.198 -1.7986  0.6370  1.1869
 5172TIP3    H215481   1.726   2.547   0.318 -0.3571 -0.6572  0.0346
 5173TIP3   OH215482   0.930   5.766   5.108 -0.0146 -0.1686  0.1188
 5173TIP3    H115483   0.994   5.837   5.097 -0.9447  0.5266 -0.9934
 5173TIP3    H215484   0.848   5.801   5.073 -0.7340 -1.4535  0.4486
 5174TIP3   OH215485   0.547   0.020   2.043 -0.4996  0.4006 -0.2331
 5174TIP3    H115486   0.549   0.040   2.137  0.0689 -0.3701 -0.0735
 5174TIP3    H215487   0.480  -0.048   2.035  0.0406 -0.1403 -0.2529
 5175TIP3   OH215488   1.514   6.379   0.726  0.0850  0.2624 -0.2800
 5175TIP3    H115489   1.476   6.368   0.639 -0.7143 -1.2917  0.2330
 5175TIP3    H215490   1.455   6.438   0.771 -2.1362 -2.4358  0.6444
 5176TIP3   OH215491   5.168   5.227   4.251  0.1826  0.2677  0.3543
 5176TIP3    H115492   5.202   5.145   4.288  3.0440  0.3446 -1.7424
 5176TIP3    H215493   5.124   5.200   4.170  0.5833  0.7314 -0.0185
 5177TIP3   OH215494   0.246   3.156   5.477  0.2302  0.3957  0.5560
 5177TIP3    H115495   0.257   3.250   5.490 -2.3735  0.8837 -0.1448
 5177TIP3    H215496   0.291   3.116   5.551  1.1431  2.1909  1.0271
 5178TIP3   OH215497   0.411   6.150   1.121 -0.6604 -0.0271 -0.3864
 5178TIP3    H115498   0.441   6.093   1.192 -0.6077 -0.8359 -1.0447
 5178TIP3    H215499   0.410   6.237   1.160  3.1463  0.1945 -0.4154
 5179TIP3   OH215500   4.066   0.321   2.198 -0.0486  0.2930 -0.6513
 5179TIP3    H115501   3.987   0.368   2.225 -1.7938 -1.7977 -1.7851
 5179TIP3    H215502   4.103   0.375   2.128 -0.9263  0.9093 -0.6607
 5180TIP3   OH215503   5.543   0.171   3.982 -0.4194 -0.0174  0.5282
 5180TIP3    H115504   5.615   0.109   3.971 -3.0239 -3.7719  2.4727
 5180TIP3    H215505   5.545   0.194   4.075  0.2533  2.7490 -0.0743
 5181TIP3   OH215506   3.495   1.397   1.410 -0.3043 -0.8360 -0.5137
 5181TIP3    H115507   3.452   1.462   1.466 -0.0078 -0.0115 -1.2104
 5181TIP3    H215508   3.517   1.325   1.469 -0.4079 -0.1939  0.3336
 5182TIP3   OH215509   0.345   1.858   3.041 -0.1264 -0.6088 -0.3948
 5182TIP3    H115510   0.328   1.867   3.134  0.4677 -1.1324 -0.2248
 5182TIP3    H215511   0.387   1.940   3.016  1.0850 -1.0353  0.1414
 5183TIP3   OH215512   7.137   0.594   0.198 -0.6861 -0.1744  0.0681
 5183TIP3    H115513   7.126   0.688   0.189 -1.1147 -0.3655 -2.1932
 5183TIP3    H215514   7.049   0.558   0.182 -0.3909 -0.9833  0.2046
 5184TIP3   OH215515   5.328   5.837   4.218 -0.0784  0.2637  0.0774
 5184TIP3    H115516   5.243   5.881   4.223 -0.0034  0.2904  1.5467
 5184TIP3    H215517   5.308   5.744   4.227 -0.0220  0.1890 -0.5194
 5185TIP3   OH215518   2.441   2.424   0.183  0.1835 -0.2809 -0.2224
 5185TIP3    H115519   2.376   2.353   0.186  0.0023 -0.1037  0.1262
 5185TIP3    H215520   2.502   2.404   0.254 -1.3634  1.3153  1.6792
 5186TIP3   OH215521   1.242   1.548   2.568  0.3637 -0.1034  0.4624
 5186TIP3    H115522   1.282   1.583   2.648 -1.2272  0.7734  0.9178
 5186TIP3    H215523   1.149   1.539   2.590  0.3052 -2.4508 -0.4141
 5187TIP3   OH215524   4.586   0.586   3.436 -0.7906 -0.2865  0.3177
 5187TIP3    H115525   4.675   0.612   3.410 -0.8903  1.2675  1.3536
 5187TIP3    H215526   4.588   0.589   3.531 -1.8337 -0.6934  0.3579
 5188TIP3   OH215527   1.297   0.165   2.053 -0.4580 -0.3214 -0.1867
 5188TIP3    H115528   1.229   0.099   2.065  0.0699 -0.9392 -0.4916
 5188TIP3    H215529   1.294   0.185   1.959  0.0784 -0.6964 -0.2915
 5189TIP3   OH215530   2.484   4.311   5.208  0.3620 -0.6520 -0.5823
 5189TIP3    H115531   2.519   4.393   5.175  1.7448  0.1587  2.5938
 5189TIP3    H215532   2.406   4.336   5.258 -0.7154 -1.6426 -1.6812
 5190TIP3   OH215533   1.638   2.900   4.347  0.2834 -0.0532 -0.1559
 5190TIP3    H115534   1.647   2.872   4.438  1.6091 -0.4100 -0.3730
 5190TIP3    H215535   1.544   2.912   4.335 -0.0440 -1.3721  0.8472
 5191TIP3   OH215536   0.558   2.167   4.547  0.2195 -0.3514  0.3430
 5191TIP3    H115537   0.570   2.072   4.554 -0.9432 -0.5725 -0.3593
 5191TIP3    H215538   0.573   2.200   4.635  3.1295 -0.8552  0.1255
 5192TIP3   OH215539   2.955   4.101   1.205 -0.3933  0.0789 -0.8485
 5192TIP3    H115540   3.024   4.148   1.253 -1.2727  0.3916  0.1438
 5192TIP3    H215541   2.952   4.015   1.246 -0.5888  0.0581 -0.9073
 5193TIP3   OH215542   6.713   3.600   3.658 -0.2190 -0.2719  0.0210
 5193TIP3    H115543   6.801   3.565   3.669 -0.0415 -0.0812 -0.7218
 5193TIP3    H215544   6.655   3.534   3.696  0.2416 -0.3544  0.5993
 5194TIP3   OH215545   2.644   2.515   4.926  0.4433 -0.0021  0.3674
 5194TIP3    H115546   2.685   2.450   4.984 -0.1622 -1.0996 -0.3958
 5194TIP3    H215547   2.689   2.505   4.843 -1.0080 -0.9109 -0.3571
 5195TIP3   OH215548   6.680   3.974   4.162 -0.0731 -0.1151 -0.4864
 5195TIP3    H115549   6.735   4.049   4.186 -1.8662  0.6821  1.4635
 5195TIP3    H215550   6.710   3.903   4.218  0.9682 -0.6444 -1.6446
 5196TIP3   OH215551   3.428   1.481   5.241 -0.2251  0.1390 -0.0377
 5196TIP3    H115552   3.372   1.509   5.168  0.2995  1.7060  0.1264
 5196TIP3    H215553   3.417   1.386   5.245  3.0534 -0.8038 -4.9767
 5197TIP3   OH215554   1.575   6.464   2.809  0.3056 -0.1608 -0.0619
 5197TIP3    H115555   1.647   6.444   2.749  0.7132 -1.9015  0.9180
 5197TIP3    H215556   1.528   6.381   2.818 -0.3177  0.3066  1.2641
 5198TIP3   OH215557   6.823   1.823   1.792  0.0886 -0.8608  0.0594
 5198TIP3    H115558   6.852   1.733   1.801  0.2650 -1.0486 -2.0749
 5198TIP3    H215559   6.903   1.873   1.773  0.0143 -0.2061  1.3444
 5199TIP3   OH215560   0.500   0.834   3.035  0.2419 -0.2581  0.1404
 5199TIP3    H115561   0.512   0.929   3.029  0.3864 -0.3415 -1.2172
 5199TIP3    H215562   0.485   0.806   2.944  1.1582 -1.6631  0.3899
 5200TIP3   OH215563   4.380   1.127   3.713  0.0784  0.2874  0.5612
 5200TIP3    H115564   4.423   1.046   3.684  0.8388  0.4212  1.2571
 5200TIP3    H215565   4.385   1.123   3.809  0.9229  1.5680  0.5911
 5201TIP3   OH215566   6.787   5.016   1.977  0.2940 -0.0517 -0.5988
 5201TIP3    H115567   6.766   4.942   2.034  0.6423  0.1066 -0.2556
 5201TIP3    H215568   6.727   5.086   2.006  1.1281  0.3380  0.2471
 5202TIP3   OH215569   1.687   6.672   3.920 -0.2977  0.2750  0.0553
 5202TIP3    H115570   1.691   6.696   3.828 -0.3822 -2.7222 -0.8420
 5202TIP3    H215571   1.597   6.690   3.946 -0.6644 -0.1664 -0.8819
 5203TIP3   OH215572   2.882   4.845   0.978 -0.1267 -0.5231 -0.0451
 5203TIP3    H115573   2.885   4.925   1.031 -0.4562 -1.0454  0.7820
 5203TIP3    H215574   2.793   4.843   0.943 -1.1266 -2.0455  2.3858
 5204TIP3   OH215575   5.130   5.113   5.572 -0.4387 -0.0762  0.0173
 5204TIP3    H115576   5.087   5.149   5.650  0.6107  2.6618 -0.5385
 5204TIP3    H215577   5.224   5.122   5.591 -0.0769 -3.0110 -0.0480
 5205TIP3   OH215578   0.499   2.689   2.762 -0.6706 -0.4329 -0.0293
 5205TIP3    H115579   0.408   2.712   2.747 -0.3685  0.8170 -0.0720
 5205TIP3    H215580   0.524   2.737   2.841  0.0735 -0.4135 -0.2615
 5206TIP3   OH215581   5.410   2.643   2.231  0.0529 -0.2517  0.3332
 5206TIP3    H115582   5.373   2.599   2.307  0.2348  0.1079  0.6311
 5206TIP3    H215583   5.403   2.579   2.160  0.0569 -0.6531  0.6962
 5207TIP3   OH215584   7.179   1.079   1.246 -0.4318 -0.4747 -0.7545
 5207TIP3    H115585   7.159   0.986   1.254  0.5320 -0.5278  2.2662
 5207TIP3    H215586   7.269   1.082   1.213 -0.5947 -0.5822 -1.2154
 5208TIP3   OH215587   6.438   2.436   4.445 -0.2872 -0.1886 -0.3911
 5208TIP3    H115588   6.400   2.378   4.512 -0.6186  0.3528 -0.1023
 5208TIP3    H215589   6.383   2.515   4.448  0.0335  0.0586 -0.9241
 5209TIP3   OH215590   0.188   3.446   1.820 -0.3333  0.1495  0.5250
 5209TIP3    H115591   0.284   3.444   1.822 -0.2499  1.6520 -0.4442
 5209TIP3    H215592   0.164   3.404   1.738 -0.4660  0.5186  0.3737
 5210TIP3   OH215593   2.674   2.045   0.818  0.4012  0.1206 -0.7006
 5210TIP3    H115594   2.728   1.969   0.839 -0.3572 -0.2120  0.0924
 5210TIP3    H215595   2.725   2.094   0.753  0.8061 -1.1739 -1.3794
 5211TIP3   OH215596   4.892   1.915   3.872 -0.2206 -0.0487  0.0287
 5211TIP3    H115597   4.857   1.911   3.961  2.0277 -0.5041  0.9554
 5211TIP3    H215598   4.826   1.964   3.823 -1.2662  0.7157  2.0662
 5212TIP3   OH215599   6.609   2.614   0.167  0.0918 -0.3525  0.1346
 5212TIP3    H115600   6.692   2.662   0.158  0.3798 -1.0968 -1.6747
 5212TIP3    H215601   6.636   2.523   0.185 -0.2316 -0.8467 -1.6418
 5213TIP3   OH215602   0.010   6.220   2.330 -0.3109 -0.3474 -0.1429
 5213TIP3    H115603  -0.062   6.167   2.364 -0.4425 -0.0034  0.1176
 5213TIP3    H215604   0.071   6.228   2.404 -0.9858  1.0918  0.2957
 5214TIP3   OH215605   0.527   5.711   4.819  0.2426  0.5399  0.9400
 5214TIP3    H115606   0.439   5.728   4.851 -0.0552 -0.3857  0.6376
 5214TIP3    H215607   0.514   5.657   4.742  1.1185 -0.6785  1.6154
 5215TIP3   OH215608   6.944   5.072   0.423  0.6356 -0.1015 -0.4405
 5215TIP3    H115609   6.992   4.990   0.416 -0.5438 -0.9617  1.0179
 5215TIP3    H215610   6.897   5.080   0.340 -0.7457 -1.9148  0.1209
 5216TIP3   OH215611   4.647   4.998   4.795 -0.2765 -0.5037 -0.0927
 5216TIP3    H115612   4.641   4.903   4.805  0.4243 -0.4145  1.3192
 5216TIP3    H215613   4.738   5.014   4.773 -0.7860 -0.2823 -2.2650
 5217TIP3   OH215614   4.872   4.913   1.624 -0.2165  0.1586 -0.0689
 5217TIP3    H115615   4.887   4.824   1.592 -2.4932 -1.0141  1.8463
 5217TIP3    H215616   4.817   4.954   1.557 -1.7919 -0.9915  0.4738
 5218TIP3   OH215617   2.504   4.296   3.405  0.2176 -0.3251  0.2356
 5218TIP3    H115618   2.473   4.223   3.458 -0.3860 -0.2335  0.0172
 5218TIP3    H215619   2.584   4.263   3.364  0.7353 -0.3660  1.2529
 5219TIP3   OH215620   6.257   6.086   4.173 -0.4393  0.4430  0.0753
 5219TIP3    H115621   6.210   6.156   4.128  0.3659  0.5696 -0.5965
 5219TIP3    H215622   6.252   6.011   4.113  2.1187  1.1088 -1.1193
 5220TIP3   OH215623   1.290   3.910   0.236  0.2387  0.3884  0.7430
 5220TIP3    H115624   1.228   3.981   0.220  0.5986  0.2968 -1.2666
 5220TIP3    H215625   1.281   3.892   0.330 -1.4769  1.5572  0.8567
 5221TIP3   OH215626   2.042   5.895   0.330  0.5982  0.0423 -0.1321
 5221TIP3    H115627   2.055   5.866   0.240  0.6231 -0.1236 -0.0763
 5221TIP3    H215628   2.078   5.984   0.333  0.0921  0.2570 -0.4228
 5222TIP3   OH215629   0.156   5.570   4.661 -0.2809  0.3896 -0.2000
 5222TIP3    H115630   0.171   5.597   4.571  0.0435  0.2507 -0.1894
 5222TIP3    H215631   0.175   5.476   4.661 -2.9085 -0.2338 -0.6017
 5223TIP3   OH215632   4.066   5.183   1.651  0.2427 -0.1672  0.2832
 5223TIP3    H115633   4.040   5.118   1.586 -2.8720  1.1444  0.0641
 5223TIP3    H215634   4.060   5.137   1.735 -0.3498 -0.6138  0.0049
 5224TIP3   OH215635   6.877   6.208   5.640  0.4036  0.2139  0.0130
 5224TIP3    H115636   6.892   6.138   5.576  0.0615  0.8043 -0.7331
 5224TIP3    H215637   6.893   6.167   5.725  1.8821 -0.3219 -0.4957
 5225TIP3   OH215638   6.787   3.189   4.325 -0.0311  0.7408 -0.2014
 5225TIP3    H115639   6.803   3.128   4.253  0.2819  0.5779  0.0042
 5225TIP3    H215640   6.779   3.133   4.402  1.7329  1.0466  0.2358
 5226TIP3   OH215641   4.517   3.645   2.568 -0.0463 -0.4337 -0.7563
 5226TIP3    H115642   4.512   3.739   2.552  1.2814 -0.5450 -1.9979
 5226TIP3    H215643   4.480   3.605   2.489  1.3935 -0.9451 -1.2081
 5227TIP3   OH215644   0.421   6.332   5.194  0.3423 -0.0589  0.3403
 5227TIP3    H115645   0.339   6.375   5.167  0.4228 -1.1505 -1.8727
 5227TIP3    H215646   0.478   6.340   5.118  1.5921 -1.0336  1.1408
 5228TIP3   OH215647   4.834   2.434   5.765 -0.1109  0.1441  0.5115
 5228TIP3    H115648   4.800   2.513   5.724  0.1110  0.0849  0.2156
 5228TIP3    H215649   4.759   2.373   5.767 -0.3804  0.4813  1.0638
 5229TIP3   OH215650   3.311   6.244   4.221  1.1843  0.2639 -0.1598
 5229TIP3    H115651   3.245   6.258   4.153  1.2212 -1.4351 -0.5977
 5229TIP3    H215652   3.372   6.317   4.211 -0.6074  1.8944  0.2821
 5230TIP3   OH215653   0.363   0.038   3.943 -0.0069 -0.3040 -0.2607
 5230TIP3    H115654   0.439   0.094   3.931  0.0188  0.1986  1.8862
 5230TIP3    H215655   0.291   0.098   3.963 -0.2626 -0.9391  0.7936
 5231TIP3   OH215656   1.715   6.574   3.152 -0.1438  0.1732 -0.4429
 5231TIP3    H115657   1.654   6.569   3.078  1.4387 -3.6836 -1.7534
 5231TIP3    H215658   1.798   6.601   3.113  0.2625 -0.0320  0.2626
 5232TIP3   OH215659   6.521   4.358   3.951 -0.1718 -0.1362 -0.1254
 5232TIP3    H115660   6.486   4.345   4.039 -0.3230  1.1267  0.0086
 5232TIP3    H215661   6.448   4.394   3.901  0.2324  0.2045 -0.4799
 5233TIP3   OH215662   2.290   0.018   2.790  0.6921  0.1674 -0.1303
 5233TIP3    H115663   2.258  -0.072   2.801  0.8464 -0.0388 -1.2630
 5233TIP3    H215664   2.227   0.072   2.838  1.7563 -0.6937  2.3757
 5234TIP3   OH215665   2.895   6.475   3.661 -0.2644 -0.0964  0.1706
 5234TIP3    H115666   2.812   6.428   3.659 -1.4138  1.8541  0.0902
 5234TIP3    H215667   2.889   6.538   3.590  1.3325  0.0497  0.1255
 5235TIP3   OH215668   2.008   4.518   2.760  0.5610  0.2449 -0.1515
 5235TIP3    H115669   2.007   4.512   2.855  1.2056 -0.8199 -0.2020
 5235TIP3    H215670   1.920   4.490   2.733  0.7619 -0.6388  0.0790
 5236TIP3   OH215671   6.608   1.005   1.014  0.1152 -0.7576 -0.1525
 5236TIP3    H115672   6.614   1.076   1.078  0.3915 -0.3036 -0.6742
 5236TIP3    H215673   6.589   0.928   1.067 -0.1927 -0.3015  0.4269
 5237TIP3   OH215674   4.250   6.200   1.931  0.0694  0.3667  0.6034
 5237TIP3    H115675   4.254   6.268   1.863 -0.0580 -0.6841 -0.4937
 5237TIP3    H215676   4.327   6.215   1.985 -0.2967  1.7705  0.7729
 5238TIP3   OH215677   1.441   1.933   5.778 -0.4314  0.7539  0.2627
 5238TIP3    H115678   1.459   1.842   5.756 -0.6926  0.3961  1.4241
 5238TIP3    H215679   1.461   1.982   5.699  1.8327 -0.0472  0.2782
 5239TIP3   OH215680   2.631   1.866   4.982 -0.3498 -0.2620 -0.0292
 5239TIP3    H115681   2.605   1.909   4.900 -2.1089 -1.2511 -0.0228
 5239TIP3    H215682   2.709   1.915   5.010 -0.1712  0.6040 -1.8691
 5240TIP3   OH215683   4.459   0.178   5.782  0.1314 -0.1688  0.3739
 5240TIP3    H115684   4.379   0.147   5.741  0.9094 -1.6912 -0.0621
 5240TIP3    H215685   4.440   0.268   5.806 -0.4769  0.7414 -3.0189
 5241TIP3   OH215686   5.275   1.416   4.191  0.5491 -0.0375 -0.1345
 5241TIP3    H115687   5.309   1.334   4.155 -0.2436 -0.5069  0.1676
 5241TIP3    H215688   5.218   1.450   4.122 -1.2840 -1.1346  0.7564
 5242TIP3   OH215689   5.554   4.256   3.831 -0.1336  0.1123  0.7431
 5242TIP3    H115690   5.607   4.206   3.769 -0.9488  0.7459 -0.5066
 5242TIP3    H215691   5.610   4.267   3.908  0.5724 -1.4762  0.4883
 5243TIP3   OH215692   2.499   1.525   0.379 -0.4895  0.7053 -0.0858
 5243TIP3    H115693   2.583   1.561   0.407  0.5055 -0.2330 -1.6897
 5243TIP3    H215694   2.433   1.580   0.422  0.9152  1.0192  1.7807
 5244TIP3   OH215695   4.793   2.577   4.306 -0.1498  0.5056  0.2786
 5244TIP3    H115696   4.864   2.625   4.262  0.1849 -0.0853  0.1563
 5244TIP3    H215697   4.822   2.568   4.397  0.0828  0.0025  0.1617
 5245TIP3   OH215698   5.696   3.235   2.224  0.0097 -0.0728  0.1656
 5245TIP3    H115699   5.719   3.272   2.139  0.4263  0.2856  0.4265
 5245TIP3    H215700   5.655   3.151   2.204  2.7768 -1.4238 -0.3142
 5246TIP3   OH215701   1.587   4.872   3.361  0.2320  0.1026 -0.1099
 5246TIP3    H115702   1.615   4.830   3.443  0.4828 -0.3447 -0.4158
 5246TIP3    H215703   1.498   4.900   3.377 -1.0994 -3.2022 -0.8186
 5247TIP3   OH215704   6.366   4.062   5.231 -0.1052 -0.1650 -0.6617
 5247TIP3    H115705   6.331   3.980   5.195  2.4352 -1.5866 -0.1677
 5247TIP3    H215706   6.406   4.106   5.156  1.2272 -0.9435 -0.4538
 5248TIP3   OH215707   1.502   1.599   4.501 -0.1231  0.1175  0.4072
 5248TIP3    H115708   1.416   1.566   4.530  0.1003 -0.4012  0.4974
 5248TIP3    H215709   1.506   1.688   4.535  0.0611 -0.4151  1.8468
 5249TIP3   OH215710   6.603   6.214   2.716 -0.7055  0.0336  0.1288
 5249TIP3    H115711   6.633   6.301   2.743 -0.8337  0.2764 -0.5025
 5249TIP3    H215712   6.541   6.231   2.646 -0.6522 -0.5736 -0.0676
 5250TIP3   OH215713   0.478   5.743   2.691 -0.3679 -0.1082  0.2596
 5250TIP3    H115714   0.427   5.804   2.637 -1.0068 -0.5439  0.3683
 5250TIP3    H215715   0.515   5.681   2.628 -2.0300 -1.2911  0.4022
 5251TIP3   OH215716   5.475   3.246   0.666 -0.1114 -0.4545 -0.3528
 5251TIP3    H115717   5.513   3.263   0.752 -0.4257 -1.0471 -0.0829
 5251TIP3    H215718   5.509   3.315   0.610 -2.5374  2.0376  0.9882
 5252TIP3   OH215719   6.037   6.208   2.743 -0.4715 -0.4057  0.0561
 5252TIP3    H115720   5.995   6.276   2.797  1.7212  1.2350 -0.1627
 5252TIP3    H215721   6.120   6.247   2.716 -0.4512 -2.0625 -2.6210
 5253TIP3   OH215722   0.037   0.722   1.467  0.5423 -0.6183  0.2979
 5253TIP3    H115723   0.117   0.728   1.415 -0.3812  0.3401 -1.0914
 5253TIP3    H215724  -0.015   0.655   1.423  0.3536 -0.8527  0.8705
 5254TIP3   OH215725   1.101   3.905   5.355 -0.1756 -0.1864 -0.1190
 5254TIP3    H115726   1.141   3.957   5.285  2.0581 -0.7271  0.6757
 5254TIP3    H215727   1.126   3.815   5.335 -2.5280 -0.8092 -0.5152
 5255TIP3   OH215728   1.112   1.688   5.816  0.1260  0.0046 -0.0446
 5255TIP3    H115729   1.162   1.746   5.758  0.5974 -0.6584 -0.3098
 5255TIP3    H215730   1.023   1.722   5.813  0.4823  1.0029  0.1737
 5256TIP3   OH215731   6.245   0.806   3.406 -0.6695  0.1541 -0.6984
 5256TIP3    H115732   6.228   0.817   3.312 -0.1906  0.5234 -0.7498
 5256TIP3    H215733   6.306   0.877   3.427 -0.6396 -0.0338 -0.1425
 5257TIP3   OH215734   5.162   5.463   1.786 -0.5445  0.3707 -0.7037
 5257TIP3    H115735   5.113   5.485   1.708 -1.5205 -0.1589 -0.2515
 5257TIP3    H215736   5.099   5.472   1.858  0.2670  0.6152 -0.0042
 5258TIP3   OH215737   6.314   0.598   5.030  0.4951 -0.2451  0.4685
 5258TIP3    H115738   6.395   0.643   5.055 -1.1376  2.5027  1.2295
 5258TIP3    H215739   6.293   0.543   5.106 -0.0784  1.6579  1.7512
 5259TIP3   OH215740   1.021   3.615   3.387 -0.0482 -0.2586 -0.0470
 5259TIP3    H115741   1.072   3.687   3.425 -0.0752  0.6441 -1.6514
 5259TIP3    H215742   0.950   3.658   3.340 -0.8532 -1.4135  0.0701
 5260TIP3   OH215743   3.281   6.163   2.849 -0.9539 -0.1676  0.2898
 5260TIP3    H115744   3.368   6.200   2.860 -1.1624  0.5536 -0.4140
 5260TIP3    H215745   3.222   6.234   2.875 -1.3405 -0.4868  0.2920
 5261TIP3   OH215746   6.149   6.365   3.060 -0.0720 -0.2811  0.2350
 5261TIP3    H115747   6.065   6.321   3.073  0.4218 -1.6933 -1.0441
 5261TIP3    H215748   6.158   6.423   3.136 -1.0819 -1.8996  1.6629
 5262TIP3   OH215749   0.256   5.324   0.709 -0.3107  0.5250  0.0323
 5262TIP3    H115750   0.346   5.327   0.679 -0.1080 -3.0430 -0.0887
 5262TIP3    H215751   0.205   5.357   0.635  0.7890  2.1421 -0.0598
 5263TIP3   OH215752   2.139   6.568   2.961  0.6611 -0.2664 -0.2618
 5263TIP3    H115753   2.100   6.538   2.879 -0.0994  1.0391 -0.4038
 5263TIP3    H215754   2.214   6.510   2.975 -0.9652 -2.5208 -0.2598
 5264TIP3   OH215755   0.370   2.513   0.607  0.4662  0.0703  1.1165
 5264TIP3    H115756   0.423   2.479   0.679  1.5563 -1.3592 -0.2857
 5264TIP3    H215757   0.432   2.526   0.535 -0.7300  0.5277  0.1247
 5265TIP3   OH215758   1.546   3.892   2.064  0.1372  0.4391  0.1350
 5265TIP3    H115759   1.608   3.851   2.004  3.8755  0.6436  3.3881
 5265TIP3    H215760   1.483   3.824   2.085  0.6437 -0.5937 -1.5229
 5266TIP3   OH215761   5.596   3.416   3.790  0.3697  0.8260 -0.1115
 5266TIP3    H115762   5.691   3.409   3.792  0.2439 -1.6551  1.6706
 5266TIP3    H215763   5.565   3.327   3.807 -2.2483  1.9774  1.8261
 5267TIP3   OH215764   7.120   5.023   3.705  0.1075  0.0628 -0.5887
 5267TIP3    H115765   7.100   5.007   3.613 -2.0563  1.5236 -0.4396
 5267TIP3    H215766   7.110   5.117   3.716  0.6173 -0.0490  1.0917
 5268TIP3   OH215767   3.660   3.943   4.215  0.2723 -0.2622 -0.4926
 5268TIP3    H115768   3.570   3.953   4.245  1.2590  0.7142  2.4769
 5268TIP3    H215769   3.693   4.032   4.207  1.2049 -0.6141 -0.7162
 5269TIP3   OH215770   4.535   3.189   5.533  0.1774 -0.4244  0.4977
 5269TIP3    H115771   4.493   3.252   5.592  2.5938  1.0801  0.7489
 5269TIP3    H215772   4.608   3.154   5.584  0.5563 -1.3120 -0.6192
 5270TIP3   OH215773   0.262   0.805   3.210 -0.1496  0.3913 -0.9987
 5270TIP3    H115774   0.321   0.818   3.136  1.4172  0.8347  0.2778
 5270TIP3    H215775   0.299   0.858   3.280 -1.4811 -0.1714  0.1839
 5271TIP3   OH215776   6.058   5.522   0.393  0.1462  0.7539 -0.1496
 5271TIP3    H115777   6.050   5.591   0.460 -3.0782  1.4007 -1.0126
 5271TIP3    H215778   6.100   5.566   0.319  0.5360  1.0228  0.2224
 5272TIP3   OH215779   2.434   4.641   0.774 -0.3440  0.7882 -0.0763
 5272TIP3    H115780   2.447   4.649   0.679 -0.4428  0.2485 -0.1393
 5272TIP3    H215781   2.364   4.577   0.783 -0.1421  0.6249  0.3715
 5273TIP3   OH215782   1.855   1.216   0.748  0.3447 -0.0869  0.6112
 5273TIP3    H115783   1.918   1.149   0.724  1.1840  1.5491 -2.1232
 5273TIP3    H215784   1.818   1.246   0.665 -1.1867  1.7128  1.8608
 5274TIP3   OH215785   1.558   0.472   2.630 -0.0446 -0.0926  0.2154
 5274TIP3    H115786   1.495   0.429   2.572 -0.1453  0.7024 -0.2778
 5274TIP3    H215787   1.589   0.547   2.580  1.0856 -0.3049  0.5620
 5275TIP3   OH215788   3.762   4.916   4.505  0.5041  0.1207 -0.2356
 5275TIP3    H115789   3.744   4.827   4.473 -2.0621  0.0680  1.1029
 5275TIP3    H215790   3.738   4.913   4.598  0.3001  2.2188 -0.1889
 5276TIP3   OH215791   2.744   4.778   3.516 -0.2286 -0.0662  0.1833
 5276TIP3    H115792   2.761   4.764   3.423 -0.3871 -0.2449  0.1788
 5276TIP3    H215793   2.752   4.872   3.529 -2.0780  0.2175 -0.3976
 5277TIP3   OH215794   0.911   2.023   1.095  0.1382 -0.0974 -0.4296
 5277TIP3    H115795   1.000   2.010   1.063 -0.2217 -0.8772 -1.1270
 5277TIP3    H215796   0.899   1.954   1.160 -0.4042 -0.8193 -1.2834
 5278TIP3   OH215797   6.563   2.490   2.848  0.7338  0.6711  0.3381
 5278TIP3    H115798   6.624   2.437   2.797  2.4716  1.8709  1.0479
 5278TIP3    H215799   6.525   2.429   2.911  2.3343  0.1171  0.8331
 5279TIP3   OH215800   6.104   3.828   2.566 -0.0099  0.3913  0.0596
 5279TIP3    H115801   6.088   3.767   2.495  1.6248  1.6014 -1.4175
 5279TIP3    H215802   6.196   3.817   2.587 -0.4990 -0.1196  2.2350
 5280TIP3   OH215803   1.787   0.870   5.556 -0.6666  0.2089 -0.1872
 5280TIP3    H115804   1.753   0.825   5.479 -1.6757  0.1506  0.2861
 5280TIP3    H215805   1.869   0.910   5.526 -0.1597 -1.2416 -0.8353
 5281TIP3   OH215806   1.572   2.179   5.757 -0.2513  0.1339  0.5074
 5281TIP3    H115807   1.658   2.218   5.743 -0.3002  0.4932  1.1583
 5281TIP3    H215808   1.588   2.084   5.756  0.2086  0.2013  0.9690
 5282TIP3   OH215809   0.601   1.216   4.418  0.2087  0.4475  0.0749
 5282TIP3    H115810   0.687   1.259   4.418  0.7644 -0.6292  0.1744
 5282TIP3    H215811   0.573   1.219   4.509  0.2174  0.6609  0.0699
 5283TIP3   OH215812   6.506   0.538   3.486 -1.0046 -0.2086  0.1975
 5283TIP3    H115813   6.585   0.537   3.540 -1.5625 -2.3360  1.0768
 5283TIP3    H215814   6.434   0.530   3.549 -1.8006 -0.3696 -0.7067
 5284TIP3   OH215815   4.543   4.080   3.423 -0.1906 -0.1196 -0.5034
 5284TIP3    H115816   4.477   4.125   3.477  1.6950  1.3933  0.6924
 5284TIP3    H215817   4.614   4.143   3.415  2.3206 -2.5938  0.6211
 5285TIP3   OH215818   3.936   0.467   0.600  0.6190  0.0658 -0.4874
 5285TIP3    H115819   3.994   0.523   0.549  0.1748 -0.9111 -2.1473
 5285TIP3    H215820   3.988   0.389   0.618  0.2417 -0.2983 -0.9310
 5286TIP3   OH215821   6.682   2.334   4.137 -0.0788  0.0023  0.0514
 5286TIP3    H115822   6.645   2.417   4.107  0.2346  0.0810 -0.1111
 5286TIP3    H215823   6.616   2.269   4.112 -0.4427  0.2273  0.4047
 5287TIP3   OH215824   1.363   2.708   0.908 -0.2794  0.1246 -0.0691
 5287TIP3    H115825   1.285   2.699   0.853 -0.1769  0.4985 -0.2762
 5287TIP3    H215826   1.428   2.651   0.868  0.5434  2.0746 -1.6884
 5288TIP3   OH215827   4.707   6.664   2.570  0.6389 -0.4525 -0.0764
 5288TIP3    H115828   4.719   6.585   2.518 -0.2486 -0.5370 -0.1643
 5288TIP3    H215829   4.737   6.735   2.513  1.4609 -0.7143  0.0115
 5289TIP3   OH215830   0.276   0.690   1.316  0.5785  0.0607 -0.0521
 5289TIP3    H115831   0.334   0.613   1.316  0.0301 -0.4506  2.5028
 5289TIP3    H215832   0.336   0.764   1.324  0.9963 -0.3358  0.6850
 5290TIP3   OH215833   0.320   4.022   4.903  0.2071  0.3545 -0.1339
 5290TIP3    H115834   0.330   4.116   4.919 -0.2982  0.6770 -1.5103
 5290TIP3    H215835   0.348   4.011   4.812 -1.2904 -0.5430 -0.5133
 5291TIP3   OH215836   5.725   6.005   2.516  0.0796  0.4690  0.3679
 5291TIP3    H115837   5.696   6.060   2.589  0.5323 -0.1417  1.0250
 5291TIP3    H215838   5.794   5.950   2.554 -0.1127 -0.2932 -0.3634
 5292TIP3   OH215839   5.659   0.546   1.942 -0.2213  0.2954 -0.1875
 5292TIP3    H115840   5.705   0.598   2.008 -0.0931  0.9019 -0.7446
 5292TIP3    H215841   5.567   0.571   1.951 -0.2774 -0.0294  0.1293
 5293TIP3   OH215842   4.503   4.272   3.695  0.1249  0.2515  0.3327
 5293TIP3    H115843   4.525   4.359   3.662  1.2657  0.2391  0.9808
 5293TIP3    H215844   4.438   4.288   3.763 -0.5048  0.4840 -0.3115
 5294TIP3   OH215845   3.201   1.229   4.896 -0.1548  0.6198 -0.0878
 5294TIP3    H115846   3.202   1.147   4.945  2.1766 -0.0312 -1.0302
 5294TIP3    H215847   3.128   1.219   4.834  1.2098 -1.7046 -1.5280
 5295TIP3   OH215848   0.536   3.108   4.645  0.6962 -0.3591  0.0796
 5295TIP3    H115849   0.625   3.137   4.624  0.3929 -0.1386 -0.9962
 5295TIP3    H215850   0.488   3.119   4.563 -0.7452  1.1695  1.0589
 5296TIP3   OH215851   2.577   3.115   5.030  0.2287  0.4044  0.3601
 5296TIP3    H115852   2.490   3.078   5.045 -0.2414  1.4360  0.2704
 5296TIP3    H215853   2.597   3.163   5.110 -0.0062  1.5304 -0.2317
 5297TIP3   OH215854   3.002   2.443   3.171 -0.2499 -0.3336  0.2799
 5297TIP3    H115855   2.926   2.458   3.228 -0.8704 -1.3348 -0.2380
 5297TIP3    H215856   2.989   2.503   3.097  1.2223  1.9119  1.7120
 5298TIP3   OH215857   4.154   4.472   3.135  0.1246 -0.3522  0.3641
 5298TIP3    H115858   4.205   4.409   3.084 -1.3654 -0.1615 -1.4996
 5298TIP3    H215859   4.063   4.458   3.106 -0.4956  1.2770  1.3909
 5299TIP3   OH215860   2.283   2.691   5.439 -0.1450  0.5313 -0.1079
 5299TIP3    H115861   2.355   2.675   5.501 -0.3607  0.5656  0.1514
 5299TIP3    H215862   2.227   2.754   5.483  0.0447  1.0626 -0.6158
 5300TIP3   OH215863   1.937   4.828   1.441 -0.6140 -0.1719 -0.2928
 5300TIP3    H115864   1.904   4.876   1.517 -1.5587 -0.0416 -0.7799
 5300TIP3    H215865   1.887   4.747   1.439  0.4630 -0.8757  0.0887
 5301TIP3   OH215866   3.282   6.777   4.918  0.1957 -0.1525  0.0945
 5301TIP3    H115867   3.230   6.836   4.864 -0.1142 -0.2794  0.2526
 5301TIP3    H215868   3.364   6.766   4.869  0.7621  1.3784  0.6429
 5302TIP3   OH215869   6.114   6.252   4.027  0.0087  0.3101 -0.3799
 5302TIP3    H115870   6.184   6.316   4.015  0.8929 -0.7352 -1.0293
 5302TIP3    H215871   6.038   6.290   3.981  0.1996  1.3491  0.1425
 5303TIP3   OH215872   5.041   5.861   1.955  0.0792  0.2890 -0.2228
 5303TIP3    H115873   5.082   5.945   1.977 -1.5499  0.9778  0.3320
 5303TIP3    H215874   5.065   5.846   1.864  0.4059  1.3521 -0.3244
 5304TIP3   OH215875   1.916   3.332   2.221  0.6469  0.5367 -0.1930
 5304TIP3    H115876   2.002   3.324   2.262 -0.5231 -1.4910  2.0982
 5304TIP3    H215877   1.916   3.267   2.152  0.6471 -0.1362  0.4308
 5305TIP3   OH215878   6.900   3.260   0.451  0.4474  0.1518  0.0167
 5305TIP3    H115879   6.853   3.185   0.488  1.3529 -0.9520 -1.0042
 5305TIP3    H215880   6.956   3.222   0.384  1.5027  1.6608  0.0127
 5306TIP3   OH215881   0.238   3.026   4.528 -0.1424  0.0507  0.0747
 5306TIP3    H115882   0.309   2.986   4.477 -1.3197 -1.1532 -0.6996
 5306TIP3    H215883   0.240   2.981   4.612  0.4777  0.5521  0.3334
 5307TIP3   OH215884   3.051   3.666   3.011  0.3852  0.0532  0.8977
 5307TIP3    H115885   3.133   3.620   3.030  1.7030  1.4996 -0.9253
 5307TIP3    H215886   3.064   3.703   2.924 -1.8628  1.1445  0.9617
 5308TIP3   OH215887   7.187   0.726   4.906  0.2087  0.7909 -0.0353
 5308TIP3    H115888   7.231   0.690   4.828 -0.7832  1.5878 -0.9971
 5308TIP3    H215889   7.094   0.714   4.888 -0.0274 -0.1335  1.6051
 5309TIP3   OH215890   2.189   6.393   2.233  0.1808  0.1296  0.2449
 5309TIP3    H115891   2.169   6.376   2.325 -1.0629 -0.1647 -0.0511
 5309TIP3    H215892   2.219   6.484   2.232 -3.5510  1.5402  0.5136
 5310TIP3   OH215893   0.193   1.315   3.229  0.7510 -0.3560 -0.0394
 5310TIP3    H115894   0.105   1.350   3.215 -0.0338 -2.5124 -1.0017
 5310TIP3    H215895   0.207   1.321   3.324 -0.7494 -0.6202  0.2217
 5311TIP3   OH215896   6.979   2.242   2.228  0.6492  0.3424  0.6707
 5311TIP3    H115897   6.884   2.236   2.225  0.2859  4.0959 -0.6021
 5311TIP3    H215898   7.002   2.232   2.320 -1.2468  1.6045  1.3278
 5312TIP3   OH215899   7.044   3.415   5.122  0.1429 -0.4577  0.1500
 5312TIP3    H115900   7.032   3.510   5.131 -0.4457 -0.6006  0.9176
 5312TIP3    H215901   7.043   3.400   5.027 -0.0108  0.2683  0.0309
 5313TIP3   OH215902   2.260   3.599   2.651 -0.3239 -0.5284 -0.1375
 5313TIP3    H115903   2.231   3.510   2.672  0.2612 -0.2477  2.1554
 5313TIP3    H215904   2.246   3.649   2.732  1.8192  0.7999 -0.5026
 5314TIP3   OH215905   2.136   5.114   5.743  0.1037  0.3851 -0.4980
 5314TIP3    H115906   2.198   5.051   5.779 -1.0175 -0.6093 -0.2256
 5314TIP3    H215907   2.059   5.106   5.799  0.0819  2.3543 -0.1570
 5315TIP3   OH215908   4.049   2.254   3.435 -0.3065 -0.1498  0.6487
 5315TIP3    H115909   4.024   2.345   3.423  1.8524  0.5529  0.9595
 5315TIP3    H215910   4.075   2.247   3.527 -1.3285 -1.3348  0.8744
 5316TIP3   OH215911   0.945   6.202   3.346  0.6330  0.2993  0.3186
 5316TIP3    H115912   0.932   6.280   3.400  0.4907 -0.2689  1.1222
 5316TIP3    H215913   0.865   6.198   3.292 -0.1350 -0.1962  1.4494
 5317TIP3   OH215914   2.707   3.738   2.353  0.3688 -0.2076 -0.2706
 5317TIP3    H115915   2.741   3.648   2.357  2.9444  0.4939 -2.7883
 5317TIP3    H215916   2.618   3.729   2.320  0.3350 -1.8614  0.2003
 5318TIP3   OH215917   5.597   1.061   0.630 -0.0996 -0.3618  0.2500
 5318TIP3    H115918   5.615   0.980   0.677 -0.7757 -0.7082 -0.0673
 5318TIP3    H215919   5.586   1.034   0.539  3.4209  0.5685 -0.6051
 5319TIP3   OH215920   5.624   5.889   5.356 -0.2034  0.3197 -0.2988
 5319TIP3    H115921   5.664   5.805   5.332  1.3023  0.7876  0.4530
 5319TIP3    H215922   5.537   5.886   5.316  0.3697 -0.9780 -1.5552
 5320TIP3   OH215923   5.277   3.989   1.188  0.5120  0.1182  0.2399
 5320TIP3    H115924   5.347   3.951   1.134  0.3872  1.6428 -1.0479
 5320TIP3    H215925   5.311   3.984   1.277  1.9994  0.2581 -0.2892
 5321TIP3   OH215926   5.687   3.564   2.293 -0.1959  0.1698 -0.2448
 5321TIP3    H115927   5.745   3.490   2.315 -0.8866 -0.3723 -0.2220
 5321TIP3    H215928   5.648   3.589   2.377  0.2417  0.7516 -0.2056
 5322TIP3   OH215929   5.925   0.396   5.580  0.3630 -0.2725 -0.2498
 5322TIP3    H115930   5.839   0.368   5.549  0.1949  0.6564 -0.6426
 5322TIP3    H215931   5.917   0.397   5.675  0.6429 -2.3640 -0.1601
 5323TIP3   OH215932   2.799   4.647   4.390 -0.2956  0.1603 -0.4958
 5323TIP3    H115933   2.847   4.653   4.307 -1.4584  1.0357 -1.1360
 5323TIP3    H215934   2.712   4.617   4.366 -0.2673 -0.8735  0.5850
 5324TIP3   OH215935   3.041   1.715   4.408  0.0912  0.2939 -0.1031
 5324TIP3    H115936   3.019   1.650   4.342 -2.2488  0.0383  0.8286
 5324TIP3    H215937   3.099   1.670   4.469 -1.3094 -0.9206  0.4050
 5325TIP3   OH215938   1.205   4.485   3.745  0.1139 -0.1230 -0.0670
 5325TIP3    H115939   1.192   4.392   3.766  0.0431  0.3219  2.0993
 5325TIP3    H215940   1.183   4.531   3.826 -0.5445  1.8580 -1.3006
 5326TIP3   OH215941   5.764   0.908   3.847  0.1490  0.2851 -0.2599
 5326TIP3    H115942   5.672   0.899   3.820  0.6176  2.2229 -2.9099
 5326TIP3    H215943   5.799   0.819   3.841 -1.0945 -0.1818 -1.1584
 5327TIP3   OH215944   0.815   1.898   2.542  0.2212  0.1261  0.2427
 5327TIP3    H115945   0.785   1.985   2.516 -1.4689 -0.5821 -0.3496
 5327TIP3    H215946   0.874   1.871   2.471 -0.0385  0.3897 -0.0737
 5328TIP3   OH215947   0.836   1.695   0.312  0.0559  0.1565  0.4655
 5328TIP3    H115948   0.758   1.657   0.272 -2.5483  1.1088  4.0508
 5328TIP3    H215949   0.862   1.630   0.378  0.5158  1.0421  1.1741
 5329TIP3   OH215950   4.994   4.075   2.383  0.4104  0.5682 -0.1840
 5329TIP3    H115951   5.067   4.018   2.407  0.1905  0.1477 -0.5139
 5329TIP3    H215952   5.030   4.135   2.318  0.0427 -0.7150 -1.6072
 5330TIP3   OH215953   5.518   5.182   0.868  0.1564  1.2453 -0.0363
 5330TIP3    H115954   5.429   5.157   0.846  0.3017  1.3770 -0.8395
 5330TIP3    H215955   5.510   5.270   0.906 -0.3771 -0.0145  3.0375
 5331TIP3   OH215956   3.306   0.178   3.955 -0.3647 -0.1439 -0.1164
 5331TIP3    H115957   3.323   0.230   4.034  0.8224 -1.4490  0.5273
 5331TIP3    H215958   3.256   0.237   3.898  1.9907  2.2335  0.0470
 5332TIP3   OH215959   3.591   3.288   2.290  0.4160  0.3827  0.0935
 5332TIP3    H115960   3.622   3.209   2.246 -1.1977 -0.6359  0.6940
 5332TIP3    H215961   3.548   3.339   2.221 -1.3743 -0.8209  0.2545
 5333TIP3   OH215962   6.792   6.772   4.298 -0.1236  0.0297  0.4933
 5333TIP3    H115963   6.866   6.769   4.358  0.2538 -0.0513  0.0367
 5333TIP3    H215964   6.825   6.820   4.222 -0.8402  0.8346  0.6733
 5334TIP3   OH215965   3.397   0.114   1.889 -0.0462  0.3695  0.0526
 5334TIP3    H115966   3.474   0.073   1.848 -0.7708  0.2057 -1.1881
 5334TIP3    H215967   3.363   0.173   1.822 -2.6646 -1.6485 -0.5938
 5335TIP3   OH215968   6.189   0.296   2.003 -0.8488 -0.5135  0.5010
 5335TIP3    H115969   6.282   0.273   1.995 -1.1476 -1.6620  0.1247
 5335TIP3    H215970   6.143   0.224   1.960 -1.8891  0.4455 -0.0445
 5336TIP3   OH215971   6.750   4.944   3.107  0.2437 -0.0465 -0.1791
 5336TIP3    H115972   6.712   4.861   3.080  1.3346  0.2349 -2.8862
 5336TIP3    H215973   6.687   5.010   3.077  0.8303  0.2214 -0.8439
 5337TIP3   OH215974   2.413   3.820   4.550 -0.3249  0.5022 -0.1826
 5337TIP3    H115975   2.396   3.816   4.644 -0.5168  2.3889 -0.0970
 5337TIP3    H215976   2.376   3.903   4.523  0.4513  0.3573 -1.7817
 5338TIP3   OH215977   5.408   0.954   4.057 -0.1921  0.7209  0.2288
 5338TIP3    H115978   5.485   0.914   4.017 -1.3299 -0.0639 -1.2749
 5338TIP3    H215979   5.432   1.045   4.070  1.3914  0.2377  0.9092
 5339TIP3   OH215980   2.905   4.005   0.257  0.0278  0.0030  0.4655
 5339TIP3    H115981   2.987   4.056   0.257  1.3834 -2.0048 -1.5899
 5339TIP3    H215982   2.854   4.042   0.185 -0.4014  0.4741  0.9966
 5340TIP3   OH215983   0.929   4.089   4.907  0.4442  0.2843 -0.4576
 5340TIP3    H115984   0.908   4.097   4.813  0.3490  1.5853 -0.3469
 5340TIP3    H215985   1.010   4.138   4.917  0.8265 -0.4463  0.0249
 5341TIP3   OH215986   4.727   1.892   1.043  0.1104  0.2331 -0.2705
 5341TIP3    H115987   4.803   1.866   0.991 -1.0007 -1.7611 -0.9871
 5341TIP3    H215988   4.763   1.910   1.130  1.6826  1.5159 -1.1158
 5342TIP3   OH215989   4.004   5.748   1.231  0.0541  0.2143  0.4252
 5342TIP3    H115990   3.911   5.752   1.253 -0.4279  0.4729 -1.4945
 5342TIP3    H215991   4.006   5.721   1.139  1.9211 -0.7559  0.6987
 5343TIP3   OH215992   6.402   5.420   2.081 -0.3649 -0.2042 -0.0803
 5343TIP3    H115993   6.406   5.515   2.086  3.5564 -0.2591  1.0973
 5343TIP3    H215994   6.362   5.393   2.164 -1.1051  0.3601 -0.2391
 5344TIP3   OH215995   0.819   0.422   0.172  0.1750 -0.4627 -0.4906
 5344TIP3    H115996   0.795   0.493   0.112 -2.4093  0.4281  1.3983
 5344TIP3    H215997   0.742   0.366   0.175  0.6299 -1.0643  1.1326
 5345TIP3   OH215998   0.751   2.956   4.528 -0.1926  0.1537  0.5828
 5345TIP3    H115999   0.662   2.957   4.564  0.1921 -1.0103  1.6439
 5345TIP3    H216000   0.808   2.961   4.605  0.7052  2.5552 -0.1549
 5346TIP3   OH216001   2.082   0.526   0.564  0.5630 -0.0538 -0.0546
 5346TIP3    H116002   2.167   0.569   0.551  0.1950  0.2997 -1.5691
 5346TIP3    H216003   2.078   0.461   0.493 -0.1015 -0.6176  0.4864
 5347TIP3   OH216004   7.056   3.263   4.195 -0.1621 -0.1210 -0.0528
 5347TIP3    H116005   7.144   3.279   4.230  0.1696  0.0788 -0.9714
 5347TIP3    H216006   6.998   3.309   4.257  0.4419  0.4767  0.0861
 5348TIP3   OH216007   0.466   1.654   0.753 -0.4402  0.4913  1.1069
 5348TIP3    H116008   0.558   1.675   0.740 -0.6047  1.0045  0.7588
 5348TIP3    H216009   0.426   1.736   0.780 -0.9308  0.4465  0.5320
 5349TIP3   OH216010   3.111   2.580   3.375  0.0663  0.0209  0.9505
 5349TIP3    H116011   3.148   2.500   3.412 -0.2017 -0.7588 -0.4001
 5349TIP3    H216012   3.087   2.556   3.285  0.2914  1.7133  0.4080
 5350TIP3   OH216013   6.878   5.174   4.167  0.3795 -0.2858  0.1526
 5350TIP3    H116014   6.916   5.088   4.189  1.7341 -0.1205 -1.3182
 5350TIP3    H216015   6.813   5.154   4.100 -2.0302 -0.5242  2.4232
 5351TIP3   OH216016   7.101   0.349   1.028  0.1759 -0.1890 -0.5400
 5351TIP3    H116017   7.057   0.428   0.998  2.2366  0.3043 -2.5430
 5351TIP3    H216018   7.066   0.280   0.972  0.7057 -0.0980 -0.9895
 5352TIP3   OH216019   5.119   5.359   3.504 -0.0046  0.0299  0.1083
 5352TIP3    H116020   5.063   5.337   3.430 -1.6935 -0.3122  1.4371
 5352TIP3    H216021   5.123   5.279   3.556 -0.3513  0.7607  1.3107
 5353TIP3   OH216022   0.766   3.194   4.971  0.0419  0.0757 -0.2771
 5353TIP3    H116023   0.740   3.273   5.019 -2.3937 -2.0053  2.1944
 5353TIP3    H216024   0.776   3.128   5.039 -0.1754 -2.2530 -2.3899
 5354TIP3   OH216025   3.441   6.133   2.259  0.1677  0.3177  0.1220
 5354TIP3    H116026   3.443   6.099   2.169  2.0803  0.0611  0.2165
 5354TIP3    H216027   3.350   6.160   2.272 -0.7699 -2.0416 -0.9607
 5355TIP3   OH216028   1.639   3.895   0.315  0.1273 -0.0655 -0.2995
 5355TIP3    H116029   1.658   3.931   0.228  0.6101  1.8376  0.5347
 5355TIP3    H216030   1.725   3.881   0.354  0.1411  3.9245  1.6604
 5356TIP3   OH216031   3.696   4.672   4.396 -0.0473  0.2456 -0.3645
 5356TIP3    H116032   3.725   4.684   4.306 -3.1467  0.6797 -1.4257
 5356TIP3    H216033   3.615   4.620   4.389  0.5266 -1.2200  2.3354
 5357TIP3   OH216034   0.991   0.046   4.015 -0.3212  0.1042  0.1374
 5357TIP3    H116035   1.004   0.128   4.062  1.9700  0.7849 -1.4930
 5357TIP3    H216036   1.052  -0.015   4.056  2.5828  1.0168 -2.3879
 5358TIP3   OH216037   1.031   0.060   2.743  0.3540  0.0635  0.2743
 5358TIP3    H116038   1.036   0.129   2.677  0.7308 -0.3744 -0.1665
 5358TIP3    H216039   1.122   0.030   2.752  0.1170 -0.7058  0.1037
 5359TIP3   OH216040   2.618   0.678   2.976 -0.3095  0.1778  0.0994
 5359TIP3    H116041   2.529   0.659   3.005 -1.0120  0.9503 -1.4230
 5359TIP3    H216042   2.634   0.767   3.006 -0.0738  0.0608  0.3184
 5360TIP3   OH216043   5.140   3.121   0.237  0.1181  0.2385  0.1129
 5360TIP3    H116044   5.084   3.101   0.162 -1.1508 -0.4568  1.1990
 5360TIP3    H216045   5.213   3.060   0.229 -0.2145 -0.1079 -0.3368
 5361TIP3   OH216046   3.165   6.683   0.963  0.4428 -0.4286  0.3042
 5361TIP3    H116047   3.190   6.670   1.054  0.3751 -0.6148  0.2978
 5361TIP3    H216048   3.238   6.732   0.924  0.1758  0.2286  0.6170
 5362TIP3   OH216049   0.069   1.925   2.892  0.0869 -0.4676 -0.6141
 5362TIP3    H116050   0.102   2.015   2.892 -0.5659 -0.1501 -3.2491
 5362TIP3    H216051   0.142   1.873   2.924 -0.1863  1.0940  3.0856
 5363TIP3   OH216052   0.137   2.063   0.304  0.3967  0.1685  0.5299
 5363TIP3    H116053   0.082   2.129   0.262  0.0741  1.2466  2.5612
 5363TIP3    H216054   0.187   2.024   0.232  0.3025  2.3402 -0.7727
 5364TIP3   OH216055   1.462   4.475   1.341 -0.0452 -0.3114 -0.1418
 5364TIP3    H116056   1.517   4.444   1.412  1.5432  1.4324 -0.5124
 5364TIP3    H216057   1.459   4.403   1.279  1.5416 -0.5978  0.0752
 5365TIP3   OH216058   5.371   4.919   1.671 -0.2557 -0.5998  0.2447
 5365TIP3    H116059   5.421   4.932   1.752 -0.8019 -1.3200  0.7071
 5365TIP3    H216060   5.399   4.834   1.638 -0.4809 -0.5843  0.0035
 5366TIP3   OH216061   3.430   1.670   2.080 -0.1524  0.3446  0.3021
 5366TIP3    H116062   3.451   1.759   2.106 -0.5844  0.4491  0.3020
 5366TIP3    H216063   3.371   1.638   2.149 -1.3159  0.6293 -0.5308
 5367TIP3   OH216064   5.605   1.554   1.319 -0.0129 -0.0855 -0.1620
 5367TIP3    H116065   5.524   1.542   1.369  0.3148 -2.2400 -0.0328
 5367TIP3    H216066   5.664   1.597   1.380  0.3186 -2.4965  1.3745
 5368TIP3   OH216067   4.858   5.888   4.667  0.0794  0.0175  0.2736
 5368TIP3    H116068   4.935   5.943   4.682  0.2006 -0.2617  0.7096
 5368TIP3    H216069   4.831   5.861   4.755  0.3205 -1.0235  0.0475
 5369TIP3   OH216070   5.590   5.646   2.753 -0.3429  0.3069  0.4828
 5369TIP3    H116071   5.522   5.625   2.817 -0.8158  0.0852 -0.0936
 5369TIP3    H216072   5.669   5.605   2.788 -0.9373 -1.2195  0.1148
 5370TIP3   OH216073   5.326   4.027   2.329 -0.1919  0.1005  0.4584
 5370TIP3    H116074   5.282   4.025   2.243 -0.5556 -1.1308  0.6523
 5370TIP3    H216075   5.368   3.941   2.336  0.6387  0.5487  1.1195
 5371TIP3   OH216076   3.822   1.658   0.510 -0.2541  0.4432 -0.5438
 5371TIP3    H116077   3.917   1.646   0.521 -0.0209  1.8052 -0.8269
 5371TIP3    H216078   3.800   1.606   0.433  0.5987  1.4377 -1.5008
 5372TIP3   OH216079   3.211   4.083   3.682 -0.1676  0.7344  0.2314
 5372TIP3    H116080   3.298   4.119   3.699  0.8797 -1.9116  0.9887
 5372TIP3    H216081   3.213   4.057   3.590 -0.8292  2.2255 -0.2399
 5373TIP3   OH216082   3.792   1.928   0.467  0.0009  0.7620 -0.5103
 5373TIP3    H116083   3.876   1.928   0.420 -0.5901  3.8512 -1.8278
 5373TIP3    H216084   3.784   1.839   0.501  2.1846 -0.6603 -3.2526
 5374TIP3   OH216085   0.140   4.537   3.866  0.2893 -0.0959 -0.5562
 5374TIP3    H116086   0.143   4.451   3.824  1.2079 -0.0994 -0.5140
 5374TIP3    H216087   0.223   4.578   3.842  0.4105  0.2867  0.4587
 5375TIP3   OH216088   0.805   5.942   5.488  0.2074 -0.2474 -0.0190
 5375TIP3    H116089   0.722   5.978   5.456  1.2366  0.6590 -1.7967
 5375TIP3    H216090   0.833   6.003   5.556 -0.4110 -0.3735  0.3536
 5376TIP3   OH216091   4.147   4.823   2.273  0.2180 -0.2219 -0.4580
 5376TIP3    H116092   4.188   4.865   2.197  1.8841  0.4687  0.7415
 5376TIP3    H216093   4.066   4.872   2.287 -0.1218 -0.3685 -1.7662
 5377TIP3   OH216094   6.720   1.645   1.407  0.4316 -0.7737 -0.0118
 5377TIP3    H116095   6.793   1.703   1.429  0.5935 -1.3990  1.1761
 5377TIP3    H216096   6.675   1.690   1.335  0.6855  0.7121  0.7140
 5378TIP3   OH216097   4.524   5.745   2.921  0.3970 -0.1214 -0.1565
 5378TIP3    H116098   4.561   5.739   2.832 -0.5056 -1.0119 -0.4857
 5378TIP3    H216099   4.472   5.666   2.931 -0.9987  0.8490  0.4953
 5379TIP3   OH216100   1.205   3.705   4.979  0.2520  0.0805 -0.0588
 5379TIP3    H116101   1.199   3.617   4.942 -2.0818 -0.5049  1.4715
 5379TIP3    H216102   1.198   3.764   4.903 -0.9243 -1.0721 -0.8880
 5380TIP3   OH216103   0.317   1.967   2.308 -0.7819 -0.2337  0.1575
 5380TIP3    H116104   0.269   1.949   2.389 -0.9334 -2.5493 -0.3637
 5380TIP3    H216105   0.250   1.986   2.243 -0.6869  1.1072  0.4219
 5381TIP3   OH216106   5.863   3.817   3.507  0.3846 -0.1479 -0.0512
 5381TIP3    H116107   5.914   3.756   3.560  0.4658  0.8799  1.0857
 5381TIP3    H216108   5.849   3.893   3.564 -0.5338  0.4995 -1.1027
 5382TIP3   OH216109   3.760   1.416   2.477  0.3888  0.3148 -0.5639
 5382TIP3    H116110   3.761   1.492   2.420  0.9941  1.7291  1.2441
 5382TIP3    H216111   3.715   1.348   2.426 -1.0422  2.1500 -1.8669
 5383TIP3   OH216112   3.422   6.081   3.820 -0.3455  0.0773  0.0224
 5383TIP3    H116113   3.443   6.029   3.742  1.8511  0.6879  0.1350
 5383TIP3    H216114   3.412   6.170   3.788 -0.2501  0.1951  0.3144
 5384TIP3   OH216115   4.890   6.496   3.257  0.4192 -0.7457  0.0745
 5384TIP3    H116116   4.829   6.458   3.321 -2.4664  1.0891 -1.3704
 5384TIP3    H216117   4.919   6.421   3.205  0.9521 -1.9232  1.9601
 5385TIP3   OH216118   5.382   4.505   1.878 -0.7947 -0.1361 -0.5808
 5385TIP3    H116119   5.388   4.448   1.802 -0.5427 -1.8214  0.6320
 5385TIP3    H216120   5.473   4.521   1.904 -0.8033  1.9369 -1.6456
 5386TIP3   OH216121   2.992   4.163   0.936  0.0123 -0.3527 -0.2676
 5386TIP3    H116122   3.079   4.129   0.913 -1.1264 -1.9394 -2.6133
 5386TIP3    H216123   2.979   4.134   1.027  1.2935 -1.4855 -0.4059
 5387TIP3   OH216124   0.927   5.807   2.405  0.1017  0.2073  0.4079
 5387TIP3    H116125   0.876   5.887   2.392 -1.9136 -1.0215  0.3657
 5387TIP3    H216126   0.913   5.756   2.326  0.6048 -0.5841  0.8153
 5388TIP3   OH216127   5.377   5.178   5.636  0.1941 -0.1656 -0.5427
 5388TIP3    H116128   5.348   5.268   5.622  1.0767 -0.0983 -2.1033
 5388TIP3    H216129   5.452   5.185   5.694  0.1550  0.0818 -0.5219
 5389TIP3   OH216130   4.545   3.226   1.157 -0.0106 -0.7207 -0.3264
 5389TIP3    H116131   4.560   3.162   1.226  0.1288 -2.1102 -1.6052
 5389TIP3    H216132   4.596   3.303   1.185  0.4840 -1.4412  0.8256
 5390TIP3   OH216133   6.197   2.123   5.363  0.1276  0.4948 -0.4974
 5390TIP3    H116134   6.228   2.207   5.330  2.0834 -0.0203 -0.1175
 5390TIP3    H216135   6.159   2.143   5.448 -2.3584  1.4140 -1.7421
 5391TIP3   OH216136   2.534   3.975   4.793 -0.0274  0.0004 -0.1445
 5391TIP3    H116137   2.504   3.911   4.857  2.0542 -0.5207  0.3893
 5391TIP3    H216138   2.548   3.925   4.713 -0.9981  0.3350 -0.5402
 5392TIP3   OH216139   7.222   3.441   2.029  0.1656  0.5495 -0.1786
 5392TIP3    H116140   7.258   3.482   1.950 -0.6460  2.5463  0.4287
 5392TIP3    H216141   7.131   3.423   2.007  0.3042 -0.2170 -0.1562
 5393TIP3   OH216142   5.820   5.487   1.220  0.6188  0.0050 -0.2647
 5393TIP3    H116143   5.870   5.563   1.252  1.4926 -0.8527  0.4564
 5393TIP3    H216144   5.824   5.424   1.292  0.9640 -1.2106 -1.3329
 5394TIP3   OH216145   0.328   6.408   5.857  0.6099 -0.1017  0.6830
 5394TIP3    H116146   0.417   6.392   5.824 -0.1274 -1.5511 -0.7832
 5394TIP3    H216147   0.295   6.321   5.878 -1.1722  0.1426 -0.8343
 5395TIP3   OH216148   2.754   0.364   2.743 -0.1475  0.3224  0.1297
 5395TIP3    H116149   2.759   0.297   2.812 -0.9185  0.3065  0.1708
 5395TIP3    H216150   2.708   0.437   2.784  1.7055  1.3651  0.4647
 5396TIP3   OH216151   2.136   3.078   4.337  0.0233  0.2925  0.4198
 5396TIP3    H116152   2.089   3.001   4.368  1.3274 -0.4345  0.6658
 5396TIP3    H216153   2.089   3.104   4.258  0.1762 -1.4094 -0.2777
 5397TIP3   OH216154   6.436   3.491   2.719 -0.2524  0.0799  0.1574
 5397TIP3    H116155   6.441   3.511   2.812  0.5854  0.6845 -0.0074
 5397TIP3    H216156   6.525   3.504   2.686 -0.4340 -0.5638 -0.6453
 5398TIP3   OH216157   3.934   5.108   5.766  0.1721 -1.4046 -0.3631
 5398TIP3    H116158   3.994   5.040   5.735 -1.1868 -2.4326 -0.9050
 5398TIP3    H216159   3.934   5.173   5.696  3.0646  0.3050  1.0637
 5399TIP3   OH216160   5.296   5.918   2.275 -0.1496 -0.1807  0.5102
 5399TIP3    H116161   5.291   5.827   2.245  0.8259  0.4129 -1.6599
 5399TIP3    H216162   5.387   5.931   2.299 -0.1035  0.4477  0.0195
 5400TIP3   OH216163   0.073   1.697   4.930 -0.2307  0.3356  0.0025
 5400TIP3    H116164   0.111   1.737   4.852  0.7859 -0.8056 -0.1194
 5400TIP3    H216165   0.149   1.678   4.986 -0.1352 -4.0603 -1.1842
 5401TIP3   OH216166   4.426   3.958   0.113 -0.6539 -0.3681  0.3149
 5401TIP3    H116167   4.457   4.041   0.147  0.0957 -0.5966  0.1959
 5401TIP3    H216168   4.405   3.977   0.021 -2.4303  0.1823  0.7898
 5402TIP3   OH216169   4.706   0.110   3.027  0.1412  0.2413  0.1024
 5402TIP3    H116170   4.671   0.199   3.023 -0.3793 -0.0042 -1.1827
 5402TIP3    H216171   4.685   0.072   2.942  0.7519 -0.9704  0.4723
 5403TIP3   OH216172   2.883   3.860   5.513 -0.4708  0.8231  0.6310
 5403TIP3    H116173   2.800   3.892   5.477 -0.6346 -0.6288 -0.3899
 5403TIP3    H216174   2.944   3.866   5.439 -0.4690 -0.9429  0.4460
 5404TIP3   OH216175   0.814   2.179   0.475  0.0725  0.5439 -0.5526
 5404TIP3    H116176   0.834   2.270   0.457  0.5369  0.5107 -0.2055
 5404TIP3    H216177   0.876   2.129   0.422 -0.6016  0.4159 -1.2426
 5405TIP3   OH216178   5.822   0.175   3.555 -0.7818  0.3821  0.1969
 5405TIP3    H116179   5.857   0.262   3.533  1.1329 -0.3305  0.2407
 5405TIP3    H216180   5.875   0.114   3.504 -1.9428 -0.8003  0.3558
 5406TIP3   OH216181   6.352   5.127   5.297 -0.1873 -0.1004 -0.1188
 5406TIP3    H116182   6.411   5.070   5.247 -1.0873 -0.1659 -1.1309
 5406TIP3    H216183   6.281   5.147   5.237 -1.5558 -0.5505  1.2958
 5407TIP3   OH216184   5.938   1.448   2.814 -0.3397  0.1202  0.5730
 5407TIP3    H116185   5.931   1.356   2.789 -1.3755  0.1400  0.7606
 5407TIP3    H216186   5.908   1.496   2.737  0.7248  0.3318  0.2750
 5408TIP3   OH216187   2.303   2.962   2.925 -0.0146  0.3189  0.2376
 5408TIP3    H116188   2.340   2.982   2.839  1.0383 -0.4680  0.4875
 5408TIP3    H216189   2.370   2.909   2.968 -1.1824 -0.6452  0.9419
 5409TIP3   OH216190   0.979   0.438   2.243 -0.9572 -0.6427 -1.0239
 5409TIP3    H116191   0.888   0.411   2.258 -1.0256 -0.0860 -0.3422
 5409TIP3    H216192   0.992   0.511   2.304 -0.3012 -0.1903 -1.6904
 5410TIP3   OH216193   6.326   1.048   4.696 -0.4677  0.3521 -0.1660
 5410TIP3    H116194   6.351   0.960   4.668 -1.4478  0.5933 -2.0361
 5410TIP3    H216195   6.391   1.073   4.761  1.7577 -0.5436 -1.9036
 5411TIP3   OH216196   1.024   6.100   5.477  0.2700  0.4632 -0.0524
 5411TIP3    H116197   0.948   6.042   5.466 -0.0525  0.9401 -0.3674
 5411TIP3    H216198   1.081   6.079   5.402  0.7276 -0.2926  0.4843
 5412TIP3   OH216199   0.377   2.216   2.673 -0.1642  0.0775  0.4304
 5412TIP3    H116200   0.391   2.238   2.581  0.9771 -1.4660  0.1909
 5412TIP3    H216201   0.420   2.286   2.722 -0.1570  0.5305 -0.2178
 5413TIP3   OH216202   2.526   1.679   0.728  0.3580 -0.1033  0.3134
 5413TIP3    H116203   2.615   1.711   0.712  0.8666 -0.2711  2.4837
 5413TIP3    H216204   2.533   1.583   0.722  0.2167 -0.0992  0.0524
 5414TIP3   OH216205   5.789   2.196   2.702  0.4194  0.9004  0.0950
 5414TIP3    H116206   5.821   2.106   2.694 -0.8497  0.4812 -0.6710
 5414TIP3    H216207   5.742   2.211   2.620 -1.0003  1.5902  1.0093
 5415TIP3   OH216208   5.008   4.296   2.191  0.1170 -0.1843  0.0053
 5415TIP3    H116209   5.020   4.362   2.122 -1.3425 -0.8641 -0.9309
 5415TIP3    H216210   4.931   4.325   2.239 -0.4154 -1.0834 -0.2846
 5416TIP3   OH216211   2.481   0.780   4.809  0.1432 -0.1221  0.6719
 5416TIP3    H116212   2.520   0.698   4.838  0.6016 -0.1897 -0.1110
 5416TIP3    H216213   2.449   0.821   4.890  2.6322  0.3649  1.5135
 5417TIP3   OH216214   6.987   5.464   4.508  0.2346  0.2589  0.1900
 5417TIP3    H116215   6.929   5.423   4.444  0.6650 -0.7553  0.4357
 5417TIP3    H216216   6.937   5.538   4.541 -0.0726  0.6807 -1.1608
 5418TIP3   OH216217   7.030   5.698   4.857 -0.2282  0.0163 -0.7282
 5418TIP3    H116218   7.010   5.654   4.774  0.1742  0.2121 -0.9322
 5418TIP3    H216219   7.026   5.792   4.836  2.0082  0.0741 -1.0629
 5419TIP3   OH216220   4.643   1.573   2.741 -0.2332  0.2096 -0.5324
 5419TIP3    H116221   4.724   1.622   2.735  0.2047 -0.1989  1.4565
 5419TIP3    H216222   4.581   1.623   2.688  0.1409  3.0584  1.4989
 5420TIP3   OH216223   4.537   3.274   2.775 -0.0089 -0.2160  0.9818
 5420TIP3    H116224   4.505   3.248   2.689 -1.1621 -1.3633  1.7223
 5420TIP3    H216225   4.490   3.217   2.836 -3.4060  4.0160  2.8664
 5421TIP3   OH216226   4.682   5.324   3.959  0.3795  0.6501 -0.1529
 5421TIP3    H116227   4.711   5.355   4.045  2.5343 -1.9975  0.2413
 5421TIP3    H216228   4.760   5.331   3.904  0.5841 -2.3201 -0.4118
 5422TIP3   OH216229   5.710   4.851   5.724 -0.0755  0.1706 -0.1955
 5422TIP3    H116230   5.616   4.866   5.714 -0.0991 -0.0134 -0.2577
 5422TIP3    H216231   5.750   4.932   5.692 -0.2778  1.1396  1.8402
 5423TIP3   OH216232   1.531   5.588   5.168 -0.0745  0.1596  0.2843
 5423TIP3    H116233   1.467   5.623   5.106 -0.0532  0.3746  0.3858
 5423TIP3    H216234   1.547   5.659   5.229  0.9503  0.4115 -0.2658
 5424TIP3   OH216235   6.687   1.008   4.638  0.1587 -0.0533 -0.1612
 5424TIP3    H116236   6.746   1.011   4.714 -0.4145  1.9804  0.2714
 5424TIP3    H216237   6.713   0.929   4.590  2.8234  0.4342  0.3258
 5425TIP3   OH216238   2.879   6.376   1.899  0.1324 -0.4906 -0.3318
 5425TIP3    H116239   2.970   6.388   1.928  0.5443 -0.4282 -1.5857
 5425TIP3    H216240   2.885   6.315   1.826 -0.7431  0.0419 -0.8700
 5426TIP3   OH216241   4.177   5.255   2.273 -0.0214  0.0801  0.0203
 5426TIP3    H116242   4.093   5.248   2.317 -1.0443  2.6229 -1.2932
 5426TIP3    H216243   4.160   5.223   2.184  0.5086  0.2366 -0.1437
 5427TIP3   OH216244   2.793   0.465   5.219  0.6523 -0.2147  0.5677
 5427TIP3    H116245   2.833   0.525   5.156  0.6937 -1.8650 -1.0882
 5427TIP3    H216246   2.699   0.474   5.203  0.6663 -0.6922  0.1901
 5428TIP3   OH216247   0.905   6.669   5.912  0.2789 -0.2005 -0.1210
 5428TIP3    H116248   0.892   6.583   5.873 -1.2767  0.0966 -0.3108
 5428TIP3    H216249   0.956   6.717   5.846  0.4181 -0.6954 -0.3848
 5429TIP3   OH216250   4.965   5.797   2.885  0.0328  0.0514  0.1621
 5429TIP3    H116251   4.970   5.727   2.950 -2.8755  1.4998  2.1422
 5429TIP3    H216252   5.044   5.785   2.832  1.8524 -2.0960  3.0259
 5430TIP3   OH216253   1.023   1.108   0.057 -0.0719  0.1763 -0.5306
 5430TIP3    H116254   0.967   1.082  -0.016  0.8088 -0.9634 -0.8350
 5430TIP3    H216255   1.078   1.179   0.023 -0.2360  0.2092 -0.7216
 5431TIP3   OH216256   0.052   3.167   1.414  0.1163  0.6960 -0.9076
 5431TIP3    H116257   0.117   3.223   1.371  1.1564  0.9315  0.8498
 5431TIP3    H216258   0.100   3.129   1.489 -1.4777  0.0198 -0.1949
 5432TIP3   OH216259   0.054   3.653   5.058 -0.6181  0.0637  0.0005
 5432TIP3    H116260   0.104   3.719   5.105 -1.7466  1.5760 -0.8449
 5432TIP3    H216261   0.110   3.629   4.983 -0.3319  0.2788  0.1449
 5433TIP3   OH216262   4.324   2.743   1.021 -0.1119 -0.1771  0.1220
 5433TIP3    H116263   4.238   2.714   0.989 -0.5145  1.7464 -0.6688
 5433TIP3    H216264   4.308   2.770   1.111  0.4817 -3.1562  1.2395
 5434TIP3   OH216265   5.170   1.663   5.054 -0.1736  0.0311  0.1008
 5434TIP3    H116266   5.083   1.646   5.018  0.2707  1.2615 -1.6997
 5434TIP3    H216267   5.219   1.582   5.038 -0.1777  0.3281 -1.5507
 5435TIP3   OH216268   0.711   4.860   0.075 -0.3186  0.1373 -0.0496
 5435TIP3    H116269   0.763   4.782   0.094 -0.1076 -0.0897 -1.4566
 5435TIP3    H216270   0.646   4.831   0.012  1.3937  1.5934 -2.6675
 5436TIP3   OH216271   2.058   3.285  -0.004 -0.3306 -0.3624 -0.0461
 5436TIP3    H116272   2.112   3.342   0.051 -0.4343  1.1529 -1.4291
 5436TIP3    H216273   2.003   3.237   0.058  2.1622 -1.5621  1.3834
 5437TIP3   OH216274   6.354   2.351   0.602 -0.1904 -0.1901 -0.6230
 5437TIP3    H116275   6.365   2.278   0.541  0.0561 -1.4224  0.8342
 5437TIP3    H216276   6.264   2.342   0.634 -0.8508  1.3650 -1.8856
 5438TIP3   OH216277   3.213   5.268   1.403 -0.2288  0.3134 -0.0888
 5438TIP3    H116278   3.237   5.360   1.392  0.5045  0.1996  0.4691
 5438TIP3    H216279   3.296   5.225   1.425 -0.6030 -0.4476 -0.1658
 5439TIP3   OH216280   6.963   2.032   0.226  0.1485  0.2794  0.1313
 5439TIP3    H116281   6.961   2.059   0.317 -0.4018 -0.0040  0.2075
 5439TIP3    H216282   6.998   2.108   0.179 -1.3765  1.1453  0.3360
 5440TIP3   OH216283   0.263   0.640   0.878  0.1826  0.2486 -0.2856
 5440TIP3    H116284   0.215   0.648   0.796  1.0199 -3.4345 -1.3347
 5440TIP3    H216285   0.195   0.628   0.944 -0.4464  0.5790 -0.8658
 5441TIP3   OH216286   6.290   1.334   3.091 -0.5274 -0.1749  0.3928
 5441TIP3    H116287   6.203   1.293   3.089 -0.2291 -0.8874  1.3788
 5441TIP3    H216288   6.280   1.405   3.155 -0.4481 -0.1108  0.3331
 5442TIP3   OH216289   6.049   5.708   1.248 -0.7684 -0.2789  0.7160
 5442TIP3    H116290   6.120   5.645   1.258  0.0044  0.6314  1.1216
 5442TIP3    H216291   6.074   5.782   1.304 -0.2311  1.6161 -1.7985
 5443TIP3   OH216292   0.134   1.969   4.156 -0.2114  0.4650 -0.3091
 5443TIP3    H116293   0.161   2.058   4.134 -0.6278  0.3070 -1.5567
 5443TIP3    H216294   0.207   1.914   4.126  0.1269  0.3896  0.6269
 5444TIP3   OH216295   5.820   0.703   2.140 -0.2001  0.1426  0.3060
 5444TIP3    H116296   5.853   0.721   2.052 -0.2923  2.5755  0.7036
 5444TIP3    H216297   5.732   0.740   2.141  0.3798  1.5987  1.8498
 5445TIP3   OH216298   6.066   5.732   3.878 -0.0222  0.4093  0.3159
 5445TIP3    H116299   5.970   5.728   3.881 -0.0711  1.3110  0.2422
 5445TIP3    H216300   6.094   5.641   3.885 -0.9395 -0.0324 -1.2382
 5446TIP3   OH216301   3.842   2.933   0.420  0.3948  0.0111  0.4964
 5446TIP3    H116302   3.783   2.991   0.373 -0.5633 -0.4483  1.1074
 5446TIP3    H216303   3.925   2.940   0.373 -0.6599 -0.9002 -1.6497
 5447TIP3   OH216304   3.920   6.307   2.844  0.1839  0.6894  0.1186
 5447TIP3    H116305   3.987   6.371   2.867  1.3727 -0.6924  0.6217
 5447TIP3    H216306   3.838   6.356   2.848  0.8262  1.6889  2.5356
 5448TIP3   OH216307   1.208   4.261   1.513 -0.7376  0.8359 -0.0270
 5448TIP3    H116308   1.196   4.194   1.581 -0.2373  1.1157  0.3439
 5448TIP3    H216309   1.149   4.234   1.443  3.3602 -3.2658 -2.4303
 5449TIP3   OH216310   2.569   4.452   1.824 -0.2015  0.0758 -0.0228
 5449TIP3    H116311   2.537   4.438   1.735 -0.7341  1.7176 -0.1289
 5449TIP3    H216312   2.664   4.439   1.818  0.0374  1.9437 -1.2874
 5450TIP3   OH216313   1.625   5.900   3.784  0.2868 -0.5837 -0.2015
 5450TIP3    H116314   1.599   5.990   3.803  1.4030  0.2376 -2.2921
 5450TIP3    H216315   1.556   5.867   3.727  1.0816 -0.1881 -1.4295
 5451TIP3   OH216316   0.874   1.337   1.919 -0.2420 -0.1634  0.0733
 5451TIP3    H116317   0.851   1.331   2.012  2.4974  1.7888  1.0137
 5451TIP3    H216318   0.806   1.287   1.874 -2.4242 -0.0772  2.9900
 5452TIP3   OH216319   3.703   5.918   4.061  0.3963 -0.2834  0.0107
 5452TIP3    H116320   3.629   5.974   4.082 -0.0481 -1.4514  1.7047
 5452TIP3    H216321   3.665   5.833   4.040  1.1927 -0.5774 -0.3129
 5453TIP3   OH216322   0.657   3.978   4.640  0.6608  0.5859  0.0014
 5453TIP3    H116323   0.682   3.912   4.704 -1.3553 -0.2681 -0.0472
 5453TIP3    H216324   0.714   3.962   4.565  0.0743 -1.2600 -0.0913
 5454TIP3   OH216325   0.143   2.545   3.754  0.0853  0.7524  0.2835
 5454TIP3    H116326   0.175   2.479   3.693 -0.8610 -0.0409  0.6134
 5454TIP3    H216327   0.220   2.572   3.803  0.6622  0.6309 -0.5381
 5455TIP3   OH216328   3.874   4.899   3.918 -0.4380  0.0947 -0.1291
 5455TIP3    H116329   3.967   4.903   3.941 -0.3749  0.1543 -0.3932
 5455TIP3    H216330   3.871   4.848   3.838 -0.4496  1.5136 -1.0695
 5456TIP3   OH216331   6.467   5.170   1.778  0.5282  0.1392 -0.3201
 5456TIP3    H116332   6.396   5.126   1.731  0.8157 -1.0861  0.3558
 5456TIP3    H216333   6.530   5.193   1.709  0.5262 -0.8205 -0.6577
 5457TIP3   OH216334   3.519   2.930   3.936  0.3110  0.2108 -0.2795
 5457TIP3    H116335   3.488   2.841   3.924  1.2835 -0.2415  0.4645
 5457TIP3    H216336   3.456   2.969   3.997 -0.1366  0.0522 -0.6345
 5458TIP3   OH216337   6.919   4.209   3.820  0.1597 -0.1463 -0.5242
 5458TIP3    H116338   6.872   4.274   3.872 -1.7324 -0.4756 -1.7240
 5458TIP3    H216339   6.870   4.128   3.834  1.5527 -0.9701 -0.2964
 5459TIP3   OH216340   3.900   3.045   5.371 -0.3282 -0.0337  0.6909
 5459TIP3    H116341   3.827   3.003   5.417 -0.7086  0.5665  0.6387
 5459TIP3    H216342   3.924   2.982   5.303 -0.7789 -0.2417  0.7208
 5460TIP3   OH216343   4.947   4.285   3.831 -0.0853  0.0396 -0.0182
 5460TIP3    H116344   4.858   4.311   3.857 -0.0271 -0.8468  1.1479
 5460TIP3    H216345   4.948   4.190   3.842  0.8625 -0.0223 -0.5166
 5461TIP3   OH216346   5.091   0.615   4.090 -0.1374 -0.0234 -0.0017
 5461TIP3    H116347   5.169   0.615   4.035 -0.1130 -0.3558  0.0329
 5461TIP3    H216348   5.033   0.679   4.048 -0.1709 -0.3708 -0.4908
 5462TIP3   OH216349   3.446   5.127   5.215  0.6941 -0.0659 -0.8080
 5462TIP3    H116350   3.502   5.096   5.144  0.5745  0.4250 -1.1220
 5462TIP3    H216351   3.500   5.190   5.263  1.2070 -1.2864  0.2926
 5463TIP3   OH216352   4.283   3.195   3.567  0.2884 -0.2353 -0.3350
 5463TIP3    H116353   4.252   3.227   3.651 -0.4368 -1.0497 -0.2752
 5463TIP3    H216354   4.233   3.246   3.502  0.2785 -0.1495 -0.2595
 5464TIP3   OH216355   4.506   3.023   0.220  0.1434  0.3025 -0.0128
 5464TIP3    H116356   4.538   3.003   0.308  0.0537 -2.9012 -0.5991
 5464TIP3    H216357   4.411   3.010   0.224 -0.2640  2.7642 -0.0215
 5465TIP3   OH216358   3.698   3.174   3.046 -0.2327 -0.5424  0.0585
 5465TIP3    H116359   3.662   3.116   3.113  0.1766 -0.2433  0.5430
 5465TIP3    H216360   3.625   3.191   2.987 -0.1956 -2.0987 -0.4862
 5466TIP3   OH216361   2.819   5.087   4.454 -0.7376  0.4518 -0.2158
 5466TIP3    H116362   2.832   5.002   4.496  1.5179  0.4476 -0.7910
 5466TIP3    H216363   2.883   5.144   4.497  0.2474  0.9428 -2.2372
 5467TIP3   OH216364   2.399   6.184   1.149 -0.4894 -0.4612  0.2468
 5467TIP3    H116365   2.368   6.273   1.136  0.9623 -0.0989 -0.9754
 5467TIP3    H216366   2.338   6.146   1.213 -1.3496  1.2656  0.4955
 5468TIP3   OH216367   6.194   2.955   1.578  0.1248  0.0459 -0.0816
 5468TIP3    H116368   6.101   2.934   1.568 -0.2261  1.7453 -0.5641
 5468TIP3    H216369   6.239   2.891   1.521 -0.7635 -0.5046 -0.1824
 5469TIP3   OH216370   0.086   4.897   0.981 -0.2760  0.1878 -0.1459
 5469TIP3    H116371   0.063   4.805   0.964  2.3314 -0.5381 -0.2072
 5469TIP3    H216372   0.175   4.893   1.015  0.2020  2.7737 -0.9172
 5470TIP3   OH216373   5.617   2.858   2.290  0.2532 -0.0346 -0.5958
 5470TIP3    H116374   5.580   2.937   2.250 -0.5085  0.1107  0.3524
 5470TIP3    H216375   5.542   2.800   2.304  0.5271 -0.1865  0.3424
 5471TIP3   OH216376   7.023   1.236   1.408 -0.4850  0.3517 -0.3984
 5471TIP3    H116377   7.081   1.192   1.345  0.3026  1.9768 -0.8528
 5471TIP3    H216378   7.068   1.317   1.430 -1.2031  0.2803  1.5632
 5472TIP3   OH216379   1.465   4.183   3.399 -0.2449 -0.2176 -0.0839
 5472TIP3    H116380   1.548   4.137   3.411  0.2863  0.2831 -1.6034
 5472TIP3    H216381   1.467   4.254   3.463 -0.4344 -1.4167  1.2859
 5473TIP3   OH216382   7.033   0.315   4.961 -0.2035 -0.3741 -0.0540
 5473TIP3    H116383   7.039   0.220   4.948  0.6547 -0.6734  2.1911
 5473TIP3    H216384   6.939   0.331   4.972 -0.3469 -0.9603 -0.3479
 5474TIP3   OH216385   1.951   4.362   3.453  0.0174  0.2132 -0.1171
 5474TIP3    H116386   1.995   4.403   3.379  0.2865  0.3858  0.1358
 5474TIP3    H216387   1.977   4.415   3.529  1.3949 -1.1586  0.4216
 5475TIP3   OH216388   2.502   5.730   2.482 -0.3422 -0.0608 -0.1470
 5475TIP3    H116389   2.441   5.751   2.552 -1.6953 -0.9373 -1.0121
 5475TIP3    H216390   2.449   5.731   2.402  1.1480  0.8783 -1.1839
 5476TIP3   OH216391   1.520   3.728   0.500 -0.5480  0.1760  0.7985
 5476TIP3    H116392   1.556   3.778   0.427 -1.2594  0.7982  0.8659
 5476TIP3    H216393   1.426   3.727   0.485 -0.5399 -1.3416  0.6871
 5477TIP3   OH216394   5.464   1.695   3.775  0.9751 -0.1503  0.1408
 5477TIP3    H116395   5.464   1.680   3.870  0.5699 -1.9553 -0.1018
 5477TIP3    H216396   5.497   1.784   3.765  1.0214  0.0882  1.9756
 5478TIP3   OH216397   4.750   3.420   5.521  0.2826  0.6557  0.0900
 5478TIP3    H116398   4.715   3.490   5.466 -1.2440  1.0995  1.5436
 5478TIP3    H216399   4.683   3.352   5.518  0.3211  0.5567  1.0981
 5479TIP3   OH216400   2.560   0.823   5.687 -0.1641  0.3560 -0.1257
 5479TIP3    H116401   2.590   0.881   5.617 -0.5530 -0.8485 -1.3264
 5479TIP3    H216402   2.503   0.760   5.643 -1.8285  0.6076  1.5683
 5480TIP3   OH216403   1.188   3.441   4.898  0.9522 -0.3063 -0.4994
 5480TIP3    H116404   1.161   3.445   4.807  2.3927 -0.3707 -0.9566
 5480TIP3    H216405   1.199   3.347   4.915 -3.2471 -0.7092  1.0218
 5481TIP3   OH216406   0.243   4.346   5.711 -0.2370  0.0657 -0.1923
 5481TIP3    H116407   0.197   4.401   5.774  0.7506  0.9884 -0.2380
 5481TIP3    H216408   0.333   4.381   5.709  1.2843 -3.2298  1.8128
 5482TIP3   OH216409   3.813   0.193   1.962  0.7824 -0.1840 -0.0413
 5482TIP3    H116410   3.762   0.196   2.043 -1.0375 -0.4317 -1.1247
 5482TIP3    H216411   3.765   0.133   1.906  2.3434 -0.4898 -1.1155
 5483TIP3   OH216412   1.629   1.280   0.174 -0.0253 -0.5234  0.1471
 5483TIP3    H116413   1.658   1.338   0.104 -1.5350  1.1323  0.8175
 5483TIP3    H216414   1.569   1.219   0.132  0.5649 -0.7815 -0.3329
 5484TIP3   OH216415   1.320   2.714   4.719  0.0866 -0.2647  0.1300
 5484TIP3    H116416   1.336   2.707   4.625  0.6987 -0.4152  0.2397
 5484TIP3    H216417   1.306   2.624   4.748 -1.9053 -0.0798 -0.1022
 5485TIP3   OH216418   6.268   2.717   1.116 -0.1493 -0.4423  0.3542
 5485TIP3    H116419   6.229   2.787   1.063  0.2191 -1.7448 -1.7705
 5485TIP3    H216420   6.207   2.643   1.106  0.9080 -1.3117  0.1039
 5486TIP3   OH216421   0.481   0.460   1.319  0.0551  0.0133 -0.5613
 5486TIP3    H116422   0.538   0.537   1.313 -0.6595  0.6123  0.1728
 5486TIP3    H216423   0.513   0.414   1.396  0.1291 -0.1357 -0.6813
 5487TIP3   OH216424   6.703   4.299   5.581  0.1434 -0.3411  0.9465
 5487TIP3    H116425   6.645   4.326   5.653 -0.6670 -1.1432  0.6085
 5487TIP3    H216426   6.651   4.313   5.502  0.7572 -0.1921  0.5621
 5488TIP3   OH216427   4.077   0.942   5.606  0.1688  0.2690 -1.1307
 5488TIP3    H116428   3.988   0.912   5.626  0.5766  0.1640  0.7157
 5488TIP3    H216429   4.070   1.037   5.599  0.2139  0.4509  0.9359
 5489TIP3   OH216430   6.991   3.507   0.792  0.1525 -0.1363 -0.3747
 5489TIP3    H116431   6.959   3.419   0.810 -1.4998  0.2518 -1.1973
 5489TIP3    H216432   7.060   3.522   0.857  0.4911 -2.0271 -0.2560
 5490TIP3   OH216433   5.490   0.079   1.465 -0.4498  0.3481 -0.1874
 5490TIP3    H116434   5.402   0.110   1.446 -1.0574 -0.1005  1.6634
 5490TIP3    H216435   5.479  -0.014   1.484  0.3403  0.3698  0.4422
 5491TIP3   OH216436   3.692   6.404   4.317 -0.2357 -0.0793  0.6663
 5491TIP3    H116437   3.758   6.467   4.288  0.3868 -0.3413  1.4946
 5491TIP3    H216438   3.669   6.356   4.237 -0.1065  0.6242  0.1925
 5492TIP3   OH216439   2.090   1.046   1.855 -0.8523 -0.0615  0.1416
 5492TIP3    H116440   2.139   1.077   1.932 -1.4050 -0.1722  0.5417
 5492TIP3    H216441   2.009   1.096   1.857 -0.6777  0.2644 -0.6372
 5493TIP3   OH216442   0.454   2.805   4.481  0.3171 -0.0589  0.0346
 5493TIP3    H116443   0.541   2.770   4.461 -0.2765 -1.5990  0.0726
 5493TIP3    H216444   0.402   2.729   4.507 -0.9452  0.8909  0.4106
 5494TIP3   OH216445   2.489   1.028   2.653  0.4822 -0.6338  0.2124
 5494TIP3    H116446   2.454   1.112   2.623 -0.5181  0.1127  3.0590
 5494TIP3    H216447   2.419   0.965   2.633  0.4311 -0.4295 -0.2584
 5495TIP3   OH216448   0.038   0.361   1.788 -0.0602 -0.4080  0.4940
 5495TIP3    H116449   0.021   0.341   1.696 -0.5523 -0.2577  0.5507
 5495TIP3    H216450   0.057   0.455   1.789  2.6209 -0.8540  0.1710
 5496TIP3   OH216451   0.432   0.903   1.330  0.0483  0.3553  0.1902
 5496TIP3    H116452   0.503   0.965   1.346  0.9507 -0.3869 -0.7993
 5496TIP3    H216453   0.375   0.948   1.267 -0.2404  0.8556  0.8016
 5497TIP3   OH216454   0.110   1.286   0.420  0.4310 -0.0400  0.4351
 5497TIP3    H116455   0.076   1.337   0.493 -0.0558 -0.4617  0.5060
 5497TIP3    H216456   0.134   1.351   0.354 -1.2523  0.2436  0.0673
 5498TIP3   OH216457   1.586   1.279   4.741  0.0887 -0.4805 -0.1274
 5498TIP3    H116458   1.516   1.213   4.750  0.7226 -1.0720  0.5014
 5498TIP3    H216459   1.667   1.229   4.746  0.5696  0.1629 -1.1892
 5499TIP3   OH216460   3.058   2.634   5.732  0.1217 -0.1622  0.2446
 5499TIP3    H116461   3.034   2.722   5.760  0.2494  0.4581 -1.4790
 5499TIP3    H216462   3.126   2.607   5.793  1.5382  1.7634 -0.3973
 5500TIP3   OH216463   1.607   2.089   2.218  0.0539 -0.1318  0.3172
 5500TIP3    H116464   1.611   2.180   2.187 -1.2750 -0.4210 -0.8207
 5500TIP3    H216465   1.632   2.037   2.142  0.7722 -0.7473  0.9520
 5501TIP3   OH216466   6.794   5.297   4.374  0.3172 -0.3560  0.1267
 5501TIP3    H116467   6.767   5.222   4.427  0.6476 -1.2873 -0.9897
 5501TIP3    H216468   6.846   5.259   4.304 -2.2804  0.4956 -2.4450
 5502TIP3   OH216469   7.196   6.552   3.711 -0.0821 -0.6309 -0.3008
 5502TIP3    H116470   7.148   6.634   3.724  0.6736 -0.2480  0.2269
 5502TIP3    H216471   7.288   6.578   3.717  0.1639 -1.5532  0.0535
 5503TIP3   OH216472   1.845   3.815   1.084  0.1168 -0.6127  0.2346
 5503TIP3    H116473   1.778   3.811   1.017  0.5683  2.1425 -0.5117
 5503TIP3    H216474   1.926   3.789   1.039  0.7319  2.8131 -0.9176
 5504TIP3   OH216475   5.257   4.228   1.449 -0.1982  0.0781 -0.8806
 5504TIP3    H116476   5.334   4.172   1.460  1.1866  1.7384 -1.6259
 5504TIP3    H216477   5.192   4.192   1.510  2.2065  0.3812  2.1172
 5505TIP3   OH216478   2.010   1.833   4.716  0.0404  1.1215 -0.3174
 5505TIP3    H116479   2.058   1.824   4.798  0.0081  0.7967 -0.3324
 5505TIP3    H216480   2.010   1.927   4.698 -0.9546  1.3297  0.6637
 5506TIP3   OH216481   4.456   1.837   1.018 -0.0044 -0.2858  0.1587
 5506TIP3    H116482   4.550   1.821   1.022 -0.0526 -0.8650 -0.6636
 5506TIP3    H216483   4.419   1.781   1.086  0.2217 -0.2688  0.2961
 5507TIP3   OH216484   1.891   3.287   5.740  0.4432 -0.0376 -0.1227
 5507TIP3    H116485   1.863   3.197   5.724  0.5878  0.0039 -0.6027
 5507TIP3    H216486   1.946   3.282   5.818 -1.1691 -0.0790  1.0596
 5508TIP3   OH216487   5.257   3.793   0.213  0.2157 -0.5038  0.1773
 5508TIP3    H116488   5.227   3.866   0.267  1.1802 -1.0604  1.5020
 5508TIP3    H216489   5.263   3.830   0.125 -2.7305  0.0626  0.1131
 5509TIP3   OH216490   2.634   6.372   2.541  0.4709  0.6015 -0.0639
 5509TIP3    H116491   2.667   6.299   2.489  1.2672  0.9159 -0.0246
 5509TIP3    H216492   2.703   6.388   2.606 -0.6624 -0.0256  1.3493
 5510TIP3   OH216493   6.947   5.910   5.697 -0.0713 -0.5031  0.3661
 5510TIP3    H116494   6.854   5.912   5.719 -0.4112  0.5556 -1.0239
 5510TIP3    H216495   6.950   5.927   5.603  1.5596  0.2989  0.5276
 5511TIP3   OH216496   1.515   3.325   2.338  0.4107 -0.2449  0.2275
 5511TIP3    H116497   1.541   3.337   2.247  1.5528 -0.0435  0.5689
 5511TIP3    H216498   1.596   3.336   2.388 -0.5100  1.5540  1.4263
 5512TIP3   OH216499   4.420   4.489   4.420  0.0286 -0.1860  0.2873
 5512TIP3    H116500   4.345   4.514   4.366 -0.5811  0.7673  1.5486
 5512TIP3    H216501   4.432   4.396   4.402 -0.2781  0.0500 -1.3295
 5513TIP3   OH216502   4.645   4.720   4.858  0.3041  0.5564  0.9627
 5513TIP3    H116503   4.594   4.711   4.938 -0.0430 -1.9760  0.5533
 5513TIP3    H216504   4.624   4.642   4.807  2.4643  0.7996 -0.4600
 5514TIP3   OH216505   4.713   3.094   1.632  0.3417  0.2794 -0.5117
 5514TIP3    H116506   4.802   3.100   1.666  0.2414 -2.1575  0.3409
 5514TIP3    H216507   4.722   3.108   1.538  1.4398  1.1476 -0.2999
 5515TIP3   OH216508   0.350   3.617   3.532  0.3280 -0.5108 -0.6881
 5515TIP3    H116509   0.313   3.644   3.448 -0.3593 -1.4644 -0.7030
 5515TIP3    H216510   0.396   3.535   3.512 -0.1982 -0.9639 -0.0530
 5516TIP3   OH216511   2.057   3.786   5.781  0.0279 -0.6683  0.5928
 5516TIP3    H116512   2.053   3.803   5.875  1.4447  1.4096  0.3577
 5516TIP3    H216513   2.028   3.868   5.740  0.6700 -1.0758 -0.7501
 5517TIP3   OH216514   5.196   3.290   5.847  0.5763  0.0982 -0.4013
 5517TIP3    H116515   5.281   3.292   5.891  0.0200  2.2836  0.7205
 5517TIP3    H216516   5.210   3.338   5.765  1.0458 -1.9818 -1.6144
 5518TIP3   OH216517   0.856   0.669   3.857  0.0319  0.0280 -0.1246
 5518TIP3    H116518   0.880   0.762   3.864  0.1168  0.0155 -0.2476
 5518TIP3    H216519   0.939   0.622   3.863 -0.0956 -0.0974  0.9363
 5519TIP3   OH216520   2.875   0.687   1.534 -0.5987  0.2596 -0.1062
 5519TIP3    H116521   2.958   0.729   1.557 -0.5185  0.6572 -1.0437
 5519TIP3    H216522   2.810   0.755   1.545 -0.8609 -0.1586  0.9829
 5520TIP3   OH216523  -0.013   1.940   3.249 -0.1069 -0.4315  0.1832
 5520TIP3    H116524   0.000   2.029   3.281  0.1971 -0.0111 -1.0454
 5520TIP3    H216525   0.075   1.903   3.242  0.1221  0.3531 -2.4298
 5521TIP3   OH216526   4.351   0.744   3.449 -0.0557 -0.1809 -1.3849
 5521TIP3    H116527   4.424   0.682   3.447 -0.4341 -0.6812 -0.4414
 5521TIP3    H216528   4.285   0.706   3.391 -1.0897 -1.7462  0.6861
 5522TIP3   OH216529   1.380   2.702   0.488 -0.0333  0.0931  0.2268
 5522TIP3    H116530   1.418   2.772   0.542 -0.4374 -1.1325  2.2018
 5522TIP3    H216531   1.297   2.682   0.530  0.2164 -1.7776 -0.0910
 5523TIP3   OH216532   0.451   6.584   1.043 -0.5818  0.3011 -0.5455
 5523TIP3    H116533   0.502   6.564   1.121  1.2107 -0.5688 -1.8560
 5523TIP3    H216534   0.475   6.674   1.020 -0.6307  0.3393 -0.4460
 5524TIP3   OH216535   4.872   0.680   4.349 -0.3596  0.3508 -0.0829
 5524TIP3    H116536   4.832   0.618   4.288 -1.0350  0.3010  0.4020
 5524TIP3    H216537   4.912   0.746   4.292 -0.6407  0.0965 -0.5856
 5525TIP3   OH216538   1.016   3.588   4.398  0.3912 -0.1036  0.0437
 5525TIP3    H116539   0.998   3.500   4.433  0.4524  0.2813  1.0904
 5525TIP3    H216540   1.107   3.584   4.369  0.5941 -0.2137  0.6769
 5526TIP3   OH216541   3.381   3.377   5.830  0.5743  0.7830  0.1039
 5526TIP3    H116542   3.401   3.292   5.869 -0.7950  0.8013  0.8859
 5526TIP3    H216543   3.316   3.416   5.888  0.0228  1.7041 -1.0798
 5527TIP3   OH216544   2.787   5.486   4.485  0.0325  0.4834 -0.1466
 5527TIP3    H116545   2.730   5.417   4.452  2.4990 -2.2801  0.9171
 5527TIP3    H216546   2.829   5.522   4.407 -0.6017  0.1460 -0.6524
 5528TIP3   OH216547   6.557   0.955   0.726  0.3355  0.7692  0.0843
 5528TIP3    H116548   6.610   0.900   0.783 -0.4060 -0.3593 -0.2674
 5528TIP3    H216549   6.561   1.042   0.766  0.0219  0.0706  1.7528
 5529TIP3   OH216550   6.148   3.325   4.363 -0.0496 -0.4234 -0.3502
 5529TIP3    H116551   6.242   3.327   4.345 -0.1614  0.2559 -0.9113
 5529TIP3    H216552   6.115   3.408   4.329 -1.0202 -1.0775 -1.0664
 5530TIP3   OH216553   4.185   3.412   1.014 -0.4154 -0.0800 -0.3351
 5530TIP3    H116554   4.094   3.383   1.018 -0.7184  0.9472  2.1766
 5530TIP3    H216555   4.180   3.506   0.995  0.0999  0.0041 -0.0760
 5531TIP3   OH216556   7.094   2.289   2.537  0.1916  0.2974  0.0145
 5531TIP3    H116557   7.150   2.214   2.558 -1.3045 -1.1055 -0.7432
 5531TIP3    H216558   7.034   2.295   2.612 -1.1533 -0.7549 -0.9383
 5532TIP3   OH216559   2.914   0.688   3.031  0.0092  0.0300  0.1989
 5532TIP3    H116560   2.931   0.776   3.066 -0.2534  0.1220  0.0956
 5532TIP3    H216561   2.829   0.695   2.988 -0.3911 -0.4873  0.9002
 5533TIP3   OH216562   6.145   5.600   4.152 -0.3207 -0.9261 -0.8203
 5533TIP3    H116563   6.206   5.550   4.206 -0.2402 -1.0615 -1.0353
 5533TIP3    H216564   6.076   5.627   4.212  0.5525  0.2718 -0.2932
 5534TIP3   OH216565   6.040   2.694   0.558  0.0224 -0.5048  0.0164
 5534TIP3    H116566   5.999   2.743   0.487  1.4501  0.9123  0.1217
 5534TIP3    H216567   6.075   2.615   0.516 -0.0843 -0.2030 -0.6416
 5535TIP3   OH216568   5.281   3.570   3.897  0.0606 -0.0147  0.5350
 5535TIP3    H116569   5.230   3.533   3.970 -0.0506  0.4589  0.7031
 5535TIP3    H216570   5.311   3.494   3.848  0.6388 -0.3784  1.4168
 5536TIP3   OH216571   3.101   0.826   5.820  0.2243 -0.1720 -0.0002
 5536TIP3    H116572   3.062   0.895   5.873  1.3125  0.4504  0.0088
 5536TIP3    H216573   3.037   0.810   5.750 -0.9574 -0.5932  1.1367
 5537TIP3   OH216574   2.338   0.615   1.936 -0.0185 -0.1824  0.1196
 5537TIP3    H116575   2.407   0.669   1.898 -0.1214 -1.7702 -2.5345
 5537TIP3    H216576   2.382   0.535   1.963 -0.6397 -0.8302 -0.7427
 5538TIP3   OH216577   5.856   5.181   2.451  0.1560 -0.1168 -0.1992
 5538TIP3    H116578   5.870   5.215   2.539 -0.8056  1.7601 -0.7185
 5538TIP3    H216579   5.916   5.107   2.444  0.0033 -0.5348  2.1301
 5539TIP3   OH216580   0.702   5.734   1.607  0.0381  0.1167 -0.5366
 5539TIP3    H116581   0.659   5.715   1.690 -0.1594 -0.8888 -0.8625
 5539TIP3    H216582   0.659   5.676   1.543  0.8879  0.1327 -1.1428
 5540TIP3   OH216583   3.615   2.308   3.828  0.5560  0.6211  0.2459
 5540TIP3    H116584   3.624   2.301   3.733  0.1124  0.9515  0.1731
 5540TIP3    H216585   3.684   2.369   3.855 -0.1143  1.5255 -0.0336
 5541TIP3   OH216586   6.571   2.593   5.228 -0.4239 -0.0298 -0.7252
 5541TIP3    H116587   6.663   2.612   5.243 -0.6396 -1.0829  2.9307
 5541TIP3    H216588   6.524   2.668   5.263 -0.9564 -1.0812  0.9374
 5542TIP3   OH216589   5.742   4.950   4.980  0.1998 -0.4949 -0.1623
 5542TIP3    H116590   5.695   4.871   5.008 -0.5257 -0.6432 -1.6755
 5542TIP3    H216591   5.814   4.918   4.926  0.1473 -0.1284 -0.4540
 5543TIP3   OH216592   0.048   0.188   5.171 -0.0431  0.9664  0.3098
 5543TIP3    H116593  -0.023   0.242   5.207  0.4621  0.8088  1.5940
 5543TIP3    H216594   0.023   0.173   5.080 -1.4812  1.2199  0.6368
 5544TIP3   OH216595   5.485   6.042   0.687  0.2434  0.0639  0.1059
 5544TIP3    H116596   5.479   6.131   0.723  0.2202 -0.3046  1.0135
 5544TIP3    H216597   5.445   6.049   0.600  0.8536  1.0918 -0.1110
 5545TIP3   OH216598   4.260   2.516   0.273  0.1065 -0.2006  0.4327
 5545TIP3    H116599   4.312   2.462   0.214  1.7020  0.5359  1.1028
 5545TIP3    H216600   4.219   2.582   0.217 -0.3168 -0.9278 -0.1317
 5546TIP3   OH216601   1.985   1.952   2.118 -0.3598 -0.2337  0.8840
 5546TIP3    H116602   1.976   1.878   2.058  0.8135  0.3672 -0.0844
 5546TIP3    H216603   2.078   1.972   2.118 -0.4364  0.2565  2.3748
 5547TIP3   OH216604   1.937   5.504   5.032  0.1853  0.3032  0.3877
 5547TIP3    H116605   1.917   5.510   4.938 -1.4763  1.4075  0.7668
 5547TIP3    H216606   1.898   5.422   5.060 -0.5458  0.6326  0.3635
 5548TIP3   OH216607   3.243   3.466   3.551 -0.3964  0.1351  0.1232
 5548TIP3    H116608   3.295   3.386   3.542 -0.1493  0.4877 -2.3196
 5548TIP3    H216609   3.298   3.534   3.513 -2.5130  0.5443 -2.4572
 5549TIP3   OH216610   1.134   0.761   3.891  0.0645 -0.2486 -0.2459
 5549TIP3    H116611   1.225   0.789   3.878  0.7374 -2.8268 -1.8332
 5549TIP3    H216612   1.084   0.811   3.826  0.4284  0.7132  0.1948
 5550TIP3   OH216613   5.809   4.589   0.080 -0.2895 -0.0201  0.0784
 5550TIP3    H116614   5.771   4.513   0.123 -0.8619  0.9177  1.3178
 5550TIP3    H216615   5.903   4.582   0.097 -0.1217 -1.3027 -1.2649
 5551TIP3   OH216616   0.521   1.793   2.245 -0.7799 -0.1959  0.4655
 5551TIP3    H116617   0.446   1.849   2.265 -2.0197 -1.4843 -0.3716
 5551TIP3    H216618   0.532   1.738   2.323  0.2237  0.9338  1.1521
 5552TIP3   OH216619   7.142   3.081   0.572 -0.0901  0.0932 -0.0354
 5552TIP3    H116620   7.071   3.063   0.635  1.1497 -1.4464  0.9789
 5552TIP3    H216621   7.169   3.171   0.594 -0.9787  0.2979  0.3019
 5553TIP3   OH216622   6.679   5.516   4.798  0.2008 -0.1694  0.1128
 5553TIP3    H116623   6.702   5.608   4.788 -0.7837  0.3486  1.9950
 5553TIP3    H216624   6.755   5.468   4.766  1.1241  1.3157 -0.0142
 5554TIP3   OH216625   2.777   1.023   2.260  0.0309  0.2880 -0.5732
 5554TIP3    H116626   2.770   0.979   2.345  0.5145 -0.2745 -0.8210
 5554TIP3    H216627   2.820   0.960   2.203 -1.0247  0.3422 -1.4767
 5555TIP3   OH216628   4.537   6.015   4.416  0.3622  0.0052 -0.4151
 5555TIP3    H116629   4.498   5.982   4.335 -0.6479 -1.2064  0.5121
 5555TIP3    H216630   4.601   6.080   4.388 -0.5857  0.2481 -2.1334
 5556TIP3   OH216631   5.260   1.826   5.269 -0.0587 -0.3621  0.6445
 5556TIP3    H116632   5.305   1.896   5.222  0.8884 -0.6274  1.1364
 5556TIP3    H216633   5.248   1.756   5.204 -0.9277  0.2036  0.1772
 5557TIP3   OH216634   6.295   1.668   0.958 -0.3137 -0.0271 -0.0845
 5557TIP3    H116635   6.304   1.656   0.863 -1.7140  1.6139 -0.4759
 5557TIP3    H216636   6.214   1.623   0.980 -0.5908  0.5658  0.1204
 5558TIP3   OH216637   0.716   1.491   2.466 -0.7744  0.5553  0.7145
 5558TIP3    H116638   0.680   1.572   2.504  1.0096  0.3819  3.0197
 5558TIP3    H216639   0.694   1.423   2.530  0.0771 -0.2743  0.1535
 5559TIP3   OH216640   6.289   6.460   3.985 -0.6821 -0.1020  0.0747
 5559TIP3    H116641   6.370   6.510   3.985 -2.0779  2.3235  0.0389
 5559TIP3    H216642   6.225   6.517   4.029 -2.8697 -1.0137 -1.7219
 5560TIP3   OH216643   1.816   0.738   3.153 -0.4405 -0.7634 -0.2812
 5560TIP3    H116644   1.825   0.772   3.242 -0.3678  0.6295 -0.8059
 5560TIP3    H216645   1.752   0.667   3.161 -0.4579 -0.6361  0.8654
 5561TIP3   OH216646   4.287   0.690   2.870 -0.4705  0.1203 -0.9268
 5561TIP3    H116647   4.320   0.768   2.825 -1.8141 -0.1486 -2.4656
 5561TIP3    H216648   4.207   0.667   2.823 -0.6553 -1.6049  0.1360
 5562TIP3   OH216649   4.415   4.665   0.821 -0.4337 -0.3344 -0.2049
 5562TIP3    H116650   4.418   4.669   0.916 -2.1780 -0.4318 -0.1148
 5562TIP3    H216651   4.334   4.710   0.797  0.2081  0.1085 -1.6844
 5563TIP3   OH216652   4.767   1.926   1.327  0.3838  0.1979 -0.2869
 5563TIP3    H116653   4.694   1.968   1.372  1.2193 -0.2266  1.5489
 5563TIP3    H216654   4.749   1.832   1.334  1.5626  0.0461  1.0576
 5564TIP3   OH216655   5.531   3.338   5.655  0.3135 -0.3522  0.1887
 5564TIP3    H116656   5.473   3.262   5.651 -0.1622  0.0330 -0.1828
 5564TIP3    H216657   5.563   3.339   5.746 -0.1672 -0.6235  0.3620
 5565TIP3   OH216658   3.937   5.314   3.989 -0.2921 -0.2898  0.1646
 5565TIP3    H116659   3.963   5.386   3.932 -1.6892 -0.1833 -0.3811
 5565TIP3    H216660   3.856   5.344   4.030  1.4543  0.2945  3.5063
 5566TIP3   OH216661   0.734   4.324   0.806 -0.2584  0.2022  0.0456
 5566TIP3    H116662   0.724   4.342   0.712  1.1771 -0.3328 -0.2298
 5566TIP3    H216663   0.796   4.252   0.811  1.2132  1.4916  1.4774
 5567TIP3   OH216664   0.081   3.702   2.609  0.1076  0.2512 -0.0431
 5567TIP3    H116665   0.097   3.646   2.686  0.8572  1.2765  0.5785
 5567TIP3    H216666   0.108   3.648   2.534  0.0145 -0.5237  0.4638
 5568TIP3   OH216667   6.252   5.287   0.320 -0.1832  0.2831 -0.1439
 5568TIP3    H116668   6.256   5.368   0.371  2.2956  0.0214  0.2198
 5568TIP3    H216669   6.294   5.309   0.236  0.9685 -0.6858  0.1368
 5569TIP3   OH216670   3.144   1.283   4.527  0.0186 -0.1738 -0.2386
 5569TIP3    H116671   3.163   1.268   4.434  0.4516 -0.4063 -0.1126
 5569TIP3    H216672   3.080   1.215   4.549 -0.1425 -0.0706 -0.3855
 5570TIP3   OH216673   2.750   4.049   3.570 -0.6932  0.1156 -0.6733
 5570TIP3    H116674   2.792   4.081   3.650 -0.8259 -2.2612  0.4179
 5570TIP3    H216675   2.663   4.091   3.571 -0.1456  1.2961 -0.4090
 5571TIP3   OH216676   4.810   1.635   5.480 -0.4547  0.3469 -0.1408
 5571TIP3    H116677   4.715   1.646   5.488 -0.3587  0.2457  1.5467
 5571TIP3    H216678   4.834   1.688   5.405 -1.5656  2.2738  0.7900
 5572TIP3   OH216679   3.668   2.871   2.830 -0.2363 -0.2236  0.5836
 5572TIP3    H116680   3.654   2.904   2.919  0.1740 -0.9398  0.9235
 5572TIP3    H216681   3.695   2.948   2.780 -2.6301  0.6646  0.5176
 5573TIP3   OH216682   0.054   6.789   1.308  0.6725  0.2644 -0.2819
 5573TIP3    H116683   0.129   6.771   1.366 -1.3789 -1.1618  2.1332
 5573TIP3    H216684   0.006   6.706   1.305 -1.6572  1.5335 -0.4233
 5574TIP3   OH216685   4.461   2.617   1.840 -0.0109 -0.3151  0.1012
 5574TIP3    H116686   4.440   2.535   1.884 -0.9462  0.4634  1.1675
 5574TIP3    H216687   4.512   2.667   1.903 -1.6446  0.9493  0.5173
 5575TIP3   OH216688   0.765   1.275   3.006 -0.3201 -0.3415  0.2341
 5575TIP3    H116689   0.791   1.363   2.979  0.5404 -0.5256  0.4370
 5575TIP3    H216690   0.811   1.260   3.089 -1.6489 -0.4090  0.9972
 5576TIP3   OH216691   4.953   0.820   0.977  0.0978 -0.1842 -0.5108
 5576TIP3    H116692   4.989   0.732   0.987 -0.5052 -0.4021 -0.2658
 5576TIP3    H216693   4.977   0.845   0.888  2.5946  0.4562  0.2486
 5577TIP3   OH216694   1.281   3.496   4.323 -0.4379  0.2208  0.4903
 5577TIP3    H116695   1.259   3.450   4.242 -2.3306 -1.2977  1.7700
 5577TIP3    H216696   1.354   3.553   4.299 -0.8418 -0.2581 -2.2333
 5578TIP3   OH216697   5.765   5.754   3.510  0.2530  0.2755  0.0272
 5578TIP3    H116698   5.822   5.681   3.534 -0.2049 -0.3856 -0.7943
 5578TIP3    H216699   5.819   5.809   3.453  0.5384  0.4753  0.4884
 5579TIP3   OH216700   0.384   3.018   0.558 -0.2384  0.3826  0.2810
 5579TIP3    H116701   0.453   2.965   0.598  0.1139 -0.3056 -1.1918
 5579TIP3    H216702   0.320   2.955   0.525 -1.5287  1.0101  1.4706
 5580TIP3   OH216703   1.809   3.144   5.047 -0.0731  0.5700  0.0452
 5580TIP3    H116704   1.853   3.165   4.965 -1.8666  2.6559 -0.4935
 5580TIP3    H216705   1.738   3.208   5.052 -1.3236 -0.8932  2.1907
 5581TIP3   OH216706   7.130   4.921   1.819 -0.5037  0.3070  0.2856
 5581TIP3    H116707   7.202   4.908   1.881 -0.3432  2.0115  0.4979
 5581TIP3    H216708   7.087   4.835   1.815 -0.0210 -0.0725  2.1293
 5582TIP3   OH216709   1.953   6.494   5.083  0.5709 -0.2042  0.5964
 5582TIP3    H116710   1.982   6.405   5.060 -2.2449 -0.9284 -0.6146
 5582TIP3    H216711   1.967   6.545   5.004 -0.4042 -0.3031  0.3502
 5583TIP3   OH216712   3.253   1.257   3.019  0.5270 -0.4635  0.1770
 5583TIP3    H116713   3.175   1.212   3.049  0.1036  0.4072  0.4103
 5583TIP3    H216714   3.267   1.225   2.930 -1.2269  0.8060 -0.6003
 5584TIP3   OH216715   4.332   5.442   1.103  0.9068 -1.2660  0.4200
 5584TIP3    H116716   4.344   5.532   1.072 -1.6608 -0.8009  0.5119
 5584TIP3    H216717   4.405   5.427   1.162  1.6138  0.6265  0.0991
 5585TIP3   OH216718   6.608   0.910   5.528 -0.1526  0.1772  0.0662
 5585TIP3    H116719   6.594   0.946   5.440  0.4950  0.8630  0.2368
 5585TIP3    H216720   6.611   0.987   5.585  2.3688 -0.0070  0.2960
 5586TIP3   OH216721   0.224  -0.021   0.312 -0.2611  0.7637  0.2779
 5586TIP3    H116722   0.250  -0.034   0.221  0.5492 -0.1383  0.6200
 5586TIP3    H216723   0.249   0.069   0.332 -0.6741  1.0496 -0.4596
 5587TIP3   OH216724   0.343   6.332   0.325  0.4258  0.0997  0.6784
 5587TIP3    H116725   0.321   6.418   0.289  0.8504 -0.2967 -0.6182
 5587TIP3    H216726   0.420   6.348   0.380 -1.7367  1.1515  3.6370
 5588TIP3   OH216727   5.081   4.716   1.545  0.2271 -0.2352 -0.4274
 5588TIP3    H116728   5.113   4.705   1.634 -1.6026 -0.9543  0.1823
 5588TIP3    H216729   5.160   4.720   1.491  1.4199  1.2946  1.3068
 5589TIP3   OH216730   5.896   5.843   1.609 -0.5587  0.2165  0.1540
 5589TIP3    H116731   5.946   5.886   1.540 -1.2792 -2.5643 -2.3554
 5589TIP3    H216732   5.893   5.906   1.681  2.1018  2.4565 -1.5111
 5590TIP3   OH216733   4.209   1.291   3.403 -0.4886 -0.3674 -0.3160
 5590TIP3    H116734   4.225   1.204   3.440 -1.0340 -0.6112 -0.6529
 5590TIP3    H216735   4.286   1.308   3.349  1.3598  0.8551  2.4524
 5591TIP3   OH216736   4.349   3.398   0.185 -0.2095 -0.6345  0.9881
 5591TIP3    H116737   4.391   3.324   0.141 -0.7985 -0.6922  0.5044
 5591TIP3    H216738   4.416   3.432   0.244  0.7287 -0.3373 -0.1919
 5592TIP3   OH216739   6.499   5.600   3.722  0.4472  0.7933 -0.8132
 5592TIP3    H116740   6.496   5.523   3.665  2.6027 -0.8001  1.0123
 5592TIP3    H216741   6.575   5.650   3.692  1.2788  0.2191  0.2527
 5593TIP3   OH216742   4.696   5.871   5.233  0.1605  0.2352 -0.7473
 5593TIP3    H116743   4.607   5.905   5.235  0.2153  0.3684  0.9378
 5593TIP3    H216744   4.752   5.949   5.235  0.2925  0.1344 -0.0933
 5594TIP3   OH216745   4.769   4.451   3.583  0.5123  0.2256 -0.3441
 5594TIP3    H116746   4.858   4.436   3.616  0.0023 -0.8790  0.6179
 5594TIP3    H216747   4.728   4.505   3.650  0.3624  0.4580 -0.6230
 5595TIP3   OH216748   0.210   0.593   0.053  0.3302  0.0896 -0.1749
 5595TIP3    H116749   0.133   0.536   0.050 -2.1599  3.1731 -0.3312
 5595TIP3    H216750   0.235   0.603  -0.039  1.1038 -1.0342 -0.1139
 5596TIP3   OH216751   5.716   0.217   2.142  0.3814 -0.3422 -0.0771
 5596TIP3    H116752   5.733   0.233   2.235 -1.3955  1.1818  0.0499
 5596TIP3    H216753   5.631   0.258   2.126  0.1769 -1.4510 -2.1613
 5597TIP3   OH216754   0.990   4.813   5.754 -0.3100  0.4521  0.6920
 5597TIP3    H116755   0.895   4.817   5.746 -0.2324  0.7954 -0.1909
 5597TIP3    H216756   1.013   4.887   5.811 -0.6215 -0.0350  1.4565
 5598TIP3   OH216757   5.446   3.246   4.490 -0.1966  0.1801 -0.4766
 5598TIP3    H116758   5.401   3.269   4.408 -0.0310 -1.6966 -1.1437
 5598TIP3    H216759   5.538   3.268   4.474 -0.2681  0.4212 -0.5547
 5599TIP3   OH216760   2.557   6.660   0.157  0.4979 -0.7667 -0.1468
 5599TIP3    H116761   2.633   6.681   0.211  1.3352 -0.2569 -1.4670
 5599TIP3    H216762   2.490   6.722   0.184  1.1779  0.0314 -0.2507
 5600TIP3   OH216763   6.279   5.080   3.131 -0.2867  0.0192 -0.2114
 5600TIP3    H116764   6.284   5.081   3.226 -0.3052  0.6596 -0.2129
 5600TIP3    H216765   6.192   5.114   3.111  0.1625  1.0640 -0.4750
 5601TIP3   OH216766   4.613   4.618   1.785  0.2218 -0.5002  0.0356
 5601TIP3    H116767   4.645   4.705   1.762  0.3974 -0.7735 -0.7952
 5601TIP3    H216768   4.679   4.558   1.749  1.3333 -0.9342  2.5883
 5602TIP3   OH216769   2.272   3.103   2.448  0.6314  0.3029  0.3573
 5602TIP3    H116770   2.286   3.191   2.414  1.4633  0.2624  0.5802
 5602TIP3    H216771   2.304   3.045   2.380 -0.1677  0.1565  0.0954
 5603TIP3   OH216772   3.814   6.005   1.375  0.3206 -0.0262 -0.0228
 5603TIP3    H116773   3.857   5.977   1.456 -0.7150 -0.7495  0.3092
 5603TIP3    H216774   3.832   6.099   1.370  1.7422 -0.2602  0.1935
 5604TIP3   OH216775   6.791   3.843   0.511 -0.2643 -0.1754 -0.2498
 5604TIP3    H116776   6.825   3.899   0.580  0.5564 -2.9258  1.7866
 5604TIP3    H216777   6.843   3.865   0.434  0.9776  0.8730  0.8435
 5605TIP3   OH216778   1.594   1.290   4.065 -0.6351  0.2239  0.3744
 5605TIP3    H116779   1.545   1.262   4.142 -0.4305 -0.4399  0.2692
 5605TIP3    H216780   1.582   1.385   4.062 -1.9976  0.0624  0.2837
 5606TIP3   OH216781   2.604   6.005   1.043 -0.1069 -0.4936 -0.7790
 5606TIP3    H116782   2.557   5.985   0.962 -0.4151 -2.5148 -0.1519
 5606TIP3    H216783   2.545   6.062   1.092 -1.5477 -2.1936 -0.4356
 5607TIP3   OH216784   1.867   3.945   4.187  0.0881  0.2683 -0.3629
 5607TIP3    H116785   1.861   3.905   4.274  1.5672 -2.2913 -1.3323
 5607TIP3    H216786   1.776   3.954   4.159 -0.3941  0.6027  1.2050
 5608TIP3   OH216787   2.227   5.763   0.481  0.5257 -0.1866 -0.5152
 5608TIP3    H116788   2.248   5.724   0.396  0.5966  0.9844 -1.0516
 5608TIP3    H216789   2.135   5.787   0.475 -0.1647 -2.2785  0.6415
 5609TIP3   OH216790   6.989   1.348   0.129 -0.5928 -0.0033  0.0368
 5609TIP3    H116791   6.921   1.339   0.196 -1.3968  0.3592 -0.7079
 5609TIP3    H216792   6.962   1.290   0.058 -0.7115  0.9439 -0.7217
 5610TIP3   OH216793   1.475   5.063   4.727  0.3074  0.1780 -0.0798
 5610TIP3    H116794   1.501   5.033   4.814  1.5772 -0.5270 -0.6773
 5610TIP3    H216795   1.402   5.006   4.703  2.6144 -2.5491 -1.1584
 5611TIP3   OH216796   2.301   3.159   1.461  0.6519  0.6652  0.2934
 5611TIP3    H116797   2.350   3.202   1.392  0.4196  0.7163  0.1617
 5611TIP3    H216798   2.325   3.207   1.541 -0.1402  1.4774  0.0450
 5612TIP3   OH216799   7.168   4.642   1.008  0.3099  0.1705 -0.6340
 5612TIP3    H116800   7.086   4.596   0.988  0.2860 -0.0203 -0.1044
 5612TIP3    H216801   7.152   4.684   1.092  1.3088 -1.2389  0.3051
 5613TIP3   OH216802   6.393   6.289   2.163 -0.2511  0.6216 -0.2053
 5613TIP3    H116803   6.375   6.238   2.242 -0.0764 -0.3451 -0.7824
 5613TIP3    H216804   6.488   6.285   2.153 -0.2119  1.2598 -0.1274
 5614TIP3   OH216805   3.065   5.955   0.225  0.2414 -0.4723  0.0502
 5614TIP3    H116806   3.133   5.935   0.289 -0.1582 -0.2562  0.5474
 5614TIP3    H216807   3.113   5.977   0.145  0.9004  2.1730  1.0433
 5615TIP3   OH216808   1.150   3.177   3.634  0.1182  0.1426 -0.1200
 5615TIP3    H116809   1.230   3.132   3.605 -1.4568 -2.0576 -1.3543
 5615TIP3    H216810   1.145   3.158   3.728  0.5162 -0.6441 -0.2423
 5616TIP3   OH216811   2.059   4.644   2.505  0.0279  0.2194  0.4164
 5616TIP3    H116812   2.080   4.591   2.582  1.4650  0.2753  0.0890
 5616TIP3    H216813   2.092   4.731   2.526 -0.5168  0.4957  0.1482
 5617TIP3   OH216814   5.087   6.754   1.789  0.2993 -0.2101  0.2308
 5617TIP3    H116815   5.066   6.791   1.704  1.6473  1.3861  0.5485
 5617TIP3    H216816   5.168   6.798   1.815 -0.6944  0.2210  2.8639
 5618TIP3   OH216817   0.276   0.921   1.649  0.1478 -0.1779  0.1645
 5618TIP3    H116818   0.329   0.964   1.581  0.2929 -0.6118  0.0027
 5618TIP3    H216819   0.186   0.942   1.624  0.2457  1.3979  0.9883
 5619TIP3   OH216820   3.341   3.343   5.360  0.1094 -0.5413  0.3419
 5619TIP3    H116821   3.274   3.354   5.428 -2.8134 -1.1696 -2.1625
 5619TIP3    H216822   3.367   3.252   5.367  0.2596 -0.4548  0.9712
 5620TIP3   OH216823   7.131   3.323   4.578 -0.1515 -0.5909 -0.3392
 5620TIP3    H116824   7.171   3.287   4.499 -0.2367 -0.1395 -0.5882
 5620TIP3    H216825   7.195   3.386   4.611 -0.9650  0.6988 -1.1588
 5621TIP3   OH216826   2.874   2.541   0.764 -0.1379 -0.0232 -0.0220
 5621TIP3    H116827   2.956   2.587   0.751 -1.4331  2.0297 -1.7426
 5621TIP3    H216828   2.810   2.592   0.713 -2.0873 -2.6300 -0.4172
 5622TIP3   OH216829   0.832   6.192   1.985  0.5178 -0.1441 -0.1297
 5622TIP3    H116830   0.889   6.125   2.023 -0.5723 -1.7310 -1.1897
 5622TIP3    H216831   0.813   6.251   2.058  3.2296  0.3013  0.3341
 5623TIP3   OH216832   5.458   3.761   2.925  0.0122  0.4329 -0.4180
 5623TIP3    H116833   5.469   3.798   2.838 -1.0450  0.9194 -0.3538
 5623TIP3    H216834   5.378   3.708   2.920  1.2098 -1.4836 -0.3756
 5624TIP3   OH216835   4.937   5.885   0.990 -0.5015 -0.7142  0.3297
 5624TIP3    H116836   4.891   5.938   1.055 -0.1512  0.3640 -0.2713
 5624TIP3    H216837   4.925   5.795   1.019  0.7135 -0.2203  2.6318
 5625TIP3   OH216838   5.119   5.236   1.222 -0.2518 -0.1420 -0.0969
 5625TIP3    H116839   5.141   5.307   1.282  0.1831 -1.5096  1.4341
 5625TIP3    H216840   5.062   5.178   1.273  1.0555 -1.9380 -0.5463
 5626TIP3   OH216841   5.670   6.046   3.192 -0.5281 -0.3446  0.6098
 5626TIP3    H116842   5.638   6.064   3.103 -0.7038 -0.7900  0.5822
 5626TIP3    H216843   5.723   5.967   3.183  1.9556  1.2424  0.3603
 5627TIP3   OH216844   6.216   4.811   1.446 -0.2632 -0.0328  0.1577
 5627TIP3    H116845   6.272   4.880   1.482 -0.9739 -0.0492  1.3512
 5627TIP3    H216846   6.210   4.831   1.353 -2.0184  2.7168  0.7500
 5628TIP3   OH216847   5.400   1.241   0.472  0.3434  0.1854  0.5239
 5628TIP3    H116848   5.375   1.197   0.391  1.2862  0.0540  0.2807
 5628TIP3    H216849   5.367   1.185   0.542 -0.8044  0.4969  0.2378
 5629TIP3   OH216850   5.254   0.580   5.214  0.3044 -0.0203 -0.3997
 5629TIP3    H116851   5.262   0.649   5.280  1.6231  0.3977 -0.9609
 5629TIP3    H216852   5.339   0.535   5.217 -1.0705 -2.7829  1.1740
 5630TIP3   OH216853   6.472   0.298   2.242 -0.6451 -0.0396  0.0482
 5630TIP3    H116854   6.377   0.303   2.252 -0.7475 -1.6506  0.0903
 5630TIP3    H216855   6.495   0.381   2.200 -1.8054  1.2480  1.7443
 5631TIP3   OH216856   5.190   5.358   5.140  0.3836  0.1991  0.1631
 5631TIP3    H116857   5.163   5.290   5.078 -1.5253  0.1551  0.9911
 5631TIP3    H216858   5.130   5.349   5.214  0.4727  2.4117  0.5702
 5632TIP3   OH216859   0.816   0.806   2.464  0.1256  0.1767  0.4779
 5632TIP3    H116860   0.813   0.808   2.560  0.7465 -0.8992  0.5373
 5632TIP3    H216861   0.904   0.839   2.443  0.8137 -1.6027  0.3978
 5633TIP3   OH216862   4.221   4.514   5.235 -0.4357 -0.0993  0.0550
 5633TIP3    H116863   4.213   4.605   5.266 -1.3246 -0.1134 -0.1077
 5633TIP3    H216864   4.292   4.477   5.288  1.5955  1.3440 -1.4650
 5634TIP3   OH216865   1.018   2.028   3.162 -0.0694  0.3018  0.2848
 5634TIP3    H116866   1.057   2.078   3.234  0.4579  0.0155  0.2079
 5634TIP3    H216867   0.924   2.040   3.172 -0.0349 -0.1618  1.3466
 5635TIP3   OH216868   3.670   4.726   5.004 -0.0976  0.2352 -0.3061
 5635TIP3    H116869   3.621   4.644   4.991  0.4328 -0.1040 -0.1981
 5635TIP3    H216870   3.712   4.742   4.920  0.8999 -0.3428  0.0668
 5636TIP3   OH216871   4.879   6.259   2.531 -0.7830  0.3198  0.0388
 5636TIP3    H116872   4.886   6.166   2.551 -1.4836  0.1358 -0.5357
 5636TIP3    H216873   4.788   6.281   2.549 -1.3109  0.2709 -2.2667
 5637TIP3   OH216874   1.537   3.204   3.575 -0.4453 -0.2104  0.4021
 5637TIP3    H116875   1.468   3.139   3.589 -0.6331 -0.4694 -1.4135
 5637TIP3    H216876   1.617   3.152   3.563 -0.7532 -0.2655 -2.0107
 5638TIP3   OH216877   7.076   5.303   5.064  0.4925 -0.2288 -0.0518
 5638TIP3    H116878   7.062   5.270   4.975  2.9711 -1.9287  0.0753
 5638TIP3    H216879   7.137   5.377   5.053  1.3359 -0.8630  0.2426
 5639TIP3   OH216880   1.268   5.263   1.740 -0.5484  0.0585  0.7893
 5639TIP3    H116881   1.237   5.277   1.650 -1.1492  0.3031  1.0345
 5639TIP3    H216882   1.236   5.339   1.789  0.4332  0.3201  1.0522
 5640TIP3   OH216883   6.821   3.626   2.088 -0.1806  0.1371  0.1338
 5640TIP3    H116884   6.784   3.684   2.021 -1.2510 -0.9392 -0.2466
 5640TIP3    H216885   6.891   3.677   2.128  0.8320  0.6785 -2.1301
 5641TIP3   OH216886   7.110   6.474   1.609 -0.5949  0.6345  0.0759
 5641TIP3    H116887   7.072   6.463   1.522  1.3893 -0.1259 -0.7592
 5641TIP3    H216888   7.113   6.569   1.622 -1.2390  0.7484 -0.5180
 5642TIP3   OH216889   6.966   6.085   0.636 -0.6210 -0.0162 -0.1783
 5642TIP3    H116890   7.005   6.140   0.705 -1.1049  0.1674 -0.0427
 5642TIP3    H216891   6.996   6.125   0.555 -0.4446  0.0656 -0.0748
 5643TIP3   OH216892   0.708   5.992   1.292  0.1434 -0.3350  0.4035
 5643TIP3    H116893   0.670   5.911   1.326 -1.3325  0.1316 -0.0740
 5643TIP3    H216894   0.752   6.032   1.367 -2.6938  0.4743  1.7604
 5644TIP3   OH216895   4.497   4.781   2.195 -0.7181  0.1160 -0.2295
 5644TIP3    H116896   4.497   4.810   2.286 -1.5837 -0.7571  0.0585
 5644TIP3    H216897   4.428   4.833   2.154 -2.2298 -1.3949  0.2737
 5645TIP3   OH216898   1.325   6.370   2.951  0.4102 -0.1727  0.3195
 5645TIP3    H116899   1.230   6.374   2.956  0.3169 -2.0124  0.8563
 5645TIP3    H216900   1.344   6.279   2.928  2.0450  0.0449  0.6641
 5646TIP3   OH216901   0.854   3.753   1.632  0.2477  0.2220  0.0491
 5646TIP3    H116902   0.903   3.708   1.563  0.3392 -0.9062  0.8147
 5646TIP3    H216903   0.817   3.830   1.589  0.0966 -0.5817 -1.3166
 5647TIP3   OH216904   2.144   1.011   4.815  0.2546  0.1161 -0.0322
 5647TIP3    H116905   2.049   1.021   4.810  0.2135 -0.2908 -0.1084
 5647TIP3    H216906   2.163   0.937   4.758  0.8701  1.6000 -1.8710
 5648TIP3   OH216907   3.079   4.282   2.192  0.2159  0.1750 -0.1439
 5648TIP3    H116908   3.110   4.221   2.125 -1.2152  0.2192 -0.8826
 5648TIP3    H216909   3.131   4.260   2.270  1.0167 -0.7325 -0.9021
 5649TIP3   OH216910   3.121   0.195   5.249 -0.7334 -0.4292 -0.5009
 5649TIP3    H116911   3.110   0.287   5.274  1.8118 -0.1370 -0.2666
 5649TIP3    H216912   3.150   0.152   5.329 -0.6442 -1.2022 -0.9374
 5650TIP3   OH216913   2.518   2.115   0.505 -0.3869  0.1849 -0.1731
 5650TIP3    H116914   2.555   2.193   0.465 -1.1822 -0.0694 -1.4934
 5650TIP3    H216915   2.593   2.069   0.543  0.7200 -0.3284 -2.7541
 5651TIP3   OH216916   6.599   2.836   4.975 -0.1826 -0.1333 -0.1925
 5651TIP3    H116917   6.564   2.747   4.976 -0.3525 -0.1540 -2.5059
 5651TIP3    H216918   6.691   2.826   4.997 -0.7112 -0.5393  2.0597
 5652TIP3   OH216919   3.717   3.631   3.349  0.7125  0.3081  0.5582
 5652TIP3    H116920   3.683   3.618   3.261 -0.1941 -0.1082  0.9525
 5652TIP3    H216921   3.738   3.543   3.380 -0.4950  0.2657  1.3315
 5653TIP3   OH216922   6.427   1.609   2.203 -0.1215  0.1603  0.0081
 5653TIP3    H116923   6.363   1.593   2.273  0.2609  1.0243  0.5727
 5653TIP3    H216924   6.379   1.662   2.139  0.0218  0.7854  0.4180
 5654TIP3   OH216925   3.318   1.313   1.199  0.0252  0.1859  0.1439
 5654TIP3    H116926   3.362   1.229   1.213  2.0585  0.7367 -2.2400
 5654TIP3    H216927   3.362   1.375   1.257  0.5550  0.1867 -0.2554
 5655TIP3   OH216928   5.574   1.131   2.835  0.7365 -0.0454 -0.2544
 5655TIP3    H116929   5.624   1.144   2.754  0.5234  1.4577 -0.1808
 5655TIP3    H216930   5.521   1.211   2.843  0.0225 -0.6065  0.8630
 5656TIP3   OH216931   1.615   2.998   3.195  0.3132  0.1924 -0.2706
 5656TIP3    H116932   1.531   2.968   3.161  0.8041 -3.0127  0.9884
 5656TIP3    H216933   1.664   3.026   3.118 -1.2491  0.4105 -1.2230
 5657TIP3   OH216934   2.124   0.125   4.111  0.3992 -0.3467  0.6212
 5657TIP3    H116935   2.168   0.093   4.032  0.7085  2.9545 -0.6970
 5657TIP3    H216936   2.196   0.155   4.168  0.1561 -2.3140  2.0880
 5658TIP3   OH216937   2.038   0.449   1.421  0.2226 -0.0701 -0.2275
 5658TIP3    H116938   2.028   0.369   1.370 -2.3645  0.4993 -0.7768
 5658TIP3    H216939   2.068   0.515   1.358 -2.4690  0.5062 -1.0478
 5659TIP3   OH216940   0.984   3.285   4.339  0.0341  0.2502  0.1366
 5659TIP3    H116941   0.962   3.207   4.390 -0.2355  0.5772  0.5209
 5659TIP3    H216942   0.904   3.305   4.290  0.5722 -0.6273 -1.1812
 5660TIP3   OH216943   6.005   4.744   2.306  0.2719  1.0128 -0.1497
 5660TIP3    H116944   6.045   4.738   2.219 -0.2311  1.7017 -0.4454
 5660TIP3    H216945   6.070   4.707   2.366  1.7622  2.8815 -0.4992
 5661TIP3   OH216946   1.231   1.213   0.958  0.4861  0.2833  0.1329
 5661TIP3    H116947   1.207   1.298   0.996  1.6308  1.0570 -0.7851
 5661TIP3    H216948   1.231   1.228   0.863 -1.4889 -1.3733 -0.1963
 5662TIP3   OH216949   0.183   0.238   4.503 -0.3435  0.1093 -0.4476
 5662TIP3    H116950   0.262   0.223   4.555 -0.8364  2.1551  1.0091
 5662TIP3    H216951   0.111   0.212   4.561 -0.8418  1.0468 -0.6254
 5663TIP3   OH216952   5.070   6.168   4.119  0.2091  0.3115  0.1378
 5663TIP3    H116953   5.045   6.100   4.182 -0.5806  2.5127  2.4024
 5663TIP3    H216954   4.998   6.172   4.057 -0.0305 -0.4864  0.3617
 5664TIP3   OH216955   6.260   1.542   4.855  0.2018 -0.7014 -0.9790
 5664TIP3    H116956   6.340   1.537   4.803  0.9301 -0.7871  0.1113
 5664TIP3    H216957   6.227   1.452   4.855 -0.8605 -0.3636 -2.8407
 5665TIP3   OH216958   1.766   4.741   0.098 -0.5475 -0.8780 -0.1233
 5665TIP3    H116959   1.854   4.780   0.099 -1.0380  0.2603  1.0278
 5665TIP3    H216960   1.779   4.651   0.129  0.3502 -1.1095 -1.0957
 5666TIP3   OH216961   1.939   4.464   0.450  0.1005 -0.5342 -0.6369
 5666TIP3    H116962   1.849   4.485   0.473 -0.1251  0.4615 -2.2885
 5666TIP3    H216963   1.944   4.369   0.453 -0.4112 -0.5481  1.4968
 5667TIP3   OH216964   6.117   0.159   4.875 -0.7450  0.0098 -0.1899
 5667TIP3    H116965   6.097   0.068   4.852 -0.1816 -0.6408  1.7670
 5667TIP3    H216966   6.137   0.157   4.968  1.3745  1.8040 -0.5298
 5668TIP3   OH216967   0.270   3.744   5.532  0.0987 -0.4448 -0.3463
 5668TIP3    H116968   0.209   3.794   5.586 -0.4056 -0.9177 -0.4737
 5668TIP3    H216969   0.219   3.670   5.500  0.9144 -1.1990  0.0565
 5669TIP3   OH216970   3.088   6.388   2.053  0.3709  0.2770 -0.0443
 5669TIP3    H116971   3.159   6.450   2.037  0.9156 -0.7939 -2.1585
 5669TIP3    H216972   3.125   6.324   2.114  1.6471 -0.8031 -1.8429
 5670TIP3   OH216973   5.611   6.509   1.690 -0.2106 -0.0643 -0.1909
 5670TIP3    H116974   5.560   6.431   1.711 -0.1903  0.0898  0.4532
 5670TIP3    H216975   5.572   6.543   1.609  0.5288 -1.4016 -1.1489
 5671TIP3   OH216976   5.171   6.609   2.059  0.0368 -0.0300  0.3169
 5671TIP3    H116977   5.151   6.535   2.000 -0.0881  0.6475 -0.5098
 5671TIP3    H216978   5.207   6.568   2.137 -0.3959 -0.9979  0.0221
 5672TIP3   OH216979   1.329   3.832   2.759 -0.2599  0.4720 -0.3596
 5672TIP3    H116980   1.330   3.832   2.663  0.6842  0.1741 -0.3585
 5672TIP3    H216981   1.415   3.797   2.784 -0.6494  0.1697  0.5956
 5673TIP3   OH216982   4.716   0.934   2.341  0.1041  0.0241  0.3525
 5673TIP3    H116983   4.798   0.971   2.309 -0.5601  0.1196 -1.3741
 5673TIP3    H216984   4.742   0.862   2.399  1.4157  2.4909  3.0469
 5674TIP3   OH216985   6.522   5.890   4.325  0.1610  0.2932  0.2925
 5674TIP3    H116986   6.551   5.966   4.376  1.6663 -0.3998  0.5127
 5674TIP3    H216987   6.595   5.871   4.267 -0.9294  0.1220 -1.0861
 5675TIP3   OH216988   6.397   6.206   4.411  0.2499  0.2826  0.8466
 5675TIP3    H116989   6.375   6.144   4.342 -3.1562  1.4745  0.6650
 5675TIP3    H216990   6.323   6.267   4.413  0.3437  0.5640  5.2532
 5676TIP3   OH216991   3.395   0.010   3.717 -0.0224 -0.1795  0.4706
 5676TIP3    H116992   3.334   0.043   3.784 -0.1379 -1.1649  0.8707
 5676TIP3    H216993   3.430   0.088   3.676  0.1105  0.4563  1.7466
 5677TIP3   OH216994   6.367   2.266   4.907 -0.4383 -0.2311 -0.2895
 5677TIP3    H116995   6.350   2.176   4.937  1.8885 -0.8237 -0.5163
 5677TIP3    H216996   6.369   2.318   4.988  0.7979 -0.9106  0.1612
 5678TIP3   OH216997   3.613   6.323   5.430 -0.2543 -0.5960  0.0720
 5678TIP3    H116998   3.527   6.330   5.472 -0.4878 -2.9393  0.1436
 5678TIP3    H216999   3.667   6.277   5.495  0.3847 -1.1368 -0.8270
 5679TIP3   OH217000   5.816   1.679   1.470 -0.0261  0.2253 -0.2205
 5679TIP3    H117001   5.820   1.766   1.508  0.5439 -0.2597  0.8552
 5679TIP3    H217002   5.860   1.622   1.533  0.2095 -0.7385 -1.2182
 5680TIP3   OH217003   0.197   2.767   2.707 -0.2688  0.2098 -0.1608
 5680TIP3    H117004   0.231   2.727   2.627 -1.1349  1.6746 -1.3070
 5680TIP3    H217005   0.117   2.812   2.680 -2.2338 -1.6054  2.0866
 5681TIP3   OH217006   2.558   2.643   1.216  0.3085 -0.4469  0.1999
 5681TIP3    H117007   2.569   2.733   1.185 -1.1914  1.1176  3.6445
 5681TIP3    H217008   2.631   2.629   1.277 -0.6566 -0.6899  1.3434
 5682TIP3   OH217009   4.332   1.963   0.271  0.3307  0.0339  0.8974
 5682TIP3    H117010   4.380   1.893   0.226 -1.3846 -1.2791  0.9932
 5682TIP3    H217011   4.400   2.021   0.306  1.8007  0.6303 -2.5101
 5683TIP3   OH217012   3.755   1.211   2.286 -0.8777 -0.7730 -0.3404
 5683TIP3    H117013   3.664   1.212   2.255 -0.7738  0.8890 -0.7258
 5683TIP3    H217014   3.806   1.239   2.209 -0.2623  0.1594  0.3748
 5684TIP3   OH217015   1.116   4.280   0.122 -0.5850 -0.2055 -0.2062
 5684TIP3    H117016   1.144   4.319   0.205 -1.2731  0.4243 -0.2619
 5684TIP3    H217017   1.087   4.192   0.146  1.6373 -0.9865 -0.1841
 5685TIP3   OH217018   6.401   5.167   4.605  0.4260  0.1087 -0.1193
 5685TIP3    H117019   6.494   5.170   4.584  0.4520  0.5796  0.0489
 5685TIP3    H217020   6.367   5.094   4.553  0.9095 -0.1466 -0.0901
 5686TIP3   OH217021   2.683   0.333   1.363  0.1075 -0.3612  0.7500
 5686TIP3    H117022   2.604   0.379   1.388  0.3752  1.5711 -1.6301
 5686TIP3    H217023   2.750   0.367   1.422  0.0438  1.5101 -0.1776
 5687TIP3   OH217024   2.428   6.731   1.131 -0.4800  0.2327 -0.2934
 5687TIP3    H117025   2.462   6.818   1.151 -0.3597  0.0334  0.3787
 5687TIP3    H217026   2.388   6.700   1.212 -1.0906 -0.0857 -0.7035
 5688TIP3   OH217027   3.817   3.649   4.570  0.4492 -0.8138 -0.5847
 5688TIP3    H117028   3.841   3.732   4.609  1.0520 -1.8395  1.3255
 5688TIP3    H217029   3.723   3.656   4.553  0.4375  0.1337 -0.1467
 5689TIP3   OH217030   6.277   0.578   0.389  0.2160 -0.0798  0.2864
 5689TIP3    H117031   6.268   0.484   0.370 -0.6097 -0.0699  0.6084
 5689TIP3    H217032   6.283   0.619   0.303 -1.4443 -0.2388  0.0619
 5690TIP3   OH217033   2.873   2.089   4.250 -0.6137 -0.5155 -0.0434
 5690TIP3    H117034   2.961   2.050   4.250 -1.2464 -2.1582  2.0803
 5690TIP3    H217035   2.841   2.073   4.161  0.8160 -0.8485 -0.5435
 5691TIP3   OH217036   1.383   4.078   2.884  0.4836 -0.1504  0.5398
 5691TIP3    H117037   1.349   4.011   2.826  1.5192  0.2979 -0.6239
 5691TIP3    H217038   1.344   4.160   2.853 -0.1648 -0.0922  1.4611
 5692TIP3   OH217039   5.044   0.593   5.474  0.1586 -0.9056 -0.4935
 5692TIP3    H117040   5.074   0.670   5.428 -1.0786 -0.3359 -0.3926
 5692TIP3    H217041   4.967   0.564   5.425  0.5940 -2.0652 -0.5227
 5693TIP3   OH217042   5.055   0.761   1.411 -0.1795 -0.4999 -0.0689
 5693TIP3    H117043   4.970   0.803   1.425 -1.0008 -2.0024 -0.2739
 5693TIP3    H217044   5.047   0.676   1.455  1.9544  0.0943  1.6431
 5694TIP3   OH217045   1.321   5.840   0.022  0.7070  0.0378  0.2418
 5694TIP3    H117046   1.315   5.772  -0.045  4.3317  0.4046 -0.6507
 5694TIP3    H217047   1.375   5.802   0.091 -0.9195  0.5476  1.8792
 5695TIP3   OH217048   5.225   2.694   4.561 -0.1230 -0.6726  0.5338
 5695TIP3    H117049   5.135   2.662   4.557 -0.5007  0.2546  1.1145
 5695TIP3    H217050   5.261   2.676   4.475 -1.4728  0.6384 -0.3469
 5696TIP3   OH217051   3.352   4.278   1.876 -0.0961  0.1046  0.6966
 5696TIP3    H117052   3.309   4.351   1.832 -0.5008 -0.8073 -0.5041
 5696TIP3    H217053   3.439   4.273   1.834 -0.0922 -0.1299  0.7305
 5697TIP3   OH217054   5.773   4.150   1.085 -0.3077  0.0692 -0.1507
 5697TIP3    H117055   5.857   4.146   1.130 -0.8636 -1.8612  0.8049
 5697TIP3    H217056   5.793   4.190   1.001  1.5351 -0.1879  0.1219
 5698TIP3   OH217057   4.130   6.147   5.811  0.4121 -0.4222  0.4797
 5698TIP3    H117058   4.104   6.233   5.843 -1.1164 -0.4849 -0.4983
 5698TIP3    H217059   4.225   6.151   5.805  0.4481  0.7941  1.5516
 5699TIP3   OH217060   2.530   6.243   1.635  0.0834  0.0858 -0.1453
 5699TIP3    H117061   2.546   6.324   1.684 -1.1824 -0.7261  1.7194
 5699TIP3    H217062   2.602   6.185   1.660  1.3093  0.7497 -1.9172
 5700TIP3   OH217063   5.212   2.304   3.797 -0.4689  0.2059  0.3018
 5700TIP3    H117064   5.190   2.294   3.704 -0.1842  1.7939  0.0432
 5700TIP3    H217065   5.129   2.330   3.838 -0.4899 -0.0581  0.4347
 5701TIP3   OH217066   2.573   4.057   5.294  0.3360  0.1837 -0.0744
 5701TIP3    H117067   2.543   4.131   5.241 -0.3542 -1.1952 -1.7094
 5701TIP3    H217068   2.668   4.057   5.283  0.2564  0.2759 -0.8404
 5702TIP3   OH217069   4.021   0.028   0.265  0.2279  0.1248 -0.0101
 5702TIP3    H117070   4.087   0.015   0.333 -0.0367  0.5349  0.3266
 5702TIP3    H217071   3.956   0.086   0.305 -0.7069 -0.8484 -0.0981
 5703TIP3   OH217072   5.483   0.221   5.041 -0.0795  0.1296  0.2172
 5703TIP3    H117073   5.416   0.166   5.001  0.8672 -0.7283 -0.2513
 5703TIP3    H217074   5.529   0.261   4.967  0.3194  0.2104  0.5011
 5704TIP3   OH217075   5.764   0.858   4.416 -0.3906 -0.2257  0.0913
 5704TIP3    H117076   5.824   0.910   4.362 -1.1344  1.0818  0.4658
 5704TIP3    H217077   5.802   0.862   4.504 -0.9056  0.4439  0.2910
 5705TIP3   OH217078   6.665   0.744   3.757  0.6413  0.2148  0.3028
 5705TIP3    H117079   6.625   0.776   3.676  1.1728  0.2446  0.0438
 5705TIP3    H217080   6.696   0.656   3.735 -1.0450 -0.6230  1.0887
 5706TIP3   OH217081   6.462   0.683   3.159 -0.7528 -0.7668  0.0599
 5706TIP3    H117082   6.383   0.707   3.109 -0.7931 -1.9247 -0.4776
 5706TIP3    H217083   6.519   0.759   3.150 -2.0080  0.3275  0.9258
 5707TIP3   OH217084   7.219   6.597   0.083  0.1869 -0.2927 -0.1786
 5707TIP3    H117085   7.157   6.618   0.013 -0.2245  1.0814  0.5711
 5707TIP3    H217086   7.171   6.538   0.141 -0.6179  1.1295  0.6444
 5708TIP3   OH217087   2.351   6.560   1.584  0.2067 -0.3449 -0.0065
 5708TIP3    H117088   2.404   6.494   1.629  0.2433  0.7323  1.6326
 5708TIP3    H217089   2.265   6.555   1.627 -0.3059 -0.4596 -1.0227
 5709TIP3   OH217090   6.941   3.180   5.236 -0.5009  0.1509 -0.0465
 5709TIP3    H117091   6.981   3.124   5.170  0.4867  0.6262  0.1208
 5709TIP3    H217092   6.959   3.269   5.206 -0.3787  0.3697  0.6544
 5710TIP3   OH217093   4.982   6.206   2.248  0.1742  0.1103 -0.0778
 5710TIP3    H117094   4.999   6.235   2.337 -1.5916  4.2708 -0.8526
 5710TIP3    H217095   5.023   6.274   2.193 -1.3405 -0.6828 -2.3025
 5711TIP3   OH217096   4.039   1.663   3.149 -1.1253  0.1693  0.3347
 5711TIP3    H117097   3.967   1.708   3.105 -0.8725  0.1762 -0.0705
 5711TIP3    H217098   4.053   1.713   3.230  1.4727  3.0058 -1.6431
 5712TIP3   OH217099   0.648   2.057   2.894  0.4666 -0.2751  0.0000
 5712TIP3    H117100   0.660   2.132   2.836  0.9673 -0.4891 -0.1870
 5712TIP3    H217101   0.684   2.085   2.978 -0.0551 -0.0416  0.1483
 5713TIP3   OH217102   5.424   6.317   1.739  0.5551 -0.0245 -0.0412
 5713TIP3    H117103   5.438   6.348   1.828  2.9442  0.7888 -0.6288
 5713TIP3    H217104   5.335   6.283   1.739  0.6621 -0.5103  2.7761
 5714TIP3   OH217105   2.810   3.471   4.854  0.1509  0.1796  0.4252
 5714TIP3    H117106   2.888   3.492   4.803 -0.7564  0.0214 -1.0759
 5714TIP3    H217107   2.739   3.469   4.790 -1.1689  0.7170  1.8078
 5715TIP3   OH217108   7.122   0.144   2.962  0.0674 -0.1828  0.1459
 5715TIP3    H117109   7.078   0.071   2.920 -1.3884  0.4903  0.4347
 5715TIP3    H217110   7.093   0.142   3.053 -0.3294  0.9799  0.0680
 5716TIP3   OH217111   6.106   1.616   5.808 -0.1544  0.0108  0.2273
 5716TIP3    H117112   6.043   1.574   5.750  0.7944 -2.2047  0.6892
 5716TIP3    H217113   6.183   1.632   5.752 -0.8853  2.3238 -0.2336
 5717TIP3   OH217114   1.335   5.428   5.634  0.4254  0.1286 -0.4847
 5717TIP3    H117115   1.322   5.349   5.685 -0.6126  0.5349 -0.0999
 5717TIP3    H217116   1.411   5.409   5.579  1.3110 -0.4777  0.8891
 5718TIP3   OH217117   1.534   1.779   4.937 -0.4953 -0.1211  0.4304
 5718TIP3    H117118   1.503   1.816   4.854  0.7060  1.0637  0.4739
 5718TIP3    H217119   1.572   1.694   4.912  1.1157  0.8282 -0.4958
 5719TIP3   OH217120   6.881   5.332   4.758  0.3252 -0.5565 -0.2044
 5719TIP3    H117121   6.840   5.248   4.739  0.6469 -0.5572 -0.9119
 5719TIP3    H217122   6.937   5.350   4.682 -1.4350  1.3654 -1.1376
 5720TIP3   OH217123   1.872   3.289   1.444  0.1208  0.1343  0.1887
 5720TIP3    H117124   1.907   3.376   1.464  0.2598 -0.1618  1.3062
 5720TIP3    H217125   1.777   3.301   1.446  0.1141  0.7059 -1.7893
 5721TIP3   OH217126   1.357   3.884   3.383  0.1728  0.3087  0.1754
 5721TIP3    H117127   1.398   3.797   3.375 -1.0798 -0.2855 -0.0368
 5721TIP3    H217128   1.382   3.929   3.303 -0.1885 -0.3083 -0.2939
 5722TIP3   OH217129   3.322   6.053   0.608 -0.3011 -0.2502  0.0765
 5722TIP3    H117130   3.255   6.100   0.657 -0.9247 -1.0704  0.0308
 5722TIP3    H217131   3.382   6.121   0.577 -1.3507  0.5372 -0.2496
 5723TIP3   OH217132   3.764   5.659   5.887 -0.2729  0.4030 -0.4717
 5723TIP3    H117133   3.692   5.615   5.932  1.1843 -0.4274  1.1378
 5723TIP3    H217134   3.814   5.587   5.847  0.7978  0.7809  0.1638
 5724TIP3   OH217135   7.083   5.652   1.669  0.2321  0.0408  0.1090
 5724TIP3    H117136   7.149   5.685   1.609 -0.7963  1.1633 -0.4337
 5724TIP3    H217137   7.077   5.559   1.649 -1.1105  0.6281 -2.5909
 5725TIP3   OH217138   2.818   5.289   3.336  0.0881  0.2676 -0.4548
 5725TIP3    H117139   2.874   5.212   3.329  2.0621  1.5834 -0.0381
 5725TIP3    H217140   2.729   5.255   3.334  0.9029 -2.0326 -0.0223
 5726TIP3   OH217141   5.095   4.834   3.513 -1.0647 -0.2476 -0.0181
 5726TIP3    H117142   5.081   4.749   3.471 -1.3460 -0.1175 -0.1932
 5726TIP3    H217143   5.084   4.816   3.606  0.1913 -0.6650  0.0688
 5727TIP3   OH217144   2.490   2.783   3.414  0.3519  0.1903 -0.1427
 5727TIP3    H117145   2.468   2.872   3.387  3.1471  1.1974  0.5696
 5727TIP3    H217146   2.577   2.767   3.377 -0.1741 -2.4105 -0.5040
 5728TIP3   OH217147   1.653   3.489   1.487  0.5908 -0.4491 -0.0767
 5728TIP3    H117148   1.635   3.465   1.396 -0.7249 -1.4438  0.4227
 5728TIP3    H217149   1.640   3.584   1.489  3.4197  0.1038 -1.5098
 5729TIP3   OH217150   1.556   0.930   4.289  0.0593 -0.6174 -0.5839
 5729TIP3    H117151   1.474   0.914   4.242 -0.3613  0.6878 -0.3432
 5729TIP3    H217152   1.621   0.878   4.242 -0.7287 -0.9101 -1.3816
 5730TIP3   OH217153   4.726   0.499   1.995 -0.2071 -0.4640 -0.0704
 5730TIP3    H117154   4.769   0.439   2.056  0.7873 -0.2834 -0.5760
 5730TIP3    H217155   4.656   0.447   1.955 -0.1453 -0.9104  0.3965
 5731TIP3   OH217156   2.981   5.858   1.539  0.2279  0.0138 -0.1930
 5731TIP3    H117157   3.023   5.784   1.494 -0.1178 -0.1736 -0.2174
 5731TIP3    H217158   3.046   5.888   1.602 -0.3035 -1.5701  1.2000
 5732TIP3   OH217159   3.560   4.545   1.510 -0.6964 -0.3701 -0.7425
 5732TIP3    H117160   3.648   4.534   1.546 -1.3143 -0.6645  0.7575
 5732TIP3    H217161   3.564   4.626   1.459  0.4677 -0.4633 -0.8238
 5733TIP3   OH217162   5.713   6.721   4.700  0.4537 -0.5272  0.1885
 5733TIP3    H117163   5.804   6.703   4.676  0.5484 -1.2780  1.0667
 5733TIP3    H217164   5.692   6.654   4.765 -0.5753 -0.0591  0.3467
 5734TIP3   OH217165   2.155   3.176   2.887 -0.5504 -0.5903  0.2630
 5734TIP3    H117166   2.128   3.195   2.977  0.1644 -2.3487  0.8883
 5734TIP3    H217167   2.200   3.092   2.893 -0.2653 -0.6147 -1.7154
 5735TIP3   OH217168   2.835   0.727   2.704  0.2435 -0.3754 -0.1552
 5735TIP3    H117169   2.879   0.662   2.648 -0.4615 -1.2007  0.2118
 5735TIP3    H217170   2.894   0.738   2.779  0.6205 -0.1835 -0.4780
 5736TIP3   OH217171   3.782   0.925   5.634 -0.1797  0.3814 -0.1482
 5736TIP3    H117172   3.732   0.889   5.560 -2.3427 -0.3507  1.5719
 5736TIP3    H217173   3.803   1.015   5.607  1.0053 -0.4843 -2.4831
 5737TIP3   OH217174   3.507   3.942   3.946 -0.7384  0.2617  0.0023
 5737TIP3    H117175   3.481   3.978   4.030 -0.3233 -0.2521  0.3586
 5737TIP3    H217176   3.590   3.987   3.926  0.4815 -1.3906  1.0816
 5738TIP3   OH217177   4.363   2.845   4.248  0.7005  0.2673 -0.0711
 5738TIP3    H117178   4.444   2.862   4.199  1.3423 -1.3198  0.3687
 5738TIP3    H217179   4.354   2.921   4.306  2.3551  0.0845  0.4754
 5739TIP3   OH217180   0.929   1.566   3.347  0.2346  0.0009  0.2635
 5739TIP3    H117181   0.886   1.558   3.432  1.7392  0.9229  1.1234
 5739TIP3    H217182   0.881   1.636   3.302  1.2398  1.5439  1.5072
 5740TIP3   OH217183   0.884   4.693   1.391  1.0506  0.5883 -0.4261
 5740TIP3    H117184   0.897   4.694   1.296  0.9892  0.5427 -0.4348
 5740TIP3    H217185   0.965   4.653   1.425  0.6528 -0.3228 -0.5298
 5741TIP3   OH217186   0.168   4.709   1.258  0.2387 -0.3343 -0.0647
 5741TIP3    H117187   0.137   4.619   1.268 -1.7390  0.2807 -0.4099
 5741TIP3    H217188   0.260   4.699   1.231 -0.1267 -2.2498 -0.7881
 5742TIP3   OH217189   2.468   6.325   0.773 -0.4541  0.5497  0.1461
 5742TIP3    H117190   2.451   6.232   0.789  0.7848  0.1544 -0.6816
 5742TIP3    H217191   2.463   6.366   0.859  0.0867 -0.4725  0.6781
 5743TIP3   OH217192   0.394   3.839   0.590 -0.0912 -0.6250  0.6977
 5743TIP3    H117193   0.384   3.744   0.596  0.4061 -0.6305  1.6933
 5743TIP3    H217194   0.349   3.873   0.668 -0.6120 -0.0072  0.1495
 5744TIP3   OH217195   1.143   1.763   4.078 -0.1767 -0.4870  0.1004
 5744TIP3    H117196   1.221   1.809   4.109  0.2409 -0.3825 -1.0506
 5744TIP3    H217197   1.070   1.822   4.097  0.0218 -0.5496  1.1059
 5745TIP3   OH217198   0.556   3.470   5.287  0.2550 -0.3330  0.0122
 5745TIP3    H117199   0.638   3.488   5.332  1.7985  2.8044 -3.5239
 5745TIP3    H217200   0.568   3.383   5.247  2.6670  0.7173 -1.7650
 5746TIP3   OH217201   6.020   5.648   2.052  0.1974 -0.2785  0.6094
 5746TIP3    H117202   5.995   5.562   2.086 -1.8676 -0.2981 -0.8046
 5746TIP3    H217203   6.080   5.628   1.980  0.1453 -0.4908  0.6231
 5747TIP3   OH217204   6.500   4.969   2.275 -0.4780 -0.0994  0.2917
 5747TIP3    H117205   6.495   5.041   2.338 -0.0802 -0.3290  0.5913
 5747TIP3    H217206   6.466   5.006   2.194 -0.6752  0.3014  0.5526
 5748TIP3   OH217207   5.772   4.950   2.881  0.6362 -0.0237  0.0956
 5748TIP3    H117208   5.692   4.899   2.867  0.0325  1.2592 -1.4301
 5748TIP3    H217209   5.742   5.034   2.916  1.4835 -0.1180  1.1085
 5749TIP3   OH217210   2.102   2.765   4.870  0.2492 -0.9906  0.0166
 5749TIP3    H117211   2.072   2.703   4.937  1.3588 -3.7309 -1.8725
 5749TIP3    H217212   2.183   2.726   4.836 -0.2844  0.2757 -2.9339
 5750TIP3   OH217213   1.751   5.874   5.329 -0.1904 -0.4297 -0.6435
 5750TIP3    H117214   1.773   5.816   5.255 -0.8934 -1.4598 -0.0746
 5750TIP3    H217215   1.658   5.856   5.346 -0.3027  0.5612 -0.1750
 5751TIP3   OH217216   3.730   5.921   4.763 -0.3171  0.1820  0.5399
 5751TIP3    H117217   3.789   5.995   4.778  0.1802  0.0000 -0.4018
 5751TIP3    H217218   3.678   5.947   4.686 -0.4290 -0.2745  0.4551
 5752TIP3   OH217219   5.800   6.751   3.512  0.3054  0.2382  0.6559
 5752TIP3    H117220   5.717   6.709   3.488  1.1509 -1.9596  1.3168
 5752TIP3    H217221   5.855   6.679   3.542  2.5140  1.6306  0.1292
 5753TIP3   OH217222   3.844   6.062   2.295 -0.3247  0.4463 -0.2440
 5753TIP3    H117223   3.851   6.004   2.370 -1.5442  1.3147  0.5752
 5753TIP3    H217224   3.925   6.114   2.297 -0.9369  1.4043  1.3115
 5754TIP3   OH217225   6.432   3.263   4.308 -0.7544  0.3546  0.4709
 5754TIP3    H117226   6.410   3.170   4.306 -0.4894  0.2973 -0.3133
 5754TIP3    H217227   6.469   3.277   4.395 -0.5707 -0.3303  0.5128
 5755TIP3   OH217228   3.604   4.653   5.731  0.0661  0.8188 -0.5576
 5755TIP3    H117229   3.669   4.712   5.769 -0.8745  1.2026  0.5055
 5755TIP3    H217230   3.651   4.571   5.715  1.1073  1.4881 -0.9953
 5756TIP3   OH217231   4.940   1.199   0.213 -0.0686  0.3053  0.0262
 5756TIP3    H117232   5.001   1.269   0.239  1.6253 -1.3529  0.7767
 5756TIP3    H217233   4.955   1.187   0.120  2.0284 -1.1403  0.4737
 5757TIP3   OH217234   0.354   2.357   4.918 -0.2928  0.7659 -0.6787
 5757TIP3    H117235   0.305   2.305   4.982 -2.5073  0.4833 -2.4713
 5757TIP3    H217236   0.398   2.292   4.863  0.7400  0.9682 -0.0975
 5758TIP3   OH217237   1.349   5.186   3.990 -0.3149  0.3673  0.0377
 5758TIP3    H117238   1.309   5.211   3.906 -1.2055  0.3911  0.4592
 5758TIP3    H217239   1.300   5.236   4.055  1.4091  1.5701  0.4653
 5759TIP3   OH217240   0.916   1.491   4.074 -0.1905  0.2992  0.1031
 5759TIP3    H117241   0.904   1.585   4.060 -0.3567  0.9126  3.6021
 5759TIP3    H217242   1.008   1.475   4.053 -0.5005  0.8657 -1.9143
 5760TIP3   OH217243   5.316   6.519   3.368 -0.3554  0.3823 -0.7557
 5760TIP3    H117244   5.226   6.545   3.390 -0.4034  0.4388 -1.0114
 5760TIP3    H217245   5.330   6.438   3.417 -1.0910 -0.4773 -1.9045
 5761TIP3   OH217246   4.363   6.751   4.064  0.1448  0.1143 -0.1162
 5761TIP3    H117247   4.350   6.843   4.084 -1.2032  0.1156 -0.9166
 5761TIP3    H217248   4.284   6.708   4.096  1.2429 -0.9612  1.2978
 5762TIP3   OH217249   3.696   3.352   5.503 -0.5349  0.0640  0.1887
 5762TIP3    H117250   3.619   3.304   5.534 -0.5398 -0.5627 -0.7571
 5762TIP3    H217251   3.767   3.289   5.508 -0.3117  0.2955 -0.0146
 5763TIP3   OH217252   4.443   0.051   2.118  0.1240  0.3859 -0.6195
 5763TIP3    H117253   4.533   0.056   2.085  0.0902  0.5557 -0.6870
 5763TIP3    H217254   4.404  -0.021   2.070  0.9865 -1.4260  1.2412
 5764TIP3   OH217255   3.902   2.691   2.569  0.0746 -0.1511  0.3605
 5764TIP3    H117256   3.967   2.625   2.548 -0.3439 -1.2930  2.4564
 5764TIP3    H217257   3.846   2.695   2.491  1.8954  0.0146 -1.0084
 5765TIP3   OH217258   0.614   3.446   0.315  0.1793  0.0026 -0.0349
 5765TIP3    H117259   0.552   3.381   0.280 -1.2948  1.3978 -0.1404
 5765TIP3    H217260   0.574   3.531   0.295  2.2293  0.9866 -0.2336
 5766TIP3   OH217261   2.599   2.179   2.261  0.0611 -0.3701 -0.1044
 5766TIP3    H117262   2.619   2.097   2.216 -0.3247 -0.1614 -0.6686
 5766TIP3    H217263   2.507   2.170   2.287 -0.0338 -0.0422 -0.3273
 5767TIP3   OH217264   5.279   0.444   3.742  0.3082  0.1844  0.4693
 5767TIP3    H117265   5.263   0.369   3.799 -0.1318  0.1987  0.3666
 5767TIP3    H217266   5.338   0.410   3.674 -0.7111 -0.3608 -0.1763
 5768TIP3   OH217267   1.484   3.192   4.084  0.3001 -0.2897  0.1840
 5768TIP3    H117268   1.503   3.098   4.082  0.8644 -0.1843  0.3569
 5768TIP3    H217269   1.399   3.198   4.128  0.4016 -0.7032  0.4465
 5769TIP3   OH217270   0.804   1.365   5.056  0.1881  0.0202 -0.1490
 5769TIP3    H117271   0.755   1.286   5.076  1.4931 -1.1913 -1.5112
 5769TIP3    H217272   0.853   1.384   5.136 -1.1311  0.2896  0.6451
 5770TIP3   OH217273   5.727   5.651   5.251  0.1324  0.5689 -0.0275
 5770TIP3    H117274   5.663   5.599   5.300 -1.6496  1.9327 -0.7804
 5770TIP3    H217275   5.790   5.587   5.218 -1.0405 -0.8879  0.4524
 5771TIP3   OH217276   3.381   6.459   5.056 -0.2707 -0.3818 -0.7267
 5771TIP3    H117277   3.400   6.429   4.968  1.0280  0.6517 -0.8352
 5771TIP3    H217278   3.410   6.388   5.113  1.0042 -0.1343 -1.0478
 5772TIP3   OH217279   6.656   3.630   4.089 -0.2886 -0.3738  0.4810
 5772TIP3    H117280   6.669   3.690   4.163 -0.3381  0.1828  0.0492
 5772TIP3    H217281   6.716   3.557   4.106  0.1314  0.0322  0.7751
 5773TIP3   OH217282   2.599   5.024   4.087 -0.1007  0.7039 -0.2305
 5773TIP3    H117283   2.669   5.035   4.022  0.8367 -0.1937  0.5895
 5773TIP3    H217284   2.578   4.931   4.085 -0.8471  0.8630 -0.0382
 5774TIP3   OH217285   2.559   3.204   4.485  0.2678 -0.1071  0.0251
 5774TIP3    H117286   2.463   3.208   4.478 -0.1914 -1.5856  3.4587
 5774TIP3    H217287   2.588   3.183   4.397 -2.5908 -0.0122 -1.0621
 5775TIP3   OH217288   3.402   6.361   3.715 -0.0414 -0.4529  0.3205
 5775TIP3    H117289   3.425   6.440   3.763  0.1648  0.2836 -0.9453
 5775TIP3    H217290   3.313   6.376   3.685  0.7813  0.3756 -1.9166
 5776TIP3   OH217291   2.903   6.369   2.484  0.0337 -0.0529  0.0622
 5776TIP3    H117292   2.842   6.383   2.412 -0.5152 -0.4018  0.4547
 5776TIP3    H217293   2.911   6.456   2.525  0.2447  0.1162 -0.3277
 5777TIP3   OH217294   4.021   5.121   3.235 -0.4166 -0.4418  0.1429
 5777TIP3    H117295   4.061   5.147   3.151 -2.4380  1.8225 -0.1935
 5777TIP3    H217296   4.068   5.172   3.301 -0.1340 -0.7754  0.2072
 5778TIP3   OH217297   5.902   1.798   2.461 -0.2639 -0.2825 -0.4507
 5778TIP3    H117298   5.859   1.752   2.389 -0.6344  1.9061 -1.7102
 5778TIP3    H217299   5.845   1.872   2.481  0.4564 -0.1362  1.2821
 5779TIP3   OH217300   1.983   6.295   3.760 -0.2199 -0.4036  0.0516
 5779TIP3    H117301   2.078   6.299   3.759 -0.2377  0.2476 -1.5266
 5779TIP3    H217302   1.961   6.212   3.718 -0.3632 -1.3458  1.8815
 5780TIP3   OH217303   4.614   3.010   2.562 -0.2322 -0.7390  0.2107
 5780TIP3    H117304   4.527   3.044   2.583 -0.3777 -2.1254  2.0810
 5780TIP3    H217305   4.607   2.915   2.578  1.7462 -0.8101  0.9047
 5781TIP3   OH217306   3.028   1.874   1.365  0.0128 -0.0090 -0.3443
 5781TIP3    H117307   2.939   1.879   1.331  0.6919 -0.8777 -2.3770
 5781TIP3    H217308   3.077   1.939   1.314  0.7987 -0.4149 -0.1235
 5782TIP3   OH217309   2.189   1.830   3.868  0.1011 -0.3363  0.2623
 5782TIP3    H117310   2.185   1.897   3.800  1.4983  0.8674  1.2660
 5782TIP3    H217311   2.103   1.788   3.867 -1.1272  2.0199  0.0979
 5783TIP3   OH217312   3.985   2.796   1.968  0.0435  0.0674 -0.0570
 5783TIP3    H117313   4.030   2.733   1.912 -1.1249 -0.1596 -0.7754
 5783TIP3    H217314   4.055   2.841   2.014  0.9252 -1.9071  0.6722
 5784TIP3   OH217315   0.551   2.093   0.432 -0.3639  0.1247 -0.0794
 5784TIP3    H117316   0.579   2.003   0.453  1.1781  0.5295 -0.2735
 5784TIP3    H217317   0.623   2.148   0.463 -1.5769  1.3717  0.6239
 5785TIP3   OH217318   2.650   1.343   3.895  0.2811 -0.2236 -0.0344
 5785TIP3    H117319   2.661   1.400   3.819  0.7553 -0.5572 -0.2202
 5785TIP3    H217320   2.573   1.289   3.874  0.2606 -0.1432 -0.1685
 5786TIP3   OH217321   4.938   2.432   2.296  0.1335  0.0485  0.6740
 5786TIP3    H117322   4.931   2.422   2.201 -0.1877 -1.1754  0.8157
 5786TIP3    H217323   5.032   2.437   2.313  0.2157 -0.2890  0.3362
 5787TIP3   OH217324   2.605   4.731   5.244 -0.1823  0.0292 -0.2926
 5787TIP3    H117325   2.661   4.779   5.182  0.2405 -0.9773 -0.7216
 5787TIP3    H217326   2.604   4.786   5.322  1.2295  0.1994 -0.3570
 5788TIP3   OH217327   2.345   6.080   4.133  0.3928  0.3010  0.5750
 5788TIP3    H117328   2.393   6.054   4.212  0.5449  0.0634  0.4050
 5788TIP3    H217329   2.390   6.035   4.062  1.2349  1.7410  0.1563
 5789TIP3   OH217330   6.086   5.979   4.357 -0.5017  0.1567  0.0565
 5789TIP3    H117331   6.133   6.035   4.295  0.6640 -0.0745  0.6996
 5789TIP3    H217332   6.019   6.036   4.394 -2.1672 -0.0715 -2.3889
 5790TIP3   OH217333   5.790   6.525   0.454  0.8613  0.7456 -0.3083
 5790TIP3    H117334   5.852   6.574   0.401 -0.7989  0.9905 -2.1470
 5790TIP3    H217335   5.710   6.578   0.454  0.4059  0.1540  1.4523
 5791TIP3   OH217336   5.944   1.248   1.837  0.7285 -0.0864  0.0839
 5791TIP3    H117337   6.016   1.242   1.774  0.7812 -0.6408  0.1898
 5791TIP3    H217338   5.962   1.179   1.900  0.4736  0.2246  0.4993
 5792TIP3   OH217339   4.175   0.558   4.873 -0.7306 -0.5473 -0.1452
 5792TIP3    H117340   4.089   0.516   4.882 -1.3712  0.8103  0.3926
 5792TIP3    H217341   4.223   0.502   4.812 -2.0740 -1.2214 -0.6227
 5793TIP3   OH217342   1.183   2.359   4.545  0.3545  0.0732  0.2745
 5793TIP3    H117343   1.273   2.389   4.554  0.1079  0.7936  0.4093
 5793TIP3    H217344   1.166   2.307   4.623  0.8942 -0.7222 -0.1207
 5794TIP3   OH217345   0.974   3.806   2.529 -0.2568 -0.1486 -0.3737
 5794TIP3    H117346   0.940   3.848   2.450 -0.8681  0.1259  0.0238
 5794TIP3    H217347   1.011   3.724   2.498 -0.5586 -0.0797 -0.9391
 5795TIP3   OH217348   7.100   2.688   4.004 -0.1707 -0.1052  0.3540
 5795TIP3    H117349   7.105   2.631   3.927  0.0020  0.0882  0.2215
 5795TIP3    H217350   7.006   2.704   4.015 -0.3496 -1.6391  1.3035
 5796TIP3   OH217351   6.132   2.310   1.673  0.4129 -0.3181  0.1077
 5796TIP3    H117352   6.219   2.271   1.663  0.0076 -0.9072 -1.5272
 5796TIP3    H217353   6.072   2.246   1.633 -0.5257  0.9829 -0.6436
 5797TIP3   OH217354   5.102   2.681   4.087 -0.4082  0.2653 -0.1677
 5797TIP3    H117355   5.065   2.645   4.006 -1.9346  1.8468 -0.2594
 5797TIP3    H217356   5.126   2.605   4.139 -1.3964 -0.8251 -1.2455
 5798TIP3   OH217357   4.149   5.125   5.145 -0.1262 -0.0492 -0.0119
 5798TIP3    H117358   4.056   5.107   5.131  0.5005 -3.8421 -0.0887
 5798TIP3    H217359   4.192   5.089   5.067  1.5159  0.8931  0.4145
 5799TIP3   OH217360   4.150   0.578   1.628  0.0426  0.4778  0.0992
 5799TIP3    H117361   4.204   0.630   1.688  0.8331  1.0662 -1.0957
 5799TIP3    H217362   4.204   0.568   1.550 -1.3997  0.6815 -0.9600
 5800TIP3   OH217363   7.036   1.858   2.988  0.1806 -0.6587 -0.2762
 5800TIP3    H117364   7.048   1.877   3.081 -0.0644 -2.8298  0.2321
 5800TIP3    H217365   7.125   1.846   2.954  0.2423 -0.3032 -0.2529
 5801TIP3   OH217366   3.118   1.993   1.595 -0.4087 -0.2687 -0.0469
 5801TIP3    H117367   3.111   1.942   1.514 -0.2226  0.1860 -0.3556
 5801TIP3    H217368   3.172   1.940   1.653 -0.6015 -0.6301 -0.1973
 5802TIP3   OH217369   6.894   1.407   0.637  0.0418  0.0402  0.3025
 5802TIP3    H117370   6.876   1.488   0.684  0.9290 -0.3067  1.2815
 5802TIP3    H217371   6.815   1.391   0.586  0.2879  2.1391 -0.8665
 5803TIP3   OH217372   5.935   0.584   3.693  0.5833 -0.6668  0.9636
 5803TIP3    H117373   5.858   0.590   3.749 -0.2879 -0.5313 -0.2138
 5803TIP3    H217374   6.007   0.569   3.754 -0.2718 -0.1863  2.1458
 5804TIP3   OH217375   7.159   1.151   4.322  0.3639  0.0665 -0.1055
 5804TIP3    H117376   7.247   1.116   4.333 -0.1588 -0.8809  1.2933
 5804TIP3    H217377   7.103   1.092   4.371 -0.7592  2.0648  1.1587
 5805TIP3   OH217378   6.323   6.231   5.730  0.4165  0.2110  0.1718
 5805TIP3    H117379   6.415   6.203   5.724  0.2162 -0.1409 -1.6615
 5805TIP3    H217380   6.273   6.153   5.707 -0.3307  0.6487  0.2984
 5806TIP3   OH217381   5.385   0.318   3.501 -0.1023 -0.3156  0.0187
 5806TIP3    H117382   5.458   0.291   3.446 -1.1026 -0.5256 -1.2616
 5806TIP3    H217383   5.328   0.241   3.504 -0.6697  0.1065  0.3070
 5807TIP3   OH217384   1.643   2.813   2.298  0.2051 -0.0860  0.2371
 5807TIP3    H117385   1.673   2.737   2.347  0.5075 -0.4994 -0.5742
 5807TIP3    H217386   1.601   2.869   2.364  2.4374  0.3717  1.3779
 5808TIP3   OH217387   6.589   5.593   1.106  1.2747 -0.1752  0.1558
 5808TIP3    H117388   6.581   5.583   1.011  1.1563 -0.6460  0.2127
 5808TIP3    H217389   6.612   5.506   1.138 -0.2069 -0.3843  0.7203
 5809TIP3   OH217390   6.796   3.835   1.093 -0.1337  0.1131  0.4990
 5809TIP3    H117391   6.837   3.765   1.144  1.4764 -1.0157 -2.1099
 5809TIP3    H217392   6.711   3.799   1.068  0.4468 -0.7444 -0.3324
 5810TIP3   OH217393   2.633   3.933   5.672 -0.0775 -0.3860  0.4688
 5810TIP3    H117394   2.569   3.926   5.601  0.3349 -1.2447  0.1661
 5810TIP3    H217395   2.656   3.842   5.692  0.9978 -0.0949  0.6126
 5811TIP3   OH217396   3.194   2.142   4.114  0.1828  0.2494 -0.4311
 5811TIP3    H117397   3.191   2.121   4.021 -0.5983  0.2998 -0.4253
 5811TIP3    H217398   3.149   2.068   4.156 -0.0653  0.5552 -0.1570
 5812TIP3   OH217399   1.464   6.255   2.297  0.1791  0.3156  0.3093
 5812TIP3    H117400   1.383   6.240   2.346 -0.9751  0.3403 -1.4926
 5812TIP3    H217401   1.481   6.348   2.308  1.7083 -0.2055  3.1722
 5813TIP3   OH217402   0.339   3.734   1.979  0.8287  0.5838  0.3403
 5813TIP3    H117403   0.373   3.707   1.893  0.9485  0.8838  0.2908
 5813TIP3    H217404   0.393   3.810   2.003 -0.2456  1.5074 -0.0519
 5814TIP3   OH217405   5.568   5.908   2.261  0.0993  0.1860  0.5068
 5814TIP3    H117406   5.605   5.822   2.241 -0.6885 -0.0751  0.1241
 5814TIP3    H217407   5.636   5.952   2.312  1.4384  0.1686 -1.1392
 5815TIP3   OH217408   4.425   0.852   3.700  0.3400  0.0090  0.2959
 5815TIP3    H117409   4.448   0.763   3.729 -0.0181 -0.2361 -0.1534
 5815TIP3    H217410   4.381   0.839   3.616  1.3985  0.7037 -0.3885
 5816TIP3   OH217411   6.437   3.461   3.014  0.7079 -0.3742 -0.5300
 5816TIP3    H117412   6.448   3.378   2.967 -0.0984 -0.8128  0.0283
 5816TIP3    H217413   6.439   3.437   3.106 -1.7454 -0.1285 -0.3457
 5817TIP3   OH217414   5.362   1.464   2.390 -0.5352  0.2144  0.1190
 5817TIP3    H117415   5.377   1.538   2.448  0.7472  1.4629 -1.6656
 5817TIP3    H217416   5.385   1.387   2.442  0.2967  1.2479  1.3392
 5818TIP3   OH217417   1.985   6.588   5.845  0.1555 -0.1261 -0.3332
 5818TIP3    H117418   1.922   6.659   5.856 -0.9497 -0.9884 -0.9008
 5818TIP3    H217419   1.972   6.559   5.754  2.4779  0.6990 -0.9894
 5819TIP3   OH217420   5.798   5.720   3.954 -0.5024  0.0924 -0.2203
 5819TIP3    H117421   5.741   5.664   3.901 -0.7676 -0.3440  0.5226
 5819TIP3    H217422   5.737   5.769   4.009 -0.1307 -1.0429  1.2393
 5820TIP3   OH217423   0.423   3.602   5.739 -0.2389  0.1471  0.0592
 5820TIP3    H117424   0.505   3.646   5.761 -1.3312  2.0862  0.4894
 5820TIP3    H217425   0.396   3.642   5.656 -0.2578 -1.2098 -0.6105
 5821TIP3   OH217426   6.317   3.605   0.116 -0.0445  0.1905  0.7553
 5821TIP3    H117427   6.371   3.526   0.121  1.5480  1.0229 -1.4356
 5821TIP3    H217428   6.378   3.673   0.088 -1.7310  1.8234  0.8631
 5822TIP3   OH217429   0.930   0.158   0.328 -0.6066 -0.1347  0.1156
 5822TIP3    H117430   0.874   0.233   0.345 -0.3724  0.4317 -1.4234
 5822TIP3    H217431   1.019   0.192   0.331 -0.5163 -0.1932 -1.1253
 5823TIP3   OH217432   3.394   0.447   3.337  0.3978  0.6273  0.4492
 5823TIP3    H117433   3.431   0.395   3.266 -0.2453  1.8876 -0.8682
 5823TIP3    H217434   3.300   0.445   3.322  0.3449  1.9708  0.4788
 5824TIP3   OH217435   0.071   2.779   3.260 -0.0349  0.6785  0.4938
 5824TIP3    H117436   0.022   2.840   3.205  0.5211  1.2523  0.6182
 5824TIP3    H217437   0.163   2.805   3.248  0.3635 -1.0461 -0.5691
 5825TIP3   OH217438   4.003   5.196   2.725 -0.0932 -0.3867  0.7520
 5825TIP3    H117439   3.921   5.238   2.700  0.5820  0.9410  0.6769
 5825TIP3    H217440   4.021   5.229   2.813  1.8668  1.7777 -0.3740
 5826TIP3   OH217441   3.291   2.938   5.666  0.1288 -0.1292  0.0715
 5826TIP3    H117442   3.276   2.943   5.761 -1.4030  1.8314 -0.2032
 5826TIP3    H217443   3.213   2.980   5.628  1.6553  0.9985 -1.9732
 5827TIP3   OH217444   4.456   3.325   0.929  0.2934 -0.6804 -0.0868
 5827TIP3    H117445   4.473   3.296   1.019 -1.9861  0.7425  0.8766
 5827TIP3    H217446   4.363   3.347   0.928  0.6180  0.9131 -2.3534
 5828TIP3   OH217447   3.633   3.744   0.040  0.3451  0.1928  0.0845
 5828TIP3    H117448   3.583   3.787   0.109 -1.7351  0.9144 -1.7371
 5828TIP3    H217449   3.623   3.802  -0.036  2.1937 -0.7543 -0.9492
 5829TIP3   OH217450   2.144   0.558   3.389  0.2502 -0.1810  0.5573
 5829TIP3    H117451   2.123   0.600   3.472 -0.1201 -1.1229  0.9485
 5829TIP3    H217452   2.124   0.466   3.402  0.1134 -0.3370 -0.6010
 5830TIP3   OH217453   6.438   2.740   5.599  0.1228 -0.2399  0.2286
 5830TIP3    H117454   6.372   2.751   5.667  0.6346 -2.5753  1.2015
 5830TIP3    H217455   6.421   2.653   5.564 -0.2082  0.9406 -2.8147
 5831TIP3   OH217456   5.063   4.238   3.085 -0.1285 -0.0624 -0.0422
 5831TIP3    H117457   5.096   4.248   3.174 -0.9144 -0.2677  0.2872
 5831TIP3    H217458   5.112   4.302   3.033  0.9828 -0.5716  0.3522
 5832TIP3   OH217459   2.251   4.925   3.557  0.3994  0.0284  0.2176
 5832TIP3    H117460   2.304   4.935   3.636  1.6085 -0.7447 -0.4620
 5832TIP3    H217461   2.281   4.842   3.518 -0.6057  0.0799 -0.7253
 5833TIP3   OH217462   6.321   0.061   0.686 -0.7552  0.5204 -0.0489
 5833TIP3    H117463   6.356   0.114   0.758 -1.5185  1.4232 -0.3279
 5833TIP3    H217464   6.246   0.111   0.653 -0.8779 -0.2498 -0.9814
 5834TIP3   OH217465   5.795   5.609   1.804 -0.1101  0.2004 -0.3476
 5834TIP3    H117466   5.756   5.545   1.864  0.2027 -0.6132 -1.0082
 5834TIP3    H217467   5.859   5.656   1.858  0.3483 -0.6972 -0.0954
 5835TIP3   OH217468   3.490   2.474   1.278 -0.3941  0.2007  0.2348
 5835TIP3    H117469   3.584   2.483   1.294 -0.2557  0.3894 -0.6151
 5835TIP3    H217470   3.477   2.382   1.256 -0.7139 -0.2472  2.1436
 5836TIP3   OH217471   6.200   0.389   2.264 -0.2960 -0.1727  0.3102
 5836TIP3    H117472   6.152   0.359   2.186 -0.7187 -0.8984  0.8376
 5836TIP3    H217473   6.185   0.484   2.265 -0.2535 -0.1461 -0.5094
 5837TIP3   OH217474   4.372   4.174   5.562  0.2973 -0.6881 -0.3492
 5837TIP3    H117475   4.283   4.208   5.570  1.0961  1.0338  2.9428
 5837TIP3    H217476   4.367   4.083   5.588 -0.4656 -0.5242  0.0822
 5838TIP3   OH217477   5.822   4.053   0.599 -0.0091 -0.1534  0.2554
 5838TIP3    H117478   5.804   4.147   0.606  2.1094  0.3186  0.0240
 5838TIP3    H217479   5.770   4.025   0.524 -1.0221  0.7214  0.6046
 5839TIP3   OH217480   5.099   6.357   2.646 -0.4760 -0.7632  0.3214
 5839TIP3    H117481   5.007   6.331   2.654 -0.9527  0.7283 -0.1597
 5839TIP3    H217482   5.139   6.285   2.596 -1.4505 -1.2498  0.2073
 5840TIP3   OH217483   5.866   5.610   4.530 -0.4138 -1.0604 -0.4823
 5840TIP3    H117484   5.871   5.605   4.435  0.9925 -0.2032 -0.4835
 5840TIP3    H217485   5.845   5.701   4.549 -3.4106 -1.7401  0.0225
 5841TIP3   OH217486   0.060   3.592   5.390  0.8234  0.2472  0.2683
 5841TIP3    H117487  -0.033   3.607   5.407  1.1738  1.0023  1.5743
 5841TIP3    H217488   0.079   3.645   5.313  0.3239  0.5870  0.3744
 5842TIP3   OH217489   6.017   4.058   0.838 -0.3719  0.4827  0.0708
 5842TIP3    H117490   6.066   4.122   0.786 -0.5336 -0.1483 -0.8919
 5842TIP3    H217491   5.939   4.039   0.785 -1.6530  1.3901  1.5189
 5843TIP3   OH217492   6.210   3.517   1.651  0.0134  0.7850  0.0349
 5843TIP3    H117493   6.269   3.491   1.722 -0.2421  0.1351  0.0143
 5843TIP3    H217494   6.268   3.557   1.585  0.4231  0.2400  0.0595
 5844TIP3   OH217495   3.114   1.675   1.511 -0.3616 -0.8520 -0.2068
 5844TIP3    H117496   3.126   1.584   1.484 -0.3657 -1.1647  0.8095
 5844TIP3    H217497   3.083   1.719   1.432 -0.8129 -1.8267 -0.5916
 5845TIP3   OH217498   1.727   4.157   3.442  0.3114  0.3871  0.1165
 5845TIP3    H117499   1.759   4.236   3.485  1.8368 -0.2123  0.1488
 5845TIP3    H217500   1.782   4.087   3.477  2.2335 -0.0431 -3.2960
 5846TIP3   OH217501   4.728   2.819   0.748  0.5989 -0.2067  0.2069
 5846TIP3    H117502   4.728   2.792   0.840  0.3996  0.0955  0.2998
 5846TIP3    H217503   4.696   2.910   0.750 -1.1403 -0.7540 -0.3230
 5847TIP3   OH217504   6.689   5.996   3.094 -0.1145 -0.3795  0.1186
 5847TIP3    H117505   6.708   5.953   3.177 -2.1342 -0.5189  0.5632
 5847TIP3    H217506   6.671   6.087   3.117  1.3277  0.0890 -0.4653
 5848TIP3   OH217507   0.886   3.212   3.856  0.1041  0.2850 -0.6953
 5848TIP3    H117508   0.894   3.305   3.878  0.2975  0.0343  0.3346
 5848TIP3    H217509   0.841   3.212   3.772  1.3995  1.3669 -1.4474
 5849TIP3   OH217510   0.648   3.005   1.081  0.6584 -0.1806 -0.0951
 5849TIP3    H117511   0.559   2.970   1.081 -0.1373  1.7202 -0.4794
 5849TIP3    H217512   0.694   2.956   1.149 -0.5653 -1.4582 -0.1666
 5850TIP3   OH217513   4.336   6.240   4.207 -0.0594  0.2062 -0.4612
 5850TIP3    H117514   4.251   6.283   4.197  0.8009  1.9780 -0.6655
 5850TIP3    H217515   4.338   6.174   4.139 -1.4193 -0.1244 -0.2032
 5851TIP3   OH217516   2.098   0.914   1.572 -0.2423  0.1445  0.1062
 5851TIP3    H117517   2.121   0.973   1.644 -1.9938  0.3433  0.5315
 5851TIP3    H217518   2.110   0.826   1.609  1.5789  0.1883 -0.2761
 5852TIP3   OH217519   6.464   0.134   5.050  0.4072 -0.4033 -0.2635
 5852TIP3    H117520   6.382   0.123   5.098 -0.0830  2.2893 -0.3209
 5852TIP3    H217521   6.487   0.046   5.022 -1.3186 -1.5426  1.5865
 5853TIP3   OH217522   6.144   0.040   3.516 -0.3865  0.1711  0.3406
 5853TIP3    H117523   6.118   0.129   3.493 -1.4413 -0.1669  0.1591
 5853TIP3    H217524   6.229   0.050   3.559 -0.7329  1.3222  0.8012
 5854TIP3   OH217525   5.157   1.036   3.381  0.3614  0.1717  0.5084
 5854TIP3    H117526   5.112   0.953   3.373 -0.0726  0.2655  1.7184
 5854TIP3    H217527   5.169   1.066   3.291  0.1915 -1.0104  0.0761
 5855TIP3   OH217528   3.399   3.772   2.724 -0.2028 -0.4474 -0.4458
 5855TIP3    H117529   3.493   3.774   2.743  0.0040  1.9686 -1.2701
 5855TIP3    H217530   3.384   3.686   2.685  1.5145 -1.1417  0.3258
 5856TIP3   OH217531   1.996   1.439   2.613 -0.1851 -0.0036  0.5353
 5856TIP3    H117532   2.082   1.414   2.647  0.6424 -1.3654 -2.2465
 5856TIP3    H217533   1.935   1.379   2.657  0.4798 -0.0868  1.3708
 5857TIP3   OH217534   6.558   2.337   0.291 -0.7560 -0.1940 -0.7193
 5857TIP3    H117535   6.532   2.326   0.383  2.2111 -2.0549  0.0280
 5857TIP3    H217536   6.479   2.315   0.241 -2.1359 -0.2224  1.3629
 5858TIP3   OH217537   3.907   6.477   5.622 -0.2339 -0.2542 -0.3252
 5858TIP3    H117538   3.964   6.442   5.691 -0.9883 -0.8284  0.0251
 5858TIP3    H217539   3.962   6.540   5.575  0.6234 -0.6396  0.1291
 5859TIP3   OH217540   1.114   5.561   1.516 -0.1088  0.1131 -0.4453
 5859TIP3    H117541   1.176   5.615   1.565 -2.3042  2.4866 -0.0880
 5859TIP3    H217542   1.128   5.586   1.425  0.0493  0.0026 -0.4515
 5860TIP3   OH217543   2.781   0.091   3.323 -0.9397  0.2060 -0.2483
 5860TIP3    H117544   2.821   0.070   3.408 -1.3366 -0.0333 -0.1158
 5860TIP3    H217545   2.850   0.073   3.259 -0.5528  0.6303  0.0419
 5861TIP3   OH217546   4.648   3.514   2.785  0.2145  0.3105 -0.1691
 5861TIP3    H117547   4.595   3.439   2.757 -2.2281  1.5829  0.7489
 5861TIP3    H217548   4.647   3.574   2.710 -2.8338  1.8980  0.9748
 5862TIP3   OH217549   5.499   1.914   0.129 -0.2316 -0.2899  0.2254
 5862TIP3    H117550   5.465   1.877   0.211 -0.0043 -2.9759 -0.8310
 5862TIP3    H217551   5.591   1.934   0.148 -0.2931 -0.4906  0.7478
 5863TIP3   OH217552   7.145   4.487   1.777 -0.2821 -0.6782  0.4607
 5863TIP3    H117553   7.240   4.480   1.769 -0.2512 -0.6981  0.8048
 5863TIP3    H217554   7.131   4.542   1.855 -0.5513 -1.3160  0.8740
 5864TIP3   OH217555   4.423   0.272   4.004 -0.6587 -0.2207 -0.3869
 5864TIP3    H117556   4.364   0.284   4.078 -0.0753  1.2823 -0.1405
 5864TIP3    H217557   4.378   0.314   3.930 -0.5823 -0.4160 -0.5450
 5865TIP3   OH217558   6.992   6.223   0.065  0.0145  0.7046 -0.0904
 5865TIP3    H117559   7.020   6.237  -0.026 -1.6988 -0.8471 -0.9245
 5865TIP3    H217560   6.988   6.128   0.074  1.1330  0.8036  1.9792
 5866TIP3   OH217561   6.009   4.956   1.618 -0.6988 -0.0775 -0.0330
 5866TIP3    H117562   6.004   4.985   1.709 -1.1708  0.4949 -0.2342
 5866TIP3    H217563   6.070   4.882   1.620  1.9159  1.9355  0.2424
 5867TIP3   OH217564   6.411   3.078   0.448  0.3810 -0.4236 -0.1753
 5867TIP3    H117565   6.328   3.070   0.402  0.6412 -0.9153 -0.5671
 5867TIP3    H217566   6.477   3.053   0.384  0.8026 -0.4252  0.2499
 5868TIP3   OH217567   3.349   5.424   5.132 -0.0457  0.2092  0.2872
 5868TIP3    H117568   3.351   5.455   5.222 -0.7553  0.7262  0.1345
 5868TIP3    H217569   3.278   5.473   5.091 -1.3847 -1.7637  0.1057
 5869TIP3   OH217570   2.315   3.703   3.626  0.0722 -0.1190 -0.4089
 5869TIP3    H117571   2.278   3.785   3.593  0.0573 -0.3062 -0.8556
 5869TIP3    H217572   2.400   3.695   3.582  0.7979  0.4511  0.8140
 5870TIP3   OH217573   5.420   4.956   4.169  0.6400 -0.1796 -0.1470
 5870TIP3    H117574   5.326   4.967   4.183  0.7920  1.9914 -0.4590
 5870TIP3    H217575   5.427   4.906   4.087 -0.2341 -0.2094 -0.2107
 5871TIP3   OH217576   2.439   4.564   4.334  0.6000  0.0332  0.2502
 5871TIP3    H117577   2.351   4.537   4.360  0.9812 -0.2251  1.3638
 5871TIP3    H217578   2.471   4.614   4.410  1.9486 -1.1192  0.4656
 5872TIP3   OH217579   4.353   6.398   2.845  0.3100 -0.8359  0.3949
 5872TIP3    H117580   4.310   6.433   2.767  0.5647 -0.6445  0.3400
 5872TIP3    H217581   4.359   6.472   2.904 -0.3740 -1.1083  0.8151
 5873TIP3   OH217582   1.630   2.484   1.828 -0.1231  0.0603 -0.1951
 5873TIP3    H117583   1.710   2.445   1.795 -0.4438  0.6533 -1.7475
 5873TIP3    H217584   1.560   2.436   1.785 -0.5530  1.0989 -0.6883
 5874TIP3   OH217585   3.224   1.637   5.707  0.4362  0.1827  0.2341
 5874TIP3    H117586   3.307   1.592   5.723  1.3304  1.7425  0.1677
 5874TIP3    H217587   3.226   1.659   5.614  0.5946  1.4079  0.5056
 5875TIP3   OH217588   1.516   2.878   1.735  0.4095 -0.5988  0.2971
 5875TIP3    H117589   1.442   2.894   1.676  1.5473  0.1582 -0.9693
 5875TIP3    H217590   1.565   2.807   1.694  3.2329  2.2704 -1.7957
 5876TIP3   OH217591   6.146   3.091   0.371  0.0732 -0.4253 -0.0485
 5876TIP3    H117592   6.059   3.098   0.331  0.7977  0.2826 -1.5637
 5876TIP3    H217593   6.179   3.181   0.372  0.1438 -0.4218  2.1061
 5877TIP3   OH217594   6.028   1.890   0.816  0.3790  0.3032 -0.1225
 5877TIP3    H117595   5.976   1.965   0.845  0.7074  1.2236 -1.8438
 5877TIP3    H217596   6.079   1.922   0.742  1.3920 -1.3163 -0.1803
 5878TIP3   OH217597   4.536   6.523   3.129 -0.1490 -0.4428 -0.4101
 5878TIP3    H117598   4.629   6.545   3.139  0.0450 -0.5498 -1.8881
 5878TIP3    H217599   4.536   6.439   3.084 -0.9755  0.0161 -1.2878
 5879TIP3   OH217600   1.451   6.371   1.529 -0.0688  0.7471 -0.0671
 5879TIP3    H117601   1.463   6.277   1.516  2.9154  0.9050  0.8227
 5879TIP3    H217602   1.466   6.409   1.443 -0.0495  0.4877 -0.1792
 5880TIP3   OH217603   0.592   3.327   5.837 -0.1905  0.0806  0.1424
 5880TIP3    H117604   0.540   3.405   5.818  0.3475  0.5634  0.6200
 5880TIP3    H217605   0.662   3.328   5.771  0.1194  0.2960  0.4680
 5881TIP3   OH217606   4.608   1.862   3.736  0.2519  0.1755 -0.0803
 5881TIP3    H117607   4.539   1.817   3.785  1.1497 -1.0001  0.1464
 5881TIP3    H217608   4.628   1.940   3.788 -0.0550 -0.1185  0.4824
 5882TIP3   OH217609   6.650   4.332   4.987 -0.1939 -0.3266 -0.1833
 5882TIP3    H117610   6.696   4.263   5.035 -0.3736 -0.1840  0.1960
 5882TIP3    H217611   6.657   4.409   5.043  0.6723  0.1712 -0.9456
 5883TIP3   OH217612   1.550   0.372   2.127  0.2915  0.1289 -0.1573
 5883TIP3    H117613   1.525   0.405   2.214  1.0061  1.0505 -0.2902
 5883TIP3    H217614   1.565   0.278   2.141 -2.0056 -0.2633  0.1786
 5884TIP3   OH217615   2.146   0.798   0.814 -0.3564 -0.0804  0.0410
 5884TIP3    H117616   2.162   0.712   0.775 -2.3937 -0.1783 -0.6815
 5884TIP3    H217617   2.181   0.791   0.902  0.1926 -1.4036 -0.2557
 5885TIP3   OH217618   0.811   6.639   2.190 -0.2076 -0.5573 -0.0835
 5885TIP3    H117619   0.816   6.728   2.226 -0.1654 -0.4133 -0.4462
 5885TIP3    H217620   0.902   6.619   2.166 -0.1939 -0.7540  0.1264
 5886TIP3   OH217621   6.393   0.833   3.922  0.0290 -0.9257 -0.0257
 5886TIP3    H117622   6.378   0.857   4.013 -1.3347 -2.1042  0.0892
 5886TIP3    H217623   6.313   0.859   3.877 -0.8373 -3.5713 -0.1892
 5887TIP3   OH217624   4.025   3.261   3.135 -0.4294  0.5526 -0.1980
 5887TIP3    H117625   3.999   3.173   3.163  0.0127  0.4758 -0.0335
 5887TIP3    H217626   4.058   3.303   3.215  0.6841  0.3908 -0.5596
 5888TIP3   OH217627   1.818   1.046   3.469  0.3931 -0.4350  0.1845
 5888TIP3    H117628   1.793   1.115   3.408  0.8631 -0.5437 -0.1373
 5888TIP3    H217629   1.768   1.064   3.549 -2.1606 -1.7114 -1.0078
 5889TIP3   OH217630   6.819   3.721   2.947  0.4515  0.1391  0.0146
 5889TIP3    H117631   6.877   3.651   2.917 -1.2019 -1.4680  0.4083
 5889TIP3    H217632   6.868   3.763   3.018  1.1294 -1.2055  0.3781
 5890TIP3   OH217633   4.162   3.922   2.823  0.2573 -0.0133  0.1405
 5890TIP3    H117634   4.168   4.002   2.875 -0.1039  0.3780 -0.4120
 5890TIP3    H217635   4.072   3.893   2.834  0.4728 -0.5415  0.6082
 5891TIP3   OH217636   0.411   5.942   1.299  0.4348 -0.2740  0.0402
 5891TIP3    H117637   0.412   5.925   1.394  1.1958 -1.2814 -0.1274
 5891TIP3    H217638   0.443   5.861   1.260  0.6168  0.3089 -1.0642
 5892TIP3   OH217639   4.879   3.842   5.306  0.3819 -0.5474 -0.5113
 5892TIP3    H117640   4.865   3.882   5.392  0.1746 -1.7566  0.0472
 5892TIP3    H217641   4.974   3.828   5.301  0.4467 -0.0719 -0.6792
 5893TIP3   OH217642   2.907   3.819   3.626  0.1365 -0.1008  0.4746
 5893TIP3    H117643   2.835   3.876   3.601 -0.6361 -2.1260 -2.3889
 5893TIP3    H217644   2.888   3.735   3.583  2.8621 -1.5381  1.7884
 5894TIP3   OH217645   5.996   5.095   1.398 -0.3729  0.0560 -0.0890
 5894TIP3    H117646   5.984   5.059   1.486  0.3311  1.1541  0.4788
 5894TIP3    H217647   6.048   5.029   1.352 -0.2936 -0.2910  0.4889
 5895TIP3   OH217648   3.842   0.045   0.926  0.8729  0.0616  0.4093
 5895TIP3    H117649   3.865   0.045   0.833  1.1884 -0.8564  0.4764
 5895TIP3    H217650   3.896   0.114   0.964  2.6736 -1.2474  0.3421
 5896TIP3   OH217651   1.296   2.997   4.480  0.4300 -0.0131 -0.2480
 5896TIP3    H117652   1.243   2.989   4.402  0.4400 -1.2625 -0.1459
 5896TIP3    H217653   1.317   3.091   4.486 -1.9887  0.5813 -0.1092
 5897TIP3   OH217654   5.220   4.312   0.224  0.1869  0.0126 -0.3282
 5897TIP3    H117655   5.140   4.345   0.265  1.4424  1.3236  1.2082
 5897TIP3    H217656   5.189   4.267   0.145 -1.9107  3.1002 -1.5169
 5898TIP3   OH217657   3.300   1.897   0.363 -0.5656  0.2059 -0.1060
 5898TIP3    H117658   3.268   1.978   0.323 -0.2372 -0.1444 -1.1213
 5898TIP3    H217659   3.394   1.911   0.373 -0.3298 -0.4265 -1.2670
 5899TIP3   OH217660   4.050   6.639   3.694 -0.3516  0.5542 -0.3470
 5899TIP3    H117661   4.119   6.642   3.760 -1.3199  0.2825  0.7063
 5899TIP3    H217662   3.980   6.588   3.735 -0.5833 -0.5153 -1.9705
 5900TIP3   OH217663   1.365   5.101   3.207 -0.0472  0.2295  0.5191
 5900TIP3    H117664   1.322   5.156   3.272 -2.5298 -0.4972 -0.3757
 5900TIP3    H217665   1.343   5.011   3.233 -0.1051 -0.1097 -0.6244
 5901TIP3   OH217666   1.896   1.695   0.566  0.0141 -0.2580 -0.3005
 5901TIP3    H117667   1.940   1.610   0.563 -1.1692 -0.9880  1.5679
 5901TIP3    H217668   1.826   1.689   0.501  0.6716 -0.2457 -1.0256
 5902TIP3   OH217669   1.096   3.576   2.240  0.2045 -0.4246 -0.2195
 5902TIP3    H117670   1.027   3.618   2.188 -2.3583 -0.6320  2.7330
 5902TIP3    H217671   1.176   3.621   2.214 -1.3943  1.6312 -1.9913
 5903TIP3   OH217672   1.484   1.215   2.336 -0.2038  0.4955 -0.3539
 5903TIP3    H117673   1.476   1.261   2.420 -1.3341 -2.0620  1.0665
 5903TIP3    H217674   1.572   1.180   2.337 -0.7674 -1.0062  0.6722
 5904TIP3   OH217675   2.951   6.282   4.889  0.1017  0.1568 -0.0009
 5904TIP3    H117676   2.867   6.278   4.844 -1.5953 -0.1939  2.8999
 5904TIP3    H217677   2.954   6.369   4.928  0.7743 -0.0396  0.4129
 5905TIP3   OH217678   1.440   0.084   2.312  0.1379  0.1938  0.1664
 5905TIP3    H117679   1.536   0.092   2.315  0.0605  1.0858  0.7346
 5905TIP3    H217680   1.419   0.082   2.219  0.8230 -1.6369  0.0202
 5906TIP3   OH217681   5.404   4.913   4.563  0.1351 -0.3535  0.3197
 5906TIP3    H117682   5.376   5.000   4.590 -0.0111  0.1596 -1.4075
 5906TIP3    H217683   5.374   4.904   4.473 -0.0283 -2.2801  0.5138
 5907TIP3   OH217684   7.218   1.831   5.708 -0.4604 -0.0941  0.0240
 5907TIP3    H117685   7.151   1.765   5.723 -1.0035  0.1476 -1.2116
 5907TIP3    H217686   7.171   1.904   5.668  0.3347  0.5657  0.2755
 5908TIP3   OH217687   3.532   1.049   2.169 -0.0875 -0.2709 -0.2483
 5908TIP3    H117688   3.457   1.045   2.228  0.4808 -1.4814  0.4246
 5908TIP3    H217689   3.585   0.973   2.192  1.4680  0.6761 -0.5487
 5909TIP3   OH217690   4.130   0.267   0.625  0.0281 -0.1023  0.1591
 5909TIP3    H117691   4.113   0.174   0.636 -0.0185 -0.0527  0.5207
 5909TIP3    H217692   4.187   0.273   0.548  2.0702 -0.6382  1.5581
 5910TIP3   OH217693   1.867   0.046   4.777  0.3697  0.3275  0.1017
 5910TIP3    H117694   1.840   0.138   4.779 -1.0972 -0.0815  0.2938
 5910TIP3    H217695   1.856   0.015   4.867 -3.9920 -1.2789 -0.7207
 5911TIP3   OH217696   4.992   1.474   2.308  0.3424  0.5542  0.1145
 5911TIP3    H117697   5.008   1.414   2.235 -0.4200  0.6345 -0.1311
 5911TIP3    H217698   4.900   1.459   2.331  0.3789  1.0449  0.5848
 5912TIP3   OH217699   1.387   5.441   2.494 -0.1372 -0.1949 -0.8666
 5912TIP3    H117700   1.423   5.418   2.580  0.8263  2.3343 -0.5212
 5912TIP3    H217701   1.385   5.358   2.447  1.5878 -1.2597  0.7762
 5913TIP3   OH217702   6.386   2.296   1.162 -0.8926  0.9252  0.1174
 5913TIP3    H117703   6.480   2.305   1.174 -0.7567  1.1281 -1.0265
 5913TIP3    H217704   6.371   2.202   1.151 -0.9122  0.8266  0.9380
 5914TIP3   OH217705   4.603   0.613   2.495 -0.0970  0.3245  0.3070
 5914TIP3    H117706   4.566   0.573   2.416  0.0310  0.5540  0.1291
 5914TIP3    H217707   4.687   0.648   2.467  0.2169 -0.1050  0.6864
 5915TIP3   OH217708   5.200   2.401   1.771 -0.3369 -0.3256 -0.2083
 5915TIP3    H117709   5.244   2.322   1.804  0.5284  0.1861 -0.1104
 5915TIP3    H217710   5.264   2.441   1.713 -1.5276 -0.7666 -1.9134
 5916TIP3   OH217711   1.728   4.568   3.482  0.2673  0.5306 -0.1391
 5916TIP3    H117712   1.743   4.503   3.551 -0.8371  1.3904  0.9380
 5916TIP3    H217713   1.701   4.516   3.406 -0.3383 -0.2948  0.6270
 5917TIP3   OH217714   2.696   6.055   4.702 -0.1044  0.2478  0.1944
 5917TIP3    H117715   2.713   6.019   4.615 -1.4333 -0.7019  0.2981
 5917TIP3    H217716   2.721   6.147   4.695  2.2811 -0.3834 -0.4190
 5918TIP3   OH217717   5.601   4.728   5.056 -0.3433 -0.1277  0.4475
 5918TIP3    H117718   5.642   4.642   5.053 -0.5523 -0.2188  0.1695
 5918TIP3    H217719   5.512   4.714   5.022 -0.7485 -0.0154  1.4238
 5919TIP3   OH217720   4.416   0.061   5.076 -0.0005 -0.3179  0.2817
 5919TIP3    H117721   4.419   0.045   4.981  1.1749  0.1715  0.2136
 5919TIP3    H217722   4.327   0.093   5.092  0.0092  0.2940 -0.7853
 5920TIP3   OH217723   5.584   5.727   1.130  0.0751 -0.1206  0.7032
 5920TIP3    H117724   5.653   5.773   1.178 -1.5998  0.6213  2.5319
 5920TIP3    H217725   5.549   5.664   1.193 -1.2073 -0.1620 -0.0213
 5921TIP3   OH217726   5.396   1.990   4.672  0.2584  0.1146  0.2984
 5921TIP3    H117727   5.442   1.909   4.695  1.0155  0.5051  0.2132
 5921TIP3    H217728   5.453   2.032   4.607  0.4551  1.2625  1.1875
 5922TIP3   OH217729   5.540   1.268   1.454  0.7287  0.2271 -0.3556
 5922TIP3    H117730   5.553   1.270   1.359  0.8086  0.2541 -0.3437
 5922TIP3    H217731   5.612   1.214   1.487  2.0424  2.0686 -0.0715
 5923TIP3   OH217732   0.140   2.326   4.360  0.2761  0.3476 -0.2398
 5923TIP3    H117733   0.160   2.368   4.276  0.7546  0.6532  0.0226
 5923TIP3    H217734   0.156   2.394   4.426  3.4916 -0.8554  0.4151
 5924TIP3   OH217735   3.546   4.917   2.300 -0.0321  0.3640 -0.1428
 5924TIP3    H117736   3.596   4.906   2.381  0.1636 -0.3446 -0.3550
 5924TIP3    H217737   3.455   4.904   2.326  0.0875 -0.5595 -0.1517
 5925TIP3   OH217738   2.072   6.233   1.877  0.0844  0.3734  0.0046
 5925TIP3    H117739   1.994   6.268   1.833  0.1642  0.2945 -0.2002
 5925TIP3    H217740   2.124   6.195   1.807 -0.4084 -0.9345  0.3278
 5926TIP3   OH217741   4.835   1.269   2.507 -0.0129  0.1184 -0.4580
 5926TIP3    H117742   4.927   1.290   2.522  0.5008  0.5148 -3.4549
 5926TIP3    H217743   4.830   1.174   2.515  1.1694 -0.1380 -2.2722
 5927TIP3   OH217744   1.469   0.609   5.579 -0.0663  0.2343  0.2008
 5927TIP3    H117745   1.425   0.688   5.549 -0.1578  0.9162  2.0212
 5927TIP3    H217746   1.431   0.591   5.665  1.5947 -0.4557  0.8356
 5928TIP3   OH217747   0.968   1.678   3.835  0.0653  0.2525  0.2149
 5928TIP3    H117748   0.911   1.754   3.838  2.2254  1.9598  2.5708
 5928TIP3    H217749   1.057   1.714   3.844  1.2582 -2.4848  0.5202
 5929TIP3   OH217750   3.025   1.906   0.494  0.2641  1.0003  0.0389
 5929TIP3    H117751   3.068   1.903   0.409 -1.9643  0.7218 -1.1820
 5929TIP3    H217752   3.060   1.831   0.542  0.6147  0.3892 -1.1507
 5930TIP3   OH217753   2.971   4.794   3.912 -0.4152  0.3128  0.3886
 5930TIP3    H117754   3.053   4.844   3.923 -0.3141  0.2519 -0.0526
 5930TIP3    H217755   2.983   4.748   3.829 -0.4563 -0.5571  0.8585
 5931TIP3   OH217756   2.877   6.265   3.253  0.3125  0.1452 -0.1070
 5931TIP3    H117757   2.963   6.295   3.223 -0.4503  1.9482 -0.6291
 5931TIP3    H217758   2.824   6.345   3.256 -1.2296 -0.8733  0.5994
 5932TIP3   OH217759   3.518   5.369   4.274  0.0876  0.5191  0.3784
 5932TIP3    H117760   3.546   5.314   4.347 -0.9024  0.9826  1.1310
 5932TIP3    H217761   3.429   5.338   4.254 -0.5010  1.8487  0.8446
 5933TIP3   OH217762   5.998   1.054   3.993 -0.5400  0.2226  0.4578
 5933TIP3    H117763   5.966   1.041   4.082 -2.1699 -0.2653 -0.1485
 5933TIP3    H217764   5.925   1.026   3.938  0.5654  0.1705 -1.0347
 5934TIP3   OH217765   3.661   6.238   2.410  0.4517  0.5069 -0.1125
 5934TIP3    H117766   3.741   6.194   2.381 -1.1430 -1.5677 -1.6510
 5934TIP3    H217767   3.590   6.186   2.373 -1.6766  1.5639  2.2089
 5935TIP3   OH217768   6.163   0.880   1.580  0.5043  0.0907  0.2724
 5935TIP3    H117769   6.180   0.788   1.557 -0.3756 -0.2986  1.0944
 5935TIP3    H217770   6.207   0.893   1.663 -0.4783  0.0047  0.8230
 5936TIP3   OH217771   6.629   1.030   3.834  0.0504 -0.0773  0.3313
 5936TIP3    H117772   6.666   1.097   3.892 -0.8348 -0.3707  1.2538
 5936TIP3    H217773   6.629   1.071   3.748  0.4631  0.7413  0.7039
 5937TIP3   OH217774   3.062   6.083   5.458  0.1972 -0.4098  0.0764
 5937TIP3    H117775   3.037   6.152   5.397 -1.1805 -1.9123 -1.1677
 5937TIP3    H217776   3.034   6.115   5.544 -1.8494 -0.0236 -0.6711
 5938TIP3   OH217777   6.115   0.014   1.199  0.5435 -0.3371  0.4609
 5938TIP3    H117778   6.149   0.017   1.110 -0.0043  0.7884  0.2715
 5938TIP3    H217779   6.137   0.100   1.236 -2.4201  0.6715  0.1660
 5939TIP3   OH217780   4.760   2.657   5.637 -0.2905 -0.0873  0.0853
 5939TIP3    H117781   4.760   2.747   5.670 -2.0588  0.0684 -0.2427
 5939TIP3    H217782   4.819   2.659   5.562  0.3225  0.5979  0.5701
 5940TIP3   OH217783   0.239   1.082   1.168 -0.3616 -0.5065 -0.1926
 5940TIP3    H117784   0.294   1.154   1.135 -1.4775  0.0144 -1.0045
 5940TIP3    H217785   0.235   1.020   1.095  0.4888 -1.3654  0.4588
 5941TIP3   OH217786   4.155   6.745   4.327 -0.0914 -0.1144 -0.1911
 5941TIP3    H117787   4.231   6.708   4.372 -0.0533 -0.4154 -0.4907
 5941TIP3    H217788   4.102   6.785   4.396 -0.4997 -1.3680  0.2559
 5942TIP3   OH217789   6.867   2.820   2.340 -0.0139 -0.8915 -0.2924
 5942TIP3    H117790   6.917   2.817   2.422  0.1084  0.1665 -0.3169
 5942TIP3    H217791   6.928   2.858   2.277 -1.3530  2.1775  0.0988
 5943TIP3   OH217792   1.521   2.956   0.547 -0.0368 -0.0053 -0.2502
 5943TIP3    H117793   1.600   2.974   0.497  0.1290  0.0686  0.0385
 5943TIP3    H217794   1.532   3.004   0.630 -0.2881 -0.1609 -0.1229
 5944TIP3   OH217795   7.101   6.090   2.891 -0.3431 -0.3227  0.5530
 5944TIP3    H117796   7.011   6.123   2.891 -0.4158 -0.3525 -1.7936
 5944TIP3    H217797   7.151   6.158   2.844  1.0100 -0.0219  2.3241
 5945TIP3   OH217798   2.501   1.989   1.681 -0.1508 -0.5929 -0.6990
 5945TIP3    H117799   2.511   1.910   1.734 -0.9457 -1.4868 -1.8235
 5945TIP3    H217800   2.413   1.981   1.643 -1.1477  1.8643  0.7933
 5946TIP3   OH217801   5.255   1.245   2.934  0.2360  0.3424  0.2981
 5946TIP3    H117802   5.198   1.266   3.009  0.5964  2.8214 -0.0512
 5946TIP3    H217803   5.194   1.230   2.862 -0.0882 -1.4609  0.8814
 5947TIP3   OH217804   0.915   2.266   4.196 -0.1020 -0.4077 -0.0158
 5947TIP3    H117805   0.940   2.282   4.105  1.8650  0.1215  0.5673
 5947TIP3    H217806   0.859   2.340   4.219  0.3634  0.1006 -0.4715
 5948TIP3   OH217807   0.919   0.397   5.422  0.3773 -0.3258  0.4817
 5948TIP3    H117808   0.972   0.326   5.456  1.3806  0.9348  1.6434
 5948TIP3    H217809   0.974   0.440   5.356  0.0761 -0.1373  0.3474
 5949TIP3   OH217810   3.133   1.668   0.620  0.6533 -0.1778 -0.3310
 5949TIP3    H117811   3.052   1.678   0.670  0.5823  0.4551 -0.5695
 5949TIP3    H217812   3.185   1.607   0.672  0.4150  0.1527  0.3111
 5950TIP3   OH217813   0.128   4.312   2.000  0.1594  0.1604  0.2042
 5950TIP3    H117814   0.211   4.361   2.003  0.0491  0.3183  3.5234
 5950TIP3    H217815   0.061   4.379   2.011 -0.1997 -0.3481  1.1230
 5951TIP3   OH217816   6.577   5.842   0.327  0.6355 -0.0642  0.4036
 5951TIP3    H117817   6.571   5.834   0.422  0.8379  1.6862  0.5880
 5951TIP3    H217818   6.669   5.860   0.310  0.5558 -0.1128 -0.1053
 5952TIP3   OH217819   5.891   0.357   3.989  0.0642 -0.1987 -0.1556
 5952TIP3    H117820   5.979   0.352   3.951 -0.7966 -1.2422 -2.1129
 5952TIP3    H217821   5.907   0.365   4.083  2.2568 -1.7206 -0.3202
 5953TIP3   OH217822   0.622   6.661   0.102  0.5774  0.1592 -0.0501
 5953TIP3    H117823   0.717   6.651   0.092  0.8461  0.5030  1.7035
 5953TIP3    H217824   0.604   6.624   0.189 -0.8535  0.3743 -0.2372
 5954TIP3   OH217825   4.527   5.463   5.794  0.7390 -0.6224  0.2802
 5954TIP3    H117826   4.478   5.383   5.777 -0.0888  0.3347 -2.1671
 5954TIP3    H217827   4.466   5.519   5.841  0.5165 -0.5547 -0.0887
 5955TIP3   OH217828   1.180   4.025   4.237  0.4877  0.3772 -0.4348
 5955TIP3    H117829   1.096   4.027   4.282  0.2896  1.5630 -0.8200
 5955TIP3    H217830   1.161   3.984   4.152  0.1057  1.4151 -0.8638
 5956TIP3   OH217831   3.385   4.800   0.323  0.3113  0.1814  0.1087
 5956TIP3    H117832   3.472   4.768   0.301 -0.5258 -1.6369 -0.7666
 5956TIP3    H217833   3.394   4.836   0.411  1.7776 -0.6504  0.3265
 5957TIP3   OH217834   0.361   2.266   1.018  0.1571  0.6031  0.8135
 5957TIP3    H117835   0.397   2.196   1.073 -2.8736 -0.9110  1.0780
 5957TIP3    H217836   0.351   2.227   0.932 -1.3205  0.7324  0.8922
 5958TIP3   OH217837   6.527   5.705   5.029 -0.9738  0.3286 -0.2473
 5958TIP3    H117838   6.543   5.626   4.978 -1.1678 -0.3816  0.7404
 5958TIP3    H217839   6.501   5.672   5.116 -1.0967  1.4765  0.1722
 5959TIP3   OH217840   1.894   2.767   4.688 -0.8976 -0.4086 -0.1530
 5959TIP3    H117841   1.838   2.841   4.711 -0.5956 -0.6192  1.3085
 5959TIP3    H217842   1.957   2.762   4.759  0.7725 -0.4097 -1.5693
 5960TIP3   OH217843   1.632   1.807   2.946 -0.3957  0.6714  0.0240
 5960TIP3    H117844   1.724   1.824   2.965  0.0211 -0.7052 -0.6260
 5960TIP3    H217845   1.617   1.850   2.862 -0.3107  0.7711  0.0590
 5961TIP3   OH217846   0.656   6.705   4.427  0.1716 -0.4463 -0.0370
 5961TIP3    H117847   0.599   6.749   4.364  1.0985 -0.6853 -1.0630
 5961TIP3    H217848   0.644   6.755   4.508  0.8345  1.4408 -1.0277
 5962TIP3   OH217849   3.367   0.377   0.986 -0.0973  0.3775  0.9418
 5962TIP3    H117850   3.312   0.442   0.942  0.4867  0.7256  0.7200
 5962TIP3    H217851   3.420   0.427   1.047  0.5360  0.1434  0.5924
 5963TIP3   OH217852   1.436   0.258   5.203 -0.0383  0.4170  0.3049
 5963TIP3    H117853   1.423   0.206   5.282 -0.6969  0.5616  0.2947
 5963TIP3    H217854   1.430   0.349   5.232 -1.5703  0.4666 -0.1096
 5964TIP3   OH217855   1.970   3.209   1.981  0.4180  0.0312 -0.1610
 5964TIP3    H117856   2.008   3.159   1.909 -0.9036  0.1449 -0.9693
 5964TIP3    H217857   1.940   3.291   1.941 -0.1373  0.1925  0.5543
 5965TIP3   OH217858   4.515   2.549   1.031 -0.0891  0.4304 -0.5682
 5965TIP3    H117859   4.596   2.568   0.982  1.1320 -2.0731  0.3310
 5965TIP3    H217860   4.464   2.630   1.024  2.3718  2.0406 -1.3808
 5966TIP3   OH217861   7.081   4.413   0.570  0.6758  0.3895  0.0059
 5966TIP3    H117862   7.168   4.443   0.595 -0.0882  2.4565  0.4101
 5966TIP3    H217863   7.026   4.432   0.647 -0.3210  0.0813 -0.6070
 5967TIP3   OH217864   0.102   2.038   1.168  0.1488  0.2730  0.0905
 5967TIP3    H117865   0.108   2.133   1.166 -0.6580  0.3285  0.0151
 5967TIP3    H217866   0.145   2.013   1.250 -2.4607  0.9685  1.8048
 5968TIP3   OH217867   3.332   4.880   5.089 -0.0562  0.2118  0.1113
 5968TIP3    H117868   3.324   4.962   5.137  0.7523  0.5873 -0.3826
 5968TIP3    H217869   3.319   4.905   4.997 -1.2313 -0.4394  0.0725
 5969TIP3   OH217870   2.385   5.842   4.586 -0.3833 -0.0749 -0.1516
 5969TIP3    H117871   2.332   5.798   4.653  1.1419 -1.8277 -0.0164
 5969TIP3    H217872   2.468   5.795   4.587  0.3093  1.0114 -2.0513
 5970TIP3   OH217873   1.592   5.149   5.132 -0.6314 -0.3169 -0.3954
 5970TIP3    H117874   1.547   5.074   5.172 -1.0212  0.5494  0.8681
 5970TIP3    H217875   1.562   5.225   5.183  0.7051  0.5507 -0.8364
 5971TIP3   OH217876   5.025   3.074   5.049 -0.0142  0.5726 -0.2638
 5971TIP3    H117877   5.098   3.026   5.089  0.6236  0.2133 -1.8121
 5971TIP3    H217878   4.948   3.021   5.071  0.2483  0.5894  0.7859
 5972TIP3   OH217879   5.290   5.971   3.928  0.1247 -0.0828  0.0339
 5972TIP3    H117880   5.378   5.954   3.960  0.1368 -1.6935 -0.7291
 5972TIP3    H217881   5.281   6.066   3.929  1.7883  0.0913  0.3120
 5973TIP3   OH217882   0.098   4.840   2.569 -0.2779  0.3495  0.0239
 5973TIP3    H117883   0.058   4.771   2.517 -0.4273 -0.0716  0.6757
 5973TIP3    H217884   0.087   4.810   2.660 -0.7006  1.4159  0.3400
 5974TIP3   OH217885   2.135   3.572   0.392 -0.2145 -0.3200 -0.6006
 5974TIP3    H117886   2.091   3.497   0.433 -1.1198  0.6078  0.2114
 5974TIP3    H217887   2.203   3.597   0.454 -0.4726  0.0375 -0.4538
 5975TIP3   OH217888   6.666   0.217   5.827  0.0911  0.1758 -0.2171
 5975TIP3    H117889   6.611   0.242   5.752 -1.3235 -2.3196 -0.1279
 5975TIP3    H217890   6.743   0.175   5.787  0.5153  0.9894 -0.2804
 5976TIP3   OH217891   5.405   4.308   3.458 -0.2974  0.1744 -0.5550
 5976TIP3    H117892   5.366   4.278   3.540  1.3895 -1.9907 -0.4599
 5976TIP3    H217893   5.415   4.228   3.406  4.1532  0.4425 -0.4551
 5977TIP3   OH217894   1.575   4.579   4.233 -0.6019  0.1188 -0.1955
 5977TIP3    H117895   1.624   4.657   4.208 -0.8641  0.5571  0.5994
 5977TIP3    H217896   1.543   4.543   4.151  3.1999 -1.7106 -1.1116
 5978TIP3   OH217897   0.184   3.664   0.200 -0.3859 -0.1260 -0.1817
 5978TIP3    H117898   0.241   3.675   0.276 -0.8986  0.8240  0.0797
 5978TIP3    H217899   0.221   3.721   0.133  0.3373 -1.3115 -0.8338
 5979TIP3   OH217900   0.697   6.400   2.228  0.1990 -0.2770  0.3903
 5979TIP3    H117901   0.733   6.486   2.207  0.8064 -0.3951  0.9081
 5979TIP3    H217902   0.775   6.344   2.237 -0.0852 -0.4241  2.0606
 5980TIP3   OH217903   1.231   6.213   1.816  0.4988 -0.2585  0.4999
 5980TIP3    H117904   1.193   6.214   1.728 -0.4993  0.3845  0.9244
 5980TIP3    H217905   1.292   6.139   1.815 -0.6712 -1.2304 -0.2455
 5981TIP3   OH217906   1.219   5.393   4.773  0.0787 -0.5325 -0.4984
 5981TIP3    H117907   1.200   5.486   4.785 -0.3151 -0.5737 -0.7728
 5981TIP3    H217908   1.292   5.392   4.710 -0.2421 -0.4216 -0.8754
 5982TIP3   OH217909   0.591   0.819   5.811 -0.2608 -0.1243  0.4294
 5982TIP3    H117910   0.523   0.846   5.748 -0.8065  1.0276  1.4713
 5982TIP3    H217911   0.564   0.859   5.894  0.3790 -1.7139  1.4447
 5983TIP3   OH217912   5.184   6.784   5.218  0.0226 -0.2202  0.4889
 5983TIP3    H117913   5.142   6.698   5.215  1.9992 -1.2323 -0.5361
 5983TIP3    H217914   5.253   6.775   5.284  0.9326  0.2055 -0.3692
 5984TIP3   OH217915   6.326   3.851   1.656 -0.0507 -0.4126  0.0654
 5984TIP3    H117916   6.324   3.930   1.602 -2.1828 -0.8261 -0.5395
 5984TIP3    H217917   6.303   3.780   1.596 -2.6306 -0.8701  1.4720
 5985TIP3   OH217918   5.004   6.162   3.308 -0.3719  0.0142 -0.6265
 5985TIP3    H117919   5.006   6.215   3.228 -1.8000 -0.0055 -0.7003
 5985TIP3    H217920   4.911   6.149   3.326 -0.0577 -1.2732  0.1907
 5986TIP3   OH217921   1.219   1.934   2.964  0.1212 -0.4384  0.1209
 5986TIP3    H117922   1.182   1.999   3.024  2.9535  0.2281  1.3298
 5986TIP3    H217923   1.235   1.857   3.018 -0.7832 -1.2200 -0.7004
 5987TIP3   OH217924   2.207   4.781   4.118 -0.2066  0.0723  0.4791
 5987TIP3    H117925   2.235   4.701   4.073 -1.8392  0.9384 -2.3493
 5987TIP3    H217926   2.153   4.750   4.191  1.0929 -1.4087  0.8589
 5988TIP3   OH217927   2.741   6.109   0.143  0.5466  0.5180 -0.2390
 5988TIP3    H117928   2.815   6.161   0.112  0.3236  0.6145 -0.6174
 5988TIP3    H217929   2.664   6.158   0.115  0.3329  0.8825  0.9522
 5989TIP3   OH217930   0.059   2.645   1.293 -0.1027 -0.0675 -0.1336
 5989TIP3    H117931   0.094   2.681   1.212  1.9726  4.4526  2.3978
 5989TIP3    H217932  -0.034   2.667   1.292 -0.0484  0.1393 -1.1474
 5990TIP3   OH217933   5.932   3.943   5.514 -0.5017 -0.8610  0.0646
 5990TIP3    H117934   5.908   3.864   5.564 -1.8413  0.7116  2.0493
 5990TIP3    H217935   5.989   3.992   5.573 -0.3224  0.0511 -0.8361
 5991TIP3   OH217936   4.941   1.534   1.528  0.4596 -0.3426  0.0480
 5991TIP3    H117937   4.998   1.466   1.491  0.4776 -0.1395 -0.2975
 5991TIP3    H217938   4.887   1.562   1.455 -1.7258 -2.1507  0.8436
 5992TIP3   OH217939   3.212   6.349   3.999 -0.2430 -0.4592  0.1137
 5992TIP3    H117940   3.289   6.407   4.000 -0.4716 -0.0412 -2.0109
 5992TIP3    H217941   3.140   6.406   3.974 -0.6207 -1.4768 -1.1904
 5993TIP3   OH217942   1.928   1.569   4.474 -0.5536  0.4174 -0.4103
 5993TIP3    H117943   2.016   1.605   4.482 -0.5839  0.3251  0.4445
 5993TIP3    H217944   1.932   1.510   4.399  0.2676 -0.0331 -0.0195
 5994TIP3   OH217945   1.108   6.259   4.409  0.3215 -0.0920  0.0608
 5994TIP3    H117946   1.136   6.192   4.347  0.0007  0.4875 -0.7159
 5994TIP3    H217947   1.137   6.341   4.371  1.0975  0.2019  1.2226
 5995TIP3   OH217948   1.760   0.265   1.056 -0.5338  0.7317 -0.2613
 5995TIP3    H117949   1.699   0.264   1.130  2.4356 -0.7013  2.3984
 5995TIP3    H217950   1.749   0.180   1.014 -0.7413  0.7139 -0.1737
 5996TIP3   OH217951   1.646   2.641   0.593 -0.0898 -0.3830 -0.4747
 5996TIP3    H117952   1.614   2.591   0.668  2.1175 -1.9106 -0.4492
 5996TIP3    H217953   1.568   2.656   0.539 -1.5544 -0.1371  1.5664
 5997TIP3   OH217954   1.315   2.043   4.151  0.4453  0.1289 -0.2744
 5997TIP3    H117955   1.345   2.064   4.239  0.4744 -0.0476 -0.2428
 5997TIP3    H217956   1.251   2.112   4.131 -1.2540 -1.0611  0.7569
 5998TIP3   OH217957   5.140   5.979   5.092  0.4927 -0.3377  0.2135
 5998TIP3    H117958   5.093   5.910   5.138 -0.2863 -0.1460 -0.2755
 5998TIP3    H217959   5.180   5.935   5.017 -1.1022 -0.0485 -0.8472
 5999TIP3   OH217960   1.270   4.585   4.077 -0.1575  0.3252 -0.9768
 5999TIP3    H117961   1.277   4.679   4.065 -0.3405  0.3336 -1.0245
 5999TIP3    H217962   1.178   4.570   4.100  0.0979  0.2717  0.0633
 6000TIP3   OH217963   2.593   5.961   0.678  0.4585  0.2706  0.2690
 6000TIP3    H117964   2.582   5.963   0.583  0.6708 -1.0627  0.1922
 6000TIP3    H217965   2.509   5.992   0.713  0.2185  0.3431 -0.3585
 6001TIP3   OH217966   4.203   5.826   0.135  0.3770 -0.2705  0.6777
 6001TIP3    H117967   4.215   5.919   0.115 -0.7432 -0.2975 -0.2597
 6001TIP3    H217968   4.119   5.822   0.180 -0.1704 -0.9402 -0.3493
 6002TIP3   OH217969   0.072   1.346   5.023 -0.2865  0.1376  0.0474
 6002TIP3    H117970   0.123   1.396   5.088 -0.4292  0.5336 -0.1449
 6002TIP3    H217971   0.130   1.338   4.948 -0.4288  0.4002 -0.0901
 6003TIP3   OH217972   2.095   2.025   2.844 -0.2811  0.3834  0.1427
 6003TIP3    H117973   2.023   2.083   2.869  0.0827  1.0622 -0.3344
 6003TIP3    H217974   2.074   1.998   2.754  0.1364  0.7302 -0.0651
 6004TIP3   OH217975   0.277   2.046   3.561 -0.3599 -0.1987  0.7745
 6004TIP3    H117976   0.289   1.980   3.493 -2.5649  0.1028  0.0060
 6004TIP3    H217977   0.359   2.096   3.561 -0.3769 -0.0182 -1.9213
 6005TIP3   OH217978   3.236   6.772   2.388 -0.7820 -0.1060 -0.3692
 6005TIP3    H117979   3.315   6.753   2.337 -0.7892 -0.1355 -0.3697
 6005TIP3    H217980   3.223   6.694   2.443 -0.3973  0.1920  0.1588
 6006TIP3   OH217981   2.600   2.931   2.211 -0.3066  0.2590  0.2862
 6006TIP3    H117982   2.668   2.904   2.150 -0.8747 -1.3781  0.3162
 6006TIP3    H217983   2.611   2.874   2.287  0.4162  2.2879  1.7987
 6007TIP3   OH217984   1.219   3.973   2.318 -0.8237 -0.2938  0.0497
 6007TIP3    H117985   1.156   4.032   2.277 -0.0924  1.3679  1.1810
 6007TIP3    H217986   1.302   4.021   2.315 -0.0611 -1.5368  0.4772
 6008TIP3   OH217987   5.633   1.254   4.936 -0.2007 -0.0718  0.1846
 6008TIP3    H117988   5.617   1.192   5.008 -1.8121  0.0209 -0.0584
 6008TIP3    H217989   5.639   1.339   4.979 -0.8531 -0.0535  0.2443
 6009TIP3   OH217990   2.193   1.126   1.110 -0.1877  0.3776  0.3653
 6009TIP3    H117991   2.141   1.166   1.041  0.6481  0.5727 -0.1636
 6009TIP3    H217992   2.135   1.126   1.186  0.1075  3.7533  0.7581
 6010TIP3   OH217993   0.076   3.452   3.478  0.5361  0.1358 -0.3527
 6010TIP3    H117994   0.048   3.366   3.508 -1.7304  0.9207  0.0257
 6010TIP3    H217995   0.095   3.500   3.559  1.7150  0.0334 -0.5576
 6011TIP3   OH217996   5.514   3.867   2.659  0.5172  0.2956 -0.1055
 6011TIP3    H117997   5.579   3.797   2.651  0.3424  0.0286  0.6454
 6011TIP3    H217998   5.558   3.935   2.710  0.2353  0.1376  0.3560
 6012TIP3   OH217999   5.338   0.696   4.575 -0.0587 -0.4257  0.1841
 6012TIP3    H118000   5.292   0.676   4.494 -0.0505 -0.1167  0.0999
 6012TIP3    H218001   5.281   0.759   4.620  0.1192 -0.2958  0.2328
 6013TIP3   OH218002   3.187   4.089   1.403 -0.0529 -0.6324  0.5811
 6013TIP3    H118003   3.238   4.061   1.327  1.5791  0.2532  1.3178
 6013TIP3    H218004   3.176   4.184   1.392 -2.7228 -0.9431 -0.2222
 6014TIP3   OH218005   0.526   1.190   2.235 -0.1866 -0.3302  0.6456
 6014TIP3    H118006   0.582   1.118   2.263 -0.2821 -1.1015 -1.0131
 6014TIP3    H218007   0.458   1.148   2.181  0.0037  1.0296 -0.7264
 6015TIP3   OH218008   1.682   2.716   3.708  0.1978  0.2992  0.4914
 6015TIP3    H118009   1.615   2.718   3.639 -1.0719 -0.3874  1.6525
 6015TIP3    H218010   1.710   2.624   3.711  1.5094  0.6482 -0.2368
 6016TIP3   OH218011   5.794   2.931   0.083 -0.2645 -0.0863 -0.5993
 6016TIP3    H118012   5.883   2.934   0.046  0.2407  1.5420  0.6683
 6016TIP3    H218013   5.738   2.957   0.010  0.5265  1.1240 -0.8114
 6017TIP3   OH218014   6.336   5.392   5.427 -0.0393  0.0508 -0.4270
 6017TIP3    H118015   6.387   5.327   5.378  0.6888  2.2749 -2.8322
 6017TIP3    H218016   6.255   5.401   5.377 -1.2545 -0.7809  1.3183
 6018TIP3   OH218017   6.983   0.950   0.055  0.3203 -0.1039  0.5550
 6018TIP3    H118018   6.909   0.898   0.024  1.1804 -0.1122 -1.6445
 6018TIP3    H218019   6.994   1.018  -0.012  2.7805 -0.5861  0.3755
 6019TIP3   OH218020   6.268   5.290   0.668  0.1710 -0.2382  0.0072
 6019TIP3    H118021   6.327   5.268   0.596 -0.2938 -0.5419 -0.2851
 6019TIP3    H218022   6.213   5.213   0.679 -0.0613 -0.0212  0.3862
 6020TIP3   OH218023   2.331   4.881   5.225  0.2085  0.6523 -0.2126
 6020TIP3    H118024   2.394   4.844   5.287 -1.6543 -2.8242 -0.1465
 6020TIP3    H218025   2.380   4.889   5.144  0.9613 -1.5241 -0.0509
 6021TIP3   OH218026   4.231   4.299   2.482  0.1352  0.0888  0.0449
 6021TIP3    H118027   4.252   4.336   2.568 -1.0222  0.7440  0.0659
 6021TIP3    H218028   4.139   4.320   2.469 -0.1287 -1.4031 -0.6701
 6022TIP3   OH218029   6.941   5.102   2.551  0.2658  0.0679  0.0548
 6022TIP3    H118030   6.938   5.124   2.458  1.0451  3.0956  0.6536
 6022TIP3    H218031   6.863   5.143   2.588  2.6481  3.7706  1.5160
 6023TIP3   OH218032   6.565   6.074   5.176 -0.0705 -0.2024 -0.0604
 6023TIP3    H118033   6.625   6.143   5.148  0.5289 -1.4954 -2.1868
 6023TIP3    H218034   6.623   6.004   5.208 -0.5941 -0.3802  0.5134
 6024TIP3   OH218035   2.157   1.279   1.417  0.1522  0.6575  0.2379
 6024TIP3    H118036   2.139   1.191   1.383 -0.5974  0.6474  0.6282
 6024TIP3    H218037   2.245   1.299   1.387  0.0093  0.1181 -0.5753
 6025TIP3   OH218038   1.666   5.955   2.080 -0.6280  0.5339  0.1503
 6025TIP3    H118039   1.685   6.049   2.083 -2.0187  0.8784 -0.7770
 6025TIP3    H218040   1.626   5.936   2.165 -1.0050  0.9462  0.0706
 6026TIP3   OH218041   6.275   4.018   1.868  0.5549  0.7468 -0.2268
 6026TIP3    H118042   6.257   3.980   1.782 -0.9791 -0.5374  0.5987
 6026TIP3    H218043   6.213   4.090   1.876 -0.7541 -0.3965  0.5395
 6027TIP3   OH218044   3.966   3.968   5.370  0.2322 -0.0453  0.3273
 6027TIP3    H118045   3.928   4.055   5.364 -0.6442 -0.4890 -1.1181
 6027TIP3    H218046   3.946   3.927   5.285  1.8315 -1.1581  0.4391
 6028TIP3   OH218047   3.353   4.060   5.624 -0.4187 -0.3464 -0.9239
 6028TIP3    H118048   3.315   4.066   5.711  1.4976 -1.3978  0.0357
 6028TIP3    H218049   3.386   3.970   5.618  0.6340  0.0893 -2.2430
 6029TIP3   OH218050   1.103   6.383   0.751  0.1050 -0.2101  0.5987
 6029TIP3    H118051   1.146   6.307   0.713 -1.2745 -0.4609 -0.5648
 6029TIP3    H218052   1.099   6.364   0.844 -1.2665 -2.1714  0.2071
 6030TIP3   OH218053   2.420   2.669   4.312  0.8497  0.8505 -0.7826
 6030TIP3    H118054   2.352   2.612   4.276  0.8999  0.6475 -0.5569
 6030TIP3    H218055   2.420   2.651   4.406  1.3808  0.6761 -0.8145
 6031TIP3   OH218056   7.215   5.737   1.418  0.1616  0.3588 -0.0813
 6031TIP3    H118057   7.247   5.825   1.398 -0.5332  0.6111 -0.1078
 6031TIP3    H218058   7.124   5.737   1.387 -0.5436  0.3465  1.8892
 6032TIP3   OH218059   6.193   2.560   3.262 -0.3260 -0.1080  0.0446
 6032TIP3    H118060   6.255   2.562   3.335  0.4084 -1.6365 -0.4914
 6032TIP3    H218061   6.111   2.593   3.299  0.6617  1.5136  0.8901
 6033TIP3   OH218062   0.545   3.115   3.193  0.1772 -0.5026  0.9206
 6033TIP3    H118063   0.562   3.209   3.195  1.7826 -0.7726  0.8995
 6033TIP3    H218064   0.514   3.095   3.282 -1.0964  0.1805  0.6538
 6034TIP3   OH218065   2.414   0.324   5.442 -0.0940 -0.0288 -0.8793
 6034TIP3    H118066   2.392   0.412   5.473  2.3102 -0.0135  1.0312
 6034TIP3    H218067   2.366   0.266   5.501 -1.2029 -0.0540 -1.7651
 6035TIP3   OH218068   5.135   2.677   1.275 -0.4152 -0.6435  0.2382
 6035TIP3    H118069   5.055   2.726   1.256  0.5462  0.8588 -0.1242
 6035TIP3    H218070   5.179   2.730   1.341  1.3895 -0.1657 -1.2770
 6036TIP3   OH218071   2.076   0.176   1.752  0.0152  0.1885 -0.7016
 6036TIP3    H118072   2.139   0.133   1.811 -2.3186 -1.5527  0.7063
 6036TIP3    H218073   2.097   0.143   1.665  1.8931  0.7585 -0.5015
 6037TIP3   OH218074   3.590   2.997   1.096  0.5651 -0.1251 -0.2334
 6037TIP3    H118075   3.583   3.077   1.147  0.2395 -0.1090 -0.3028
 6037TIP3    H218076   3.683   2.990   1.075  0.9703 -0.8600  1.5486
 6038TIP3   OH218077   3.333   1.787   4.182 -0.3278 -0.3267 -0.0437
 6038TIP3    H118078   3.404   1.849   4.172 -1.3545  1.0017  0.5837
 6038TIP3    H218079   3.359   1.711   4.129  1.8623 -0.1934  0.7475
 6039TIP3   OH218080   3.268   1.472   0.792  0.0539 -0.0335 -0.1350
 6039TIP3    H118081   3.285   1.390   0.746  0.8296 -0.4884  0.9193
 6039TIP3    H218082   3.343   1.482   0.851  0.8285  2.3010 -1.4064
 6040TIP3   OH218083   6.460   2.829   3.991 -0.4800 -0.0705 -0.8369
 6040TIP3    H118084   6.499   2.916   4.002 -0.0902 -0.0722 -2.0655
 6040TIP3    H218085   6.417   2.812   4.075  0.3081  0.8644 -0.2110
 6041TIP3   OH218086   1.947   5.669   1.659  0.5201 -0.6054 -0.4251
 6041TIP3    H118087   1.959   5.647   1.566  0.9202 -0.1820 -0.4789
 6041TIP3    H218088   1.860   5.636   1.680  1.2855 -2.7633 -0.3499
 6042TIP3   OH218089   1.511   4.758   2.656  0.3999 -0.0792 -0.1301
 6042TIP3    H118090   1.585   4.716   2.701  0.4454  0.6872  0.5328
 6042TIP3    H218091   1.466   4.806   2.725 -0.7141 -0.5109 -0.5368
 6043TIP3   OH218092   4.808   0.982   4.705 -0.1566  0.5163 -0.1018
 6043TIP3    H118093   4.745   0.942   4.646 -0.8144 -0.0000  0.9122
 6043TIP3    H218094   4.834   1.063   4.661 -0.9695  0.3745 -0.8795
 6044TIP3   OH218095   3.854   1.426   3.016  0.8338 -0.0109  0.1318
 6044TIP3    H118096   3.792   1.376   3.069  0.4068 -1.9103 -2.0283
 6044TIP3    H218097   3.940   1.396   3.046  0.6224 -0.3231  0.4391
 6045TIP3   OH218098   6.389   4.533   3.542 -0.1742  0.4193  0.0668
 6045TIP3    H118099   6.379   4.609   3.598  0.5587  1.6145 -1.3599
 6045TIP3    H218100   6.479   4.504   3.555 -0.1660  0.3729 -0.0824
 6046TIP3   OH218101   3.173   6.706   2.724  0.7145 -0.0025  0.1779
 6046TIP3    H118102   3.163   6.711   2.819 -0.3307 -1.9491  0.2095
 6046TIP3    H218103   3.179   6.798   2.695 -1.0278  0.7149  1.9021
 6047TIP3   OH218104   0.509   1.050   3.653  0.9588  0.3256  0.1860
 6047TIP3    H118105   0.508   0.954   3.660  0.6341  0.0780 -2.3008
 6047TIP3    H218106   0.417   1.075   3.646  1.0457  0.8148  0.7850
 6048TIP3   OH218107   1.091   3.072   4.664  0.3015 -0.0048 -0.6042
 6048TIP3    H118108   1.047   2.999   4.708 -0.0787  0.7460  0.2949
 6048TIP3    H218109   1.156   3.030   4.608  1.3986 -0.9948  1.3046
 6049TIP3   OH218110   3.453   6.598   3.075 -0.0850 -0.2495  0.4786
 6049TIP3    H118111   3.483   6.521   3.124 -0.9160  0.0771  1.5471
 6049TIP3    H218112   3.529   6.656   3.073 -0.1118 -0.1364  1.6842
 6050TIP3   OH218113   7.057   4.798   5.048  0.2443  0.0524 -0.4692
 6050TIP3    H118114   7.113   4.835   5.115 -0.2348 -0.0626  0.0006
 6050TIP3    H218115   7.003   4.734   5.094 -1.2196  1.1169 -0.6326
 6051TIP3   OH218116   1.610   3.327   0.552 -0.0927  0.0381  0.0812
 6051TIP3    H118117   1.534   3.269   0.561  1.0842 -1.5470  0.1747
 6051TIP3    H218118   1.675   3.274   0.505  1.9183  0.3952  2.2734
 6052TIP3   OH218119   6.799   4.924   3.618 -0.0989  0.1422 -0.1743
 6052TIP3    H118120   6.745   4.859   3.574  0.7557 -0.4084 -0.4242
 6052TIP3    H218121   6.887   4.910   3.583  0.3156  0.6635  0.6369
 6053TIP3   OH218122   2.472   2.819   0.454  0.8848  0.1631  0.3653
 6053TIP3    H118123   2.459   2.899   0.402  1.2652  0.0494  0.0891
 6053TIP3    H218124   2.482   2.750   0.389  1.0536 -0.0306  0.5968
 6054TIP3   OH218125   2.035   2.019   0.388  0.0898 -0.2881 -0.4626
 6054TIP3    H118126   2.018   2.088   0.324  0.6346  0.9045  0.6297
 6054TIP3    H218127   2.128   1.999   0.379 -0.1269 -1.1257 -0.9849
 6055TIP3   OH218128   0.979   4.774   0.269 -0.9694  0.0388  0.0785
 6055TIP3    H118129   0.995   4.859   0.228  0.7520  0.2390  1.0733
 6055TIP3    H218130   0.982   4.791   0.363 -1.6592 -0.9657  0.3029
 6056TIP3   OH218131   0.067   2.539   4.136  0.0973 -0.5390 -0.0739
 6056TIP3    H118132   0.119   2.611   4.171  0.0802 -0.0960 -0.9167
 6056TIP3    H218133  -0.018   2.578   4.115  0.1238 -0.7669 -0.6481
 6057TIP3   OH218134   4.607   6.370   1.319 -0.5116  0.1783 -0.7005
 6057TIP3    H118135   4.630   6.388   1.227  0.7633 -1.4740 -0.7692
 6057TIP3    H218136   4.689   6.339   1.358 -0.7901  1.7244  1.2798
 6058TIP3   OH218137   3.997   0.833   3.728  0.1723  0.0774 -0.6749
 6058TIP3    H118138   4.012   0.803   3.818  0.6194 -1.0356 -1.0989
 6058TIP3    H218139   3.989   0.752   3.677 -2.0217  0.6564 -1.3551
 6059TIP3   OH218140   5.266   6.001   4.592 -0.4262  0.3325 -0.7277
 6059TIP3    H118141   5.326   5.926   4.596 -0.2870  0.4722 -0.1635
 6059TIP3    H218142   5.230   5.997   4.503 -0.5447 -0.4962 -0.6530
 6060TIP3   OH218143   6.226   6.481   4.929  0.0609  0.0430  0.2554
 6060TIP3    H118144   6.291   6.539   4.969  0.6348 -0.3527 -0.0786
 6060TIP3    H218145   6.272   6.443   4.854 -0.4353 -0.5378  0.2427
 6061TIP3   OH218146   2.096   0.665   3.135  0.3621 -0.4184  0.2117
 6061TIP3    H118147   2.108   0.598   3.202  1.1702  1.7666  2.3960
 6061TIP3    H218148   2.003   0.662   3.114  0.1522 -1.3362  1.2062
 6062TIP3   OH218149   1.366   5.377   4.297  0.0400 -0.3689 -0.0892
 6062TIP3    H118150   1.273   5.399   4.290  0.2401  0.6652  0.3256
 6062TIP3    H218151   1.386   5.388   4.390  0.9121  0.8873 -0.4019
 6063TIP3   OH218152   1.228   3.562   5.549  0.2595 -0.2377 -0.1412
 6063TIP3    H118153   1.299   3.504   5.521  1.0295  0.6014  0.0255
 6063TIP3    H218154   1.217   3.623   5.476 -0.0322 -0.1250 -0.0036
 6064TIP3   OH218155   3.652   4.264   1.762  0.3062  0.3471 -0.1977
 6064TIP3    H118156   3.657   4.218   1.678  0.6928  1.5630 -0.8663
 6064TIP3    H218157   3.657   4.194   1.827  0.2075 -0.6114 -1.1749
 6065TIP3   OH218158   1.702   4.982   2.723 -0.1098  0.3494 -0.2963
 6065TIP3    H118159   1.712   4.912   2.659 -0.6342 -0.3262  0.3424
 6065TIP3    H218160   1.760   4.956   2.795  1.8509  1.9774 -1.1772
 6066TIP3   OH218161   0.477   4.567   0.864 -0.4774  0.5823  0.3951
 6066TIP3    H118162   0.537   4.623   0.913 -0.1899  2.0597 -1.5050
 6066TIP3    H218163   0.390   4.602   0.884 -0.4698  0.3417  0.8539
 6067TIP3   OH218164   3.682   2.379   1.969 -0.3801 -0.3017 -0.0877
 6067TIP3    H118165   3.684   2.295   1.922  1.4946 -0.0818 -0.4756
 6067TIP3    H218166   3.742   2.367   2.042 -0.0551  0.7150 -0.1721
 6068TIP3   OH218167   4.575   6.558   1.728 -0.2130  0.3550  0.1433
 6068TIP3    H118168   4.656   6.520   1.760 -0.4466 -0.0918  0.2085
 6068TIP3    H218169   4.535   6.489   1.674  1.0337  1.6308 -2.6224
 6069TIP3   OH218170   3.147   4.129   2.509 -0.2437 -0.0666 -0.0620
 6069TIP3    H118171   3.092   4.182   2.567 -1.2696 -0.2766 -0.8099
 6069TIP3    H218172   3.197   4.194   2.458  0.0731  0.1276  0.4901
 6070TIP3   OH218173   0.129   1.600   0.768  0.6643  0.2876 -0.4414
 6070TIP3    H118174   0.170   1.622   0.684  0.5566  0.7742 -0.3698
 6070TIP3    H218175   0.168   1.660   0.831 -1.1384  1.7607 -0.6153
 6071TIP3   OH218176   0.462   2.830   1.628 -0.1375  0.6887 -0.4572
 6071TIP3    H118177   0.551   2.861   1.646  1.1892 -2.1366 -1.5436
 6071TIP3    H218178   0.474   2.757   1.567 -3.1077 -0.6761  0.4270
 6072TIP3   OH218179   4.889   0.958   1.605 -0.1417  0.4670  0.1350
 6072TIP3    H118180   4.840   1.038   1.627 -2.9256 -1.3968  1.2208
 6072TIP3    H218181   4.850   0.928   1.523 -0.6098 -0.8671  0.8207
 6073TIP3   OH218182   1.810   3.667   1.306 -0.2071 -0.5237 -0.1569
 6073TIP3    H118183   1.816   3.703   1.217 -0.8438 -0.7477 -0.2954
 6073TIP3    H218184   1.757   3.730   1.354  2.2133  0.9504  0.7999
 6074TIP3   OH218185   6.076   2.982   4.182  0.1387 -0.3883 -0.0553
 6074TIP3    H118186   6.140   3.017   4.245  1.2687  0.6316 -1.6625
 6074TIP3    H218187   6.027   3.059   4.154 -1.1828 -1.0265  0.4525
 6075TIP3   OH218188   0.098   3.867   3.231 -0.5768 -0.2986  0.7258
 6075TIP3    H118189   0.044   3.791   3.255 -3.2730  1.4966  0.7175
 6075TIP3    H218190   0.046   3.914   3.166  1.6220  0.9014 -0.2508
 6076TIP3   OH218191   3.982   6.552   2.538  0.2142  1.2360  0.6239
 6076TIP3    H118192   3.908   6.540   2.479  0.1344  0.4594  0.8657
 6076TIP3    H218193   4.057   6.568   2.480  0.3867 -0.7641  0.2013
 6077TIP3   OH218194   1.844   4.047   0.858 -0.5301 -0.3882  0.4535
 6077TIP3    H118195   1.915   4.110   0.842 -0.3518 -0.5024  0.7928
 6077TIP3    H218196   1.884   3.979   0.912 -1.1615  0.0563  1.5074
 6078TIP3   OH218197   3.601   5.640   0.561  0.0725  0.1706 -0.6511
 6078TIP3    H118198   3.560   5.707   0.616  2.6735  0.4028  1.2136
 6078TIP3    H218199   3.567   5.557   0.596 -0.5921  0.4136 -0.7126
 6079TIP3   OH218200   0.889   6.404   4.568 -0.1994 -0.1210  0.0334
 6079TIP3    H118201   0.969   6.362   4.535 -0.4439  0.3798 -1.2159
 6079TIP3    H218202   0.849   6.444   4.491 -1.9332 -0.7961  0.5491
 6080TIP3   OH218203   4.401   2.326   1.152  0.3833  0.1163 -0.1421
 6080TIP3    H118204   4.350   2.344   1.073 -0.6769  0.5733  0.6158
 6080TIP3    H218205   4.470   2.393   1.152 -1.1029  1.7297  0.5602
 6081TIP3   OH218206   0.093   2.869   0.643  0.2780  0.2700  0.1054
 6081TIP3    H118207   0.083   2.783   0.602 -0.5671  0.6654 -0.5647
 6081TIP3    H218208   0.015   2.917   0.616  1.4031  1.7324 -0.7414
 6082TIP3   OH218209   1.998   2.332   5.450  0.0192 -0.0217  0.1851
 6082TIP3    H118210   2.063   2.326   5.379 -0.4356 -1.8706 -0.1372
 6082TIP3    H218211   1.916   2.302   5.410 -0.7934  1.1274  0.9108
 6083TIP3   OH218212   1.487   2.243   0.300  0.0633  0.3447  0.0597
 6083TIP3    H118213   1.553   2.224   0.366 -0.3637 -0.6687  0.2034
 6083TIP3    H218214   1.533   2.299   0.237  0.1445  2.3861  1.8061
 6084TIP3   OH218215   5.961   3.694   1.056  0.2698  0.8611 -0.2438
 6084TIP3    H118216   5.880   3.737   1.083 -0.1184 -1.0077  1.8950
 6084TIP3    H218217   5.938   3.649   0.975 -0.5860  1.0800 -0.1392
 6085TIP3   OH218218   1.869   4.317   1.777  0.0770  0.2248  0.1333
 6085TIP3    H118219   1.901   4.350   1.693  0.2760 -1.7125 -0.6115
 6085TIP3    H218220   1.808   4.247   1.753  0.6185 -0.7794  1.5862
 6086TIP3   OH218221   6.201   0.846   4.947 -0.2434 -0.3686 -0.1060
 6086TIP3    H118222   6.245   0.919   4.990  0.3760  0.3854 -1.9313
 6086TIP3    H218223   6.243   0.768   4.984 -0.0942  0.2237  1.0035
 6087TIP3   OH218224   6.848   5.845   0.711 -0.2428 -0.4338  0.1239
 6087TIP3    H118225   6.858   5.930   0.670 -1.4224 -0.2048  0.2605
 6087TIP3    H218226   6.841   5.864   0.805 -1.1548 -0.6028  0.1001
 6088TIP3   OH218227   1.794   0.930   1.552 -0.1789  0.3415  0.2101
 6088TIP3    H118228   1.880   0.971   1.567  0.5816 -1.1153 -0.0026
 6088TIP3    H218229   1.750   0.937   1.637 -0.0972  1.6122  0.1728
 6089TIP3   OH218230   5.981   2.666   3.420 -0.0305 -0.5564 -0.4342
 6089TIP3    H118231   5.931   2.706   3.492  0.0185 -2.4458  0.7292
 6089TIP3    H218232   5.919   2.664   3.347 -0.3440  0.6869 -0.2345
 6090TIP3   OH218233   5.651   5.965   0.013 -0.3600  0.4882 -0.2349
 6090TIP3    H118234   5.611   5.886   0.049  0.6156 -0.1536 -0.5292
 6090TIP3    H218235   5.732   5.976   0.062 -0.9507  1.8754  0.4725
 6091TIP3   OH218236   6.567   1.834   3.243  0.2343 -0.0738  0.2350
 6091TIP3    H118237   6.574   1.767   3.176  0.7678  1.0360 -0.8744
 6091TIP3    H218238   6.492   1.888   3.216  0.4665  0.3906  0.4982
 6092TIP3   OH218239   3.171   4.210   5.455 -0.1815  0.1986  0.7171
 6092TIP3    H118240   3.175   4.150   5.529  0.1910 -0.2486  0.3345
 6092TIP3    H218241   3.220   4.287   5.484 -1.7859  0.9166  1.7233
 6093TIP3   OH218242   3.522   2.162   4.714  0.1721  0.0803 -0.0551
 6093TIP3    H118243   3.460   2.235   4.719 -0.0887 -0.0300 -1.4275
 6093TIP3    H218244   3.585   2.180   4.784 -0.5186  1.0256  0.3436
 6094TIP3   OH218245   0.426   4.218   1.350 -0.2992  0.1396 -0.2949
 6094TIP3    H118246   0.473   4.282   1.296  1.9058  0.6399  2.0277
 6094TIP3    H218247   0.337   4.217   1.314  0.6586  1.4037 -3.0061
 6095TIP3   OH218248   0.330   2.840   5.443  0.5868  0.1838 -0.4524
 6095TIP3    H118249   0.365   2.876   5.524 -1.5882 -0.0781  0.6625
 6095TIP3    H218250   0.302   2.917   5.393 -0.4400  0.2700  0.2156
 6096TIP3   OH218251   3.087   3.303   3.940  0.2170 -0.4822 -0.2542
 6096TIP3    H118252   3.008   3.352   3.963 -0.1079 -0.1498 -1.9412
 6096TIP3    H218253   3.062   3.250   3.865  1.3456 -1.1194 -0.2026
 6097TIP3   OH218254   1.990   2.259   0.248 -0.3536  0.1563  0.0081
 6097TIP3    H118255   1.983   2.248   0.154  1.5959  0.3742 -0.2041
 6097TIP3    H218256   1.932   2.332   0.269  1.5933  2.2736 -1.5341
 6098TIP3   OH218257   4.874   5.104   4.730  0.3005  0.6394  0.1385
 6098TIP3    H118258   4.837   5.155   4.657  0.0400 -0.4537 -0.5161
 6098TIP3    H218259   4.944   5.053   4.690  0.1268 -0.0100  0.6479
 6099TIP3   OH218260   1.658   3.503   4.414  0.0214  0.7011  0.0065
 6099TIP3    H118261   1.663   3.407   4.414 -0.1961  0.6823  1.1325
 6099TIP3    H218262   1.702   3.529   4.333  2.3501 -0.2392  0.8803
 6100TIP3   OH218263   2.432   3.828   1.692 -0.3746  0.1084 -0.0607
 6100TIP3    H118264   2.518   3.862   1.668 -0.2421 -0.7694 -0.8877
 6100TIP3    H218265   2.373   3.903   1.684 -0.0720  0.2047 -1.7332
 6101TIP3   OH218266   1.336   2.174   1.921 -0.1072 -0.4373  0.0826
 6101TIP3    H118267   1.250   2.139   1.944  0.2577 -1.5742 -0.2433
 6101TIP3    H218268   1.369   2.211   2.003  0.9135 -3.8891  1.4273
 6102TIP3   OH218269   5.456   1.225   3.108 -0.2467 -0.7048 -0.1018
 6102TIP3    H118270   5.413   1.266   3.183 -0.5046  0.7855 -1.0133
 6102TIP3    H218271   5.397   1.241   3.035  0.5664 -1.0535 -0.8534
 6103TIP3   OH218272   6.485   4.946   3.903  0.1673 -0.4476  0.6118
 6103TIP3    H118273   6.451   5.033   3.921  1.1460 -0.0761  0.7224
 6103TIP3    H218274   6.408   4.889   3.907 -0.6449  0.5262 -0.3795
 6104TIP3   OH218275   4.972   0.862   0.485 -0.1525  0.2295  0.3835
 6104TIP3    H118276   4.914   0.817   0.424 -0.5291  0.8929  0.2341
 6104TIP3    H218277   4.991   0.798   0.553 -1.7118  0.2277  0.8563
 6105TIP3   OH218278   5.568   5.885   5.831  0.4049  0.4718 -0.0184
 6105TIP3    H118279   5.625   5.950   5.874  3.2591 -1.0528 -1.2500
 6105TIP3    H218280   5.552   5.921   5.744  0.3196  0.4434 -0.0143
 6106TIP3   OH218281   2.253   5.189   0.338 -0.0213 -0.6675  0.3232
 6106TIP3    H118282   2.244   5.145   0.254  2.0751 -0.7428  0.0837
 6106TIP3    H218283   2.220   5.125   0.402 -1.0023 -0.8660 -0.3501
 6107TIP3   OH218284   0.937   0.863   1.347  0.1034 -0.3287 -0.3218
 6107TIP3    H118285   0.994   0.833   1.277  0.7046  0.1859 -0.0623
 6107TIP3    H218286   0.990   0.857   1.426 -0.0680  0.5057 -0.1348
 6108TIP3   OH218287   0.830   6.088   3.936 -0.1842 -0.1721  0.1289
 6108TIP3    H118288   0.916   6.054   3.912 -0.2534 -0.1449 -0.1613
 6108TIP3    H218289   0.844   6.132   4.020 -0.0839 -0.8666  0.4771
 6109TIP3   OH218290   0.541   1.422   1.490  0.2149  0.2477  0.2433
 6109TIP3    H118291   0.582   1.336   1.491  0.3613  0.3153  0.2825
 6109TIP3    H218292   0.451   1.407   1.517  0.9162  0.4292  3.1253
 6110TIP3   OH218293   7.239   1.005   4.763 -0.3622 -0.0926  0.4442
 6110TIP3    H118294   7.158   1.052   4.741  0.4089  0.8922 -0.3656
 6110TIP3    H218295   7.215   0.913   4.756 -0.4727  0.0600 -3.8747
 6111TIP3   OH218296   1.658   1.015   4.537  0.5238  0.4521 -0.1129
 6111TIP3    H118297   1.606   0.985   4.462 -0.0466  1.0114  0.0483
 6111TIP3    H218298   1.748   1.016   4.504  0.3442  0.1655 -0.6241
 6112TIP3   OH218299   0.922   1.434   5.313  0.1664  0.3091 -0.4203
 6112TIP3    H118300   0.901   1.359   5.370 -0.2774  0.8542  0.1482
 6112TIP3    H218301   0.943   1.505   5.374 -1.9600  1.3989 -0.8517
 6113TIP3   OH218302   5.348   4.485   0.609  0.4127  0.1645 -0.2657
 6113TIP3    H118303   5.407   4.415   0.639  1.2675  1.4170  1.1313
 6113TIP3    H218304   5.261   4.455   0.635  0.8963  0.1495  1.4750
 6114TIP3   OH218305   2.535   5.542   2.768 -0.7097 -0.0640 -0.0695
 6114TIP3    H118306   2.593   5.520   2.695  0.6367 -0.9967  1.2196
 6114TIP3    H218307   2.453   5.569   2.726  0.0555 -0.4341 -1.9164
 6115TIP3   OH218308   0.282   6.551   4.557  0.3813  0.2166  0.1322
 6115TIP3    H118309   0.230   6.542   4.637 -1.4595  1.9168 -0.7901
 6115TIP3    H218310   0.217   6.560   4.487  1.9361  0.6514 -1.3121
 6116TIP3   OH218311   2.095   4.317   4.638 -0.3724 -0.4859 -0.4017
 6116TIP3    H118312   2.085   4.245   4.701  1.6776 -0.5283 -0.0370
 6116TIP3    H218313   2.189   4.320   4.621 -0.6765  0.7457 -2.0601
 6117TIP3   OH218314   6.348   3.649   1.439  0.3810 -0.0212 -0.1742
 6117TIP3    H118315   6.330   3.702   1.362  0.2518  1.0281  0.5615
 6117TIP3    H218316   6.345   3.559   1.407 -2.0136  0.2673 -0.9434
 6118TIP3   OH218317   4.842   4.679   5.859  0.3311 -0.8419  0.8349
 6118TIP3    H118318   4.918   4.622   5.854 -0.2242 -1.6467  1.3107
 6118TIP3    H218319   4.779   4.631   5.913 -0.2029  0.1668  1.1358
 6119TIP3   OH218320   6.353   6.337   0.533  0.2456  0.0105 -0.7627
 6119TIP3    H118321   6.284   6.398   0.508  0.3878  0.3319 -0.3889
 6119TIP3    H218322   6.337   6.319   0.626 -0.1176 -0.9511 -0.9927
 6120TIP3   OH218323   0.217   1.050   3.616 -0.2259 -0.0583  1.1066
 6120TIP3    H118324   0.178   1.107   3.682 -1.4589  0.6550 -0.1759
 6120TIP3    H218325   0.143   1.013   3.570  0.6029 -0.9940  0.4911
 6121TIP3   OH218326   6.011   1.930   5.308 -0.1674 -0.3333 -0.4437
 6121TIP3    H118327   6.050   1.882   5.234  0.1616  1.0687 -1.2184
 6121TIP3    H218328   6.081   1.987   5.339 -0.1620 -1.2298  1.2849
 6122TIP3   OH218329   6.154   6.638   4.357 -0.0017  0.0602  0.3177
 6122TIP3    H118330   6.127   6.653   4.267  0.1312 -0.1866  0.2361
 6122TIP3    H218331   6.126   6.716   4.404 -0.5401 -0.0396  0.1646
 6123TIP3   OH218332   1.431   2.547   4.156 -0.2448 -0.5763 -0.2933
 6123TIP3    H118333   1.518   2.576   4.126 -0.3420 -0.1410 -0.1608
 6123TIP3    H218334   1.450   2.491   4.231 -0.1086  0.0788  0.1689
 6124TIP3   OH218335   6.327   5.179   3.947  0.7210  0.1812 -0.5797
 6124TIP3    H118336   6.349   5.203   4.037  3.1864  0.7667 -1.2788
 6124TIP3    H218337   6.237   5.146   3.953  0.0402  2.1091  1.7552
 6125TIP3   OH218338   2.466   4.920   4.982 -0.4571 -0.0883  0.1207
 6125TIP3    H118339   2.524   4.995   4.964  0.2720 -0.5343  0.5941
 6125TIP3    H218340   2.402   4.923   4.911 -1.3559  1.8692  0.9301
 6126TIP3   OH218341   4.541   2.636   1.351 -0.5906  0.2877  0.7831
 6126TIP3    H118342   4.556   2.600   1.263 -0.8409  1.9822  0.0044
 6126TIP3    H218343   4.447   2.654   1.353 -0.4913  0.7580  1.1969
 6127TIP3   OH218344   4.692   1.984   4.064  0.4368 -0.2684  0.0278
 6127TIP3    H118345   4.596   1.990   4.064  0.3849 -0.7861 -1.2106
 6127TIP3    H218346   4.719   2.027   4.145 -0.9062 -1.2800  1.0469
 6128TIP3   OH218347   1.149   1.390   5.123 -0.3686  0.0713  0.1932
 6128TIP3    H118348   1.081   1.402   5.057 -0.7004 -1.7927  0.1398
 6128TIP3    H218349   1.105   1.407   5.206 -1.0226 -1.3756  0.1804
 6129TIP3   OH218350   6.675   5.193   3.704 -0.2038 -0.3040  0.1389
 6129TIP3    H118351   6.708   5.105   3.685  0.7061  0.2160 -0.8048
 6129TIP3    H218352   6.732   5.251   3.654 -1.4124  0.7711 -0.0393
 6130TIP3   OH218353   2.773   6.834   0.718 -0.3632 -0.1903 -0.3758
 6130TIP3    H118354   2.725   6.759   0.683 -1.0139  0.7078 -1.4852
 6130TIP3    H218355   2.859   6.800   0.741 -1.4409 -1.8280  1.5446
 6131TIP3   OH218356   5.183   4.016   2.085  0.8235 -0.3391  0.1587
 6131TIP3    H118357   5.212   3.949   2.023 -0.2971 -1.1120  0.4305
 6131TIP3    H218358   5.089   4.023   2.070  0.8402  0.8484  0.4741
 6132TIP3   OH218359   3.511   1.588   4.076  0.4129 -0.7367 -0.8991
 6132TIP3    H118360   3.526   1.506   4.123 -0.0378  0.8940  2.3887
 6132TIP3    H218361   3.589   1.640   4.094 -0.1508  0.2553 -1.2677
 6133TIP3   OH218362   6.544   4.872   4.377  0.6075 -0.3169 -0.0848
 6133TIP3    H118363   6.482   4.879   4.450  1.0156 -0.5319  0.2853
 6133TIP3    H218364   6.489   4.853   4.301  0.2813 -1.3785  0.3924
 6134TIP3   OH218365   5.550   4.664   0.556  0.6095 -0.2253 -0.2965
 6134TIP3    H118366   5.470   4.612   0.568 -0.0480  0.6432 -0.8207
 6134TIP3    H218367   5.550   4.724   0.631  0.3741  0.2711 -0.6902
 6135TIP3   OH218368   6.729   2.104   2.345  1.0686  0.0888 -0.4806
 6135TIP3    H118369   6.722   2.078   2.436  0.1522 -0.9773 -0.8315
 6135TIP3    H218370   6.755   2.024   2.299 -0.5700  0.0527 -1.4198
 6136TIP3   OH218371   5.945   2.795   1.524  0.6279 -0.2984 -0.4546
 6136TIP3    H118372   5.907   2.780   1.437 -0.3022 -1.8317  0.1802
 6136TIP3    H218373   6.004   2.721   1.538  0.5853 -0.1959  0.3113
 6137TIP3   OH218374   0.953   0.887   3.356 -0.5875  0.3266 -0.3912
 6137TIP3    H118375   0.860   0.884   3.333 -0.4041 -1.5995 -1.0824
 6137TIP3    H218376   0.968   0.806   3.404  0.7858  0.5294 -0.4425
 6138TIP3   OH218377   7.168   4.376   4.356 -0.0630  0.4876 -0.2787
 6138TIP3    H118378   7.120   4.341   4.431  0.9068  1.0079  0.6064
 6138TIP3    H218379   7.100   4.419   4.303 -0.6531  0.8371  0.7180
 6139TIP3   OH218380   4.030   0.685   3.962 -0.1540 -0.1960  0.2100
 6139TIP3    H118381   4.089   0.644   4.025  0.8468 -0.6801 -0.9946
 6139TIP3    H218382   3.970   0.737   4.015  0.5083 -0.7658  1.5636
 6140TIP3   OH218383   5.654   4.186   4.270 -0.1130  0.0748  0.1462
 6140TIP3    H118384   5.602   4.255   4.230 -0.6427 -0.2934  0.1896
 6140TIP3    H218385   5.739   4.191   4.226 -0.3231  0.4046 -0.2262
 6141TIP3   OH218386   4.788   3.856   0.716 -0.1870 -0.0217  0.0357
 6141TIP3    H118387   4.711   3.839   0.663 -0.5037  0.2348  0.4045
 6141TIP3    H218388   4.801   3.951   0.709  0.8783 -0.2307 -1.0817
 6142TIP3   OH218389   3.651   2.959   0.648 -0.3925 -0.5250  0.0196
 6142TIP3    H118390   3.721   2.942   0.586 -2.2758 -0.5525 -2.2117
 6142TIP3    H218391   3.652   2.882   0.706  1.7682 -0.2203  0.4627
 6143TIP3   OH218392   5.346   1.589   3.141  0.0882 -0.1882 -0.1440
 6143TIP3    H118393   5.281   1.569   3.074 -0.6341  2.3605 -0.3372
 6143TIP3    H218394   5.428   1.555   3.106 -0.4984 -0.0688 -1.7347
 6144TIP3   OH218395   1.161   0.363   3.417 -0.1080 -0.6486 -0.1428
 6144TIP3    H118396   1.185   0.270   3.416  0.8362 -0.4207 -1.5269
 6144TIP3    H218397   1.077   0.366   3.371 -0.3688 -0.8660  0.3155
 6145TIP3   OH218398   3.427   0.700   5.259  0.2087  0.6585 -0.0979
 6145TIP3    H118399   3.393   0.757   5.328 -0.2186 -0.3512  0.5366
 6145TIP3    H218400   3.478   0.633   5.305  0.1376  0.1242 -0.7839
 6146TIP3   OH218401   6.980   0.608   5.081 -0.0325 -0.0023 -0.5592
 6146TIP3    H118402   7.074   0.587   5.079  0.8940  3.5695 -1.0574
 6146TIP3    H218403   6.955   0.612   4.988  0.2798  2.3985 -0.5942
 6147TIP3   OH218404   0.008   1.882   0.960  0.0790 -0.2623  0.2097
 6147TIP3    H118405  -0.018   1.795   0.990 -0.6279 -0.4461 -0.9022
 6147TIP3    H218406   0.027   1.930   1.041  0.1511 -1.3327  0.8538
 6148TIP3   OH218407   6.097   5.559   0.110  0.3614 -0.4119  0.2921
 6148TIP3    H118408   6.139   5.511   0.038  1.9549  1.4824 -0.1348
 6148TIP3    H218409   6.157   5.631   0.129 -0.6153 -0.1544  2.7458
 6149TIP3   OH218410   5.637   0.137   2.927  0.3167  0.1602  0.0321
 6149TIP3    H118411   5.595   0.063   2.971 -0.7318  0.9278  0.3354
 6149TIP3    H218412   5.641   0.206   2.993 -1.0742  1.2544 -0.9713
 6150TIP3   OH218413   6.977   4.919   4.258  0.8061  0.1102  0.1582
 6150TIP3    H118414   6.972   4.828   4.229  2.0617  0.5908 -1.7159
 6150TIP3    H218415   7.061   4.924   4.305  0.4630  0.1885  0.7758
 6151TIP3   OH218416   3.720   6.036   0.631 -0.2119  0.8894  0.0253
 6151TIP3    H118417   3.753   6.125   0.644 -2.3870  1.5505  1.6977
 6151TIP3    H218418   3.674   6.015   0.712  0.5465 -1.9443 -0.1763
 6152TIP3   OH218419   4.110   1.455   5.189  0.3625 -0.0123  0.1071
 6152TIP3    H118420   4.170   1.412   5.129  1.4226  0.4561  0.8078
 6152TIP3    H218421   4.034   1.397   5.192  0.6341 -0.4458 -1.0461
 6153TIP3   OH218422   0.058   0.844   2.206  0.1750  0.2454 -0.0975
 6153TIP3    H118423   0.036   0.792   2.128  0.8771  1.3728 -1.0664
 6153TIP3    H218424  -0.004   0.916   2.205  0.6856  0.6863 -0.0391
 6154TIP3   OH218425   4.389   6.489   4.057 -0.0364  0.0576  0.5818
 6154TIP3    H118426   4.314   6.484   4.117 -1.1614  2.7812 -0.4446
 6154TIP3    H218427   4.425   6.577   4.071  2.2331 -0.7117  0.1051
 6155TIP3   OH218428   0.829   2.114   2.323 -0.0347  0.3447  0.0772
 6155TIP3    H118429   0.908   2.124   2.376 -0.4684 -1.4259  1.1228
 6155TIP3    H218430   0.821   2.198   2.276  1.4433  1.2252  1.3096
 6156TIP3   OH218431   5.046   2.815   0.802  0.2520 -0.1279 -0.3807
 6156TIP3    H118432   4.977   2.873   0.769  1.2442  1.2249 -0.1542
 6156TIP3    H218433   5.027   2.731   0.761 -2.9330 -0.4870  1.4972
 6157TIP3   OH218434   0.699   3.754   5.158  0.1308 -0.3704 -0.3116
 6157TIP3    H118435   0.786   3.774   5.123  0.7419 -0.0250  1.3258
 6157TIP3    H218436   0.676   3.831   5.211 -2.5407  0.9553 -3.0547
 6158TIP3   OH218437   7.046   1.600   1.681  0.0427 -0.2888  0.2538
 6158TIP3    H118438   7.060   1.568   1.592  1.6211 -2.0588  1.0456
 6158TIP3    H218439   7.016   1.690   1.670  0.5058 -0.3498 -2.0508
 6159TIP3   OH218440   0.369   1.480   2.400  1.0838 -0.2934  0.0498
 6159TIP3    H118441   0.436   1.469   2.332 -0.1185  1.1056 -1.4485
 6159TIP3    H218442   0.292   1.511   2.352 -0.4658 -1.2668  1.7995
 6160TIP3   OH218443   2.876   0.785   2.184  0.0129  0.1492 -0.2464
 6160TIP3    H118444   2.829   0.703   2.169 -0.9234  0.9874 -2.3006
 6160TIP3    H218445   2.957   0.775   2.134 -0.3341  0.6394 -0.9251
 6161TIP3   OH218446   1.165   2.491   1.511  0.1328  0.1535 -0.5565
 6161TIP3    H118447   1.211   2.418   1.469 -0.5644 -0.1654 -0.7748
 6161TIP3    H218448   1.073   2.466   1.510 -0.0177  0.6243  0.2060
 6162TIP3   OH218449   4.393   6.322   5.858 -0.1657  0.0427 -0.3155
 6162TIP3    H118450   4.453   6.339   5.785  0.6733 -2.4256 -0.3068
 6162TIP3    H218451   4.447   6.275   5.922 -1.9687 -1.8748 -0.1051
 6163TIP3   OH218452   0.171   1.703   1.769  0.2723 -0.2639 -0.7566
 6163TIP3    H118453   0.096   1.646   1.755  0.7265 -1.2003  0.4070
 6163TIP3    H218454   0.247   1.644   1.764  0.7562  0.2358  0.4176
 6164TIP3   OH218455   6.043   0.704   4.544  0.6549  0.0040 -0.0698
 6164TIP3    H118456   6.123   0.721   4.593  0.9498 -2.1932  0.3457
 6164TIP3    H218457   5.973   0.716   4.608  0.9109 -1.1091  0.4410
 6165TIP3   OH218458   6.196   2.075   3.858  0.4283  0.3023 -0.0934
 6165TIP3    H118459   6.279   2.098   3.815  1.0337 -0.7985  0.4672
 6165TIP3    H218460   6.218   2.003   3.917 -1.0087 -0.2827 -0.2336
 6166TIP3   OH218461   2.685   2.728   4.007 -0.1470  0.4330  0.1758
 6166TIP3    H118462   2.719   2.812   4.038  0.1292  1.4617 -2.6250
 6166TIP3    H218463   2.747   2.664   4.040  1.0977  1.6245  0.2674
 6167TIP3   OH218464   3.085   6.512   0.122 -0.0755  0.1832  0.3185
 6167TIP3    H118465   3.041   6.586   0.081  0.2347  0.6611  0.8343
 6167TIP3    H218466   3.025   6.438   0.109 -0.0372  0.3356 -0.8836
 6168TIP3   OH218467   5.320   6.475   3.744  0.0910  0.2378 -0.6783
 6168TIP3    H118468   5.269   6.396   3.764  0.2895  0.4400  0.7210
 6168TIP3    H218469   5.255   6.546   3.744  0.1862  0.3324 -0.0329
 6169TIP3   OH218470   1.494   0.489   1.535 -0.3202  0.0341 -0.1260
 6169TIP3    H118471   1.461   0.546   1.605  1.5863  1.8657 -0.6306
 6169TIP3    H218472   1.538   0.417   1.581 -0.0391  0.6305  0.5468
 6170TIP3   OH218473   2.228   1.159   0.104 -0.3906  0.1945  0.3942
 6170TIP3    H118474   2.200   1.071   0.081  1.0475 -0.7423  1.9512
 6170TIP3    H218475   2.200   1.170   0.195  2.4881 -0.1230  1.4328
 6171TIP3   OH218476   7.026   0.612   4.301 -0.3367  0.1554  0.0600
 6171TIP3    H118477   7.083   0.571   4.367 -0.1093  1.0787  0.4525
 6171TIP3    H218478   7.082   0.624   4.225 -0.7209 -1.3327 -0.4822
 6172TIP3   OH218479   0.021   2.130   5.705  0.2244  0.5306  0.7280
 6172TIP3    H118480   0.009   2.219   5.673  0.1084  0.4783  0.6234
 6172TIP3    H218481   0.111   2.128   5.739  0.4112  0.5339  0.2369
 6173TIP3   OH218482   4.473   4.782   1.317 -0.7792 -0.0597  0.0900
 6173TIP3    H118483   4.541   4.778   1.383 -0.3013 -0.7753 -0.4333
 6173TIP3    H218484   4.454   4.876   1.308  0.6540  0.2109 -0.2718
 6174TIP3   OH218485   7.025   1.311   2.800 -0.5200  0.1195  0.1055
 6174TIP3    H118486   7.079   1.389   2.808 -2.2135  1.3828 -0.2176
 6174TIP3    H218487   6.980   1.303   2.884 -0.7592 -0.2029 -0.0481
 6175TIP3   OH218488   5.801   0.150   3.833  0.3762 -0.5974 -0.1494
 6175TIP3    H118489   5.788   0.147   3.738 -2.6399  0.7583  0.1212
 6175TIP3    H218490   5.842   0.235   3.849  1.5230 -1.1072 -0.2282
 6176TIP3   OH218491   2.414   4.909   1.067 -0.4253  0.1382 -0.2395
 6176TIP3    H118492   2.392   4.991   1.023  2.2805  0.6827 -0.7456
 6176TIP3    H218493   2.421   4.933   1.160 -0.3542  0.3223 -0.2926
 6177TIP3   OH218494   2.561   3.383   4.979 -0.0136 -0.0034 -0.0486
 6177TIP3    H118495   2.573   3.293   4.949  0.9807 -0.0317  0.3849
 6177TIP3    H218496   2.643   3.427   4.957 -1.0624  1.2325 -1.6842
 6178TIP3   OH218497   6.663   5.714   2.474 -0.0625  0.3142 -0.0566
 6178TIP3    H118498   6.638   5.797   2.517  1.6451  1.4736 -1.1934
 6178TIP3    H218499   6.704   5.741   2.392  1.0734 -1.6510 -0.1887
 6179TIP3   OH218500   0.538   4.609   1.198  0.4505 -0.1649  0.0810
 6179TIP3    H118501   0.564   4.663   1.124 -0.7475  0.7261  0.2787
 6179TIP3    H218502   0.579   4.650   1.274  1.0518 -0.6276  0.0096
 6180TIP3   OH218503   6.046   2.438   2.288 -0.4707  0.3161 -0.2770
 6180TIP3    H118504   6.086   2.471   2.207 -1.7412  1.9836 -0.2975
 6180TIP3    H218505   6.028   2.346   2.271  1.6903 -0.0594 -0.8792
 6181TIP3   OH218506   7.176   1.528   2.366 -0.5376  0.1277 -0.3150
 6181TIP3    H118507   7.120   1.589   2.318 -0.2611  0.8913  0.3018
 6181TIP3    H218508   7.169   1.556   2.457 -0.4142 -0.7840 -0.0174
 6182TIP3   OH218509   6.472   2.909   3.395  0.3179 -0.5837  0.3726
 6182TIP3    H118510   6.543   2.950   3.345 -1.0501 -0.2962 -1.4609
 6182TIP3    H218511   6.474   2.817   3.368 -1.0887 -0.2251 -1.1514
 6183TIP3   OH218512   6.599   5.610   4.003  0.5446 -0.2099  0.0596
 6183TIP3    H118513   6.556   5.578   3.924  1.7890 -0.7876 -0.4049
 6183TIP3    H218514   6.689   5.577   3.997  0.9265  0.5439  1.2445
 6184TIP3   OH218515   4.273   3.367   4.018  0.2228 -0.7157  0.5968
 6184TIP3    H118516   4.266   3.338   4.109  2.7709 -1.7465  0.5542
 6184TIP3    H218517   4.317   3.452   4.024 -1.9366  0.4795  0.4011
 6185TIP3   OH218518   0.933   5.728   4.807  0.1076  0.0180  0.2605
 6185TIP3    H118519   0.888   5.655   4.764  0.9776 -1.1955  1.3114
 6185TIP3    H218520   0.894   5.733   4.894  0.1040  0.7685  0.2192
 6186TIP3   OH218521   1.090   0.005   4.947 -0.2326  0.4881 -0.5382
 6186TIP3    H118522   1.143  -0.044   5.009 -1.1560 -0.0631 -0.1550
 6186TIP3    H218523   1.020   0.043   5.000 -0.6256  0.6075 -1.1267
 6187TIP3   OH218524   5.047   4.354   3.608  0.0716 -0.0053 -0.6109
 6187TIP3    H118525   5.140   4.339   3.624  0.1428 -0.2600 -1.2122
 6187TIP3    H218526   5.002   4.311   3.680  0.3791 -0.9271 -0.9481
 6188TIP3   OH218527   6.862   6.223   0.339 -0.4606 -0.2046  0.1940
 6188TIP3    H118528   6.835   6.292   0.399  0.6275 -0.4608  0.9976
 6188TIP3    H218529   6.869   6.266   0.254  1.4722  0.9928  0.9235
 6189TIP3   OH218530   3.100   4.813   0.781 -0.1934 -0.4321  0.1409
 6189TIP3    H118531   3.031   4.800   0.847  2.1066 -1.6944  2.4421
 6189TIP3    H218532   3.133   4.901   0.798 -1.3413  0.3195 -1.2018
 6190TIP3   OH218533   0.098   5.353   5.703  0.3062 -0.0580 -0.3141
 6190TIP3    H118534   0.073   5.278   5.757 -1.6018  0.8983  0.1917
 6190TIP3    H218535   0.169   5.394   5.752 -0.6796  0.1844  0.9686
 6191TIP3   OH218536   0.981   1.243   0.297 -0.2795  0.6008 -0.1323
 6191TIP3    H118537   1.006   1.183   0.227  0.6338  1.4537 -0.5622
 6191TIP3    H218538   0.998   1.195   0.378  0.7427  0.3830 -0.4680
 6192TIP3   OH218539   1.946   2.597   2.412 -0.0515  0.1582  0.5282
 6192TIP3    H118540   1.923   2.504   2.410  1.3168 -0.2754  2.1875
 6192TIP3    H218541   1.881   2.636   2.471  0.9826 -0.3178  2.0532
 6193TIP3   OH218542   0.655   4.496   2.598 -0.0345 -0.4631 -0.2261
 6193TIP3    H118543   0.698   4.414   2.622  0.9548  0.2198  0.4235
 6193TIP3    H218544   0.675   4.556   2.670 -1.9301 -0.0422 -0.0007
 6194TIP3   OH218545   1.817   0.313   2.792 -0.0484 -0.2929  0.2075
 6194TIP3    H118546   1.862   0.396   2.805 -1.4668  0.7061 -0.8667
 6194TIP3    H218547   1.790   0.315   2.700 -3.0730 -0.3527  0.9840
 6195TIP3   OH218548   0.180   6.240   4.362 -0.1440 -0.6472 -0.1815
 6195TIP3    H118549   0.110   6.302   4.381 -0.7682 -1.3163 -0.2303
 6195TIP3    H218550   0.174   6.176   4.433  1.5241  0.2024  0.7708
 6196TIP3   OH218551   1.953   6.755   1.598 -0.4709 -0.2320  0.4267
 6196TIP3    H118552   2.021   6.815   1.570  0.2339 -1.2154 -0.0225
 6196TIP3    H218553   1.882   6.768   1.534  0.0842 -0.6018 -0.2696
 6197TIP3   OH218554   6.234   5.650   3.237 -0.3884  0.1930  0.1061
 6197TIP3    H118555   6.202   5.684   3.153  0.7282  1.9433  0.3497
 6197TIP3    H218556   6.211   5.718   3.300  0.4291 -0.2751  0.9141
 6198TIP3   OH218557   2.725   6.391   5.294  0.4244  0.0121 -0.1609
 6198TIP3    H118558   2.817   6.396   5.320  0.2819 -2.6981  1.2139
 6198TIP3    H218559   2.678   6.440   5.363  0.7093 -0.1237  0.1334
 6199TIP3   OH218560   3.595   4.683   3.490  0.4434 -0.2816 -0.2196
 6199TIP3    H118561   3.582   4.743   3.416  0.8057  1.3720  1.0083
 6199TIP3    H218562   3.675   4.713   3.532  1.0508 -2.1107  0.0389
 6200TIP3   OH218563   2.141   3.994   5.543  0.8429 -0.3461 -0.6183
 6200TIP3    H118564   2.180   3.919   5.497  0.6709 -0.6563 -0.2699
 6200TIP3    H218565   2.068   4.021   5.488  0.9950 -0.3433 -0.8191
 6201TIP3   OH218566   3.198   2.171   0.411 -0.6366  0.5709  0.1475
 6201TIP3    H118567   3.227   2.238   0.348 -0.5547 -1.2183 -1.8097
 6201TIP3    H218568   3.108   2.197   0.433 -0.8107  1.0502 -1.0222
 6202TIP3   OH218569   0.863   5.767   3.976  0.3187 -0.2101  0.0552
 6202TIP3    H118570   0.938   5.821   3.948  0.3478 -0.9343 -1.3348
 6202TIP3    H218571   0.903   5.695   4.024  0.6296 -1.1168 -1.5070
 6203TIP3   OH218572   3.929   0.667   1.807 -0.2273  0.4565 -0.4142
 6203TIP3    H118573   3.926   0.624   1.721 -1.0554 -0.0028 -0.1676
 6203TIP3    H218574   4.017   0.650   1.839  0.1747  0.8412 -1.2733
 6204TIP3   OH218575   5.065   5.600   2.055  0.2233  0.0093 -0.4551
 6204TIP3    H118576   5.138   5.598   2.117 -1.0199  0.8862  1.1265
 6204TIP3    H218577   5.064   5.689   2.022  0.6961 -0.3774 -1.5538
 6205TIP3   OH218578   2.521   3.137   1.859  0.1706 -0.3484  0.0694
 6205TIP3    H118579   2.475   3.170   1.936  1.2342  1.4228 -0.0159
 6205TIP3    H218580   2.476   3.177   1.785  0.3973 -0.4519 -0.1260
 6206TIP3   OH218581   0.302   5.340   1.710 -0.1395 -0.0385 -0.1597
 6206TIP3    H118582   0.277   5.293   1.790 -0.5529  0.1813 -0.1569
 6206TIP3    H218583   0.394   5.362   1.724 -0.5231  1.0711  0.8051
 6207TIP3   OH218584   1.044   3.770   4.625 -0.3463  0.2355  0.7886
 6207TIP3    H118585   1.041   3.697   4.564  0.1219  1.0050 -0.1825
 6207TIP3    H218586   0.975   3.751   4.689  0.7978 -1.8240  1.4828
 6208TIP3   OH218587   1.180   5.426   0.389 -0.0144  0.4814  0.0818
 6208TIP3    H118588   1.254   5.399   0.335 -0.9749 -0.0607 -0.9947
 6208TIP3    H218589   1.208   5.511   0.425  1.2432  0.1506 -0.0457
 6209TIP3   OH218590   6.031   2.675   1.804 -0.1046  0.2572  0.1726
 6209TIP3    H118591   5.961   2.727   1.763  1.0924  0.1243 -2.1941
 6209TIP3    H218592   6.085   2.646   1.731  2.3818  0.2396  1.9097
 6210TIP3   OH218593   1.584   0.287   0.493 -0.3882 -0.0428 -0.4438
 6210TIP3    H118594   1.663   0.276   0.440 -2.0854 -1.1531 -2.9325
 6210TIP3    H218595   1.612   0.266   0.582  1.9124 -1.2930 -1.3720
 6211TIP3   OH218596   4.462   0.467   0.154  0.0950 -0.2129 -0.4511
 6211TIP3    H118597   4.470   0.472   0.059  2.1064  1.9788 -0.2348
 6211TIP3    H218598   4.410   0.544   0.177 -1.0400 -1.1435  0.2194
 6212TIP3   OH218599   2.278   6.713   5.565  0.1178 -0.2874  0.6628
 6212TIP3    H118600   2.187   6.698   5.538 -0.1194  0.4726  1.0100
 6212TIP3    H218601   2.300   6.636   5.616  0.3012 -1.3601 -0.9710
 6213TIP3   OH218602   3.685   0.472   3.331  0.3343  0.3816 -0.6797
 6213TIP3    H118603   3.589   0.477   3.336  0.3127 -1.0247  1.0998
 6213TIP3    H218604   3.715   0.527   3.403  0.8730  0.3730 -0.8943
 6214TIP3   OH218605   4.220   2.619   3.442 -0.5638  0.2111  0.0234
 6214TIP3    H118606   4.267   2.537   3.425  0.9173  1.1129 -0.3436
 6214TIP3    H218607   4.272   2.663   3.510 -0.2903  1.6899 -1.1023
 6215TIP3   OH218608   6.408   5.211   2.587 -0.5068 -0.0853  0.1475
 6215TIP3    H118609   6.395   5.137   2.645 -0.3133 -0.0977  0.1736
 6215TIP3    H218610   6.319   5.245   2.572 -0.8535 -1.5607 -1.4904
 6216TIP3   OH218611   0.403   4.072   4.637 -0.8217  0.5457 -0.2409
 6216TIP3    H118612   0.446   4.125   4.569  1.0768  0.2009  0.6297
 6216TIP3    H218613   0.473   4.018   4.673 -2.0838 -0.2987  1.0385
 6217TIP3   OH218614   1.801   0.068   0.873  0.8004  0.0320  0.2933
 6217TIP3    H118615   1.877   0.124   0.890  1.0398 -0.2818  0.2699
 6217TIP3    H218616   1.825  -0.016   0.910  0.8370 -0.3241 -0.5091
 6218TIP3   OH218617   1.915   5.429   2.508  0.0450 -0.0286  0.0822
 6218TIP3    H118618   1.825   5.449   2.483  0.3618  2.2415  0.5769
 6218TIP3    H218619   1.922   5.334   2.495 -2.6974 -0.4592  0.9666
 6219TIP3   OH218620   3.228   0.237   0.605  0.3983  0.1893  0.0623
 6219TIP3    H118621   3.247   0.230   0.699 -0.4632  0.1196  0.2348
 6219TIP3    H218622   3.282   0.169   0.565  1.0739  0.4778  0.4574
 6220TIP3   OH218623   5.152   3.484   4.151  0.1454 -0.1925 -0.5816
 6220TIP3    H118624   5.138   3.570   4.190  0.6534 -0.7439  0.8910
 6220TIP3    H218625   5.063   3.449   4.137 -0.0811  0.8401 -1.9046
 6221TIP3   OH218626   1.481   1.875   4.698  0.4830 -0.3467 -0.3517
 6221TIP3    H118627   1.407   1.874   4.638  0.0634  2.5644  0.0055
 6221TIP3    H218628   1.541   1.940   4.662  2.4166 -1.8381 -0.0195
 6222TIP3   OH218629   3.675   0.784   0.224  0.2041 -0.2235  0.1086
 6222TIP3    H118630   3.769   0.777   0.208 -0.0131 -0.0963 -1.3628
 6222TIP3    H218631   3.657   0.719   0.291  1.4090  0.0558  0.7259
 6223TIP3   OH218632   0.663   1.828   4.846 -0.2097  0.2381  0.1662
 6223TIP3    H118633   0.668   1.736   4.822  0.1565  0.4471 -0.6079
 6223TIP3    H218634   0.623   1.870   4.771  1.7537  1.0451 -0.5078
 6224TIP3   OH218635   1.432   1.508   3.052  0.0349  0.7194 -0.4003
 6224TIP3    H118636   1.415   1.580   3.113 -1.0316  0.0617  0.1087
 6224TIP3    H218637   1.505   1.460   3.091 -0.6496  0.2924  0.3968
 6225TIP3   OH218638   0.605   4.351   1.682  1.1013 -0.1054 -0.2741
 6225TIP3    H118639   0.589   4.443   1.659 -0.6066 -0.3727 -0.2796
 6225TIP3    H218640   0.687   4.352   1.731  0.9664  1.4550 -0.0451
 6226TIP3   OH218641   4.917   4.758   5.018 -0.0127 -1.2371  0.0080
 6226TIP3    H118642   4.824   4.762   5.040  0.1359  0.2774  0.4502
 6226TIP3    H218643   4.941   4.667   5.034 -1.8063 -2.1151 -1.8443
 6227TIP3   OH218644   2.757   0.003   2.611  0.0449  0.4133  0.6465
 6227TIP3    H118645   2.823   0.016   2.542  0.3339 -1.9829  0.3757
 6227TIP3    H218646   2.727   0.091   2.632  3.6314  1.7080  1.0882
 6228TIP3   OH218647   2.578   2.592   2.141 -0.5055 -0.1011  0.3414
 6228TIP3    H118648   2.645   2.524   2.135  0.1751  0.3714  2.0607
 6228TIP3    H218649   2.553   2.609   2.050  2.1311  0.1363 -0.3971
 6229TIP3   OH218650   3.452   6.249   5.206  0.1979  0.0371  0.4669
 6229TIP3    H118651   3.510   6.263   5.281  1.8368  1.6443 -1.0215
 6229TIP3    H218652   3.492   6.177   5.158  0.9939  1.1212 -0.5401
 6230TIP3   OH218653   6.217   4.640   4.855 -0.6767  0.4790 -0.2802
 6230TIP3    H118654   6.205   4.713   4.917  0.0245  0.1682  0.2258
 6230TIP3    H218655   6.163   4.570   4.891 -0.2773  0.3018 -0.0246
 6231TIP3   OH218656   0.494   4.484   0.399 -0.3648  1.1289 -0.1258
 6231TIP3    H118657   0.437   4.415   0.434  1.4084  0.1928  1.0745
 6231TIP3    H218658   0.498   4.466   0.305 -1.5922  0.8920 -0.1527
 6232TIP3   OH218659   4.288   6.076   3.562  0.8715  0.5761 -0.4334
 6232TIP3    H118660   4.225   6.040   3.499  1.2692  3.0818 -2.3943
 6232TIP3    H218661   4.238   6.141   3.612  0.8034 -0.7275  1.2968
 6233TIP3   OH218662   5.604   4.648   4.204  0.3386 -0.4161 -0.0400
 6233TIP3    H118663   5.569   4.677   4.288  0.9418  0.0790  0.0474
 6233TIP3    H218664   5.584   4.720   4.144  1.4765  0.0117  0.0831
 6234TIP3   OH218665   2.124   1.193   5.030  0.2368 -0.3904  0.0321
 6234TIP3    H118666   2.030   1.203   5.018  0.2191 -0.0569  0.4424
 6234TIP3    H218667   2.150   1.129   4.963  0.1606  1.4910 -1.9259
 6235TIP3   OH218668   4.302   0.327   4.722  0.2531 -0.3492  0.0678
 6235TIP3    H118669   4.231   0.342   4.659 -0.1149 -0.3549  0.4757
 6235TIP3    H218670   4.380   0.364   4.680 -0.2416  0.8514  0.1699
 6236TIP3   OH218671   6.602   5.228   0.726  0.5387  0.6072 -0.0705
 6236TIP3    H118672   6.511   5.203   0.733  0.7045  0.1261  0.3775
 6236TIP3    H218673   6.624   5.212   0.634  0.8232 -1.5807  0.3187
 6237TIP3   OH218674   3.913   3.284   2.876  0.0096  0.1283  0.1172
 6237TIP3    H118675   3.840   3.224   2.890 -0.1446 -0.7813 -3.7036
 6237TIP3    H218676   3.951   3.295   2.963 -1.6580 -3.2704  1.4517
 6238TIP3   OH218677   3.174   2.651   2.120 -0.7106 -0.3274 -0.3916
 6238TIP3    H118678   3.207   2.569   2.084 -1.7274 -0.0544 -2.0356
 6238TIP3    H218679   3.088   2.663   2.079 -0.9981  1.0785  0.5417
 6239TIP3   OH218680   1.430   5.307   4.607 -0.0918 -0.1641  0.4307
 6239TIP3    H118681   1.443   5.218   4.641  1.0382  0.4709  1.7954
 6239TIP3    H218682   1.508   5.354   4.635  0.9272  0.5068 -3.0756
 6240TIP3   OH218683   3.294   5.452   0.942 -0.2902 -0.1444  0.4023
 6240TIP3    H118684   3.299   5.530   0.887  0.7769  1.4096  2.5962
 6240TIP3    H218685   3.204   5.453   0.976 -0.4052 -0.1128  0.1018
 6241TIP3   OH218686   3.176   1.319   0.409  0.3224  0.0429 -0.0134
 6241TIP3    H118687   3.231   1.397   0.397  2.1230 -1.3432 -1.1904
 6241TIP3    H218688   3.166   1.283   0.321 -1.6003 -0.3687  0.3389
 6242TIP3   OH218689   4.619   3.685   1.108  0.3935  0.5548 -0.1928
 6242TIP3    H118690   4.659   3.772   1.104  0.4491  0.5492  0.2440
 6242TIP3    H218691   4.525   3.701   1.107  0.2852  0.5043 -3.4289
 6243TIP3   OH218692   0.066   1.573   4.343 -0.0663  0.1026 -0.3233
 6243TIP3    H118693   0.043   1.570   4.250 -1.2414 -0.6029 -0.0284
 6243TIP3    H218694   0.130   1.502   4.354  1.4056  1.2850 -0.9057
 6244TIP3   OH218695   0.625   6.709   4.937 -0.5077  0.4219  0.1966
 6244TIP3    H118696   0.537   6.688   4.967 -1.0219  0.7362 -1.0385
 6244TIP3    H218697   0.613   6.776   4.870  0.5138 -0.7015 -1.1764
 6245TIP3   OH218698   2.725   4.383   3.039  0.2928 -0.1455  0.6152
 6245TIP3    H118699   2.633   4.368   3.063 -0.1278  1.2450 -0.0070
 6245TIP3    H218700   2.759   4.296   3.019 -0.9390 -0.6661  0.6901
 6246TIP3   OH218701   4.465   5.420   0.166 -0.3264 -0.3753 -0.2193
 6246TIP3    H118702   4.413   5.417   0.247 -1.4259  1.1374 -0.8247
 6246TIP3    H218703   4.411   5.470   0.105  1.8289  1.2454 -0.9183
 6247TIP3   OH218704   4.705   5.524   0.073  0.1440 -0.3769  0.1738
 6247TIP3    H118705   4.622   5.478   0.087 -0.1182 -0.1959 -0.6878
 6247TIP3    H218706   4.713   5.581   0.149 -1.0301  0.3099 -0.1783
 6248TIP3   OH218707   6.855   5.087   2.299  0.7534  0.5806  0.0262
 6248TIP3    H118708   6.827   5.171   2.261  0.2374  0.8881  1.0576
 6248TIP3    H218709   6.805   5.021   2.251  1.1518  0.8487 -0.7847
 6249TIP3   OH218710   1.617   1.526   4.869  0.0201  0.0393 -0.1171
 6249TIP3    H118711   1.696   1.552   4.822  1.1007  1.3718  2.2368
 6249TIP3    H218712   1.602   1.435   4.844  0.5363  0.6293 -2.8686
 6250TIP3   OH218713   5.791   0.278   1.134  0.5002  0.2567 -0.4403
 6250TIP3    H118714   5.797   0.320   1.219 -1.0099  0.4539 -0.4052
 6250TIP3    H218715   5.821   0.188   1.149  0.4409  0.3517  0.2555
 6251TIP3   OH218716   2.186   4.437   0.327  0.4305  0.0221 -0.2847
 6251TIP3    H118717   2.111   4.467   0.378  0.9950 -0.2595  0.7341
 6251TIP3    H218718   2.156   4.439   0.236 -1.4373 -1.8613  0.2287
 6252TIP3   OH218719   6.020   2.982   2.659 -0.3961 -0.5067  0.1276
 6252TIP3    H118720   6.068   2.913   2.615  2.6498  1.8788 -0.6985
 6252TIP3    H218721   5.961   3.017   2.593  0.8077  0.0517 -0.6969
 6253TIP3   OH218722   4.891   2.095   0.092 -0.2476 -0.1466 -0.1324
 6253TIP3    H118723   4.983   2.089   0.068 -0.3930  1.4107 -1.2359
 6253TIP3    H218724   4.889   2.074   0.185  1.3324  0.4653  0.0706
 6254TIP3   OH218725   0.132   5.635   4.014 -0.1295  0.2804 -0.6313
 6254TIP3    H118726   0.152   5.724   4.046 -0.3504 -0.3586  1.4388
 6254TIP3    H218727   0.168   5.633   3.926  2.7588  1.4165  0.3945
 6255TIP3   OH218728   2.742   1.146   5.788  0.2063  0.1382  0.3506
 6255TIP3    H118729   2.769   1.070   5.736  0.5817  0.6330 -0.1979
 6255TIP3    H218730   2.738   1.113   5.878  2.8124  0.0262  0.5191
 6256TIP3   OH218731   1.558   3.052   2.102 -0.4208  0.1038  0.1394
 6256TIP3    H118732   1.470   3.057   2.139 -0.0071  0.6904  1.0890
 6256TIP3    H218733   1.574   3.140   2.067 -0.5569 -0.2644 -0.8601
 6257TIP3   OH218734   7.215   6.000   3.131  0.2844 -0.2170 -0.2929
 6257TIP3    H118735   7.173   6.048   3.060  0.2905 -1.5361 -1.2257
 6257TIP3    H218736   7.239   6.067   3.195 -0.4876  0.8976 -1.1430
 6258TIP3   OH218737   4.661   0.161   3.554 -0.5566 -0.0861  0.0261
 6258TIP3    H118738   4.633   0.142   3.465  1.0160 -1.6437 -0.1865
 6258TIP3    H218739   4.611   0.100   3.609 -1.2466  0.6127  0.1886
 6259TIP3   OH218740   6.710   2.348   2.182  0.2141 -0.2745 -0.3215
 6259TIP3    H118741   6.674   2.288   2.247  0.0682  0.2167  0.0549
 6259TIP3    H218742   6.682   2.435   2.211 -2.1568 -0.2161 -2.5017
 6260TIP3   OH218743   2.649   3.624   1.912 -0.1926  0.1899 -0.1319
 6260TIP3    H118744   2.741   3.629   1.884 -0.6047  3.1303 -1.3705
 6260TIP3    H218745   2.631   3.711   1.948 -1.6324 -1.3849  3.2814
 6261TIP3   OH218746   1.372   0.760   3.284  0.0207  0.1294  0.2311
 6261TIP3    H118747   1.420   0.683   3.314  0.6536 -0.1701 -1.4314
 6261TIP3    H218748   1.280   0.739   3.300  0.3169 -0.0441  1.7945
 6262TIP3   OH218749   4.285   5.647   4.678  0.5469 -0.4449  0.2496
 6262TIP3    H118750   4.201   5.691   4.689  0.6055 -0.1816 -0.3111
 6262TIP3    H218751   4.318   5.680   4.594  0.9854 -0.9137  0.2361
 6263TIP3   OH218752   1.297   0.856   0.932 -0.3496 -0.0585  0.2025
 6263TIP3    H118753   1.387   0.884   0.915 -0.4151  0.7781  1.1358
 6263TIP3    H218754   1.254   0.859   0.847  0.5719 -0.7743 -0.3084
 6264TIP3   OH218755   3.897   1.247   4.544 -0.0521  0.0277 -0.1476
 6264TIP3    H118756   3.941   1.162   4.545 -0.5226 -0.2152  0.6442
 6264TIP3    H218757   3.881   1.267   4.637  2.5438  2.2833 -0.0555
 6265TIP3   OH218758   4.420   2.350   0.112 -0.1014 -0.2136  0.7658
 6265TIP3    H118759   4.369   2.275   0.084 -0.0417  0.1032 -0.2340
 6265TIP3    H218760   4.504   2.341   0.067 -0.0873  0.4345  0.6444
 6266TIP3   OH218761   6.045   6.535   2.843  0.5048 -0.7713  0.2135
 6266TIP3    H118762   6.098   6.465   2.881  0.4216 -1.2067 -0.4505
 6266TIP3    H218763   6.045   6.604   2.909  0.8784 -1.2590  0.7324
 6267TIP3   OH218764   4.428   5.892   2.238  0.1933  0.0174 -0.0297
 6267TIP3    H118765   4.515   5.853   2.251 -0.2888 -1.3050 -0.5312
 6267TIP3    H218766   4.403   5.866   2.150 -0.0113  1.8627 -0.5416
 6268TIP3   OH218767   2.093   0.487   0.959  0.5874  0.6763  1.1936
 6268TIP3    H118768   2.023   0.498   0.895 -1.2664 -0.6911  2.8470
 6268TIP3    H218769   2.174   0.496   0.909 -0.7602 -0.2044 -1.3030
 6269TIP3   OH218770   5.863   1.551   4.102  0.6108  0.0360  0.3770
 6269TIP3    H118771   5.921   1.551   4.026 -2.2955  0.0176 -2.0143
 6269TIP3    H218772   5.852   1.643   4.124  1.0099  0.0777  0.4058
 6270TIP3   OH218773   2.243   2.612   1.885  0.2496  1.0588 -0.1806
 6270TIP3    H118774   2.207   2.701   1.882 -0.0899  1.0975  2.6353
 6270TIP3    H218775   2.296   2.610   1.965  1.7263 -0.7842 -1.1141
 6271TIP3   OH218776   1.842   4.419   1.210  0.0189 -0.0037  0.1687
 6271TIP3    H118777   1.778   4.361   1.169 -0.0685  1.0696 -1.3017
 6271TIP3    H218778   1.836   4.500   1.160  2.0726  0.3493  0.4084
 6272TIP3   OH218779   0.991   2.502   2.497 -0.5246 -1.1332 -0.2222
 6272TIP3    H118780   0.975   2.595   2.485  1.0086 -0.6308  1.1416
 6272TIP3    H218781   1.085   2.496   2.515 -0.7703 -2.8118  0.7443
 6273TIP3   OH218782   4.247   2.256   0.375  0.2316  0.3809 -0.0249
 6273TIP3    H118783   4.258   2.345   0.340 -0.5285 -0.2758 -2.0903
 6273TIP3    H218784   4.331   2.214   0.358 -0.2963 -0.0907 -1.6683
 6274TIP3   OH218785   1.831   3.105   0.105 -0.1422  0.3649 -0.2160
 6274TIP3    H118786   1.888   3.042   0.061  0.4485  0.0713  0.9262
 6274TIP3    H218787   1.745   3.091   0.066  0.7061  1.5332 -2.7356
 6275TIP3   OH218788   1.059   3.610   1.531 -0.5924 -0.4741 -0.3997
 6275TIP3    H118789   1.024   3.661   1.458 -0.9564 -1.6528 -1.0808
 6275TIP3    H218790   1.097   3.533   1.490  3.7590  1.1096  0.2129
 6276TIP3   OH218791   2.792   0.370   1.777 -0.1091  0.7003  0.3995
 6276TIP3    H118792   2.733   0.300   1.805  0.1872  0.2957  0.0037
 6276TIP3    H218793   2.739   0.450   1.785  0.0498  0.6659  2.4703
 6277TIP3   OH218794   6.579   3.038   0.230 -0.4732 -0.1218  0.1901
 6277TIP3    H118795   6.541   2.997   0.152  0.9918 -0.3029 -0.4658
 6277TIP3    H218796   6.670   3.055   0.206 -0.1987  0.5486  1.5990
 6278TIP3   OH218797   4.216   5.121   0.119  0.2978  0.3618 -0.5911
 6278TIP3    H118798   4.202   5.215   0.133 -0.3903 -0.0566  1.9797
 6278TIP3    H218799   4.128   5.086   0.105  0.3006 -0.1705  0.6085
 6279TIP3   OH218800   1.377   4.584   2.003  0.2360 -0.0905  0.1315
 6279TIP3    H118801   1.325   4.641   2.059 -1.8439 -0.8217 -0.9369
 6279TIP3    H218802   1.399   4.640   1.928 -1.6836 -0.5407 -0.8498
 6280TIP3   OH218803   7.216   0.968   2.930 -0.1905  0.0179  0.5030
 6280TIP3    H118804   7.149   0.942   2.867  0.2621 -1.1724  0.4812
 6280TIP3    H218805   7.168   1.014   2.999 -0.4310  3.5298 -1.7916
 6281TIP3   OH218806   4.772   5.090   5.874 -0.5112 -0.1778 -0.1070
 6281TIP3    H118807   4.846   5.117   5.819 -0.8079  0.1748 -0.3345
 6281TIP3    H218808   4.806   5.016   5.924  0.3542  0.6389  0.5748
 6282TIP3   OH218809   4.735   3.465   3.322  0.0067 -0.5400  0.1284
 6282TIP3    H118810   4.756   3.401   3.254 -2.0920 -1.3944  0.1976
 6282TIP3    H218811   4.657   3.509   3.289  0.2409  0.5850  1.0173
 6283TIP3   OH218812   2.560   2.008   5.394  0.2661  0.2318 -0.4482
 6283TIP3    H118813   2.638   2.063   5.407  1.7288 -1.5338 -1.2703
 6283TIP3    H218814   2.563   1.983   5.301 -0.7450 -0.6453 -0.2679
 6284TIP3   OH218815   0.815   1.881   3.414 -0.0525  0.1029  0.0493
 6284TIP3    H118816   0.778   1.969   3.415  1.6081  0.8744 -1.3002
 6284TIP3    H218817   0.774   1.839   3.338 -0.7351 -0.2712  0.6080
 6285TIP3   OH218818   1.043   3.389   1.855 -0.9591 -0.1217 -0.2910
 6285TIP3    H118819   1.095   3.310   1.840 -0.7941 -0.2041  0.6619
 6285TIP3    H218820   0.974   3.385   1.788 -1.0174 -1.1255 -0.1878
 6286TIP3   OH218821   3.035   2.811   1.334  0.2249 -0.5054  0.6083
 6286TIP3    H118822   3.117   2.810   1.382 -0.9174  0.7315  2.7643
 6286TIP3    H218823   2.973   2.764   1.391 -0.9288 -0.0265 -0.2023
 6287TIP3   OH218824   3.688   0.488   0.709  0.0658 -0.5535 -0.3150
 6287TIP3    H118825   3.646   0.550   0.651  0.3195 -0.8810 -0.8606
 6287TIP3    H218826   3.781   0.492   0.686 -0.1624 -2.6746 -1.8827
 6288TIP3   OH218827   0.581   2.380   5.813  0.1983 -0.2448  0.2610
 6288TIP3    H118828   0.544   2.445   5.752  0.3032  0.2266  0.6964
 6288TIP3    H218829   0.527   2.388   5.891  0.1357 -0.7750  0.2734
 6289TIP3   OH218830   4.218   2.022   5.148 -0.2383  0.0321  0.4480
 6289TIP3    H118831   4.152   1.982   5.206 -0.4036  0.9398  0.9129
 6289TIP3    H218832   4.193   2.114   5.145 -0.1782  0.0230 -1.0191
 6290TIP3   OH218833   1.175   2.754   1.734  0.0582  0.3901 -0.1101
 6290TIP3    H118834   1.198   2.804   1.813 -2.8633  0.7642  0.6315
 6290TIP3    H218835   1.212   2.805   1.662  0.8057  1.2979  0.8710
 6291TIP3   OH218836   0.795   3.210   2.739  0.0520  0.0580  0.1064
 6291TIP3    H118837   0.743   3.190   2.817 -0.1703  0.6554  0.1102
 6291TIP3    H218838   0.749   3.282   2.697 -1.1804 -1.7377 -1.8688
 6292TIP3   OH218839   5.509   2.577   0.698  0.3060 -0.0794  0.1500
 6292TIP3    H118840   5.566   2.634   0.749  0.1392  0.2740 -0.0540
 6292TIP3    H218841   5.473   2.634   0.629 -0.3328 -0.2811  0.3039
 6293TIP3   OH218842   3.122   4.986   0.551 -0.3168 -0.1873 -0.1233
 6293TIP3    H118843   3.167   5.058   0.507 -2.2806  0.5264 -1.0717
 6293TIP3    H218844   3.060   5.028   0.610  0.4827 -1.1417  1.4584
 6294TIP3   OH218845   6.562   2.403   1.501 -0.3785 -0.3291  0.0575
 6294TIP3    H118846   6.631   2.373   1.442 -0.1848 -1.0701  0.6470
 6294TIP3    H218847   6.608   2.440   1.576 -0.6223 -0.1173  0.1044
 6295TIP3   OH218848   2.086   6.004   2.446  0.1137 -0.2256 -0.5481
 6295TIP3    H118849   2.061   5.912   2.448 -1.2664  0.1391  0.8822
 6295TIP3    H218850   2.070   6.032   2.355 -1.0678 -0.9689 -0.5780
 6296TIP3   OH218851   7.114   3.706   2.234 -0.1018 -0.6868  0.5158
 6296TIP3    H118852   7.208   3.723   2.240 -0.1037 -0.0661 -0.9346
 6296TIP3    H218853   7.098   3.641   2.302  1.4510 -1.0986  0.5379
 6297TIP3   OH218854   1.427   4.251   1.160 -0.5072  0.3502 -0.0343
 6297TIP3    H118855   1.491   4.266   1.091 -2.1653  1.2578 -1.4751
 6297TIP3    H218856   1.449   4.166   1.196  0.8109  0.1519 -1.2430
 6298TIP3   OH218857   2.759   1.728   0.607 -0.3036  0.2519 -0.1310
 6298TIP3    H118858   2.785   1.727   0.515  1.9431  1.2609  0.4287
 6298TIP3    H218859   2.811   1.657   0.647 -0.5168  0.4596  0.5235
 6299TIP3   OH218860   6.963   4.635   2.648 -0.2500 -0.3564 -0.0766
 6299TIP3    H118861   6.880   4.678   2.670 -0.4870 -1.5196  1.4296
 6299TIP3    H218862   7.020   4.653   2.722  0.0108 -1.6870  0.0676
 6300TIP3   OH218863   4.545   3.606   4.290  0.7884 -0.6060  0.1445
 6300TIP3    H118864   4.512   3.689   4.257 -1.4137 -1.4970 -0.0363
 6300TIP3    H218865   4.628   3.593   4.243  0.6803  1.0035 -0.5433
 6301TIP3   OH218866   1.789   0.263   5.061  0.2991  0.3369  0.2863
 6301TIP3    H118867   1.859   0.199   5.067 -1.0974 -1.3149 -0.1559
 6301TIP3    H218868   1.742   0.239   4.981  0.6596  2.9271 -0.7924
 6302TIP3   OH218869   5.404   5.650   0.587 -0.0403  0.9621 -0.2169
 6302TIP3    H118870   5.454   5.619   0.662  0.5095 -0.0836 -0.9702
 6302TIP3    H218871   5.326   5.594   0.585 -0.4429  1.5052  0.0167
 6303TIP3   OH218872   5.026   0.836   5.256  0.0127 -0.3325  0.3675
 6303TIP3    H118873   4.975   0.778   5.200 -0.1670  0.1646  0.0103
 6303TIP3    H218874   4.971   0.850   5.333  0.3191 -1.1301  0.7413
 6304TIP3   OH218875   3.241   3.547   4.030  0.0224  0.4201 -0.3154
 6304TIP3    H118876   3.200   3.480   3.976 -1.2660  1.4797 -0.7201
 6304TIP3    H218877   3.322   3.570   3.984  0.1432 -0.3771 -0.5083
 6305TIP3   OH218878   4.533   4.611   5.711  0.1432  0.1494 -0.5638
 6305TIP3    H118879   4.569   4.625   5.798  1.2928  0.6447 -1.0995
 6305TIP3    H218880   4.492   4.524   5.716 -0.2419  0.3882  0.5969
 6306TIP3   OH218881   5.555   4.869   2.720  0.6052  0.3501  0.1947
 6306TIP3    H118882   5.602   4.846   2.640 -1.4029 -1.1268 -0.6629
 6306TIP3    H218883   5.467   4.894   2.689 -0.1442 -0.0260  1.9082
 6307TIP3   OH218884   4.035   1.567   0.708  0.3203  0.1607  0.0558
 6307TIP3    H118885   4.064   1.658   0.700  1.7216 -0.3106 -0.5914
 6307TIP3    H218886   4.089   1.531   0.778  1.5183 -0.8006 -1.3190
 6308TIP3   OH218887   3.809   4.196   5.709 -0.1820 -0.3872  0.1006
 6308TIP3    H118888   3.770   4.193   5.621 -0.0387 -1.5120  0.0607
 6308TIP3    H218889   3.762   4.128   5.758 -0.4059  0.3703  0.9692
 6309TIP3   OH218890   0.946   0.104   2.021  0.0920  0.0522  0.3846
 6309TIP3    H118891   1.012   0.049   2.064  2.5041  2.8859  0.6265
 6309TIP3    H218892   0.936   0.179   2.080  0.0237  1.8213 -1.7775
 6310TIP3   OH218893   3.692   1.565   5.523 -0.3741 -0.2222 -0.4406
 6310TIP3    H118894   3.643   1.631   5.571  0.6600 -0.9242  1.7801
 6310TIP3    H218895   3.782   1.598   5.521  0.3204 -1.7527  1.3542
 6311TIP3   OH218896   2.939   1.859   5.504 -0.0866  0.1333  0.0111
 6311TIP3    H118897   2.950   1.781   5.449  0.1230 -0.6220  1.1027
 6311TIP3    H218898   2.960   1.932   5.445  2.6760 -0.7679 -0.2846
 6312TIP3   OH218899   6.333   1.539   1.918  0.0244  0.6402 -0.0476
 6312TIP3    H118900   6.269   1.532   1.848  0.6883  0.2237 -0.6269
 6312TIP3    H218901   6.281   1.559   1.996 -0.6004  2.4437 -0.8775
 6313TIP3   OH218902   6.379   0.310   2.985 -0.5763 -0.0456  0.6072
 6313TIP3    H118903   6.339   0.361   2.915 -0.5619  0.0534  0.6710
 6313TIP3    H218904   6.335   0.225   2.982  0.3897 -0.5360 -0.4359
 6314TIP3   OH218905   0.862   3.434   1.182  0.8605  0.3171  0.3108
 6314TIP3    H118906   0.930   3.415   1.118 -0.2036  0.4218 -0.8839
 6314TIP3    H218907   0.781   3.402   1.141  0.0537  1.0600  1.2875
 6315TIP3   OH218908   2.433   0.403   0.579  0.1817  0.4294 -0.1094
 6315TIP3    H118909   2.490   0.329   0.560  1.4421  1.2029  0.5354
 6315TIP3    H218910   2.408   0.436   0.492 -0.8797 -1.0703 -0.4116
 6316TIP3   OH218911   5.563   6.106   2.008  0.0109 -0.1371  0.0740
 6316TIP3    H118912   5.572   6.097   2.103 -1.3233 -1.1449  0.1232
 6316TIP3    H218913   5.474   6.137   1.994  0.2854  0.2927 -0.8515
 6317TIP3   OH218914   2.708   2.282   3.317 -0.2285 -0.6770 -0.2081
 6317TIP3    H118915   2.713   2.277   3.412 -1.6810 -0.6268 -0.1092
 6317TIP3    H218916   2.770   2.215   3.286 -0.6209 -1.5357  0.7881
 6318TIP3   OH218917   1.916   0.178   2.303 -0.6972 -1.0428 -0.0511
 6318TIP3    H118918   1.961   0.219   2.376  0.0517 -1.1701 -0.4299
 6318TIP3    H218919   1.969   0.101   2.282 -0.3366 -0.4660 -1.3544
 6319TIP3   OH218920   4.788   6.101   5.735  0.2508  0.1916 -0.1385
 6319TIP3    H118921   4.745   6.186   5.728 -0.5275 -0.1725  0.0836
 6319TIP3    H218922   4.801   6.074   5.644 -0.0917  0.2627 -0.2105
 6320TIP3   OH218923   6.828   4.554   0.120 -0.4431 -0.1043 -0.3777
 6320TIP3    H118924   6.857   4.590   0.036  1.5534  0.4036  0.4672
 6320TIP3    H218925   6.905   4.508   0.154 -0.8104  0.7273  1.7164
 6321TIP3   OH218926   0.864   2.125   3.693 -0.1343 -0.4774 -0.7946
 6321TIP3    H118927   0.874   2.220   3.696  1.5842 -0.6412 -0.4346
 6321TIP3    H218928   0.860   2.105   3.599  0.7921 -0.1493 -0.9145
 6322TIP3   OH218929   3.138   4.331   1.289  0.2397 -0.1260 -0.3421
 6322TIP3    H118930   3.199   4.387   1.335  0.6889  0.3756 -1.5146
 6322TIP3    H218931   3.053   4.350   1.329  0.2533  1.9375 -1.1733
 6323TIP3   OH218932   0.792   4.424   0.548  0.4364  0.9495  0.2334
 6323TIP3    H118933   0.765   4.516   0.551  1.0336  1.1767 -0.7545
 6323TIP3    H218934   0.887   4.427   0.536  0.4211  0.2079 -0.1463
 6324TIP3   OH218935   4.681   6.720   4.037 -0.2837  0.4542 -0.2315
 6324TIP3    H118936   4.688   6.737   4.131 -0.8660 -0.9516  0.0909
 6324TIP3    H218937   4.589   6.737   4.016 -0.3921 -0.2406 -0.3286
 6325TIP3   OH218938   2.236   1.388   2.298 -0.1321  0.0330  0.1917
 6325TIP3    H118939   2.272   1.474   2.316 -1.3182  0.8857 -1.2730
 6325TIP3    H218940   2.145   1.405   2.274 -0.1605 -1.5413 -0.9374
 6326TIP3   OH218941   0.514   3.228   1.498  0.1078 -0.1217  0.0811
 6326TIP3    H118942   0.460   3.168   1.446 -0.8204  0.8932 -0.1679
 6326TIP3    H218943   0.585   3.253   1.439  0.4716 -0.9318  0.1702
 6327TIP3   OH218944   4.657   1.498   5.872  0.0229 -0.3044  0.6905
 6327TIP3    H118945   4.701   1.418   5.844  0.4743 -0.4919  1.8569
 6327TIP3    H218946   4.726   1.549   5.916 -0.0632  1.0882 -0.7087
 6328TIP3   OH218947   5.199   1.467   3.756 -0.4218  0.2541  0.3707
 6328TIP3    H118948   5.291   1.477   3.732 -0.4952 -1.4048 -0.7051
 6328TIP3    H218949   5.166   1.557   3.759  1.0770  0.8451  0.2301
 6329TIP3   OH218950   4.608   4.627   3.687 -0.4949  0.0488 -0.3409
 6329TIP3    H118951   4.595   4.667   3.773  0.9852 -1.8559  0.8496
 6329TIP3    H218952   4.580   4.694   3.625 -0.9108  1.7658  1.5955
 6330TIP3   OH218953   0.909   6.436   1.346  0.0484  0.1676  0.0803
 6330TIP3    H118954   0.867   6.450   1.431 -0.8702 -0.3057 -0.2738
 6330TIP3    H218955   0.862   6.362   1.309  0.7937  0.0391 -0.6198
 6331TIP3   OH218956   3.480   2.311   0.924  0.0298  0.1719 -0.1260
 6331TIP3    H118957   3.559   2.330   0.874 -0.0047 -1.8808 -1.0512
 6331TIP3    H218958   3.512   2.286   1.011  0.2937  0.6773 -0.0750
 6332TIP3   OH218959   4.821   6.577   1.482 -0.0413 -0.4287 -0.5809
 6332TIP3    H118960   4.779   6.491   1.491 -0.3850 -0.2545 -0.4855
 6332TIP3    H218961   4.753   6.632   1.442 -0.7297  0.4566  1.6373
 6333TIP3   OH218962   3.833   6.286   1.388 -0.0060  0.2478  0.0580
 6333TIP3    H118963   3.887   6.332   1.452  0.7145  2.4618 -2.0065
 6333TIP3    H218964   3.751   6.269   1.434  0.8740  0.7036  1.9069
 6334TIP3   OH218965   7.201   4.543   5.300  0.1654  0.3601 -0.1295
 6334TIP3    H118966   7.206   4.519   5.207 -0.3742  1.1676 -0.3792
 6334TIP3    H218967   7.215   4.461   5.347 -2.5836 -0.6771 -0.9283
 6335TIP3   OH218968   4.536   1.230   1.437  0.0684  0.1762  0.2113
 6335TIP3    H118969   4.564   1.193   1.353  0.7596  1.4019 -0.1299
 6335TIP3    H218970   4.441   1.232   1.432  0.1336  1.1171 -0.9602
 6336TIP3   OH218971   6.705   0.490   3.673  0.0544  0.3226 -0.3928
 6336TIP3    H118972   6.631   0.435   3.701 -0.1884 -0.0491 -1.6951
 6336TIP3    H218973   6.781   0.451   3.715 -0.3805  0.2170  0.3163
 6337TIP3   OH218974   0.464   6.245   1.496 -0.1498  0.3003  0.6549
 6337TIP3    H118975   0.503   6.277   1.578  0.9094 -0.7392  0.5789
 6337TIP3    H218976   0.467   6.150   1.504  1.5723  0.1267 -1.2975
 6338TIP3   OH218977   6.630   5.943   2.647 -0.1264 -0.1798  0.2549
 6338TIP3    H118978   6.591   5.913   2.729 -0.0312 -0.4347  0.2087
 6338TIP3    H218979   6.621   6.038   2.650  0.9873 -0.0762  1.1391
 6339TIP3   OH218980   0.729   1.152   5.240  0.1956 -0.1118 -0.1545
 6339TIP3    H118981   0.637   1.149   5.215 -0.1831 -1.7427  1.2619
 6339TIP3    H218982   0.731   1.207   5.319 -0.3259 -3.2981  2.3020
 6340TIP3   OH218983   3.065   0.450   1.888 -0.1624  0.2041 -0.1754
 6340TIP3    H118984   3.124   0.502   1.834 -0.1972 -0.1817 -0.5900
 6340TIP3    H218985   2.983   0.447   1.838 -0.8949  1.5914  0.8480
 6341TIP3   OH218986   3.417   2.299   5.369 -0.1843 -0.5191  0.0087
 6341TIP3    H118987   3.488   2.266   5.425  0.5295 -0.1317 -0.6434
 6341TIP3    H218988   3.430   2.394   5.368  1.5787 -0.6662 -3.0341
 6342TIP3   OH218989   7.184   2.604   5.194 -0.1149  0.1790 -0.3522
 6342TIP3    H118990   7.162   2.671   5.258 -0.5030  0.3166 -0.6289
 6342TIP3    H218991   7.109   2.544   5.196  0.7285 -0.8892  0.7329
 6343TIP3   OH218992   7.003   4.149   0.860 -0.3891 -0.6295 -0.4140
 6343TIP3    H118993   6.992   4.065   0.814 -1.8496 -0.4978 -0.3715
 6343TIP3    H218994   7.018   4.124   0.951 -0.3213 -0.8638 -0.4886
 6344TIP3   OH218995   2.102   6.555   1.104 -0.6978 -0.0080 -0.6389
 6344TIP3    H118996   2.097   6.571   1.010  1.1607  0.8528 -0.6455
 6344TIP3    H218997   2.085   6.641   1.144 -1.1034 -0.2866 -0.2032
 6345TIP3   OH218998   6.066   5.371   5.806  0.9320  0.6149  0.0941
 6345TIP3    H118999   6.007   5.355   5.880  1.2778 -2.4548 -0.1620
 6345TIP3    H219000   6.144   5.408   5.846  0.5033  0.5311  1.0470
 6346TIP3   OH219001   4.217   1.032   4.439  0.6676 -0.3332 -0.3196
 6346TIP3    H119002   4.191   1.124   4.428 -1.1148 -1.0507 -3.3041
 6346TIP3    H219003   4.281   1.017   4.369  0.3043 -1.5693 -0.4004
 6347TIP3   OH219004   4.319   2.777   3.660 -0.3475 -0.0649 -1.0063
 6347TIP3    H119005   4.239   2.829   3.663 -0.4085 -0.1234 -1.5606
 6347TIP3    H219006   4.389   2.841   3.645  0.1327  0.4098  2.3644
 6348TIP3   OH219007   3.341   2.287   1.756  0.0156 -0.1141 -0.1908
 6348TIP3    H119008   3.410   2.306   1.692  1.6498 -0.9874  1.2203
 6348TIP3    H219009   3.299   2.372   1.771  0.4955  0.3626 -1.3866
 6349TIP3   OH219010   5.309   1.204   4.485 -0.0601 -0.6202  0.4309
 6349TIP3    H119011   5.400   1.233   4.492 -0.1525 -0.0850 -0.4930
 6349TIP3    H219012   5.313   1.126   4.431 -0.2727  0.1273 -0.6981
 6350TIP3   OH219013   1.719   0.511   0.912  0.4340 -0.4151 -0.4481
 6350TIP3    H119014   1.714   0.435   0.969 -0.6169 -1.5663 -2.0205
 6350TIP3    H219015   1.794   0.494   0.855  0.0979 -0.3377 -0.9125
 6351TIP3   OH219016   0.806   0.424   0.454  0.5300  0.2828 -0.2758
 6351TIP3    H119017   0.832   0.479   0.380  0.5557 -0.1249 -0.5732
 6351TIP3    H219018   0.741   0.476   0.501 -0.5340  0.0037 -1.3724
 6352TIP3   OH219019   2.680   1.314   3.064 -0.0957  0.1327  0.7866
 6352TIP3    H119020   2.652   1.242   3.122 -0.9052  0.1424  0.4183
 6352TIP3    H219021   2.722   1.269   2.990  0.2365  0.0850  1.0011
 6353TIP3   OH219022   4.987   6.635   5.701 -0.1949 -0.0974 -0.7414
 6353TIP3    H119023   5.040   6.715   5.697 -2.3608  1.5773  1.2843
 6353TIP3    H219024   4.908   6.656   5.650 -0.2010 -1.4962 -1.3446
 6354TIP3   OH219025   6.588   2.773   2.930 -0.1064  0.1882 -0.1143
 6354TIP3    H119026   6.539   2.771   3.012  1.3481  1.7241  0.8533
 6354TIP3    H219027   6.549   2.704   2.877 -2.0727  0.1494  1.2918
 6355TIP3   OH219028   1.174   4.733   2.469 -0.4566 -0.6367 -0.1294
 6355TIP3    H119029   1.266   4.712   2.483 -0.3982 -0.4193 -0.1848
 6355TIP3    H219030   1.145   4.671   2.401 -0.3363 -0.6630 -0.1565
 6356TIP3   OH219031   1.700   0.226   3.064  0.1821  0.2745 -0.5094
 6356TIP3    H119032   1.786   0.236   3.025 -0.9342  0.6152 -3.1235
 6356TIP3    H219033   1.687   0.132   3.070  0.4309  0.2215 -0.8082
 6357TIP3   OH219034   1.584   4.586   3.057  0.3278  0.2261 -0.8040
 6357TIP3    H119035   1.492   4.609   3.051 -0.6354 -2.1441  2.3885
 6357TIP3    H219036   1.624   4.658   3.106  0.2318  1.1882 -2.0774
 6358TIP3   OH219037   4.215   2.842   2.980  0.0887 -0.3925 -0.1398
 6358TIP3    H119038   4.172   2.812   3.060  0.0807  0.9806  0.4036
 6358TIP3    H219039   4.144   2.852   2.917 -0.7507  3.1578  1.1408
 6359TIP3   OH219040   5.903   3.299   1.323 -0.1518 -0.1864  0.1317
 6359TIP3    H119041   5.949   3.382   1.308 -0.6994  0.3248  1.2000
 6359TIP3    H219042   5.972   3.238   1.350 -0.0574  0.5571  1.6719
 6360TIP3   OH219043   2.460   2.126   0.967 -0.1837 -0.1647  0.2463
 6360TIP3    H119044   2.542   2.097   0.928  0.6120  1.6834  0.4533
 6360TIP3    H219045   2.456   2.220   0.948 -2.3191 -0.2314  0.1300
 6361TIP3   OH219046   4.094   4.212   5.602 -0.2057 -0.0687  0.6467
 6361TIP3    H119047   4.068   4.291   5.554 -0.7834 -0.4054  0.3982
 6361TIP3    H219048   4.012   4.165   5.618  0.2352 -1.1735 -0.1836
 6362TIP3   OH219049   0.783   1.769   4.241  0.1199  0.1948 -0.0187
 6362TIP3    H119050   0.770   1.761   4.336 -0.5600  0.3591 -0.0971
 6362TIP3    H219051   0.854   1.832   4.232  2.9195 -2.6143  0.4919
 6363TIP3   OH219052   2.383   4.987   1.344  0.7242 -0.0077 -0.1903
 6363TIP3    H119053   2.466   4.998   1.390  0.3152  1.7524  0.1931
 6363TIP3    H219054   2.368   4.892   1.344  1.4213 -0.1743  2.0723
 6364TIP3   OH219055   5.664   4.500   0.971 -0.1316  0.5968  0.2093
 6364TIP3    H119056   5.744   4.499   1.024 -0.3500  1.1380  0.5587
 6364TIP3    H219057   5.656   4.410   0.938  0.1974  0.3366  0.8110
 6365TIP3   OH219058   0.425   6.603   2.325 -0.6342  0.2634 -0.0811
 6365TIP3    H119059   0.433   6.567   2.413  1.0139  1.7170  0.4097
 6365TIP3    H219060   0.464   6.690   2.330  0.6475 -0.0675 -2.5107
 6366TIP3   OH219061   1.196   1.226   2.783 -0.2055 -0.0543  0.2637
 6366TIP3    H119062   1.160   1.305   2.823  1.2616  0.5128  0.5028
 6366TIP3    H219063   1.277   1.210   2.830  0.6151 -0.4466 -1.2363
 6367TIP3   OH219064   4.835   4.773   2.706 -0.5350  0.5504 -0.1158
 6367TIP3    H119065   4.754   4.739   2.744 -1.3456  0.7631 -1.5696
 6367TIP3    H219066   4.821   4.766   2.611  1.2258  0.4269 -0.3931
 6368TIP3   OH219067   5.833   6.496   1.956 -0.2915 -0.0888 -0.2833
 6368TIP3    H119068   5.825   6.401   1.953  0.2937 -0.1647  0.2208
 6368TIP3    H219069   5.845   6.516   2.049  1.4516  0.3055 -0.5480
 6369TIP3   OH219070   5.047   3.592   1.810 -0.1216  0.0879  0.4819
 6369TIP3    H119071   5.071   3.585   1.717 -1.0604 -1.7363  0.3224
 6369TIP3    H219072   5.045   3.501   1.840  1.4564  0.6956  2.6643
 6370TIP3   OH219073   5.835   6.288   2.495  0.1899 -0.8305 -0.6139
 6370TIP3    H119074   5.841   6.359   2.558  1.4900  0.5805 -2.1937
 6370TIP3    H219075   5.794   6.216   2.542  1.1018  0.1344  1.8072
 6371TIP3   OH219076   2.472   1.201   4.959 -0.1150  0.5968 -0.1104
 6371TIP3    H119077   2.557   1.156   4.953  1.7484  3.0682  3.7763
 6371TIP3    H219078   2.424   1.151   5.025 -2.1261 -1.0644 -2.6114
 6372TIP3   OH219079   2.803   6.435   1.099 -0.1252  0.2583  0.0097
 6372TIP3    H119080   2.800   6.344   1.069 -2.5651  0.3332 -0.1481
 6372TIP3    H219081   2.839   6.429   1.188  0.1107 -0.8004 -0.1375
 6373TIP3   OH219082   6.342   3.998   5.508  0.1773  0.6586  0.3740
 6373TIP3    H119083   6.330   3.907   5.484  0.2993  0.6553  0.3231
 6373TIP3    H219084   6.369   4.041   5.426 -1.8019  1.1266 -0.0938
 6374TIP3   OH219085   5.825   4.565   2.545 -0.0786 -0.2326  0.7878
 6374TIP3    H119086   5.872   4.618   2.480  1.6947 -0.7422  1.5998
 6374TIP3    H219087   5.842   4.609   2.629 -0.8369 -0.5946  1.1445
 6375TIP3   OH219088   4.850   2.086   0.872 -0.0655  0.7472  0.2257
 6375TIP3    H119089   4.765   2.099   0.914  0.2211  2.0993  0.4296
 6375TIP3    H219090   4.830   2.048   0.787 -0.7043 -1.3342  1.2217
 6376TIP3   OH219091   0.841   2.733   2.821  0.8799 -0.5282 -0.4845
 6376TIP3    H119092   0.793   2.665   2.774 -3.6458  0.9008  1.4980
 6376TIP3    H219093   0.827   2.813   2.770  0.8458 -0.0038  0.3180
 6377TIP3   OH219094   6.333   1.823   2.013 -0.3789 -0.5855 -0.0609
 6377TIP3    H119095   6.424   1.814   1.986  0.4064 -0.0585  2.2190
 6377TIP3    H219096   6.305   1.906   1.974  0.2858 -0.4787 -0.3182
 6378TIP3   OH219097   2.794   4.823   5.489  0.1622  0.0712  0.1493
 6378TIP3    H119098   2.860   4.887   5.462  0.3440 -0.7219 -1.4196
 6378TIP3    H219099   2.746   4.866   5.559  0.1759  1.9831 -0.9481
 6379TIP3   OH219100   3.181   3.942   4.697 -0.0711 -0.8876  0.6534
 6379TIP3    H119101   3.099   3.926   4.744  0.6010 -0.3869  2.0504
 6379TIP3    H219102   3.154   3.963   4.608 -1.4174 -1.4339  0.9141
 6380TIP3   OH219103   0.891   3.755   2.859 -0.2812  0.5534 -0.6931
 6380TIP3    H119104   0.832   3.829   2.871 -0.5153  0.2446  0.1780
 6380TIP3    H219105   0.979   3.792   2.868 -0.4185  0.5748  0.7621
 6381TIP3   OH219106   5.644   5.148   3.266 -0.0398 -0.0460  0.3065
 6381TIP3    H119107   5.720   5.197   3.299  2.0253  0.3271 -4.2546
 6381TIP3    H219108   5.672   5.056   3.269  1.0107  0.1351 -1.9399
 6382TIP3   OH219109   2.781   1.887   1.253  0.3226  0.4688  0.1910
 6382TIP3    H119110   2.741   1.818   1.200 -1.2732 -0.0796  1.9811
 6382TIP3    H219111   2.773   1.966   1.199 -1.4480 -0.0106 -0.3328
 6383TIP3   OH219112   4.379   2.163   5.434 -0.3872 -0.6177  0.5150
 6383TIP3    H119113   4.381   2.069   5.451 -1.2657 -0.8312 -0.4620
 6383TIP3    H219114   4.300   2.177   5.382 -0.2109  0.6466  0.5381
 6384TIP3   OH219115   1.529   1.345   2.609 -0.0331  0.6231  0.5189
 6384TIP3    H119116   1.535   1.266   2.662  1.2916  0.0172 -0.4860
 6384TIP3    H219117   1.506   1.414   2.671  3.8443  0.4508  2.4149
 6385TIP3   OH219118   5.641   1.314   0.353  0.3104 -0.6376  0.2779
 6385TIP3    H119119   5.560   1.318   0.403  0.7300 -0.7776  0.9963
 6385TIP3    H219120   5.678   1.228   0.375  2.0120  0.4783  2.2064
 6386TIP3   OH219121   0.260   3.300   5.719 -0.0915  0.4004 -0.0030
 6386TIP3    H119122   0.244   3.218   5.765 -0.4492 -0.5179 -1.7044
 6386TIP3    H219123   0.200   3.362   5.761  1.1493  0.2226  2.2310
 6387TIP3   OH219124   3.794   1.209   1.685  0.3467  0.1484 -0.1213
 6387TIP3    H119125   3.751   1.272   1.629 -1.4963  0.0848  1.1403
 6387TIP3    H219126   3.726   1.145   1.707  1.7868 -1.5227 -0.2370
 6388TIP3   OH219127   0.684   3.625   1.794 -0.3758  0.1632 -0.1700
 6388TIP3    H119128   0.601   3.672   1.808  0.6791  1.9090  0.5272
 6388TIP3    H219129   0.738   3.686   1.744  0.9843 -0.3907  0.5769
 6389TIP3   OH219130   4.413   6.366   5.185 -0.3270 -0.1852  0.7917
 6389TIP3    H119131   4.467   6.320   5.121 -0.8151  0.3724 -0.0352
 6389TIP3    H219132   4.433   6.322   5.268  0.0589 -1.1445  0.2179
 6390TIP3   OH219133   4.865   3.495   0.479 -0.2874 -0.2628 -0.4187
 6390TIP3    H119134   4.793   3.447   0.519  0.4649  0.9039  2.5622
 6390TIP3    H219135   4.938   3.434   0.479  0.1741  0.2011  1.7312
 6391TIP3   OH219136   1.509   1.078   5.432 -0.1079 -0.0939  0.3401
 6391TIP3    H119137   1.456   1.036   5.499  0.1020  2.4300  2.2430
 6391TIP3    H219138   1.472   1.166   5.424  3.1085  1.4843  1.1113
 6392TIP3   OH219139   4.688   3.072   4.832  0.3283 -0.8172 -0.2983
 6392TIP3    H119140   4.606   3.038   4.870 -0.6204  0.1462 -1.4006
 6392TIP3    H219141   4.752   3.003   4.850 -0.1964 -0.7533  2.3781
 6393TIP3   OH219142   7.064   4.286   0.038 -0.1016 -0.0787 -0.3816
 6393TIP3    H119143   7.130   4.355   0.047  1.1979 -1.5747  2.6288
 6393TIP3    H219144   7.012   4.314  -0.037  1.2269  3.4299 -0.1918
 6394TIP3   OH219145   2.956   3.047   0.611  0.3459 -0.2752  0.3371
 6394TIP3    H119146   3.044   3.059   0.648 -0.7759  0.4830  2.9798
 6394TIP3    H219147   2.897   3.082   0.678 -1.8997  1.7282 -2.4319
 6395TIP3   OH219148   6.682   2.652   3.970 -0.0316  0.0036 -0.3544
 6395TIP3    H119149   6.612   2.717   3.973  1.6780  1.9403  0.9028
 6395TIP3    H219150   6.725   2.660   4.056  1.2297 -1.6837 -0.7732
 6396TIP3   OH219151   3.754   6.534   2.369 -0.1130 -0.2026 -0.2059
 6396TIP3    H119152   3.744   6.554   2.276 -1.6790 -0.6870 -0.1547
 6396TIP3    H219153   3.714   6.448   2.380 -0.2019 -0.0268  0.9769
 6397TIP3   OH219154   0.611   2.846   5.859  0.6491 -0.6391 -0.4810
 6397TIP3    H119155   0.674   2.903   5.903  0.9173 -1.2399 -0.0825
 6397TIP3    H219156   0.663   2.773   5.826  0.0313 -1.6774  0.7435
 6398TIP3   OH219157   7.014   6.781   5.609 -0.0992  0.1236  0.6144
 6398TIP3    H119158   7.031   6.812   5.698 -0.0508 -0.8198  0.9433
 6398TIP3    H219159   7.093   6.734   5.584 -0.7152 -1.0115  0.7096
 6399TIP3   OH219160   6.531   4.434   5.412 -0.1447 -0.5128  0.8641
 6399TIP3    H119161   6.446   4.392   5.394  0.1526 -1.5714  1.8291
 6399TIP3    H219162   6.551   4.482   5.331 -0.9832 -1.4287  0.0798
 6400TIP3   OH219163   6.824   5.386   0.512  0.3855  0.0826 -0.5496
 6400TIP3    H119164   6.888   5.425   0.571  0.3114  1.0612 -1.0845
 6400TIP3    H219165   6.870   5.313   0.471  0.3912 -0.7012  0.8074
 6401TIP3   OH219166   2.098   5.823   5.731  0.1899 -0.1672 -0.2720
 6401TIP3    H119167   2.092   5.916   5.711 -2.2553 -0.0382  0.7866
 6401TIP3    H219168   2.028   5.782   5.681  0.8781 -1.3773 -0.2980
 6402TIP3   OH219169   7.128   1.466   3.215  0.2615 -0.3215  0.3404
 6402TIP3    H119170   7.149   1.390   3.270 -1.1827 -0.3856  0.8499
 6402TIP3    H219171   7.078   1.524   3.273  2.2734  1.5572  0.2868
 6403TIP3   OH219172   4.829   1.998   2.201 -0.0620  0.4992  0.0430
 6403TIP3    H119173   4.825   2.068   2.266  1.7446 -0.6868  1.4984
 6403TIP3    H219174   4.786   1.923   2.243  0.5882 -0.1121 -0.3603
 6404TIP3   OH219175   0.886   5.359   0.301  0.5984 -0.4064 -0.3981
 6404TIP3    H119176   0.977   5.340   0.324  0.3456 -0.5705  0.5297
 6404TIP3    H219177   0.840   5.277   0.318  0.0826  0.0125  0.3067
 6405TIP3   OH219178   3.662   1.697   0.166 -0.9550  0.3689  0.4529
 6405TIP3    H119179   3.717   1.724   0.092 -2.5042 -0.5143 -1.1058
 6405TIP3    H219180   3.715   1.632   0.212  0.0204  0.8935  0.1221
 6406TIP3   OH219181   0.501   1.472   2.937  0.0101 -0.1242 -0.9407
 6406TIP3    H119182   0.565   1.542   2.929 -0.8151  0.8133  0.2632
 6406TIP3    H219183   0.533   1.417   3.008 -0.7623  0.6636  0.0491
 6407TIP3   OH219184   4.375   3.599  -0.003 -0.2887 -0.1318  0.4682
 6407TIP3    H119185   4.470   3.594  -0.016 -0.1794 -0.5920  1.3649
 6407TIP3    H219186   4.355   3.526   0.056 -1.0306  0.6485  1.2038
 6408TIP3   OH219187   6.249   1.672   3.204  0.4334 -0.5049  0.2191
 6408TIP3    H119188   6.177   1.612   3.228  2.0920 -2.5811  0.3273
 6408TIP3    H219189   6.289   1.695   3.288  0.4485 -0.1074  0.1014
 6409TIP3   OH219190   0.925   6.671   0.058 -0.6612 -0.2377  1.0279
 6409TIP3    H119191   0.987   6.626  -0.000 -0.3696  0.4167  0.8261
 6409TIP3    H219192   0.981   6.724   0.115 -1.0232  0.0893  1.0784
 6410TIP3   OH219193   4.394   6.182   4.934  0.5601  0.3624 -0.4086
 6410TIP3    H119194   4.382   6.088   4.921  1.3192  0.3998 -1.6212
 6410TIP3    H219195   4.486   6.190   4.962  0.1181  0.6554  1.0490
 6411TIP3   OH219196   1.222   1.406   2.181 -0.0162  0.0114  0.6166
 6411TIP3    H119197   1.274   1.480   2.212 -0.0720  0.5654 -0.5506
 6411TIP3    H219198   1.184   1.369   2.260  0.4077  0.9299  1.2751
 6412TIP3   OH219199   1.313   1.446   0.282  0.2634  0.1419 -0.2200
 6412TIP3    H119200   1.360   1.363   0.293  1.1600  0.8560  1.6794
 6412TIP3    H219201   1.373   1.500   0.231  0.7383  0.4148  0.6050
 6413TIP3   OH219202   2.023   4.798   0.942  0.3751 -0.2469  0.3229
 6413TIP3    H119203   2.093   4.780   1.005 -0.2185  0.5996  1.2634
 6413TIP3    H219204   2.046   4.883   0.904 -1.6601  1.6681  2.9692
 6414TIP3   OH219205   4.966   0.479   2.575  0.3182 -0.0633  0.2849
 6414TIP3    H119206   4.890   0.422   2.585 -0.0338  0.5721  1.4724
 6414TIP3    H219207   5.040   0.426   2.601  0.0455 -0.1273  0.9529
 6415TIP3   OH219208   2.119   1.586   3.482 -0.3714  0.4696  0.1797
 6415TIP3    H119209   2.108   1.573   3.387 -0.9244 -0.9843  0.4076
 6415TIP3    H219210   2.198   1.638   3.490  0.9383 -1.1827 -1.0377
 6416TIP3   OH219211   1.583   5.190   0.849 -0.0734  0.7586  0.4343
 6416TIP3    H119212   1.595   5.210   0.941 -0.3669 -0.8351  0.8464
 6416TIP3    H219213   1.596   5.096   0.843  1.5181  1.0159 -1.4132
 6417TIP3   OH219214   2.005   0.361   3.987 -0.6082 -0.3187  0.1399
 6417TIP3    H119215   2.088   0.391   3.949 -0.3899  0.1625  0.9530
 6417TIP3    H219216   2.028   0.284   4.038 -0.5565  0.0876  0.7521
 6418TIP3   OH219217   6.592   6.031   0.080  0.5867  0.0199  0.0209
 6418TIP3    H119218   6.552   6.026   0.167 -2.0676  0.4276 -1.0769
 6418TIP3    H219219   6.577   6.121   0.052  0.8028 -0.2895 -1.1106
 6419TIP3   OH219220   1.219   0.382   4.950  0.1200  0.1986 -0.6897
 6419TIP3    H119221   1.213   0.311   5.014 -0.1758  0.6450 -0.2160
 6419TIP3    H219222   1.220   0.462   5.003  0.1564  0.5626 -1.2311
 6420TIP3   OH219223   2.686   6.742   2.502 -0.2307  0.7036 -0.0299
 6420TIP3    H119224   2.758   6.687   2.535 -1.1524 -1.0345 -0.7932
 6420TIP3    H219225   2.726   6.828   2.490  1.6173 -0.0879  0.0471
 6421TIP3   OH219226   5.831   2.117   1.162  0.5816 -0.2746 -0.0976
 6421TIP3    H119227   5.837   2.033   1.206  0.6023 -0.5617 -0.6365
 6421TIP3    H219228   5.747   2.153   1.191  1.3597  0.3241  1.5030
 6422TIP3   OH219229   7.058   2.721   3.414  0.0061  0.5772 -0.3279
 6422TIP3    H119230   7.139   2.718   3.363  0.5224  0.1299  0.4824
 6422TIP3    H219231   7.005   2.648   3.380  0.2272  0.4599 -0.4219
 6423TIP3   OH219232   3.674   4.918   4.180 -0.0148  0.2616  0.2760
 6423TIP3    H119233   3.607   4.866   4.225  0.2045  0.0174  0.3256
 6423TIP3    H219234   3.728   4.853   4.135  1.4032  0.2659  1.8612
 6424TIP3   OH219235   3.079   6.582   4.196 -0.4508  0.1023  0.0601
 6424TIP3    H119236   3.030   6.601   4.116 -1.1048  0.2874  0.4896
 6424TIP3    H219237   3.012   6.550   4.257 -0.0765  0.6033  0.7413
 6425TIP3   OH219238   4.617   0.970   2.854 -0.3821  0.0283  0.3740
 6425TIP3    H119239   4.703   0.981   2.895 -0.3898 -0.3292  0.4846
 6425TIP3    H219240   4.619   1.031   2.780  0.4543 -0.8975 -0.3911
 6426TIP3   OH219241   2.991   0.446   1.481  0.0100  0.0969 -0.1357
 6426TIP3    H119242   2.931   0.499   1.534 -0.4854  0.6507 -1.2289
 6426TIP3    H219243   3.012   0.501   1.406  1.9484 -0.0638  0.2413
 6427TIP3   OH219244   4.871   5.527   1.437 -0.7565  0.5719  0.1874
 6427TIP3    H119245   4.877   5.508   1.344  0.8841  0.8419  0.1946
 6427TIP3    H219246   4.822   5.454   1.474 -2.1859  0.9058 -0.9936
 6428TIP3   OH219247   5.174   5.435   2.692 -0.0683  0.5970 -0.1961
 6428TIP3    H119248   5.118   5.428   2.769  0.4701 -1.4149  0.0669
 6428TIP3    H219249   5.263   5.433   2.727  0.1796  0.6389 -0.8088
 6429TIP3   OH219250   1.539   1.559   4.060  0.0025  0.0418 -0.3208
 6429TIP3    H119251   1.501   1.624   4.001  1.5033  0.9295 -0.3723
 6429TIP3    H219252   1.478   1.555   4.134 -0.1779  1.4718 -0.3531
 6430TIP3   OH219253   4.599   3.200   2.015 -0.0423 -0.0005  0.1109
 6430TIP3    H119254   4.615   3.144   2.091 -2.0784  0.9569  1.3265
 6430TIP3    H219255   4.651   3.278   2.031  1.9798 -1.0139 -1.0808
 6431TIP3   OH219256   4.043   6.325   4.164 -0.0141 -0.3928  0.5296
 6431TIP3    H119257   4.023   6.236   4.193 -3.3837 -0.0156 -0.2505
 6431TIP3    H219258   3.986   6.381   4.215 -1.3657  0.8377 -2.1422
 6432TIP3   OH219259   2.475   3.716   3.021  0.0865  0.1200 -0.2547
 6432TIP3    H119260   2.515   3.801   3.041 -1.9020  0.5228  2.6126
 6432TIP3    H219261   2.534   3.652   3.060  0.7095  0.2895 -0.9010
 6433TIP3   OH219262   6.668   2.239   1.086 -0.2347 -0.1527  0.2857
 6433TIP3    H119263   6.723   2.163   1.070 -0.5422 -0.5734  1.1966
 6433TIP3    H219264   6.618   2.250   1.005  1.0908  0.1835 -0.5312
 6434TIP3   OH219265   1.337   6.086   2.072 -0.2538  0.1741  0.2877
 6434TIP3    H119266   1.326   5.992   2.088 -1.5552 -0.0485 -1.5510
 6434TIP3    H219267   1.399   6.090   1.999  0.7256  0.8130  1.1463
 6435TIP3   OH219268   3.847   4.289   0.995 -0.1745 -0.6062 -0.5052
 6435TIP3    H119269   3.799   4.342   0.931  0.4940 -1.2590 -1.5587
 6435TIP3    H219270   3.939   4.305   0.975  0.1452  0.9640  1.7643
 6436TIP3   OH219271   2.698   5.453   5.051 -0.4554  0.0998  0.4633
 6436TIP3    H119272   2.735   5.484   4.969  0.3968 -0.6330  0.5608
 6436TIP3    H219273   2.738   5.508   5.118 -0.8989  0.4762  0.4266
 6437TIP3   OH219274   2.341   2.546   3.455  0.1389 -0.4534 -0.1756
 6437TIP3    H119275   2.370   2.633   3.428 -0.5479 -0.4985 -1.1020
 6437TIP3    H219276   2.382   2.533   3.540  2.1265 -0.1844 -1.0417
 6438TIP3   OH219277   2.276   1.755   0.906 -0.2490 -0.0117 -0.2944
 6438TIP3    H119278   2.341   1.736   0.838 -1.7975 -1.3205 -1.4964
 6438TIP3    H219279   2.328   1.782   0.982  1.9150 -3.4856 -0.3113
 6439TIP3   OH219280   0.280   5.269   3.496 -0.3883 -0.0128  0.2286
 6439TIP3    H119281   0.346   5.242   3.560 -0.4588 -0.6988  0.0145
 6439TIP3    H219282   0.328   5.320   3.431 -0.1480 -0.1242  0.3199
 6440TIP3   OH219283   1.317   2.149   0.563  0.4499 -0.1551 -0.3984
 6440TIP3    H119284   1.401   2.107   0.582  0.6720 -0.1872 -1.4068
 6440TIP3    H219285   1.282   2.099   0.490 -0.6229 -0.3623  0.2321
 6441TIP3   OH219286   5.402   4.235   5.428 -0.5590  0.0060 -0.7731
 6441TIP3    H119287   5.320   4.209   5.470 -0.5685 -0.4766 -1.0865
 6441TIP3    H219288   5.457   4.157   5.431  0.5041  0.7566  0.8729
 6442TIP3   OH219289   5.933   1.819   4.176 -0.4700  0.0924  0.1101
 6442TIP3    H119290   6.014   1.808   4.226 -0.7873 -0.6990  0.4586
 6442TIP3    H219291   5.864   1.822   4.243 -0.8481 -0.4876 -0.2522
 6443TIP3   OH219292   2.159   4.315   2.117  0.8144 -0.1948 -0.0269
 6443TIP3    H119293   2.114   4.230   2.113  0.1447  0.1918 -0.9939
 6443TIP3    H219294   2.181   4.335   2.026 -1.9616  2.1904 -0.3005
 6444TIP3   OH219295   2.027   4.262   0.786 -0.3351 -0.8017  0.1797
 6444TIP3    H119296   1.965   4.272   0.714 -1.2264 -2.0376  0.7343
 6444TIP3    H219297   2.110   4.241   0.744 -0.9121 -1.8257 -0.5010
 6445TIP3   OH219298   4.171   2.550   1.564  0.3608 -0.0740  0.4095
 6445TIP3    H119299   4.196   2.617   1.500  3.1740 -1.0117  0.3809
 6445TIP3    H219300   4.245   2.489   1.565 -1.8055 -2.9378  0.8226
 6446TIP3   OH219301   7.172   3.032   1.180 -0.2379 -0.3504 -0.3698
 6446TIP3    H119302   7.105   3.094   1.152 -0.4049 -0.7122 -0.7777
 6446TIP3    H219303   7.196   3.061   1.268 -0.3761  0.2402 -0.5234
 6447TIP3   OH219304   7.214   5.167   2.411 -0.3385  0.0833 -0.2082
 6447TIP3    H119305   7.176   5.111   2.478 -1.4587  0.0310 -0.8642
 6447TIP3    H219306   7.253   5.106   2.348 -0.2651  0.0947 -0.1739
 6448TIP3   OH219307   7.148   5.084   3.992 -0.8636 -0.3855  0.4329
 6448TIP3    H119308   7.213   5.095   4.062  0.5724 -0.2797 -0.8734
 6448TIP3    H219309   7.120   5.173   3.972  1.7368  0.0524 -1.8155
 6449TIP3   OH219310   5.228   5.005   3.827 -0.0329 -0.6754 -0.5459
 6449TIP3    H119311   5.312   4.976   3.793  1.4715 -0.2224  2.4465
 6449TIP3    H219312   5.176   4.925   3.834  0.0943 -0.9636 -2.3925
 6450TIP3   OH219313   3.036   3.669   0.895  0.7090  0.1536 -0.4341
 6450TIP3    H119314   2.999   3.664   0.807  0.1507 -1.9978 -0.1448
 6450TIP3    H219315   3.123   3.629   0.886 -0.7692 -3.8207  0.5619
 6451TIP3   OH219316   6.670   4.689   0.989 -0.2446  0.4731 -0.1361
 6451TIP3    H119317   6.649   4.749   0.918  0.3813 -0.5001 -1.1646
 6451TIP3    H219318   6.620   4.610   0.970  1.6260 -0.6229 -0.7562
 6452TIP3   OH219319   2.866   1.410   0.752  0.0716 -0.0960  0.2607
 6452TIP3    H119320   2.890   1.500   0.774 -2.4242  0.7467 -0.0910
 6452TIP3    H219321   2.889   1.401   0.659 -0.6988  0.5972 -0.0088
 6453TIP3   OH219322   4.170   3.152   0.592 -0.8408  0.0832  0.7223
 6453TIP3    H119323   4.199   3.187   0.676  0.2082  0.4841  0.2122
 6453TIP3    H219324   4.212   3.066   0.586  0.9803  0.9844 -0.3626
 6454TIP3   OH219325   5.817   6.048   0.346 -0.5201 -0.1750 -0.3233
 6454TIP3    H119326   5.821   6.044   0.250 -1.3362 -0.8966 -0.3343
 6454TIP3    H219327   5.745   5.989   0.370  1.2351 -1.9667  0.8838
 6455TIP3   OH219328   0.117   2.820   1.754  0.2291 -0.6521  0.1606
 6455TIP3    H119329   0.052   2.761   1.792 -0.9820  0.4558 -0.1537
 6455TIP3    H219330   0.067   2.895   1.722  1.4780 -0.4568 -1.4868
 6456TIP3   OH219331   7.173   0.619   4.077  0.0155 -0.2455  0.4672
 6456TIP3    H119332   7.235   0.681   4.039  0.3134  0.2047  1.6270
 6456TIP3    H219333   7.116   0.594   4.005 -1.3027  2.8328  0.2870
 6457TIP3   OH219334   2.870   6.585   1.556  0.8593  0.0944 -0.3017
 6457TIP3    H119335   2.864   6.631   1.640 -0.8718  0.1651 -0.4235
 6457TIP3    H219336   2.788   6.606   1.512  0.4992 -2.1648 -0.8524
 6458TIP3   OH219337   2.796   2.830   4.705 -0.3779  0.1408  0.0936
 6458TIP3    H119338   2.722   2.796   4.755  0.0802 -0.5378  0.3249
 6458TIP3    H219339   2.821   2.910   4.751 -1.6438  0.9954 -0.6212
 6459TIP3   OH219340   0.774   0.829   0.655  0.1255 -0.6359  0.1156
 6459TIP3    H119341   0.746   0.904   0.603 -1.8174 -0.0310  1.8913
 6459TIP3    H219342   0.694   0.796   0.696  1.5736 -0.3944  3.5289
 6460TIP3   OH219343   3.507   3.176   5.601 -0.3565 -0.0279 -0.4000
 6460TIP3    H119344   3.495   3.127   5.682  1.0119 -2.2334 -1.4224
 6460TIP3    H219345   3.463   3.123   5.535 -0.2030  0.9750 -1.3211
 6461TIP3   OH219346   4.902   0.126   3.954 -0.1663 -0.3513  0.1571
 6461TIP3    H119347   4.922   0.109   4.046  0.4854 -0.5773 -0.0126
 6461TIP3    H219348   4.828   0.069   3.934 -0.2724 -0.3426  0.5282
 6462TIP3   OH219349   6.157   2.821   0.329 -0.1462 -0.2148  0.1899
 6462TIP3    H119350   6.176   2.912   0.352 -0.0080  0.0475 -0.9059
 6462TIP3    H219351   6.072   2.824   0.285 -0.2417 -0.6415  0.3400
 6463TIP3   OH219352   6.169   4.797   1.162 -0.5212  0.2600 -0.1627
 6463TIP3    H119353   6.093   4.838   1.122  0.4221  0.7773 -1.5313
 6463TIP3    H219354   6.243   4.825   1.107  0.2395 -2.9075 -0.9417
 6464TIP3   OH219355   5.864   2.955   5.713 -0.8958  0.7468 -0.5146
 6464TIP3    H119356   5.874   3.050   5.710 -0.0881  0.7345  0.9965
 6464TIP3    H219357   5.950   2.921   5.686 -0.4718  0.4885  1.0889
 6465TIP3   OH219358   2.068   6.105   5.728  1.0028  0.2123 -0.6250
 6465TIP3    H119359   2.057   6.122   5.822  1.6865 -0.5985 -0.3862
 6465TIP3    H219360   2.098   6.189   5.693 -1.9083  1.3755 -0.6540
 6466TIP3   OH219361   6.774   0.401   5.320  0.2402 -0.2802  0.0080
 6466TIP3    H119362   6.807   0.344   5.389 -1.1331 -1.5553 -0.3340
 6466TIP3    H219363   6.758   0.342   5.246  0.0600  0.7777 -0.8255
 6467TIP3   OH219364   0.075   5.449   0.510  0.8866  0.3640  0.5049
 6467TIP3    H119365   0.133   5.511   0.467  0.8427 -0.3780 -0.6597
 6467TIP3    H219366  -0.011   5.491   0.508  0.9948  0.5776  0.3771
 6468TIP3   OH219367   3.177   4.690   0.044 -0.5609  0.2348 -0.3711
 6468TIP3    H119368   3.094   4.647   0.027 -0.3855 -0.4804  0.4849
 6468TIP3    H219369   3.240   4.618   0.050  0.3218  0.8264 -2.0274
 6469TIP3   OH219370   1.997   5.103   1.976 -0.5108  0.1014 -0.4482
 6469TIP3    H119371   1.996   5.081   1.883  0.8390  0.3049 -0.5308
 6469TIP3    H219372   2.088   5.127   1.995 -0.5081 -0.9628  1.1544
 6470TIP3   OH219373   6.126   4.657   3.423  0.0930 -0.1439 -0.1751
 6470TIP3    H119374   6.102   4.707   3.345 -0.3481  0.8836  0.5943
 6470TIP3    H219375   6.200   4.705   3.461 -1.0381  0.6164  1.1820
 6471TIP3   OH219376   2.855   0.992   2.953  0.2686  0.2241  0.3879
 6471TIP3    H119377   2.760   1.001   2.957  0.2530  0.0323  0.5213
 6471TIP3    H219378   2.885   1.017   3.041  0.4290  1.1863  0.0722
 6472TIP3   OH219379   3.579   5.455   4.661  0.1601 -0.2935 -0.1821
 6472TIP3    H119380   3.643   5.384   4.655  0.7429  0.1128  0.9713
 6472TIP3    H219381   3.631   5.532   4.683 -0.6681  0.1595  0.2120
 6473TIP3   OH219382   4.347   2.381   3.394  0.1827 -0.2481 -0.5722
 6473TIP3    H119383   4.287   2.325   3.346  0.0377 -0.2881 -0.3478
 6473TIP3    H219384   4.414   2.322   3.427 -0.0742 -0.3204 -0.1743
 6474TIP3   OH219385   3.868   6.426   5.025 -0.2608  0.5091 -0.4170
 6474TIP3    H119386   3.798   6.472   5.070 -0.9954 -0.7725 -0.2022
 6474TIP3    H219387   3.933   6.409   5.093 -0.2064  0.7973 -0.3958
 6475TIP3   OH219388   5.233   2.270   5.329  0.5259  0.2499  0.0524
 6475TIP3    H119389   5.166   2.214   5.368  1.2219 -0.3596  0.3920
 6475TIP3    H219390   5.195   2.298   5.246  0.4697 -1.3776 -0.5039
 6476TIP3   OH219391   2.713   5.106   2.698 -0.1902  0.8092 -0.0833
 6476TIP3    H119392   2.776   5.040   2.729  0.1083  0.1361 -1.9456
 6476TIP3    H219393   2.755   5.190   2.716  0.4089  0.4233  0.3623
 6477TIP3   OH219394   0.149   0.347   1.279 -0.8253 -0.1152  0.2655
 6477TIP3    H119395   0.168   0.254   1.283 -2.7643 -0.5965 -0.4636
 6477TIP3    H219396   0.194   0.385   1.354 -0.8495 -1.7984  1.1684
 6478TIP3   OH219397   0.030   4.124   3.066  0.7182  0.8586 -0.0944
 6478TIP3    H119398  -0.008   4.168   2.990 -0.4168 -0.0091 -0.0624
 6478TIP3    H219399   0.112   4.086   3.034 -0.8239 -1.4853 -1.6045
 6479TIP3   OH219400   0.809   0.093   5.317  0.4642  0.1683  0.0731
 6479TIP3    H119401   0.796   0.072   5.409  2.3015 -0.5755  0.2150
 6479TIP3    H219402   0.896   0.058   5.297  0.0189  0.1194 -2.0015
 6480TIP3   OH219403   1.107   5.536   5.473  0.4197  0.1224 -0.4709
 6480TIP3    H119404   1.149   5.502   5.553 -0.1775  3.6782  1.5761
 6480TIP3    H219405   1.180   5.569   5.421  0.6721 -0.2945 -0.3903
 6481TIP3   OH219406   1.772   0.016   2.776 -0.1225  0.4368  0.7147
 6481TIP3    H119407   1.792   0.095   2.826 -0.3314  1.7002 -1.1078
 6481TIP3    H219408   1.828   0.022   2.698 -2.1107  0.2499 -0.8126
 6482TIP3   OH219409   0.586   6.728   5.803 -0.1411 -0.2888 -0.5146
 6482TIP3    H119410   0.652   6.789   5.835 -0.2112 -1.0534  1.1946
 6482TIP3    H219411   0.533   6.780   5.742  1.4416  0.5847 -1.2137
 6483TIP3   OH219412   0.537   4.909   5.208 -0.2520 -0.4221 -0.0652
 6483TIP3    H119413   0.545   4.952   5.293  1.6509 -1.3611  0.2742
 6483TIP3    H219414   0.451   4.936   5.176  0.4210  2.9068  0.5030
 6484TIP3   OH219415   4.944   5.267   3.320 -0.4264 -0.1173 -0.1597
 6484TIP3    H119416   4.862   5.221   3.305  1.2262 -2.6984 -2.1661
 6484TIP3    H219417   4.930   5.354   3.283 -2.7518  0.1738  1.1764
 6485TIP3   OH219418   3.411   5.815   3.313 -0.0336 -0.1855  0.1145
 6485TIP3    H119419   3.412   5.719   3.308 -2.9917 -0.3186  0.4567
 6485TIP3    H219420   3.428   5.844   3.224  0.2955 -1.0348 -0.1074
 6486TIP3   OH219421   2.261   3.943   0.264  0.4689 -0.0569 -0.0882
 6486TIP3    H119422   2.242   3.857   0.225 -0.9813  0.5713 -0.8677
 6486TIP3    H219423   2.350   3.935   0.297 -0.0606 -2.2964  1.0415
 6487TIP3   OH219424   5.500   1.084   1.891  0.5814  0.1112  0.0555
 6487TIP3    H119425   5.417   1.130   1.900  0.2245 -0.4443 -0.3113
 6487TIP3    H219426   5.545   1.128   1.819  1.1285  1.1534  0.9898
 6488TIP3   OH219427   5.191   5.622   3.072 -0.2237 -0.2766  0.2332
 6488TIP3    H119428   5.182   5.660   3.159 -1.9169  1.2832 -0.5534
 6488TIP3    H219429   5.250   5.681   3.026  1.0677 -1.3695  0.4133
 6489TIP3   OH219430   6.884   6.109   1.439 -0.6448  0.3539  0.1233
 6489TIP3    H119431   6.884   6.029   1.490 -2.2350 -0.3910 -0.9535
 6489TIP3    H219432   6.921   6.175   1.497 -1.2382 -0.7168  1.7774
 6490TIP3   OH219433   2.917   4.653   4.151 -0.4008  1.0865 -0.7816
 6490TIP3    H119434   2.909   4.698   4.067 -1.2321 -0.9044 -1.8256
 6490TIP3    H219435   2.884   4.565   4.135  2.1137 -0.2804  0.9016
 6491TIP3   OH219436   0.064   2.546   2.935  0.3824  0.4049  0.8745
 6491TIP3    H119437  -0.013   2.603   2.929  0.1682  0.2326  1.7860
 6491TIP3    H219438   0.138   2.605   2.922  0.0919  0.3618 -1.3909
 6492TIP3   OH219439   6.482   1.256   2.318 -0.8181  0.2126  0.0997
 6492TIP3    H119440   6.470   1.282   2.409  0.9156  3.7895 -0.5086
 6492TIP3    H219441   6.408   1.295   2.272  0.1125  1.4235 -0.4222
 6493TIP3   OH219442   3.038   2.333   2.861 -0.4482 -0.1118 -0.8216
 6493TIP3    H119443   3.130   2.359   2.869 -0.2695 -0.0071 -2.7879
 6493TIP3    H219444   3.001   2.349   2.948  1.2573  0.3495 -0.1409
 6494TIP3   OH219445   0.598   4.460   3.954 -0.1229 -0.1820 -0.2705
 6494TIP3    H119446   0.642   4.469   4.039  2.2567 -3.2002 -0.9824
 6494TIP3    H219447   0.526   4.400   3.971 -0.7706  0.6307 -0.0893
 6495TIP3   OH219448   1.554   3.967   4.294  0.3842 -0.1625  0.0920
 6495TIP3    H119449   1.586   3.886   4.334  0.7349 -1.0846 -1.9396
 6495TIP3    H219450   1.598   4.036   4.343  0.6307 -1.1993  1.4095
 6496TIP3   OH219451   4.658   4.657   4.322 -0.5281  0.5097 -0.0684
 6496TIP3    H119452   4.681   4.590   4.386 -1.1680  0.5271  0.1772
 6496TIP3    H219453   4.581   4.700   4.358 -1.4828 -0.1115 -1.2908
 6497TIP3   OH219454   3.022   1.195   3.191  0.2037 -0.3884 -0.0194
 6497TIP3    H119455   2.963   1.263   3.220  0.7855 -0.0088  0.2991
 6497TIP3    H219456   3.069   1.168   3.270 -0.2728 -1.4225 -0.0657
 6498TIP3   OH219457   6.957   2.301   0.085  0.1251  0.2087 -0.5455
 6498TIP3    H119458   6.930   2.355   0.160 -3.4585 -1.6140 -0.3047
 6498TIP3    H219459   6.951   2.360   0.010 -0.8748  0.8980  0.0496
 6499TIP3   OH219460   6.193   1.275   4.754 -0.2112 -0.1811 -0.4568
 6499TIP3    H119461   6.258   1.211   4.726  0.1790  0.0915 -0.1917
 6499TIP3    H219462   6.113   1.224   4.767 -0.0890 -0.4973 -0.9195
 6500TIP3   OH219463   3.130   6.591   1.443 -0.8108  0.3309 -0.1544
 6500TIP3    H119464   3.054   6.612   1.497 -1.9044 -0.6578 -1.2254
 6500TIP3    H219465   3.093   6.574   1.356  1.0186  3.5927 -1.7623
 6501TIP3   OH219466   3.755   1.981   5.754  0.2201  0.2729 -0.5908
 6501TIP3    H119467   3.848   1.978   5.731  0.6283  1.0531  0.8518
 6501TIP3    H219468   3.727   1.890   5.753  1.7525 -0.3087  1.7751
 6502TIP3   OH219469   7.006   1.724   0.218 -0.4613  0.3328 -0.8218
 6502TIP3    H119470   7.027   1.809   0.179 -2.2425  1.7668  1.1403
 6502TIP3    H219471   7.091   1.685   0.238  0.4770  3.0300  1.0243
 6503TIP3   OH219472   1.962  -0.003   2.546  0.7847  0.0383  0.2519
 6503TIP3    H119473   1.988   0.089   2.541  1.1062 -0.0683 -0.1180
 6503TIP3    H219474   2.045  -0.051   2.548  0.6602 -0.1820  2.1473
 6504TIP3   OH219475   6.447   0.708   2.327  0.0417 -0.0623 -0.4184
 6504TIP3    H119476   6.457   0.741   2.416 -1.2033  0.3177 -0.3972
 6504TIP3    H219477   6.473   0.616   2.333  0.4211  0.0809  0.2367
 6505TIP3   OH219478   2.923   6.371   1.357  0.2397 -0.3386 -0.3393
 6505TIP3    H119479   2.902   6.286   1.396 -1.6652  0.4371  0.4823
 6505TIP3    H219480   2.959   6.423   1.429  0.3310 -0.1056 -0.5496
 6506TIP3   OH219481   5.320   0.901   2.263  0.1666 -0.6820 -0.7389
 6506TIP3    H119482   5.277   0.894   2.349 -0.6870 -0.1142 -1.1082
 6506TIP3    H219483   5.298   0.988   2.232 -0.4247 -1.2521 -1.9932
 6507TIP3   OH219484   3.351   4.425   0.621 -0.6189 -0.0666  0.2555
 6507TIP3    H119485   3.286   4.473   0.671 -0.3421 -0.3353  0.8871
 6507TIP3    H219486   3.348   4.336   0.656  0.1364 -0.0636  0.3568
 6508TIP3   OH219487   2.908   4.369   5.686  0.0603 -0.4761  0.0632
 6508TIP3    H119488   2.929   4.428   5.613  0.5165 -0.8019 -0.0720
 6508TIP3    H219489   2.819   4.339   5.668 -0.0308 -0.1291 -0.0697
 6509TIP3   OH219490   4.841   1.215   4.577 -0.0275 -0.8061  0.3405
 6509TIP3    H119491   4.750   1.229   4.551  0.4007 -0.4197 -1.0041
 6509TIP3    H219492   4.870   1.300   4.611  0.0254 -0.7421  0.1380
 6510TIP3   OH219493   4.139   6.075   3.974  0.0371  0.4840  0.4004
 6510TIP3    H119494   4.054   6.072   4.018  0.6421  0.0271  1.5697
 6510TIP3    H219495   4.155   5.985   3.946  0.2981  0.4948  0.5091
 6511TIP3   OH219496   6.094   1.190   0.094  0.1631  0.2205 -0.8069
 6511TIP3    H119497   6.121   1.138   0.170  0.8319  1.1930 -0.3654
 6511TIP3    H219498   6.012   1.149   0.065  0.3886 -0.7269 -0.1281
 6512TIP3   OH219499   1.883   2.124   1.933  0.3092 -0.2871  0.2353
 6512TIP3    H119500   1.932   2.098   2.011  2.5677  1.7109 -0.4052
 6512TIP3    H219501   1.888   2.047   1.876  0.8369 -0.8866  1.0626
 6513TIP3   OH219502   3.370   0.389   1.749 -0.2740  0.8550 -0.1558
 6513TIP3    H119503   3.456   0.431   1.748  1.3103 -2.0448  1.3728
 6513TIP3    H219504   3.366   0.342   1.666  0.7681 -0.9561  0.7624
 6514TIP3   OH219505   0.055   2.212   3.271  0.4412  0.0709 -0.5510
 6514TIP3    H119506   0.108   2.232   3.194  0.9215  0.9811  0.0055
 6514TIP3    H219507  -0.011   2.281   3.274  0.0431 -0.3059 -0.4821
 6515TIP3   OH219508   3.735   6.162   3.866 -0.6102  0.1388 -0.5919
 6515TIP3    H119509   3.778   6.245   3.887  0.5079 -0.7848  0.9466
 6515TIP3    H219510   3.671   6.150   3.936 -1.3282  0.0802 -1.2506
 6516TIP3   OH219511   4.313   6.446   0.833 -0.5733  0.1786  0.0113
 6516TIP3    H119512   4.293   6.540   0.838 -1.2099  0.0577 -0.2868
 6516TIP3    H219513   4.231   6.402   0.856 -0.2921 -0.3099  0.0980
 6517TIP3   OH219514   2.219   3.177   5.044  0.1529 -0.0272 -0.3511
 6517TIP3    H119515   2.187   3.167   4.955  0.5555 -1.0896 -0.3837
 6517TIP3    H219516   2.269   3.259   5.042  0.4626 -0.2256 -1.1972
 6518TIP3   OH219517   5.145   1.727   2.500 -0.1463  0.4971  0.1772
 6518TIP3    H119518   5.079   1.796   2.490 -0.1804  0.3876 -0.3935
 6518TIP3    H219519   5.095   1.649   2.526 -0.1858  0.5279  0.1939
 6519TIP3   OH219520   4.004   4.153   2.943  0.3701  0.0126  0.0195
 6519TIP3    H119521   4.084   4.194   2.911  1.6461  0.0008  2.8462
 6519TIP3    H219522   3.964   4.220   2.998 -1.1841 -0.2698 -0.7228
 6520TIP3   OH219523   6.784   5.030   0.205  0.0538 -0.0271  0.0620
 6520TIP3    H119524   6.820   4.992   0.125 -0.7206 -0.8860  0.1041
 6520TIP3    H219525   6.692   5.003   0.206 -0.7225  2.3764 -0.2072
 6521TIP3   OH219526   4.250   0.587   4.098 -0.0361  0.6495  0.0775
 6521TIP3    H119527   4.246   0.498   4.132  1.3074 -0.7125 -2.9036
 6521TIP3    H219528   4.321   0.628   4.146 -0.2025 -0.1217  1.0119
 6522TIP3   OH219529   5.999   5.122   0.775 -0.3862  0.0286  0.1579
 6522TIP3    H119530   5.908   5.108   0.748 -0.1217  0.6675 -1.1049
 6522TIP3    H219531   6.003   5.215   0.798  0.2520  0.3113 -1.0490
 6523TIP3   OH219532   3.012   1.804   2.593  0.0107  0.2942 -0.3419
 6523TIP3    H119533   3.018   1.709   2.577  0.0934  0.2007  0.2040
 6523TIP3    H219534   2.977   1.810   2.682 -2.1993  0.7961 -1.1903
 6524TIP3   OH219535   3.619   2.244   0.159 -0.4100  0.0297  0.3907
 6524TIP3    H119536   3.546   2.284   0.112  0.7111 -1.3137 -2.8005
 6524TIP3    H219537   3.609   2.150   0.143  2.9463 -0.1049 -1.9082
 6525TIP3   OH219538   0.155   5.359   4.093  0.2715  0.1217 -0.1665
 6525TIP3    H119539   0.236   5.343   4.045 -0.4209 -2.6687 -0.5905
 6525TIP3    H219540   0.122   5.442   4.058  1.2269 -0.4058 -2.4974
 6526TIP3   OH219541   2.076   3.905   1.558  0.0329  0.2056  0.4028
 6526TIP3    H119542   2.056   3.912   1.464  0.8742  0.8120  0.2514
 6526TIP3    H219543   2.007   3.849   1.593 -0.8665  0.7759 -0.3959
 6527TIP3   OH219544   0.917   6.556   1.095  0.1795 -0.5914 -0.1225
 6527TIP3    H119545   0.910   6.535   1.188 -1.3603 -1.1052 -0.3205
 6527TIP3    H219546   0.859   6.493   1.052  1.5718 -0.9660 -1.5293
 6528TIP3   OH219547   4.476   6.416   2.441 -0.1712 -0.3657 -0.0494
 6528TIP3    H119548   4.533   6.456   2.376  0.1768 -1.0614 -0.1776
 6528TIP3    H219549   4.416   6.361   2.391 -1.9589  1.4685 -0.0730
 6529TIP3   OH219550   4.353   3.872   5.600 -0.1031 -0.0929  0.2472
 6529TIP3    H119551   4.414   3.838   5.667 -0.2044 -0.1548  0.3080
 6529TIP3    H219552   4.321   3.794   5.556 -0.1010 -0.0564  0.1817
 6530TIP3   OH219553   5.385   5.801   2.969  0.8486  0.1402 -0.3157
 6530TIP3    H119554   5.400   5.831   3.058  0.6371 -0.7651  0.0339
 6530TIP3    H219555   5.349   5.877   2.923 -0.2565  0.2465  0.6952
 6531TIP3   OH219556   2.784   2.161   5.417  0.1661 -0.2798  0.1877
 6531TIP3    H119557   2.750   2.188   5.502 -0.0040 -0.8701  0.3126
 6531TIP3    H219558   2.850   2.227   5.395  2.1438 -1.5429  2.0003
 6532TIP3   OH219559   1.399   2.369   5.624 -0.3913  0.0316  0.3325
 6532TIP3    H119560   1.373   2.361   5.532 -0.9923  0.3436  0.4680
 6532TIP3    H219561   1.424   2.280   5.650 -0.5927 -0.1316 -0.0227
 6533TIP3   OH219562   3.513   2.389   5.027  0.1258  0.1885 -0.0212
 6533TIP3    H119563   3.486   2.409   5.116 -0.0741  0.0475 -0.0500
 6533TIP3    H219564   3.560   2.467   4.998  4.4853 -1.4425  1.8831
 6534TIP3   OH219565   1.316   3.395   1.623 -0.1840  0.2409  0.1191
 6534TIP3    H119566   1.411   3.392   1.633  0.1332 -0.4993 -2.3128
 6534TIP3    H219567   1.297   3.328   1.557 -2.4163  0.2817  0.6433
 6535TIP3   OH219568   2.327   2.106   5.467  0.2882 -0.0855 -0.3355
 6535TIP3    H119569   2.265   2.068   5.404  1.6101 -0.5929 -1.3587
 6535TIP3    H219570   2.410   2.062   5.450  1.2050  1.3007  0.3126
 6536TIP3   OH219571   0.579   0.556   5.730 -0.2545 -0.0620  0.2480
 6536TIP3    H119572   0.581   0.571   5.636 -2.4239 -1.0091 -0.0251
 6536TIP3    H219573   0.582   0.643   5.769 -0.6761  0.4114 -0.7458
 6537TIP3   OH219574   5.957   6.593   1.041  0.5454 -0.1473  0.4709
 6537TIP3    H119575   6.021   6.635   1.097 -0.0068  3.0104 -1.0713
 6537TIP3    H219576   5.874   6.636   1.062  0.4500  1.8428 -3.1714
 6538TIP3   OH219577   6.012   4.324   0.395 -0.1664 -0.4350  0.2538
 6538TIP3    H119578   6.071   4.323   0.470  0.7311 -1.7651 -0.4332
 6538TIP3    H219579   6.029   4.241   0.350 -1.7741 -0.3490 -0.5813
 6539TIP3   OH219580   5.280   0.045   4.972 -0.1512  0.0106 -0.2981
 6539TIP3    H119581   5.195   0.088   4.984 -0.2745 -0.4337  0.4599
 6539TIP3    H219582   5.261  -0.048   4.980  0.5846 -0.0387  1.0358
 6540TIP3   OH219583   4.166   6.198   1.443  0.0182  0.2951  0.0815
 6540TIP3    H119584   4.139   6.216   1.353 -1.1076  2.1734  0.7419
 6540TIP3    H219585   4.113   6.257   1.496  0.7457 -0.6868  1.9862
 6541TIP3   OH219586   5.419   4.342   5.776  0.1833 -0.1450  0.1515
 6541TIP3    H119587   5.368   4.422   5.786 -0.4519 -0.5165 -0.0149
 6541TIP3    H219588   5.482   4.362   5.707 -0.2396  0.0893 -0.1770
 6542TIP3   OH219589   1.662   4.002   0.665 -0.4042  0.4035 -0.0937
 6542TIP3    H119590   1.626   3.923   0.705 -0.8875  1.0149  0.6903
 6542TIP3    H219591   1.739   4.022   0.718  0.6265 -0.3917 -1.2223
 6543TIP3   OH219592   6.935   4.804   3.224  0.2401 -0.6241 -0.2186
 6543TIP3    H119593   6.980   4.762   3.151 -0.4876  0.4450 -1.3304
 6543TIP3    H219594   6.866   4.856   3.182 -0.2568 -0.0601  1.2469
 6544TIP3   OH219595   2.457   3.865   3.806 -0.1664 -0.1173 -0.2102
 6544TIP3    H119596   2.537   3.812   3.811  0.8214  0.9123 -3.1340
 6544TIP3    H219597   2.402   3.818   3.743 -0.1979  1.1767 -1.1648
 6545TIP3   OH219598   3.391   2.857   0.345 -0.4119 -0.5009  0.7154
 6545TIP3    H119599   3.321   2.868   0.409 -0.8766 -1.3505  0.3782
 6545TIP3    H219600   3.409   2.945   0.313 -0.7133 -0.1674  1.4422
 6546TIP3   OH219601   0.465   4.201   2.915 -0.2358 -0.6375  0.0314
 6546TIP3    H119602   0.533   4.224   2.852  0.1912 -1.8892  0.0144
 6546TIP3    H219603   0.507   4.137   2.973 -0.4467  0.8548  1.9276
 6547TIP3   OH219604   1.890   2.822   2.908  0.1382  0.1479  0.3930
 6547TIP3    H119605   1.827   2.760   2.946 -0.6422  0.2995 -0.6234
 6547TIP3    H219606   1.920   2.874   2.983 -0.9474  0.0755  0.8942
 6548TIP3   OH219607   6.313   1.933   4.477 -0.1189  0.3426  0.1812
 6548TIP3    H119608   6.407   1.953   4.468  0.5075 -1.8902  1.1178
 6548TIP3    H219609   6.289   1.896   4.392  0.3795 -0.9066  0.5628
 6549TIP3   OH219610   1.537   2.025   3.677  0.1761 -0.7261 -0.5207
 6549TIP3    H119611   1.627   1.998   3.659  0.2191 -0.4395 -0.7435
 6549TIP3    H219612   1.491   1.943   3.695  0.9247 -0.7337  1.6771
 6550TIP3   OH219613   0.703   3.640   1.116 -0.7074 -0.3986 -0.2233
 6550TIP3    H119614   0.772   3.585   1.152  0.1172  0.5943 -0.2341
 6550TIP3    H219615   0.746   3.690   1.046 -1.3251  0.5493  0.0531
 6551TIP3   OH219616   3.389   2.228   2.043 -0.3544 -0.5160  0.7257
 6551TIP3    H119617   3.460   2.291   2.028 -1.3913  0.8692  1.4015
 6551TIP3    H219618   3.363   2.201   1.955 -2.1872  2.7096  0.0995
 6552TIP3   OH219619   4.327   2.340   1.590  0.3594 -0.2269  0.0581
 6552TIP3    H119620   4.322   2.281   1.665  0.9151 -1.8598 -1.1373
 6552TIP3    H219621   4.264   2.304   1.527 -0.9982  1.8149  0.1753
 6553TIP3   OH219622   3.866   5.103   5.169 -0.0812 -0.4117  0.1359
 6553TIP3    H119623   3.806   5.047   5.119  0.0493 -1.3626  1.0074
 6553TIP3    H219624   3.809   5.148   5.231 -0.2877  1.0130 -1.0479
 6554TIP3   OH219625   2.320   0.553   0.787 -0.0252 -0.2191  0.3429
 6554TIP3    H119626   2.395   0.612   0.791  1.2120 -1.7670  0.9013
 6554TIP3    H219627   2.344   0.487   0.722 -0.0061 -1.8575  1.9247
 6555TIP3   OH219628   6.908   5.882   4.376 -0.6804 -0.1595 -0.6894
 6555TIP3    H119629   6.879   5.971   4.359  1.5223  0.9979  0.9952
 6555TIP3    H219630   6.865   5.829   4.309 -4.0891  1.7129 -0.2409
 6556TIP3   OH219631   2.839   1.881   4.506 -0.4021  0.5659  0.3112
 6556TIP3    H119632   2.916   1.837   4.470 -1.5083 -1.1636 -0.0574
 6556TIP3    H219633   2.795   1.918   4.429 -1.5095 -1.0876  0.0958
 6557TIP3   OH219634   1.408   5.190   2.954 -0.3611 -0.5960 -0.3918
 6557TIP3    H119635   1.406   5.149   3.040 -1.4880  0.0719 -0.0725
 6557TIP3    H219636   1.411   5.117   2.892 -0.1031 -1.0915  0.1928
 6558TIP3   OH219637   5.070   0.571   1.046  0.3532  0.0594  0.1589
 6558TIP3    H119638   5.093   0.517   0.970 -0.6464 -2.7564  1.6963
 6558TIP3    H219639   5.154   0.598   1.082  0.8853  0.0274 -0.9997
 6559TIP3   OH219640   1.839   5.567   0.293 -0.0225 -0.4756  0.1750
 6559TIP3    H119641   1.816   5.648   0.339  3.4110 -0.2047  1.6732
 6559TIP3    H219642   1.849   5.594   0.202 -0.8276  0.3237  0.3009
 6560TIP3   OH219643   4.644   0.085   0.146 -0.4086  0.5173  0.0409
 6560TIP3    H119644   4.572   0.092   0.209 -1.0695 -0.3783 -0.5943
 6560TIP3    H219645   4.722   0.106   0.197 -0.9259 -0.2211  1.1764
 6561TIP3   OH219646   5.562   3.833   3.764  0.3390 -0.4050  0.2477
 6561TIP3    H119647   5.524   3.814   3.678 -0.6701  2.6004 -0.0677
 6561TIP3    H219648   5.620   3.907   3.750 -0.0114  0.3016  2.1958
 6562TIP3   OH219649   2.910   6.133   5.700  0.4322  0.0320  0.6431
 6562TIP3    H119650   2.834   6.084   5.668 -0.1926  1.7765 -0.7255
 6562TIP3    H219651   2.943   6.081   5.773 -3.1438  0.0481  2.4631
 6563TIP3   OH219652   3.177   1.522   4.888 -0.7569  0.0053 -0.2638
 6563TIP3    H119653   3.191   1.430   4.910 -0.4380 -0.0498 -0.6712
 6563TIP3    H219654   3.101   1.522   4.831 -1.7986  0.1862  1.0861
 6564TIP3   OH219655   3.298   4.395   1.494  0.1624 -0.2303 -0.1227
 6564TIP3    H119656   3.376   4.449   1.485 -0.0142 -0.2127 -1.8320
 6564TIP3    H219657   3.256   4.427   1.573  2.0099 -0.4231  1.0014
 6565TIP3   OH219658   5.710   1.140   1.716  0.6767 -0.5309 -0.4974
 6565TIP3    H119659   5.758   1.180   1.789 -0.2181 -0.1209 -0.1169
 6565TIP3    H219660   5.778   1.104   1.660  1.4792  0.6550 -0.3423
 6566TIP3   OH219661   0.553   6.767   0.506  0.3660  0.3169 -0.2181
 6566TIP3    H119662   0.498   6.810   0.572 -1.9867 -2.6524 -0.0392
 6566TIP3    H219663   0.570   6.836   0.442  1.2220  2.8453  2.4451
 6567TIP3   OH219664   6.598   4.800   0.045 -0.6389 -0.0081 -0.0948
 6567TIP3    H119665   6.688   4.805   0.014 -0.6687 -0.9885 -0.3509
 6567TIP3    H219666   6.581   4.707   0.059 -1.3233  0.2292  0.8282
 6568TIP3   OH219667   5.034   5.301   5.353 -0.6078 -0.0509 -0.0943
 6568TIP3    H119668   5.034   5.244   5.430 -1.2208 -0.5125 -0.4267
 6568TIP3    H219669   4.942   5.326   5.342 -0.4400  0.4463 -0.3569
 6569TIP3   OH219670   3.912   5.696   5.535 -0.2144 -0.2282 -0.1461
 6569TIP3    H119671   3.902   5.746   5.615  1.9156 -1.3596  0.9035
 6569TIP3    H219672   3.903   5.761   5.465 -0.1925  1.1209  1.0518
 6570TIP3   OH219673   2.640   0.926   1.953  0.1309 -0.1334  0.1549
 6570TIP3    H119674   2.725   0.903   1.915 -0.9190 -1.8224 -1.3566
 6570TIP3    H219675   2.648   1.018   1.976  1.8224  0.2045 -1.5211
 6571TIP3   OH219676   4.762   0.830   1.403 -0.5192 -0.1537  0.8116
 6571TIP3    H119677   4.716   0.766   1.458 -0.8299 -0.0563  0.6735
 6571TIP3    H219678   4.738   0.805   1.314 -0.1380 -0.2220  0.7294
 6572TIP3   OH219679   4.905   4.026   3.178 -0.2759  1.0779  0.3540
 6572TIP3    H119680   4.971   4.093   3.162  1.2008 -0.2563  0.5223
 6572TIP3    H219681   4.954   3.944   3.178 -1.8902  0.0526  0.9120
 6573TIP3   OH219682   0.684   5.856   4.615  0.0545 -0.0571 -0.4940
 6573TIP3    H119683   0.640   5.817   4.691 -0.1372  0.5710 -0.2766
 6573TIP3    H219684   0.621   5.920   4.582  1.1956  1.6813  0.4828
 6574TIP3   OH219685   5.736   1.808   2.764 -0.3612  0.2868 -0.1963
 6574TIP3    H119686   5.659   1.796   2.819  0.2925  0.1316  0.6990
 6574TIP3    H219687   5.706   1.862   2.691 -1.3745  0.0108  0.0092
 6575TIP3   OH219688   0.849   3.812   0.904  0.4386  0.1890  0.4899
 6575TIP3    H119689   0.780   3.823   0.838  0.1646  0.8395  0.8738
 6575TIP3    H219690   0.926   3.787   0.854  0.2565  0.7732 -0.0977
 6576TIP3   OH219691   0.039   0.652   2.401 -0.7117 -0.0450  0.0450
 6576TIP3    H119692   0.027   0.719   2.334 -1.5804  0.9372  1.1366
 6576TIP3    H219693  -0.019   0.679   2.472  3.0759  1.3462  3.0196
 6577TIP3   OH219694   3.919   2.988   0.055  0.0577  0.4897 -0.1034
 6577TIP3    H119695   3.931   2.915  -0.006  1.5670  0.0917  0.6159
 6577TIP3    H219696   3.854   3.044   0.012 -1.1763 -1.2705 -0.6571
 6578TIP3   OH219697   7.210   2.192   0.101  0.1499 -0.6863  0.7183
 6578TIP3    H119698   7.173   2.114   0.059 -1.2008  0.6522 -0.7213
 6578TIP3    H219699   7.137   2.254   0.104  0.9764  0.2787  2.5459
 6579TIP3   OH219700   4.174   0.422   0.857 -0.2626 -0.2451  0.1905
 6579TIP3    H119701   4.178   0.368   0.778 -1.4251 -0.1818  0.0707
 6579TIP3    H219702   4.156   0.511   0.825  1.0764  0.1453  0.4247
 6580TIP3   OH219703   6.821   2.229   3.506  0.0321 -0.1235 -0.6051
 6580TIP3    H119704   6.779   2.281   3.575  1.1404 -0.4540  0.3623
 6580TIP3    H219705   6.765   2.240   3.430 -2.5053 -1.5361  0.9144
 6581TIP3   OH219706   5.364   4.906   0.165 -0.1001 -0.0222  0.6093
 6581TIP3    H119707   5.436   4.867   0.215  0.0324  0.3173  0.6839
 6581TIP3    H219708   5.351   4.846   0.091  0.3398 -0.0197  0.5293
 6582TIP3   OH219709   2.760   3.528   0.438 -0.3965 -0.3259 -0.4264
 6582TIP3    H119710   2.809   3.504   0.358 -2.2032  0.0990 -1.7230
 6582TIP3    H219711   2.674   3.554   0.406 -0.8947  0.7172  1.6194
 6583TIP3   OH219712   0.776   4.550   3.049  0.1637  0.1651 -0.3805
 6583TIP3    H119713   0.846   4.487   3.064  0.0725  0.5551  1.9369
 6583TIP3    H219714   0.695   4.501   3.063  0.0924  0.7461  1.4232
 6584TIP3   OH219715   3.626   4.150   5.491  0.2325 -0.2612  0.4427
 6584TIP3    H119716   3.577   4.123   5.569  0.8875  0.6334  1.1975
 6584TIP3    H219717   3.609   4.082   5.427  0.0385 -1.2593  1.5163
 6585TIP3   OH219718   4.689   4.197   2.250  0.3919  0.2411  0.1934
 6585TIP3    H119719   4.678   4.106   2.280  0.7056 -0.3368 -1.3564
 6585TIP3    H219720   4.654   4.250   2.322  0.5033 -1.0878  1.2759
 6586TIP3   OH219721   5.998   5.900   5.668  0.3081  0.0322 -0.9824
 6586TIP3    H119722   5.946   5.938   5.739  1.6571  0.8135 -0.3536
 6586TIP3    H219723   5.935   5.878   5.600 -0.8786  0.4670 -0.0528
 6587TIP3   OH219724   5.354   0.093   0.979  0.3369 -0.3030 -0.4196
 6587TIP3    H119725   5.422   0.026   0.970 -0.5272 -1.3957  0.7877
 6587TIP3    H219726   5.382   0.146   1.054  0.1996 -0.3381 -0.3426
 6588TIP3   OH219727   4.629   4.590   3.374 -0.3590 -0.1126 -0.0151
 6588TIP3    H119728   4.664   4.541   3.449  0.5150 -0.7110 -0.7860
 6588TIP3    H219729   4.608   4.676   3.409 -0.4356 -0.5493  1.0309
 6589TIP3   OH219730   5.757   4.407   1.457 -0.6264 -0.9943  0.6981
 6589TIP3    H119731   5.780   4.314   1.451  1.0216 -0.6138  0.8945
 6589TIP3    H219732   5.751   4.424   1.551 -1.5135 -1.0230  0.6555
 6590TIP3   OH219733   7.007   3.502   3.790 -0.3054 -0.0709  0.0124
 6590TIP3    H119734   7.051   3.586   3.773  0.9049 -0.8909 -1.1462
 6590TIP3    H219735   7.069   3.454   3.845 -0.0196 -0.9858 -1.0774
 6591TIP3   OH219736   0.209   1.035   4.337 -0.2366 -0.2686  0.4723
 6591TIP3    H119737   0.227   1.062   4.427 -0.4161  0.8264  0.1955
 6591TIP3    H219738   0.281   1.072   4.286 -0.5783 -0.1621  0.0617
 6592TIP3   OH219739   1.829   6.369   2.956 -0.4278  0.2708 -0.2291
 6592TIP3    H119740   1.739   6.336   2.955 -0.4477  0.2738 -2.4455
 6592TIP3    H219741   1.839   6.415   2.873  2.2438 -1.5312 -1.0546
 6593TIP3   OH219742   0.731   5.533   1.375  0.1963  0.5023  0.6494
 6593TIP3    H119743   0.806   5.564   1.325  0.8565 -2.8764 -0.7847
 6593TIP3    H219744   0.669   5.501   1.308 -0.1177 -1.6104  1.8403
 6594TIP3   OH219745   5.132   2.435   4.222  0.1149 -0.8194 -0.3764
 6594TIP3    H119746   5.073   2.361   4.202  0.1996 -1.3147  1.0800
 6594TIP3    H219747   5.146   2.429   4.316  1.7861 -0.1546 -0.5546
 6595TIP3   OH219748   3.989   0.420   4.319  0.5462 -0.5643  0.0104
 6595TIP3    H119749   3.894   0.435   4.321  0.2632 -2.2558  1.7085
 6595TIP3    H219750   4.000   0.344   4.262  0.5713 -2.0020  1.8663
 6596TIP3   OH219751   5.191   6.142   2.458 -0.1279  0.1860  0.6238
 6596TIP3    H119752   5.246   6.072   2.422 -0.6443 -0.3706  0.8835
 6596TIP3    H219753   5.205   6.217   2.401 -1.1637 -0.7633 -0.9362
 6597TIP3   OH219754   4.562   2.392   4.275 -0.5785  0.0408  0.0970
 6597TIP3    H119755   4.644   2.431   4.247 -1.6056  0.4755 -2.5877
 6597TIP3    H219756   4.525   2.455   4.337 -0.7612  1.9366 -1.8258
 6598TIP3   OH219757   3.868   4.801   1.795 -0.2611  0.0999 -0.1976
 6598TIP3    H119758   3.856   4.873   1.856 -0.2072  0.2879 -0.4088
 6598TIP3    H219759   3.961   4.803   1.774  0.1102 -1.0974  1.1232
 6599TIP3   OH219760   1.278   0.179   0.428 -0.5888  0.5743 -0.5115
 6599TIP3    H119761   1.346   0.126   0.470 -0.4877  1.8054  1.0219
 6599TIP3    H219762   1.288   0.162   0.335  1.3308  0.1149 -0.2799
 6600TIP3   OH219763   3.218   4.240   4.186  0.4165 -0.7695  0.6946
 6600TIP3    H119764   3.234   4.293   4.109  1.1108  1.7024  2.4010
 6600TIP3    H219765   3.133   4.269   4.218  0.1558 -1.7234  0.8936
 6601TIP3   OH219766   3.396   5.128   0.981  0.1034  0.5650 -0.1683
 6601TIP3    H119767   3.323   5.099   0.926  1.3299 -3.2032 -0.0969
 6601TIP3    H219768   3.441   5.193   0.928 -0.7635 -0.3562 -2.1487
 6602TIP3   OH219769   3.479   6.345   2.911 -0.6855 -0.1280 -0.6855
 6602TIP3    H119770   3.509   6.334   3.001  1.0127 -0.0675 -1.2036
 6602TIP3    H219771   3.453   6.437   2.905 -1.7821 -0.3789 -0.0078
 6603TIP3   OH219772   3.501   5.718   1.576 -0.4300  0.2196  0.3625
 6603TIP3    H119773   3.467   5.806   1.590 -2.6946 -0.6475  0.8071
 6603TIP3    H219774   3.488   5.701   1.483  1.8454  1.0042 -0.1642
 6604TIP3   OH219775   4.577   0.917   0.207  0.0809  0.3348 -0.0080
 6604TIP3    H119776   4.504   0.946   0.153  0.3054  1.2654  0.1676
 6604TIP3    H219777   4.644   0.891   0.144  0.7675  2.4691 -0.2500
 6605TIP3   OH219778   2.979   5.793   3.065  0.5517  0.5064 -0.6689
 6605TIP3    H119779   2.920   5.866   3.043  1.3467  1.3825  0.0283
 6605TIP3    H219780   3.066   5.824   3.039  0.8115 -0.4838 -1.0190
 6606TIP3   OH219781   2.879   2.142   1.647 -0.3179 -0.0892  0.1251
 6606TIP3    H119782   2.957   2.089   1.631  0.7647  1.6797 -0.7142
 6606TIP3    H219783   2.808   2.094   1.603  0.6910 -0.6582 -0.9304
 6607TIP3   OH219784   1.035   3.016   1.513  0.1945 -0.2617 -0.0969
 6607TIP3    H119785   1.012   2.933   1.471  0.5840 -0.2997 -0.2412
 6607TIP3    H219786   0.990   3.083   1.461  0.5745 -0.3191 -0.5113
 6608TIP3   OH219787   2.304   0.719   2.296 -0.1087 -0.1578  0.5327
 6608TIP3    H119788   2.235   0.745   2.235  1.4474  0.1257 -1.2074
 6608TIP3    H219789   2.384   0.760   2.262  0.8671 -0.0437  2.7502
 6609TIP3   OH219790   6.563   2.976   1.921 -0.2004 -0.3634 -0.0504
 6609TIP3    H119791   6.524   2.891   1.941 -0.9103 -0.6412 -2.3429
 6609TIP3    H219792   6.506   3.014   1.854  0.7774  1.3993  0.0509
 6610TIP3   OH219793   4.610   5.432   2.783 -0.5869 -0.0544 -0.3886
 6610TIP3    H119794   4.677   5.400   2.843  0.3591  1.5700 -0.5313
 6610TIP3    H219795   4.529   5.430   2.834 -0.1642 -0.5707  0.2851
 6611TIP3   OH219796   6.590   2.633   3.712  0.3485 -0.4867  0.3487
 6611TIP3    H119797   6.539   2.710   3.686  0.0837 -0.7612  0.0538
 6611TIP3    H219798   6.607   2.646   3.806 -0.0313 -0.2606  0.3879
 6612TIP3   OH219799   4.326   1.288   4.115  0.0180 -0.3209 -0.1530
 6612TIP3    H119800   4.324   1.199   4.148 -0.9795  0.5280  2.2789
 6612TIP3    H219801   4.238   1.322   4.129  0.2250  0.9179 -1.5041
 6613TIP3   OH219802   6.901   5.487   0.915 -0.1717 -0.1080 -0.2414
 6613TIP3    H119803   6.937   5.576   0.918  0.3195 -0.2587 -1.2399
 6613TIP3    H219804   6.952   5.439   0.980  0.1312  0.1500 -0.2801
 6614TIP3   OH219805   4.273   5.029   4.912 -0.4327  0.4262  0.1369
 6614TIP3    H119806   4.354   5.036   4.963  1.6089  0.5882 -2.8915
 6614TIP3    H219807   4.266   4.936   4.891 -1.7433  0.2202  1.3229
 6615TIP3   OH219808   7.172   3.357   0.590 -0.0136 -0.3685  0.1930
 6615TIP3    H119809   7.214   3.429   0.637 -1.4219  0.8236 -0.2919
 6615TIP3    H219810   7.078   3.377   0.596 -0.3056 -0.9403 -1.9067
 6616TIP3   OH219811   2.523   6.659   2.071  0.2868  0.2856  0.3677
 6616TIP3    H119812   2.599   6.627   2.022  0.2285  0.9258 -0.1539
 6616TIP3    H219813   2.535   6.624   2.160  0.3082 -1.0357 -0.1314
 6617TIP3   OH219814   2.170   5.356   3.737 -0.0297 -0.1689 -0.5758
 6617TIP3    H119815   2.104   5.400   3.790  1.2402  0.8140  0.2399
 6617TIP3    H219816   2.121   5.291   3.687 -1.4578 -0.1529  0.7408
 6618TIP3   OH219817   4.841   5.708   5.452  0.4681  0.1257 -0.0825
 6618TIP3    H119818   4.797   5.752   5.380 -1.6756 -2.2174 -0.3553
 6618TIP3    H219819   4.770   5.681   5.510  2.0650  1.1991  2.5359
 6619TIP3   OH219820   3.926   1.223   3.264 -0.2029 -0.1905 -0.2654
 6619TIP3    H119821   3.985   1.252   3.194  1.2414 -1.0614  0.5543
 6619TIP3    H219822   3.951   1.275   3.340 -1.1195  0.0638 -0.1193
 6620TIP3   OH219823   1.582   0.222   3.386 -0.4375 -0.2877 -0.5371
 6620TIP3    H119824   1.668   0.257   3.361 -0.1924 -0.4845  0.0054
 6620TIP3    H219825   1.526   0.300   3.392 -0.1633 -0.0989 -0.3776
 6621TIP3   OH219826   3.473   3.236   2.912 -0.4491 -0.4301 -0.1330
 6621TIP3    H119827   3.399   3.290   2.940 -1.1799 -0.3121 -2.1309
 6621TIP3    H219828   3.482   3.254   2.818  2.6695  0.2209  0.1651
 6622TIP3   OH219829   6.048   2.029   1.704  0.6217  0.0349  0.4206
 6622TIP3    H119830   6.096   1.946   1.706 -0.2404 -0.4886  0.0902
 6622TIP3    H219831   5.973   2.012   1.646  0.5137  1.0904  0.2331
 6623TIP3   OH219832   4.447   1.605   2.203 -0.3488 -0.3212 -0.4521
 6623TIP3    H119833   4.502   1.548   2.150 -0.8115 -0.8116 -0.4130
 6623TIP3    H219834   4.370   1.622   2.147 -0.1928  0.3056 -0.4858
 6624TIP3   OH219835   6.028   4.760   3.180 -0.1034  0.6177 -0.1494
 6624TIP3    H119836   5.994   4.673   3.159 -2.1183  1.6705 -1.5612
 6624TIP3    H219837   6.109   4.767   3.131  0.2739 -0.5732  0.2637
 6625TIP3   OH219838   7.040   6.053   3.427  0.2402 -0.2705  0.2480
 6625TIP3    H119839   6.962   6.108   3.438  0.0955 -0.1373 -1.1836
 6625TIP3    H219840   7.106   6.112   3.392  0.4001 -0.7767 -0.3197
 6626TIP3   OH219841   1.487   0.762   0.333 -0.0763  0.5327  0.5911
 6626TIP3    H119842   1.554   0.764   0.402  1.7567 -0.4804 -1.0532
 6626TIP3    H219843   1.464   0.669   0.326  1.1597  0.3205 -1.3658
 6627TIP3   OH219844   3.002   4.517   5.028 -0.3167  0.1104  0.0207
 6627TIP3    H119845   2.934   4.518   5.096  2.8904  1.2115  3.6255
 6627TIP3    H219846   3.037   4.427   5.031 -0.0388  0.2170 -0.0027
 6628TIP3   OH219847   4.312   6.564   4.473  0.0588  0.3035  0.4083
 6628TIP3    H119848   4.266   6.569   4.557 -3.2402 -0.2679 -1.2005
 6628TIP3    H219849   4.322   6.471   4.456  0.1960  0.4006 -0.0743
 6629TIP3   OH219850   5.705   0.249   4.212 -0.2263 -0.2980  0.0883
 6629TIP3    H119851   5.679   0.340   4.200 -1.3570 -0.4798  0.9829
 6629TIP3    H219852   5.742   0.246   4.300 -0.7925 -0.8139  0.3198
 6630TIP3   OH219853   3.140   3.851   2.482  0.0878  0.0386  0.1525
 6630TIP3    H119854   3.138   3.825   2.390  0.4703 -0.8059  0.3650
 6630TIP3    H219855   3.120   3.944   2.482 -0.9344 -0.1637 -0.6995
 6631TIP3   OH219856   0.407   3.670   2.395 -0.2594  0.0537  0.3711
 6631TIP3    H119857   0.323   3.708   2.373  0.0069  0.7506  0.5570
 6631TIP3    H219858   0.457   3.741   2.435  0.3664 -0.3868  0.3922
 6632TIP3   OH219859   4.137   0.369   5.848 -0.1795  0.3538  0.1709
 6632TIP3    H119860   4.136   0.369   5.752  0.2996  0.6351  0.1620
 6632TIP3    H219861   4.217   0.416   5.871  0.8634 -1.5811  0.7057
 6633TIP3   OH219862   2.355   4.939   2.835 -0.4512  0.2778 -0.1159
 6633TIP3    H119863   2.403   4.859   2.812  0.4941  0.2451  1.7572
 6633TIP3    H219864   2.424   5.004   2.853 -1.1797  1.0534 -0.0725
 6634TIP3   OH219865   6.470   2.306   1.975 -0.0851  0.1952  0.0024
 6634TIP3    H119866   6.434   2.393   1.956 -0.0616 -0.0394 -1.2160
 6634TIP3    H219867   6.562   2.322   1.998 -0.1156  0.4977 -0.0826
 6635TIP3   OH219868   3.843   5.815   1.848  0.7129 -0.0181 -0.4621
 6635TIP3    H119869   3.844   5.858   1.933  0.5234 -0.2157 -0.3590
 6635TIP3    H219870   3.789   5.737   1.861  1.7311 -0.7500 -0.4069
 6636TIP3   OH219871   6.101   4.223   1.812  0.3749 -0.8704  0.4763
 6636TIP3    H119872   6.063   4.238   1.725 -0.4321 -1.8438  0.6443
 6636TIP3    H219873   6.170   4.289   1.819  0.0809 -0.4052 -0.6750
 6637TIP3   OH219874   3.913   4.144   5.063 -0.6111  0.0606  0.3823
 6637TIP3    H119875   3.959   4.150   4.979 -0.8369 -0.7173  0.1878
 6637TIP3    H219876   3.932   4.227   5.107  1.7749 -0.5775  0.7198
 6638TIP3   OH219877   2.951   3.135   0.232 -0.3533  0.1327  0.1120
 6638TIP3    H119878   2.951   3.040   0.226  0.3274  0.1332  0.0727
 6638TIP3    H219879   3.043   3.160   0.221 -0.1711  0.6545  2.3085
 6639TIP3   OH219880   0.122   2.778   3.624  0.0198 -0.5102 -0.3934
 6639TIP3    H119881   0.050   2.775   3.561 -0.7207  0.9011  0.3293
 6639TIP3    H219882   0.117   2.695   3.670 -0.5784 -0.7978 -0.9608
 6640TIP3   OH219883   1.671   4.270   4.255 -0.8223  0.0061  0.2916
 6640TIP3    H119884   1.615   4.344   4.275  0.7520  1.3057  0.1374
 6640TIP3    H219885   1.740   4.273   4.322  1.1208  0.7563 -1.6009
 6641TIP3   OH219886   2.880   3.088   5.168 -0.1595 -0.0685  0.0265
 6641TIP3    H119887   2.812   3.028   5.198 -0.8115  0.9824  0.7276
 6641TIP3    H219888   2.880   3.159   5.233 -0.1938  1.2366 -1.3307
 6642TIP3   OH219889   3.654   5.642   1.788  0.1701  0.4552  0.0187
 6642TIP3    H119890   3.578   5.615   1.839  0.3550 -4.4177 -1.7566
 6642TIP3    H219891   3.617   5.676   1.706 -0.1338  0.0109 -0.0308
 6643TIP3   OH219892   5.401   5.374   1.051 -0.3232 -0.2789  0.1737
 6643TIP3    H119893   5.321   5.401   1.007  0.0567 -0.0666 -0.3956
 6643TIP3    H219894   5.371   5.328   1.130 -0.9940  0.9452  0.6549
 6644TIP3   OH219895   6.303   2.397   0.143 -0.4763 -0.3351 -0.1464
 6644TIP3    H119896   6.337   2.486   0.132  2.7308 -1.3825  0.2239
 6644TIP3    H219897   6.270   2.373   0.056 -0.5385  0.8610 -0.4745
 6645TIP3   OH219898   3.996   4.702   1.569 -0.0469 -0.5678 -0.1091
 6645TIP3    H119899   3.922   4.697   1.629  0.2922 -0.6439  0.3071
 6645TIP3    H219900   4.061   4.756   1.615 -0.1908  0.2634 -0.8463
 6646TIP3   OH219901   4.659   0.623   1.539  0.5944 -0.1765 -0.2044
 6646TIP3    H119902   4.643   0.539   1.497  1.1115 -0.3109 -0.1410
 6646TIP3    H219903   4.602   0.623   1.616  1.0042 -0.7133  0.1104
 6647TIP3   OH219904   1.858   3.755   1.638  0.0129 -0.0888 -0.3317
 6647TIP3    H119905   1.830   3.707   1.716 -0.2048  3.0935  1.7785
 6647TIP3    H219906   1.783   3.811   1.617  0.5850  0.0754 -2.0292
 6648TIP3   OH219907   1.269   6.107   2.807 -0.0905 -0.0499  0.2799
 6648TIP3    H119908   1.192   6.093   2.753  0.4785  0.5351 -0.7125
 6648TIP3    H219909   1.280   6.025   2.855 -0.2478 -0.8226 -0.9674
 6649TIP3   OH219910   5.660   5.943   3.699  0.1230 -0.1650 -0.3917
 6649TIP3    H119911   5.636   5.971   3.610  1.2890  0.5945 -0.4893
 6649TIP3    H219912   5.723   5.872   3.686  1.3202  0.8270 -0.2227
 6650TIP3   OH219913   0.352   5.418   3.819 -0.0940 -0.1336  0.4186
 6650TIP3    H119914   0.414   5.438   3.890  0.0845  3.0256 -0.4938
 6650TIP3    H219915   0.398   5.354   3.765  2.1632  1.5511  0.1887
 6651TIP3   OH219916   1.730   0.452   4.107 -0.7693  0.1496 -0.0514
 6651TIP3    H119917   1.692   0.382   4.054  0.3822  1.0488 -2.1866
 6651TIP3    H219918   1.681   0.530   4.083  0.4025  0.7513 -0.5662
 6652TIP3   OH219919   3.550   1.121   2.958  0.1931  0.2470  0.3137
 6652TIP3    H119920   3.589   1.148   3.041  0.7914  1.9671 -0.4912
 6652TIP3    H219921   3.617   1.067   2.917  0.3863  0.4181  0.4033
 6653TIP3   OH219922   0.029   5.040   4.682 -0.4071  0.0685  0.1584
 6653TIP3    H119923  -0.016   5.092   4.748  0.7338  1.4595 -0.1112
 6653TIP3    H219924   0.064   4.965   4.730  2.0703  2.0047  1.6400
 6654TIP3   OH219925   0.274   3.443   3.892 -0.2504  0.5171 -0.1882
 6654TIP3    H119926   0.241   3.523   3.932  0.3585 -1.2888  4.6242
 6654TIP3    H219927   0.369   3.448   3.903 -0.2183 -0.8785  0.4200
 6655TIP3   OH219928   4.721   6.076   2.684  0.2352 -0.1365  0.1097
 6655TIP3    H119929   4.717   5.981   2.698  0.3749 -0.2343 -0.5030
 6655TIP3    H219930   4.631   6.101   2.663 -0.1901  0.1664  2.0432
 6656TIP3   OH219931   1.013   2.472   1.974 -0.7967 -0.1584  0.3048
 6656TIP3    H119932   0.988   2.564   1.961 -1.2544 -0.2255  0.6910
 6656TIP3    H219933   1.105   2.469   1.948 -1.1302  0.1290 -0.9647
 6657TIP3   OH219934   4.383   1.005   4.219  0.0260  0.3915 -0.4893
 6657TIP3    H119935   4.459   0.953   4.248  0.9356  0.6972 -2.1556
 6657TIP3    H219936   4.395   1.012   4.124 -1.2253  1.8540 -0.5686
 6658TIP3   OH219937   5.459   1.216   3.994  0.3356 -0.1282  0.5770
 6658TIP3    H119938   5.441   1.187   3.905  0.2541 -0.6399  0.7581
 6658TIP3    H219939   5.523   1.286   3.984 -2.7280  2.8615 -0.2551
 6659TIP3   OH219940   3.213   2.265   5.659 -0.0694  0.1191 -1.0897
 6659TIP3    H119941   3.210   2.177   5.621 -2.8062 -0.5917  0.4802
 6659TIP3    H219942   3.276   2.258   5.730 -0.4222 -0.6497 -0.8386
 6660TIP3   OH219943   3.762   0.363   0.264 -0.2664  0.2758 -0.3956
 6660TIP3    H119944   3.675   0.402   0.258 -0.5578 -0.4528 -0.9648
 6660TIP3    H219945   3.818   0.422   0.213 -0.5838  0.3059 -0.7134
 6661TIP3   OH219946   2.020   1.764   5.396  0.1610 -0.3526 -0.4747
 6661TIP3    H119947   2.006   1.817   5.474  0.3404 -0.4104 -0.4033
 6661TIP3    H219948   2.051   1.680   5.429 -0.3616 -0.5890 -0.5727
 6662TIP3   OH219949   5.200   5.326   2.149 -0.4761 -0.3615 -0.2989
 6662TIP3    H119950   5.282   5.372   2.134  0.2939 -1.6983 -0.3787
 6662TIP3    H219951   5.154   5.329   2.065 -1.1207  1.4926  0.0867
 6663TIP3   OH219952   5.377   4.071   2.908  0.4015  1.0180  0.7468
 6663TIP3    H119953   5.322   4.073   2.830  1.2978  0.2605  0.0697
 6663TIP3    H219954   5.466   4.057   2.874  0.8655  1.1451  1.8706
 6664TIP3   OH219955   2.972   1.504   1.109 -0.4155  0.4312  0.5762
 6664TIP3    H119956   3.028   1.572   1.145  1.5211 -0.2694 -0.8982
 6664TIP3    H219957   3.033   1.441   1.070 -2.2246 -0.7069 -0.5782
 6665TIP3   OH219958   5.500   3.406   3.528  0.6485  0.3070 -0.5167
 6665TIP3    H119959   5.449   3.482   3.500 -0.9624  0.1157  1.6999
 6665TIP3    H219960   5.521   3.423   3.620 -1.3504 -2.6429  0.6366
 6666TIP3   OH219961   0.194   1.349   4.526 -0.1404 -0.4251  0.9384
 6666TIP3    H119962   0.109   1.377   4.561  0.1099 -1.4635  2.4932
 6666TIP3    H219963   0.192   1.253   4.533  0.9550 -0.4878  0.4835
 6667TIP3   OH219964   2.833   0.932   5.646  0.5501  0.2811  0.6596
 6667TIP3    H119965   2.847   0.839   5.665  1.7476  0.3845  0.3583
 6667TIP3    H219966   2.850   0.940   5.552 -0.9752  0.5598  0.3901
 6668TIP3   OH219967   0.252   6.632   1.438 -0.4251 -0.4396 -0.2437
 6668TIP3    H119968   0.330   6.685   1.453 -2.4235  2.6078  0.4598
 6668TIP3    H219969   0.215   6.619   1.526 -1.5452 -0.3181 -0.6787
 6669TIP3   OH219970   5.159   2.247   2.517 -0.6422  0.3013 -0.3811
 6669TIP3    H119971   5.100   2.172   2.523  0.5904 -0.6602  0.4242
 6669TIP3    H219972   5.246   2.208   2.505  0.0265  1.6009 -0.0176
 6670TIP3   OH219973   4.690   3.609   5.318 -1.2652  0.5063  0.0288
 6670TIP3    H119974   4.730   3.685   5.360 -0.2797 -0.0442  0.1081
 6670TIP3    H219975   4.618   3.645   5.266 -1.0256  1.4464  0.3399
 6671TIP3   OH219976   6.680   2.596   0.841  0.2014  0.0174  0.2694
 6671TIP3    H119977   6.620   2.620   0.911  0.4127 -2.0726  1.2598
 6671TIP3    H219978   6.626   2.593   0.763 -0.3456  1.0216  0.5976
 6672TIP3   OH219979   1.358   0.328   3.126 -0.0564  0.0635 -0.3456
 6672TIP3    H119980   1.398   0.312   3.040 -1.0929 -1.0541 -0.6531
 6672TIP3    H219981   1.288   0.263   3.132 -0.4033  0.5349  1.0951
 6673TIP3   OH219982   2.144   3.171   0.608  0.1592  0.5497  0.0746
 6673TIP3    H119983   2.142   3.107   0.680  0.9653  1.0682  0.5783
 6673TIP3    H219984   2.143   3.118   0.529  2.0280 -0.1665  0.4825
 6674TIP3   OH219985   1.195   2.690   5.240  0.2224 -0.2965 -0.4789
 6674TIP3    H119986   1.161   2.679   5.329  2.2957 -2.9970  0.1136
 6674TIP3    H219987   1.277   2.739   5.252 -0.2908  0.7503 -1.1365
 6675TIP3   OH219988   6.308   4.532   0.844 -0.3633  0.1078 -0.0707
 6675TIP3    H119989   6.280   4.609   0.795  0.3528 -1.4013 -3.1172
 6675TIP3    H219990   6.396   4.553   0.873  0.8451 -0.2986 -3.0394
 6676TIP3   OH219991   2.871   3.303   3.241 -0.2622  0.1186 -0.1958
 6676TIP3    H119992   2.846   3.213   3.224  0.7410 -0.2618  0.2956
 6676TIP3    H219993   2.902   3.336   3.157  0.4224 -0.3444 -0.1253
 6677TIP3   OH219994   2.426   2.288   3.350 -0.5398  0.6565  0.5241
 6677TIP3    H119995   2.511   2.308   3.312 -0.8980  0.6450 -0.3045
 6677TIP3    H219996   2.406   2.364   3.405 -0.7193  1.4339 -0.5645
 6678TIP3   OH219997   3.303   1.676   5.436 -0.1079 -0.1557  0.1247
 6678TIP3    H119998   3.283   1.731   5.360 -3.4380 -0.8561  0.3672
 6678TIP3    H219999   3.355   1.604   5.400 -1.8747 -0.6459 -1.6485
 6679TIP3   OH220000   2.080   6.535   1.688 -0.4103 -0.2135 -0.5856
 6679TIP3    H120001   2.032   6.609   1.650 -0.5522 -0.1203 -0.2310
 6679TIP3    H220002   2.030   6.458   1.661 -1.6145 -0.0290  0.9888
 6680TIP3   OH220003   4.556   6.301   1.835 -0.0308  0.0098 -0.1053
 6680TIP3    H120004   4.647   6.273   1.827 -0.1040 -0.1306 -0.4652
 6680TIP3    H220005   4.512   6.259   1.761 -0.3164  0.3679 -0.1386
 6681TIP3   OH220006   7.167   1.906   4.332 -0.3687  0.0793  0.1202
 6681TIP3    H120007   7.252   1.934   4.298 -0.2220 -1.0503 -0.4967
 6681TIP3    H220008   7.169   1.811   4.325 -1.4911  0.0085  0.5876
 6682TIP3   OH220009   5.903   5.618   2.348 -0.2396  0.3359  0.1975
 6682TIP3    H120010   5.863   5.562   2.281  0.0239  0.4938 -0.0899
 6682TIP3    H220011   5.842   5.613   2.422 -0.0712 -0.5649  0.2822
 6683TIP3   OH220012   3.086   1.141   4.021 -0.2621 -0.0330  0.4037
 6683TIP3    H120013   3.047   1.083   4.087 -0.0738 -0.6892 -0.0525
 6683TIP3    H220014   3.116   1.217   4.071 -0.2544 -0.4581  1.0582
 6684TIP3   OH220015   6.924   0.844   4.197  0.1569  0.1093 -0.1516
 6684TIP3    H120016   6.976   0.881   4.125 -0.2366 -0.0765 -0.5365
 6684TIP3    H220017   6.985   0.784   4.242 -0.3554 -2.0013 -2.0693
 6685TIP3   OH220018   1.259   2.477   2.591  0.0483  0.2577  0.0824
 6685TIP3    H120019   1.293   2.488   2.680 -0.7201 -0.1052  0.4364
 6685TIP3    H220020   1.308   2.402   2.556  0.0049  0.0867  0.3825
 6686TIP3   OH220021   3.687   1.860   3.544  0.2364  0.7342  0.2081
 6686TIP3    H120022   3.619   1.813   3.592  1.8041  1.6421  3.6231
 6686TIP3    H220023   3.763   1.803   3.549  0.5618  1.0577 -0.8775
 6687TIP3   OH220024   5.621   1.036   3.472  0.2353 -0.4728  0.8253
 6687TIP3    H120025   5.579   1.021   3.388  0.7764  0.1010  0.4513
 6687TIP3    H220026   5.583   0.970   3.530 -0.5935 -0.4638  0.2931
 6688TIP3   OH220027   0.335   5.766   5.226  0.2483 -0.0752  0.2398
 6688TIP3    H120028   0.292   5.836   5.176 -1.2520  0.5367  2.2351
 6688TIP3    H220029   0.414   5.806   5.262 -0.3330  0.4759  0.9390
 6689TIP3   OH220030   2.050   3.567   2.989  0.0836  0.0257 -0.0949
 6689TIP3    H120031   2.105   3.630   2.943 -0.3920 -0.1992 -0.9906
 6689TIP3    H220032   1.964   3.608   2.993 -0.0014 -0.1723  0.1378
 6690TIP3   OH220033   6.457   1.767   5.780  0.0230 -0.1342 -0.5399
 6690TIP3    H120034   6.378   1.816   5.756  0.0464  0.1193 -0.1061
 6690TIP3    H220035   6.429   1.676   5.779 -0.3798 -0.0227 -0.0162
 6691TIP3   OH220036   6.507   4.041   0.264  0.2345 -0.4208  0.4136
 6691TIP3    H120037   6.582   4.035   0.205 -0.2875 -0.6120 -0.2472
 6691TIP3    H220038   6.524   3.974   0.331  0.5954 -0.5474  0.1981
 6692TIP3   OH220039   5.427   6.461   4.483 -0.1471 -0.1356 -0.0130
 6692TIP3    H120040   5.367   6.411   4.538 -0.5461  0.3660  0.0081
 6692TIP3    H220041   5.378   6.479   4.403  0.5928 -1.2882 -0.7696
 6693TIP3   OH220042   0.772   0.848   5.608  0.0760 -0.2162 -0.0602
 6693TIP3    H120043   0.819   0.927   5.634  0.0384 -0.6259  1.3785
 6693TIP3    H220044   0.699   0.842   5.671  0.2114 -1.4897 -0.0000
 6694TIP3   OH220045   4.047   1.492   3.359 -0.5781  0.5441 -0.3192
 6694TIP3    H120046   4.098   1.412   3.367 -3.3068 -1.2743  0.2835
 6694TIP3    H220047   4.061   1.520   3.268 -0.7174 -1.5077 -1.0271
 6695TIP3   OH220048   4.672   0.767   4.023  0.3810  0.4484  0.1649
 6695TIP3    H120049   4.659   0.679   4.060 -1.2844  1.1152  1.3004
 6695TIP3    H220050   4.757   0.762   3.980 -0.3995 -2.2255 -1.3331
 6696TIP3   OH220051   5.065   3.725   2.175 -0.0271 -0.5091  0.0397
 6696TIP3    H120052   5.135   3.661   2.188  1.2720  0.7723 -0.3346
 6696TIP3    H220053   5.093   3.775   2.099 -1.8370 -0.5472 -0.6869
 6697TIP3   OH220054   2.169   4.900   2.583  0.0908 -0.7432 -0.4764
 6697TIP3    H120055   2.125   4.983   2.601 -1.1712 -1.7212  1.2295
 6697TIP3    H220056   2.224   4.885   2.660  1.1151 -0.9968 -1.2421
 6698TIP3   OH220057   0.070   3.214   2.587 -0.4682 -0.0354 -0.1369
 6698TIP3    H120058   0.040   3.287   2.532  0.1862 -0.3744 -0.9725
 6698TIP3    H220059   0.076   3.140   2.526 -0.0322 -0.5032  0.4669
 6699TIP3   OH220060   0.231   2.525   3.259  0.2775 -0.5985 -0.3721
 6699TIP3    H120061   0.157   2.487   3.212  0.0369 -2.4638  1.3318
 6699TIP3    H220062   0.197   2.607   3.296 -0.4105 -0.5868 -1.0148
 6700TIP3   OH220063   5.739   5.026   5.488  0.5052 -0.9477 -0.1953
 6700TIP3    H120064   5.829   5.061   5.486  0.5335 -0.9523  0.5761
 6700TIP3    H220065   5.704   5.045   5.401  0.3240  1.5553  0.3621
 6701TIP3   OH220066   3.678   4.932   2.060 -0.0042 -0.5856  0.2058
 6701TIP3    H120067   3.599   4.930   2.005 -1.3318 -0.3520  2.0017
 6701TIP3    H220068   3.645   4.921   2.149  1.6294  2.6170  1.3904
 6702TIP3   OH220069   5.926   4.999   0.040  0.0420 -0.4796 -0.1078
 6702TIP3    H120070   5.983   4.928   0.071 -0.4783 -0.8821 -0.0595
 6702TIP3    H220071   5.944   5.072   0.099 -0.8667 -1.2033  1.1231
 6703TIP3   OH220072   4.782   3.475   2.500 -0.2332 -0.1096  0.3466
 6703TIP3    H120073   4.708   3.461   2.441  1.1168 -1.4319 -1.1244
 6703TIP3    H220074   4.808   3.387   2.527  1.1218  0.2879  0.4024
 6704TIP3   OH220075   6.190   6.500   1.538  0.3670 -0.0357 -0.3015
 6704TIP3    H120076   6.180   6.460   1.624 -0.4090 -0.5710 -0.6259
 6704TIP3    H220077   6.121   6.566   1.534  0.4819  0.0754 -0.4589
 6705TIP3   OH220078   0.616   1.270   0.617 -0.2173 -0.2113  0.7741
 6705TIP3    H120079   0.688   1.218   0.581  0.3396  0.3464  1.0732
 6705TIP3    H220080   0.583   1.218   0.690  0.2159 -0.2283  0.9588
 6706TIP3   OH220081   2.199   6.306   4.596 -0.6195 -0.2384 -0.0360
 6706TIP3    H120082   2.203   6.222   4.552 -3.3217 -0.7132  0.4262
 6706TIP3    H220083   2.149   6.362   4.537  0.5913  0.8825 -0.0522
 6707TIP3   OH220084   1.145   3.090   5.183  0.1015 -0.5624  0.0464
 6707TIP3    H120085   1.194   3.160   5.226  0.7197 -1.8042  1.4522
 6707TIP3    H220086   1.152   3.109   5.089  1.4623  0.4552  0.3330
 6708TIP3   OH220087   5.302   0.357   0.885 -0.4675 -0.0006  0.1447
 6708TIP3    H120088   5.397   0.350   0.899 -0.7071  0.9763  2.8515
 6708TIP3    H220089   5.271   0.266   0.887  0.3193 -0.2873 -0.1373
 6709TIP3   OH220090   7.082   5.284   1.375  0.0873  0.3031 -0.0674
 6709TIP3    H120091   7.085   5.188   1.367 -0.7885  0.2676 -0.1403
 6709TIP3    H220092   7.144   5.305   1.444 -0.7214 -0.4522  0.9183
 6710TIP3   OH220093   6.031   4.471   5.009 -0.0211 -0.4555 -0.1166
 6710TIP3    H120094   5.960   4.437   5.063 -0.6882  1.2286  0.1473
 6710TIP3    H220095   6.105   4.480   5.069 -0.1936 -0.3717  0.0875
 6711TIP3   OH220096   5.490   1.763   2.903 -0.1392 -0.0345 -0.0243
 6711TIP3    H120097   5.399   1.737   2.891 -0.0335 -0.8740  0.8658
 6711TIP3    H220098   5.503   1.763   2.998  1.6419 -3.1609 -0.1333
 6712TIP3   OH220099   1.056   6.501   2.459  0.3065  0.2484 -0.0821
 6712TIP3    H120100   1.104   6.531   2.536 -0.1224 -1.9713  1.1629
 6712TIP3    H220101   1.103   6.423   2.430  0.0224  0.6238 -1.6299
 6713TIP3   OH220102   5.807   4.590   4.378 -0.6773  0.0222  0.5787
 6713TIP3    H120103   5.786   4.669   4.427  0.0181 -0.4184  1.6093
 6713TIP3    H220104   5.723   4.560   4.342 -1.4074 -0.2492  2.4099
 6714TIP3   OH220105   2.450   2.401   3.068  0.1800 -0.0093 -0.7238
 6714TIP3    H120106   2.415   2.400   2.978 -0.9126  1.1865 -0.3398
 6714TIP3    H220107   2.513   2.473   3.068 -0.0376  0.1834 -0.4625
 6715TIP3   OH220108   2.387   6.204   5.036 -0.0235 -0.3224 -0.1548
 6715TIP3    H120109   2.449   6.201   5.109 -0.2335 -1.7062 -0.0174
 6715TIP3    H220110   2.422   6.141   4.973  1.2592  2.2024 -2.1958
 6716TIP3   OH220111   0.389   2.414   4.114 -0.5281 -0.0090 -0.7153
 6716TIP3    H120112   0.433   2.485   4.067  0.7983  0.5105  1.2152
 6716TIP3    H220113   0.296   2.426   4.094 -0.1999  1.4429 -1.4800
 6717TIP3   OH220114   6.729   2.339   4.431 -0.2276 -0.1095 -0.2874
 6717TIP3    H120115   6.711   2.350   4.337 -1.2017  0.9948 -0.0046
 6717TIP3    H220116   6.658   2.284   4.463  0.5029 -1.0840 -0.3166
 6718TIP3   OH220117   3.170   4.070   0.309  0.1774 -0.1129 -0.2334
 6718TIP3    H120118   3.190   3.994   0.255  0.1095  0.5363 -1.2074
 6718TIP3    H220119   3.251   4.122   0.307  0.6105 -0.6797  1.3597
 6719TIP3   OH220120   3.301   5.250   4.124 -0.6810  0.3563  0.9320
 6719TIP3    H120121   3.363   5.185   4.090 -2.1860 -2.0164  2.4063
 6719TIP3    H220122   3.235   5.258   4.055  0.2901  1.5724  0.0959
 6720TIP3   OH220123   1.036   3.019   3.338  0.3702  0.5098  0.0308
 6720TIP3    H120124   1.115   3.071   3.324  0.9180 -0.3884 -0.2862
 6720TIP3    H220125   0.997   3.010   3.251  1.5130 -1.5119 -0.3257
 6721TIP3   OH220126   4.555   1.728   3.240  0.2052  0.3082  0.3111
 6721TIP3    H120127   4.569   1.638   3.213  2.6194  0.6737  0.1911
 6721TIP3    H220128   4.599   1.781   3.174 -2.1314  1.7096 -0.2754
 6722TIP3   OH220129   6.055   2.821   4.449 -0.2825 -0.4559  0.0110
 6722TIP3    H120130   6.074   2.908   4.415 -1.4771 -0.4196 -0.6356
 6722TIP3    H220131   6.012   2.837   4.534  0.2522 -0.4542  0.2858
 6723TIP3   OH220132   5.717   1.627   3.739 -0.4774 -0.1054  0.1327
 6723TIP3    H120133   5.702   1.552   3.682 -0.2167  0.0314 -0.1187
 6723TIP3    H220134   5.631   1.647   3.775 -0.1363 -2.2709  2.4248
 6724TIP3   OH220135   1.449   0.072   5.420  0.6545 -0.2591 -0.2694
 6724TIP3    H120136   1.479   0.067   5.510 -0.3806  1.4194  0.2141
 6724TIP3    H220137   1.433  -0.019   5.394  1.0258 -0.7601  1.1965
 6725TIP3   OH220138   6.920   6.432   5.361 -0.0891  0.4678  0.0304
 6725TIP3    H120139   6.949   6.348   5.325  1.0302  0.3488  1.1639
 6725TIP3    H220140   6.877   6.409   5.443 -1.0417  0.9005 -0.3299
 6726TIP3   OH220141   6.511   6.492   0.882  0.5292  0.3746 -0.0641
 6726TIP3    H120142   6.457   6.559   0.924 -0.6485 -2.0412  2.6445
 6726TIP3    H220143   6.580   6.474   0.945  0.2779 -1.5380 -0.2743
 6727TIP3   OH220144   6.160   3.184   0.929 -0.3722  0.2796  0.3240
 6727TIP3    H120145   6.202   3.173   0.844 -0.6997  0.3593  0.1526
 6727TIP3    H220146   6.107   3.262   0.920 -3.7748 -1.9382 -0.7987
 6728TIP3   OH220147   1.342   6.529   5.308  0.2380 -0.2877  0.3423
 6728TIP3    H120148   1.401   6.490   5.243  0.4117 -0.0114  0.3316
 6728TIP3    H220149   1.321   6.615   5.272 -1.9581 -1.1955 -0.7524
 6729TIP3   OH220150   1.912   1.941   4.199  0.2779  0.4856 -0.1769
 6729TIP3    H120151   1.884   2.031   4.216  2.8348  1.4545 -0.6206
 6729TIP3    H220152   1.833   1.896   4.170 -1.1551  2.4672  0.4390
 6730TIP3   OH220153   2.449   0.584   3.762 -0.2366  0.3275 -0.2958
 6730TIP3    H120154   2.400   0.654   3.720  1.0032  0.4442 -1.6044
 6730TIP3    H220155   2.540   0.613   3.761 -0.0909  0.2463  2.3573
 6731TIP3   OH220156   3.515   4.052   3.443 -0.0190  0.2365 -0.0549
 6731TIP3    H120157   3.497   4.107   3.520  1.0072 -0.9073  1.0370
 6731TIP3    H220158   3.449   3.983   3.447 -0.0092  0.2148 -0.2579
 6732TIP3   OH220159   6.165   0.556   1.941 -0.1998  0.0299  0.0417
 6732TIP3    H120160   6.174   0.462   1.958 -1.2805 -0.5029 -2.0204
 6732TIP3    H220161   6.239   0.577   1.885 -0.5253  0.1860 -0.3285
 6733TIP3   OH220162   6.849   1.475   4.814 -0.5572 -0.5804 -0.6547
 6733TIP3    H120163   6.882   1.543   4.756 -0.9189 -0.2898 -0.5183
 6733TIP3    H220164   6.925   1.450   4.867 -0.5015 -0.0556 -0.4837
 6734TIP3   OH220165   1.589   3.424   5.758 -0.4859 -0.0727  0.1480
 6734TIP3    H120166   1.675   3.463   5.740 -0.4212 -0.0016  0.6058
 6734TIP3    H220167   1.596   3.392   5.848 -0.6108 -0.9464 -0.1392
 6735TIP3   OH220168   3.123   4.744   3.292  0.2477  0.0820 -0.1689
 6735TIP3    H120169   3.150   4.685   3.361 -0.7037  1.0026  1.0382
 6735TIP3    H220170   3.049   4.700   3.250 -0.9317  0.6603  1.1991
 6736TIP3   OH220171   0.622   5.204   2.719 -0.5796 -0.2566  0.2255
 6736TIP3    H120172   0.677   5.154   2.779 -0.8418  0.0607  0.7383
 6736TIP3    H220173   0.613   5.147   2.642  0.1615 -0.4559  0.2840
 6737TIP3   OH220174   1.743   4.137   2.496 -0.0141  0.0796 -0.5941
 6737TIP3    H120175   1.818   4.155   2.553 -1.0267  1.3361  0.4065
 6737TIP3    H220176   1.740   4.212   2.436 -1.0485  0.5499  0.0284
 6738TIP3   OH220177   6.513   4.377   2.937 -0.2299 -0.1613 -0.1370
 6738TIP3    H120178   6.510   4.365   3.032 -0.1509  0.0028 -0.1138
 6738TIP3    H220179   6.591   4.328   2.909 -1.6730 -2.4537 -0.4505
 6739TIP3   OH220180   4.028   3.906   0.336 -0.0847  0.0437  0.6194
 6739TIP3    H120181   4.101   3.871   0.286  0.8240 -0.3714  2.1604
 6739TIP3    H220182   4.001   3.985   0.288  0.7812 -0.2920 -0.4433
 6740TIP3   OH220183   5.430   4.447   0.066  0.2277 -0.0506 -0.7210
 6740TIP3    H120184   5.461   4.523   0.114 -0.1930 -0.4582  0.2272
 6740TIP3    H220185   5.352   4.418   0.114  1.3983 -2.1492  0.0374
 6741TIP3   OH220186   1.363   6.571   1.960  0.0159  0.4803 -0.3040
 6741TIP3    H120187   1.456   6.550   1.961  0.1685  1.1405  0.0657
 6741TIP3    H220188   1.319   6.491   1.988  0.4996  0.2961 -0.0739
 6742TIP3   OH220189   0.965   1.080   5.057 -0.5837  0.2328 -0.1026
 6742TIP3    H120190   1.041   1.071   5.115 -0.7791 -1.6433 -0.0699
 6742TIP3    H220191   0.891   1.093   5.116 -0.5649 -0.0600 -0.0121
 6743TIP3   OH220192   1.661   3.840   4.030 -0.5938  0.4459  0.5439
 6743TIP3    H120193   1.574   3.877   4.012 -0.7650 -0.6413 -1.0728
 6743TIP3    H220194   1.700   3.827   3.943  0.3648 -0.9980  1.1518
 6744TIP3   OH220195   5.041   1.442   3.348 -0.0015  0.1320  0.1801
 6744TIP3    H120196   5.042   1.528   3.390 -1.2554 -0.0874  0.6844
 6744TIP3    H220197   4.950   1.414   3.352  0.4023 -1.2622  0.0863
 6745TIP3   OH220198   4.745   2.320   0.041  0.2866 -0.2729 -0.1914
 6745TIP3    H120199   4.800   2.242   0.053  0.0149 -0.3392  0.7239
 6745TIP3    H220200   4.777   2.383   0.106  0.2039  0.2071 -0.6112
 6746TIP3   OH220201   5.735   0.006   1.339 -0.1974 -0.2912  0.5241
 6746TIP3    H120202   5.646   0.038   1.323  0.3112  0.4957 -0.9339
 6746TIP3    H220203   5.780   0.081   1.378  0.2957 -0.0512 -0.4585
 6747TIP3   OH220204   6.537   3.820   0.417  0.0840  0.2803 -0.0953
 6747TIP3    H120205   6.506   3.754   0.354 -2.6323  0.1719  1.1944
 6747TIP3    H220206   6.618   3.783   0.452 -1.1768 -2.3127  0.3564
 6748TIP3   OH220207   5.340   0.678   1.375  0.3458 -0.1127 -0.3630
 6748TIP3    H120208   5.253   0.704   1.403  0.3801 -0.1218 -0.2443
 6748TIP3    H220209   5.329   0.649   1.284  0.1140 -0.6600 -0.1704
 6749TIP3   OH220210   4.772   3.911   2.346 -0.3359  0.4922 -0.4876
 6749TIP3    H120211   4.858   3.952   2.349 -0.1777  0.1307 -0.0174
 6749TIP3    H220212   4.753   3.887   2.437 -0.4515 -0.4220 -0.7398
 6750TIP3   OH220213   5.087   6.730   0.059 -0.0131 -0.6363  0.1201
 6750TIP3    H120214   5.160   6.779   0.021 -0.4992 -0.1224 -0.1592
 6750TIP3    H220215   5.018   6.732  -0.008 -1.4053  1.4625  1.4934
 6751TIP3   OH220216   4.372   3.201   2.550 -0.2277 -0.3642 -0.7144
 6751TIP3    H120217   4.328   3.128   2.506 -0.8150  0.0039 -0.7591
 6751TIP3    H220218   4.306   3.271   2.550  0.7069  0.5570 -1.7201
 6752TIP3   OH220219   3.469   2.171   1.374  0.8157 -0.4269 -0.1428
 6752TIP3    H120220   3.424   2.239   1.425  1.9495  1.1588 -1.1736
 6752TIP3    H220221   3.405   2.100   1.368 -1.3547  1.4784 -0.9996
 6753TIP3   OH220222   1.848   5.626   3.283 -0.2328 -0.0829  0.3059
 6753TIP3    H120223   1.921   5.581   3.238 -0.8737 -1.2943  0.4261
 6753TIP3    H220224   1.870   5.620   3.376 -0.5205 -0.5386  0.3488
 6754TIP3   OH220225   1.240   5.214   2.118 -0.3352  0.1519 -0.2899
 6754TIP3    H120226   1.175   5.145   2.119 -0.6383  0.4409  0.6347
 6754TIP3    H220227   1.316   5.175   2.073  0.1844 -1.4118  1.8132
 6755TIP3   OH220228   4.915   4.055   2.022  0.0264 -0.2177 -0.2063
 6755TIP3    H120229   4.905   4.150   2.027 -0.2823 -0.2861  0.6758
 6755TIP3    H220230   4.852   4.021   2.086  0.8404 -0.9685  0.2139
 6756TIP3   OH220231   2.533   1.952   4.731 -0.3544  0.0475  0.6877
 6756TIP3    H120232   2.563   1.948   4.640 -1.1665 -0.7947  0.4380
 6756TIP3    H220233   2.468   2.022   4.732 -2.0988 -1.4693  0.0351
 6757TIP3   OH220234   4.112   1.625   0.323  0.4925 -0.0026 -0.0627
 6757TIP3    H120235   4.056   1.554   0.290 -0.4969 -0.2276  1.8900
 6757TIP3    H220236   4.179   1.580   0.375  1.2901  0.3851 -0.7373
 6758TIP3   OH220237   6.791   6.663   0.566  0.1456 -0.0354 -0.3453
 6758TIP3    H120238   6.841   6.666   0.485  1.0894 -0.3732  0.2082
 6758TIP3    H220239   6.716   6.607   0.546 -0.0622  0.5372 -1.2063
 6759TIP3   OH220240   1.864   0.147   0.605  0.5762 -0.2857 -0.0700
 6759TIP3    H120241   1.934   0.117   0.548  1.0055 -0.9628  0.7826
 6759TIP3    H220242   1.824   0.066   0.638  1.5282  0.0196  2.0043
 6760TIP3   OH220243   0.181   1.697   5.567 -0.2214 -0.2129 -0.1208
 6760TIP3    H120244   0.138   1.612   5.570 -1.3000  0.3264  0.1441
 6760TIP3    H220245   0.122   1.756   5.613  0.9534  0.4966  0.5333
 6761TIP3   OH220246   1.621   1.441   2.218  0.4784  0.1714 -0.2132
 6761TIP3    H120247   1.619   1.516   2.278  1.6768  1.2488 -1.4478
 6761TIP3    H220248   1.567   1.374   2.261  0.2882  1.3357  1.4534
 6762TIP3   OH220249   4.618   1.741   4.197  0.4557 -0.1434 -0.1359
 6762TIP3    H120250   4.647   1.810   4.138  2.1384 -0.9421 -0.3179
 6762TIP3    H220251   4.677   1.668   4.178  0.4833 -0.7058  1.9260
 6763TIP3   OH220252   5.979   5.130   5.645  0.1945  0.1824  0.2857
 6763TIP3    H120253   6.018   5.213   5.670  0.4671  0.4790 -1.0709
 6763TIP3    H220254   6.020   5.065   5.703 -0.2214  0.9995  1.5387
 6764TIP3   OH220255   7.003   6.388   0.607 -0.5914 -0.2537 -0.4152
 6764TIP3    H120256   6.980   6.478   0.582 -1.2071  0.0656  1.1501
 6764TIP3    H220257   7.074   6.364   0.548 -1.5283  0.6404 -1.9821
 6765TIP3   OH220258   1.370   0.995   5.071 -0.1695 -0.2080 -0.3290
 6765TIP3    H120259   1.396   0.905   5.053  1.3340  0.1285 -0.0199
 6765TIP3    H220260   1.364   1.036   4.984  0.2136 -0.3299 -0.4136
 6766TIP3   OH220261   0.611   4.201   5.257  0.3701  0.0224 -0.5255
 6766TIP3    H120262   0.532   4.151   5.235 -0.8201  2.0994 -1.3111
 6766TIP3    H220263   0.662   4.202   5.177  1.5286 -1.7521  0.1228
 6767TIP3   OH220264   1.969   4.204   5.309 -0.3580 -0.2493  0.1254
 6767TIP3    H120265   1.905   4.147   5.351  0.5394 -2.4303 -1.2931
 6767TIP3    H220266   2.019   4.146   5.252  1.1283  1.8564 -0.8432
 6768TIP3   OH220267   5.871   6.585   4.499  0.2358 -0.1487  0.0716
 6768TIP3    H120268   5.948   6.641   4.494  1.0801 -1.3538 -1.6205
 6768TIP3    H220269   5.824   6.601   4.417 -0.9176  0.0193  0.7502
 6769TIP3   OH220270   4.304   3.363   4.898 -0.2762  0.2248 -0.0992
 6769TIP3    H120271   4.271   3.313   4.823  1.7483  1.9602 -2.2808
 6769TIP3    H220272   4.228   3.372   4.956 -1.7309 -1.8127 -1.5463
 6770TIP3   OH220273   6.822   0.483   0.130  0.0570  0.1221  0.6845
 6770TIP3    H120274   6.738   0.523   0.108  1.1315  2.3583  0.3995
 6770TIP3    H220275   6.841   0.513   0.219 -0.4326 -2.2215  1.6729
 6771TIP3   OH220276   5.779   1.660   4.598  0.6009  0.5531 -0.3324
 6771TIP3    H120277   5.756   1.603   4.525  2.8539 -0.2501 -0.4824
 6771TIP3    H220278   5.826   1.603   4.659 -0.6260  1.3680  1.4405
 6772TIP3   OH220279   5.725   6.122   1.175 -0.1948 -0.2558 -0.2063
 6772TIP3    H120280   5.817   6.142   1.195  0.0018 -0.9056 -0.4148
 6772TIP3    H220281   5.681   6.207   1.177  0.2369 -0.0440  0.7617
 6773TIP3   OH220282   1.231   3.504   0.868 -0.5459 -0.3060  0.7098
 6773TIP3    H120283   1.326   3.499   0.878 -0.1344 -3.8392 -2.6161
 6773TIP3    H220284   1.215   3.594   0.842  2.2435 -0.1320 -0.8024
 6774TIP3   OH220285   1.131   4.823   4.333  0.2463 -0.2651 -0.0384
 6774TIP3    H120286   1.210   4.853   4.377 -0.9604  0.0871  2.0052
 6774TIP3    H220287   1.090   4.903   4.301 -0.1676 -0.2663  0.4806
 6775TIP3   OH220288   4.491   3.848   3.613 -0.2108  0.6066  0.0132
 6775TIP3    H120289   4.544   3.913   3.567  1.1881  0.2174  1.0164
 6775TIP3    H220290   4.529   3.764   3.587 -0.0465  0.3403  1.0804
 6776TIP3   OH220291   6.680   2.064   0.650 -0.3533  0.3419 -0.9386
 6776TIP3    H120292   6.770   2.065   0.684  0.2436  1.9196 -2.3924
 6776TIP3    H220293   6.631   2.011   0.712  1.2065  0.9508  0.9011
 6777TIP3   OH220294   5.211   2.938   0.988  0.6293  0.3945  0.1632
 6777TIP3    H120295   5.162   2.860   0.962  0.5414 -0.0383  1.5246
 6777TIP3    H220296   5.262   2.961   0.911 -0.5202 -0.0797 -0.7812
 6778TIP3   OH220297   5.645   4.884   2.455 -0.3667  0.0561  0.0856
 6778TIP3    H120298   5.737   4.891   2.482 -0.3903 -0.8174  0.4507
 6778TIP3    H220299   5.622   4.971   2.424 -0.1477  0.9694  2.3037
 6779TIP3   OH220300   1.676   2.665   2.986 -0.4735  0.2131 -0.0383
 6779TIP3    H120301   1.706   2.664   3.076  0.5310  0.8090 -0.3443
 6779TIP3    H220302   1.622   2.744   2.979 -0.0054  0.5367 -0.1065
 6780TIP3   OH220303   5.899   2.784   1.257  0.7776 -0.2506 -0.3879
 6780TIP3    H120304   5.900   2.880   1.248 -0.6758 -0.2615 -0.8986
 6780TIP3    H220305   5.845   2.754   1.184 -1.8503 -1.1867  1.7977
 6781TIP3   OH220306   3.363   5.622   3.660 -0.1561  0.0285  0.0014
 6781TIP3    H120307   3.278   5.663   3.649 -0.4391 -0.5013  0.1989
 6781TIP3    H220308   3.426   5.688   3.630 -0.4431  1.4110  2.2151
 6782TIP3   OH220309   1.271   0.268   4.275  0.2702  0.1367 -0.3145
 6782TIP3    H120310   1.263   0.335   4.343 -0.5508 -1.3498  1.1449
 6782TIP3    H220311   1.219   0.301   4.202 -0.4926  0.8713  0.5369
 6783TIP3   OH220312   6.401   2.717   3.111  0.0064  0.4665 -0.1073
 6783TIP3    H120313   6.412   2.661   3.187  1.0652  1.0149  0.1544
 6783TIP3    H220314   6.346   2.666   3.051  2.2225 -1.5655 -0.5706
 6784TIP3   OH220315   4.358   2.389   1.941 -0.1122  0.4525 -0.1593
 6784TIP3    H120316   4.389   2.314   1.890 -0.7848  0.5771 -0.7730
 6784TIP3    H220317   4.357   2.358   2.032  0.3230 -0.0397 -0.3238
 6785TIP3   OH220318   1.430   5.355   5.263  0.1084 -0.3069  0.3522
 6785TIP3    H120319   1.343   5.384   5.239 -0.0393 -0.7082  0.3846
 6785TIP3    H220320   1.480   5.435   5.278 -0.0117 -0.0616 -0.5397
 6786TIP3   OH220321   5.394   1.205   3.725  0.0902 -0.2083 -0.4976
 6786TIP3    H120322   5.301   1.215   3.704  0.4893  1.3002 -1.7601
 6786TIP3    H220323   5.439   1.226   3.643  1.5844  0.6543  0.5024
 6787TIP3   OH220324   0.488   0.035   2.332 -0.5050  0.0267  0.2731
 6787TIP3    H120325   0.433   0.113   2.320 -0.5427 -0.0928 -0.4062
 6787TIP3    H220326   0.434  -0.026   2.382 -0.2650  0.6468  1.3183
 6788TIP3   OH220327   6.184   4.758   1.773 -0.0560 -0.5856 -0.3569
 6788TIP3    H120328   6.095   4.774   1.804 -0.7108  0.9837 -2.7804
 6788TIP3    H220329   6.181   4.670   1.736 -0.1539 -1.1091  0.8207
 6789TIP3   OH220330   0.434   6.395   3.490  0.1701  0.5495  0.2528
 6789TIP3    H120331   0.396   6.336   3.556  1.9892 -1.0062 -0.0322
 6789TIP3    H220332   0.390   6.371   3.408  1.5737 -1.1554 -0.0502
 6790TIP3   OH220333   5.453   4.185   0.980  0.0292  0.5477 -0.0757
 6790TIP3    H120334   5.444   4.091   0.962  1.1273  0.2664  0.7780
 6790TIP3    H220335   5.457   4.226   0.893  1.4389 -0.3933 -0.4840
 6791TIP3   OH220336   5.880   3.025   0.882  0.4322 -0.3990 -0.5232
 6791TIP3    H120337   5.822   3.011   0.807  0.5982  1.2708 -0.9916
 6791TIP3    H220338   5.968   3.034   0.843  0.7239 -0.9069  0.0041
 6792TIP3   OH220339   5.489   1.847   3.176  0.0968 -0.0635 -0.5600
 6792TIP3    H120340   5.515   1.888   3.259 -0.2566  0.6675 -0.8031
 6792TIP3    H220341   5.423   1.782   3.201 -2.1642  2.1176 -0.5078
 6793TIP3   OH220342   0.820   1.375   4.350 -0.2893  0.7850  0.1554
 6793TIP3    H120343   0.877   1.391   4.275  0.2313  0.8370  0.5554
 6793TIP3    H220344   0.855   1.432   4.418 -0.3199  0.2109  0.6541
 6794TIP3   OH220345   4.578   1.261   0.696  0.3503 -0.1693  0.1468
 6794TIP3    H120346   4.626   1.306   0.627  0.4445  0.0385  0.3459
 6794TIP3    H220347   4.626   1.180   0.711 -0.9513 -1.3480 -1.6412
 6795TIP3   OH220348   2.569   3.133   0.077  0.0875  0.3411 -0.1695
 6795TIP3    H120349   2.548   3.195   0.008  3.0435  0.0079 -1.5259
 6795TIP3    H220350   2.595   3.053   0.030  2.4902  0.2024  1.2317
 6796TIP3   OH220351   4.860   2.637   3.900 -0.6504  0.3636 -0.1195
 6796TIP3    H120352   4.766   2.631   3.886 -0.5572  0.8326 -0.9803
 6796TIP3    H220353   4.873   2.725   3.935 -0.8135 -0.5781  2.5573
 6797TIP3   OH220354   0.536   0.528   4.174  0.8316 -0.1990 -0.0199
 6797TIP3    H120355   0.493   0.444   4.189  0.6855  0.0214  0.8625
 6797TIP3    H220356   0.553   0.530   4.080  0.3508 -0.9785 -0.1323
 6798TIP3   OH220357   5.164   1.655   4.059 -0.1583  0.2408  0.6048
 6798TIP3    H120358   5.257   1.671   4.047  0.0344 -0.7646  0.6989
 6798TIP3    H220359   5.124   1.682   3.975 -0.1912  3.3537  1.4838
 6799TIP3   OH220360   6.590   2.142   2.672  0.2095  0.2871  0.0246
 6799TIP3    H120361   6.576   2.234   2.651 -0.4641 -0.4240 -3.3356
 6799TIP3    H220362   6.586   2.137   2.767  2.7433  4.0646  0.5357
 6800TIP3   OH220363   3.224   3.241   1.053  0.1514 -0.1874  0.1614
 6800TIP3    H120364   3.302   3.262   1.001  1.4262 -1.9734  1.2446
 6800TIP3    H220365   3.246   3.159   1.098 -3.4685 -2.5531 -1.8506
 6801TIP3   OH220366   5.954   2.801   4.718 -0.2788  0.0042  0.2398
 6801TIP3    H120367   5.863   2.769   4.711 -0.0022 -1.3330  1.9341
 6801TIP3    H220368   5.949   2.874   4.779 -0.2687  0.2102 -0.0045
 6802TIP3   OH220369   2.679   0.249   0.523 -0.1422 -0.1906  0.3697
 6802TIP3    H120370   2.664   0.155   0.532  1.1185 -0.5876 -1.3046
 6802TIP3    H220371   2.762   0.264   0.568  0.9510 -0.3712 -1.4959
 6803TIP3   OH220372   4.623   1.437   2.062 -0.2394  0.3409 -0.2333
 6803TIP3    H120373   4.706   1.395   2.040  0.7196  1.9885  0.0712
 6803TIP3    H220374   4.563   1.364   2.079  0.7708 -0.8976 -1.7227
 6804TIP3   OH220375   1.015   6.562   3.063  0.3894  0.0272 -0.0288
 6804TIP3    H120376   0.928   6.593   3.035  0.4744  0.1344 -0.1755
 6804TIP3    H220377   1.014   6.468   3.046  0.1940 -0.0222  0.2478
 6805TIP3   OH220378   1.748   6.397   3.924 -0.4815  0.7696 -0.4537
 6805TIP3    H120379   1.831   6.386   3.878 -0.9440  0.2039 -1.1736
 6805TIP3    H220380   1.731   6.491   3.922  0.3611  0.9393  0.1031
 6806TIP3   OH220381   3.406   4.361   3.284 -0.7100 -0.0223  0.1054
 6806TIP3    H120382   3.326   4.393   3.243 -0.3502  2.8118  1.3944
 6806TIP3    H220383   3.477   4.401   3.234 -0.1852 -0.2216  0.6749
 6807TIP3   OH220384   1.481   1.197   1.482 -0.0101 -0.5894 -0.1515
 6807TIP3    H120385   1.393   1.196   1.445  0.6418  0.8864 -1.9235
 6807TIP3    H220386   1.534   1.150   1.418  1.0856  1.6831 -1.0176
 6808TIP3   OH220387   5.782   5.068   3.642  0.6226 -0.2377 -0.4922
 6808TIP3    H120388   5.773   4.997   3.707  0.8333 -0.1802 -0.4012
 6808TIP3    H220389   5.700   5.116   3.649  0.8939  0.1427  0.1770
 6809TIP3   OH220390   3.337   5.213   5.541 -0.2147  0.5982  0.7251
 6809TIP3    H120391   3.404   5.281   5.529  3.0185 -2.7993 -4.6899
 6809TIP3    H220392   3.385   5.137   5.572 -2.5415 -0.8229  1.0703
 6810TIP3   OH220393   2.155   3.274   1.043 -0.3059 -0.2184  0.4384
 6810TIP3    H120394   2.112   3.357   1.063 -0.8652 -0.4902  0.3853
 6810TIP3    H220395   2.098   3.208   1.082  0.4552 -0.5454  1.0172
 6811TIP3   OH220396   3.650   3.518   0.370 -0.2764  0.3961  0.0915
 6811TIP3    H120397   3.715   3.554   0.309  0.8834 -1.4214  0.1814
 6811TIP3    H220398   3.667   3.564   0.452 -0.4848  1.4005 -0.4118
 6812TIP3   OH220399   0.916   1.318   2.701 -0.1042  0.6771 -0.4795
 6812TIP3    H120400   0.939   1.410   2.705 -0.3107  0.7606 -1.1087
 6812TIP3    H220401   0.905   1.292   2.793  1.1775  0.9505 -0.2274
 6813TIP3   OH220402   0.076   4.806   3.909  0.4872 -0.1328 -0.1107
 6813TIP3    H120403   0.166   4.832   3.927  0.1564  0.5578  0.6083
 6813TIP3    H220404   0.076   4.711   3.918  1.0936 -0.1158  0.1277
 6814TIP3   OH220405   1.791   3.688   3.336  0.2577  0.2392  0.3184
 6814TIP3    H120406   1.797   3.774   3.294 -0.0076  0.7859  1.3742
 6814TIP3    H220407   1.768   3.629   3.265 -2.2116  1.4531 -0.0020
 6815TIP3   OH220408   0.909   4.777   0.546 -0.7627  0.3485  0.2426
 6815TIP3    H120409   0.885   4.852   0.601  0.2358 -0.1285  1.3881
 6815TIP3    H220410   0.826   4.741   0.517 -1.2776  2.7990 -1.6572
 6816TIP3   OH220411   5.928   5.946   0.100  0.0051 -0.1943 -0.7382
 6816TIP3    H120412   5.981   5.896   0.039  0.6460 -0.4971  0.0470
 6816TIP3    H220413   5.986   5.960   0.176 -1.3796 -1.5215  0.6404
 6817TIP3   OH220414   0.116   4.446   2.577 -0.0959 -0.4656  0.2276
 6817TIP3    H120415   0.171   4.371   2.553  0.5789 -0.4525  1.6400
 6817TIP3    H220416   0.054   4.454   2.504 -0.2125 -2.4150  0.0411
 6818TIP3   OH220417   0.425   1.181   4.227 -0.1972  0.1686  0.2347
 6818TIP3    H120418   0.409   1.273   4.209 -2.4975  0.0866  1.5116
 6818TIP3    H220419   0.498   1.181   4.289  0.9436  0.9877 -1.0620
 6819TIP3   OH220420   5.295   1.261   1.925  0.0549  0.2887  0.5528
 6819TIP3    H120421   5.296   1.261   2.021 -0.6296 -0.2036  0.5695
 6819TIP3    H220422   5.241   1.185   1.902 -0.3959  0.8263 -0.2059
 6820TIP3   OH220423   5.310   3.787   4.687 -0.4446  0.5472  0.2402
 6820TIP3    H120424   5.238   3.761   4.745  0.9449 -1.1482  1.3114
 6820TIP3    H220425   5.389   3.753   4.730  0.7763  0.3158 -2.0450
 6821TIP3   OH220426   0.415   4.385   1.121 -0.2337  0.2354 -0.4919
 6821TIP3    H120427   0.458   4.470   1.120  0.1279  0.0777 -2.3199
 6821TIP3    H220428   0.326   4.403   1.092 -0.2070  0.0203 -0.7130
 6822TIP3   OH220429   1.152   1.038   5.254 -0.4278  0.1979  0.0814
 6822TIP3    H120430   1.192   1.077   5.332  0.4972  1.2467 -0.8889
 6822TIP3    H220431   1.224   1.026   5.193 -1.1138 -0.7643 -0.5726
 6823TIP3   OH220432   0.937   1.460   4.789 -0.0321  0.6552 -0.3481
 6823TIP3    H120433   0.984   1.529   4.837 -0.2171  0.2287  0.4578
 6823TIP3    H220434   0.886   1.414   4.856  1.2851 -1.2797 -0.6034
 6824TIP3   OH220435   6.871   4.493   2.991 -0.8391 -0.1869 -0.1832
 6824TIP3    H120436   6.959   4.529   3.001 -1.2409  0.5879  0.7024
 6824TIP3    H220437   6.875   4.408   3.034 -0.6460  0.0510  0.2800
 6825TIP3   OH220438   7.089   5.340   5.484 -0.6850 -0.2240 -0.1858
 6825TIP3    H120439   7.163   5.369   5.537 -1.1142  1.3308 -0.3907
 6825TIP3    H220440   7.073   5.412   5.424 -1.1942 -1.3182 -1.4007
 6826TIP3   OH220441   6.591   1.896   3.850  0.3136 -0.5578 -0.1838
 6826TIP3    H120442   6.609   1.814   3.895  0.3553 -1.0332 -1.0474
 6826TIP3    H220443   6.657   1.957   3.884 -0.6497 -0.4166  1.6029
 6827TIP3   OH220444   0.331   2.833   3.260 -0.1376 -0.4511  0.6900
 6827TIP3    H120445   0.376   2.858   3.180 -2.1221 -1.3410 -0.8018
 6827TIP3    H220446   0.345   2.906   3.320 -0.6258  1.4169 -1.3524
 6828TIP3   OH220447   3.997   3.086   2.303  0.4289 -0.4575 -0.4443
 6828TIP3    H120448   3.907   3.063   2.282  0.8797 -2.4658 -0.3487
 6828TIP3    H220449   4.030   3.131   2.225 -0.4876 -0.1573 -0.6647
 6829TIP3   OH220450   5.736   3.315   1.549  0.2887 -0.0780 -0.0064
 6829TIP3    H120451   5.814   3.295   1.496  1.5675  0.7499  1.4682
 6829TIP3    H220452   5.724   3.410   1.539 -0.5350 -0.1964 -0.2051
 6830TIP3   OH220453  -0.006   5.141   1.008 -0.1144 -0.4094  0.5956
 6830TIP3    H120454   0.045   5.063   0.986  0.4133  0.3388 -1.0107
 6830TIP3    H220455   0.056   5.198   1.054  0.2181  0.0567 -0.4072
 6831TIP3   OH220456   2.532   5.005   0.045 -0.2651  1.0953 -0.2035
 6831TIP3    H120457   2.541   4.947   0.121  2.8702  1.1155 -0.4358
 6831TIP3    H220458   2.475   4.956  -0.015  0.1713 -0.5809  0.6788
 6832TIP3   OH220459   6.510   0.176   0.308  0.1766 -0.3306 -0.3014
 6832TIP3    H120460   6.544   0.104   0.361  0.8201  1.2222  1.5319
 6832TIP3    H220461   6.535   0.255   0.356 -2.2049  1.0820 -1.1981
 6833TIP3   OH220462   5.569   4.006   5.452 -0.0642  0.7262 -0.4170
 6833TIP3    H120463   5.653   4.005   5.408  0.2761 -0.0887  0.2290
 6833TIP3    H220464   5.551   3.914   5.473 -1.4144  0.7981 -1.1009
 6834TIP3   OH220465   3.970   0.280   0.994  0.0571  0.7771 -0.2767
 6834TIP3    H120466   4.044   0.320   0.948 -0.7722  3.0102  0.2047
 6834TIP3    H220467   3.985   0.301   1.086  0.3476 -1.4234  0.2536
 6835TIP3   OH220468   5.451   4.933   5.202  0.3463 -0.5236  0.6394
 6835TIP3    H120469   5.458   4.839   5.181 -0.4785 -0.5292  0.3739
 6835TIP3    H220470   5.361   4.944   5.231 -1.1990  1.0745 -3.9074
 6836TIP3   OH220471   0.213   4.831   0.470 -0.3181 -0.1397  0.3198
 6836TIP3    H120472   0.172   4.893   0.531 -0.7943  0.4316 -0.5527
 6836TIP3    H220473   0.150   4.824   0.398  0.7035  0.0317 -0.6126
 6837TIP3   OH220474   2.017   5.919   1.174 -0.2266  0.5297 -0.0510
 6837TIP3    H120475   2.049   5.846   1.120 -1.2327  0.3407 -0.4070
 6837TIP3    H220476   2.009   5.992   1.114 -0.8806  0.4533 -0.0602
 6838TIP3   OH220477   7.076   3.256   0.215 -0.5532  0.3617 -0.1368
 6838TIP3    H120478   7.071   3.294   0.128  1.7677 -0.3024 -0.6317
 6838TIP3    H220479   7.147   3.303   0.258 -0.2452 -0.7517  0.6296
 6839TIP3   OH220480   1.997   0.601   0.155 -0.1732  0.7309 -0.1241
 6839TIP3    H120481   1.963   0.658   0.086 -0.0433  0.4257 -0.4449
 6839TIP3    H220482   1.918   0.565   0.197 -0.3019 -0.8732 -1.6107
 6840TIP3   OH220483   5.981   5.315   0.554  0.6903  0.4490  0.0895
 6840TIP3    H120484   6.034   5.368   0.494  0.7138  0.2781 -0.0406
 6840TIP3    H220485   5.894   5.355   0.551  0.8784  0.9116  0.5256
 6841TIP3   OH220486   4.315   2.534   0.728 -0.3195  0.0287  0.0372
 6841TIP3    H120487   4.395   2.528   0.676 -0.4815 -0.9294 -0.1245
 6841TIP3    H220488   4.249   2.568   0.668 -0.3753 -0.5612 -0.2439
 6842TIP3   OH220489   1.266   1.921   4.555 -0.8326 -0.2312  0.1034
 6842TIP3    H120490   1.318   1.983   4.504  1.1766 -0.8113  1.3513
 6842TIP3    H220491   1.219   1.870   4.489  1.0964 -0.4515 -1.1976
 6843TIP3   OH220492   3.811   5.353   0.553  0.2538  0.0472  0.5451
 6843TIP3    H120493   3.718   5.344   0.529  0.1743 -0.0727  0.8989
 6843TIP3    H220494   3.819   5.444   0.582  0.2412  0.0514  0.5365
 6844TIP3   OH220495   4.680   0.982   0.801  0.2693 -0.3432 -0.1734
 6844TIP3    H120496   4.697   0.934   0.720 -0.3350 -0.3132 -0.3227
 6844TIP3    H220497   4.611   0.931   0.845 -0.6918  0.6046 -0.5397
 6845TIP3   OH220498   1.677   5.863   4.950 -0.2810 -0.7740  0.3346
 6845TIP3    H120499   1.586   5.833   4.949 -0.7055  0.4517  0.4304
 6845TIP3    H220500   1.690   5.902   4.864 -0.8251  1.7694  1.3297
 6846TIP3   OH220501   7.123   0.424   2.008  0.1625 -0.0260  0.2017
 6846TIP3    H120502   7.146   0.390   1.922 -2.4793 -0.4346 -0.4250
 6846TIP3    H220503   7.121   0.347   2.065  0.5412  0.0472  0.3188
 6847TIP3   OH220504   3.434   3.606   5.338 -0.2090 -0.0744 -0.2633
 6847TIP3    H120505   3.362   3.656   5.299 -0.4365  1.8458  2.3330
 6847TIP3    H220506   3.395   3.521   5.360 -1.2987  0.4143 -0.2150
 6848TIP3   OH220507   4.049   1.833   5.832 -0.1620 -0.0676  0.1255
 6848TIP3    H120508   4.013   1.745   5.841  2.4990 -1.0563  2.2460
 6848TIP3    H220509   4.007   1.883   5.902 -0.3582 -0.1065  0.0379
 6849TIP3   OH220510   1.891   5.288   5.379 -0.1624  0.1083  0.4673
 6849TIP3    H120511   1.982   5.285   5.409 -0.6458  0.9768  2.1127
 6849TIP3    H220512   1.842   5.242   5.447 -0.8205 -1.6754 -1.1261
 6850TIP3   OH220513   2.629   3.179   1.259  0.4022 -0.5904 -0.2493
 6850TIP3    H120514   2.623   3.137   1.173 -1.7424 -1.0987  0.0889
 6850TIP3    H220515   2.551   3.235   1.263  0.4426 -0.6131  1.3583
 6851TIP3   OH220516   0.353   5.457   5.853 -1.1058 -0.0625  0.2393
 6851TIP3    H120517   0.406   5.425   5.780 -1.3840 -2.7512  1.1160
 6851TIP3    H220518   0.390   5.544   5.873  3.0322 -1.6973  0.7772
 6852TIP3   OH220519   6.045   4.216   3.360 -0.1617  0.1126  0.5403
 6852TIP3    H120520   6.131   4.173   3.359 -0.0669  0.2790  1.1373
 6852TIP3    H220521   6.058   4.294   3.414 -0.8250 -0.1535  1.1083
 6853TIP3   OH220522   3.337   2.725   1.242 -0.0952  0.1828  0.2054
 6853TIP3    H120523   3.367   2.634   1.236  0.7407  0.4934 -0.5147
 6853TIP3    H220524   3.300   2.732   1.330 -0.5707 -0.9661  0.1164
 6854TIP3   OH220525   1.934   6.321   1.562 -0.4192 -0.1298 -0.1500
 6854TIP3    H120526   1.869   6.304   1.629  1.1013 -1.3364  1.0852
 6854TIP3    H220527   1.983   6.240   1.555  1.0448  0.7750 -0.9416
 6855TIP3   OH220528   3.194   2.849   0.546 -0.2084  0.1490  0.4200
 6855TIP3    H120529   3.101   2.829   0.542  0.1630 -1.5286 -1.2311
 6855TIP3    H220530   3.222   2.813   0.630 -1.1118  1.0983  1.1526
 6856TIP3   OH220531   6.219   2.467   2.998 -0.3374  0.6034  0.0201
 6856TIP3    H120532   6.167   2.526   2.944 -1.3700  1.1947  1.5970
 6856TIP3    H220533   6.215   2.504   3.086  1.3043 -0.3139  0.5343
 6857TIP3   OH220534   0.658   3.305   0.556  0.6226 -0.2222 -0.2411
 6857TIP3    H120535   0.730   3.316   0.618  0.2267 -0.0179  0.1901
 6857TIP3    H220536   0.665   3.380   0.497 -0.2904  0.7876  0.8846
 6858TIP3   OH220537   3.120   0.624   4.041 -0.0595 -0.4969 -0.4368
 6858TIP3    H120538   3.071   0.599   4.120  1.4853  0.2082  0.7902
 6858TIP3    H220539   3.087   0.712   4.020  0.6127 -0.0189  0.3945
 6859TIP3   OH220540   1.452   2.663   3.421 -0.2813 -0.4157 -0.2933
 6859TIP3    H120541   1.510   2.735   3.394  0.0378 -0.3959  0.4418
 6859TIP3    H220542   1.368   2.706   3.436  0.0420 -0.0941  0.6704
 6860TIP3   OH220543   4.695   2.865   1.452 -0.5486  0.0521  0.1290
 6860TIP3    H120544   4.653   2.791   1.408 -0.7002  0.3283 -0.1963
 6860TIP3    H220545   4.692   2.843   1.545 -1.4842  0.1058  0.1159
 6861TIP3   OH220546   1.314   6.555   2.662 -0.7527  0.3313  0.3146
 6861TIP3    H120547   1.334   6.475   2.615  1.0897  0.3426  0.9789
 6861TIP3    H220548   1.400   6.588   2.690 -1.4375  2.5846 -0.0315
 6862TIP3   OH220549   5.917   1.311   5.200  0.7492  0.2148 -0.1697
 6862TIP3    H120550   5.887   1.288   5.287 -0.6687 -0.2126 -0.7395
 6862TIP3    H220551   6.012   1.299   5.202  0.4879 -1.9299  0.6775
 6863TIP3   OH220552   6.469   0.094   1.365  0.1464  0.8742 -0.1259
 6863TIP3    H120553   6.417   0.034   1.418  0.2252  0.0605 -0.9358
 6863TIP3    H220554   6.518   0.146   1.428  0.7563 -0.5203  0.5970
 6864TIP3   OH220555   4.214   3.793   0.181 -0.3241 -0.0108  0.4740
 6864TIP3    H120556   4.199   3.698   0.175 -0.6694  0.1300 -1.3250
 6864TIP3    H220557   4.309   3.802   0.176 -0.2887 -0.2607  0.6609
 6865TIP3   OH220558   0.483   3.692   0.296  0.0425 -0.0253 -0.0270
 6865TIP3    H120559   0.482   3.787   0.280 -3.0772  0.4315  1.9817
 6865TIP3    H220560   0.459   3.683   0.388  2.9575 -2.7905  0.6363
 6866TIP3   OH220561   0.934   5.526   0.550  0.4295  0.1635  0.6457
 6866TIP3    H120562   0.947   5.505   0.458  0.8817 -0.3704  0.8268
 6866TIP3    H220563   0.851   5.485   0.573 -0.7617  2.0552 -0.0466
 6867TIP3   OH220564   3.001   0.852   4.807 -0.4783 -0.1397  0.0391
 6867TIP3    H120565   2.908   0.839   4.787 -0.4597 -1.1165  0.5015
 6867TIP3    H220566   3.047   0.828   4.727 -0.6415  0.9991 -0.4167
 6868TIP3   OH220567   3.770   0.545   2.077  0.9079  0.6754  0.3209
 6868TIP3    H120568   3.816   0.589   2.005  0.2570 -1.7744 -1.7570
 6868TIP3    H220569   3.677   0.562   2.059  0.7540  0.6120  1.0189
 6869TIP3   OH220570   6.358   4.855   2.623 -0.2810 -0.3926 -0.0550
 6869TIP3    H120571   6.302   4.845   2.700 -1.3181 -1.1993 -0.8834
 6869TIP3    H220572   6.419   4.925   2.647 -3.0107  2.1497  0.1282
 6870TIP3   OH220573   6.696   4.921   5.648 -0.0977  1.1158 -0.3205
 6870TIP3    H120574   6.778   4.964   5.672  1.0881 -0.3291 -1.6148
 6870TIP3    H220575   6.668   4.964   5.568  0.7240  0.0137 -1.2319
 6871TIP3   OH220576   1.949   4.994   3.821 -0.1591 -0.5613  0.7371
 6871TIP3    H120577   1.974   5.049   3.747  0.4939 -1.8747 -0.0515
 6871TIP3    H220578   1.865   5.030   3.850 -0.7251 -0.3747 -1.0142
 6872TIP3   OH220579   0.328   6.180   3.704  0.7133 -0.1543  0.0676
 6872TIP3    H120580   0.241   6.145   3.720  0.8475 -0.4216  0.2072
 6872TIP3    H220581   0.364   6.198   3.791  0.5765  0.4996 -0.0050
 6873TIP3   OH220582   6.471   2.768   2.188 -0.8304 -0.0242 -0.1136
 6873TIP3    H120583   6.483   2.849   2.237 -0.0589 -0.1502 -0.0758
 6873TIP3    H220584   6.385   2.736   2.215 -0.6394  0.1708  0.7772
 6874TIP3   OH220585   2.376   4.187   0.144 -0.4685  0.3392  0.2029
 6874TIP3    H120586   2.453   4.172   0.089 -0.7943  0.6210 -0.3314
 6874TIP3    H220587   2.342   4.099   0.162  0.6392  0.1317  1.4103
 6875TIP3   OH220588   3.039   1.494   4.185 -0.8081 -0.3007  0.6503
 6875TIP3    H120589   3.081   1.520   4.103  0.4988 -0.6760  1.1737
 6875TIP3    H220590   2.945   1.509   4.170 -0.4078  1.6550 -0.1539
 6876TIP3   OH220591   0.913   2.343   2.704  0.3479  0.0109 -0.5207
 6876TIP3    H120592   0.897   2.417   2.646  1.3163  1.2115  0.6866
 6876TIP3    H220593   1.009   2.338   2.711  0.2668 -0.6513  0.2811
 6877TIP3   OH220594   1.918   0.865   4.419 -0.3138  0.3775 -0.1007
 6877TIP3    H120595   1.927   0.792   4.480  2.2360  0.7242  0.0366
 6877TIP3    H220596   1.857   0.833   4.352  0.0665 -1.5503  0.4123
 6878TIP3   OH220597   3.082   4.398   0.475 -0.3313  0.1377 -0.0858
 6878TIP3    H120598   3.126   4.319   0.508  0.0556  0.8561  1.1833
 6878TIP3    H220599   3.144   4.436   0.413 -0.6047 -0.6391 -0.8707
 6879TIP3   OH220600   5.308   4.258   3.703  0.3242  0.0768  0.0397
 6879TIP3    H120601   5.379   4.278   3.764  1.0026  1.3080 -1.0977
 6879TIP3    H220602   5.270   4.176   3.736  0.5260  0.7974  2.1983
 6880TIP3   OH220603   0.031   3.185   4.396  0.1742  0.3741 -0.0770
 6880TIP3    H120604   0.080   3.165   4.316  0.5132 -0.7731  0.3928
 6880TIP3    H220605   0.084   3.147   4.466 -1.2098 -0.6142  0.4761
 6881TIP3   OH220606   1.946   5.373   3.146 -0.1479 -0.1052  0.4927
 6881TIP3    H120607   2.040   5.382   3.159 -0.4151  2.0609  1.4857
 6881TIP3    H220608   1.917   5.318   3.219  0.2612 -0.1822  0.5975
 6882TIP3   OH220609   5.241   4.051   2.653 -0.3022 -0.0553  0.2289
 6882TIP3    H120610   5.294   3.999   2.592 -1.3618 -1.4315  0.4323
 6882TIP3    H220611   5.241   4.138   2.615  1.1973 -0.2667 -0.3490
 6883TIP3   OH220612   6.686   3.042   1.598 -0.0242  0.0408  0.2282
 6883TIP3    H120613   6.723   3.129   1.582 -2.1121  0.9439 -0.0317
 6883TIP3    H220614   6.759   2.991   1.634  2.0901  1.0061 -2.3074
 6884TIP3   OH220615   6.106   5.587   0.681  0.2164 -0.0616 -0.6485
 6884TIP3    H120616   6.192   5.545   0.673  0.6357  0.3771  1.2220
 6884TIP3    H220617   6.118   5.673   0.642  1.2959  0.8269  1.4832
 6885TIP3   OH220618   4.768   6.698   5.535 -0.2589 -0.2089  0.0407
 6885TIP3    H120619   4.838   6.738   5.483 -1.3180  0.1155 -1.1705
 6885TIP3    H220620   4.710   6.771   5.556 -0.9660 -0.7181 -0.1426
 6886TIP3   OH220621   4.936   1.351   5.822 -0.2740  0.3857  0.1136
 6886TIP3    H120622   5.019   1.385   5.855 -0.2621  0.0527  0.4349
 6886TIP3    H220623   4.921   1.399   5.741  0.4499  0.1445 -0.1760
 6887TIP3   OH220624   2.919   4.214   4.856 -0.2353  0.4542  0.7141
 6887TIP3    H120625   3.003   4.252   4.830 -0.7289  0.9233 -0.2701
 6887TIP3    H220626   2.874   4.285   4.903  0.1904 -0.0266  1.8901
 6888TIP3   OH220627   3.434   3.284   2.632 -0.0865  0.4598 -0.0207
 6888TIP3    H120628   3.509   3.341   2.618 -1.0187  1.2276 -2.1679
 6888TIP3    H220629   3.404   3.261   2.545 -1.8831 -0.4908  0.7903
 6889TIP3   OH220630   4.309   0.247   3.478  0.4712 -0.3843  0.1578
 6889TIP3    H120631   4.346   0.160   3.460 -0.9932 -1.0626  0.2533
 6889TIP3    H220632   4.371   0.308   3.438  0.7385 -1.5567 -1.3250
 6890TIP3   OH220633   2.779   0.086   1.265 -0.1873  0.0314  0.5330
 6890TIP3    H120634   2.806   0.042   1.346 -0.3514  0.3342  0.7528
 6890TIP3    H220635   2.730   0.162   1.295  0.6037  0.7052  0.1622
 6891TIP3   OH220636   0.771   1.030   3.581 -0.1858 -0.0821 -0.0762
 6891TIP3    H120637   0.782   0.962   3.514  0.7713 -2.0498  1.9377
 6891TIP3    H220638   0.680   1.022   3.609 -0.5984  0.7700 -1.1277
 6892TIP3   OH220639   5.007   2.953   3.441 -0.0926  0.2866 -0.1279
 6892TIP3    H120640   4.972   3.028   3.392 -0.3426  0.2036 -0.0798
 6892TIP3    H220641   4.942   2.884   3.429  1.1144 -0.6140 -1.8867
 6893TIP3   OH220642   4.902   5.224   1.804  0.3447 -0.5404  0.3973
 6893TIP3    H120643   4.856   5.140   1.799  1.8189 -1.3659  0.1269
 6893TIP3    H220644   4.946   5.233   1.720 -0.3205  0.8482  0.1639
 6894TIP3   OH220645   0.674   0.077   5.841  0.1564  0.1474 -0.1952
 6894TIP3    H120646   0.622   0.149   5.806 -0.0454  0.3059  0.4120
 6894TIP3    H220647   0.680   0.095   5.935 -1.1954 -1.4205  0.2440
 6895TIP3   OH220648   6.136   4.904   5.807  0.1254 -0.0448 -0.0979
 6895TIP3    H120649   6.223   4.867   5.794 -0.5953 -2.0323  0.3501
 6895TIP3    H220650   6.094   4.845   5.870 -2.2786 -0.4052 -1.9134
 6896TIP3   OH220651   0.820   0.210   1.642  0.6667 -0.5973  0.1694
 6896TIP3    H120652   0.781   0.292   1.613  0.0006 -1.0497 -0.2365
 6896TIP3    H220653   0.892   0.237   1.700  0.2089  0.2579  0.3593
 6897TIP3   OH220654   2.758   0.787   1.244 -0.2608  0.0622  0.2111
 6897TIP3    H120655   2.791   0.727   1.310  1.6861  0.6467 -0.1716
 6897TIP3    H220656   2.814   0.773   1.168 -0.7637  1.2689 -0.4170
 6898TIP3   OH220657   2.586   0.676   0.634  0.0948  0.0134  0.3695
 6898TIP3    H120658   2.641   0.600   0.652 -1.0856 -0.1171  4.1482
 6898TIP3    H220659   2.611   0.740   0.700 -0.5900  2.0969 -1.2618
 6899TIP3   OH220660   5.647   5.927   4.686 -0.0312 -0.0715 -0.0999
 6899TIP3    H120661   5.689   5.863   4.744 -0.2365 -1.5350 -1.4694
 6899TIP3    H220662   5.717   5.988   4.663  0.2396  0.0655  1.0291
 6900TIP3   OH220663   1.262   2.033   2.335 -0.1446 -0.4171  0.0247
 6900TIP3    H120664   1.196   2.078   2.388  0.2541  0.7126 -0.4109
 6900TIP3    H220665   1.212   1.995   2.262 -0.6281 -1.5735  0.9241
 6901TIP3   OH220666   6.286   4.315   5.334 -0.3667  0.3812 -0.2845
 6901TIP3    H120667   6.271   4.370   5.257  0.3564  1.4353  0.3034
 6901TIP3    H220668   6.331   4.238   5.299 -0.4828  0.6251 -0.9893
 6902TIP3   OH220669   1.836   2.441   0.428 -0.3419  0.0093 -0.3288
 6902TIP3    H120670   1.792   2.357   0.446 -1.2288  0.8061  1.4522
 6902TIP3    H220671   1.897   2.452   0.500 -0.1315  0.8347 -0.6249
 6903TIP3   OH220672   2.862   1.426   3.227  0.3893 -0.2790 -0.4595
 6903TIP3    H120673   2.889   1.454   3.139  0.8912  1.3253  0.1797
 6903TIP3    H220674   2.771   1.397   3.216  0.1396  0.7727 -1.3303
 6904TIP3   OH220675   3.805   5.825   0.019  0.2951  0.5282 -0.2254
 6904TIP3    H120676   3.811   5.743   0.067 -0.8318  0.0782 -0.8090
 6904TIP3    H220677   3.812   5.799  -0.073  1.8678  1.3129 -0.3560
 6905TIP3   OH220678   1.092   2.925   2.706 -0.1849 -0.0086 -0.6673
 6905TIP3    H120679   1.130   2.995   2.759 -0.0955  1.1524 -2.2108
 6905TIP3    H220680   1.037   2.876   2.767  1.3555  0.1343  0.9209
 6906TIP3   OH220681   2.042   3.569   3.319 -0.2601 -0.9119 -0.2763
 6906TIP3    H120682   2.045   3.509   3.394 -0.7178 -0.4613  0.1122
 6906TIP3    H220683   1.954   3.606   3.322 -0.1388 -0.5770 -0.7894
 6907TIP3   OH220684   2.597   4.880   3.806  0.2582 -0.4142 -0.0350
 6907TIP3    H120685   2.582   4.968   3.769 -1.0618 -0.6133 -0.0470
 6907TIP3    H220686   2.657   4.894   3.879 -0.1880  0.5528  0.1619
 6908TIP3   OH220687   0.143   3.721   0.914  0.5061 -0.2073  0.2397
 6908TIP3    H120688   0.068   3.776   0.940  0.1917  0.1482 -1.2658
 6908TIP3    H220689   0.220   3.772   0.938  0.2175  0.6468 -0.5736
 6909TIP3   OH220690   6.824   5.715   2.269 -0.0365 -0.0848  0.6501
 6909TIP3    H120691   6.762   5.696   2.199  0.8634  1.1627 -0.5224
 6909TIP3    H220692   6.908   5.684   2.236  0.3493  0.2200  1.3169
 6910TIP3   OH220693   2.165   4.561   5.744  0.2952  0.0314 -0.3340
 6910TIP3    H120694   2.093   4.577   5.682 -0.6839 -2.3102  0.1222
 6910TIP3    H220695   2.239   4.611   5.708 -0.7930  0.3100 -2.3076
 6911TIP3   OH220696   2.819   3.286   5.388 -0.0945  0.7581  0.4772
 6911TIP3    H120697   2.796   3.218   5.451 -0.6136 -0.8478 -1.3259
 6911TIP3    H220698   2.810   3.368   5.436 -2.3150 -0.2541  1.9664
 6912TIP3   OH220699   5.833   4.901   4.008 -0.3470  0.0194  0.1484
 6912TIP3    H120700   5.842   4.868   4.097 -1.5367 -1.0232 -0.0778
 6912TIP3    H220701   5.761   4.965   4.013 -0.7243 -0.3769 -0.1323
 6913TIP3   OH220702   1.164   6.620   3.315  0.0571  0.4674  0.2197
 6913TIP3    H120703   1.228   6.582   3.376  0.6847  0.3716 -0.4809
 6913TIP3    H220704   1.186   6.581   3.231  0.6707  2.3088 -0.5217
 6914TIP3   OH220705   0.678   5.712   0.736  0.1835 -0.2770  0.4008
 6914TIP3    H120706   0.621   5.783   0.765 -0.0660  0.1356 -1.0230
 6914TIP3    H220707   0.687   5.726   0.642  2.6614 -0.3156  0.5763
 6915TIP3   OH220708   1.142   1.606   1.932 -0.0368  0.1596  0.6540
 6915TIP3    H120709   1.084   1.611   2.008 -1.4866  0.9204 -0.4558
 6915TIP3    H220710   1.227   1.580   1.968 -0.3560  1.7092  2.7035
 6916TIP3   OH220711   3.764   4.338   3.652  0.1847 -0.2241 -0.7347
 6916TIP3    H120712   3.779   4.271   3.586  0.9219  1.0492 -1.8966
 6916TIP3    H220713   3.670   4.355   3.648  0.3613  0.5144 -2.1487
 6917TIP3   OH220714   6.479   4.412   2.079 -0.0474  0.3377  0.3020
 6917TIP3    H120715   6.491   4.323   2.112 -0.3929  0.9159  2.1246
 6917TIP3    H220716   6.392   4.437   2.110  0.2856  1.5082  0.3145
 6918TIP3   OH220717   1.413   2.074   4.963 -0.0818  0.2384  0.8326
 6918TIP3    H120718   1.460   2.152   4.990  0.8971 -0.2868  0.6669
 6918TIP3    H220719   1.472   2.001   4.983  0.1342 -0.2851 -1.3881
 6919TIP3   OH220720   0.500   3.306   4.139  0.1394  0.3359 -0.4704
 6919TIP3    H120721   0.471   3.397   4.128 -1.1293 -0.0432 -0.4267
 6919TIP3    H220722   0.502   3.271   4.051 -0.7734  0.0162 -0.3806
 6920TIP3   OH220723   4.968   0.440   5.729 -0.7167  0.2425 -0.3880
 6920TIP3    H120724   5.023   0.482   5.796 -3.3346  2.5820  0.4720
 6920TIP3    H220725   4.983   0.492   5.650 -0.1375 -0.4518 -0.7466
 6921TIP3   OH220726   3.897   4.454   2.791  0.3737 -1.0544 -0.4725
 6921TIP3    H120727   3.965   4.520   2.801 -1.8836  1.2913  0.5815
 6921TIP3    H220728   3.828   4.480   2.853 -2.5893 -1.7219 -3.1962
 6922TIP3   OH220729   1.636   4.390   3.299 -0.6923  0.3691  0.2509
 6922TIP3    H120730   1.653   4.297   3.315 -2.7993  0.0826  1.1240
 6922TIP3    H220731   1.596   4.392   3.211 -2.4997  0.1453  1.0178
 6923TIP3   OH220732   2.866   0.487   4.691 -0.1624 -0.0674  0.2020
 6923TIP3    H120733   2.783   0.479   4.737 -0.3044  0.9086  0.1357
 6923TIP3    H220734   2.929   0.511   4.759  0.1993 -1.3571  0.3547
 6924TIP3   OH220735   2.390   6.721   5.320  0.3551 -0.0024  0.2873
 6924TIP3    H120736   2.349   6.735   5.406  1.7216  2.6665  0.5947
 6924TIP3    H220737   2.484   6.724   5.337  0.6590  0.1814 -1.2699
 6925TIP3   OH220738   3.232   4.943   0.041  0.0465 -0.2055 -0.1839
 6925TIP3    H120739   3.147   4.982   0.018  0.9728  0.2456 -3.3599
 6925TIP3    H220740   3.213   4.849   0.051 -0.9507 -0.0145 -0.1728
 6926TIP3   OH220741   5.393   2.535   1.955  0.0297  0.0760 -0.0467
 6926TIP3    H120742   5.465   2.591   1.926 -0.1188 -0.0276 -0.6272
 6926TIP3    H220743   5.429   2.446   1.952  0.1689  0.1058  0.5767
 6927TIP3   OH220744   6.806   1.158   2.982 -0.0218 -0.3616 -0.1341
 6927TIP3    H120745   6.883   1.104   2.996 -0.4918 -0.7432  1.0401
 6927TIP3    H220746   6.821   1.236   3.035 -0.6093 -0.6191  0.4255
 6928TIP3   OH220747   5.705   1.026   2.081 -0.2246  0.1789 -0.2135
 6928TIP3    H120748   5.625   1.009   2.032 -1.1280 -1.6180  1.7400
 6928TIP3    H220749   5.689   1.110   2.124 -0.7391  0.2009 -0.4446
 6929TIP3   OH220750   3.306   5.717   2.867 -0.3308 -0.4847  0.7391
 6929TIP3    H120751   3.394   5.680   2.861  0.6291  1.5952  0.9231
 6929TIP3    H220752   3.248   5.645   2.842  1.4677 -1.6096 -0.4945
 6930TIP3   OH220753   3.215   6.047   3.347 -0.1432  0.2004  0.0242
 6930TIP3    H120754   3.141   5.992   3.369  0.8307 -0.4876  1.7894
 6930TIP3    H220755   3.290   5.988   3.348  0.4336  0.8270 -1.9550
 6931TIP3   OH220756   4.869   5.908   4.095  0.2138 -0.2060  0.5757
 6931TIP3    H120757   4.839   5.818   4.101 -1.0340  0.1677  0.1298
 6931TIP3    H220758   4.841   5.938   4.008  1.2838  0.3854  0.4035
 6932TIP3   OH220759   0.393   5.630   0.624  0.2474  0.5842  0.4439
 6932TIP3    H120760   0.391   5.573   0.547 -1.1908  1.0309  0.1242
 6932TIP3    H220761   0.301   5.646   0.645  0.6035  2.8741  0.4687
 6933TIP3   OH220762   1.265   1.050   4.030  0.2162  0.3869 -0.0462
 6933TIP3    H120763   1.301   1.131   3.993  1.3214  1.1872  2.5211
 6933TIP3    H220764   1.185   1.078   4.074 -0.7399 -0.4304 -1.1913
 6934TIP3   OH220765   2.589   6.414   5.608  0.0744 -0.3026 -0.2437
 6934TIP3    H120766   2.522   6.386   5.546  1.4054 -3.1493 -0.5467
 6934TIP3    H220767   2.572   6.362   5.687  0.4497  0.7887  0.5849
 6935TIP3   OH220768   6.044   5.837   1.018 -0.2220 -0.0475  0.1734
 6935TIP3    H120769   6.124   5.791   0.991 -2.0230 -2.5980 -1.3358
 6935TIP3    H220770   6.009   5.784   1.090 -0.3771  1.3053  1.1373
 6936TIP3   OH220771   6.408   5.544   0.436  0.1625 -0.0553  0.1589
 6936TIP3    H120772   6.495   5.521   0.404  0.8520  1.8028  0.5618
 6936TIP3    H220773   6.420   5.557   0.531 -0.3198  1.0836  0.0823
 6937TIP3   OH220774   4.425   2.823   5.635  0.0237  0.2506 -0.2643
 6937TIP3    H120775   4.415   2.731   5.612  2.0400  0.1221 -0.8429
 6937TIP3    H220776   4.399   2.871   5.556  1.5338  0.0278 -0.9391
 6938TIP3   OH220777   4.619   1.280   4.244  0.0923  0.0592  0.0354
 6938TIP3    H120778   4.619   1.358   4.188  2.1817  2.1084  2.6239
 6938TIP3    H220779   4.681   1.220   4.202 -0.3081  0.4440 -1.1417
 6939TIP3   OH220780   6.637   6.075   2.361  0.2802 -0.0127  0.3291
 6939TIP3    H120781   6.609   6.082   2.270  2.0234 -1.7246 -0.3870
 6939TIP3    H220782   6.559   6.043   2.407 -0.5420  0.6219 -0.5636
 6940TIP3   OH220783   3.572   6.400   2.199  0.4711  0.4833  0.5603
 6940TIP3    H120784   3.557   6.323   2.254 -0.1956  0.2715  0.0873
 6940TIP3    H220785   3.573   6.367   2.110 -2.0666  1.2688  0.1476
 6941TIP3   OH220786   6.291   3.237   3.724 -0.0581 -0.1610 -0.3608
 6941TIP3    H120787   6.249   3.219   3.641 -0.4127  1.2565 -0.5191
 6941TIP3    H220788   6.385   3.240   3.703 -0.0509 -0.9637 -0.4691
 6942TIP3   OH220789   3.591   6.647   1.938  0.3769  0.7905 -0.2088
 6942TIP3    H120790   3.677   6.640   1.979  0.2041 -0.0104  0.0404
 6942TIP3    H220791   3.555   6.729   1.971 -0.0740 -0.1831  1.8985
 6943TIP3   OH220792   3.273   6.739   4.386  0.3185 -0.1182 -0.3135
 6943TIP3    H120793   3.215   6.710   4.315 -0.0222  0.6057 -0.3488
 6943TIP3    H220794   3.299   6.659   4.431 -1.5799 -0.3856  0.3743
 6944TIP3   OH220795   4.353   1.004   4.831  0.0242 -0.3772 -0.4083
 6944TIP3    H120796   4.259   0.991   4.844  0.0429 -0.4698 -0.3664
 6944TIP3    H220797   4.394   0.931   4.876  0.0834 -0.8195 -1.1634
 6945TIP3   OH220798   6.174   0.746   4.291  0.0888 -0.0637  0.0330
 6945TIP3    H120799   6.118   0.722   4.365  0.9896 -0.9691  0.4362
 6945TIP3    H220800   6.209   0.832   4.314 -3.2203  1.8929 -1.4534
 6946TIP3   OH220801   6.712   0.299   1.203 -0.0338 -0.3445 -0.3643
 6946TIP3    H120802   6.793   0.252   1.224 -0.5464 -0.3137  1.9944
 6946TIP3    H220803   6.700   0.361   1.275 -0.0557  2.6129 -2.7514
 6947TIP3   OH220804   6.749   1.189   5.759  0.1699  0.3141 -0.0691
 6947TIP3    H120805   6.777   1.194   5.668  0.6594  2.0618  0.1455
 6947TIP3    H220806   6.689   1.263   5.770 -1.9324 -1.3802  0.3737
 6948TIP3   OH220807   4.244   6.599   0.521  0.2993 -0.0700 -0.1346
 6948TIP3    H120808   4.332   6.577   0.549 -0.3977 -1.0837  1.3625
 6948TIP3    H220809   4.202   6.515   0.504 -0.2500  0.4150 -1.3295
 6949TIP3   OH220810   5.213   0.652   4.349  0.3386  0.0679  0.5377
 6949TIP3    H120811   5.169   0.675   4.267  0.2999  1.8511  1.0286
 6949TIP3    H220812   5.195   0.558   4.360 -2.1219  0.4197 -0.0147
 6950TIP3   OH220813   0.125   0.380   3.755 -0.4698  0.2764 -0.2298
 6950TIP3    H120814   0.046   0.432   3.765 -0.9166 -0.3881 -0.1973
 6950TIP3    H220815   0.188   0.438   3.712 -0.2814  1.4808  1.5861
 6951TIP3   OH220816   5.618   4.914   1.815  0.6832  0.0306 -0.3511
 6951TIP3    H120817   5.552   4.868   1.867  1.3201  0.4562  0.8689
 6951TIP3    H220818   5.666   4.843   1.770  0.8391 -0.4218  0.5149
 6952TIP3   OH220819   6.111   5.117   5.068  0.5299 -0.6383  0.1767
 6952TIP3    H120820   6.023   5.145   5.044 -0.0144 -1.8734  0.6195
 6952TIP3    H220821   6.165   5.137   4.992 -0.5432 -1.6512 -0.8921
 6953TIP3   OH220822   6.025   1.032   5.582 -0.5614 -0.2377  0.1752
 6953TIP3    H120823   5.955   1.087   5.616 -0.6199 -0.0724 -0.2157
 6953TIP3    H220824   5.991   0.998   5.499 -0.5226 -0.8524  0.4064
 6954TIP3   OH220825   2.209   2.962   4.022  1.0967  0.4107 -0.1132
 6954TIP3    H120826   2.161   3.033   4.066 -1.0456 -1.6155  1.0802
 6954TIP3    H220827   2.210   2.987   3.930 -1.4385  1.0820 -0.0373
 6955TIP3   OH220828   1.942   0.962   2.315  0.2410 -0.1434 -0.1313
 6955TIP3    H120829   2.037   0.975   2.313  0.1998  0.0951 -1.1494
 6955TIP3    H220830   1.912   0.991   2.229 -0.9823  1.4065  0.7575
 6956TIP3   OH220831   2.031   6.209   4.987 -0.7955 -0.2648 -0.6676
 6956TIP3    H120832   2.095   6.146   4.952 -1.3972 -1.0233 -0.4406
 6956TIP3    H220833   1.958   6.154   5.017 -0.8155  0.4379  0.6547
 6957TIP3   OH220834   0.882   5.225   3.767  0.4786  0.0138 -0.0872
 6957TIP3    H120835   0.954   5.285   3.746  0.6677 -0.7751 -1.8429
 6957TIP3    H220836   0.870   5.174   3.687  0.7573 -2.7519  1.5262
 6958TIP3   OH220837   5.690   2.929   1.707  0.3451 -0.6504 -0.3365
 6958TIP3    H120838   5.647   2.844   1.705  0.3480 -0.6426 -1.1228
 6958TIP3    H220839   5.646   2.980   1.639 -0.0088  0.1553  0.4769
 6959TIP3   OH220840   5.888   3.736   2.873  0.1143  0.4151  0.0336
 6959TIP3    H120841   5.831   3.703   2.943  0.8577 -2.2192 -0.5040
 6959TIP3    H220842   5.974   3.742   2.913  0.7744 -2.1343 -0.8015
 6960TIP3   OH220843   0.528   1.985   3.301 -0.1214  0.3286 -0.4439
 6960TIP3    H120844   0.500   2.067   3.341  0.8088  0.5572 -0.2437
 6960TIP3    H220845   0.458   1.923   3.323 -0.8698  1.0771 -0.6688
 6961TIP3   OH220846   2.542   1.425   1.251 -0.3612 -0.1983 -0.0742
 6961TIP3    H120847   2.573   1.415   1.161 -1.3032 -1.1051 -0.3087
 6961TIP3    H220848   2.469   1.364   1.258 -0.3194 -0.1119  1.2995
 6962TIP3   OH220849   4.052   1.149   5.127 -1.0904 -0.5583  0.9795
 6962TIP3    H120850   3.974   1.095   5.115 -0.2965 -1.2443 -1.8655
 6962TIP3    H220851   4.116   1.091   5.168 -0.6425 -1.5135 -0.9421
 6963TIP3   OH220852   5.683   4.041   5.017  0.2503  0.1802  0.4758
 6963TIP3    H120853   5.725   3.994   5.089  0.6929  2.7073  1.9911
 6963TIP3    H220854   5.592   4.051   5.045  0.3714  0.9747  0.6113
 6964TIP3   OH220855   1.860   3.546   5.635 -0.2754  0.1901 -0.9300
 6964TIP3    H120856   1.845   3.460   5.675 -2.6575  0.4704 -1.1230
 6964TIP3    H220857   1.861   3.607   5.709  0.9881  0.0798 -0.8341
 6965TIP3   OH220858   5.075   3.348   3.031  0.2283 -0.1353 -1.0039
 6965TIP3    H120859   5.019   3.334   2.955  0.5523  1.5523 -1.5985
 6965TIP3    H220860   5.077   3.443   3.043  1.5425 -0.2569  0.0840
 6966TIP3   OH220861   6.495   6.304   0.011  0.6148 -0.2453 -0.6269
 6966TIP3    H120862   6.416   6.297   0.064  0.6587 -2.9632 -0.7903
 6966TIP3    H220863   6.469   6.270  -0.075  1.4848  0.6983 -1.2898
 6967TIP3   OH220864   5.243   5.616   4.459 -0.3307  0.5423 -0.0450
 6967TIP3    H120865   5.296   5.538   4.475 -0.6988  0.4251  0.6447
 6967TIP3    H220866   5.289   5.687   4.504 -1.7384  0.0797  2.2699
 6968TIP3   OH220867   2.388   1.846   2.999 -0.1919  0.5891 -0.2994
 6968TIP3    H120868   2.331   1.792   2.943 -0.7061  1.1870 -0.3668
 6968TIP3    H220869   2.380   1.934   2.963  1.3530  0.5688 -0.7491
 6969TIP3   OH220870   1.388   6.192   5.741  0.8134  0.2780  0.5871
 6969TIP3    H120871   1.388   6.214   5.648 -0.2276 -0.5320  0.3835
 6969TIP3    H220872   1.309   6.140   5.754  0.9305  0.3956  1.9340
 6970TIP3   OH220873   5.000   3.725   0.626 -0.9635 -0.0548  0.2359
 6970TIP3    H120874   4.921   3.768   0.661 -0.4821 -0.0812  1.4226
 6970TIP3    H220875   4.974   3.634   0.614 -2.0773  0.5345 -2.5667
 6971TIP3   OH220876   5.050   5.587   1.029 -0.3329  0.5749 -0.1797
 6971TIP3    H120877   4.959   5.571   1.006 -0.3771  0.9923 -0.3020
 6971TIP3    H220878   5.058   5.558   1.120 -1.0223  2.1119  0.4130
 6972TIP3   OH220879   0.735   2.812   1.276  0.1223 -0.0302 -0.4928
 6972TIP3    H120880   0.757   2.833   1.367 -1.0227 -0.0220 -0.1984
 6972TIP3    H220881   0.687   2.730   1.282  1.0573 -0.6501 -1.2261
 6973TIP3   OH220882  -0.007   0.208   2.172  0.5415 -0.1330  0.1340
 6973TIP3    H120883  -0.000   0.261   2.251 -0.8751 -0.8302  0.7575
 6973TIP3    H220884   0.073   0.155   2.171  0.8784  0.3564  0.7407
 6974TIP3   OH220885   4.198   4.409   0.097  0.1530  0.1157 -0.1338
 6974TIP3    H120886   4.129   4.364   0.049 -0.7577  0.4786  0.7951
 6974TIP3    H220887   4.175   4.502   0.091  1.4629  0.4107 -1.1806
 6975TIP3   OH220888   6.569   5.661   0.116 -0.4106 -0.7275  0.1772
 6975TIP3    H120889   6.641   5.608   0.151  1.9947  2.1692  0.0213
 6975TIP3    H220890   6.554   5.728   0.184 -1.7240 -0.2127 -0.5914
 6976TIP3   OH220891   6.948   1.428   5.832 -0.0028 -0.8709 -0.1532
 6976TIP3    H120892   6.869   1.384   5.800 -0.6365  0.8365 -1.0843
 6976TIP3    H220893   6.917   1.485   5.903  0.6258 -1.1338  0.3461
 6977TIP3   OH220894   6.335   3.390   2.240 -0.3816 -0.1609  0.3156
 6977TIP3    H120895   6.341   3.295   2.236  0.2678 -0.0993 -0.4932
 6977TIP3    H220896   6.401   3.421   2.177 -0.3919  0.8230  0.7688
 6978TIP3   OH220897   0.645   2.121   5.772 -0.1481  0.3907 -0.0249
 6978TIP3    H120898   0.620   2.213   5.769  2.2168  1.2376  2.3095
 6978TIP3    H220899   0.587   2.082   5.838  0.7193  0.9751  1.1323
 6979TIP3   OH220900   4.059   6.359   0.949  0.2310 -0.1849 -0.5980
 6979TIP3    H120901   4.053   6.453   0.935  1.4763 -0.0777 -0.5158
 6979TIP3    H220902   3.974   6.335   0.987 -0.6158  0.6562 -1.8917
 6980TIP3   OH220903   0.901   2.513   4.878  0.0782 -0.1214  0.7021
 6980TIP3    H120904   0.932   2.527   4.967  0.1995  0.5123  0.5668
 6980TIP3    H220905   0.981   2.502   4.827  0.0591 -4.9527  1.2882
 6981TIP3   OH220906   0.063   0.807   4.334 -0.5429 -0.8326  0.0874
 6981TIP3    H120907   0.110   0.746   4.277 -0.9462 -0.5400 -0.5787
 6981TIP3    H220908   0.118   0.886   4.334  0.8825 -1.7395  2.3533
 6982TIP3   OH220909   3.579   6.443   4.738 -0.1183  0.2804 -0.5074
 6982TIP3    H120910   3.504   6.395   4.773 -0.8434  1.1343 -0.8600
 6982TIP3    H220911   3.636   6.375   4.702 -0.6948 -0.3865 -0.1879
 6983TIP3   OH220912   1.509   1.760   3.186 -0.2308  0.7694 -0.8117
 6983TIP3    H120913   1.544   1.750   3.097 -1.0399 -3.2274 -0.8674
 6983TIP3    H220914   1.587   1.777   3.240  0.8950 -0.9029 -1.8110
 6984TIP3   OH220915   4.881   5.295   0.982 -0.2653  0.1354  0.0252
 6984TIP3    H120916   4.834   5.301   0.899  2.1175  2.8737 -1.2746
 6984TIP3    H220917   4.969   5.266   0.957 -0.4653 -2.7706  2.1423
 6985TIP3   OH220918   6.056   0.208   5.356 -0.0067 -0.0893  0.3268
 6985TIP3    H120919   6.031   0.162   5.437  0.0121 -1.1696 -0.2604
 6985TIP3    H220920   5.989   0.275   5.344 -0.5052 -0.5036  0.7641
 6986TIP3   OH220921   1.264   1.218   1.309 -0.1230 -0.3956  0.1576
 6986TIP3    H120922   1.176   1.187   1.328  0.1319  0.7298  3.9565
 6986TIP3    H220923   1.255   1.312   1.297  0.6868  0.0251  2.4174
 6987TIP3   OH220924   7.165   1.380   0.679  0.4693 -0.6745 -0.2290
 6987TIP3    H120925   7.086   1.432   0.668 -0.3188 -1.6104  0.8340
 6987TIP3    H220926   7.235   1.444   0.694  0.4337  0.3379 -3.4874
 6988TIP3   OH220927   1.034   5.744   0.658 -0.1897 -0.0470  0.6251
 6988TIP3    H120928   1.007   5.658   0.625  1.2900 -0.8760  1.4483
 6988TIP3    H220929   0.966   5.767   0.722 -1.4496  0.1712 -0.7415
 6989TIP3   OH220930   6.136   4.593   2.808 -0.2185  0.1508 -0.3865
 6989TIP3    H120931   6.041   4.601   2.801 -0.4046  0.5171  1.6954
 6989TIP3    H220932   6.154   4.503   2.783 -0.8564  0.5570 -2.5145
 6990TIP3   OH220933   0.855   5.081   5.040  0.1034  0.1120 -0.2950
 6990TIP3    H120934   0.824   4.994   5.065  1.1595  0.4960  2.6698
 6990TIP3    H220935   0.784   5.141   5.065 -0.0138  0.2711 -0.9729
 6991TIP3   OH220936   3.059   1.977   5.773  0.4555 -0.2243 -0.0610
 6991TIP3    H120937   3.094   1.988   5.862 -0.4613 -0.0874  0.2913
 6991TIP3    H220938   3.130   2.005   5.716  0.2696  1.9574  0.6789
 6992TIP3   OH220939   3.185   4.063   3.135 -0.2234 -0.3069 -0.2602
 6992TIP3    H120940   3.274   4.076   3.103 -0.3944 -1.4948 -1.2999
 6992TIP3    H220941   3.172   4.132   3.201  1.6095 -0.3946  0.2316
 6993TIP3   OH220942   5.785   6.492   2.738  0.2595 -0.0228  0.4453
 6993TIP3    H120943   5.867   6.515   2.781  0.1633 -0.3047  0.7864
 6993TIP3    H220944   5.723   6.480   2.809  0.1166 -0.5649  0.2398
 6994TIP3   OH220945   1.489   5.069   4.206 -0.6946 -0.0185 -0.3026
 6994TIP3    H120946   1.426   5.111   4.148  0.5711 -0.7670 -2.3590
 6994TIP3    H220947   1.551   5.138   4.228 -1.2494  0.3000  0.2994
 6995TIP3   OH220948   0.430   2.201   2.355 -0.1098 -0.1276 -0.4117
 6995TIP3    H120949   0.397   2.123   2.311  1.6956  0.3447 -2.8580
 6995TIP3    H220950   0.371   2.271   2.328  0.3368 -0.0452 -1.2028
 6996TIP3   OH220951   1.501   3.773   4.604 -0.2496 -0.1087 -0.4285
 6996TIP3    H120952   1.471   3.684   4.623 -0.4614 -0.1038 -0.7398
 6996TIP3    H220953   1.466   3.792   4.517  0.2180  0.0877 -0.5778
 6997TIP3   OH220954   2.065   6.142   1.031 -0.6434 -0.2712  0.5766
 6997TIP3    H120955   2.058   6.208   1.101  0.3963  1.0880 -0.5429
 6997TIP3    H220956   2.038   6.188   0.952  0.4971 -1.0576 -0.3000
 6998TIP3   OH220957   5.877   1.185   1.444  0.0443  0.0923 -0.4298
 6998TIP3    H120958   5.885   1.281   1.445 -1.4734  0.2472 -0.5215
 6998TIP3    H220959   5.909   1.159   1.358 -1.2237  0.7146 -1.1114
 6999TIP3   OH220960   5.444   2.655   4.724  0.0885 -0.2902 -0.0548
 6999TIP3    H120961   5.363   2.679   4.678  0.1095 -0.7689 -0.3429
 6999TIP3    H220962   5.454   2.723   4.790  0.4317  0.8396 -1.2146
 7000TIP3   OH220963   4.402   0.079   2.819 -0.0474 -0.2343  0.5294
 7000TIP3    H120964   4.371   0.069   2.729  0.3449  0.1718  0.3464
 7000TIP3    H220965   4.495   0.098   2.811  0.0180 -0.3183  1.0300
 7001TIP3   OH220966   3.746   6.618   5.347  0.5029  0.1274 -0.5398
 7001TIP3    H120967   3.752   6.682   5.418 -0.2783  0.1736 -0.5105
 7001TIP3    H220968   3.766   6.534   5.387  0.8154  0.2541 -0.4283
 7002TIP3   OH220969   4.201   1.653   5.329 -0.4294  0.1374  0.0021
 7002TIP3    H120970   4.275   1.619   5.380 -2.2435 -0.3031  2.5881
 7002TIP3    H220971   4.166   1.576   5.284  0.4401  0.2724 -0.9153
 7003TIP3   OH220972   4.439   1.228   4.689 -0.4318 -0.5638 -0.4104
 7003TIP3    H120973   4.438   1.147   4.740  3.4556 -1.4463 -1.4152
 7003TIP3    H220974   4.442   1.199   4.598 -2.7998  0.8899 -1.0277
 7004TIP3   OH220975   4.643   5.701   5.661 -0.2177 -0.7986  0.7204
 7004TIP3    H120976   4.612   5.623   5.708  1.6626 -1.9788  0.1115
 7004TIP3    H220977   4.723   5.726   5.707  0.4102 -0.6028 -0.4522
 7005TIP3   OH220978   3.753   1.601   4.466 -0.4159  0.1479 -0.6712
 7005TIP3    H120979   3.833   1.650   4.485 -1.7581  2.9713 -1.6496
 7005TIP3    H220980   3.714   1.584   4.552  0.5703 -0.0841 -0.2600
 7006TIP3   OH220981   6.193  -0.019   2.139  0.1846 -0.2002  0.0506
 7006TIP3    H120982   6.118   0.040   2.142  0.3646  0.0787 -0.7635
 7006TIP3    H220983   6.243   0.002   2.218  0.1180  0.5642 -0.1035
 7007TIP3   OH220984   6.632   1.810   4.720 -1.0066  0.0422 -0.6911
 7007TIP3    H120985   6.641   1.906   4.724 -2.0335  0.1462 -0.8183
 7007TIP3    H220986   6.723   1.778   4.725 -0.6851  0.9957  0.0014
 7008TIP3   OH220987   2.302   2.485   4.995 -0.8186 -0.7246  0.9245
 7008TIP3    H120988   2.375   2.427   5.017  0.1929  0.9502  2.1368
 7008TIP3    H220989   2.282   2.531   5.076 -0.2710  2.0381 -0.3983
 7009TIP3   OH220990   1.185   1.477   3.282  0.2916 -0.4979  0.5596
 7009TIP3    H120991   1.104   1.510   3.321 -0.8861 -1.6290 -0.8035
 7009TIP3    H220992   1.173   1.382   3.279  0.5727 -0.5209 -1.8640
 7010TIP3   OH220993   1.168   6.575   1.358  0.0178  0.3393 -0.1404
 7010TIP3    H120994   1.102   6.510   1.334 -1.1929  1.8675 -1.1480
 7010TIP3    H220995   1.228   6.577   1.283 -1.6487  2.4330 -1.5488
 7011TIP3   OH220996   2.443   2.379   5.797 -0.0957 -0.8445 -0.1476
 7011TIP3    H120997   2.429   2.456   5.853  0.9657 -2.2800  2.2840
 7011TIP3    H220998   2.355   2.341   5.788 -0.3190 -0.5057  0.4841
 7012TIP3   OH220999   2.058   0.933   3.150  0.1051  0.0481  0.1404
 7012TIP3    H121000   2.062   0.839   3.168  2.2488  0.3894  1.8613
 7012TIP3    H221001   2.107   0.945   3.068  2.2869 -0.1033  1.3522
 7013TIP3   OH221002   6.574   2.286   0.818 -0.6717  0.0493 -0.0590
 7013TIP3    H121003   6.516   2.334   0.759  1.1931  2.3594 -0.1497
 7013TIP3    H221004   6.642   2.250   0.762  0.8387  1.8386  0.5264
 7014TIP3   OH221005   3.807   0.050   2.820 -0.3306  0.1233  0.5612
 7014TIP3    H121006   3.722   0.095   2.826 -1.3970 -1.8604  1.5756
 7014TIP3    H221007   3.803  -0.016   2.889  2.3136  0.3179  1.0006
 7015TIP3   OH221008   0.805   4.586   2.249 -0.2357 -0.6421  0.5844
 7015TIP3    H121009   0.774   4.605   2.160  3.4765 -0.3616 -0.8350
 7015TIP3    H221010   0.756   4.508   2.275 -1.8550 -0.3904 -1.4487
 7016TIP3   OH221011   1.733   5.168   5.551 -0.0257  0.8923  0.2499
 7016TIP3    H121012   1.643   5.150   5.525  0.4196 -1.1723 -0.1131
 7016TIP3    H221013   1.727   5.192   5.643 -0.9165  0.3624  0.3435
 7017TIP3   OH221014   1.116   4.029   2.623 -0.1554 -0.2530  1.3044
 7017TIP3    H121015   1.064   3.951   2.602  0.8855 -1.2634  2.3009
 7017TIP3    H221016   1.178   4.036   2.550  0.0754 -0.6713  1.4555
 7018TIP3   OH221017   5.965   5.612   3.559 -0.5486  0.1887  0.4486
 7018TIP3    H121018   6.011   5.549   3.504 -0.9293  0.3917 -0.1049
 7018TIP3    H221019   6.033   5.644   3.619 -0.5480 -1.3670  1.3152
 7019TIP3   OH221020   4.386   3.560   1.454 -0.1866  0.4752  0.7605
 7019TIP3    H121021   4.391   3.504   1.531  1.0127  0.1595  0.4747
 7019TIP3    H221022   4.318   3.624   1.475  0.8889  1.1163  2.5864
 7020TIP3   OH221023   2.333   0.806   5.844 -0.1856 -0.0194 -0.2378
 7020TIP3    H121024   2.419   0.832   5.811  0.2227 -0.4310  0.4709
 7020TIP3    H221025   2.314   0.723   5.800  0.0734 -0.2539  0.0928
 7021TIP3   OH221026   4.882   5.379   2.376 -0.0445  0.8853  0.9250
 7021TIP3    H121027   4.800   5.398   2.421 -0.4383 -0.0977  0.6626
 7021TIP3    H221028   4.897   5.286   2.394  0.7552  0.9425  0.5685
 7022TIP3   OH221029   6.854   6.192   2.914 -1.1382 -0.1821 -0.1040
 7022TIP3    H121030   6.851   6.250   2.990 -2.4459  1.7150 -1.5095
 7022TIP3    H221031   6.762   6.170   2.897 -0.8673 -0.5525 -1.1615
 7023TIP3   OH221032   5.632   0.526   3.321  0.1799 -0.1700  0.2130
 7023TIP3    H121033   5.607   0.434   3.325 -0.4571  0.0130  0.5626
 7023TIP3    H221034   5.682   0.534   3.240  0.1018 -0.7877  0.0984
 7024TIP3   OH221035   3.695   0.654   1.435  0.4963 -0.3147 -0.4337
 7024TIP3    H121036   3.706   0.747   1.414 -1.2405 -0.2392 -1.1918
 7024TIP3    H221037   3.782   0.625   1.463  0.9307  1.6684  0.4106
 7025TIP3   OH221038   1.817   2.854   1.463 -0.2265  0.9653  0.3201
 7025TIP3    H121039   1.904   2.816   1.478  0.3160  2.3370  0.7908
 7025TIP3    H221040   1.756   2.788   1.497  0.6801  0.4787  1.0627
 7026TIP3   OH221041   6.829   2.746   3.062  0.0548 -0.8267  0.8199
 7026TIP3    H121042   6.743   2.740   3.019  0.4886 -1.1471 -0.0336
 7026TIP3    H221043   6.844   2.840   3.072  0.3596 -0.6977 -0.6414
 7027TIP3   OH221044   6.619   1.890   5.598 -0.3375  0.2483 -0.4647
 7027TIP3    H121045   6.531   1.896   5.560 -0.4116 -0.3972 -0.3996
 7027TIP3    H221046   6.606   1.855   5.686  0.0950 -1.1895 -0.9525
 7028TIP3   OH221047   4.706   4.077   3.694 -0.2692  0.1109  0.1844
 7028TIP3    H121048   4.632   4.128   3.726 -0.4907  0.1482 -0.3903
 7028TIP3    H221049   4.720   4.107   3.604 -0.2948 -0.7223 -0.1040
 7029TIP3   OH221050   2.842   6.154   0.984  0.3244  0.1149  0.1672
 7029TIP3    H121051   2.758   6.119   1.015 -0.9105  2.1431 -0.6344
 7029TIP3    H221052   2.862   6.102   0.906  0.3470 -1.0230  0.9062
 7030TIP3   OH221053   3.069   3.092   4.783 -0.5584  0.2960 -0.0296
 7030TIP3    H121054   2.974   3.097   4.799 -0.3918  0.9353  0.7969
 7030TIP3    H221055   3.096   3.011   4.826 -0.4964  0.8548  1.0177
 7031TIP3   OH221056   0.955   5.745   4.267  0.1435  0.9524  0.2690
 7031TIP3    H121057   0.932   5.798   4.343  0.7792  1.9079 -0.1901
 7031TIP3    H221058   0.897   5.776   4.197  0.0531  0.5732  0.1714
 7032TIP3   OH221059   2.129   2.682   3.084 -0.5415 -0.2601 -0.0193
 7032TIP3    H121060   2.145   2.613   3.149  0.3117  0.1575  0.2165
 7032TIP3    H221061   2.179   2.757   3.115 -0.1331 -0.0405 -1.1539
 7033TIP3   OH221062   6.021   3.149   2.249 -0.0391  0.7677 -0.6214
 7033TIP3    H121063   5.939   3.100   2.250  1.0223 -1.1088  0.0233
 7033TIP3    H221064   6.044   3.159   2.341  0.6284  0.9895 -0.8080
 7034TIP3   OH221065   1.172   4.186   4.882  0.4604  0.1004 -0.8455
 7034TIP3    H121066   1.225   4.113   4.847 -0.0406 -0.2792 -0.8219
 7034TIP3    H221067   1.211   4.264   4.842  0.6953 -0.2225 -1.2663
 7035TIP3   OH221068   5.194   4.731   4.570  0.4983 -0.4027 -0.3477
 7035TIP3    H121069   5.281   4.771   4.568  0.6511 -0.7308 -0.3273
 7035TIP3    H221070   5.200   4.657   4.511  0.6055 -1.1696  0.5978
 7036TIP3   OH221071   4.239   2.153   3.184 -0.7516  0.0808  0.4216
 7036TIP3    H121072   4.209   2.190   3.101  0.0849 -1.6410 -0.6810
 7036TIP3    H221073   4.160   2.112   3.221 -0.5687 -1.5437 -0.8805
 7037TIP3   OH221074   5.478   3.566   4.193 -0.0213 -0.3365  0.2218
 7037TIP3    H121075   5.503   3.611   4.112 -1.6845 -1.1800 -0.8361
 7037TIP3    H221076   5.398   3.610   4.221 -0.4121 -1.1610  0.4285
 7038TIP3   OH221077   5.448   3.436   0.318  0.1608 -0.1593 -0.6952
 7038TIP3    H121078   5.540   3.458   0.301  0.5140  0.1019  1.3498
 7038TIP3    H221079   5.404   3.454   0.235  1.7844  0.6886 -1.4272
 7039TIP3   OH221080   0.245   0.419   1.542 -0.0518 -0.5951  0.1943
 7039TIP3    H121081   0.285   0.499   1.576  1.0732 -1.0227 -0.0786
 7039TIP3    H221082   0.316   0.355   1.543 -1.0302 -1.7044  0.7720
 7040TIP3   OH221083   1.903   3.089   3.101 -0.2366 -0.1077 -0.0811
 7040TIP3    H121084   1.948   3.172   3.114  0.2688 -0.4221  0.2162
 7040TIP3    H221085   1.893   3.053   3.189 -3.3187  1.0775  0.1961
 7041TIP3   OH221086   1.712   6.141   4.040 -0.5399  0.5430 -0.2577
 7041TIP3    H121087   1.697   6.208   3.974 -0.2027  0.7947 -0.0809
 7041TIP3    H221088   1.779   6.084   4.002  0.5875  1.4180  0.3848
 7042TIP3   OH221089   6.984   0.993   1.921  0.6369 -0.4845  0.4045
 7042TIP3    H121090   6.977   1.019   1.829 -1.4052  0.4311  0.7684
 7042TIP3    H221091   7.072   1.022   1.947  0.0824  2.2387 -0.4071
 7043TIP3   OH221092   0.255   1.489   0.293  0.0351 -0.7225  0.2512
 7043TIP3    H121093   0.257   1.531   0.378  1.2353  0.8317 -0.5081
 7043TIP3    H221094   0.343   1.499   0.258 -0.7592 -0.1248 -1.7260
 7044TIP3   OH221095   1.529   5.777   2.788  0.3911 -0.2435 -0.5133
 7044TIP3    H121096   1.454   5.718   2.793  0.1869  0.0178 -0.4684
 7044TIP3    H221097   1.541   5.809   2.877  0.3984 -0.0931 -0.5671
 7045TIP3   OH221098   3.442   2.625   5.704  0.4741 -0.0254  0.1878
 7045TIP3    H121099   3.366   2.620   5.762 -1.4348 -0.2632 -2.1682
 7045TIP3    H221100   3.475   2.714   5.716 -2.1181  1.2077 -0.8852
 7046TIP3   OH221101   0.204   4.098   1.024  0.6081  0.1260  0.1162
 7046TIP3    H121102   0.298   4.081   1.028  0.6132  0.2768  0.6648
 7046TIP3    H221103   0.186   4.152   1.101 -0.0024 -0.2460  0.2355
 7047TIP3   OH221104   2.851   4.451   5.238  0.5870 -0.3127 -0.4171
 7047TIP3    H121105   2.875   4.374   5.289  1.3992 -0.0696 -0.4162
 7047TIP3    H221106   2.831   4.518   5.304 -0.1039 -0.5079 -0.4181
 7048TIP3   OH221107   3.078   3.912   3.859  0.0532  0.5228  0.3547
 7048TIP3    H121108   3.130   3.981   3.819  0.5301  0.8452  1.4865
 7048TIP3    H221109   3.033   3.871   3.786  1.0184  0.9737 -0.5290
 7049TIP3   OH221110   0.401   5.145   1.971 -0.3680 -0.1848 -0.2748
 7049TIP3    H121111   0.397   5.155   2.066 -1.4952  0.2728 -0.3546
 7049TIP3    H221112   0.487   5.107   1.954 -0.5296 -1.2101  1.0172
 7050TIP3   OH221113   4.280   1.246   0.737 -0.0486 -0.1299 -0.7085
 7050TIP3    H121114   4.269   1.324   0.792 -1.8610 -0.2008 -0.9201
 7050TIP3    H221115   4.373   1.244   0.717  0.2401  1.2677  0.3546
 7051TIP3   OH221116   4.946   1.384   4.322 -0.1458 -0.2899  0.1710
 7051TIP3    H121117   5.018   1.402   4.382 -0.6642  2.6471  0.0819
 7051TIP3    H221118   4.868   1.416   4.368 -0.7731  0.5655 -1.3985
 7052TIP3   OH221119   1.984   1.792   0.887 -0.3302  0.4025  0.0415
 7052TIP3    H121120   1.968   1.823   0.976  3.1300  0.8755  0.6436
 7052TIP3    H221121   2.062   1.737   0.894 -1.1229 -1.2219 -2.4397
 7053TIP3   OH221122   5.033   1.118   4.400  0.8419 -0.3010  0.5736
 7053TIP3    H121123   5.120   1.158   4.405  1.0699 -0.8623  1.2786
 7053TIP3    H221124   4.977   1.177   4.450 -0.5065  3.2258 -4.3461
 7054TIP3   OH221125   1.617   2.272   2.820 -0.5281  0.5885  0.2672
 7054TIP3    H121126   1.587   2.228   2.899  0.5578 -0.5344  0.0820
 7054TIP3    H221127   1.712   2.277   2.830 -0.3266 -0.0136 -1.1787
 7055TIP3   OH221128   4.371   5.903   4.845 -0.4192 -0.3940 -0.9295
 7055TIP3    H121129   4.438   5.884   4.780 -1.8037 -1.4018 -2.1407
 7055TIP3    H221130   4.290   5.869   4.807 -1.4215 -0.3526  1.0049
 7056TIP3   OH221131   6.951   5.084   4.580 -0.1480  0.1417  0.7504
 7056TIP3    H121132   6.916   5.060   4.665 -1.2151 -1.1098  0.0031
 7056TIP3    H221133   7.045   5.094   4.593 -0.1549 -1.0687  1.8515
 7057TIP3   OH221134   5.883   6.244   2.980  0.2017 -0.4522 -0.3096
 7057TIP3    H121135   5.849   6.156   2.964 -0.5738 -0.2762  0.2873
 7057TIP3    H221136   5.809   6.291   3.018  0.3597  0.6947 -1.3631
 7058TIP3   OH221137   6.364   2.008   3.155  0.1483 -0.1886  0.1702
 7058TIP3    H121138   6.298   1.995   3.087 -0.5431  1.4643  0.4962
 7058TIP3    H221139   6.326   2.071   3.215  1.3710 -0.4497  1.2725
 7059TIP3   OH221140   1.742   5.331   0.404  0.1335  0.0726 -0.0104
 7059TIP3    H121141   1.794   5.402   0.366 -0.0048 -0.1781 -0.6833
 7059TIP3    H221142   1.722   5.360   0.493 -0.1209  0.9766 -0.3597
 7060TIP3   OH221143   2.209   5.522  -0.006  0.7990 -0.6230 -0.0543
 7060TIP3    H121144   2.164   5.450   0.037 -1.5427  0.2736 -0.7982
 7060TIP3    H221145   2.300   5.495  -0.010  0.3578 -2.5933  1.5499
 7061TIP3   OH221146   1.336   1.474   4.837 -0.5713 -0.0346  0.5986
 7061TIP3    H121147   1.415   1.516   4.870  0.2476 -0.9333 -0.1207
 7061TIP3    H221148   1.353   1.380   4.848 -1.8958 -0.2254  1.1972
 7062TIP3   OH221149   0.153   6.005   0.758  0.3805 -0.1823  0.3295
 7062TIP3    H121150   0.170   6.093   0.724  2.2887 -0.1919  1.1340
 7062TIP3    H221151   0.129   6.019   0.850  0.6843 -0.5027  0.4584
 7063TIP3   OH221152   1.492   5.121   2.061  0.3806 -0.4395 -0.2360
 7063TIP3    H121153   1.583   5.102   2.037  0.1927 -1.2745 -0.3417
 7063TIP3    H221154   1.468   5.049   2.120  0.1207  0.3592  0.6546
 7064TIP3   OH221155   1.341   5.539   2.198 -0.2989 -0.2129  0.0658
 7064TIP3    H121156   1.304   5.454   2.222 -0.2676 -0.0134  0.8666
 7064TIP3    H221157   1.435   5.527   2.206 -0.2878 -0.1522  0.0218
 7065TIP3   OH221158   1.701   1.518   1.294  0.4916  0.3292 -0.7688
 7065TIP3    H121159   1.794   1.507   1.312  0.9117  3.8493  0.0400
 7065TIP3    H221160   1.697   1.545   1.203  0.2877  0.2821 -0.7736
 7066TIP3   OH221161   4.528   2.956   3.833 -0.1495  0.1220  0.2268
 7066TIP3    H121162   4.512   2.997   3.748  0.7486  1.3895  0.6412
 7066TIP3    H221163   4.472   3.004   3.894  0.0817 -0.0191  0.5520
 7067TIP3   OH221164   1.054   0.673   2.345 -0.4915  0.5245 -0.2578
 7067TIP3    H121165   1.126   0.681   2.407  1.8179 -0.7052 -2.6124
 7067TIP3    H221166   1.034   0.763   2.319  0.0899  0.8876  0.5159
 7068TIP3   OH221167   5.576   6.719   2.666  0.0967  0.5701  0.3501
 7068TIP3    H121168   5.528   6.792   2.627 -1.3216  0.7031  2.1826
 7068TIP3    H221169   5.649   6.759   2.712 -0.3707  0.8008  0.9040
 7069TIP3   OH221170   5.696   5.102   0.670 -0.4404 -0.0600  0.0662
 7069TIP3    H121171   5.699   5.197   0.681 -1.3799  0.2583 -1.8859
 7069TIP3    H221172   5.721   5.087   0.579  0.8926 -1.8147  0.6536
 7070TIP3   OH221173   0.480   1.469   2.126  0.5930  0.1609 -0.1293
 7070TIP3    H121174   0.386   1.488   2.121  0.6055 -0.0556 -1.9219
 7070TIP3    H221175   0.486   1.374   2.127  0.7914  0.1683  0.8630
 7071TIP3   OH221176   3.539   3.631   5.038  0.2697  0.0722 -0.3608
 7071TIP3    H121177   3.609   3.589   5.088  0.1064 -0.8133 -0.8545
 7071TIP3    H221178   3.543   3.589   4.952 -0.1717  0.7843 -0.7394
 7072TIP3   OH221179   5.900   6.425   1.543  0.3381  0.4120  0.0793
 7072TIP3    H121180   5.976   6.417   1.601 -0.4638  1.0332  1.2785
 7072TIP3    H221181   5.863   6.511   1.564  0.5602  1.0958 -2.0812
 7073TIP3   OH221182   2.456   2.804   2.453 -0.1848  0.4349 -0.2827
 7073TIP3    H121183   2.475   2.724   2.502 -1.1372  0.8288  0.7899
 7073TIP3    H221184   2.387   2.779   2.391 -0.9286  0.5410  0.4786
 7074TIP3   OH221185   5.863   4.089   1.904 -0.3128 -0.5782  0.6601
 7074TIP3    H121186   5.880   4.016   1.964  1.4892 -0.9243 -0.1742
 7074TIP3    H221187   5.951   4.115   1.875 -1.1151 -0.5139 -1.8914
 7075TIP3   OH221188   6.661   1.151   3.586 -0.7379  0.0437 -0.5822
 7075TIP3    H121189   6.674   1.157   3.491 -0.7191  0.0212 -0.5811
 7075TIP3    H221190   6.730   1.205   3.624 -0.1784 -0.6814 -0.5486
 7076TIP3   OH221191   5.980   5.401   0.864 -0.7303 -0.3407 -0.4200
 7076TIP3    H121192   5.981   5.462   0.791 -2.1191  0.5064  0.2035
 7076TIP3    H221193   6.061   5.418   0.911 -0.2458 -0.2712 -1.2684
 7077TIP3   OH221194   2.974   1.674   5.758 -0.6558  0.5278 -0.0945
 7077TIP3    H121195   2.949   1.587   5.790 -0.0113  0.7174  0.9572
 7077TIP3    H221196   3.070   1.674   5.759 -0.5965  0.5883 -1.9647
 7078TIP3   OH221197   2.719   0.093   4.781  0.0177  0.3021  0.2687
 7078TIP3    H121198   2.701   0.154   4.852  1.0286 -0.2235  0.9903
 7078TIP3    H221199   2.687   0.008   4.813  0.1076  0.1377 -0.0701
 7079TIP3   OH221200   3.705   5.110   3.880 -0.4896 -0.4390 -0.3831
 7079TIP3    H121201   3.771   5.044   3.901  0.5834 -0.4692 -3.3543
 7079TIP3    H221202   3.727   5.185   3.936  0.4764 -1.3320  0.4688
 7080TIP3   OH221203   3.214   3.352   5.614  0.1028 -0.3781 -0.0557
 7080TIP3    H121204   3.215   3.257   5.604 -2.8161 -0.8021  2.2536
 7080TIP3    H221205   3.262   3.368   5.695 -0.3988 -0.0146  0.1743
 7081TIP3   OH221206   1.361   1.258   0.639 -0.0106  0.1459  0.2292
 7081TIP3    H121207   1.376   1.165   0.657 -0.2549 -0.1616 -1.0733
 7081TIP3    H221208   1.441   1.288   0.596 -0.1286  0.4153  0.1936
 7082TIP3   OH221209   1.858   3.720   2.745  0.4316  0.2545 -0.4023
 7082TIP3    H121210   1.786   3.765   2.789 -0.8360 -0.4363 -1.6617
 7082TIP3    H221211   1.925   3.787   2.733 -0.5638  1.2869 -0.3974
 7083TIP3   OH221212   3.986   4.860   3.099 -0.0838 -0.2232  0.2867
 7083TIP3    H121213   4.071   4.850   3.057 -0.5094 -1.4404 -0.3043
 7083TIP3    H221214   3.989   4.949   3.135  1.2502 -0.0690 -0.1187
 7084TIP3   OH221215   3.098   1.451   1.349  0.1982  0.0916 -0.1382
 7084TIP3    H121216   3.002   1.459   1.351  0.1325 -0.5514 -0.6231
 7084TIP3    H221217   3.116   1.399   1.271  0.9712  0.5345 -0.2600
 7085TIP3   OH221218   6.956   3.347   5.462  0.5946 -0.0393  0.0303
 7085TIP3    H121219   6.939   3.270   5.409  2.1058  1.0201 -2.1353
 7085TIP3    H221220   7.051   3.344   5.478  0.7101  1.4234 -0.2346
 7086TIP3   OH221221   0.427   4.560   5.277 -0.0161  0.2078 -0.2066
 7086TIP3    H121222   0.509   4.524   5.313 -0.5141 -0.2123  0.5319
 7086TIP3    H221223   0.444   4.655   5.273  0.4466  0.1475  0.1205
 7087TIP3   OH221224   5.775   0.352   2.856  0.4699  0.2987 -0.3309
 7087TIP3    H121225   5.838   0.363   2.784  0.4360  0.8565 -0.2795
 7087TIP3    H221226   5.737   0.266   2.842  1.8317 -0.3944  0.0988
 7088TIP3   OH221227   2.589   2.259   1.576 -0.1834  0.0648 -0.0104
 7088TIP3    H121228   2.552   2.179   1.614  0.3076  0.0598  0.4640
 7088TIP3    H221229   2.522   2.326   1.593  0.0884  0.0981  1.0211
 7089TIP3   OH221230   3.417   4.118   2.974 -0.7681 -1.3127 -0.7365
 7089TIP3    H121231   3.498   4.091   3.017  0.3403  0.7863 -1.3477
 7089TIP3    H221232   3.446   4.167   2.898 -2.6179 -0.1546 -0.7537
 7090TIP3   OH221233   7.079   6.681   0.972  0.1642 -0.4407  0.0326
 7090TIP3    H121234   7.151   6.744   0.962 -0.2630  0.3391  1.5502
 7090TIP3    H221235   7.018   6.702   0.902  0.2708  0.5291  0.2162
 7091TIP3   OH221236   0.774   0.479   1.537  0.5249  0.0133  0.3185
 7091TIP3    H121237   0.790   0.517   1.623  0.1328  2.3358 -0.5538
 7091TIP3    H221238   0.852   0.501   1.486 -0.9941  2.5310 -1.0973
 7092TIP3   OH221239   4.175   4.774   5.454  0.3935  0.0372 -0.0501
 7092TIP3    H121240   4.203   4.851   5.404 -0.8673  1.1250  0.8337
 7092TIP3    H221241   4.231   4.775   5.532  0.2368  0.1837  0.0609
 7093TIP3   OH221242   4.914   1.727   0.027  0.2685  0.6064  0.3304
 7093TIP3    H121243   4.838   1.739  -0.029 -0.4280  2.0188  1.4945
 7093TIP3    H221244   4.903   1.640   0.066  0.2161  0.0592 -0.8798
 7094TIP3   OH221245   0.970   5.154   2.417  0.1115  0.1313  0.3065
 7094TIP3    H121246   0.959   5.222   2.483 -0.1810 -0.9906  1.4415
 7094TIP3    H221247   1.064   5.147   2.405  0.2756 -0.6838  1.7597
 7095TIP3   OH221248   5.590   2.891   5.679  0.3332  0.1675 -0.2162
 7095TIP3    H121249   5.594   2.824   5.611 -0.0707  1.3083 -1.4033
 7095TIP3    H221250   5.680   2.901   5.709  0.5854 -0.0125 -0.9100
 7096TIP3   OH221251   4.937   6.500   1.722 -0.1379 -1.0151 -0.3500
 7096TIP3    H121252   4.996   6.566   1.757 -1.6956 -0.6451  1.7989
 7096TIP3    H221253   4.913   6.532   1.635  0.0344  0.6654  0.1850
 7097TIP3   OH221254   3.624   0.081   0.560 -0.3930 -0.3737 -1.2905
 7097TIP3    H121255   3.571   0.008   0.593 -1.0615  0.6153 -0.1258
 7097TIP3    H221256   3.638   0.137   0.636  2.6275 -0.7520 -1.4623
 7098TIP3   OH221257   1.325   5.171   0.124 -0.0829  0.7037  0.1157
 7098TIP3    H121258   1.336   5.106   0.055  0.7969 -0.4799  1.3191
 7098TIP3    H221259   1.292   5.249   0.079 -0.2974 -0.2757 -1.4991
 7099TIP3   OH221260   5.680   3.870   1.340  0.2613  0.5321 -0.1986
 7099TIP3    H121261   5.713   3.867   1.250 -0.4244  0.1606 -0.4491
 7099TIP3    H221262   5.697   3.782   1.373  1.1842  0.8810  0.2963
 7100TIP3   OH221263   3.880   2.159   1.148  0.4723  0.9433 -0.1660
 7100TIP3    H121264   3.877   2.070   1.184  0.0383  1.5748  1.4599
 7100TIP3    H221265   3.911   2.212   1.221  1.1396  2.0705 -1.2561
 7101TIP3   OH221266   2.068   5.893   3.512 -0.4660  0.1083 -0.2703
 7101TIP3    H121267   2.094   5.907   3.421 -1.1265  2.0997 -0.2164
 7101TIP3    H221268   2.149   5.872   3.558  0.1224  0.5521 -1.0749
 7102TIP3   OH221269   7.098   2.505   5.811 -0.7985 -0.0756 -0.0042
 7102TIP3    H121270   7.023   2.449   5.829  0.7437 -1.7167  1.6819
 7102TIP3    H221271   7.143   2.463   5.738 -0.9016  0.3057 -0.2942
 7103TIP3   OH221272   6.940   1.653   0.476  0.4714 -1.2290  0.0110
 7103TIP3    H121273   6.946   1.687   0.386 -1.9954  0.0503  0.2515
 7103TIP3    H221274   6.913   1.562   0.466 -2.2348 -0.4366 -0.6004
 7104TIP3   OH221275   5.348   2.949   2.464  0.3424 -0.4817 -0.2098
 7104TIP3    H121276   5.313   2.986   2.383  0.0237  0.0308  0.1548
 7104TIP3    H221277   5.397   3.021   2.504 -1.5768  0.0763  1.2730
 7105TIP3   OH221278   7.108   2.991   3.880  0.0769 -0.6801  0.3353
 7105TIP3    H121279   7.177   3.052   3.908 -0.1391 -1.1461  1.9924
 7105TIP3    H221280   7.108   2.923   3.947 -1.9785 -0.6996  0.3706
 7106TIP3   OH221281   2.104   2.461   1.040  0.0867  0.1226 -0.1473
 7106TIP3    H121282   2.055   2.506   0.970 -0.4461 -0.9070 -0.4564
 7106TIP3    H221283   2.168   2.407   0.993 -0.3214 -0.6298  0.1436
 7107TIP3   OH221284   6.813   0.181   5.510  0.7320 -0.3191 -0.4746
 7107TIP3    H121285   6.905   0.196   5.532  0.2235  0.6534  1.1739
 7107TIP3    H221286   6.792   0.099   5.554  0.7444 -0.4324 -0.6776
 7108TIP3   OH221287   3.116   5.252   3.650  0.3989 -0.1252 -0.1876
 7108TIP3    H121288   3.033   5.249   3.699  0.7787  1.4195  0.6000
 7108TIP3    H221289   3.115   5.171   3.597  0.2182 -2.2080  2.7516
 7109TIP3   OH221290   6.683   4.185   0.829  0.3272  0.1144  0.2879
 7109TIP3    H121291   6.776   4.194   0.849  0.5042 -0.9979 -0.0055
 7109TIP3    H221292   6.680   4.131   0.751 -0.4924  1.8384 -0.9347
 7110TIP3   OH221293   2.592   5.190   4.982 -0.1795 -0.5901  0.3251
 7110TIP3    H121294   2.608   5.207   4.889 -2.3120  1.4684  0.2393
 7110TIP3    H221295   2.618   5.271   5.026 -1.2005 -0.7320  1.2311
 7111TIP3   OH221296   6.403   6.025   1.095 -0.9392 -0.7816  0.1857
 7111TIP3    H121297   6.407   5.952   1.156 -0.2259 -1.6596 -0.8750
 7111TIP3    H221298   6.379   5.985   1.011  2.6202 -0.3594 -1.1917
 7112TIP3   OH221299   3.995   1.994   4.666 -0.0379  0.0758 -0.3825
 7112TIP3    H121300   4.022   1.991   4.757  2.1543  1.9622 -0.8669
 7112TIP3    H221301   4.027   1.912   4.628 -0.0626 -0.2554  0.3062
 7113TIP3   OH221302   2.245   3.752   2.876 -0.3483 -0.3713 -0.0185
 7113TIP3    H121303   2.234   3.826   2.936  0.1401  0.6610 -1.1765
 7113TIP3    H221304   2.330   3.715   2.900  0.4439  0.8241 -0.8693
 7114TIP3   OH221305   1.209   2.114   2.739 -0.2651 -0.1558 -0.1500
 7114TIP3    H121306   1.179   2.199   2.770  0.2166  0.2865 -0.8721
 7114TIP3    H221307   1.218   2.061   2.818 -0.7779  0.3950  0.2817
 7115TIP3   OH221308   1.573   0.803   1.433 -0.4020  0.1080 -0.0373
 7115TIP3    H121309   1.504   0.857   1.394 -0.0739  1.0052  0.5993
 7115TIP3    H221310   1.531   0.761   1.508 -0.3044  0.5224  0.2508
 7116TIP3   OH221311   3.843   3.943   4.729  0.2485  0.5017 -0.3372
 7116TIP3    H121312   3.796   3.933   4.812  0.2925 -2.0576 -0.5205
 7116TIP3    H221313   3.930   3.974   4.754  0.1769  0.0002  0.5646
 7117TIP3   OH221314   1.466   4.348   5.284  0.2637  0.4387 -0.0180
 7117TIP3    H121315   1.500   4.400   5.211 -0.3536 -1.2235 -1.5471
 7117TIP3    H221316   1.380   4.386   5.302 -0.3236 -0.2039 -1.3380
 7118TIP3   OH221317   2.383   1.461   4.998 -0.2556  0.0656  0.2228
 7118TIP3    H121318   2.463   1.505   4.970  1.1780 -2.5939 -0.2100
 7118TIP3    H221319   2.401   1.368   4.985 -3.0168 -0.7125  1.2257
 7119TIP3   OH221320   7.058   4.232   4.567  0.2145  0.3527  0.4735
 7119TIP3    H121321   6.994   4.303   4.574 -0.3089 -0.0257 -0.3191
 7119TIP3    H221322   7.109   4.238   4.648 -0.2591  1.2043  0.7265
 7120TIP3   OH221323   2.563   5.255   1.050 -0.0217 -0.8521  0.7821
 7120TIP3    H121324   2.606   5.340   1.036 -0.0285 -0.9677 -0.0102
 7120TIP3    H221325   2.621   5.208   1.109  1.6204 -1.4685 -1.1931
 7121TIP3   OH221326   6.053   5.556   2.738 -0.0990 -0.2520 -0.3076
 7121TIP3    H121327   6.087   5.500   2.809  0.5235 -0.8621 -1.0693
 7121TIP3    H221328   6.128   5.608   2.710 -0.6114  0.8080  0.2153
 7122TIP3   OH221329   4.670   0.047   2.724 -0.2158 -0.0461  0.3413
 7122TIP3    H121330   4.642  -0.038   2.759  1.9613 -0.3324  1.6104
 7122TIP3    H221331   4.666   0.036   2.629 -1.6076 -0.9517  0.4732
 7123TIP3   OH221332   2.828   0.948   5.368 -0.1366 -0.4716 -0.3228
 7123TIP3    H121333   2.859   0.889   5.299  0.2983  1.4246 -1.8293
 7123TIP3    H221334   2.887   1.023   5.364 -0.5575  0.0053  1.6629
 7124TIP3   OH221335   6.119   5.441   4.970 -0.0510  0.1577 -0.4535
 7124TIP3    H121336   6.204   5.400   4.989 -1.3874 -1.5439  2.4851
 7124TIP3    H221337   6.087   5.394   4.892  0.7287 -0.7520 -0.2548
 7125TIP3   OH221338   5.251   0.144   2.539 -0.7046 -0.1412  0.0763
 7125TIP3    H121339   5.243   0.218   2.600 -1.4363  1.2095 -1.5777
 7125TIP3    H221340   5.332   0.100   2.566 -0.5683  0.8962  1.4854
 7126TIP3   OH221341   0.614   3.311   1.104 -0.0901 -0.1585  0.3065
 7126TIP3    H121342   0.527   3.349   1.108 -0.1480 -0.3823  1.4950
 7126TIP3    H221343   0.600   3.217   1.099  0.0759 -0.1286 -1.3976
 7127TIP3   OH221344   3.538   3.058   3.249  0.1756  0.3335 -0.0309
 7127TIP3    H121345   3.460   3.100   3.285 -0.5112  0.6534 -1.7887
 7127TIP3    H221346   3.598   3.051   3.324 -1.2285  0.7750  1.1904
 7128TIP3   OH221347   6.305   3.744   2.022 -0.1960  0.3589  0.2068
 7128TIP3    H121348   6.353   3.700   1.952 -0.6571  0.1130  0.0362
 7128TIP3    H221349   6.283   3.830   1.985 -1.1301 -0.0701 -0.2554
 7129TIP3   OH221350   0.867   6.737   5.186  0.8119  0.2850 -1.0019
 7129TIP3    H121351   0.808   6.785   5.244 -0.0041  0.8167 -2.2299
 7129TIP3    H221352   0.904   6.804   5.128  3.7640  0.2133  0.5835
 7130TIP3   OH221353   0.650   2.616   5.185  0.0433 -0.0281  0.3934
 7130TIP3    H121354   0.678   2.702   5.217  3.5436 -0.8592 -0.0103
 7130TIP3    H221355   0.596   2.636   5.108  0.0737  1.8120  0.8070
 7131TIP3   OH221356   0.772   3.070   5.493  0.4541  0.1172 -0.0070
 7131TIP3    H121357   0.854   3.109   5.462  0.9698 -1.3706 -0.6006
 7131TIP3    H221358   0.796   3.031   5.578  0.7843 -1.6122 -0.8552
 7132TIP3   OH221359   0.056   2.163   5.322 -0.3664 -0.2686 -0.1623
 7132TIP3    H121360   0.054   2.256   5.343  1.4361 -0.7885  2.9596
 7132TIP3    H221361  -0.018   2.126   5.371 -0.7355 -0.5938 -0.9362
 7133TIP3   OH221362   3.383   4.636   2.457 -0.2115  0.3578 -0.5128
 7133TIP3    H121363   3.298   4.639   2.413 -1.4118  2.2371  1.6878
 7133TIP3    H221364   3.412   4.727   2.459  0.9486 -0.0093  0.4229
 7134TIP3   OH221365   6.997   5.141   0.690  0.1577 -0.1101 -0.1284
 7134TIP3    H121366   6.977   5.121   0.598  1.4354  2.9175 -1.2181
 7134TIP3    H221367   7.001   5.237   0.693 -1.3793 -0.0065  3.4936
 7135TIP3   OH221368   3.990   1.884   3.948  0.5595  0.2898  0.3742
 7135TIP3    H121369   3.917   1.892   3.887  1.3299  1.8627 -0.3968
 7135TIP3    H221370   3.960   1.929   4.027  0.4243  0.3088  0.3128
 7136TIP3   OH221371   1.264   5.820   0.917 -0.1693  0.0386 -0.3323
 7136TIP3    H121372   1.168   5.818   0.921 -0.3799 -0.9376 -3.4223
 7136TIP3    H221373   1.290   5.728   0.913  1.0310  0.2482  1.3604
 7137TIP3   OH221374   4.493   3.592   3.212  0.3649 -0.1597 -0.3137
 7137TIP3    H121375   4.437   3.593   3.289  0.9008  1.2498  0.0908
 7137TIP3    H221376   4.441   3.548   3.145 -0.3832 -0.7703  0.6433
 7138TIP3   OH221377   4.052   4.343   4.083  0.4374 -0.1362 -0.4376
 7138TIP3    H121378   3.973   4.376   4.040  0.1343  0.4077  0.4916
 7138TIP3    H221379   4.121   4.404   4.056  0.4161 -0.2685 -0.7889
 7139TIP3   OH221380   7.163   1.603   2.036  0.4347  0.4059 -0.2012
 7139TIP3    H121381   7.119   1.651   2.106  0.2434 -1.2759  0.8992
 7139TIP3    H221382   7.250   1.642   2.030  0.5686  0.3693  1.2181
 7140TIP3   OH221383   4.516   2.763   0.008 -0.1271  0.1740  0.2124
 7140TIP3    H121384   4.558   2.813   0.077  1.3370  1.7131 -1.6838
 7140TIP3    H221385   4.529   2.672   0.033 -0.7576  0.6702  2.5542
 7141TIP3   OH221386   5.806   0.815   3.151  0.7394  0.0482  0.0666
 7141TIP3    H121387   5.856   0.807   3.232 -0.9034  1.4790  1.3215
 7141TIP3    H221388   5.757   0.896   3.161 -0.4855 -0.3795 -1.8315
 7142TIP3   OH221389   5.959   2.944   3.685 -0.3279 -0.1202  0.8888
 7142TIP3    H121390   5.934   2.852   3.685 -0.1690 -0.1639  1.0542
 7142TIP3    H221391   6.019   2.952   3.759  0.1509 -0.0178  0.4913
 7143TIP3   OH221392   1.087   4.099   5.557  0.9106 -0.4693  0.2243
 7143TIP3    H121393   1.042   4.181   5.538  2.6400  0.2826 -0.8338
 7143TIP3    H221394   1.081   4.050   5.475  2.1966 -0.2627 -0.0014
 7144TIP3   OH221395   5.938   4.386   5.316  0.3980 -0.6523  0.4531
 7144TIP3    H121396   5.955   4.297   5.285  0.6699 -0.3517 -0.2920
 7144TIP3    H221397   6.017   4.410   5.365  0.5311 -0.6500  0.2396
 7145TIP3   OH221398   0.201   0.207   1.001  0.1696 -0.2854  0.2271
 7145TIP3    H121399   0.143   0.220   1.076  0.6546 -0.1848  0.5949
 7145TIP3    H221400   0.259   0.283   1.002  0.5453 -0.5653  0.0931
 7146TIP3   OH221401   4.747   4.226   4.638 -0.1259  0.0067 -0.4442
 7146TIP3    H121402   4.719   4.136   4.620  0.4399 -0.3083  0.1635
 7146TIP3    H221403   4.673   4.281   4.612 -1.8164 -0.8522  2.2106
 7147TIP3   OH221404   4.381   5.913   0.496  0.4349 -0.0781 -0.7368
 7147TIP3    H121405   4.373   6.005   0.523  0.7699 -1.1810  3.8291
 7147TIP3    H221406   4.298   5.873   0.521  0.1832 -1.1066 -2.9211
 7148TIP3   OH221407   0.619   1.284   5.452 -0.5990 -0.4347 -0.0692
 7148TIP3    H121408   0.696   1.303   5.505 -0.3554 -0.9154 -0.2492
 7148TIP3    H221409   0.562   1.360   5.466  0.6252  0.7659 -1.2933
 7149TIP3   OH221410   6.334   3.089   4.682 -0.0708  0.1018  0.1184
 7149TIP3    H121411   6.420   3.114   4.715  0.9544 -1.5047 -1.1604
 7149TIP3    H221412   6.296   3.035   4.751  1.5349 -2.2164 -0.6849
 7150TIP3   OH221413   0.552   2.400   3.751  0.0478 -0.3268  0.3041
 7150TIP3    H121414   0.581   2.346   3.825 -0.9704  0.3916  1.2815
 7150TIP3    H221415   0.528   2.337   3.683 -0.1318 -1.0752  1.0381
 7151TIP3   OH221416   6.695   1.469   5.717 -0.3348 -0.6437  0.2136
 7151TIP3    H121417   6.621   1.465   5.777 -1.5322  1.4320 -0.9850
 7151TIP3    H221418   6.663   1.520   5.643  2.5336  1.2203  0.0600
 7152TIP3   OH221419   1.929   1.339   5.442  0.3242 -0.8256 -0.0157
 7152TIP3    H121420   1.877   1.400   5.495 -1.0593 -2.6890  0.8683
 7152TIP3    H221421   2.014   1.381   5.435 -0.3104  0.8091  1.2888
 7153TIP3   OH221422   1.774   5.015   4.396  0.3477  0.1241 -0.1399
 7153TIP3    H121423   1.769   4.944   4.333  0.8239  0.2456 -0.3205
 7153TIP3    H221424   1.718   4.988   4.469 -0.8142  0.3199 -0.9410
 7154TIP3   OH221425   5.374   5.146   4.724  0.3235 -0.1132  0.3391
 7154TIP3    H121426   5.414   5.092   4.792 -0.6426  0.3993  1.3466
 7154TIP3    H221427   5.366   5.232   4.763 -2.0551 -0.2631  0.3372
 7155TIP3   OH221428   4.200   5.725   5.351 -0.2858 -0.3216 -0.3734
 7155TIP3    H121429   4.237   5.656   5.406  0.2873 -1.0017 -1.5506
 7155TIP3    H221430   4.177   5.795   5.411  2.5238 -0.0562  0.5232
 7156TIP3   OH221431   3.937   5.069   0.072 -0.3079  0.0014  0.2201
 7156TIP3    H121432   3.877   5.000   0.100 -2.4535  1.1184 -1.3798
 7156TIP3    H221433   3.918   5.143   0.131 -1.4787  0.7649 -1.0388
 7157TIP3   OH221434   4.403   4.772   2.706  0.3721  0.3790  0.3505
 7157TIP3    H121435   4.479   4.744   2.757 -0.6955 -0.3937  1.5766
 7157TIP3    H221436   4.396   4.866   2.722 -0.1093  0.1015  1.9010
 7158TIP3   OH221437   2.418   2.954   4.271  0.0689  0.0799  0.7732
 7158TIP3    H121438   2.329   2.990   4.274 -0.3103 -0.2840 -2.2691
 7158TIP3    H221439   2.405   2.859   4.261  0.5370  0.2163 -2.4457
 7159TIP3   OH221440   4.891   6.609   4.839  0.0436  0.4591  0.0606
 7159TIP3    H121441   4.846   6.674   4.785  0.1185 -0.0986 -0.6978
 7159TIP3    H221442   4.944   6.560   4.777 -0.2483 -0.5217  0.5675
 7160TIP3   OH221443   1.139   3.837   2.953 -0.0993 -0.6832 -0.2789
 7160TIP3    H121444   1.199   3.788   3.010  0.6315  0.9238  0.4063
 7160TIP3    H221445   1.182   3.837   2.867  0.1876 -0.7598 -0.1377
 7161TIP3   OH221446   4.138   1.294   4.424 -0.7988  0.1792  0.2149
 7161TIP3    H121447   4.045   1.302   4.444 -0.5216  1.0180  1.2580
 7161TIP3    H221448   4.181   1.357   4.482  0.3049  0.8127 -1.2019
 7162TIP3   OH221449   7.006   3.374   1.535  0.3920  0.2797  0.7163
 7162TIP3    H121450   6.997   3.324   1.616  1.0176  0.5101  0.9286
 7162TIP3    H221451   6.998   3.465   1.562 -1.1633  0.3154  0.2743
 7163TIP3   OH221452   2.201   3.340   2.679 -0.0934 -0.2006 -0.1112
 7163TIP3    H121453   2.160   3.284   2.612 -0.0154 -0.2745 -0.0977
 7163TIP3    H221454   2.217   3.281   2.752  0.1477 -0.1996 -0.1630
 7164TIP3   OH221455   1.463   0.997   4.715  0.1095  0.0573 -0.0818
 7164TIP3    H121456   1.546   1.005   4.668  0.0517 -0.0131 -0.1962
 7164TIP3    H221457   1.438   0.906   4.705 -0.8815  0.4570 -1.5829
 7165TIP3   OH221458   6.150   0.665   2.292  0.1853 -0.1826 -0.3156
 7165TIP3    H121459   6.116   0.732   2.233  0.7383  1.6487  1.3215
 7165TIP3    H221460   6.235   0.699   2.320  0.7558 -1.8719  0.1333
 7166TIP3   OH221461   0.731   0.115   2.461  0.0890 -0.5452 -0.3968
 7166TIP3    H121462   0.653   0.085   2.414  0.1085 -0.2385 -0.6240
 7166TIP3    H221463   0.754   0.198   2.420  0.5373 -0.6315 -0.3340
 7167TIP3   OH221464   1.236   4.915   4.725 -0.1463  0.2126  0.2292
 7167TIP3    H121465   1.267   4.845   4.667  0.3286  0.5027  0.1299
 7167TIP3    H221466   1.177   4.871   4.786  0.9201 -0.4621  0.8063
 7168TIP3   OH221467   1.174   4.500   1.245  0.2459  0.6371  0.1314
 7168TIP3    H121468   1.254   4.447   1.242 -0.4820 -0.5206  0.6247
 7168TIP3    H221469   1.182   4.552   1.325  0.2281  0.0792  0.4928
 7169TIP3   OH221470   3.975   2.233   4.929  0.3284 -0.4134 -0.0629
 7169TIP3    H121471   3.975   2.295   4.856  1.3393 -0.5300 -0.1816
 7169TIP3    H221472   3.889   2.191   4.925 -1.3404  2.5562  1.4216
 7170TIP3   OH221473   6.859   0.628   0.379  0.4799 -0.0532  0.0283
 7170TIP3    H121474   6.883   0.609   0.470 -1.5147  0.8746  0.8183
 7170TIP3    H221475   6.855   0.724   0.375 -0.9535 -0.1157 -0.5947
 7171TIP3   OH221476   6.408   3.523   4.125 -0.4209 -0.1047 -0.8090
 7171TIP3    H121477   6.483   3.548   4.071 -1.4516  0.3804 -2.0651
 7171TIP3    H221478   6.387   3.434   4.098  1.2199 -1.2334  1.3489
 7172TIP3   OH221479   5.702   4.326   2.762  0.4322 -0.0080  0.3304
 7172TIP3    H121480   5.786   4.327   2.716 -0.3412  0.9795 -1.1758
 7172TIP3    H221481   5.693   4.415   2.798 -0.2641  0.1221 -0.1345
 7173TIP3   OH221482   3.879   5.428   5.749  0.8090 -0.3045 -0.0015
 7173TIP3    H121483   3.888   5.348   5.800 -2.2335  0.2570  1.6430
 7173TIP3    H221484   3.865   5.398   5.659 -0.9395 -1.6881  0.6939
 7174TIP3   OH221485   5.149   5.084   0.679 -0.2018 -0.7212  0.1184
 7174TIP3    H121486   5.229   5.114   0.637  2.5198 -3.3057  2.9624
 7174TIP3    H221487   5.108   5.164   0.713  0.7240  0.7322 -1.9907
 7175TIP3   OH221488   5.733   3.439   0.257 -0.3806  0.0863  0.0603
 7175TIP3    H121489   5.752   3.528   0.225 -0.2485  0.2593  0.6070
 7175TIP3    H221490   5.757   3.382   0.184 -1.2079  0.5502 -0.5879
 7176TIP3   OH221491   0.717   6.398   0.990  0.5810  0.1278 -0.0745
 7176TIP3    H121492   0.702   6.334   1.059 -3.5150  1.2837  0.3876
 7176TIP3    H221493   0.690   6.355   0.909 -0.7283  0.7126  0.0249
 7177TIP3   OH221494   5.067   2.548   3.196  0.4569 -0.6435 -0.2790
 7177TIP3    H121495   4.996   2.574   3.138  0.5530 -0.4258 -0.3004
 7177TIP3    H221496   5.126   2.624   3.198 -1.0287  0.5935  2.4637
 7178TIP3   OH221497   5.209   4.028   3.780 -0.2015  0.1824 -0.3997
 7178TIP3    H121498   5.117   4.018   3.804 -0.1876  0.8404 -0.0514
 7178TIP3    H221499   5.257   3.986   3.851 -0.2244 -0.1258 -0.5620
 7179TIP3   OH221500   6.417   5.950   5.716  0.3676 -0.3856  0.1264
 7179TIP3    H121501   6.426   5.859   5.746  2.1470  0.0162  0.9879
 7179TIP3    H221502   6.493   5.964   5.659  0.1099  0.5522 -0.0042
 7180TIP3   OH221503   6.233   5.282   2.277  0.2143 -0.0411  0.3242
 7180TIP3    H121504   6.198   5.320   2.358 -0.6100  1.1052 -0.5451
 7180TIP3    H221505   6.188   5.198   2.269 -0.7033  0.4381  0.3665
 7181TIP3   OH221506   6.557   4.377   5.810  0.7119  0.0464  0.1003
 7181TIP3    H121507   6.465   4.398   5.796  0.2932 -0.6943  1.5752
 7181TIP3    H221508   6.593   4.454   5.855  1.3167  1.1334 -2.1009
 7182TIP3   OH221509   2.694   2.557   1.713 -0.3944 -0.7689 -0.6461
 7182TIP3    H121510   2.766   2.509   1.753 -1.7311 -1.0483  1.5715
 7182TIP3    H221511   2.712   2.553   1.619  1.5656 -2.2756 -0.2621
 7183TIP3   OH221512   2.163   6.678   4.701 -1.0117 -0.4736  0.2492
 7183TIP3    H121513   2.233   6.711   4.759 -1.9964  0.4437  0.9573
 7183TIP3    H221514   2.153   6.586   4.725 -0.1843 -0.5680  0.2701
 7184TIP3   OH221515   3.038   5.203   2.244  0.3532  0.5089  0.1258
 7184TIP3    H121516   2.976   5.147   2.197  0.3437  2.3289 -2.2063
 7184TIP3    H221517   2.987   5.238   2.317 -2.0295  3.1152 -2.5347
 7185TIP3   OH221518   5.768   5.233   4.675  0.2586  0.0151  0.7947
 7185TIP3    H121519   5.693   5.221   4.733 -0.6007 -0.6696 -0.3897
 7185TIP3    H221520   5.733   5.283   4.601  0.8007 -0.8343 -0.0587
 7186TIP3   OH221521   5.218   3.010   1.240  0.5038  0.3009  0.3542
 7186TIP3    H121522   5.222   3.020   1.145 -0.8822  0.8034  0.3230
 7186TIP3    H221523   5.129   3.035   1.263  0.5771 -0.5622  1.7078
 7187TIP3   OH221524   3.401   5.395   1.176 -0.1659 -0.7193 -0.0172
 7187TIP3    H121525   3.395   5.426   1.086 -0.7516 -0.5242  0.0861
 7187TIP3    H221526   3.407   5.300   1.168 -1.3082 -0.7828 -0.2283
 7188TIP3   OH221527   3.845   4.555   1.948 -0.0581  0.1247 -0.4087
 7188TIP3    H121528   3.892   4.635   1.926  0.0937  0.1127 -0.1378
 7188TIP3    H221529   3.869   4.538   2.040 -0.1134 -0.2101 -0.4549
 7189TIP3   OH221530   2.655   3.707   4.808 -0.2424  0.4007 -0.6149
 7189TIP3    H121531   2.564   3.678   4.802  0.1926 -1.1219 -0.4414
 7189TIP3    H221532   2.689   3.661   4.885  0.6094  1.1323 -0.5386
 7190TIP3   OH221533   5.609   1.202   4.551  0.3620  0.5601 -0.3754
 7190TIP3    H121534   5.681   1.208   4.488  0.7777 -0.1598  0.0158
 7190TIP3    H221535   5.614   1.112   4.583  1.9062  1.6035  2.7271
 7191TIP3   OH221536   0.493   3.224   3.893  0.1090 -0.3061 -0.5670
 7191TIP3    H121537   0.506   3.269   3.809  0.9220 -1.1848 -0.9314
 7191TIP3    H221538   0.410   3.179   3.883  0.2470 -0.4841 -0.9373
 7192TIP3   OH221539   6.792   4.625   2.416 -0.7999 -0.5759  0.1640
 7192TIP3    H121540   6.815   4.632   2.508  0.3675  0.3257 -0.1733
 7192TIP3    H221541   6.719   4.562   2.414 -0.6454 -0.8361  1.6494
 7193TIP3   OH221542   4.136   2.073   1.508 -0.0140 -0.1598 -0.0324
 7193TIP3    H121543   4.150   2.001   1.446 -0.1650  0.8952 -1.3287
 7193TIP3    H221544   4.045   2.063   1.536  0.0412 -0.6242 -0.0099
 7194TIP3   OH221545   5.809   0.021   4.064  0.0691 -0.2301  0.0382
 7194TIP3    H121546   5.760   0.085   4.115  0.3351  0.8176 -0.9653
 7194TIP3    H221547   5.819   0.062   3.978 -1.8143 -2.6138 -1.4346
 7195TIP3   OH221548   4.791   2.705   0.217 -0.4576 -0.3653 -0.1352
 7195TIP3    H121549   4.704   2.665   0.227 -0.8066  0.6598  1.1116
 7195TIP3    H221550   4.827   2.709   0.305 -0.0740  1.2175 -0.3193
 7196TIP3   OH221551   5.422   3.792   5.858 -0.1380  0.2486 -0.1440
 7196TIP3    H121552   5.334   3.759   5.844 -1.1298  1.9076  1.6828
 7196TIP3    H221553   5.479   3.727   5.816 -2.1652 -1.1747 -0.8482
 7197TIP3   OH221554   2.744   0.915   4.759  1.0943 -0.0822 -0.0390
 7197TIP3    H121555   2.741   1.006   4.730  0.3930 -0.1467 -0.2010
 7197TIP3    H221556   2.679   0.871   4.704  0.5312 -0.4319  0.8784
 7198TIP3   OH221557   2.726   6.239   2.309  0.0378 -0.4582  0.7571
 7198TIP3    H121558   2.675   6.170   2.269 -0.5530 -0.0998  0.8768
 7198TIP3    H221559   2.810   6.237   2.263 -1.1383  0.9854 -1.6701
 7199TIP3   OH221560   3.405   6.705   0.868  0.1909 -0.2577  0.1172
 7199TIP3    H121561   3.482   6.657   0.838  1.2062  1.5730 -0.3971
 7199TIP3    H221562   3.431   6.797   0.862 -1.2900  0.3454  2.0330
 7200TIP3   OH221563   0.942   4.484   4.819 -0.6231 -0.1094  0.2846
 7200TIP3    H121564   0.866   4.428   4.797  0.5422 -1.1513 -1.3634
 7200TIP3    H221565   0.969   4.521   4.735  1.1239 -0.3263  0.7133
 7201TIP3   OH221566   5.092   2.612   3.758  0.3514  0.4424 -0.6820
 7201TIP3    H121567   5.059   2.600   3.669  0.2828  0.3086 -0.6381
 7201TIP3    H221568   5.014   2.609   3.813  0.3185  1.1797 -0.6785
 7202TIP3   OH221569   0.720   0.541   3.126 -0.4208  0.0807  0.3021
 7202TIP3    H121570   0.755   0.629   3.115 -2.2044  0.6880 -0.9466
 7202TIP3    H221571   0.740   0.496   3.045  0.2301 -0.6005  0.8246
 7203TIP3   OH221572   5.669   4.427   5.299 -0.2689  0.7362  0.3325
 7203TIP3    H121573   5.764   4.424   5.294 -0.3173 -0.2948 -0.1350
 7203TIP3    H221574   5.638   4.392   5.215 -1.0462 -1.5832  1.4953
 7204TIP3   OH221575   6.588   6.723   1.513 -0.1884 -1.2004 -0.0197
 7204TIP3    H121576   6.518   6.716   1.448 -0.7551 -0.8026  0.5383
 7204TIP3    H221577   6.632   6.806   1.491  2.7536 -3.2683 -2.9160
 7205TIP3   OH221578   1.647   5.492   4.436  0.2996 -0.2687  0.2127
 7205TIP3    H121579   1.595   5.569   4.415  1.4271  0.1361 -1.3141
 7205TIP3    H221580   1.642   5.484   4.532 -2.3029 -0.1330  0.1407
 7206TIP3   OH221581   5.706   5.590   1.508 -0.0403 -0.4133  0.2248
 7206TIP3    H121582   5.706   5.495   1.514  0.2149 -0.5242 -1.2045
 7206TIP3    H221583   5.634   5.610   1.449  1.3693  0.1129 -1.3746
 7207TIP3   OH221584   1.253   0.234   0.706 -0.7093  0.0603 -0.1412
 7207TIP3    H121585   1.248   0.243   0.610  0.5949 -0.0162 -0.2233
 7207TIP3    H221586   1.179   0.178   0.728 -0.4599 -0.7182 -1.2178
 7208TIP3   OH221587   6.358   0.558   1.298 -0.2594 -0.3488 -0.0166
 7208TIP3    H121588   6.317   0.564   1.385 -0.9603 -1.0872 -0.2884
 7208TIP3    H221589   6.414   0.636   1.293 -0.8040  0.1138  0.7897
 7209TIP3   OH221590   2.160   2.789   0.140  0.4079 -1.0292  0.1762
 7209TIP3    H121591   2.228   2.723   0.152  0.1337 -1.4882 -0.6782
 7209TIP3    H221592   2.207   2.871   0.127  0.7589 -1.1114  0.9173
 7210TIP3   OH221593   2.610   5.273   1.554 -0.3210 -0.0012  0.0689
 7210TIP3    H121594   2.523   5.283   1.593 -0.9456  1.7617 -1.6146
 7210TIP3    H221595   2.613   5.183   1.523 -1.7075  0.0406 -0.2106
 7211TIP3   OH221596   6.055   4.512   0.176  0.0472  0.0697  0.5849
 7211TIP3    H121597   6.053   4.435   0.232 -0.7400  1.7761  3.0539
 7211TIP3    H221598   6.140   4.552   0.194  0.1798  0.1454 -0.1789
 7212TIP3   OH221599   1.237   5.477   1.899 -0.0687  0.7849  0.0051
 7212TIP3    H121600   1.148   5.509   1.882 -0.2711 -0.1619 -0.7804
 7212TIP3    H221601   1.251   5.496   1.992 -0.6669  1.9423 -0.1195
 7213TIP3   OH221602   3.823   5.814   0.504 -0.3865  0.4041  0.0846
 7213TIP3    H121603   3.763   5.742   0.524  0.4867 -0.6693 -0.9572
 7213TIP3    H221604   3.782   5.891   0.543 -0.8556 -0.8053  2.1505
 7214TIP3   OH221605   5.392   5.267   1.616  0.4557  0.0258  0.0049
 7214TIP3    H121606   5.301   5.240   1.610  0.4675  0.2643 -2.4132
 7214TIP3    H221607   5.388   5.363   1.619  0.6333  0.0240  0.3736
 7215TIP3   OH221608   2.087   4.273   1.236 -0.2545 -0.2726  0.4099
 7215TIP3    H121609   2.158   4.312   1.185 -0.9744 -1.2972 -1.4586
 7215TIP3    H221610   2.008   4.316   1.204 -0.6596 -0.3525  1.2686
 7216TIP3   OH221611   0.029   4.276   0.752 -0.3365 -0.2042  0.0177
 7216TIP3    H121612   0.034   4.288   0.847  2.7323 -2.0949  0.2465
 7216TIP3    H221613  -0.039   4.210   0.739 -1.0708  0.3705  0.8295
 7217TIP3   OH221614   6.111   3.744   5.606 -0.1725  0.0758 -0.1868
 7217TIP3    H121615   6.165   3.763   5.530  1.0637 -0.7299  0.4569
 7217TIP3    H221616   6.108   3.648   5.611 -0.0489  0.1167  0.9025
 7218TIP3   OH221617   1.210   5.087   3.446  0.2973 -0.6417 -0.0690
 7218TIP3    H121618   1.151   5.157   3.472 -1.1663 -1.2217 -1.5800
 7218TIP3    H221619   1.233   5.043   3.528 -0.6600  0.1607  0.6580
 7219TIP3   OH221620   4.951   2.714   4.785  0.2635 -0.8065  0.2249
 7219TIP3    H121621   4.868   2.724   4.831  0.4728 -1.4501  0.7653
 7219TIP3    H221622   4.991   2.636   4.824 -0.1182 -2.1414 -1.8649
 7220TIP3   OH221623   1.726   1.744   4.110  0.1972 -0.3611 -0.7853
 7220TIP3    H121624   1.673   1.666   4.094 -0.5115  0.1228 -0.8035
 7220TIP3    H221625   1.664   1.816   4.113  0.5382 -0.0729  1.6342
 7221TIP3   OH221626   5.527   6.595   2.199  0.1596  0.2147 -0.1205
 7221TIP3    H121627   5.589   6.609   2.271  0.2099  0.5681 -0.2356
 7221TIP3    H221628   5.446   6.567   2.243  0.4389 -0.3809  0.0191
 7222TIP3   OH221629   1.350   6.785   5.482 -0.0169 -0.0301  0.5200
 7222TIP3    H121630   1.258   6.789   5.458 -0.1235 -2.1817  0.3167
 7222TIP3    H221631   1.352   6.734   5.563  1.0721 -1.4981 -0.3774
 7223TIP3   OH221632   2.077   6.393   0.014 -0.4357 -0.0270 -0.2775
 7223TIP3    H121633   2.022   6.324   0.051 -0.5068 -0.7464 -1.6433
 7223TIP3    H221634   2.163   6.377   0.051 -0.5904 -0.4562 -0.0939
 7224TIP3   OH221635   6.386   2.565   2.029  0.4538  0.1141  0.7344
 7224TIP3    H121636   6.381   2.605   1.942 -2.2602  0.0656  0.7984
 7224TIP3    H221637   6.435   2.628   2.082  2.0129  0.2188 -0.7455
 7225TIP3   OH221638   4.123   2.980   3.736 -0.1419 -0.0557  0.1865
 7225TIP3    H121639   4.137   3.074   3.752 -0.4048 -0.3088  2.1150
 7225TIP3    H221640   4.142   2.939   3.820  0.4898 -1.8124 -0.7689
 7226TIP3   OH221641   5.522   2.891   3.421  0.5179 -0.1720 -0.5305
 7226TIP3    H121642   5.435   2.928   3.434 -0.1744 -1.6383 -0.8044
 7226TIP3    H221643   5.517   2.803   3.458  2.2099  0.0802  0.4161
 7227TIP3   OH221644   7.213   0.366   2.391  0.1214 -0.7098  0.4761
 7227TIP3    H121645   7.234   0.459   2.376 -1.5902 -0.5759 -1.5555
 7227TIP3    H221646   7.127   0.368   2.433  0.0399 -1.3711  0.3402
 7228TIP3   OH221647   0.669   6.233   5.575  0.3784  0.3249  0.8830
 7228TIP3    H121648   0.584   6.233   5.532  0.0874 -3.2082  1.1160
 7228TIP3    H221649   0.723   6.294   5.525 -1.0936 -0.5851 -1.9906
 7229TIP3   OH221650   1.209   0.060   4.457 -0.4451  0.4337  0.7382
 7229TIP3    H121651   1.187   0.132   4.398 -0.4504 -0.6807 -0.6756
 7229TIP3    H221652   1.200   0.097   4.544 -3.0878  1.4191  0.1347
 7230TIP3   OH221653   7.088   4.485   3.623  0.2300 -0.6699 -0.1690
 7230TIP3    H121654   7.117   4.490   3.532 -0.8566 -0.4949 -0.5241
 7230TIP3    H221655   7.162   4.448   3.671  1.0703 -0.0923 -1.0043
 7231TIP3   OH221656   3.751   2.781   3.792  0.2351  0.7218  0.0795
 7231TIP3    H121657   3.702   2.745   3.865 -1.4724  0.5938 -1.0684
 7231TIP3    H221658   3.835   2.806   3.829  0.8047 -2.5689  1.3593
 7232TIP3   OH221659   2.650   5.751   0.839  0.1413 -0.5967  0.3030
 7232TIP3    H121660   2.558   5.729   0.827  0.1289 -0.3278 -0.1063
 7232TIP3    H221661   2.675   5.795   0.758  0.4916 -0.2135  0.6147
 7233TIP3   OH221662   5.007   3.747   3.863  0.0923 -0.2796  0.2499
 7233TIP3    H121663   5.035   3.782   3.947  1.2399  2.6930 -1.2154
 7233TIP3    H221664   4.975   3.659   3.883  2.3494 -0.5527  3.4137
 7234TIP3   OH221665   2.926   2.365   1.811 -0.3880  0.2097  0.3753
 7234TIP3    H121666   2.891   2.285   1.772  0.3661  0.2126 -0.3331
 7234TIP3    H221667   2.979   2.404   1.742  0.4654  0.5458  1.1954
 7235TIP3   OH221668   4.811   4.489   2.340 -0.2086  0.2260  0.1527
 7235TIP3    H121669   4.718   4.469   2.354  0.0338 -0.2232  1.2324
 7235TIP3    H221670   4.850   4.485   2.427  0.7312  0.9407 -0.2190
 7236TIP3   OH221671   3.616   0.970   4.804  0.0197 -0.0782 -0.4311
 7236TIP3    H121672   3.562   1.045   4.776  0.8359  0.5598 -0.3339
 7236TIP3    H221673   3.605   0.966   4.899 -0.0601 -0.1002 -0.4416
 7237TIP3   OH221674   5.473   5.459   2.313  0.4954 -0.1833 -0.1085
 7237TIP3    H121675   5.427   5.397   2.369 -2.1094 -1.1971 -3.0877
 7237TIP3    H221676   5.545   5.408   2.275 -0.5313 -0.8700 -1.1607
 7238TIP3   OH221677   2.442   5.647   4.057 -0.0311 -0.0041 -0.0311
 7238TIP3    H121678   2.520   5.631   4.004 -0.6057 -1.2649 -0.5325
 7238TIP3    H221679   2.399   5.561   4.064 -1.7157  0.7544 -0.3410
 7239TIP3   OH221680   6.007   0.637   2.720 -0.1136 -0.4800 -0.8198
 7239TIP3    H121681   5.922   0.601   2.694 -1.5436  2.5972 -0.8869
 7239TIP3    H221682   5.991   0.680   2.804  1.6775 -0.7271 -0.2958
 7240TIP3   OH221683   4.270   2.508   3.786 -0.6088  0.0795  0.3759
 7240TIP3    H121684   4.296   2.571   3.854 -0.1912 -1.1833  1.4332
 7240TIP3    H221685   4.319   2.535   3.709 -3.9096  3.9233 -0.7518
 7241TIP3   OH221686   2.109   6.526   3.909  0.6079  0.2490  0.3504
 7241TIP3    H121687   2.134   6.443   3.951 -0.5963  0.0555  0.7180
 7241TIP3    H221688   2.040   6.501   3.848  2.0681  0.5857 -1.5231
 7242TIP3   OH221689   3.501   1.513   0.906  0.2670 -0.3107 -0.1635
 7242TIP3    H121690   3.506   1.546   0.816  2.3384 -1.2199 -0.4526
 7242TIP3    H221691   3.506   1.592   0.960  1.5252  0.1348 -0.8672
 7243TIP3   OH221692   2.897   4.447   3.804  0.5707 -0.0254  0.3059
 7243TIP3    H121693   2.842   4.370   3.790  0.0330  0.6222 -1.5220
 7243TIP3    H221694   2.907   4.453   3.899 -0.5485 -1.5105  0.5607
 7244TIP3   OH221695   1.266   3.167   3.261  0.1206  0.4903 -0.1496
 7244TIP3    H121696   1.353   3.194   3.293  0.1675 -0.7859  0.8682
 7244TIP3    H221697   1.222   3.249   3.240  1.0438  1.2428  0.7486
 7245TIP3   OH221698   6.892   3.905   0.777 -0.1413  0.0568  0.2497
 7245TIP3    H121699   6.976   3.869   0.751 -0.2630  0.6476 -1.0658
 7245TIP3    H221700   6.864   3.852   0.851 -0.5264 -2.8815 -1.8204
 7246TIP3   OH221701   6.811   1.377   5.403 -0.2143 -0.6819 -0.2254
 7246TIP3    H121702   6.828   1.291   5.440  1.9126 -0.7327 -1.2053
 7246TIP3    H221703   6.897   1.419   5.396 -1.3051  2.2470  1.8271
 7247TIP3   OH221704   0.075   1.016   0.453  0.1141 -0.0455 -0.5242
 7247TIP3    H121705   0.106   1.106   0.442  1.6789 -0.7515 -2.5263
 7247TIP3    H221706   0.036   0.994   0.368 -1.5794 -0.8096  0.4132
 7248TIP3   OH221707   2.040   5.132   3.577  0.1310 -0.0964  0.3690
 7248TIP3    H121708   2.036   5.169   3.488 -0.0238 -0.5157  0.2020
 7248TIP3    H221709   2.116   5.074   3.575  0.5886  0.4757  0.7362
 7249TIP3   OH221710   1.735   6.020   1.130 -0.1679 -0.0121 -0.2207
 7249TIP3    H121711   1.704   6.002   1.041  1.2449 -0.2277 -0.6914
 7249TIP3    H221712   1.767   5.936   1.162  0.2995  0.2853  0.1040
 7250TIP3   OH221713   1.829   1.181   1.859  0.5823 -0.0919  0.3555
 7250TIP3    H121714   1.772   1.138   1.923  0.3905  0.4205  0.5314
 7250TIP3    H221715   1.770   1.219   1.795  0.7585 -0.2109  0.1196
 7251TIP3   OH221716   5.236   3.069   4.572 -0.0352 -0.0815  0.1853
 7251TIP3    H121717   5.317   3.118   4.584 -0.2544  0.5399 -0.7760
 7251TIP3    H221718   5.238   3.002   4.640  0.5829  0.8502  1.1045
 7252TIP3   OH221719   5.452   3.352   1.301 -0.4435  0.2958 -0.0981
 7252TIP3    H121720   5.418   3.397   1.378 -0.1696  1.0734 -0.4150
 7252TIP3    H221721   5.377   3.347   1.241 -0.0748  1.9246 -0.7580
 7253TIP3   OH221722   0.758   4.195   4.223 -0.1206  0.1836 -0.0389
 7253TIP3    H121723   0.811   4.254   4.170  0.7523 -1.0626 -0.6074
 7253TIP3    H221724   0.700   4.151   4.161  0.6304 -0.9926  0.0529
 7254TIP3   OH221725   4.133   3.969   2.188  0.1494  0.5327 -0.4093
 7254TIP3    H121726   4.222   4.000   2.202  1.1626 -1.8316 -1.0135
 7254TIP3    H221727   4.139   3.874   2.200 -2.3914  0.3551 -0.0266
 7255TIP3   OH221728   4.540   0.345   0.905  0.7784  0.0299  0.4087
 7255TIP3    H121729   4.555   0.336   0.811 -0.3789  2.8136 -0.1286
 7255TIP3    H221730   4.445   0.346   0.914  0.7939 -2.4172  1.9562
 7256TIP3   OH221731   0.652   4.660   0.500 -0.0268 -0.2956 -0.2713
 7256TIP3    H121732   0.591   4.734   0.503 -0.9186 -1.0555  1.4943
 7256TIP3    H221733   0.603   4.590   0.457  1.1390  0.3405 -2.8299
 7257TIP3   OH221734   5.829   5.522   2.596 -0.2391  0.1780  0.2726
 7257TIP3    H121735   5.914   5.547   2.633 -0.2962 -0.2643  0.7090
 7257TIP3    H221736   5.815   5.432   2.626 -0.9701  0.3290  0.3979
 7258TIP3   OH221737   1.997   3.519   1.550 -0.4790 -0.1942  0.2611
 7258TIP3    H121738   2.084   3.559   1.543 -0.1092 -1.1773 -1.6124
 7258TIP3    H221739   1.937   3.592   1.560  0.4790  0.5830  0.4649
 7259TIP3   OH221740   4.668   6.562   3.827 -0.2512  0.4604  0.5959
 7259TIP3    H121741   4.747   6.508   3.816  0.5570  1.0919  2.7258
 7259TIP3    H221742   4.687   6.616   3.904 -2.9496  0.3066  1.4737
 7260TIP3   OH221743   2.579   6.171   5.257 -0.3862  0.2765  0.4837
 7260TIP3    H121744   2.584   6.096   5.316 -1.7439  0.2110  0.5251
 7260TIP3    H221745   2.651   6.228   5.287 -2.0667  1.0899  3.4245
 7261TIP3   OH221746   0.558   6.544   0.352 -0.0006 -0.0283  0.0611
 7261TIP3    H121747   0.566   6.483   0.425 -0.8184  1.0298  1.0604
 7261TIP3    H221748   0.553   6.631   0.392  1.5733  0.7837 -1.3408
 7262TIP3   OH221749   5.990   3.865   5.864  0.3615 -0.1457 -0.0130
 7262TIP3    H121750   5.958   3.793   5.809 -0.9856  0.8332 -0.5506
 7262TIP3    H221751   6.029   3.927   5.803  0.3718  0.1745  0.3158
 7263TIP3   OH221752   4.345   4.538   1.625 -0.3603  0.5188 -0.3373
 7263TIP3    H121753   4.335   4.479   1.700  0.0539  0.4814 -0.3089
 7263TIP3    H221754   4.422   4.590   1.646  0.1679  0.0422 -1.0383
 7264TIP3   OH221755   5.701   3.295   4.423 -0.0784 -0.5585  0.3343
 7264TIP3    H121756   5.741   3.285   4.336  1.4974  1.0089  0.8041
 7264TIP3    H221757   5.689   3.389   4.433  2.8257 -0.2869  3.0051
 7265TIP3   OH221758   0.904   1.245   1.145 -0.3107 -0.1389  0.0114
 7265TIP3    H121759   0.930   1.329   1.107 -1.1712  0.5386  0.8641
 7265TIP3    H221760   0.955   1.238   1.225  0.6053 -0.9961 -0.6179
 7266TIP3   OH221761   3.782   3.743   1.821  0.4250 -0.2780  0.4077
 7266TIP3    H121762   3.840   3.737   1.746 -1.3413 -1.3514 -0.9558
 7266TIP3    H221763   3.769   3.837   1.834  0.9877 -0.0732 -0.4420
 7267TIP3   OH221764   2.479   1.813   5.200 -0.3257 -0.1968 -0.3064
 7267TIP3    H121765   2.503   1.817   5.108  0.5361 -1.1786 -0.1439
 7267TIP3    H221766   2.426   1.734   5.209 -0.0456 -0.3466  0.1049
 7268TIP3   OH221767   1.768   3.714   3.025 -0.1055 -0.8379  0.0220
 7268TIP3    H121768   1.760   3.690   2.933  0.4428 -0.0730 -0.2421
 7268TIP3    H221769   1.765   3.810   3.025 -0.8192 -0.8495  0.8792
 7269TIP3   OH221770   5.746   2.903   3.960 -0.5889  0.2109  0.3263
 7269TIP3    H121771   5.695   2.909   3.879  0.1198  1.7447 -0.0305
 7269TIP3    H221772   5.788   2.817   3.955 -1.8078 -0.3771 -0.1590
 7270TIP3   OH221773   7.090   1.416   5.391  0.3375  0.4233 -0.1641
 7270TIP3    H121774   7.106   1.501   5.349  1.5588  1.6019  2.5078
 7270TIP3    H221775   7.166   1.363   5.367  0.2315  0.5235 -0.7405
 7271TIP3   OH221776   3.682   5.350   4.044  0.5206  0.4850  0.1149
 7271TIP3    H121777   3.665   5.416   3.977  0.3936  0.8960  0.5455
 7271TIP3    H221778   3.601   5.348   4.096  0.0993 -0.7904 -0.5424
 7272TIP3   OH221779   3.741   5.231   2.082 -0.5700 -0.2233 -0.0439
 7272TIP3    H121780   3.663   5.175   2.081 -0.7794  0.0205  1.0137
 7272TIP3    H221781   3.731   5.288   2.006 -3.2419  2.1914  1.9157
 7273TIP3   OH221782   1.899   1.497   5.042 -0.1638  0.4607 -0.6262
 7273TIP3    H121783   1.959   1.534   4.977  0.5424 -0.0597 -0.2809
 7273TIP3    H221784   1.956   1.453   5.105 -0.9506 -0.7656 -0.7346
 7274TIP3   OH221785   4.767   3.803   2.589  0.4036  0.1386 -0.3618
 7274TIP3    H121786   4.768   3.710   2.610 -1.4234  0.3038  0.6159
 7274TIP3    H221787   4.844   3.839   2.634  1.6648 -1.0036 -1.5103
 7275TIP3   OH221788   4.420   1.910   1.639 -0.2861  0.3276 -0.0133
 7275TIP3    H121789   4.456   1.964   1.569 -0.4651  1.2247  0.5767
 7275TIP3    H221790   4.409   1.824   1.599  1.5010  0.2927 -0.5165
 7276TIP3   OH221791   0.718   1.762   0.045 -0.2538 -0.2733  0.7861
 7276TIP3    H121792   0.728   1.667   0.041 -1.8537 -0.5281  1.7441
 7276TIP3    H221793   0.771   1.788   0.121 -0.2388 -0.4807  0.8477
 7277TIP3   OH221794   6.951   6.024   5.435 -0.1074  0.0577 -0.1221
 7277TIP3    H121795   6.938   6.098   5.376  0.6400 -1.3358 -2.1514
 7277TIP3    H221796   7.039   5.992   5.415 -1.3405 -2.9711 -1.2790
 7278TIP3   OH221797   3.161   1.514   3.086  0.2647 -1.0748 -0.1605
 7278TIP3    H121798   3.074   1.512   3.047  0.2345 -0.1842 -0.1600
 7278TIP3    H221799   3.212   1.453   3.033  0.2399  0.1397 -1.6702
 7279TIP3   OH221800   4.982   4.565   3.873 -0.2138 -0.3128  0.2455
 7279TIP3    H121801   4.989   4.476   3.841  1.8813 -0.4495  0.9315
 7279TIP3    H221802   4.924   4.559   3.949 -0.9147 -0.8857 -0.3227
 7280TIP3   OH221803   4.780   3.664   2.210 -0.8010  0.3563 -0.1412
 7280TIP3    H121804   4.874   3.685   2.210 -0.1487 -2.2220  1.0470
 7280TIP3    H221805   4.743   3.720   2.278  0.0255  0.8307 -0.0678
 7281TIP3   OH221806   5.880   1.522   5.650  0.1716 -0.3957  0.0644
 7281TIP3    H121807   5.878   1.567   5.565  1.7166 -0.3922  0.0110
 7281TIP3    H221808   5.838   1.584   5.710  0.8832  0.4785 -0.3156
 7282TIP3   OH221809   5.236   0.737   2.039  0.6854 -0.4021  0.1206
 7282TIP3    H121810   5.303   0.755   2.105  0.7021  0.2317 -0.0569
 7282TIP3    H221811   5.269   0.661   1.991  1.6867  0.3791 -0.4783
 7283TIP3   OH221812   4.212   3.685   0.982  0.1825  0.0838 -0.4959
 7283TIP3    H121813   4.267   3.756   0.949  0.6840  0.2598  0.6674
 7283TIP3    H221814   4.159   3.725   1.051 -0.4822 -0.3826 -0.7238
 7284TIP3   OH221815   1.683   3.955   2.899 -0.2931 -0.3289 -0.1138
 7284TIP3    H121816   1.753   4.018   2.913 -0.3791 -0.3215  0.2941
 7284TIP3    H221817   1.605   4.008   2.884 -0.7247 -0.2957  1.9471
 7285TIP3   OH221818   4.330   0.567   1.431  0.2712 -0.0410 -0.0180
 7285TIP3    H121819   4.386   0.630   1.476 -0.0895  0.0445  0.3203
 7285TIP3    H221820   4.326   0.599   1.341 -1.4509  1.5425  0.5584
 7286TIP3   OH221821   4.371   0.963   1.933  0.3831  0.6987 -0.4293
 7286TIP3    H121822   4.453   0.996   1.897  0.4331  0.1501 -0.8361
 7286TIP3    H221823   4.393   0.935   2.022  0.7299  0.1994 -0.6676
 7287TIP3   OH221824   6.596   3.726   5.398  0.6437  0.5049 -0.0583
 7287TIP3    H121825   6.520   3.728   5.338 -0.1923 -1.7384  0.8367
 7287TIP3    H221826   6.672   3.732   5.340 -0.1624 -0.8875 -1.3259
 7288TIP3   OH221827   4.660   6.262   5.008  0.2507  0.4136  0.0926
 7288TIP3    H121828   4.744   6.218   5.025  1.1547  1.8706 -0.4291
 7288TIP3    H221829   4.679   6.355   5.020 -1.1755  0.8139 -0.5474
 7289TIP3   OH221830   3.220   2.826   2.735 -0.0834 -0.2989 -0.2474
 7289TIP3    H121831   3.228   2.782   2.820 -0.2212  0.3386  0.0975
 7289TIP3    H221832   3.194   2.756   2.674 -1.4869 -0.4789  0.5180
 7290TIP3   OH221833   3.672   1.960   4.331 -0.2879 -0.2638 -0.0772
 7290TIP3    H121834   3.633   2.013   4.262  4.1454  1.4067 -1.6984
 7290TIP3    H221835   3.706   1.883   4.285  1.4873  0.1799  0.4205
 7291TIP3   OH221836   6.414   1.279   3.836  0.1244  0.4156  0.1519
 7291TIP3    H121837   6.364   1.197   3.836  1.4387 -0.5072  2.9238
 7291TIP3    H221838   6.421   1.302   3.928 -1.7439  4.7466 -0.5394
 7292TIP3   OH221839   1.852   0.424   2.479  0.1302  0.3365  0.3935
 7292TIP3    H121840   1.893   0.506   2.450 -0.3481  1.4527  2.6256
 7292TIP3    H221841   1.765   0.426   2.440 -0.1810  1.3376  1.1033
 7293TIP3   OH221842   6.713   6.727   3.285 -0.0606  0.0269  0.3274
 7293TIP3    H121843   6.693   6.750   3.376  1.0920 -1.9393  1.1379
 7293TIP3    H221844   6.797   6.769   3.267 -0.5778  0.9125 -0.0447
 7294TIP3   OH221845   4.660   2.138   2.044  0.0221  0.4262  0.7570
 7294TIP3    H121846   4.710   2.151   1.964 -0.2339 -1.0376  0.3308
 7294TIP3    H221847   4.721   2.092   2.102 -0.4345 -0.2837  0.6763
 7295TIP3   OH221848   1.932   2.669   1.943  0.5241 -0.0305  0.1842
 7295TIP3    H121849   1.998   2.684   1.875  0.5972 -0.6646  0.1040
 7295TIP3    H221850   1.881   2.749   1.944  0.5179 -0.0066 -0.6332
 7296TIP3   OH221851   4.762   1.686   2.094 -1.0117 -0.1351  0.0884
 7296TIP3    H121852   4.714   1.605   2.075  0.2437 -0.6068 -1.2901
 7296TIP3    H221853   4.765   1.732   2.010 -1.3008  1.1358  0.7509
 7297TIP3   OH221854   1.627   4.870   4.589 -0.2881 -0.1579  0.1579
 7297TIP3    H121855   1.676   4.818   4.653  0.2768 -0.8626 -0.8272
 7297TIP3    H221856   1.595   4.945   4.639 -2.8366 -2.3685  2.1047
 7298TIP3   OH221857   1.899   5.925   3.000 -0.0243 -0.0160 -0.1537
 7298TIP3    H121858   1.832   5.947   2.935  1.7087 -0.9464 -2.3557
 7298TIP3    H221859   1.945   6.008   3.014 -2.6934  1.1671  2.9031
 7299TIP3   OH221860   1.736   3.706   0.641 -0.4117 -0.1501  0.3358
 7299TIP3    H121861   1.649   3.709   0.602 -0.4176 -0.6941  0.2991
 7299TIP3    H221862   1.795   3.734   0.571 -0.2332 -2.7610 -0.6664
 7300TIP3   OH221863   1.528   6.521   2.308 -0.5118  0.2112 -0.2512
 7300TIP3    H121864   1.613   6.550   2.274 -1.3395 -1.0147 -3.7220
 7300TIP3    H221865   1.473   6.599   2.303 -0.7816 -0.0591 -2.5725
 7301TIP3   OH221866   2.807   3.513   2.236  0.3166  0.1245 -0.1223
 7301TIP3    H121867   2.878   3.553   2.185  2.3823 -1.8494  1.0560
 7301TIP3    H221868   2.833   3.422   2.246 -2.4558 -0.6991  0.3507
 7302TIP3   OH221869   5.815   1.567   2.606  0.0259 -0.2888  0.3044
 7302TIP3    H121870   5.845   1.648   2.562  1.2558  0.7696  2.8997
 7302TIP3    H221871   5.735   1.593   2.651 -0.1826 -0.8338  0.2495
 7303TIP3   OH221872   5.751   1.935   5.367  0.2468 -0.3314 -0.4488
 7303TIP3    H121873   5.840   1.913   5.337  1.1299  2.1630  0.0954
 7303TIP3    H221874   5.705   1.959   5.287  0.4546 -0.3840 -0.5870
 7304TIP3   OH221875   4.210   4.863   2.942  0.6318 -0.0913  0.4846
 7304TIP3    H121876   4.274   4.814   2.993  0.6133 -1.9881 -1.1907
 7304TIP3    H221877   4.259   4.895   2.866  0.5830  2.4030  1.3949
 7305TIP3   OH221878   2.197   2.635   2.543 -0.0829  0.1847 -0.0097
 7305TIP3    H121879   2.112   2.610   2.507  0.6538 -2.3431 -0.1701
 7305TIP3    H221880   2.185   2.633   2.638 -0.7301  2.0579 -0.0020
 7306TIP3   OH221881   2.389   2.438   1.257  0.4304 -0.0282 -0.4371
 7306TIP3    H121882   2.299   2.453   1.226  0.4051 -1.2560 -1.0347
 7306TIP3    H221883   2.434   2.521   1.242 -0.8895  0.9959  0.9778
 7307TIP3   OH221884   2.890   2.732   4.230 -0.0469  0.0405  0.3103
 7307TIP3    H121885   2.850   2.702   4.311 -1.4451 -0.1191 -0.4173
 7307TIP3    H221886   2.938   2.811   4.255 -1.1191  0.4540  1.1504
 7308TIP3   OH221887   1.115   2.970   4.278  0.2518  0.1525 -0.2913
 7308TIP3    H121888   1.080   2.881   4.270  0.9169 -0.1441  0.0456
 7308TIP3    H221889   1.039   3.027   4.266  0.0503 -0.4174 -1.8634
 7309TIP3   OH221890   0.939   4.108   2.187 -0.2081 -0.2877  0.3898
 7309TIP3    H121891   0.970   4.199   2.185  0.4544 -0.5067  0.5051
 7309TIP3    H221892   0.910   4.090   2.098 -0.1834 -0.0169  0.3279
 7310TIP3   OH221893   5.672   6.591   2.446  0.3527  0.5361 -0.2818
 7310TIP3    H121894   5.616   6.513   2.453 -1.5408  1.5361 -3.0940
 7310TIP3    H221895   5.648   6.644   2.522  0.4575 -0.8042  0.7399
 7311TIP3   OH221896   0.985   2.174   5.780 -0.4828  0.2351  0.2895
 7311TIP3    H121897   0.981   2.269   5.781  0.7114  0.3367  2.3335
 7311TIP3    H221898   0.942   2.147   5.862  2.3247 -0.6992  1.5866
 7312TIP3   OH221899   4.484   0.557   2.261  0.0012 -0.1505 -0.2517
 7312TIP3    H121900   4.411   0.618   2.252  0.3142 -0.0579 -2.9371
 7312TIP3    H221901   4.446   0.471   2.245  0.4501 -0.1043 -1.6383
 7313TIP3   OH221902   0.458   6.165   5.737 -0.1012  0.2449 -0.2915
 7313TIP3    H121903   0.523   6.232   5.714 -0.0344  0.2007 -0.2281
 7313TIP3    H221904   0.502   6.109   5.801 -0.1723  0.1651 -0.3120
 7314TIP3   OH221905   5.886   6.448   2.238  0.3972  0.4254 -0.1126
 7314TIP3    H121906   5.942   6.492   2.301 -1.5347  1.0876  1.2199
 7314TIP3    H221907   5.826   6.396   2.291 -0.5010  0.0358 -1.4660
 7315TIP3   OH221908   2.842   4.358   1.868 -0.0537 -0.0439 -0.6621
 7315TIP3    H121909   2.817   4.285   1.925  1.6465 -0.8743 -0.9133
 7315TIP3    H221910   2.899   4.318   1.802  3.7670  1.9284  1.1365
 7316TIP3   OH221911   5.440   5.802   4.566 -0.3521  0.6496 -0.0123
 7316TIP3    H121912   5.513   5.848   4.607 -0.5717  1.9192 -1.0004
 7316TIP3    H221913   5.480   5.746   4.500 -0.2511  1.0343 -0.2744
 7317TIP3   OH221914   2.188   6.270   3.990 -0.3755 -0.2691  0.4013
 7317TIP3    H121915   2.241   6.219   4.052  0.3415 -0.4088 -0.3156
 7317TIP3    H221916   2.129   6.205   3.951 -0.0496 -0.3966  0.1148
 7318TIP3   OH221917   2.919   5.788   3.406 -0.3961 -0.4062  0.2589
 7318TIP3    H121918   2.848   5.753   3.459 -2.1088  0.2137 -1.5252
 7318TIP3    H221919   2.934   5.876   3.441 -2.2352  0.4014 -0.8592
 7319TIP3   OH221920   5.672   3.202   1.221  0.5531  0.2517  0.7050
 7319TIP3    H121921   5.600   3.253   1.257  0.7304 -0.0249  1.4722
 7319TIP3    H221922   5.741   3.209   1.286  1.3850  0.8645 -0.2195
 7320TIP3   OH221923   2.792   0.909   3.884  0.4051 -0.1772  0.4973
 7320TIP3    H121924   2.790   0.868   3.797 -3.2466  3.1697 -1.3324
 7320TIP3    H221925   2.720   0.869   3.932  0.6672 -0.1062  0.9591
 7321TIP3   OH221926   7.048   4.742   5.330 -0.6596 -0.1201  0.3695
 7321TIP3    H121927   6.956   4.717   5.343 -0.4451 -1.7652 -0.9374
 7321TIP3    H221928   7.096   4.659   5.333  0.7259  0.6664  0.5222
 7322TIP3   OH221929   0.274   0.295   5.006 -0.3977  0.1873 -0.5037
 7322TIP3    H121930   0.344   0.295   4.941  0.1246 -1.6282  0.0159
 7322TIP3    H221931   0.229   0.212   4.994 -1.4884  0.6447  0.2176
 7323TIP3   OH221932   4.130   1.051   0.834 -0.0280  0.0912 -0.4882
 7323TIP3    H121933   4.173   0.981   0.784  0.1317  0.5689 -1.0439
 7323TIP3    H221934   4.171   1.131   0.801 -0.2747  0.4515  0.0710
 7324TIP3   OH221935   2.832   2.142   1.126 -0.5122  0.3079  0.5585
 7324TIP3    H121936   2.783   2.208   1.175  0.4848  1.0947  0.5264
 7324TIP3    H221937   2.831   2.173   1.036  1.2209  1.0854  0.7800
 7325TIP3   OH221938   5.551   0.766   4.807 -0.3166 -0.0684  0.3721
 7325TIP3    H121939   5.489   0.799   4.742 -0.4615 -1.8005 -0.4451
 7325TIP3    H221940   5.501   0.701   4.856  0.4919 -0.5607  0.5577
 7326TIP3   OH221941   3.613   4.570   0.234 -0.5412  0.2759  0.1378
 7326TIP3    H121942   3.619   4.477   0.254  0.8479  0.5296  1.0478
 7326TIP3    H221943   3.693   4.608   0.272 -0.7483  1.7274 -0.8005
 7327TIP3   OH221944   1.387   4.808   1.016 -0.4545 -1.0202  0.2069
 7327TIP3    H121945   1.300   4.837   0.989  0.4990  2.7443  0.6931
 7327TIP3    H221946   1.432   4.888   1.044  3.4073 -2.6955 -0.5941
 7328TIP3   OH221947   3.849   1.904   1.277  0.3066  0.6959  0.4820
 7328TIP3    H121948   3.810   1.847   1.211  1.6580 -1.2541  1.2582
 7328TIP3    H221949   3.801   1.884   1.358  1.3546 -0.0279  0.9460
 7329TIP3   OH221950   3.473   3.522   1.530  0.2047 -0.3137  0.0648
 7329TIP3    H121951   3.477   3.538   1.624  0.7214 -0.5130  0.0819
 7329TIP3    H221952   3.496   3.430   1.520  1.2976 -0.0220 -0.3277
 7330TIP3   OH221953   2.778   1.889   2.861 -0.3924 -0.2444 -0.1091
 7330TIP3    H121954   2.828   1.957   2.905  0.2841 -0.7224 -0.1163
 7330TIP3    H221955   2.716   1.858   2.926 -1.5178  1.1665 -0.4602
 7331TIP3   OH221956   5.634   5.860   0.430 -0.2458  0.1684  0.0612
 7331TIP3    H121957   5.630   5.770   0.462  1.1670  0.0326 -0.0697
 7331TIP3    H221958   5.551   5.874   0.385 -0.4697 -1.0771  0.0731
 7332TIP3   OH221959   5.587   3.020   4.600  0.0876  0.3326  0.4020
 7332TIP3    H121960   5.560   3.102   4.558 -0.7385 -0.7613 -1.3226
 7332TIP3    H221961   5.548   3.024   4.688 -2.2402  0.6503 -0.5699
 7333TIP3   OH221962   1.319   5.668   1.658  0.2859  0.5588  0.1122
 7333TIP3    H121963   1.403   5.672   1.612  0.3517  1.3617  0.2918
 7333TIP3    H221964   1.343   5.659   1.750  0.1600 -0.1714  0.0800
 7334TIP3   OH221965   5.414   6.643   0.792 -0.0767 -0.9707 -0.0442
 7334TIP3    H121966   5.383   6.588   0.720  1.4199  0.0403 -1.5491
 7334TIP3    H221967   5.385   6.731   0.769  0.7893 -0.5748  0.3345
 7335TIP3   OH221968   1.482   1.535   2.789  0.1745 -0.1963 -0.0364
 7335TIP3    H121969   1.445   1.532   2.877 -0.0288  0.0339 -0.1168
 7335TIP3    H221970   1.531   1.617   2.786 -0.5935  0.2452 -0.4565
 7336TIP3   OH221971   5.387   5.029   2.228  0.0798  0.1721 -0.8242
 7336TIP3    H121972   5.301   5.068   2.247 -0.4889 -1.6241  0.4872
 7336TIP3    H221973   5.442   5.058   2.301 -0.3010 -1.2704  0.0650
 7337TIP3   OH221974   3.609   2.218   1.140  0.4947 -0.5280  0.7617
 7337TIP3    H121975   3.704   2.208   1.144  0.4148 -1.1112  1.3295
 7337TIP3    H221976   3.578   2.200   1.229 -0.0350  1.0995  0.9456
 7338TIP3   OH221977   1.397   1.593   5.167 -0.6662  0.0992  0.4707
 7338TIP3    H121978   1.457   1.665   5.182 -1.5058  0.9333 -0.0300
 7338TIP3    H221979   1.313   1.624   5.201 -0.5325 -1.6596  2.6824
 7339TIP3   OH221980   6.712   6.495   2.772 -0.3633  0.2423 -0.1275
 7339TIP3    H121981   6.788   6.471   2.718 -0.7025 -4.3755  1.0068
 7339TIP3    H221982   6.746   6.499   2.861 -1.0960  0.1881  0.1610
 7340TIP3   OH221983   6.912   4.182   1.665 -0.1941 -0.4278 -0.3600
 7340TIP3    H121984   6.923   4.115   1.598  0.8881 -1.7948  1.1171
 7340TIP3    H221985   6.996   4.187   1.709 -1.1479 -0.3614  1.5847
 7341TIP3   OH221986   3.734   3.295   5.854 -0.0352 -0.0597 -0.4783
 7341TIP3    H121987   3.671   3.301   5.925  0.5004  0.3025 -0.0223
 7341TIP3    H221988   3.688   3.246   5.785 -0.3621 -0.9416  0.3322
 7342TIP3   OH221989   5.781   6.235   1.878  0.0899  0.1009 -0.2724
 7342TIP3    H121990   5.713   6.196   1.933 -0.3021  0.4634 -0.4923
 7342TIP3    H221991   5.840   6.163   1.857 -0.6210 -0.3841 -0.6681
 7343TIP3   OH221992   3.659   2.208   1.773 -0.4777 -0.6676  0.7352
 7343TIP3    H121993   3.661   2.153   1.694 -1.0845 -2.6598  2.0494
 7343TIP3    H221994   3.749   2.237   1.784 -0.6382  0.9764 -1.5222
 7344TIP3   OH221995   2.622   0.603   3.416  0.1824  0.4470 -0.1001
 7344TIP3    H121996   2.707   0.648   3.414 -0.1238  1.0579  0.5013
 7344TIP3    H221997   2.559   0.671   3.435 -0.4396 -0.0335 -0.4026
 7345TIP3   OH221998   3.512   6.513   0.399 -0.1993 -0.1700  0.3039
 7345TIP3    H121999   3.582   6.501   0.462  1.1135  0.7423 -0.9030
 7345TIP3    H222000   3.465   6.591   0.429 -1.7425 -1.6548  1.9734
 7346TIP3   OH222001   5.055   1.785   0.263 -0.1540 -0.2267 -0.5364
 7346TIP3    H122002   4.973   1.768   0.215 -1.3032  1.1025  0.8654
 7346TIP3    H222003   5.118   1.806   0.194 -1.4112  0.3521 -1.5680
 7347TIP3   OH222004   6.070   5.214   4.276 -1.0470  0.1984 -0.4854
 7347TIP3    H122005   6.103   5.296   4.313  0.5549  0.4447 -2.3074
 7347TIP3    H222006   6.036   5.166   4.351  2.1662  0.5899  1.4158
 7348TIP3   OH222007   7.079   2.107   5.485 -0.2285 -0.2629  0.0295
 7348TIP3    H122008   6.989   2.129   5.509  0.0826  0.7522  0.2949
 7348TIP3    H222009   7.127   2.109   5.568  0.4059  1.0702 -0.3395
 7349TIP3   OH222010   0.597   4.206   3.676  0.2495  0.3726  0.1092
 7349TIP3    H122011   0.539   4.205   3.752 -1.6959 -1.2435 -1.2750
 7349TIP3    H222012   0.537   4.201   3.601  2.1689 -0.0476 -1.4729
 7350TIP3   OH222013   0.697   5.433   0.475 -0.6063  0.2662  0.1325
 7350TIP3    H122014   0.658   5.520   0.463 -0.4482  0.3978  0.5647
 7350TIP3    H222015   0.734   5.411   0.389 -2.6027 -0.3476 -0.6252
 7351TIP3   OH222016   2.561   6.025   2.182 -0.3276  0.3154 -0.1261
 7351TIP3    H122017   2.602   5.939   2.186  0.6919  0.8249  1.5873
 7351TIP3    H222018   2.517   6.035   2.267  0.5861  1.9198  0.2081
 7352TIP3   OH222019   3.404   2.092   3.461 -0.0367  0.1967  0.3471
 7352TIP3    H122020   3.454   2.167   3.427 -1.4579  1.2801  0.5675
 7352TIP3    H222021   3.384   2.115   3.551 -2.2555  0.5387 -0.1805
 7353TIP3   OH222022   2.203   0.588   4.471  0.2511  0.3438 -0.5130
 7353TIP3    H122023   2.203   0.671   4.519 -0.5746  0.0315  0.0342
 7353TIP3    H222024   2.119   0.588   4.425  0.0089 -0.4426 -0.0727
 7354TIP3   OH222025   6.110   2.006   0.579  0.0279  0.3755  0.0484
 7354TIP3    H122026   6.114   2.101   0.565  0.1137  0.4619  0.6185
 7354TIP3    H222027   6.181   1.971   0.525 -0.7902  0.5039 -1.1535
 7355TIP3   OH222028   2.383   4.744   3.419 -0.0719  0.1505  0.1964
 7355TIP3    H122029   2.403   4.752   3.326  0.6149 -0.4600  0.2780
 7355TIP3    H222030   2.445   4.678   3.451  1.8179  2.4645  1.7012
 7356TIP3   OH222031   4.201   0.788   0.968  0.0980 -0.0924  0.9233
 7356TIP3    H122032   4.126   0.755   1.017 -1.2859  0.4382 -0.7674
 7356TIP3    H222033   4.181   0.771   0.877  2.3258 -0.4670  0.4270
 7357TIP3   OH222034   3.110   2.618   2.587 -0.1010 -0.4483 -0.6563
 7357TIP3    H122035   3.111   2.583   2.498 -0.3244 -0.4985 -0.6390
 7357TIP3    H222036   3.033   2.578   2.628  0.5105 -1.1512 -0.1539
 7358TIP3   OH222037   4.476   3.118   0.694  0.1906  0.1789  0.6553
 7358TIP3    H122038   4.480   3.199   0.746  0.4274  0.6009 -0.0025
 7358TIP3    H222039   4.483   3.048   0.759 -0.1694  0.6831  1.2514
 7359TIP3   OH222040   0.533   0.749   5.245 -0.0007  0.3281  0.2229
 7359TIP3    H122041   0.619   0.783   5.220 -0.6517 -0.6586 -4.2772
 7359TIP3    H222042   0.540   0.654   5.231 -1.2731 -0.0682  1.9102
 7360TIP3   OH222043   0.747   3.440   5.062 -0.0228 -0.8601  0.0694
 7360TIP3    H122044   0.819   3.455   5.123 -0.3469 -1.1404  0.5246
 7360TIP3    H222045   0.685   3.511   5.079 -0.7560 -1.6972  1.0362
 7361TIP3   OH222046   1.645   4.837   1.790 -0.5519  0.1546 -0.0162
 7361TIP3    H122047   1.674   4.886   1.713 -0.1535  0.0345  0.0561
 7361TIP3    H222048   1.659   4.745   1.767 -0.0584  0.1331  0.3425
 7362TIP3   OH222049   4.396   1.256   3.200  0.5048  0.0276 -0.3517
 7362TIP3    H122050   4.379   1.170   3.238  1.6603  0.1886  0.5998
 7362TIP3    H222051   4.414   1.238   3.107 -2.9007 -0.3119 -1.0835
 7363TIP3   OH222052   6.639   5.405   3.088  0.7837 -0.3511  0.4253
 7363TIP3    H122053   6.721   5.354   3.092  1.5781  0.3891 -3.0686
 7363TIP3    H222054   6.668   5.495   3.076 -0.5509 -0.0665 -0.7806
 7364TIP3   OH222055   3.838   2.016   0.119  0.0166  0.0099 -0.5797
 7364TIP3    H122056   3.866   2.097   0.162  1.0413 -0.6914  0.1234
 7364TIP3    H222057   3.886   1.947   0.164 -2.4041 -1.2385  0.2770
 7365TIP3   OH222058   1.797   2.509   1.443  0.1213 -0.1978  0.1223
 7365TIP3    H122059   1.866   2.563   1.481 -1.5286  1.0445  1.4949
 7365TIP3    H222060   1.844   2.436   1.402  2.2853  1.1670  0.0337
 7366TIP3   OH222061   1.894   4.558   5.043 -0.3323  0.0434 -0.0670
 7366TIP3    H122062   1.872   4.549   5.136  1.4543 -1.4395  0.2799
 7366TIP3    H222063   1.961   4.626   5.041  0.5803 -0.8416 -0.0767
 7367TIP3   OH222064   4.457   4.664   5.043  0.0792 -0.3533  0.0357
 7367TIP3    H122065   4.427   4.660   5.133  0.8399 -1.2599  0.2560
 7367TIP3    H222066   4.441   4.577   5.008 -1.1964  0.2770 -1.0455
 7368TIP3   OH222067   2.956   6.152   2.156  0.2339 -0.1715  0.1217
 7368TIP3    H122068   3.016   6.082   2.180  0.5189 -0.1167 -0.4125
 7368TIP3    H222069   2.982   6.177   2.067 -1.4770 -1.1297 -0.7127
 7369TIP3   OH222070   0.350   3.379   0.865 -0.5391  0.0266 -0.0889
 7369TIP3    H122071   0.441   3.373   0.834 -0.7386 -1.0996 -0.4849
 7369TIP3    H222072   0.315   3.291   0.854 -1.2293  0.0726  1.5193
 7370TIP3   OH222073   0.751   6.556   2.986  0.4122 -0.8532 -0.5721
 7370TIP3    H122074   0.725   6.486   2.926  1.9373 -1.7372 -0.2497
 7370TIP3    H222075   0.714   6.530   3.070 -0.9221 -0.0971 -0.9017
 7371TIP3   OH222076   0.337   4.289   4.916  0.3020 -0.1791  0.4171
 7371TIP3    H122077   0.292   4.366   4.880 -0.4589  0.1981  2.0841
 7371TIP3    H222078   0.310   4.287   5.008  1.2120 -1.8007  0.6710
 7372TIP3   OH222079   3.107   2.089   1.203  0.2708  0.3129 -0.5613
 7372TIP3    H122080   3.013   2.092   1.186 -0.1952  0.3862  1.7947
 7372TIP3    H222081   3.139   2.175   1.174 -0.4277  0.4273 -1.0325
 7373TIP3   OH222082   3.260   0.488   4.560 -0.3441 -0.0994  0.5029
 7373TIP3    H122083   3.321   0.417   4.577  1.4251  1.2584  0.0522
 7373TIP3    H222084   3.180   0.445   4.531  0.0947 -1.9648  1.8920
 7374TIP3   OH222085   4.346   1.305   1.097 -0.2068 -0.0744 -0.0099
 7374TIP3    H122086   4.280   1.284   1.162  1.5044 -1.7110  1.3027
 7374TIP3    H222087   4.412   1.237   1.106  0.1264 -0.4155 -3.5087
 7375TIP3   OH222088   2.274   4.552   3.960  0.0559 -0.3481  0.5000
 7375TIP3    H122089   2.223   4.579   3.883  0.4219 -0.5601  0.1818
 7375TIP3    H222090   2.245   4.462   3.977 -1.4933  0.3402  1.8299
 7376TIP3   OH222091   6.279   5.688   0.979  0.1437 -0.1418 -0.1081
 7376TIP3    H122092   6.328   5.733   1.049  0.1452  0.1931 -0.3198
 7376TIP3    H222093   6.306   5.597   0.986  1.8381  0.2357 -1.0636
 7377TIP3   OH222094   2.905   3.255   2.266  0.3088 -0.1523  0.0457
 7377TIP3    H122095   2.945   3.195   2.203 -1.9191 -2.0163  0.2544
 7377TIP3    H222096   2.924   3.215   2.351 -0.8712 -0.3856  0.2128
 7378TIP3   OH222097   5.691   4.652   1.705 -0.3779 -0.7324 -0.2662
 7378TIP3    H122098   5.780   4.617   1.703 -0.5679 -1.2441  0.1100
 7378TIP3    H222099   5.655   4.623   1.788 -0.4041  0.7322  0.2739
 7379TIP3   OH222100   4.382   3.433   1.946 -0.3082 -0.4036 -0.2967
 7379TIP3    H122101   4.450   3.492   1.978 -1.1735  0.2252  0.4155
 7379TIP3    H222102   4.299   3.474   1.974 -1.0358 -0.5934 -2.0491
 7380TIP3   OH222103   6.873   0.874   1.209  0.0903 -0.2211  0.6177
 7380TIP3    H122104   6.920   0.794   1.232 -2.5923 -2.0929  0.0503
 7380TIP3    H222105   6.832   0.855   1.124  0.6815  2.3923 -0.3526
 7381TIP3   OH222106   0.956   5.358   2.617 -0.5552  0.1560 -0.0499
 7381TIP3    H122107   0.876   5.411   2.620 -0.5583  0.2087 -0.8415
 7381TIP3    H222108   1.024   5.420   2.591  0.2293  0.6466  2.7769
 7382TIP3   OH222109   6.442   6.710   3.598  0.4458 -0.4641  0.0399
 7382TIP3    H122110   6.455   6.618   3.578 -1.1180 -0.4108 -1.4100
 7382TIP3    H222111   6.362   6.734   3.552  0.8312  1.6363  0.3559
 7383TIP3   OH222112   1.288   1.888   5.296 -0.8911  0.0507  0.2271
 7383TIP3    H122113   1.368   1.869   5.246 -0.4126  0.2885  0.8803
 7383TIP3    H222114   1.217   1.866   5.236 -0.3857 -2.5985  0.4916
 7384TIP3   OH222115   2.025   5.237   0.988 -0.2299  0.3463  0.4866
 7384TIP3    H122116   2.117   5.248   1.012 -0.5722  0.2259  1.9083
 7384TIP3    H222117   2.021   5.150   0.948  0.4649  0.8046 -0.6137
 7385TIP3   OH222118   4.150   3.640   5.720 -0.3154 -0.0767  0.5045
 7385TIP3    H122119   4.122   3.725   5.686 -0.9737  0.5152  2.4072
 7385TIP3    H222120   4.070   3.588   5.721  0.0901 -0.7643 -0.6688
 7386TIP3   OH222121   3.006   1.157   5.445 -0.0108  0.2516 -0.1945
 7386TIP3    H122122   3.088   1.155   5.494 -0.0162 -0.9659 -0.2052
 7386TIP3    H222123   2.968   1.243   5.466  0.2268 -0.0236  1.5138
 7387TIP3   OH222124   0.172   2.215   5.070 -0.3261 -0.0127  0.7133
 7387TIP3    H122125   0.149   2.243   5.159 -0.3667 -0.5715  0.8833
 7387TIP3    H222126   0.199   2.124   5.080 -2.0203 -0.6407 -0.1148
 7388TIP3   OH222127   0.124   4.145   3.339 -0.2233 -0.7077 -0.0751
 7388TIP3    H122128   0.095   4.160   3.249  1.3602 -2.0840 -0.8755
 7388TIP3    H222129   0.120   4.050   3.350  0.6051 -0.6441  0.9511
 7389TIP3   OH222130   4.591   5.951   0.764 -0.4047  0.0811  0.0129
 7389TIP3    H122131   4.527   6.008   0.723 -1.4327 -0.8709  0.2626
 7389TIP3    H222132   4.540   5.889   0.815  0.6938 -0.8473  0.0411
 7390TIP3   OH222133   3.230   1.285   2.023 -0.2645  0.1004  0.4502
 7390TIP3    H122134   3.188   1.364   2.057  1.2403  1.1323  0.0386
 7390TIP3    H222135   3.315   1.281   2.067  0.3545 -0.3697 -0.7198
 7391TIP3   OH222136   5.556   0.068   4.702 -0.6674  0.4989 -0.1438
 7391TIP3    H122137   5.584   0.154   4.733  2.1816 -0.7982  1.2372
 7391TIP3    H222138   5.563   0.073   4.607  3.3409  0.7484  0.0142
 7392TIP3   OH222139   1.013   1.145   1.372 -0.5213  0.1224 -0.2101
 7392TIP3    H122140   0.958   1.067   1.381  1.5879 -1.4392  0.0033
 7392TIP3    H222141   1.035   1.169   1.462  0.8659 -0.6422 -0.3034
 7393TIP3   OH222142   1.894   6.216   0.787 -0.4171 -0.0698  0.3069
 7393TIP3    H122143   1.845   6.298   0.788  0.3837  0.4137  1.1682
 7393TIP3    H222144   1.827   6.148   0.797 -1.3283  0.2922 -2.4690
 7394TIP3   OH222145   2.546   1.547   3.728 -0.4730  0.3113  0.3352
 7394TIP3    H122146   2.474   1.519   3.673 -0.8709 -0.4879  1.2326
 7394TIP3    H222147   2.622   1.548   3.670 -0.9646 -0.0610 -0.3258
 7395TIP3   OH222148   3.419   3.380   0.348 -0.1204  0.5416  0.6084
 7395TIP3    H122149   3.508   3.414   0.357  0.3147 -0.4057  0.1506
 7395TIP3    H222150   3.364   3.442   0.395  0.4092  2.6780 -1.4002
 7396TIP3   OH222151   0.462   5.540   0.874 -0.3853 -0.3543 -0.0960
 7396TIP3    H122152   0.386   5.575   0.920  1.0078  1.2009  1.1724
 7396TIP3    H222153   0.454   5.574   0.784 -1.8515 -1.3508 -0.3692
 7397TIP3   OH222154   2.866   6.366   0.746  0.1577 -0.1175 -0.7519
 7397TIP3    H122155   2.786   6.351   0.796 -0.0322  0.9639 -0.7110
 7397TIP3    H222156   2.844   6.339   0.657 -0.3869  0.5279 -0.8223
 7398TIP3   OH222157   2.609   2.183   0.054 -0.1794 -0.0493 -0.7453
 7398TIP3    H122158   2.678   2.237   0.093 -0.0614  0.3335 -1.4595
 7398TIP3    H222159   2.585   2.230  -0.026  0.3141 -1.3262 -1.6799
 7399TIP3   OH222160   5.958   4.674   0.463 -0.0698  0.1608  0.1142
 7399TIP3    H122161   5.931   4.728   0.537 -1.2450 -0.8106  0.4195
 7399TIP3    H222162   6.016   4.608   0.501 -0.8638 -0.4850  0.2307
 7400TIP3   OH222163   0.283   3.958   0.061 -0.9715 -0.6272  0.0949
 7400TIP3    H122164   0.344   3.972   0.133 -0.0756  2.0459 -1.0507
 7400TIP3    H222165   0.213   4.021   0.076 -0.4309  0.4693 -1.6343
 7401TIP3   OH222166   1.333   4.180   3.763 -0.1739  0.4021  0.0644
 7401TIP3    H122167   1.359   4.097   3.724 -0.9894  0.6673 -1.0979
 7401TIP3    H222168   1.415   4.225   3.781  0.2321  0.3049 -1.4381
 7402TIP3   OH222169   1.509   3.059   1.445  0.3995 -0.0004 -0.2040
 7402TIP3    H122170   1.553   3.079   1.528 -0.4081 -1.6322  0.6620
 7402TIP3    H222171   1.579   3.060   1.380  1.0919  1.0545  0.5265
 7403TIP3   OH222172   2.610   5.732   4.862  0.4011 -0.1088  0.5892
 7403TIP3    H122173   2.676   5.669   4.833  0.5528  0.1963  0.2678
 7403TIP3    H222174   2.649   5.773   4.939  1.3342  1.2861 -0.5780
 7404TIP3   OH222175   6.867   2.890   1.756 -0.1245 -0.5335  0.0188
 7404TIP3    H122176   6.934   2.828   1.785  1.4785  0.7841 -0.7324
 7404TIP3    H222177   6.804   2.891   1.828  0.0343 -2.6342  0.2749
 7405TIP3   OH222178   5.401   5.683   5.744 -0.0871  0.4087 -0.4190
 7405TIP3    H122179   5.402   5.720   5.656 -2.2119 -0.4613 -0.8816
 7405TIP3    H222180   5.447   5.746   5.798  0.1691  1.5672 -1.9374
 7406TIP3   OH222181   1.211   5.831   2.672 -0.0723 -0.2557  0.3593
 7406TIP3    H122182   1.194   5.814   2.764  2.5886 -0.0017  0.9475
 7406TIP3    H222183   1.150   5.901   2.649 -0.5230 -0.0661  2.0055
 7407TIP3   OH222184   7.144   2.665   0.809  0.4907 -0.3721  0.0060
 7407TIP3    H122185   7.204   2.661   0.884  0.6951 -0.6342 -0.1710
 7407TIP3    H222186   7.201   2.660   0.732  0.3971  1.2271 -0.2018
 7408TIP3   OH222187   5.978   4.739   5.616 -0.2609  0.5628  0.6048
 7408TIP3    H122188   5.899   4.773   5.659 -0.8349  1.0848 -0.8061
 7408TIP3    H222189   5.983   4.647   5.644 -2.0410  0.1824 -0.1944
 7409TIP3   OH222190   3.805   1.741   1.062  0.1367  0.1512  0.0254
 7409TIP3    H122191   3.737   1.689   1.104  1.1072 -2.1310 -1.0440
 7409TIP3    H222192   3.770   1.761   0.975  0.5074 -0.4541 -0.2788
 7410TIP3   OH222193   0.025   0.386   3.217 -0.0134  0.3572  0.0959
 7410TIP3    H122194   0.044   0.378   3.123 -1.8124 -1.3229 -0.1835
 7410TIP3    H222195  -0.059   0.342   3.228 -0.1685  1.1220  2.4111
 7411TIP3   OH222196   2.947   4.649   2.717  0.1793 -0.3111  0.0203
 7411TIP3    H122197   2.980   4.698   2.792  0.5032  2.5926 -1.8733
 7411TIP3    H222198   2.867   4.607   2.749  1.4646 -1.0871  2.5366
 7412TIP3   OH222199   5.186   1.645   2.233 -0.1589 -0.5219 -0.8471
 7412TIP3    H122200   5.145   1.561   2.254  0.4639 -0.5129  0.5182
 7412TIP3    H222201   5.169   1.700   2.309 -0.3176  0.5117 -1.6073
 7413TIP3   OH222202   3.628   6.694   3.740 -0.3285  0.5180 -0.0532
 7413TIP3    H122203   3.535   6.681   3.756  0.1718 -1.8746  1.4157
 7413TIP3    H222204   3.636   6.700   3.645 -1.7371 -2.1145 -0.4231
 7414TIP3   OH222205   2.720   6.138   4.986 -0.2577  0.9182  0.0676
 7414TIP3    H122206   2.744   6.096   4.903  1.7373  0.6221  0.7522
 7414TIP3    H222207   2.662   6.075   5.029 -0.7961  0.8008 -0.8026
 7415TIP3   OH222208   2.416   4.752   2.198 -0.7636  0.1161 -0.5451
 7415TIP3    H122209   2.407   4.692   2.125 -1.1350 -1.2838  0.6109
 7415TIP3    H222210   2.354   4.721   2.264  0.0557  0.8845  0.6487
 7416TIP3   OH222211   6.131   3.244   0.084 -0.0623 -0.6424  0.1415
 7416TIP3    H122212   6.225   3.238   0.104 -0.1558 -1.5351  0.3962
 7416TIP3    H222213   6.089   3.256   0.169 -0.1159  0.8993 -0.0826
 7417TIP3   OH222214   2.165   3.811   1.252  0.3776  0.0687 -0.3828
 7417TIP3    H122215   2.178   3.716   1.249  0.9043  0.1673 -1.7800
 7417TIP3    H222216   2.242   3.847   1.210  1.0458  1.2346  1.6956
 7418TIP3   OH222217   0.690   1.352   3.568 -0.1063  0.0699  0.2530
 7418TIP3    H122218   0.619   1.417   3.558  1.1399  1.1874 -2.0726
 7418TIP3    H222219   0.662   1.278   3.515  0.1699  0.2884 -0.2108
 7419TIP3   OH222220   3.009   1.331   3.530 -0.1229  0.1896  0.0013
 7419TIP3    H122221   3.075   1.350   3.463  0.9778  1.9076  1.4706
 7419TIP3    H222222   3.046   1.257   3.579  0.4020  0.7023  0.3925
 7420TIP3   OH222223   2.571   1.402   5.745  0.6174 -0.2646  0.5245
 7420TIP3    H122224   2.617   1.468   5.797  1.2514  0.8080 -1.3149
 7420TIP3    H222225   2.631   1.327   5.743  1.2345  0.2254  0.1576
 7421TIP3   OH222226   1.169   6.701   4.249  0.3123 -0.5082 -0.0359
 7421TIP3    H122227   1.163   6.612   4.213 -0.5619  0.1122 -1.5128
 7421TIP3    H222228   1.080   6.736   4.243  0.7270  0.6212  0.0889
 7422TIP3   OH222229   5.183   4.209   1.876  0.1883  0.0765  0.1994
 7422TIP3    H122230   5.257   4.177   1.825 -0.0930  0.0939 -0.2297
 7422TIP3    H222231   5.185   4.157   1.956 -2.3805 -3.8482 -1.9083
 7423TIP3   OH222232   4.366   6.196   0.375  0.9472  0.2019  0.5586
 7423TIP3    H122233   4.293   6.159   0.325  1.4444 -2.5240  1.6210
 7423TIP3    H222234   4.387   6.278   0.331 -0.9932 -0.2540 -1.4022
 7424TIP3   OH222235   6.930   3.609   5.826 -0.5094  0.0508  0.6472
 7424TIP3    H122236   6.971   3.575   5.906  1.3324  0.9004  0.1131
 7424TIP3    H222237   6.928   3.704   5.838  1.2854  0.3536 -0.9134
 7425TIP3   OH222238   6.982   3.928   3.541  0.1697  0.0970  0.0781
 7425TIP3    H122239   6.971   3.933   3.446 -2.4529 -3.2854  0.0134
 7425TIP3    H222240   6.894   3.936   3.575  0.7611 -1.0885  2.0339
 7426TIP3   OH222241   6.913  -0.031   0.346  0.2431  0.1923  0.0636
 7426TIP3    H122242   6.882  -0.021   0.256  1.7195  1.8711 -0.3118
 7426TIP3    H222243   6.906   0.056   0.384 -0.7665 -0.5726  1.7565
 7427TIP3   OH222244   0.333   1.649   4.987  0.4906  0.2766 -0.5578
 7427TIP3    H122245   0.404   1.609   4.937  0.1814 -0.1784 -0.6385
 7427TIP3    H222246   0.374   1.677   5.069  0.6907 -0.2950 -0.4590
 7428TIP3   OH222247   3.833   0.457   5.126 -0.5947  0.0789 -0.2010
 7428TIP3    H122248   3.919   0.464   5.166  0.0073  0.6736 -1.5349
 7428TIP3    H222249   3.798   0.374   5.158  0.1318  0.2181  0.9831
 7429TIP3   OH222250   2.383   5.480   3.595 -0.5224  0.2679  0.4026
 7429TIP3    H122251   2.357   5.566   3.628  0.4066  0.4778  0.5965
 7429TIP3    H222252   2.327   5.418   3.643 -2.0604  0.8033 -0.6027
 7430TIP3   OH222253   5.792   6.204   0.717 -0.3549 -0.2252  0.0620
 7430TIP3    H122254   5.709   6.212   0.670 -1.5907 -1.8242  1.8260
 7430TIP3    H222255   5.781   6.258   0.795 -0.4716 -1.7983  1.1878
 7431TIP3   OH222256   7.077   0.948   5.800 -0.0240 -0.4548 -0.1633
 7431TIP3    H122257   7.158   0.911   5.834 -0.6787 -0.4202  1.5273
 7431TIP3    H222258   7.091   0.955   5.706  2.1930  0.2154  0.1715
 7432TIP3   OH222259   5.527   5.184   3.563  0.7480 -0.7459  0.3948
 7432TIP3    H122260   5.525   5.264   3.511 -2.4252 -1.4898 -0.8578
 7432TIP3    H222261   5.534   5.114   3.499  1.3047 -1.5557  1.3215
 7433TIP3   OH222262   3.082   4.987   5.288 -0.4158 -0.5624 -0.1195
 7433TIP3    H122263   3.093   5.044   5.212  0.0714  0.1916  0.5097
 7433TIP3    H222264   3.150   5.014   5.349 -0.6546 -1.3173  0.5039
 7434TIP3   OH222265   6.304   4.638   0.154 -0.5237 -0.3420 -0.4923
 7434TIP3    H122266   6.334   4.640   0.245  0.1267  0.8772 -0.7013
 7434TIP3    H222267   6.376   4.597   0.106 -0.7884 -0.8184 -0.4827
 7435TIP3   OH222268   3.875   4.779   4.779 -0.1198 -0.1160  0.3958
 7435TIP3    H122269   3.903   4.751   4.692 -0.6564 -0.1795  0.2407
 7435TIP3    H222270   3.886   4.874   4.778 -1.2611  0.0339 -0.1750
 7436TIP3   OH222271   0.939   2.718   0.590 -0.1386 -0.3211  0.3621
 7436TIP3    H122272   0.853   2.700   0.551 -0.1565  0.5301 -0.0194
 7436TIP3    H222273   0.965   2.802   0.551 -0.3833  0.8508  2.5293
 7437TIP3   OH222274   5.995   6.427   0.606 -0.1808  0.2810 -0.2523
 7437TIP3    H122275   5.917   6.477   0.582 -1.2104 -0.1276  2.0550
 7437TIP3    H222276   5.969   6.336   0.596 -0.3345  0.1210  1.3924
 7438TIP3   OH222277   4.231   5.946   5.075  0.4372  0.1128  0.0214
 7438TIP3    H122278   4.143   5.936   5.040  0.2275  1.3341  0.1281
 7438TIP3    H222279   4.289   5.934   5.000  0.2279 -1.2400  0.0563
 7439TIP3   OH222280   1.205   0.099   0.181 -0.2175 -0.1410 -0.5427
 7439TIP3    H122281   1.124   0.139   0.148  0.3432  0.1570 -1.5987
 7439TIP3    H222282   1.274   0.139   0.129  0.5590 -0.8582 -0.0810
 7440TIP3   OH222283   4.487   5.388   5.161 -0.3922  0.1604 -0.4325
 7440TIP3    H122284   4.397   5.418   5.149  0.4695  2.7209 -1.1356
 7440TIP3    H222285   4.528   5.455   5.216  0.9501 -1.2829  0.4347
 7441TIP3   OH222286   3.997   4.047   4.362  0.7505  0.3124  0.0995
 7441TIP3    H122287   3.990   3.955   4.335  0.5638  0.5868 -0.8262
 7441TIP3    H222288   3.912   4.067   4.402  0.2952  0.4553 -0.9175
 7442TIP3   OH222289   5.572   1.542   1.927  0.0459  0.0400 -0.0453
 7442TIP3    H122290   5.571   1.521   1.834  0.9284 -0.7759  0.1177
 7442TIP3    H222291   5.653   1.591   1.939 -1.5481  3.0070 -0.2642
 7443TIP3   OH222292   1.530   4.078   5.859 -0.2141  0.3120 -0.2189
 7443TIP3    H122293   1.462   4.029   5.812 -0.2935  1.1936 -1.0521
 7443TIP3    H222294   1.506   4.169   5.847  3.1219  0.9680 -3.9153
 7444TIP3   OH222295   3.005   3.490   5.322  0.1352 -0.1609 -0.8058
 7444TIP3    H122296   3.031   3.506   5.231 -1.2036 -0.4701 -1.2656
 7444TIP3    H222297   2.969   3.402   5.322  0.5499 -0.3437  0.1387
 7445TIP3   OH222298   5.564   6.637   3.453 -0.0249  0.0107 -0.3184
 7445TIP3    H122299   5.507   6.570   3.416 -0.4937 -0.3776  1.0282
 7445TIP3    H222300   5.506   6.712   3.467 -0.0614 -0.1477  0.4140
 7446TIP3   OH222301   3.647   0.795   3.890 -0.3583  0.0235 -0.1726
 7446TIP3    H122302   3.568   0.790   3.944 -1.0478 -1.1566 -1.2422
 7446TIP3    H222303   3.670   0.888   3.889 -0.0541  0.0438  2.4842
 7447TIP3   OH222304   3.478   0.352   0.455  0.0040  0.0867 -0.1222
 7447TIP3    H122305   3.457   0.395   0.373 -2.0412  0.4279  0.5300
 7447TIP3    H222306   3.503   0.263   0.429 -1.7728 -0.1860 -1.0788
 7448TIP3   OH222307   4.966   3.948   0.154 -0.0585 -0.3406 -0.3390
 7448TIP3    H122308   4.940   3.932   0.063 -0.2919 -2.0567 -0.0062
 7448TIP3    H222309   4.944   3.866   0.199  1.4225 -0.0511  0.9630
 7449TIP3   OH222310   6.090   0.676   5.639 -0.2575 -0.3551 -0.1823
 7449TIP3    H122311   6.038   0.624   5.700 -0.3645 -0.6123 -0.4884
 7449TIP3    H222312   6.181   0.649   5.655 -0.0758  0.9814  1.2073
 7450TIP3   OH222313   5.129   5.168   2.367  0.5195 -0.4283 -0.1694
 7450TIP3    H122314   5.150   5.231   2.298 -0.1681  1.5639  1.3179
 7450TIP3    H222315   5.161   5.210   2.447 -0.6443 -1.6517  0.9853
 7451TIP3   OH222316   5.679   2.138   4.044 -0.3302 -0.0786  0.1720
 7451TIP3    H122317   5.639   2.058   4.079  2.4252 -0.3603  3.2123
 7451TIP3    H222318   5.760   2.108   4.003 -0.4511  0.9507 -0.8547
 7452TIP3   OH222319   5.009   1.255   1.685  0.1905 -0.0515 -0.5556
 7452TIP3    H122320   5.074   1.216   1.626  0.2986  1.5733 -1.5828
 7452TIP3    H222321   5.041   1.343   1.701 -1.1854  0.4015 -0.1516
 7453TIP3   OH222322   6.808   4.068   4.565 -0.3690 -0.3462 -0.6659
 7453TIP3    H122323   6.764   4.117   4.634 -1.2674  1.1883 -2.2624
 7453TIP3    H222324   6.876   4.019   4.611 -0.2816  1.3786  1.1847
 7454TIP3   OH222325   6.123   6.066   5.120  0.2943  0.2948  0.0519
 7454TIP3    H122326   6.134   6.150   5.074  0.3561 -0.4745 -1.3982
 7454TIP3    H222327   6.161   6.002   5.060 -0.3986 -0.8560  0.8253
 7455TIP3   OH222328   2.336   3.520   1.346 -0.0293 -0.6429  0.2620
 7455TIP3    H122329   2.304   3.571   1.420 -1.4849  0.0883 -0.8265
 7455TIP3    H222330   2.411   3.570   1.313  0.7392 -1.0634  1.3056
 7456TIP3   OH222331   5.406   4.053   1.734  0.1976  0.0288 -0.0808
 7456TIP3    H122332   5.449   4.049   1.819 -0.2776  0.4985  0.1899
 7456TIP3    H222333   5.476   4.075   1.672  0.4587  0.1473  0.2552
 7457TIP3   OH222334   3.597   3.235   1.203 -0.1728  0.9232 -0.5344
 7457TIP3    H122335   3.525   3.251   1.264  0.2456  0.5478  0.0659
 7457TIP3    H222336   3.676   3.259   1.252  0.4281 -1.9472  0.1139
 7458TIP3   OH222337   0.043   4.279   4.717  0.2306 -0.6290  0.5789
 7458TIP3    H122338   0.012   4.315   4.800  0.2231  0.0966  0.2689
 7458TIP3    H222339   0.134   4.308   4.710  0.4410 -1.2573  0.6474
 7459TIP3   OH222340   1.799   3.580   2.211  0.1917 -0.0238 -0.2459
 7459TIP3    H122341   1.788   3.611   2.121  1.3294  1.7886  0.1823
 7459TIP3    H222342   1.813   3.486   2.202 -2.6156 -0.4322 -1.6894
 7460TIP3   OH222343   0.772   3.617   4.302  0.0513  0.2840 -0.2458
 7460TIP3    H122344   0.858   3.626   4.342  0.3228  2.4052 -1.1756
 7460TIP3    H222345   0.771   3.528   4.266  1.7135  0.1209  0.0488
 7461TIP3   OH222346   3.510   1.313   2.109 -0.1449 -0.3469  0.7714
 7461TIP3    H122347   3.506   1.221   2.134 -0.2356 -0.4592  0.3554
 7461TIP3    H222348   3.498   1.361   2.191 -1.0205 -0.7056  0.8687
 7462TIP3   OH222349   2.638   0.107  -0.013  0.5297  0.6844 -0.4077
 7462TIP3    H122350   2.672   0.141   0.070  0.4397  0.1927 -0.1612
 7462TIP3    H222351   2.682   0.022  -0.023  0.8024  0.8978 -1.0416
 7463TIP3   OH222352   2.390   2.726   4.004 -0.7159 -0.2282  0.5581
 7463TIP3    H122353   2.351   2.813   3.996 -1.3950 -0.5661  0.1018
 7463TIP3    H222354   2.484   2.742   4.001 -0.6922  0.7982  3.5763
 7464TIP3   OH222355   3.315   3.609   3.085 -0.1420  0.2913  0.4314
 7464TIP3    H122356   3.377   3.678   3.062 -0.3657  0.2956 -0.1708
 7464TIP3    H222357   3.357   3.563   3.158  1.0334 -0.3032 -0.5584
 7465TIP3   OH222358   3.797   6.668   4.112 -0.3070  0.0492  0.3207
 7465TIP3    H122359   3.834   6.681   4.199 -0.7974 -1.6025  0.8255
 7465TIP3    H222360   3.730   6.736   4.103 -0.1825  0.2960  1.1963
 7466TIP3   OH222361   1.726   2.814   0.814 -0.1428  0.8650 -0.2843
 7466TIP3    H122362   1.707   2.737   0.760  1.1244  1.6721 -1.9613
 7466TIP3    H222363   1.815   2.799   0.846  0.0506  1.5593 -0.4949
 7467TIP3   OH222364   3.126   4.406   1.007 -0.1103  0.3758  0.7026
 7467TIP3    H122365   3.038   4.376   0.983 -0.2028 -0.3716  1.9042
 7467TIP3    H222366   3.122   4.417   1.102  0.8102  1.3362  0.6429
 7468TIP3   OH222367   2.539   1.540   4.523  0.4535 -0.3936 -0.1699
 7468TIP3    H122368   2.529   1.539   4.427  1.5318  0.5845 -0.3193
 7468TIP3    H222369   2.633   1.556   4.537  0.5786 -1.9636  1.0703
 7469TIP3   OH222370   0.933   0.527   4.271 -0.0828 -0.0241  0.2872
 7469TIP3    H122371   0.887   0.556   4.350 -2.2890 -1.0610 -0.5489
 7469TIP3    H222372   0.924   0.601   4.211  0.0207  0.0801  0.4001
 7470TIP3   OH222373   1.564   2.529   1.294  0.4493 -0.2716 -0.5310
 7470TIP3    H122374   1.600   2.518   1.382  0.4131 -0.4253 -0.5342
 7470TIP3    H222375   1.496   2.595   1.304 -0.4854 -1.2560 -0.1749
 7471TIP3   OH222376   3.965   5.952   5.730  0.0925  0.0661 -0.1737
 7471TIP3    H122377   4.033   5.894   5.695  0.8102  0.7179  0.1056
 7471TIP3    H222378   4.013   6.030   5.757 -0.7286  0.3927  0.3578
 7472TIP3   OH222379   6.127   4.403   3.544  0.1348 -0.3082  0.4271
 7472TIP3    H122380   6.122   4.486   3.496 -1.2358  0.9438  2.5457
 7472TIP3    H222381   6.221   4.391   3.561  0.4331  0.3267 -0.6622
 7473TIP3   OH222382   5.030   2.460   4.913 -0.3827  0.1606  0.1991
 7473TIP3    H122383   5.069   2.389   4.963  0.6556 -0.6993 -1.7129
 7473TIP3    H222384   4.936   2.447   4.923 -0.2038 -0.6363  1.0024
 7474TIP3   OH222385   5.658   1.400   4.009  0.1867 -0.0699  0.5471
 7474TIP3    H122386   5.725   1.362   3.953 -0.3688 -0.4242  0.1230
 7474TIP3    H222387   5.706   1.463   4.064  0.4083  2.2213 -2.0438
 7475TIP3   OH222388   0.562   1.170   1.181  0.0536 -0.2725 -0.0330
 7475TIP3    H122389   0.575   1.192   1.089 -0.0555 -1.0754 -0.2507
 7475TIP3    H222390   0.650   1.172   1.218  0.0126  0.8303  0.0398
 7476TIP3   OH222391   3.506   3.790   3.013  0.4103  0.0593  0.6072
 7476TIP3    H122392   3.450   3.848   2.962 -2.6074 -1.2968  2.1452
 7476TIP3    H222393   3.582   3.775   2.957 -1.3285  0.9884 -2.1968
 7477TIP3   OH222394   2.594   2.932   1.698 -0.2919 -0.4253 -0.0199
 7477TIP3    H122395   2.622   2.979   1.619  0.2819  0.5367  0.7256
 7477TIP3    H222396   2.581   3.001   1.763 -2.8309 -0.9871  0.1641
 7478TIP3   OH222397   5.859   2.493   0.632 -0.4835  0.5453  0.7275
 7478TIP3    H122398   5.822   2.544   0.704 -0.7917 -0.8777  1.6031
 7478TIP3    H222399   5.953   2.511   0.637 -0.5688  0.9186  1.0946
 7479TIP3   OH222400   2.202   2.441   3.229 -0.0988  0.0990  0.1172
 7479TIP3    H122401   2.261   2.415   3.158 -1.1100  1.2083 -1.1833
 7479TIP3    H222402   2.259   2.482   3.294  0.8562 -0.9985  0.0091
 7480TIP3   OH222403   2.191   5.669   3.381 -0.4362  0.1486  0.3447
 7480TIP3    H122404   2.192   5.746   3.324  3.0309 -0.5849 -0.8218
 7480TIP3    H222405   2.222   5.701   3.466  0.1210  0.2074  0.1204
 7481TIP3   OH222406   0.039   6.224   1.491 -0.4494  0.6627 -0.6244
 7481TIP3    H122407   0.030   6.300   1.548 -0.2877  0.0975  0.1794
 7481TIP3    H222408   0.090   6.161   1.543  0.4930  0.4781 -1.7370
 7482TIP3   OH222409   5.651   2.278   4.951 -0.1656 -0.2882  0.0445
 7482TIP3    H122410   5.611   2.279   5.038 -0.7288 -0.8719 -0.1995
 7482TIP3    H222411   5.577   2.291   4.891  0.5404  3.8827 -0.2786
 7483TIP3   OH222412   5.168   3.965   3.504  0.2063 -0.4308 -0.2181
 7483TIP3    H122413   5.198   3.959   3.595 -0.9418  0.1905  0.2221
 7483TIP3    H222414   5.073   3.964   3.510  0.1113  0.0303 -1.3923
 7484TIP3   OH222415   5.132   3.263   3.603  0.2021 -0.4481  0.3836
 7484TIP3    H122416   5.150   3.189   3.545 -0.7092 -1.8000  1.7334
 7484TIP3    H222417   5.072   3.319   3.553 -1.7746 -2.3387  0.4764
 7485TIP3   OH222418   0.337   3.603   4.552 -0.1163 -0.0267  0.0434
 7485TIP3    H122419   0.295   3.518   4.542 -0.1732  0.1581 -1.6981
 7485TIP3    H222420   0.362   3.607   4.644 -2.0215 -1.0090  0.6464
 7486TIP3   OH222421   3.515   6.374   1.852  0.1927  0.3279 -0.5709
 7486TIP3    H122422   3.446   6.424   1.897 -0.2055  0.7939 -1.6767
 7486TIP3    H222423   3.591   6.433   1.852  0.5530 -0.1070  0.4636
 7487TIP3   OH222424   0.964   6.317   0.172 -0.1016  0.0121  0.5311
 7487TIP3    H122425   0.875   6.338   0.199  0.0629  2.3710 -0.5392
 7487TIP3    H222426   0.953   6.257   0.097 -0.7201 -0.6992  1.1759
 7488TIP3   OH222427   1.034   1.559   1.390  0.4551 -0.4823 -0.5051
 7488TIP3    H122428   1.102   1.508   1.344  0.1089  0.0221 -1.6087
 7488TIP3    H222429   1.029   1.519   1.477 -0.0048 -2.5384 -1.4177
 7489TIP3   OH222430   1.022   6.755   4.712  0.0869  0.2978 -0.2428
 7489TIP3    H122431   0.960   6.682   4.721 -1.0565  1.1498 -0.8955
 7489TIP3    H222432   0.969   6.826   4.675  1.1655  1.4658  0.4030
 7490TIP3   OH222433   1.181   0.515   5.733 -0.5686  0.5763  0.3542
 7490TIP3    H122434   1.087   0.518   5.717 -0.2475  0.1019 -1.8528
 7490TIP3    H222435   1.220   0.491   5.649  1.5465  0.8561  1.1821
 7491TIP3   OH222436   0.109   0.466   4.804 -0.9683 -0.2818 -0.4306
 7491TIP3    H122437   0.038   0.415   4.765  0.3872 -0.9622 -2.1524
 7491TIP3    H222438   0.162   0.402   4.851  0.3466 -0.4371 -2.0132
 7492TIP3   OH222439   4.336   5.255   3.896  0.4546 -0.1450  0.2319
 7492TIP3    H122440   4.244   5.245   3.869  0.4580 -1.2025  0.5546
 7492TIP3    H222441   4.373   5.315   3.831 -0.4287  0.1950  0.0180
 7493TIP3   OH222442   5.815   5.886   5.052  0.3391 -0.2271  0.0256
 7493TIP3    H122443   5.767   5.839   5.120  0.7059  0.7789  1.0137
 7493TIP3    H222444   5.878   5.821   5.018  0.5531 -0.5806  1.0574
 7494TIP3   OH222445   1.369   1.003   0.324 -0.1574  0.4643  0.0587
 7494TIP3    H122446   1.276   0.983   0.315 -0.4258  1.7182 -0.0900
 7494TIP3    H222447   1.412   0.918   0.320 -1.1654 -0.0245 -1.6155
 7495TIP3   OH222448   6.920   5.079   5.470  0.2257  0.3376 -0.1003
 7495TIP3    H122449   6.954   4.997   5.505  0.4128 -1.0509 -3.1829
 7495TIP3    H222450   6.990   5.111   5.413 -0.4887  1.7777 -0.2012
 7496TIP3   OH222451   0.245   2.683   0.058  0.2322  0.5838 -0.1948
 7496TIP3    H122452   0.266   2.660  -0.032  0.7412  0.5598 -0.0746
 7496TIP3    H222453   0.326   2.718   0.094  1.6140 -3.8698  1.7029
 7497TIP3   OH222454   4.639   2.892   2.859  0.3627  0.2919 -0.3344
 7497TIP3    H122455   4.556   2.939   2.869  0.1038 -0.2467  0.0952
 7497TIP3    H222456   4.632   2.848   2.775  0.5292  0.8575 -0.6518
 7498TIP3   OH222457   6.831   5.942   0.321 -0.1525  0.0177  0.0581
 7498TIP3    H122458   6.855   6.034   0.331 -0.0214  0.0541 -0.5339
 7498TIP3    H222459   6.878   5.913   0.243 -0.3579 -0.4954  0.1169
 7499TIP3   OH222460   6.968   5.005   0.932 -0.5433 -0.4737  0.1545
 7499TIP3    H122461   7.042   5.044   0.979 -0.1687 -0.4876 -0.4084
 7499TIP3    H222462   6.956   5.062   0.856 -0.8518 -0.7003  0.0319
 7500TIP3   OH222463   0.794   3.406   1.685  0.3516 -0.2913 -0.0577
 7500TIP3    H122464   0.772   3.491   1.723  1.3965 -0.7912  1.8242
 7500TIP3    H222465   0.772   3.414   1.593  0.3454  1.9933  0.0859
 7501TIP3   OH222466   2.151   3.622   2.114 -0.4820  0.1763 -0.0746
 7501TIP3    H122467   2.171   3.586   2.200 -3.1368  2.0730  1.4680
 7501TIP3    H222468   2.088   3.692   2.131 -1.9855 -0.0945 -3.6559
 7502TIP3   OH222469   0.958   6.362   5.480  0.1130 -0.0881 -0.1999
 7502TIP3    H122470   0.980   6.269   5.471 -0.9291 -0.3131 -0.4519
 7502TIP3    H222471   0.947   6.393   5.391 -0.7315 -0.0158 -0.0726
 7503TIP3   OH222472   6.593   1.551   5.442 -0.3896  0.1262  1.1594
 7503TIP3    H122473   6.506   1.516   5.423 -0.2019  0.6386 -0.9738
 7503TIP3    H222474   6.653   1.479   5.423 -0.1718  0.7515 -0.7369
 7504TIP3   OH222475   6.572   3.476   2.057 -0.2673  0.5995  0.2428
 7504TIP3    H122476   6.626   3.554   2.058  1.0616  0.0227 -4.1813
 7504TIP3    H222477   6.634   3.403   2.048 -1.5774 -0.6642  1.0009
 7505TIP3   OH222478   4.510   6.193   5.362  0.5045 -0.1715 -0.3735
 7505TIP3    H122479   4.602   6.167   5.352 -0.5293 -3.8028 -2.3373
 7505TIP3    H222480   4.466   6.114   5.395 -2.5817 -0.2247 -3.9217
 7506TIP3   OH222481   7.099   1.644   1.027 -0.4207 -0.2127 -0.0242
 7506TIP3    H122482   7.118   1.560   1.070 -1.2180 -0.2454  0.2813
 7506TIP3    H222483   7.005   1.655   1.037 -0.1870  1.2470  0.8777
 7507TIP3   OH222484   7.067   6.258   3.753 -0.2925 -0.0523 -0.5387
 7507TIP3    H122485   7.087   6.261   3.846  1.7602 -0.4865 -0.9239
 7507TIP3    H222486   7.076   6.349   3.723  1.4079 -0.2505 -0.7243
 7508TIP3   OH222487   2.621   3.167   0.616  0.2488  0.2093 -0.9717
 7508TIP3    H122488   2.615   3.075   0.644 -1.6666  1.1029  2.0388
 7508TIP3    H222489   2.553   3.177   0.550 -0.9594 -0.1150  0.1857
 7509TIP3   OH222490   6.847   3.866   0.051 -0.6810  0.5947 -0.2667
 7509TIP3    H122491   6.871   3.885   0.142 -2.4478  1.7691  0.0041
 7509TIP3    H222492   6.928   3.875   0.002 -0.0469  1.7437  0.9463
 7510TIP3   OH222493   3.372   3.000   4.668 -0.0927 -0.1266 -0.5878
 7510TIP3    H122494   3.312   3.055   4.619  0.5556  0.4573 -0.7471
 7510TIP3    H222495   3.354   3.020   4.759 -0.1489  0.0368 -0.6341
 7511TIP3   OH222496   1.549   4.255   0.699  0.3395 -0.4942  0.3852
 7511TIP3    H122497   1.622   4.199   0.728 -0.3366 -1.3042  0.5622
 7511TIP3    H222498   1.485   4.194   0.662 -0.5109  0.1366  0.7834
 7512TIP3   OH222499   3.809   6.280   1.040 -0.5613 -0.5013  0.2228
 7512TIP3    H122500   3.823   6.246   1.129  1.0852  0.5102  0.3925
 7512TIP3    H222501   3.714   6.279   1.029 -0.6963 -3.0374  1.0186
 7513TIP3   OH222502   4.470   0.894   2.178  0.2156  0.7053 -0.3447
 7513TIP3    H122503   4.499   0.822   2.123 -3.0164 -0.9953 -0.0682
 7513TIP3    H222504   4.546   0.916   2.231  1.7714 -1.4808 -1.5219
 7514TIP3   OH222505   6.541   1.028   4.388  0.3801 -0.0274 -0.1950
 7514TIP3    H122506   6.494   1.110   4.370  0.5243 -0.3093 -2.0009
 7514TIP3    H222507   6.586   1.044   4.471 -0.1101  1.4950 -0.1969
 7515TIP3   OH222508   4.765   2.523   3.537  0.2999 -0.2356  0.6259
 7515TIP3    H122509   4.754   2.592   3.603  2.5084  1.2525 -0.4398
 7515TIP3    H222510   4.715   2.553   3.462  0.9995  0.0669  0.2732
 7516TIP3   OH222511   0.698   3.453   1.433 -0.3355 -0.4086 -0.5823
 7516TIP3    H122512   0.635   3.522   1.413 -1.0295 -1.0847 -0.7850
 7516TIP3    H222513   0.759   3.453   1.359  0.5821  0.9982  0.1520
 7517TIP3   OH222514   0.618   6.622   1.271 -0.1875  0.1413  0.2474
 7517TIP3    H122515   0.708   6.651   1.285  0.3400 -0.5227 -1.5710
 7517TIP3    H222516   0.564   6.693   1.306  1.0315  3.4005 -3.7739
 7518TIP3   OH222517   0.030   5.714   3.534  0.1376  0.3543  0.1077
 7518TIP3    H122518   0.112   5.706   3.583  0.2255  1.4497  0.1761
 7518TIP3    H222519  -0.031   5.753   3.597 -0.5757 -0.8225  0.1852
 7519TIP3   OH222520   3.817   4.495   4.577  0.1017 -0.6719  0.0643
 7519TIP3    H122521   3.864   4.491   4.493  0.7938  1.9406  0.2523
 7519TIP3    H222522   3.745   4.555   4.562 -0.1334 -0.6442  1.1893
 7520TIP3   OH222523   6.603   3.577   0.276 -0.7568 -0.2556 -0.8122
 7520TIP3    H122524   6.680   3.538   0.235 -1.5417 -0.6989 -1.8983
 7520TIP3    H222525   6.579   3.650   0.219 -0.8683  0.1633 -0.2342
 7521TIP3   OH222526   0.943   0.284   2.578 -0.0103  0.4689  0.6005
 7521TIP3    H122527   0.998   0.361   2.593 -0.4108  0.7336  0.7346
 7521TIP3    H222528   0.856   0.311   2.608  0.3373 -0.8583  3.1059
 7522TIP3   OH222529   2.589   1.091   2.917  0.4639  0.0211 -0.0722
 7522TIP3    H122530   2.514   1.117   2.971 -0.1650 -1.2890 -0.2848
 7522TIP3    H222531   2.551   1.071   2.831  1.4246  1.9037 -1.0063
 7523TIP3   OH222532   5.216   0.150   1.855 -0.4366  0.2157  0.1048
 7523TIP3    H122533   5.233   0.057   1.838 -0.0756  0.6238 -1.9493
 7523TIP3    H222534   5.303   0.189   1.861 -0.5892  0.4550  0.9497
 7524TIP3   OH222535   2.901   0.475   5.839 -0.4350 -0.3673 -0.4125
 7524TIP3    H122536   2.812   0.458   5.809  0.0487 -1.1514 -1.4343
 7524TIP3    H222537   2.940   0.527   5.769 -0.5026  1.2107  0.6662
 7525TIP3   OH222538   5.140   0.937   3.978  0.1363  0.0511 -0.5201
 7525TIP3    H122539   5.131   1.032   3.981  0.9003  0.1264 -0.5412
 7525TIP3    H222540   5.229   0.920   4.007  0.5377 -0.5599 -2.0288
 7526TIP3   OH222541   6.824   2.385   0.310 -0.0487  0.1727 -0.0430
 7526TIP3    H122542   6.731   2.366   0.314 -0.1407  0.6562  2.8544
 7526TIP3    H222543   6.867   2.309   0.350  0.7989  0.0040 -1.2291
 7527TIP3   OH222544   2.320   6.739   1.379  0.4152 -0.0774  0.2419
 7527TIP3    H122545   2.319   6.685   1.457 -2.1603 -0.5332 -0.0127
 7527TIP3    H222546   2.349   6.825   1.409  2.0005 -0.8740  1.1369
 7528TIP3   OH222547   2.210   4.476   0.761 -0.2739  0.2887  0.4196
 7528TIP3    H122548   2.270   4.410   0.726  1.7038  2.1690  0.0324
 7528TIP3    H222549   2.160   4.430   0.829  0.7485 -1.6559 -0.0627
 7529TIP3   OH222550   6.387   5.303   4.193  0.2400 -0.5435  0.2118
 7529TIP3    H122551   6.470   5.292   4.241  0.7225  1.6828  0.0082
 7529TIP3    H222552   6.335   5.361   4.249 -0.9116 -1.3307 -0.0175
 7530TIP3   OH222553   6.831   5.276   5.227  0.0617 -0.7012 -0.1356
 7530TIP3    H122554   6.822   5.361   5.270  0.5851 -1.0213  0.6096
 7530TIP3    H222555   6.893   5.291   5.156  0.7911 -0.6486  0.5096
 7531TIP3   OH222556   6.456   0.372   3.240  0.4356  0.1083 -0.4993
 7531TIP3    H122557   6.493   0.296   3.285  0.9605  1.1229  0.8435
 7531TIP3    H222558   6.406   0.335   3.167  0.2331 -1.5541  0.4376
 7532TIP3   OH222559   4.126   6.312   3.438  0.3636  0.2582 -0.1089
 7532TIP3    H122560   4.042   6.344   3.472  0.4505 -1.2896  1.6796
 7532TIP3    H222561   4.122   6.217   3.449  1.8709  0.0424 -1.1808
 7533TIP3   OH222562   5.135   0.699   4.990  0.8417  0.1400  0.0986
 7533TIP3    H122563   5.140   0.675   5.082  3.2164 -2.2285 -0.5498
 7533TIP3    H222564   5.048   0.669   4.962 -1.1056  3.3290  2.0189
 7534TIP3   OH222565   3.671   0.184   2.188  0.0400  0.2904 -0.1386
 7534TIP3    H122566   3.590   0.135   2.200  0.0392  0.1744 -0.6166
 7534TIP3    H222567   3.650   0.273   2.215 -0.6449  0.5926 -1.6283
 7535TIP3   OH222568   2.293   4.972   3.105  0.0571 -0.0610 -0.6493
 7535TIP3    H122569   2.294   4.966   3.009 -0.9644  0.0786 -0.6763
 7535TIP3    H222570   2.326   4.886   3.134  0.1544 -0.1885 -1.1162
 7536TIP3   OH222571   0.601   5.794   3.419  0.1943 -0.0058 -0.1367
 7536TIP3    H122572   0.580   5.828   3.506  0.0065 -0.7535  0.1166
 7536TIP3    H222573   0.520   5.751   3.390  0.7922 -1.2973  0.0633
 7537TIP3   OH222574   2.573   2.612   0.815 -0.3364 -0.1260 -0.1561
 7537TIP3    H122575   2.492   2.605   0.764  0.7111  0.0602 -1.9147
 7537TIP3    H222576   2.583   2.526   0.855 -0.9819 -0.4067 -0.5686
 7538TIP3   OH222577   6.936   0.088   2.575 -0.2417 -0.0343  0.3382
 7538TIP3    H122578   6.912   0.042   2.494 -0.6445  1.4040 -0.3862
 7538TIP3    H222579   7.032   0.091   2.572 -0.1764 -1.2097  0.6372
 7539TIP3   OH222580   0.559   6.562   5.396  0.2912 -0.0437  0.1594
 7539TIP3    H122581   0.570   6.534   5.306 -0.9630  0.0635 -0.0428
 7539TIP3    H222582   0.496   6.500   5.433  1.2194 -0.4364  1.1393
 7540TIP3   OH222583   3.849   4.503   5.384 -0.6073  0.5387  0.1820
 7540TIP3    H122584   3.940   4.482   5.406 -0.8987 -0.6359  0.3291
 7540TIP3    H222585   3.854   4.588   5.340  0.9779 -0.8501 -2.6435
 7541TIP3   OH222586   5.713   5.337   4.409  0.1930 -0.1007 -0.2422
 7541TIP3    H122587   5.774   5.383   4.351 -1.5288  1.6173 -0.8251
 7541TIP3    H222588   5.664   5.280   4.350  0.2755 -0.4032 -0.0166
 7542TIP3   OH222589   5.881   0.874   1.890  0.2352 -0.2581  0.2701
 7542TIP3    H122590   5.919   0.946   1.839  1.5323  0.4359  2.0897
 7542TIP3    H222591   5.858   0.914   1.974 -1.4355 -1.4424  0.4187
 7543TIP3   OH222592   2.611   0.343   3.847  0.1217  0.3246 -0.5695
 7543TIP3    H122593   2.564   0.398   3.785  0.3087  4.5578  2.6430
 7543TIP3    H222594   2.701   0.339   3.813 -0.1952  0.9773 -1.5129
 7544TIP3   OH222595   0.615   5.080   0.909 -0.2145 -0.2109  0.4110
 7544TIP3    H122596   0.552   5.152   0.905 -0.1568 -0.1903 -0.1211
 7544TIP3    H222597   0.648   5.083   0.999 -1.1005 -0.3336  0.7481
 7545TIP3   OH222598   5.793   2.634   0.081 -0.2789  0.2797  0.8462
 7545TIP3    H122599   5.816   2.555   0.130  1.8028 -0.1601 -0.7100
 7545TIP3    H222600   5.828   2.706   0.133  3.8260 -0.2932 -0.7752
 7546TIP3   OH222601   7.001   4.835   5.610  0.0356 -0.2316  0.4425
 7546TIP3    H122602   6.992   4.837   5.705 -0.2435 -0.5162  0.4245
 7546TIP3    H222603   7.080   4.783   5.594  0.2992  0.1409  0.5284
 7547TIP3   OH222604   5.077   2.033   4.445  0.1263  0.4005 -0.1324
 7547TIP3    H122605   5.043   2.004   4.530 -1.4504  2.8252  0.1639
 7547TIP3    H222606   5.071   2.128   4.448  0.1560  0.5675 -2.9398
 7548TIP3   OH222607   4.762   4.998   0.520 -0.4728  0.4568 -0.0964
 7548TIP3    H122608   4.795   5.022   0.607 -0.3662 -2.6489  0.8458
 7548TIP3    H222609   4.821   4.929   0.491 -2.4749 -0.9065 -1.1181
 7549TIP3   OH222610   6.726   0.423   1.453 -0.2211 -0.1623 -0.0343
 7549TIP3    H122611   6.809   0.421   1.500 -0.5855 -1.2346  0.5984
 7549TIP3    H222612   6.719   0.513   1.421  0.0667  0.5949  1.9021
 7550TIP3   OH222613   2.246   4.073   1.685  0.4119  0.7283  0.2425
 7550TIP3    H122614   2.201   4.012   1.626  0.4022 -0.3252  1.2970
 7550TIP3    H222615   2.191   4.076   1.763  2.4654 -1.2763  1.9403
 7551TIP3   OH222616   0.029   2.159   3.541 -0.4975  0.3078 -0.2005
 7551TIP3    H122617   0.097   2.093   3.557 -1.8158 -1.3585 -1.0708
 7551TIP3    H222618   0.030   2.172   3.446 -1.3449  0.2905 -0.2213
 7552TIP3   OH222619   5.364   6.466   5.261  0.4831 -0.3287 -0.4809
 7552TIP3    H122620   5.407   6.385   5.289  0.3467  0.0828  1.0259
 7552TIP3    H222621   5.408   6.489   5.179  0.9658 -1.5794 -0.5989
 7553TIP3   OH222622   2.661   6.614   3.985 -0.0263  0.0734  0.4140
 7553TIP3    H122623   2.638   6.687   3.927 -0.9312 -0.2473  0.3482
 7553TIP3    H222624   2.738   6.645   4.032  0.2529  0.6437 -0.3940
 7554TIP3   OH222625   0.541   1.195   2.517 -0.0357  0.5138  0.0597
 7554TIP3    H122626   0.533   1.268   2.580 -1.7536 -0.3426  0.9187
 7554TIP3    H222627   0.484   1.221   2.444 -1.2650 -0.2418  0.7055
 7555TIP3   OH222628   6.421   6.390   3.261  0.4098 -0.0368  0.2623
 7555TIP3    H122629   6.330   6.419   3.252  0.5073  0.7902  1.6498
 7555TIP3    H222630   6.459   6.401   3.173 -1.0761 -1.4034 -0.6066
 7556TIP3   OH222631   3.996   0.868   2.865  0.1738  0.4335  0.6005
 7556TIP3    H122632   4.062   0.929   2.831  1.6016 -0.8204  1.0055
 7556TIP3    H222633   4.008   0.789   2.812 -1.1267  0.2252  0.5905
 7557TIP3   OH222634   7.056   0.302   4.397  0.3188  0.2195 -0.3650
 7557TIP3    H122635   7.036   0.272   4.485  0.9151 -1.3196 -0.7251
 7557TIP3    H222636   7.116   0.376   4.410  0.8520 -0.3466  0.5080
 7558TIP3   OH222637   2.824   1.550   5.104 -0.3712  0.7006  0.3235
 7558TIP3    H122638   2.872   1.630   5.127 -2.0345  1.6387  0.6954
 7558TIP3    H222639   2.825   1.549   5.008  1.9985 -0.3512  0.2997
 7559TIP3   OH222640   3.309   5.772   1.816 -0.1544  0.1400 -0.7939
 7559TIP3    H122641   3.320   5.693   1.869  0.1336 -0.4668 -1.7373
 7559TIP3    H222642   3.231   5.755   1.763  1.0657 -0.4101 -2.4997
 7560TIP3   OH222643   1.261   6.165   3.406  1.0951 -0.0233 -0.1547
 7560TIP3    H122644   1.304   6.086   3.439  1.6714  0.6857  0.8231
 7560TIP3    H222645   1.179   6.170   3.455  0.2402 -0.9242 -1.4339
 7561TIP3   OH222646   2.956   4.118   4.034  0.1352 -0.7145 -0.0969
 7561TIP3    H122647   3.018   4.046   4.024 -1.7281 -2.1393 -2.1573
 7561TIP3    H222648   2.882   4.081   4.080 -0.2942  0.2549  0.0272
 7562TIP3   OH222649   3.311   5.377   4.739  0.1008 -0.3924 -0.1212
 7562TIP3    H122650   3.395   5.409   4.706 -0.0742  1.5430  1.1645
 7562TIP3    H222651   3.327   5.284   4.757  2.8858  0.4265  2.6206
 7563TIP3   OH222652   1.553   2.086   3.021 -0.0171 -0.4654 -0.6167
 7563TIP3    H122653   1.537   1.994   3.001 -1.4759 -0.0948 -1.2831
 7563TIP3    H222654   1.608   2.084   3.100 -1.1662 -1.8997  0.2025
 7564TIP3   OH222655   1.818   6.097   4.693 -0.7416 -0.3618  0.5614
 7564TIP3    H122656   1.813   6.159   4.620 -0.6279  0.2523  1.0707
 7564TIP3    H222657   1.887   6.035   4.667 -0.7183 -0.1631  0.1403
 7565TIP3   OH222658   1.384   0.695   4.418  0.3361  0.2524 -0.3079
 7565TIP3    H122659   1.304   0.723   4.462 -1.3968 -2.2386 -1.6422
 7565TIP3    H222660   1.379   0.734   4.331  1.4273  1.3468  0.0795
 7566TIP3   OH222661   4.708   1.212   3.000  0.0273  0.6293  0.1148
 7566TIP3    H122662   4.643   1.273   3.034  0.9125  1.2268  0.7971
 7566TIP3    H222663   4.717   1.236   2.908 -0.7076  0.5412  0.0141
 7567TIP3   OH222664   2.808   5.563   4.769 -0.3321 -0.3355  0.4005
 7567TIP3    H122665   2.821   5.542   4.676 -0.8767 -3.5169  0.9451
 7567TIP3    H222666   2.893   5.546   4.809 -0.6632 -1.1037  0.7946
 7568TIP3   OH222667   3.519   2.638   3.657 -0.2941  0.3692  0.3645
 7568TIP3    H122668   3.529   2.675   3.745  1.7367 -0.7343  0.6469
 7568TIP3    H222669   3.522   2.714   3.599  1.1447  0.9191  1.0965
 7569TIP3   OH222670   6.161   5.087   2.449 -0.0536 -0.2110 -0.8651
 7569TIP3    H122671   6.153   5.150   2.521 -1.7418  0.7009 -1.7902
 7569TIP3    H222672   6.161   5.002   2.492 -0.0101  0.3413  0.2644
 7570TIP3   OH222673   5.676   5.905   1.866  0.5362 -0.4613  0.3250
 7570TIP3    H122674   5.623   5.963   1.922 -0.1290 -2.3620  1.8046
 7570TIP3    H222675   5.765   5.913   1.900  0.4753 -0.1916  0.4201
 7571TIP3   OH222676   5.618   2.846   5.116 -0.0509 -0.6822  0.1028
 7571TIP3    H122677   5.641   2.873   5.204  1.0334 -0.0898 -0.3450
 7571TIP3    H222678   5.549   2.781   5.128 -1.8828  1.3715  1.2612
 7572TIP3   OH222679   7.135   3.186   3.583  0.6960 -0.2152  0.3029
 7572TIP3    H122680   7.145   3.206   3.676  1.3808  1.0017 -0.0210
 7572TIP3    H222681   7.217   3.144   3.558  0.9020  0.3339  0.0373
 7573TIP3   OH222682   5.649   2.693   0.374  0.2742  0.3027  0.2785
 7573TIP3    H122683   5.561   2.689   0.411  0.2921 -2.1512  0.1997
 7573TIP3    H222684   5.692   2.614   0.406  1.8616  0.5425 -1.1247
 7574TIP3   OH222685   7.021   5.594   5.372 -0.5865 -0.1501 -0.0098
 7574TIP3    H122686   6.994   5.644   5.295 -1.9298 -0.3953  0.2811
 7574TIP3    H222687   7.115   5.612   5.380 -0.9026  1.8534 -0.2470
 7575TIP3   OH222688   0.714   6.021   1.016  0.1217 -0.2560  0.7896
 7575TIP3    H122689   0.677   6.025   1.105 -0.6597  0.6072  0.4404
 7575TIP3    H222690   0.638   6.021   0.959  0.6470  0.8507  0.0660
 7576TIP3   OH222691   0.400   3.783   3.754 -0.3515  0.2856 -0.8035
 7576TIP3    H122692   0.325   3.753   3.805  0.1569  0.4192  0.0462
 7576TIP3    H222693   0.387   3.746   3.667 -2.5014  2.0025 -1.3135
 7577TIP3   OH222694   0.583   0.765   1.113 -0.2479  0.5571 -0.4112
 7577TIP3    H122695   0.645   0.836   1.097  0.4951 -0.0375 -0.2564
 7577TIP3    H222696   0.547   0.784   1.200  0.0472  0.6731 -0.3119
 7578TIP3   OH222697   3.926   2.010   0.721 -0.5417 -0.1378 -0.1235
 7578TIP3    H122698   3.947   2.040   0.632  0.3884 -0.1879  0.0677
 7578TIP3    H222699   3.951   2.084   0.777 -0.7882 -0.2443  0.1264
 7579TIP3   OH222700   2.838   5.408   1.613 -0.3208  0.3771 -0.1587
 7579TIP3    H122701   2.814   5.454   1.694 -1.1416  0.1961 -0.2906
 7579TIP3    H222702   2.754   5.378   1.577  0.0468  0.4067 -1.0494
 7580TIP3   OH222703   4.071   1.848   3.540 -0.1284  0.2911 -0.4132
 7580TIP3    H122704   4.053   1.909   3.611  1.3378  1.8359 -1.2866
 7580TIP3    H222705   3.996   1.788   3.540 -1.0111  1.3039  1.2791
 7581TIP3   OH222706   2.110   4.496   0.066  0.3145 -0.2306 -0.3261
 7581TIP3    H122707   2.156   4.428   0.016  0.6236  0.2716 -0.7345
 7581TIP3    H222708   2.049   4.534   0.003 -0.1441 -0.4008  0.0133
 7582TIP3   OH222709   0.568   0.571   4.904 -0.3467  0.3909 -0.3230
 7582TIP3    H122710   0.539   0.483   4.882 -0.9144  0.2592  0.8866
 7582TIP3    H222711   0.488   0.624   4.903 -0.5662  0.1997  2.1964
 7583TIP3   OH222712   4.784   2.343   4.628 -0.2158  0.1451  0.1250
 7583TIP3    H122713   4.793   2.249   4.615 -1.1050  0.0643  0.0663
 7583TIP3    H222714   4.691   2.361   4.615 -0.3756  0.7771  1.8643
 7584TIP3   OH222715   5.790   1.854   4.399  0.2075 -0.6168  0.1048
 7584TIP3    H122716   5.763   1.903   4.477 -1.7397 -1.4931  0.0326
 7584TIP3    H222717   5.822   1.770   4.433  2.3801  0.1574  0.1365
 7585TIP3   OH222718   5.023   4.859   0.516 -0.0777 -0.7450  0.2674
 7585TIP3    H122719   5.025   4.856   0.420 -0.1713 -2.2896  0.2839
 7585TIP3    H222720   5.058   4.945   0.539 -1.5943  0.3191 -1.1969
 7586TIP3   OH222721   2.714   5.219   4.239 -0.3525 -0.2236 -0.7083
 7586TIP3    H122722   2.670   5.146   4.196  0.3546 -0.1960 -1.5102
 7586TIP3    H222723   2.740   5.185   4.324 -2.1695 -0.1433 -0.0757
 7587TIP3   OH222724   3.737   3.041   1.457  0.5255  0.3350  0.1948
 7587TIP3    H122725   3.737   2.983   1.380 -0.7634 -0.7148  0.9316
 7587TIP3    H222726   3.827   3.035   1.491  1.0009  0.4894 -0.9791
 7588TIP3   OH222727   0.759   4.161   3.255 -0.2600  0.1324 -0.1358
 7588TIP3    H122728   0.795   4.168   3.166  3.3577  1.1073  1.2365
 7588TIP3    H222729   0.772   4.248   3.293 -1.7467 -0.2649  1.3982
 7589TIP3   OH222730   5.906   1.426   1.350 -0.4023 -0.0045  0.1011
 7589TIP3    H122731   5.826   1.472   1.326 -0.0255  0.0561 -1.1107
 7589TIP3    H222732   5.930   1.377   1.272  0.1759 -0.8577  0.7888
 7590TIP3   OH222733   7.137   5.617   1.949  0.4101 -0.0694  0.1238
 7590TIP3    H122734   7.098   5.632   1.863 -0.6173 -0.5805  0.4749
 7590TIP3    H222735   7.231   5.629   1.936  0.7455 -3.5852 -1.9072
 7591TIP3   OH222736   4.080   1.910   1.105  0.1697 -0.1913 -0.3344
 7591TIP3    H122737   4.033   1.906   1.189  1.3263 -0.8671  0.3093
 7591TIP3    H222738   4.079   2.003   1.082 -0.6690 -0.0731  0.1178
 7592TIP3   OH222739   1.692   1.534   1.817  0.3425  0.2581  0.1821
 7592TIP3    H122740   1.605   1.542   1.857  0.8215 -1.0909  1.5783
 7592TIP3    H222741   1.695   1.445   1.783  1.0337  0.4388 -0.2496
 7593TIP3   OH222742   7.131   5.745   3.111 -0.7197  0.6476 -0.4280
 7593TIP3    H122743   7.170   5.833   3.111 -1.3885  0.9562 -1.0558
 7593TIP3    H222744   7.056   5.752   3.170 -1.8463  1.0130 -1.8547
 7594TIP3   OH222745   5.735   6.286   0.191  0.5304  0.1452  0.0919
 7594TIP3    H122746   5.760   6.353   0.127  1.8907 -0.1988  0.2384
 7594TIP3    H222747   5.794   6.301   0.265  0.2179 -0.6389  0.5053
 7595TIP3   OH222748   5.670   0.653   1.246  0.4429  0.1547  0.6827
 7595TIP3    H122749   5.638   0.569   1.278  2.7259 -0.5943  1.2023
 7595TIP3    H222750   5.701   0.698   1.325 -0.0232  1.1661  0.3114
 7596TIP3   OH222751   5.612   1.874   1.066 -0.2135  0.2556  0.0002
 7596TIP3    H122752   5.683   1.857   1.127 -0.6281 -0.3812  0.3237
 7596TIP3    H222753   5.644   1.944   1.009  0.6971 -0.0794  0.0938
 7597TIP3   OH222754   0.723   1.215   1.492  0.2742  0.1276  0.1321
 7597TIP3    H122755   0.817   1.216   1.476 -0.0583 -0.0588 -2.2257
 7597TIP3    H222756   0.694   1.128   1.465 -0.6796  0.4367  0.1040
 7598TIP3   OH222757   1.738   2.882   2.615 -0.4782 -0.4436  0.6918
 7598TIP3    H122758   1.796   2.867   2.540  0.1334  0.4564  0.9732
 7598TIP3    H222759   1.651   2.894   2.575 -0.1139  0.3044  0.1007
 7599TIP3   OH222760   4.920   2.820   3.120 -0.0935 -0.2232 -0.2937
 7599TIP3    H122761   5.004   2.804   3.163  0.0941  0.9582 -0.1841
 7599TIP3    H222762   4.940   2.822   3.027 -0.2564 -1.3610 -0.3640
 7600TIP3   OH222763   1.912   6.660   1.983 -0.2513  0.4217 -0.2890
 7600TIP3    H122764   1.844   6.713   1.942 -1.0691 -1.0345 -0.9044
 7600TIP3    H222765   1.946   6.605   1.912 -1.0601 -1.5054  0.7318
 7601TIP3   OH222766   2.202   2.072   0.845 -0.3493  0.3165 -0.5358
 7601TIP3    H122767   2.252   2.004   0.890  0.4881  0.9173 -0.5367
 7601TIP3    H222768   2.263   2.145   0.836 -1.2431  1.0902 -0.5028
 7602TIP3   OH222769   1.562   2.282   0.691  0.3907  0.1437  0.5454
 7602TIP3    H122770   1.504   2.325   0.628  1.3074  0.4074 -0.1565
 7602TIP3    H222771   1.551   2.188   0.675 -0.2360  0.1755  0.7913
 7603TIP3   OH222772   2.222   5.172   1.227 -0.3102  0.8174 -0.1249
 7603TIP3    H122773   2.287   5.118   1.271 -0.1386 -0.2553 -1.6056
 7603TIP3    H222774   2.139   5.149   1.267 -0.3054 -0.9561 -1.0388
 7604TIP3   OH222775   6.113   6.576   2.571  0.2245 -0.6343  0.0196
 7604TIP3    H122776   6.196   6.621   2.587 -0.4986  0.9372 -0.4490
 7604TIP3    H222777   6.085   6.546   2.658 -0.2160  1.6008  0.7082
 7605TIP3   OH222778   4.328   4.686   1.925  0.1388  0.2245  0.0407
 7605TIP3    H122779   4.396   4.741   1.888 -0.2014 -0.0373 -1.0220
 7605TIP3    H222780   4.365   4.651   2.006  0.5913  1.4852  0.3917
 7606TIP3   OH222781   1.572   2.416   0.085  0.2651  0.2749  0.3993
 7606TIP3    H122782   1.499   2.358   0.067  1.4684 -1.6579  1.3659
 7606TIP3    H222783   1.586   2.464   0.003 -1.3944 -0.0755 -0.1163
 7607TIP3   OH222784   6.046   3.379   2.108 -0.1375  0.0381 -0.0725
 7607TIP3    H122785   6.101   3.430   2.169  0.3822  0.6794 -1.0432
 7607TIP3    H222786   6.025   3.299   2.156  1.3627 -0.0695  0.4781
 7608TIP3   OH222787   3.483   1.894   3.274  0.3650  0.3361 -0.0518
 7608TIP3    H122788   3.572   1.876   3.301  0.2796 -0.4687 -0.2892
 7608TIP3    H222789   3.464   1.981   3.310  2.1502  1.7349 -2.2453
 7609TIP3   OH222790   2.358   3.952   5.705  0.2086  0.0865  0.1650
 7609TIP3    H122791   2.284   3.943   5.646  1.1637  1.2171 -1.2936
 7609TIP3    H222792   2.391   4.040   5.688  1.1087  0.0829  1.7175
 7610TIP3   OH222793   0.004   0.789   3.289  0.3161  0.3964 -0.2383
 7610TIP3    H122794   0.066   0.757   3.224  0.5525  1.9111 -0.7887
 7610TIP3    H222795   0.037   0.754   3.372  1.4303  0.5004 -0.6203
 7611TIP3   OH222796   5.406   0.311   5.871 -0.9496  0.7131 -0.0090
 7611TIP3    H122797   5.337   0.274   5.815  0.4394 -1.8383 -0.1748
 7611TIP3    H222798   5.396   0.266   5.954 -0.0297  0.9801  0.2535
 7612TIP3   OH222799   2.531   4.740   2.747 -0.1767 -0.1382  0.4610
 7612TIP3    H122800   2.481   4.661   2.732 -2.0307 -0.0227  4.6230
 7612TIP3    H222801   2.594   4.716   2.816  1.6478  1.2052 -0.6270
 7613TIP3   OH222802   6.887   1.652   3.321  0.4437 -0.5289  0.3091
 7613TIP3    H122803   6.794   1.632   3.329  0.6369 -0.8305  2.6055
 7613TIP3    H222804   6.893   1.747   3.329  0.2581 -0.3952 -1.0329
 7614TIP3   OH222805   5.279   5.632   2.239  0.0346 -0.8343 -0.4449
 7614TIP3    H122806   5.361   5.583   2.235  1.2512  1.1180 -0.9272
 7614TIP3    H222807   5.222   5.579   2.295  1.7936 -1.9948  0.3446
 7615TIP3   OH222808   5.339   1.745   1.937 -0.6312 -0.2924  0.2948
 7615TIP3    H122809   5.305   1.810   1.876 -0.8060 -1.2379 -0.6546
 7615TIP3    H222810   5.309   1.661   1.901  0.0267 -0.9286  1.1908
 7616TIP3   OH222811   6.154   3.664   0.421 -0.1772 -0.0028  0.3886
 7616TIP3    H122812   6.121   3.684   0.334 -0.7886  0.9223  0.8209
 7616TIP3    H222813   6.140   3.744   0.472  1.5479 -0.0122  0.9520
 7617TIP3   OH222814   0.681   3.183   0.089 -0.0862 -0.0906 -0.0236
 7617TIP3    H122815   0.709   3.105   0.136 -1.9485 -1.7771 -1.5315
 7617TIP3    H222816   0.605   3.215   0.137 -0.1034  0.0501 -0.1409
 7618TIP3   OH222817   4.851   6.606   2.938  0.0973 -0.2363  0.4062
 7618TIP3    H122818   4.915   6.610   3.009 -0.4897 -0.2992  0.9465
 7618TIP3    H222819   4.861   6.518   2.901  0.4566 -0.1762  0.3577
 7619TIP3   OH222820   5.596   1.288   0.798 -0.4361 -0.1379 -0.1962
 7619TIP3    H122821   5.577   1.234   0.721 -0.0343  1.8428 -1.7727
 7619TIP3    H222822   5.664   1.349   0.768 -0.2753  0.7063  1.7333
 7620TIP3   OH222823   0.780   6.686   3.574  0.4390 -0.4691 -0.3104
 7620TIP3    H122824   0.863   6.705   3.617  0.2319  0.1807 -0.1838
 7620TIP3    H222825   0.777   6.591   3.569  0.7688 -0.5331  0.5246
 7621TIP3   OH222826   0.043   0.371   5.732  0.3857  1.0637 -0.0041
 7621TIP3    H122827   0.114   0.371   5.667  2.0483  1.0210  1.7245
 7621TIP3    H222828  -0.022   0.432   5.696  1.1141  0.8485 -1.8112
 7622TIP3   OH222829   3.154   0.386   5.480  0.4478 -0.3187  0.5160
 7622TIP3    H122830   3.119   0.326   5.546  1.3292 -2.7180 -1.0733
 7622TIP3    H222831   3.247   0.364   5.475  1.4193  2.9125  1.5439
 7623TIP3   OH222832   1.760   6.034   0.049  0.0429 -0.3750  0.3522
 7623TIP3    H122833   1.701   6.097   0.009 -0.7462 -0.7643  0.8651
 7623TIP3    H222834   1.839   6.084   0.071  0.1691  0.0100 -0.9359
 7624TIP3   OH222835   1.671   3.190   4.423  0.4302 -0.8446  0.1746
 7624TIP3    H122836   1.691   3.112   4.475 -3.2095 -0.3666  2.6696
 7624TIP3    H222837   1.647   3.156   4.337  1.3512 -2.1763  0.4060
 7625TIP3   OH222838   5.322   1.782   0.956 -0.2235 -0.0486 -0.7254
 7625TIP3    H122839   5.408   1.743   0.939  0.2683  1.3013 -1.6042
 7625TIP3    H222840   5.274   1.715   1.003  1.5735 -0.5678  0.4827
 7626TIP3   OH222841   5.213   3.367   1.168  0.3113  0.4374  0.1264
 7626TIP3    H122842   5.130   3.387   1.212 -0.5357 -0.0449 -1.1752
 7626TIP3    H222843   5.206   3.413   1.084  0.1258 -1.8339 -1.1716
 7627TIP3   OH222844   4.848   2.003   2.621  0.0224 -0.1526 -0.3811
 7627TIP3    H122845   4.863   2.068   2.552 -2.3165  0.3559 -0.5037
 7627TIP3    H222846   4.892   2.039   2.698 -0.2623  1.0099 -0.7439
 7628TIP3   OH222847   1.388   2.792   5.438  0.1343  0.2649  0.2528
 7628TIP3    H122848   1.426   2.879   5.448 -1.5785  1.1127 -0.1617
 7628TIP3    H222849   1.353   2.772   5.525  2.2675 -0.9290  0.8916
 7629TIP3   OH222850   4.900   2.918   4.217 -0.2598 -0.0005 -0.4747
 7629TIP3    H122851   4.987   2.954   4.237 -0.0260 -1.4664  1.4111
 7629TIP3    H222852   4.887   2.938   4.125  1.7620  0.9327 -0.6128
 7630TIP3   OH222853   5.562   5.980   3.944 -0.0391  0.0280  0.0762
 7630TIP3    H122854   5.591   5.908   4.001  0.0919 -0.0870 -0.1339
 7630TIP3    H222855   5.602   5.961   3.859 -0.5129  0.0136 -0.1483
 7631TIP3   OH222856   3.755   0.728   5.099 -0.4987  0.8987  0.3022
 7631TIP3    H122857   3.821   0.670   5.138  0.7969  2.4160  0.4616
 7631TIP3    H222858   3.673   0.679   5.105  0.5873 -1.0517  0.1265
 7632TIP3   OH222859   3.358   2.832   2.247 -0.1239  0.1391  0.2820
 7632TIP3    H122860   3.264   2.812   2.242  0.0401 -0.5048 -0.3489
 7632TIP3    H222861   3.401   2.750   2.225  0.6449 -0.3225  3.1025
 7633TIP3   OH222862   3.443   5.015   3.741  0.4319  0.0751  0.2391
 7633TIP3    H122863   3.405   4.927   3.729 -1.8307  1.0920 -0.7013
 7633TIP3    H222864   3.445   5.052   3.653  1.5340  0.9126  0.6030
 7634TIP3   OH222865   4.094   2.747   5.446  0.4927 -0.3316  0.0302
 7634TIP3    H122866   4.164   2.702   5.494  0.2520  0.4505  1.1652
 7634TIP3    H222867   4.030   2.770   5.514 -1.7123 -2.4567 -1.1722
 7635TIP3   OH222868   4.102   0.395   0.280 -0.2657  0.6323 -0.5045
 7635TIP3    H122869   4.150   0.327   0.232  1.0109  1.6113 -0.6685
 7635TIP3    H222870   4.048   0.437   0.214  0.7121  1.2933 -0.9128
 7636TIP3   OH222871  -0.024   1.810   1.428  0.0283 -0.5239  0.0697
 7636TIP3    H122872   0.038   1.750   1.386  1.0256  1.3620 -1.3025
 7636TIP3    H222873   0.031   1.867   1.481 -0.7667 -0.0771  0.4277
 7637TIP3   OH222874   0.889   6.796   0.420  0.3748 -0.1477  0.6357
 7637TIP3    H122875   0.862   6.708   0.444 -0.8200  0.0866  0.2297
 7637TIP3    H222876   0.943   6.784   0.342  0.3835 -0.5388  0.7006
 7638TIP3   OH222877   1.104   1.363   0.616  0.2850 -0.0140  0.2601
 7638TIP3    H122878   1.047   1.318   0.679  0.3879  1.4744  1.4774
 7638TIP3    H222879   1.187   1.317   0.621 -0.3618 -1.3307 -0.5035
 7639TIP3   OH222880   5.369   5.782   1.606 -0.0198 -0.1028  0.0994
 7639TIP3    H122881   5.366   5.744   1.693 -0.6467  1.4301  0.7832
 7639TIP3    H222882   5.460   5.810   1.595 -0.2583  0.9933  0.8541
 7640TIP3   OH222883   1.444   0.720   4.688 -0.2130  0.2145  0.4121
 7640TIP3    H122884   1.424   0.642   4.740 -0.6068 -0.0044 -0.0609
 7640TIP3    H222885   1.409   0.700   4.601 -0.1320  0.8392  0.2342
 7641TIP3   OH222886   2.395   4.292   4.631  0.1637  0.5114  0.2021
 7641TIP3    H122887   2.437   4.243   4.702  0.0171  0.9675  0.6155
 7641TIP3    H222888   2.454   4.366   4.616  0.1490  0.4625 -0.0986
 7642TIP3   OH222889   6.324   4.186   3.569 -0.6304  0.8068 -0.0505
 7642TIP3    H122890   6.379   4.243   3.622 -0.3871  1.1998 -0.7131
 7642TIP3    H222891   6.271   4.138   3.633  0.5105  0.3703  0.6104
 7643TIP3   OH222892   7.053   6.656   5.269 -0.1022  0.1466  0.0099
 7643TIP3    H122893   7.086   6.589   5.210 -2.4192  1.1734 -2.6828
 7643TIP3    H222894   7.003   6.607   5.335  1.9472 -0.9647  0.8482
 7644TIP3   OH222895   1.432   5.871   5.630 -0.1517 -0.2100 -0.1176
 7644TIP3    H122896   1.503   5.827   5.676  1.3365  1.0591 -1.0571
 7644TIP3    H222897   1.407   5.943   5.687 -0.4931 -0.4906  0.0884
 7645TIP3   OH222898   2.773   2.320   2.930 -0.1604 -0.0900  0.1968
 7645TIP3    H122899   2.844   2.271   2.889 -0.1864 -0.2262  0.3129
 7645TIP3    H222900   2.709   2.254   2.954  0.6323 -0.2464  2.0734
 7646TIP3   OH222901   3.050   0.892   1.597  0.3604 -0.1451 -0.1192
 7646TIP3    H122902   3.031   0.912   1.688 -2.1536 -0.2781 -0.5494
 7646TIP3    H222903   3.045   0.977   1.552 -0.7120 -0.3697 -0.4564
 7647TIP3   OH222904   5.287   6.195   5.195 -0.1134 -0.0403  0.3206
 7647TIP3    H122905   5.290   6.236   5.109  0.4898 -1.8561 -0.5757
 7647TIP3    H222906   5.214   6.134   5.190 -0.7085  0.5357  1.4751
 7648TIP3   OH222907   4.123   5.871   4.733 -0.1385 -0.3378 -0.7543
 7648TIP3    H122908   4.068   5.909   4.665 -2.6376 -1.5601  0.4602
 7648TIP3    H222909   4.087   5.905   4.815  1.3607 -0.6780  0.0873
 7649TIP3   OH222910   3.201   3.234   1.595  0.0746  0.4440 -0.1395
 7649TIP3    H122911   3.162   3.171   1.656  1.0414  0.2484  0.2870
 7649TIP3    H222912   3.151   3.314   1.610 -0.4738  0.0765  0.0623
 7650TIP3   OH222913   6.118   0.172   2.846 -0.0291  0.5067  0.1324
 7650TIP3    H122914   6.190   0.126   2.803  0.7175  0.9125  0.9135
 7650TIP3    H222915   6.064   0.103   2.884  0.4937  0.2343  0.3849
 7651TIP3   OH222916   2.067   2.561   0.659 -0.1839  0.6643 -0.5002
 7651TIP3    H122917   2.035   2.536   0.746 -0.1191  0.4181 -0.5467
 7651TIP3    H222918   2.012   2.635   0.634  0.4437  1.3636  0.1665
 7652TIP3   OH222919   5.038   6.230   4.930  0.1276 -0.7326  0.2403
 7652TIP3    H122920   4.994   6.268   4.854 -0.0107  0.3802  0.8445
 7652TIP3    H222921   5.062   6.142   4.903 -1.0602 -0.8092 -0.6503
 7653TIP3   OH222922   3.031   3.954   3.415 -0.0447 -0.1003 -0.4457
 7653TIP3    H122923   2.986   3.921   3.493  0.7789 -1.0226 -0.3477
 7653TIP3    H222924   3.053   4.044   3.437 -0.5377 -0.0971  0.0743
 7654TIP3   OH222925   3.534   2.451   2.327  0.0153 -0.6244  0.0297
 7654TIP3    H122926   3.502   2.450   2.417 -0.1103 -0.8350 -0.0166
 7654TIP3    H222927   3.614   2.399   2.329 -0.2752 -1.0824 -0.0843
 7655TIP3   OH222928   1.120   1.103   3.687 -0.0954  0.0684  0.2261
 7655TIP3    H122929   1.131   1.116   3.593  0.0907  1.5829  0.4264
 7655TIP3    H222930   1.143   1.188   3.725  2.8344 -1.3215  1.8950
 7656TIP3   OH222931   5.517   4.249   0.711  0.3296  0.0422  0.7644
 7656TIP3    H122932   5.465   4.181   0.667 -1.0731  0.5853  1.5328
 7656TIP3    H222933   5.607   4.230   0.686 -0.4226  0.9863 -3.3121
 7657TIP3   OH222934   7.139   5.985   4.106 -0.1313  0.1567 -0.0397
 7657TIP3    H122935   7.136   6.019   4.196  0.3282 -0.7235  0.3189
 7657TIP3    H222936   7.090   5.903   4.109 -0.6596  0.4366 -0.7487
 7658TIP3   OH222937   3.049   4.002   5.055  0.2712 -0.0196  0.3310
 7658TIP3    H122938   3.140   4.010   5.086  0.5222 -0.4118 -0.2912
 7658TIP3    H222939   3.033   4.084   5.008  0.7978 -0.5231 -0.7852
 7659TIP3   OH222940   6.113   0.310   1.061  0.3402 -0.2062  0.5904
 7659TIP3    H122941   6.169   0.279   1.132  2.3091  2.3251  0.2871
 7659TIP3    H222942   6.080   0.395   1.091 -2.0006 -0.8563  0.0343
 7660TIP3   OH222943   1.302   4.424   0.332  0.4660 -0.2492 -0.3572
 7660TIP3    H122944   1.349   4.342   0.343  1.4718  0.6283  3.2778
 7660TIP3    H222945   1.369   4.492   0.340 -0.4356  0.9928 -2.6311
 7661TIP3   OH222946   4.628   4.407   0.995  0.6734 -0.4020 -0.0305
 7661TIP3    H122947   4.598   4.375   1.080  3.8817 -1.6069  0.7766
 7661TIP3    H222948   4.580   4.354   0.932 -0.2019 -0.9801  1.0755
 7662TIP3   OH222949   0.639   2.296   4.002 -0.6764  0.2745 -0.0623
 7662TIP3    H122950   0.705   2.229   4.018  1.1154  1.7604 -0.8906
 7662TIP3    H222951   0.580   2.291   4.077 -0.8850 -2.5025 -0.3386
 7663TIP3   OH222952   5.080   0.658   3.657 -0.1879  0.0564 -0.0387
 7663TIP3    H122953   5.131   0.591   3.703 -0.5078 -0.2795 -0.1704
 7663TIP3    H222954   5.088   0.634   3.565 -0.4372  0.1052 -0.0735
 7664TIP3   OH222955   6.548   3.238   3.704 -0.2068 -0.0266  1.0839
 7664TIP3    H122956   6.556   3.257   3.797  1.3284 -0.3995  1.0613
 7664TIP3    H222957   6.585   3.150   3.694 -0.8507 -0.2101  0.2064
 7665TIP3   OH222958   6.643   2.180   5.893 -0.1873  0.5292  0.1157
 7665TIP3    H122959   6.596   2.117   5.839  1.0340  1.8349 -2.6660
 7665TIP3    H222960   6.578   2.248   5.912 -0.2186  0.9245 -1.2846
 7666TIP3   OH222961   5.554   4.644   0.193  0.0210 -0.3048  0.2988
 7666TIP3    H122962   5.639   4.666   0.154  0.2348  0.6585  1.2557
 7666TIP3    H222963   5.542   4.709   0.262 -0.8457 -1.3024  1.1234
 7667TIP3   OH222964   3.574   3.739   4.503 -0.6445  0.8943  0.0900
 7667TIP3    H122965   3.513   3.707   4.437 -0.3333  0.6210 -0.0639
 7667TIP3    H222966   3.542   3.827   4.524 -1.6872  0.3754  0.7411
 7668TIP3   OH222967   5.754   4.922   4.276  0.2190 -0.3585 -0.1636
 7668TIP3    H122968   5.677   4.976   4.260 -0.2069 -0.7825  0.4358
 7668TIP3    H222969   5.810   4.975   4.332 -0.5029 -0.7886  0.9868
 7669TIP3   OH222970   1.088   0.653   0.152 -0.1792 -0.3286  0.2179
 7669TIP3    H122971   1.150   0.585   0.123  0.4502  0.5267 -0.4849
 7669TIP3    H222972   1.069   0.703   0.073 -2.2090 -0.8768  0.2909
 7670TIP3   OH222973   5.762   5.526   2.918  0.5750 -0.3732 -0.1819
 7670TIP3    H122974   5.843   5.483   2.895 -0.5196 -2.6923  0.0252
 7670TIP3    H222975   5.705   5.456   2.950 -1.8720  0.9632 -1.2588
 7671TIP3   OH222976   5.485   6.372   2.524 -0.0682  0.2523 -0.4575
 7671TIP3    H122977   5.403   6.382   2.476 -0.8336 -1.4689  0.4500
 7671TIP3    H222978   5.459   6.347   2.613  1.4326 -1.9740 -0.5700
 7672TIP3   OH222979   2.030   2.899   2.655 -0.1230  0.7337 -0.1204
 7672TIP3    H122980   2.068   2.821   2.697 -3.0556  0.0623  1.5536
 7672TIP3    H222981   2.081   2.909   2.574  1.4174 -1.9428  0.3746
 7673TIP3   OH222982   4.929   3.996   3.822  0.1257 -0.1067  0.3499
 7673TIP3    H122983   4.936   3.901   3.809  1.9181  0.1819 -1.2818
 7673TIP3    H222984   4.849   4.020   3.776 -0.3071 -0.8052  0.7128
 7674TIP3   OH222985   2.094   2.909   5.213  0.1661  0.2820  0.7725
 7674TIP3    H122986   2.165   2.923   5.275 -0.0608  2.9039  0.5403
 7674TIP3    H222987   2.120   2.958   5.135 -0.6163 -1.0720 -0.3865
 7675TIP3   OH222988   2.529   2.780   5.252 -0.2573 -0.6600  0.0437
 7675TIP3    H122989   2.488   2.694   5.243 -0.4218 -0.5269 -0.4819
 7675TIP3    H222990   2.456   2.841   5.260 -0.1397 -0.5700  0.4242
 7676TIP3   OH222991   2.787   4.197   3.338 -0.5904  0.2693  0.0005
 7676TIP3    H122992   2.773   4.116   3.387 -0.2307 -1.8583 -3.0881
 7676TIP3    H222993   2.830   4.169   3.258  0.1573  3.6700 -0.9474
 7677TIP3   OH222994   1.277   2.774   2.516  0.5022  0.2624 -0.2192
 7677TIP3    H122995   1.273   2.678   2.510  0.3459  0.1922  0.8066
 7677TIP3    H222996   1.224   2.795   2.593  2.0006  1.0177  0.6645
 7678TIP3   OH222997   1.640   4.814   0.571 -0.1702  0.7690  0.2887
 7678TIP3    H122998   1.597   4.802   0.486  0.0094  3.3129 -0.2472
 7678TIP3    H222999   1.689   4.734   0.584 -1.4167 -0.3252 -1.2831
 7679TIP3   OH223000   3.615   1.088   1.917 -0.3719 -0.0262 -0.0451
 7679TIP3    H123001   3.674   1.012   1.917 -0.4416 -0.1146 -1.6040
 7679TIP3    H223002   3.567   1.081   2.000 -1.4001 -2.5191 -0.7382
 7680TIP3   OH223003   3.358   1.077   4.573  0.5273 -0.1700  0.1004
 7680TIP3    H123004   3.281   1.134   4.577  1.6612  1.3313  2.0114
 7680TIP3    H223005   3.342   1.011   4.641  1.0924  0.4231  0.8301
 7681TIP3   OH223006   3.904   4.221   0.353  0.0445  0.1517 -0.0814
 7681TIP3    H123007   3.934   4.308   0.377  1.8008 -0.1098 -1.1568
 7681TIP3    H223008   3.943   4.205   0.267 -0.6858 -1.4798 -0.1438
 7682TIP3   OH223009   2.406   4.298   0.806  0.4010  0.0872  0.5132
 7682TIP3    H123010   2.429   4.339   0.889 -0.2676 -0.3847  0.9437
 7682TIP3    H223011   2.487   4.300   0.755  0.8549  0.2710  1.2237
 7683TIP3   OH223012   1.899   4.467   5.318 -0.6873 -0.1907  0.5885
 7683TIP3    H123013   1.845   4.443   5.393  0.2097  0.1766  1.3681
 7683TIP3    H223014   1.929   4.383   5.282 -2.6510 -0.4530 -0.5433
 7684TIP3   OH223015   3.233   2.322   5.175  0.2851 -0.6354  0.0797
 7684TIP3    H123016   3.288   2.294   5.248  0.9215  0.5919  0.0773
 7684TIP3    H223017   3.285   2.304   5.097  0.6315  0.3646  0.0686
 7685TIP3   OH223018   6.451   1.441   1.399 -0.2456 -0.0111  0.2586
 7685TIP3    H123019   6.519   1.457   1.465  0.6007  0.8885 -0.7867
 7685TIP3    H223020   6.372   1.479   1.436  0.0402 -0.2075  1.0885
 7686TIP3   OH223021   0.899   6.507   0.464 -0.1519 -1.1242  0.0232
 7686TIP3    H123022   0.895   6.411   0.470  0.1169 -1.0676  1.8523
 7686TIP3    H223023   0.861   6.537   0.547  0.8669  0.3203  0.0037
 7687TIP3   OH223024   0.281   0.718   3.780  0.7982  0.4758  0.3771
 7687TIP3    H123025   0.353   0.733   3.720  1.4846 -3.1671  0.0487
 7687TIP3    H223026   0.318   0.663   3.850 -1.1152  0.4586  1.4594
 7688TIP3   OH223027   1.390   2.079   5.491 -0.7043 -0.5089 -0.1534
 7688TIP3    H123028   1.362   2.008   5.434  1.3377 -1.1141 -0.4816
 7688TIP3    H223029   1.385   2.157   5.435 -0.8720 -0.7347 -0.4590
 7689TIP3   OH223030   2.474   3.085   0.349 -0.6549  0.1552  0.4418
 7689TIP3    H123031   2.451   3.170   0.386  0.9820  1.0332 -0.4724
 7689TIP3    H223032   2.509   3.105   0.262 -2.8298 -1.7053 -0.9820
 7690TIP3   OH223033   1.264   6.495   4.840  0.4834 -0.0715  0.2866
 7690TIP3    H123034   1.357   6.481   4.824  0.2840 -0.4544 -0.5505
 7690TIP3    H223035   1.244   6.577   4.795  0.4401  0.0938  0.5992
 7691TIP3   OH223036   5.461   0.236   1.188  0.2355  0.2516 -0.0739
 7691TIP3    H123037   5.528   0.272   1.130 -0.6310  0.6120 -0.8877
 7691TIP3    H223038   5.446   0.304   1.253  1.8425 -0.5076  1.1395
 7692TIP3   OH223039   2.921   3.037   4.210  0.3780  0.1186  0.2975
 7692TIP3    H123040   2.909   2.992   4.126  0.9991  2.9160 -1.4344
 7692TIP3    H223041   2.832   3.049   4.243 -0.0173  0.4651 -0.8459
 7693TIP3   OH223042   0.693   2.195   2.666 -0.4772 -0.2786  0.4240
 7693TIP3    H123043   0.758   2.260   2.693  0.7867 -0.4642 -1.9186
 7693TIP3    H223044   0.647   2.236   2.593 -2.4138 -0.5489  1.4032
 7694TIP3   OH223045   2.059   2.426   4.876  0.0202 -0.2627 -1.1874
 7694TIP3    H123046   2.153   2.428   4.897  0.3946  1.8785 -2.6690
 7694TIP3    H223047   2.051   2.361   4.807  0.9331  1.2434 -2.8118
 7695TIP3   OH223048   5.667   6.579   4.311 -0.7979 -0.4449  0.0606
 7695TIP3    H123049   5.642   6.549   4.224 -3.1738  1.6862 -0.1020
 7695TIP3    H223050   5.613   6.528   4.370  0.0408 -1.1281  0.2686
 7696TIP3   OH223051   2.733   1.197   1.777 -0.1549 -0.1229 -0.3158
 7696TIP3    H123052   2.801   1.255   1.742 -1.8827  0.4189 -3.0637
 7696TIP3    H223053   2.681   1.254   1.835  0.3516  0.0665 -0.0433
 7697TIP3   OH223054   3.127   0.363   3.869 -0.1414 -0.0300 -0.1704
 7697TIP3    H123055   3.147   0.432   3.933 -0.6197  0.3764 -0.4535
 7697TIP3    H223056   3.119   0.409   3.786 -1.2969 -0.3103 -0.2250
 7698TIP3   OH223057   0.873   3.675   2.074 -0.1801 -0.6319  0.1004
 7698TIP3    H123058   0.886   3.700   1.982 -1.1711  1.4822  0.4889
 7698TIP3    H223059   0.782   3.649   2.079 -0.5668  0.7584  0.7625
 7699TIP3   OH223060   7.022   5.515   3.390  0.1368  0.3347  0.1058
 7699TIP3    H123061   6.972   5.593   3.368  0.0864  0.5490  0.9212
 7699TIP3    H223062   7.106   5.548   3.421  0.1758  0.0602  0.2985
 7700TIP3   OH223063   0.159   5.789   2.319  0.0389  0.0797 -0.2513
 7700TIP3    H123064   0.238   5.785   2.265 -0.5431  1.6802 -1.2921
 7700TIP3    H223065   0.090   5.817   2.259 -0.5656  2.3632  1.3636
 7701TIP3   OH223066   4.316   0.296   1.419  0.5045  0.2165 -0.1578
 7701TIP3    H123067   4.259   0.250   1.481  2.8446 -0.0580  1.9444
 7701TIP3    H223068   4.300   0.389   1.435 -1.0223  0.1928 -1.3001
 7702TIP3   OH223069   2.737   2.687   0.232  0.6311  0.1673  0.7177
 7702TIP3    H123070   2.742   2.712   0.140  0.2065 -1.0293  0.3517
 7702TIP3    H223071   2.751   2.769   0.280 -0.5894  1.0757 -0.4173
 7703TIP3   OH223072   2.762   3.320   0.116 -0.4079 -0.2235  0.0606
 7703TIP3    H123073   2.690   3.260   0.098  1.3385 -1.8575 -2.0127
 7703TIP3    H223074   2.814   3.276   0.182  1.8420 -2.0465 -2.7142
 7704TIP3   OH223075   6.185   2.986   1.982  0.3449 -0.0096 -0.0323
 7704TIP3    H123076   6.113   2.957   2.038 -0.2632 -0.5240 -1.0428
 7704TIP3    H223077   6.146   3.052   1.925 -0.2031 -2.3171 -2.5940
 7705TIP3   OH223078   3.531   0.756   3.302  0.4923 -0.6826  0.4428
 7705TIP3    H123079   3.519   0.753   3.397  1.7363  0.4175  0.6540
 7705TIP3    H223080   3.619   0.791   3.289 -0.7974  2.3611 -1.1509
 7706TIP3   OH223081   4.671   3.445   0.000  0.1487  0.2324 -0.1197
 7706TIP3    H123082   4.723   3.447   0.081  1.1395 -1.5552 -0.6610
 7706TIP3    H223083   4.618   3.366   0.008 -1.3649  1.1775 -0.3078
 7707TIP3   OH223084   3.063   4.440   5.921 -0.2356 -0.2826  0.4922
 7707TIP3    H123085   2.999   4.393   5.868  0.1766  0.4132 -0.6414
 7707TIP3    H223086   3.121   4.483   5.858 -0.1818  1.1934  1.4898
 7708TIP3   OH223087   2.919   2.565   2.144  0.2480  0.0742  0.0661
 7708TIP3    H123088   2.853   2.498   2.129  0.5867 -0.4126  0.6950
 7708TIP3    H223089   2.977   2.527   2.210  1.2520  0.4295 -0.5864
 7709TIP3   OH223090   0.789   6.128   4.513 -0.1145 -0.0154  0.0201
 7709TIP3    H123091   0.814   6.092   4.598  0.1758  0.0643 -0.0273
 7709TIP3    H223092   0.800   6.223   4.523  4.0202 -0.1476 -1.2977
 7710TIP3   OH223093   2.574   5.663   4.441 -0.0935 -0.1133 -0.4106
 7710TIP3    H123094   2.662   5.627   4.456 -0.0314 -0.1166 -0.7812
 7710TIP3    H223095   2.516   5.587   4.446 -0.2831  0.0983  1.4904
 7711TIP3   OH223096   2.440   0.502   5.807  0.1787  0.1707 -0.1652
 7711TIP3    H123097   2.422   0.535   5.719  0.5370  0.7022 -0.0430
 7711TIP3    H223098   2.361   0.453   5.831 -0.5537  1.3184 -0.1670
 7712TIP3   OH223099   4.601   0.331   2.422 -0.1004 -0.7127 -0.8744
 7712TIP3    H123100   4.667   0.288   2.367  0.9603 -0.5885  0.2532
 7712TIP3    H223101   4.546   0.379   2.361  1.0855 -0.5134 -1.8189
 7713TIP3   OH223102   1.840   2.254   5.675 -0.5063  0.0679  0.1451
 7713TIP3    H123103   1.798   2.308   5.609 -0.7503  0.8840  0.9455
 7713TIP3    H223104   1.929   2.241   5.642 -0.1426  1.7479  0.3441
 7714TIP3   OH223105   4.500   4.237   1.869  0.0789  0.0429 -0.0098
 7714TIP3    H123106   4.586   4.257   1.907 -0.5924  1.6576  0.7653
 7714TIP3    H223107   4.518   4.221   1.776  1.2365  0.2309  0.1688
 7715TIP3   OH223108   3.153   5.823   5.546 -0.0015  0.3730 -0.0350
 7715TIP3    H123109   3.211   5.830   5.622  0.1924  0.9966 -0.2313
 7715TIP3    H223110   3.149   5.912   5.512 -0.2960  0.1424 -0.6050
 7716TIP3   OH223111   3.863   2.534   0.915  0.1650 -0.0883  0.0470
 7716TIP3    H123112   3.844   2.473   0.843 -1.5114  1.6302 -1.0597
 7716TIP3    H223113   3.826   2.492   0.992  0.5099 -1.2119 -0.3719
 7717TIP3   OH223114   7.107   4.443   2.086  0.1519 -0.4432  0.7580
 7717TIP3    H123115   7.172   4.488   2.141 -0.0597 -0.2672  0.8690
 7717TIP3    H223116   7.039   4.509   2.072  0.3455 -0.3933  0.0326
 7718TIP3   OH223117   6.422   3.770   3.933 -0.2849 -0.0313  0.0257
 7718TIP3    H123118   6.412   3.684   3.893 -0.0862 -0.2087  0.3553
 7718TIP3    H223119   6.496   3.760   3.993  0.2917  0.6031 -0.5671
 7719TIP3   OH223120   4.607   0.190   4.557 -0.4716 -0.1051  0.2608
 7719TIP3    H123121   4.619   0.182   4.651  2.7607  1.5919  0.1347
 7719TIP3    H223122   4.587   0.101   4.527  0.2232 -0.9964  2.3337
 7720TIP3   OH223123   2.904   3.970   2.730  0.2082 -0.7726  0.0455
 7720TIP3    H123124   2.881   3.948   2.821 -2.4436  0.4526 -0.2421
 7720TIP3    H223125   3.000   3.971   2.730  0.4404  2.7191  3.7472
 7721TIP3   OH223126   0.064   5.356   1.591 -0.2437 -0.0710 -0.1052
 7721TIP3    H123127   0.030   5.300   1.661  0.5398 -0.0988  0.2642
 7721TIP3    H223128   0.155   5.371   1.614 -0.2332  0.7252 -0.6137
 7722TIP3   OH223129   2.266   1.349   3.841  0.2944 -0.1965 -0.0858
 7722TIP3    H123130   2.319   1.282   3.884  0.4298 -0.1747 -0.2203
 7722TIP3    H223131   2.223   1.395   3.913 -1.8513 -2.0946 -0.0413
 7723TIP3   OH223132   3.434   4.072   1.597  1.1487  0.0469  0.4170
 7723TIP3    H123133   3.353   4.075   1.546  0.0362 -0.2036  2.0656
 7723TIP3    H223134   3.492   4.134   1.554 -0.5693  1.5893  0.1896
 7724TIP3   OH223135   0.331   0.565   2.289  0.4077  0.2240 -0.0586
 7724TIP3    H123136   0.289   0.651   2.287 -1.3974 -0.5737  1.1797
 7724TIP3    H223137   0.394   0.570   2.361  0.2577  0.4940  0.0544
 7725TIP3   OH223138   1.888   4.230   0.158 -0.6578 -0.1726 -0.0865
 7725TIP3    H123139   1.918   4.151   0.203 -1.1837 -0.3568 -0.0478
 7725TIP3    H223140   1.936   4.231   0.076 -1.0494 -0.8348 -0.3344
 7726TIP3   OH223141   6.476   0.831   2.566 -0.3310  0.2967 -0.0176
 7726TIP3    H123142   6.523   0.884   2.502 -1.3900 -0.0676 -1.1414
 7726TIP3    H223143   6.400   0.884   2.590  0.1820  0.5376  1.1707
 7727TIP3   OH223144   7.182   5.407   4.337  0.4128  0.2658 -0.4072
 7727TIP3    H123145   7.233   5.328   4.354  1.5648  0.7541 -1.4456
 7727TIP3    H223146   7.140   5.427   4.420  2.6952  0.3901  0.7957
 7728TIP3   OH223147   4.905   4.008   4.452 -0.6048 -0.1526 -0.0146
 7728TIP3    H123148   4.941   3.956   4.524  1.0049  0.6829 -0.1514
 7728TIP3    H223149   4.879   4.091   4.493 -0.0758  0.1645 -0.2997
 7729TIP3   OH223150   4.454   1.827   0.085  0.4960  0.3437 -0.7442
 7729TIP3    H123151   4.396   1.831   0.010 -0.9699  2.3815  0.4010
 7729TIP3    H223152   4.521   1.894   0.068 -0.0893  1.1163 -0.0740
 7730TIP3   OH223153   1.053   2.816   4.727  0.2197 -0.0484 -0.2653
 7730TIP3    H123154   1.045   2.805   4.821  1.0945  2.3751  0.1484
 7730TIP3    H223155   1.137   2.774   4.705 -0.1313 -0.8910 -0.0538
 7731TIP3   OH223156   5.411   2.799   5.352 -0.4406 -0.1052 -0.1791
 7731TIP3    H123157   5.485   2.861   5.349  0.5409 -1.2169  0.2384
 7731TIP3    H223158   5.433   2.733   5.287 -0.5742 -0.9836  0.6535
 7732TIP3   OH223159   1.673   5.619   3.659 -0.3018  0.3506 -0.3173
 7732TIP3    H123160   1.755   5.572   3.642 -0.4546 -0.4067  0.8944
 7732TIP3    H223161   1.699   5.693   3.713 -0.3472  0.3875 -0.3462
 7733TIP3   OH223162   4.546   2.236   5.193 -0.0555 -0.3563 -0.2812
 7733TIP3    H123163   4.475   2.204   5.248 -1.7895  1.5597 -1.2790
 7733TIP3    H223164   4.546   2.178   5.117 -0.8061 -0.1490 -0.4438
 7734TIP3   OH223165   5.912   3.696   5.181 -0.1530  0.1189 -0.0527
 7734TIP3    H123166   5.864   3.744   5.248  1.6143  0.9360  0.6730
 7734TIP3    H223167   5.958   3.627   5.229  1.5250  1.0142 -0.3126
 7735TIP3   OH223168   5.025   3.097   2.722 -0.0048  0.0002  0.3465
 7735TIP3    H123169   5.108   3.145   2.717  0.8856 -1.2929  1.7722
 7735TIP3    H223170   4.959   3.165   2.737  0.3158  1.3868 -3.4222
 7736TIP3   OH223171   0.465   3.968   0.271 -0.2160  0.2581  0.4999
 7736TIP3    H123172   0.544   4.005   0.232 -0.9862  2.1315  0.6457
 7736TIP3    H223173   0.465   4.001   0.361  0.9334 -3.0665  1.9166
 7737TIP3   OH223174   3.245   0.803   3.494  0.1537 -0.1244  0.9185
 7737TIP3    H123175   3.231   0.789   3.400 -1.4566 -0.9532  1.2406
 7737TIP3    H223176   3.157   0.809   3.531  0.7604  1.1346  2.2631
 7738TIP3   OH223177   2.963   2.053   0.251 -0.3811  0.0888 -0.2253
 7738TIP3    H123178   2.993   2.063   0.341 -0.0145 -0.0878 -0.3292
 7738TIP3    H223179   2.923   2.138   0.230 -1.3247 -0.1790  0.4173
 7739TIP3   OH223180   3.381   4.258   4.440  0.1943 -0.1842  0.0484
 7739TIP3    H123181   3.436   4.334   4.423  1.0424 -0.8819 -0.3721
 7739TIP3    H223182   3.311   4.264   4.375  0.1899  0.2941  0.0929
 7740TIP3   OH223183   2.974   2.747   5.236 -0.0999 -0.1152  0.0344
 7740TIP3    H123184   2.903   2.713   5.181 -0.1892  1.7986 -1.1275
 7740TIP3    H223185   3.041   2.679   5.234 -1.0078 -1.0216 -0.6468
 7741TIP3   OH223186   1.949   1.751   3.671  0.6945  0.3905 -0.4901
 7741TIP3    H123187   1.950   1.683   3.738  0.0356  1.1337  0.3018
 7741TIP3    H223188   1.986   1.709   3.593  0.2130 -0.8875 -0.0478
 7742TIP3   OH223189   6.919   4.450   5.483  0.1949  0.0745 -0.0828
 7742TIP3    H123190   6.855   4.388   5.517  0.3168  0.7908  1.5235
 7742TIP3    H223191   6.873   4.534   5.482  0.4364  0.2107 -1.0195
 7743TIP3   OH223192   2.498   2.467   3.726  0.2770  0.3185  0.1340
 7743TIP3    H123193   2.532   2.414   3.798  0.9050  0.7766  0.1844
 7743TIP3    H223194   2.539   2.553   3.738 -1.8900  1.3080  0.9531
 7744TIP3   OH223195   6.050   1.974   2.700 -0.0468 -0.0115  0.1190
 7744TIP3    H123196   6.101   1.942   2.774 -1.0798 -2.0083  0.0380
 7744TIP3    H223197   6.092   1.935   2.624 -0.2658  0.2776 -0.1484
 7745TIP3   OH223198   2.643   4.843   5.757  0.7354  0.2420  0.3171
 7745TIP3    H123199   2.589   4.789   5.814  0.5751 -0.2298 -0.2732
 7745TIP3    H223200   2.732   4.807   5.767  0.4688 -0.8198 -0.8441
 7746TIP3   OH223201   3.519   1.740   2.995 -0.3583 -0.4842 -0.4158
 7746TIP3    H123202   3.518   1.646   2.980 -0.2291 -0.6135  0.3802
 7746TIP3    H223203   3.449   1.774   2.939  0.7824 -0.8128 -2.1434
 7747TIP3   OH223204   5.879   2.828   0.353  0.0010 -0.1002 -0.2289
 7747TIP3    H123205   5.797   2.780   0.365  0.4238 -0.9263 -0.5758
 7747TIP3    H223206   5.862   2.914   0.392 -0.3046 -0.9895  1.7266
 7748TIP3   OH223207   7.006   6.729   3.211 -0.3886 -0.1427  0.0677
 7748TIP3    H123208   7.095   6.740   3.246 -0.4621 -0.0623  0.2305
 7748TIP3    H223209   6.979   6.818   3.187 -0.4944 -0.1436  0.1859
 7749TIP3   OH223210   1.862   4.795   5.791  0.2550  0.6167  0.6164
 7749TIP3    H123211   1.910   4.867   5.832 -0.5404  0.7730  1.2989
 7749TIP3    H223212   1.853   4.822   5.699  1.3753  0.6210  0.4921
 7750TIP3   OH223213   3.078   6.367   4.642 -0.0701 -0.5151  0.1972
 7750TIP3    H123214   3.110   6.345   4.730  1.0059  0.9623  0.2127
 7750TIP3    H223215   3.038   6.453   4.652  0.9806  0.1402 -0.9287
 7751TIP3   OH223216   3.248   3.292   4.329 -0.0638 -0.4947 -0.2877
 7751TIP3    H123217   3.256   3.231   4.256 -3.3067 -0.6382 -0.6769
 7751TIP3    H223218   3.202   3.242   4.397  0.6489  0.3882  0.8736
 7752TIP3   OH223219   1.681   6.285   4.897  0.2242  0.5526 -0.5955
 7752TIP3    H123220   1.709   6.220   4.961 -2.3720 -0.6601 -0.6097
 7752TIP3    H223221   1.753   6.287   4.833  1.1742 -0.9470  0.3508
 7753TIP3   OH223222   0.367   4.852   1.076  0.0828 -0.4282  0.1087
 7753TIP3    H123223   0.455   4.827   1.104  0.3781 -0.8760 -1.1425
 7753TIP3    H223224   0.355   4.808   0.992 -0.2478  1.7959 -1.1083
 7754TIP3   OH223225   3.010   2.454   2.367  0.2526 -0.0883  0.2612
 7754TIP3    H123226   2.978   2.365   2.379 -0.5959  0.2806  0.8180
 7754TIP3    H223227   3.082   2.446   2.304 -0.7545 -0.9695 -0.7936
 7755TIP3   OH223228   6.896   6.797   3.693 -0.0462 -0.5217 -0.0819
 7755TIP3    H123229   6.908   6.749   3.776  0.9208 -2.5697 -1.3270
 7755TIP3    H223230   6.802   6.812   3.688 -0.4059 -2.3263  0.4070
 7756TIP3   OH223231   3.774   4.245   2.058  0.1145 -0.5066  0.5192
 7756TIP3    H123232   3.798   4.330   2.021  0.2010 -0.6433  0.2592
 7756TIP3    H223233   3.832   4.234   2.133  2.4705 -1.8396 -1.3866
 7757TIP3   OH223234   3.211   5.425   2.305 -0.1637  0.0043  0.3968
 7757TIP3    H123235   3.167   5.504   2.333 -1.7035 -0.8860  0.5834
 7757TIP3    H223236   3.155   5.387   2.238  0.9556 -0.5145 -0.2875
 7758TIP3   OH223237   7.041   3.486   2.439 -0.5373  0.2272  0.2183
 7758TIP3    H123238   7.088   3.414   2.397 -0.6365 -0.0173  0.5236
 7758TIP3    H223239   6.960   3.447   2.471  0.3089 -0.0071  2.1970
 7759TIP3   OH223240   5.843   1.830   1.232  0.5358  0.0398  0.0262
 7759TIP3    H123241   5.931   1.803   1.205  0.0929 -0.7554 -0.6744
 7759TIP3    H223242   5.831   1.787   1.317  0.6049 -0.3201 -0.1451
 7760TIP3   OH223243   4.471   3.757   1.747 -0.0203 -0.0760 -0.6131
 7760TIP3    H123244   4.536   3.686   1.747  2.3353  1.9597  0.2489
 7760TIP3    H223245   4.508   3.824   1.804 -3.5184  0.7439  0.9679
 7761TIP3   OH223246   0.260   6.712   0.285  0.2502 -0.0517 -0.6936
 7761TIP3    H123247   0.211   6.653   0.227  2.3640 -2.4647 -0.1618
 7761TIP3    H223248   0.335   6.740   0.232  1.1502 -0.7135  0.2099
 7762TIP3   OH223249   4.590   0.765   5.250 -0.1480 -0.1698  0.1724
 7762TIP3    H123250   4.550   0.709   5.184 -0.5451 -0.6826  0.8390
 7762TIP3    H223251   4.682   0.738   5.253 -0.8740 -2.8845  2.5260
 7763TIP3   OH223252   3.296   2.310   3.153  0.2911 -0.0573 -0.1021
 7763TIP3    H123253   3.305   2.238   3.090  1.3486 -0.6603  0.6881
 7763TIP3    H223254   3.275   2.386   3.100  1.1337 -0.5485 -1.1882
 7764TIP3   OH223255   5.733   2.430   1.558 -0.0898  0.0873 -0.1001
 7764TIP3    H123256   5.778   2.435   1.473  0.9479 -0.7556  0.3767
 7764TIP3    H223257   5.653   2.481   1.546  0.3826  0.5618 -1.3722
 7765TIP3   OH223258   1.970   3.792   2.230 -0.0291  0.3780 -0.3062
 7765TIP3    H123259   1.899   3.738   2.198 -0.6449  0.7188  0.4459
 7765TIP3    H223260   1.940   3.822   2.316  0.3258  1.8317 -0.6633
 7766TIP3   OH223261   1.105   6.069   3.711  0.6097 -0.1759 -0.2263
 7766TIP3    H123262   1.180   6.112   3.752 -1.1391 -0.1477  3.2612
 7766TIP3    H223263   1.040   6.138   3.699 -0.4235 -0.9124  0.8780
 7767TIP3   OH223264   6.713   5.943   4.911 -0.4801 -0.2496 -0.8302
 7767TIP3    H123265   6.663   5.881   4.964 -0.0490 -0.6601 -0.8941
 7767TIP3    H223266   6.649   5.979   4.849 -1.2502  1.1067  0.7064
 7768TIP3   OH223267   4.262   4.031   5.311 -0.1989 -0.1350  0.4229
 7768TIP3    H123268   4.170   4.033   5.338 -0.0071  1.5707  1.0307
 7768TIP3    H223269   4.311   4.033   5.393  0.3803  0.4131  0.0687
 7769TIP3   OH223270   2.562   4.451   2.106 -0.5892  0.0420  0.0364
 7769TIP3    H123271   2.558   4.356   2.109  0.6304 -0.0029  1.4369
 7769TIP3    H223272   2.557   4.472   2.012  2.4708 -1.6170 -0.6540
 7770TIP3   OH223273   6.112   4.344   0.902 -0.4295  0.0927  0.1701
 7770TIP3    H123274   6.076   4.334   0.990 -0.7822  0.3122  0.0544
 7770TIP3    H223275   6.170   4.420   0.909 -0.8975  0.4602  0.0786
 7771TIP3   OH223276   0.093   0.567   1.083  0.3631  0.0498  0.3996
 7771TIP3    H123277   0.158   0.557   1.153 -0.3499 -1.2639  0.9014
 7771TIP3    H223278   0.066   0.478   1.062  0.1788  0.4508 -1.2167
 7772TIP3   OH223279   1.063   4.954   1.840  0.5451  0.4512  0.1522
 7772TIP3    H123280   1.155   4.944   1.815  0.9788 -0.1861  1.8368
 7772TIP3    H223281   1.017   4.966   1.757  2.0173 -0.1798 -0.8091
 7773TIP3   OH223282   2.854   1.997   2.129  0.3739  0.0888 -0.3490
 7773TIP3    H123283   2.825   2.028   2.043  0.7633  0.4956 -0.3396
 7773TIP3    H223284   2.781   1.946   2.162  0.1286  0.1242 -0.8249
 7774TIP3   OH223285   5.111   3.401   0.904 -0.0065  0.0861 -0.0787
 7774TIP3    H123286   5.126   3.384   0.811 -1.5420  0.1527 -0.3710
 7774TIP3    H223287   5.060   3.325   0.934 -2.0654  1.3967 -0.0374
 7775TIP3   OH223288   4.975   3.670   4.635 -0.5536 -0.1779  0.1735
 7775TIP3    H123289   5.048   3.638   4.581  0.0699 -0.5220  1.1822
 7775TIP3    H223290   4.902   3.681   4.574  0.1413 -0.5139 -0.7351
 7776TIP3   OH223291   2.730   0.582   4.202  0.3254 -0.0708  0.6752
 7776TIP3    H123292   2.772   0.585   4.116  0.5802  1.0071  0.8186
 7776TIP3    H223293   2.668   0.510   4.196  1.4326 -1.0106  0.1023
 7777TIP3   OH223294   3.802   6.492   3.201  0.3062 -0.2257  0.2276
 7777TIP3    H123295   3.830   6.402   3.221 -0.4285 -0.2040  1.4704
 7777TIP3    H223296   3.827   6.505   3.110  1.5751 -1.2546  0.3938
 7778TIP3   OH223297   4.819   4.882   0.975  0.0677 -0.9340 -0.0079
 7778TIP3    H123298   4.855   4.877   1.063 -0.3623  0.4770  0.2741
 7778TIP3    H223299   4.814   4.791   0.945  0.8746 -1.3716  1.1453
 7779TIP3   OH223300   5.389   1.585   1.509  0.0890  0.2775  0.1530
 7779TIP3    H123301   5.315   1.640   1.536 -0.4884 -0.1169 -0.6021
 7779TIP3    H223302   5.349   1.513   1.461  1.0354  0.6465 -1.2288
 7780TIP3   OH223303   0.858   4.541   5.120 -0.6066  0.2973 -0.2404
 7780TIP3    H123304   0.953   4.532   5.128 -0.7988 -0.4407  1.6723
 7780TIP3    H223305   0.839   4.518   5.029  0.6552 -3.7194  0.3295
 7781TIP3   OH223306   6.030   1.198   0.448 -0.7593 -0.4130  0.2807
 7781TIP3    H123307   5.975   1.217   0.525 -1.4454  2.2308 -0.7560
 7781TIP3    H223308   6.106   1.255   0.458 -0.6882 -0.2917 -0.8273
 7782TIP3   OH223309   2.212   5.922   3.270 -0.0271 -0.2006  0.4731
 7782TIP3    H123310   2.286   5.964   3.314  1.1467 -1.7847  0.1061
 7782TIP3    H223311   2.212   5.960   3.182  0.1200  0.0855  0.5955
 7783TIP3   OH223312   1.852   6.513   3.667  0.0783  0.1224 -0.2223
 7783TIP3    H123313   1.841   6.497   3.574  0.1642  0.3766 -0.2762
 7783TIP3    H223314   1.896   6.434   3.700 -0.3510 -0.1570 -0.3137
 7784TIP3   OH223315   5.857   0.801   5.726  0.2264  0.8451 -0.1591
 7784TIP3    H123316   5.852   0.857   5.803 -2.4385  4.1266 -2.4350
 7784TIP3    H223317   5.949   0.801   5.702  0.5721  2.8362  0.9857
 7785TIP3   OH223318   3.728   4.025   0.432  0.4694 -0.2442  0.0509
 7785TIP3    H123319   3.804   4.082   0.416  0.8042 -0.5647  0.4520
 7785TIP3    H223320   3.715   4.029   0.527  0.2051 -0.4727  0.0252
 7786TIP3   OH223321   3.587   1.731   1.261 -0.0142  0.0583 -0.5187
 7786TIP3    H123322   3.628   1.646   1.281  0.2348  0.5251  1.1312
 7786TIP3    H223323   3.580   1.774   1.346 -0.4413  1.5694 -1.2913
 7787TIP3   OH223324   6.588   1.246   1.160 -0.1908 -1.2212 -0.0676
 7787TIP3    H123325   6.655   1.309   1.189  2.0829 -2.4443 -2.2078
 7787TIP3    H223326   6.505   1.290   1.177  1.1892  3.0269 -2.5283
 7788TIP3   OH223327   1.124   1.640   4.930  0.1059  0.1006  0.1931
 7788TIP3    H123328   1.150   1.725   4.894  0.3551  0.6611  1.6434
 7788TIP3    H223329   1.206   1.591   4.939  0.1626  0.3212  0.8910
 7789TIP3   OH223330   6.941   5.375   2.013 -0.2658  0.1200  0.2246
 7789TIP3    H123331   6.981   5.386   1.926 -0.4051  0.7848  0.2385
 7789TIP3    H223332   6.958   5.284   2.035  2.0305  0.5685  0.6155
 7790TIP3   OH223333   5.370   5.254   3.831  0.0543 -0.1424 -0.0182
 7790TIP3    H123334   5.293   5.206   3.801  1.0272 -1.5388 -0.4280
 7790TIP3    H223335   5.382   5.323   3.766 -1.5897  0.9316  0.7802
 7791TIP3   OH223336   4.449   6.011   2.967 -0.2624 -0.1269  0.4326
 7791TIP3    H123337   4.480   6.009   3.058  0.0693  0.1580  0.3304
 7791TIP3    H223338   4.422   5.922   2.948 -0.5913 -0.1275  0.9033
 7792TIP3   OH223339   3.615   6.138   1.767  0.6381  0.3664  0.0103
 7792TIP3    H123340   3.681   6.098   1.824 -0.7128  0.4431  1.7140
 7792TIP3    H223341   3.595   6.222   1.808 -0.9505  0.0792 -0.1139
 7793TIP3   OH223342   2.650   2.374   2.478 -0.0082  0.6234 -0.5474
 7793TIP3    H123343   2.699   2.296   2.452 -1.3152 -1.4451  2.5523
 7793TIP3    H223344   2.559   2.355   2.454 -0.4877  0.7217  1.0353
 7794TIP3   OH223345   3.449   2.447   1.548  0.0761  0.0933 -0.3733
 7794TIP3    H123346   3.457   2.534   1.588 -2.4848  0.7896 -1.1871
 7794TIP3    H223347   3.464   2.461   1.455  2.3009 -0.8871 -0.2428
 7795TIP3   OH223348   5.366   6.686   5.404 -0.0046  0.2335  0.0391
 7795TIP3    H123349   5.363   6.608   5.350 -1.5295 -0.5360  1.1729
 7795TIP3    H223350   5.457   6.692   5.433 -0.0817 -1.7710  0.8290
 7796TIP3   OH223351   6.047   1.169   3.057 -0.1099  0.3819 -0.9032
 7796TIP3    H123352   5.954   1.177   3.077  0.1974  1.4594  0.2406
 7796TIP3    H223353   6.051   1.171   2.961 -1.1430  2.3618 -0.9662
 7797TIP3   OH223354   4.351   3.026   1.124  0.1196 -0.0398 -0.4405
 7797TIP3    H123355   4.361   2.949   1.181  0.0735  1.0250  1.0687
 7797TIP3    H223356   4.433   3.074   1.133 -1.1099  1.8976  1.4962
 7798TIP3   OH223357   0.642   5.628   3.069 -0.1087  0.2048  0.5930
 7798TIP3    H123358   0.710   5.612   3.136 -0.6009 -1.5008  0.7434
 7798TIP3    H223359   0.624   5.541   3.034 -2.1727  0.6365  0.5113
 7799TIP3   OH223360   1.573   3.352   2.080 -0.1666 -0.1122  0.1942
 7799TIP3    H123361   1.634   3.402   2.027 -0.8775 -0.1852 -0.7240
 7799TIP3    H223362   1.487   3.371   2.043 -0.6959 -0.1826  1.3183
 7800TIP3   OH223363   1.826   6.485   3.398  0.5140  0.3918  0.2553
 7800TIP3    H123364   1.773   6.518   3.324 -0.3443 -0.3873  0.5023
 7800TIP3    H223365   1.907   6.455   3.357 -0.5279 -1.3906 -0.6166
 7801TIP3   OH223366   0.463   6.291   2.695 -0.1628 -0.1037  0.0683
 7801TIP3    H123367   0.428   6.210   2.733 -1.6794  0.0856 -0.8270
 7801TIP3    H223368   0.505   6.263   2.613 -0.5381 -0.0115 -0.1573
 7802TIP3   OH223369   6.288   5.512   1.299 -0.1356  0.1230  0.2116
 7802TIP3    H123370   6.287   5.505   1.203 -1.2139 -0.5835  0.2621
 7802TIP3    H223371   6.371   5.471   1.325  0.3999  0.7603 -0.4335
 7803TIP3   OH223372   5.880   1.478   0.237 -0.8277 -0.1137 -0.0243
 7803TIP3    H123373   5.887   1.493   0.331  0.2548 -0.5081 -0.0204
 7803TIP3    H223374   5.833   1.396   0.229  0.3428 -0.8368  0.2450
 7804TIP3   OH223375   1.811   1.909   1.406  0.0332 -0.3627  0.0592
 7804TIP3    H123376   1.769   1.839   1.455  0.0830 -0.3035  0.1878
 7804TIP3    H223377   1.761   1.988   1.430 -0.3215 -0.4251 -0.4456
 7805TIP3   OH223378   4.885   5.040   2.776 -0.3833 -0.0061  0.1747
 7805TIP3    H123379   4.933   5.029   2.858  0.1251  0.5773 -0.0356
 7805TIP3    H223380   4.849   4.954   2.758  0.5880 -0.4576  0.3402
 7806TIP3   OH223381   4.467   5.941   3.792 -0.1618 -0.3102  0.7533
 7806TIP3    H123382   4.391   5.979   3.749 -0.7024  0.1771  2.0977
 7806TIP3    H223383   4.449   5.847   3.795  0.2636 -0.4763 -0.7728
 7807TIP3   OH223384   3.858   4.211   5.377  0.4370  0.2303  0.2379
 7807TIP3    H123385   3.853   4.306   5.369 -0.4941  0.0995 -1.0812
 7807TIP3    H223386   3.767   4.183   5.392  0.5885 -0.4881 -0.0989
 7808TIP3   OH223387   2.030   4.740   0.387 -0.2357  0.1184 -0.3452
 7808TIP3    H123388   1.999   4.650   0.375  0.3236 -0.1804  0.3556
 7808TIP3    H223389   2.027   4.754   0.482  0.1611  0.6640 -0.4064
 7809TIP3   OH223390   1.955   2.935   4.457  0.5711 -0.2059  0.4683
 7809TIP3    H123391   1.897   2.890   4.396  1.7880 -0.9547 -0.1787
 7809TIP3    H223392   1.937   2.892   4.541  1.4814 -1.7416 -0.0776
 7810TIP3   OH223393   1.839   3.660   5.361 -0.0820 -0.2005  0.3273
 7810TIP3    H123394   1.838   3.583   5.305 -2.4058  0.5633 -0.8246
 7810TIP3    H223395   1.873   3.628   5.445 -1.0447 -2.4945 -0.0733
 7811TIP3   OH223396   5.780   3.580   1.329 -0.4417  0.1536 -0.4052
 7811TIP3    H123397   5.722   3.565   1.254 -0.7620 -1.7890  0.1818
 7811TIP3    H223398   5.865   3.546   1.301 -0.0999  1.0267 -0.4777
 7812TIP3   OH223399   5.363   2.525   3.705 -0.5864 -0.4416 -0.0849
 7812TIP3    H123400   5.387   2.537   3.797 -1.0005  0.6581 -0.0981
 7812TIP3    H223401   5.267   2.521   3.706 -0.5630 -1.2106 -0.3968
 7813TIP3   OH223402   1.013   4.777   4.088 -0.6452 -0.0392  0.7841
 7813TIP3    H123403   1.031   4.749   4.178  0.1132  1.6332  1.2055
 7813TIP3    H223404   1.027   4.872   4.090  0.5634 -0.1123 -1.3720
 7814TIP3   OH223405   0.737   5.159   5.361 -0.0818  0.2399 -0.9066
 7814TIP3    H123406   0.677   5.161   5.286  1.3117 -0.3749 -2.0937
 7814TIP3    H223407   0.794   5.235   5.348 -0.7546  1.0091  0.3840
 7815TIP3   OH223408   6.281   3.233   0.650  0.5208 -0.2545 -0.3770
 7815TIP3    H123409   6.321   3.168   0.592  1.4743  0.9364 -1.1111
 7815TIP3    H223410   6.332   3.313   0.635 -1.1117  0.8869 -0.1045
 7816TIP3   OH223411   7.006   1.130   5.030  0.6538  0.4837  0.3139
 7816TIP3    H123412   6.992   1.138   4.935 -1.0973 -1.1750  0.3714
 7816TIP3    H223413   7.086   1.079   5.037 -0.4568 -1.4585 -0.3790
 7817TIP3   OH223414   2.072   4.513   3.632 -0.3358  0.0924 -0.3950
 7817TIP3    H123415   2.040   4.603   3.638 -1.2690 -0.2288 -0.3307
 7817TIP3    H223416   2.161   4.521   3.599 -0.0621  1.0944  0.5265
 7818TIP3   OH223417   1.356   6.451   4.530 -0.4639  0.1445 -0.1069
 7818TIP3    H123418   1.310   6.512   4.587 -1.5686  0.1445 -0.9785
 7818TIP3    H223419   1.425   6.414   4.586 -0.7137  1.0726  0.8533
 7819TIP3   OH223420   6.481   6.554   0.180 -0.3995 -0.0676 -0.1647
 7819TIP3    H123421   6.545   6.487   0.158 -1.0322 -0.2683 -1.5234
 7819TIP3    H223422   6.408   6.507   0.219 -0.0354  0.0841  0.7365
 7820TIP3   OH223423   4.869   1.021   2.631  0.3464  0.1406  0.2088
 7820TIP3    H123424   4.852   0.963   2.705 -0.0468 -1.0857 -0.8212
 7820TIP3    H223425   4.952   0.991   2.595  0.4511  0.6236  0.0359
 7821TIP3   OH223426   6.952   5.879   3.632  0.0204 -0.2561  0.9312
 7821TIP3    H123427   6.993   5.916   3.554 -0.5358  1.1749  1.2851
 7821TIP3    H223428   7.019   5.885   3.700 -0.2903  0.7856  1.1603
 7822TIP3   OH223429   5.670   6.244   4.728 -0.2979  0.1622 -0.0914
 7822TIP3    H123430   5.633   6.223   4.642  0.7956  1.1026 -0.8211
 7822TIP3    H223431   5.764   6.226   4.719 -0.1768  0.2051  0.9397
 7823TIP3   OH223432   4.368   0.036   4.806  0.1316 -0.2862 -0.6258
 7823TIP3    H123433   4.439  -0.006   4.756 -0.3921 -0.8730 -0.8825
 7823TIP3    H223434   4.352   0.118   4.760 -0.0553 -0.6270 -1.1755
 7824TIP3   OH223435   1.756   0.784   3.741  0.1625 -0.4629  0.0738
 7824TIP3    H123436   1.812   0.715   3.776  0.8745  0.7727  1.4816
 7824TIP3    H223437   1.775   0.860   3.795  0.4966  1.2716 -2.2956
 7825TIP3   OH223438   6.950   5.782   3.314 -0.4282  0.5206 -0.4754
 7825TIP3    H123439   6.859   5.813   3.314 -0.9820 -0.9924  0.5634
 7825TIP3    H223440   6.999   5.853   3.355 -1.0954  1.4226 -1.1726
 7826TIP3   OH223441   3.700   4.461   2.983 -0.0324 -0.2385 -0.0422
 7826TIP3    H123442   3.610   4.492   2.996  0.0241  0.1584 -0.5844
 7826TIP3    H223443   3.716   4.404   3.059 -0.2480  0.7956  0.8090
 7827TIP3   OH223444   2.368   2.416   4.647  0.3613 -0.4036  0.4887
 7827TIP3    H123445   2.446   2.436   4.594  0.3540 -0.7821  0.3294
 7827TIP3    H223446   2.355   2.494   4.701 -0.0422  0.2855 -0.5707
 7828TIP3   OH223447   5.108   2.391   2.739 -0.0810  0.3108 -0.3780
 7828TIP3    H123448   5.140   2.369   2.652  0.4247 -1.1190  0.1433
 7828TIP3    H223449   5.187   2.421   2.786  0.1922 -1.4632  0.3598
 7829TIP3   OH223450   0.557   0.280   4.926 -0.5990 -0.2439  0.3307
 7829TIP3    H123451   0.561   0.243   5.015 -0.5468 -0.0688  0.4007
 7829TIP3    H223452   0.636   0.247   4.883  1.1616  2.3048  1.3632
 7830TIP3   OH223453   6.711   3.769   4.693  0.6503  0.0455  0.7144
 7830TIP3    H123454   6.714   3.823   4.772  0.0361 -0.4370  1.0739
 7830TIP3    H223455   6.785   3.801   4.640 -0.6670  2.3784  0.1477
 7831TIP3   OH223456   5.472   0.812   1.716  0.0301 -0.1767  0.6789
 7831TIP3    H123457   5.414   0.753   1.763 -0.6183  0.7487  1.0800
 7831TIP3    H223458   5.507   0.870   1.784  0.8672 -0.2654  0.3390
 7832TIP3   OH223459   3.594   0.148   3.942  0.0187  0.0423  0.1745
 7832TIP3    H123460   3.610   0.231   3.987 -1.3545  1.0908 -1.1592
 7832TIP3    H223461   3.504   0.155   3.910  0.2176 -1.5402 -0.8518
 7833TIP3   OH223462   3.458   5.831   0.695 -0.4634  0.1816 -0.0551
 7833TIP3    H123463   3.524   5.868   0.753  2.3240 -0.9618 -2.2257
 7833TIP3    H223464   3.402   5.905   0.671  0.9011  1.5464  0.7927
 7834TIP3   OH223465   6.170   4.068   3.755 -0.1470 -0.6813  0.1338
 7834TIP3    H123466   6.150   3.978   3.731 -0.0397 -0.3312 -1.3812
 7834TIP3    H223467   6.089   4.100   3.795  0.1621 -1.7397  1.6850
 7835TIP3   OH223468   1.245   5.143   2.420  0.2982 -0.3182  0.4570
 7835TIP3    H123469   1.308   5.078   2.451  0.7489 -0.0285  0.1521
 7835TIP3    H223470   1.257   5.144   2.325 -2.4777 -2.7188 -0.0707
 7836TIP3   OH223471   6.133   4.062   5.701 -0.2821  0.6874  0.4390
 7836TIP3    H123472   6.185   4.002   5.646 -0.7928 -0.5111  1.2356
 7836TIP3    H223473   6.135   4.144   5.653  1.6706  0.4646  0.0204
 7837TIP3   OH223474   4.082   4.795   5.787  0.0563  0.4018  0.2699
 7837TIP3    H123475   4.168   4.826   5.815 -0.2133  0.4572  1.0497
 7837TIP3    H223476   4.099   4.750   5.704  0.7683  0.7810  0.2018
 7838TIP3   OH223477   1.247   5.601   3.905  0.0955  0.2255  0.5230
 7838TIP3    H123478   1.229   5.529   3.966  0.4806 -3.0774 -2.9259
 7838TIP3    H223479   1.341   5.598   3.891 -0.1977 -0.5799 -1.7266
 7839TIP3   OH223480   3.051   0.653   1.290 -0.3455  0.0913  0.6744
 7839TIP3    H123481   3.026   0.668   1.199 -0.4778  0.6006  0.7899
 7839TIP3    H223482   3.138   0.692   1.298  0.1315 -0.9044  0.4975
 7840TIP3   OH223483   2.459   1.082   2.260  0.5537 -0.3252 -0.1054
 7840TIP3    H123484   2.499   1.157   2.216 -0.1096  0.8227  1.1817
 7840TIP3    H223485   2.523   1.011   2.250 -0.0484 -0.5297 -3.9308
 7841TIP3   OH223486   5.903   6.093   4.847  0.2344  0.2333 -0.6516
 7841TIP3    H123487   5.989   6.127   4.873 -0.2973  0.9730  0.1806
 7841TIP3    H223488   5.872   6.046   4.924  1.1481 -2.6427 -1.9015
 7842TIP3   OH223489   4.212   2.955   2.477 -0.0687 -0.7074 -0.1742
 7842TIP3    H123490   4.171   2.960   2.390 -1.6571 -2.3881  0.4164
 7842TIP3    H223491   4.140   2.967   2.538  0.5390 -2.2699  0.9066
 7843TIP3   OH223492   4.285   4.062   1.521 -0.4620  0.3053 -0.1278
 7843TIP3    H123493   4.268   3.969   1.537  2.6891 -0.5951 -1.2181
 7843TIP3    H223494   4.239   4.080   1.438  1.8666 -1.4430 -1.9528
 7844TIP3   OH223495   0.388   1.845   4.407  0.9456  0.2515  0.0272
 7844TIP3    H123496   0.375   1.940   4.403  1.3541  0.2803 -1.1966
 7844TIP3    H223497   0.386   1.817   4.315 -1.5228 -1.2655  0.4503
 7845TIP3   OH223498   2.004   4.634   5.523  0.7894 -0.3874 -0.1711
 7845TIP3    H123499   1.985   4.571   5.454 -2.6272  2.0875 -1.7889
 7845TIP3    H223500   2.034   4.712   5.477 -0.5070  0.9758  1.1611
 7846TIP3   OH223501   5.548   6.040   3.451  0.0174 -0.0635 -0.5128
 7846TIP3    H123502   5.477   5.980   3.429  0.0671 -0.4075  0.2129
 7846TIP3    H223503   5.601   6.045   3.372 -3.5706  4.3355 -3.1511
 7847TIP3   OH223504   2.404   4.726   1.304 -0.5930 -0.3068  0.1050
 7847TIP3    H123505   2.363   4.695   1.384 -1.1849 -1.3542 -0.5784
 7847TIP3    H223506   2.488   4.680   1.301  1.2679  2.6385  2.0561
 7848TIP3   OH223507   1.121   1.830   2.667  0.1286 -0.7956  0.1593
 7848TIP3    H123508   1.061   1.902   2.685  0.1813 -1.0835  1.6002
 7848TIP3    H223509   1.206   1.860   2.698  0.7593 -0.4107 -1.8346
 7849TIP3   OH223510   4.529   4.376   1.235  0.2012 -0.1757  0.4959
 7849TIP3    H123511   4.540   4.288   1.272  1.6660  0.3714  1.4423
 7849TIP3    H223512   4.468   4.420   1.294  0.1418 -0.2816  0.5129
 7850TIP3   OH223513   5.377   3.135   4.861 -0.6054  0.1203 -0.3789
 7850TIP3    H123514   5.290   3.097   4.845 -0.6256  0.5407 -1.3240
 7850TIP3    H223515   5.364   3.190   4.939 -0.9590 -0.5349  0.0362
 7851TIP3   OH223516   0.477   4.866   0.534  0.0013 -0.2296 -0.0553
 7851TIP3    H123517   0.453   4.941   0.480 -1.3075 -1.3639 -1.1052
 7851TIP3    H223518   0.401   4.808   0.530  0.1712 -0.7358  2.3683
 7852TIP3   OH223519   5.271   0.142   3.271 -0.1991  0.2630 -0.3740
 7852TIP3    H123520   5.214   0.148   3.348 -0.6719 -2.4947 -0.4030
 7852TIP3    H223521   5.220   0.180   3.200 -1.4536 -0.8062 -0.0832
 7853TIP3   OH223522   0.827   3.722   3.668 -0.1951  0.0342  0.5996
 7853TIP3    H123523   0.914   3.758   3.685  0.3940 -1.0903  0.0700
 7853TIP3    H223524   0.767   3.794   3.686  0.9532  1.4165 -0.8230
 7854TIP3   OH223525   4.186   6.145   3.055 -0.4048 -0.0640 -0.3918
 7854TIP3    H123526   4.103   6.101   3.036 -0.0146 -1.7351  1.4851
 7854TIP3    H223527   4.253   6.085   3.022  0.1566 -1.3314  2.7379
 7855TIP3   OH223528   6.456   3.016   2.755  0.2032  0.1902 -0.0364
 7855TIP3    H123529   6.367   2.982   2.751 -0.2665  1.4523 -1.7443
 7855TIP3    H223530   6.509   2.941   2.782 -1.2927 -0.7317  0.4797
 7856TIP3   OH223531   4.968   3.202   1.611  0.1955 -0.4297  0.0555
 7856TIP3    H123532   5.045   3.242   1.572  0.3490 -2.2622 -1.6720
 7856TIP3    H223533   4.943   3.262   1.682  4.2295 -0.5799  1.9173
 7857TIP3   OH223534   2.426   6.356   4.808 -0.5619 -0.1005  0.4103
 7857TIP3    H123535   2.348   6.322   4.762 -0.2978 -0.5276  0.2692
 7857TIP3    H223536   2.417   6.323   4.897 -0.3034 -0.5490  0.2719
 7858TIP3   OH223537   2.550   5.096   2.967 -0.6877 -0.4246 -0.0865
 7858TIP3    H123538   2.556   5.141   3.051 -0.9547  0.2116 -0.4038
 7858TIP3    H223539   2.586   5.158   2.904 -1.1636 -0.6059 -0.5463
 7859TIP3   OH223540   3.017   6.172   3.665  0.1878 -0.1973  0.0051
 7859TIP3    H123541   3.069   6.250   3.649 -1.9484  1.1923 -0.5200
 7859TIP3    H223542   3.004   6.170   3.760 -0.4138  0.5861 -0.0469
 7860TIP3   OH223543   5.797   5.640   4.808 -0.5703  0.0387 -0.1030
 7860TIP3    H123544   5.816   5.614   4.718  0.3843 -0.8279  0.3130
 7860TIP3    H223545   5.883   5.664   4.844 -0.9099  0.1934  0.6157
 7861TIP3   OH223546   4.186   2.388   4.520 -0.6012 -0.1363  0.1368
 7861TIP3    H123547   4.103   2.363   4.560 -0.5367  2.6575  2.3452
 7861TIP3    H223548   4.240   2.309   4.524 -2.0958 -1.1396  1.6294
 7862TIP3   OH223549   3.481   0.913   5.866 -0.1892  0.5837 -0.1891
 7862TIP3    H123550   3.575   0.912   5.847  0.2969 -0.3745  1.9260
 7862TIP3    H223551   3.451   0.997   5.832  1.1759  0.4386 -1.9321
 7863TIP3   OH223552   1.240   1.633   0.860  0.3814  0.2001  0.0920
 7863TIP3    H123553   1.288   1.551   0.853  0.2940 -0.0287  1.8543
 7863TIP3    H223554   1.302   1.694   0.900  0.2485  0.8296 -0.6416
 7864TIP3   OH223555   0.059   4.977   0.660 -0.1085  0.0950  0.5416
 7864TIP3    H123556  -0.019   5.018   0.697 -0.1521  0.3110  0.2162
 7864TIP3    H223557   0.132   5.021   0.705 -0.1549  0.5452  0.1841
 7865TIP3   OH223558   0.032   4.728   5.568  0.3425  0.7349  0.0924
 7865TIP3    H123559   0.044   4.661   5.500  1.9385  0.7541  0.3191
 7865TIP3    H223560   0.099   4.794   5.549  0.3347  1.1038  1.2540
 7866TIP3   OH223561   5.752   3.871   1.060 -0.6431 -0.2902 -0.1259
 7866TIP3    H123562   5.695   3.863   0.983  0.3304 -0.0806 -0.8930
 7866TIP3    H223563   5.773   3.964   1.065  0.6787 -0.5396 -0.6553
 7867TIP3   OH223564   4.903   0.381   3.866  0.1358  0.3508  0.8115
 7867TIP3    H123565   4.958   0.432   3.926  0.0131 -0.8570  1.9945
 7867TIP3    H223566   4.906   0.292   3.900 -0.6614 -0.1995 -0.4825
 7868TIP3   OH223567   0.185   5.569   2.713  0.5995 -0.3273 -0.7768
 7868TIP3    H123568   0.149   5.622   2.784  0.2795 -0.1728 -1.0513
 7868TIP3    H223569   0.109   5.547   2.659  0.3543 -2.8035  0.4238
 7869TIP3   OH223570   5.333   6.217   2.986 -0.1496  0.0935 -0.3291
 7869TIP3    H123571   5.254   6.266   2.965  0.4775  0.4741 -1.9098
 7869TIP3    H223572   5.339   6.150   2.919 -0.0297 -1.0232  0.7724
 7870TIP3   OH223573   2.195   1.829   1.259 -0.1115 -0.0777 -0.0399
 7870TIP3    H123574   2.191   1.771   1.335 -0.2120  0.7334  0.5868
 7870TIP3    H223575   2.108   1.823   1.219 -0.2133 -0.1334  0.1944
 7871TIP3   OH223576   3.451   0.076   3.313 -0.3921  0.0950  0.5258
 7871TIP3    H123577   3.500  -0.006   3.316  1.5975  1.1216 -1.0313
 7871TIP3    H223578   3.483   0.126   3.388  0.0674  0.2845  0.2099
 7872TIP3   OH223579   6.527   1.820   2.837 -0.0752 -0.0751 -0.2727
 7872TIP3    H123580   6.551   1.902   2.879 -0.0455 -1.4398  2.5429
 7872TIP3    H223581   6.486   1.768   2.906  0.4509 -2.6874 -1.7941
 7873TIP3   OH223582   5.394   2.452   1.582  0.0626  0.2563 -0.2231
 7873TIP3    H123583   5.425   2.489   1.499 -1.0283 -0.0840 -0.8118
 7873TIP3    H223584   5.422   2.361   1.579 -1.1276 -0.1157 -0.8664
 7874TIP3   OH223585   3.324   6.735   0.407 -0.1763 -0.0201  0.1498
 7874TIP3    H123586   3.240   6.755   0.449 -0.7956 -1.0158 -0.5735
 7874TIP3    H223587   3.301   6.678   0.334  1.1455 -0.3394 -0.0356
 7875TIP3   OH223588   5.455   3.753   3.535 -0.6241  0.4215 -0.0463
 7875TIP3    H123589   5.370   3.750   3.579 -1.2513 -1.1405 -1.2862
 7875TIP3    H223590   5.436   3.778   3.445  0.1255 -0.6687 -0.5327
 7876TIP3   OH223591   2.152   2.102   5.719 -0.0434 -0.1598 -0.2098
 7876TIP3    H123592   2.197   2.102   5.634 -0.2440 -3.3444 -0.4294
 7876TIP3    H223593   2.223   2.106   5.783  0.2643 -0.1901 -0.5429
 7877TIP3   OH223594   0.418   6.257   5.458 -0.1868 -0.6581  0.2246
 7877TIP3    H123595   0.405   6.286   5.367  1.3346 -1.1073 -0.1597
 7877TIP3    H223596   0.329   6.253   5.494 -0.7785  0.1503 -1.0413
 7878TIP3   OH223597   1.501   5.413   1.840  0.1639  0.2189 -0.0431
 7878TIP3    H123598   1.521   5.438   1.931 -2.3900  0.8459  0.4165
 7878TIP3    H223599   1.406   5.404   1.838 -0.1291  2.3641 -3.1496
 7879TIP3   OH223600   5.292   5.745   1.093  0.3742  0.2360  0.5244
 7879TIP3    H123601   5.208   5.709   1.067 -0.3393  1.0572  1.6152
 7879TIP3    H223602   5.276   5.787   1.178  1.6480  1.2634  0.2937
 7880TIP3   OH223603   1.832   5.288   2.168 -0.0736  0.3880  0.1695
 7880TIP3    H123604   1.866   5.254   2.251  1.5980  3.3390  0.8458
 7880TIP3    H223605   1.873   5.233   2.101 -0.0733 -0.9442  1.2142
 7881TIP3   OH223606   6.135   3.623   3.939 -0.0309 -0.1274  0.0026
 7881TIP3    H123607   6.125   3.528   3.935  0.1650 -0.1280 -0.5660
 7881TIP3    H223608   6.214   3.637   3.991 -1.2340 -0.2018  1.9616
 7882TIP3   OH223609   4.821   6.084   4.297  0.1688 -0.5347 -0.2098
 7882TIP3    H123610   4.814   5.999   4.253 -1.4551 -1.0167  0.9105
 7882TIP3    H223611   4.762   6.141   4.248 -0.8477 -0.8014  0.6769
 7883TIP3   OH223612   0.643   0.185   0.514  0.0578 -0.1266 -0.4761
 7883TIP3    H123613   0.679   0.273   0.508  0.3508 -0.2101  0.0161
 7883TIP3    H223614   0.568   0.194   0.574  1.4491 -0.6129  1.4466
 7884TIP3   OH223615   2.369   5.415   0.628 -0.2580 -0.2544  0.1207
 7884TIP3    H123616   2.389   5.383   0.540 -1.0388  1.6075 -0.7904
 7884TIP3    H223617   2.446   5.392   0.680  0.3891 -1.0284 -1.1390
 7885TIP3   OH223618   1.516   5.967   2.301 -0.5244 -0.1490  0.1742
 7885TIP3    H123619   1.450   5.924   2.247 -0.3620  1.3442 -1.3200
 7885TIP3    H223620   1.508   6.060   2.279  0.7624  0.3073  1.4324
 7886TIP3   OH223621   4.782   2.638   4.570  0.0748  0.7950 -0.2833
 7886TIP3    H123622   4.832   2.670   4.645 -0.2962  1.3728 -0.2827
 7886TIP3    H223623   4.717   2.579   4.608 -0.9490  2.0726 -0.0054
 7887TIP3   OH223624   1.106   3.638   0.314  0.5144 -0.4996  0.7760
 7887TIP3    H123625   1.040   3.591   0.365  1.0580 -0.9380  1.0881
 7887TIP3    H223626   1.159   3.683   0.380  0.2176  0.2734  0.4967
 7888TIP3   OH223627   3.947   1.700   5.438  0.1128  0.1672 -0.3582
 7888TIP3    H123628   3.973   1.789   5.411 -0.2265 -0.3779 -2.7295
 7888TIP3    H223629   4.021   1.645   5.411 -0.0437 -0.4022  0.3389
 7889TIP3   OH223630   2.723   5.048   3.534  0.5808  0.3843  0.7801
 7889TIP3    H123631   2.650   5.048   3.473  1.6052 -1.2106 -0.5389
 7889TIP3    H223632   2.698   5.111   3.601 -1.4912  0.7012 -0.2012
 7890TIP3   OH223633   4.685   4.871   0.168  0.3863  0.3905 -0.2546
 7890TIP3    H123634   4.704   4.843   0.079 -0.8874  0.3392 -0.5279
 7890TIP3    H223635   4.591   4.886   0.169  0.3561  0.2419  1.1262
 7891TIP3   OH223636   3.637   0.230   1.013  0.2259 -0.0135  0.1223
 7891TIP3    H123637   3.706   0.170   0.984  0.0953 -0.7276  1.2147
 7891TIP3    H223638   3.671   0.269   1.094  0.5064  1.7756 -0.8068
 7892TIP3   OH223639   3.287   4.558   2.761 -0.0915 -0.6080 -0.1006
 7892TIP3    H123640   3.320   4.628   2.705  1.2846 -1.5245 -0.4735
 7892TIP3    H223641   3.197   4.585   2.782  0.1782  0.9335 -0.7574
 7893TIP3   OH223642   1.776   5.762   4.552 -0.1259 -0.2772  0.7485
 7893TIP3    H123643   1.821   5.690   4.508 -0.9751 -1.1144  1.2227
 7893TIP3    H223644   1.845   5.805   4.603  0.2392 -1.2778  1.1310
 7894TIP3   OH223645   6.582   1.800   5.016 -0.0312  0.5331 -0.7261
 7894TIP3    H123646   6.599   1.815   4.923 -0.9152 -0.2361 -1.0158
 7894TIP3    H223647   6.665   1.766   5.050  0.2098  0.5491 -1.2901
 7895TIP3   OH223648   4.721   1.759   1.812 -0.1205 -0.2329  0.6364
 7895TIP3    H123649   4.730   1.833   1.752 -0.3454  0.6650  1.6765
 7895TIP3    H223650   4.700   1.685   1.756  1.1239  0.2675 -0.5413
 7896TIP3   OH223651   5.357   2.255   2.148 -0.1267  0.2932 -0.5724
 7896TIP3    H123652   5.407   2.245   2.067  0.3989 -0.2542 -0.1873
 7896TIP3    H223653   5.333   2.166   2.174  0.4463  0.3862  0.3280
 7897TIP3   OH223654   6.139   0.217   0.545 -0.2878  0.8591 -0.0970
 7897TIP3    H123655   6.085   0.154   0.497 -1.4806  1.5124  0.3458
 7897TIP3    H223656   6.186   0.265   0.477  0.2053 -0.0993 -0.4622
 7898TIP3   OH223657   3.591   0.613   2.512 -0.3056  0.4577 -0.2671
 7898TIP3    H123658   3.593   0.674   2.438  1.2768 -0.5972 -1.1356
 7898TIP3    H223659   3.656   0.546   2.490 -1.5910 -1.2624  0.9039
 7899TIP3   OH223660   0.814   4.018   5.651 -0.0168 -0.6007  0.0879
 7899TIP3    H123661   0.893   4.052   5.609  1.0582 -1.8235  1.0235
 7899TIP3    H223662   0.746   4.083   5.632  1.2663  0.6045 -0.5214
 7900TIP3   OH223663   1.913   3.067   1.707 -0.6579 -0.3830  0.3078
 7900TIP3    H123664   1.864   2.994   1.670 -0.6068 -0.2164 -0.0989
 7900TIP3    H223665   1.849   3.116   1.757 -1.0658  0.2033 -0.7616
 7901TIP3   OH223666   6.742   4.189   0.079 -0.1588  0.5360  1.0007
 7901TIP3    H123667   6.702   4.167  -0.005  1.3452  0.9269  0.1438
 7901TIP3    H223668   6.835   4.171   0.067  0.1072  0.7172  2.5502
 7902TIP3   OH223669   3.295   0.587   4.815  0.3298  0.3849  0.5149
 7902TIP3    H123670   3.225   0.527   4.838  1.4156 -1.4417 -0.6735
 7902TIP3    H223671   3.298   0.585   4.719  1.1911  1.4128  0.4987
 7903TIP3   OH223672   3.172   6.519   1.722  0.5761  0.2154  0.7271
 7903TIP3    H123673   3.205   6.465   1.794 -0.9924 -1.3193  0.3811
 7903TIP3    H223674   3.152   6.456   1.652 -2.8352  0.9622  0.8509
 7904TIP3   OH223675   3.813   5.832   3.139  0.5935  0.2687 -0.6281
 7904TIP3    H123676   3.801   5.899   3.072  1.0360  3.8104  2.5572
 7904TIP3    H223677   3.908   5.828   3.151  0.5283 -0.5283 -0.3221
 7905TIP3   OH223678   3.922   2.060   4.178  0.4787 -0.0080 -0.1218
 7905TIP3    H123679   3.850   2.007   4.212  1.0548 -1.4605 -1.0557
 7905TIP3    H223680   3.958   2.104   4.255 -2.1272  1.7360  0.2123
 7906TIP3   OH223681   1.405   0.713   2.741 -0.1637 -0.3367  0.0035
 7906TIP3    H123682   1.403   0.648   2.811 -0.1820  0.3278  0.6275
 7906TIP3    H223683   1.498   0.728   2.725 -0.1035  1.2926  1.5880
 7907TIP3   OH223684   5.398   5.491   2.955  0.3531  0.2784 -0.2395
 7907TIP3    H123685   5.435   5.435   3.023 -0.2655 -1.4776 -1.2931
 7907TIP3    H223686   5.319   5.529   2.996 -0.2710 -1.1185 -0.0899
 7908TIP3   OH223687   1.644   2.904   4.634 -0.5315  0.1875  0.0673
 7908TIP3    H123688   1.604   2.843   4.696  2.2499  0.4385  2.2981
 7908TIP3    H223689   1.598   2.987   4.648 -1.3676 -0.2796  0.1832
 7909TIP3   OH223690   6.409   4.857   5.780 -0.5044 -0.1289  0.4847
 7909TIP3    H123691   6.468   4.918   5.825 -0.4151 -0.3362  0.6548
 7909TIP3    H223692   6.466   4.812   5.718 -0.6304  0.1654  0.1538
 7910TIP3   OH223693   4.366   5.315   3.557  0.1455  0.3810 -0.4086
 7910TIP3    H123694   4.357   5.388   3.496  0.9508  2.1003  1.4044
 7910TIP3    H223695   4.454   5.324   3.592 -0.8520  0.6129  2.3048
 7911TIP3   OH223696   4.710   0.487   5.848 -0.0638 -0.0209 -0.5408
 7911TIP3    H123697   4.701   0.424   5.919 -2.9721 -1.0752 -1.7127
 7911TIP3    H223698   4.788   0.458   5.800  0.1776 -1.0893  0.4597
 7912TIP3   OH223699   5.247   2.526   0.102 -0.5160 -0.2347 -0.4557
 7912TIP3    H123700   5.176   2.588   0.087 -1.2910 -0.6853  1.1123
 7912TIP3    H223701   5.326   2.580   0.110 -1.3554  0.7773  2.2185
 7913TIP3   OH223702   0.162   6.503   0.979 -0.1708 -0.0769 -0.0190
 7913TIP3    H123703   0.253   6.531   0.989 -0.2376  1.0558 -1.9253
 7913TIP3    H223704   0.149   6.436   1.046  2.0464 -0.2180  0.3341
 7914TIP3   OH223705   6.211   6.783   2.919  0.0956 -0.1220 -0.3640
 7914TIP3    H123706   6.295   6.749   2.950  0.0855 -1.0489 -1.2806
 7914TIP3    H223707   6.217   6.776   2.824 -1.0608 -0.3168 -0.4320
 7915TIP3   OH223708   6.493   6.774   4.238  0.5464  0.1532  0.1421
 7915TIP3    H123709   6.580   6.814   4.240 -0.2661  2.0125  0.6521
 7915TIP3    H223710   6.489   6.722   4.317  0.9835  0.5743  0.4522
 7916TIP3   OH223711   2.360   6.039   3.001  0.0464 -0.3764  0.1333
 7916TIP3    H123712   2.357   5.943   2.998  1.2547 -0.4144 -0.5384
 7916TIP3    H223713   2.446   6.059   3.038 -0.1524  0.4572  0.1670
 7917TIP3   OH223714   0.319   1.937   5.578  0.4007  0.0067 -0.8949
 7917TIP3    H123715   0.286   1.851   5.606  0.6572  0.2894  0.3310
 7917TIP3    H223716   0.306   1.993   5.654 -1.0955  1.4387 -2.1546
 7918TIP3   OH223717   1.210   0.512   0.431  0.4134 -0.8127  0.2553
 7918TIP3    H123718   1.195   0.550   0.345 -0.2356  0.0636  0.7408
 7918TIP3    H223719   1.233   0.421   0.414  0.0787 -0.6979 -0.8250
 7919TIP3   OH223720   7.217   5.903   5.610 -0.6452  0.0405  0.6449
 7919TIP3    H123721   7.151   5.880   5.676 -0.6481  0.6394  0.8577
 7919TIP3    H223722   7.260   5.981   5.646  1.8868 -1.6903  1.7526
 7920TIP3   OH223723   1.369   4.929   1.798 -0.0129  0.3910  0.6326
 7920TIP3    H123724   1.359   5.022   1.819 -0.7481  0.2331  0.9978
 7920TIP3    H223725   1.463   4.913   1.805  0.2535  1.3377 -0.4262
 7921TIP3   OH223726   0.167   1.194   2.856  0.8333 -0.6387 -0.4308
 7921TIP3    H123727   0.218   1.125   2.813 -1.6828 -1.3788 -2.4794
 7921TIP3    H223728   0.100   1.146   2.906  0.7830  0.2971  0.4238
 7922TIP3   OH223729   1.758   1.818   5.335  0.4004 -0.6168  0.0102
 7922TIP3    H123730   1.849   1.788   5.337  0.1357 -1.4029  1.0472
 7922TIP3    H223731   1.763   1.912   5.349  1.3526  0.2698 -4.5439
 7923TIP3   OH223732   3.190   1.990   0.106 -0.3528  0.1960 -0.2345
 7923TIP3    H123733   3.163   1.925   0.041 -0.2725  1.0872 -1.1856
 7923TIP3    H223734   3.109   2.014   0.152 -0.6750  0.6053 -0.9925
 7924TIP3   OH223735   1.057   1.068   0.497 -1.0055 -0.8939 -0.1741
 7924TIP3    H123736   1.012   1.042   0.577 -1.1067 -1.1783 -0.3209
 7924TIP3    H223737   1.086   0.985   0.458 -2.5109 -0.9208 -1.3491
 7925TIP3   OH223738   4.514   3.618   4.697  0.0046 -0.0349 -0.1262
 7925TIP3    H123739   4.450   3.687   4.713  0.0554  0.4291 -1.6654
 7925TIP3    H223740   4.599   3.661   4.709  0.0463 -0.4001  0.9758
 7926TIP3   OH223741   5.152   5.494   4.209 -0.2137 -0.4680 -0.3687
 7926TIP3    H123742   5.137   5.542   4.291 -2.0433  0.2666 -1.0929
 7926TIP3    H223743   5.158   5.402   4.236  0.8393 -0.0952  0.7565
 7927TIP3   OH223744   4.734   5.308   1.547 -0.2432 -0.0379  0.1812
 7927TIP3    H123745   4.756   5.224   1.507  1.1287  0.2637  0.2446
 7927TIP3    H223746   4.715   5.287   1.639  1.3436 -0.1524  0.5129
 7928TIP3   OH223747   4.547   1.074   1.195 -0.0823 -0.2120 -0.1243
 7928TIP3    H123748   4.471   1.039   1.149 -1.3177  0.5389  1.2684
 7928TIP3    H223749   4.619   1.015   1.171 -1.1605 -1.1357 -1.2034
 7929TIP3   OH223750   4.353   5.528   2.919 -0.2830  0.1001 -0.3802
 7929TIP3    H123751   4.305   5.529   2.836 -0.4596 -2.0782 -0.3660
 7929TIP3    H223752   4.286   5.535   2.986 -0.2025  1.0946 -0.3870
 7930TIP3   OH223753   5.643   2.762   2.829 -0.0888  0.3881  0.4108
 7930TIP3    H123754   5.620   2.828   2.895  1.1783  1.3622 -0.0805
 7930TIP3    H223755   5.623   2.679   2.871  1.7346  0.8983  2.5478
 7931TIP3   OH223756   6.281   0.319   1.566  0.1688 -0.3006 -0.3389
 7931TIP3    H123757   6.371   0.288   1.566 -0.0836 -1.0550  0.7174
 7931TIP3    H223758   6.230   0.247   1.602 -0.7377  0.4599 -0.0550
 7932TIP3   OH223759   2.076   5.274   0.063 -0.4142 -0.3230 -0.2472
 7932TIP3    H123760   2.114   5.212   0.001 -1.5725  0.1358 -1.4479
 7932TIP3    H223761   1.988   5.241   0.078 -0.8452  0.7281 -0.4613
 7933TIP3   OH223762   5.636   2.577   1.178  0.6990  0.2790  0.0983
 7933TIP3    H123763   5.615   2.651   1.121  1.2103  0.1091 -0.3188
 7933TIP3    H223764   5.628   2.500   1.121 -0.3293 -0.0429  0.6549
 7934TIP3   OH223765   0.189   0.004   2.105 -0.2919  0.2165  0.2994
 7934TIP3    H123766   0.269  -0.046   2.089  0.1995  0.2605  2.3854
 7934TIP3    H223767   0.172   0.049   2.022  1.0655 -0.8528 -0.6005
 7935TIP3   OH223768   2.127   0.951   0.578  0.2250  0.4496  1.0221
 7935TIP3    H123769   2.086   0.885   0.634  0.9248  0.8781  2.0755
 7935TIP3    H223770   2.185   0.999   0.637  0.7811  1.0941 -0.0274
 7936TIP3   OH223771   5.434   1.129   1.085  0.2528  0.4427 -0.1780
 7936TIP3    H123772   5.491   1.200   1.116 -1.1629  0.8749  1.6513
 7936TIP3    H223773   5.451   1.057   1.145 -0.3270  0.2143 -0.2814
 7937TIP3   OH223774   5.903   3.312   4.706 -0.2889  0.0516 -0.3862
 7937TIP3    H123775   5.983   3.311   4.759 -0.5692  0.3771  0.0506
 7937TIP3    H223776   5.894   3.222   4.675  2.0511  0.6363 -3.1913
 7938TIP3   OH223777   2.368   2.014   3.357 -0.2228  0.3650  0.0816
 7938TIP3    H123778   2.381   2.109   3.357  0.3618  0.2876 -0.1760
 7938TIP3    H223779   2.445   1.979   3.313 -0.2027 -0.2626  0.5939
 7939TIP3   OH223780   3.265   0.457   1.452  0.0803 -0.0980 -0.0723
 7939TIP3    H123781   3.177   0.449   1.487  0.3449 -0.0484  0.6088
 7939TIP3    H223782   3.301   0.368   1.457 -1.1873 -1.0263 -3.8199
 7940TIP3   OH223783   4.914   2.206   1.919  0.4300 -0.2001  0.7647
 7940TIP3    H123784   4.970   2.280   1.944  0.9393 -0.3710  0.1582
 7940TIP3    H223785   4.962   2.129   1.948 -0.8208 -0.2750  2.8250
 7941TIP3   OH223786   6.337   0.268   3.968  0.8676 -0.4061 -0.3664
 7941TIP3    H123787   6.373   0.246   4.054  2.6981 -0.3876 -1.0906
 7941TIP3    H223788   6.276   0.197   3.949  0.0769 -0.1725  1.1271
 7942TIP3   OH223789   6.925   4.028   1.954  0.0292  0.2997  0.5301
 7942TIP3    H123790   6.996   3.965   1.943  0.4680  1.0154 -0.9112
 7942TIP3    H223791   6.845   3.976   1.946  0.3642 -0.4397  1.7365
 7943TIP3   OH223792   1.557   4.570   0.362 -0.6533  0.4188  0.0683
 7943TIP3    H123793   1.614   4.572   0.438 -0.8293  2.4843  0.1987
 7943TIP3    H223794   1.611   4.533   0.292 -0.4723 -1.4333  1.1088
 7944TIP3   OH223795   1.467   0.506   5.306 -0.4170 -0.6032 -0.4231
 7944TIP3    H123796   1.549   0.537   5.268 -1.5220  2.2601 -0.7724
 7944TIP3    H223797   1.474   0.527   5.399 -0.5975 -0.7230 -0.3817
 7945TIP3   OH223798   4.918   4.536   1.421  0.3628  0.2484  0.4899
 7945TIP3    H123799   4.978   4.489   1.364  0.5003  1.1728 -0.1543
 7945TIP3    H223800   4.974   4.597   1.471 -0.0226  1.1393 -0.1405
 7946TIP3   OH223801   6.755   0.606   4.324  0.2108  0.7315  0.5916
 7946TIP3    H123802   6.845   0.619   4.295 -0.6511 -0.3528 -3.1006
 7946TIP3    H223803   6.747   0.512   4.338 -0.6198  0.6291 -0.4273
 7947TIP3   OH223804   2.298   1.154   2.001  0.0242  0.4295  0.1149
 7947TIP3    H123805   2.330   1.240   1.974  0.4506  1.0797  2.4917
 7947TIP3    H223806   2.344   1.136   2.083 -2.9258 -0.2964  1.7412
 7948TIP3   OH223807   7.031   0.123   0.917  0.7888 -0.3570  0.2196
 7948TIP3    H123808   7.000   0.097   0.830  1.0172 -0.0663  0.0497
 7948TIP3    H223809   7.034   0.042   0.967  0.1254 -0.4455  0.1218
 7949TIP3   OH223810   6.620   1.528   0.859  0.4742  0.5124  0.1762
 7949TIP3    H123811   6.642   1.524   0.952 -0.9871 -2.0297  0.5133
 7949TIP3    H223812   6.699   1.560   0.816  2.1978 -1.0598  2.0151
 7950TIP3   OH223813   5.672   2.476   3.395  0.1333  0.4525 -0.2631
 7950TIP3    H123814   5.684   2.410   3.463 -0.7862  0.5310 -0.0140
 7950TIP3    H223815   5.690   2.429   3.313  1.0192  0.3018  0.0021
 7951TIP3   OH223816   0.641   1.578   4.464 -0.4446 -0.2285  0.2423
 7951TIP3    H123817   0.553   1.554   4.495  0.5872 -2.0214  1.9446
 7951TIP3    H223818   0.643   1.548   4.373 -2.4760  2.3521 -0.7980
 7952TIP3   OH223819   6.410   2.850   3.659  0.2333 -0.1601 -0.0312
 7952TIP3    H123820   6.486   2.895   3.697  0.5759 -0.9848  0.2891
 7952TIP3    H223821   6.413   2.873   3.566  1.4515 -0.9563 -0.2093
 7953TIP3   OH223822   3.478   5.405   0.646 -0.3310 -0.5001 -0.3842
 7953TIP3    H123823   3.452   5.337   0.585 -1.4761 -0.6988  0.3003
 7953TIP3    H223824   3.401   5.420   0.700 -0.0979  1.3027 -0.4802
 7954TIP3   OH223825   4.235   3.888   3.702 -0.0515  0.0202  0.6533
 7954TIP3    H123826   4.325   3.899   3.673  0.0873 -1.1486  0.5662
 7954TIP3    H223827   4.190   3.850   3.626 -0.4697  0.0422  0.8853
 7955TIP3   OH223828   6.005   2.932   3.121  0.2482 -0.4514 -0.2006
 7955TIP3    H123829   6.046   2.879   3.053 -3.2233 -2.4001 -0.9815
 7955TIP3    H223830   6.054   3.014   3.120  1.5602 -1.1111 -3.6949
 7956TIP3   OH223831   2.891   4.157   2.995 -0.3092 -0.0680 -0.0759
 7956TIP3    H123832   2.962   4.214   2.965 -1.4490  0.6512 -1.5376
 7956TIP3    H223833   2.932   4.098   3.059  1.5241  0.4894 -0.6925
 7957TIP3   OH223834   2.710   1.427   2.254  0.3417 -0.1681  0.2409
 7957TIP3    H123835   2.644   1.439   2.322  0.5992 -1.3232  0.7133
 7957TIP3    H223836   2.779   1.376   2.296  1.5183  0.9475 -0.2706
 7958TIP3   OH223837   5.334   2.950   1.721  0.1638 -0.6605 -0.1542
 7958TIP3    H123838   5.348   2.964   1.815  0.0164 -1.6150  0.0293
 7958TIP3    H223839   5.389   3.015   1.678  0.7519 -0.6465  0.5953
 7959TIP3   OH223840   0.240   2.176   2.902 -0.2126  0.1017  0.4158
 7959TIP3    H123841   0.302   2.202   2.969  1.7432 -2.1148 -0.3764
 7959TIP3    H223842   0.273   2.215   2.821 -2.0266  1.9793  0.4937
 7960TIP3   OH223843   2.680   0.564   2.164  0.2131 -0.0645  0.1152
 7960TIP3    H123844   2.622   0.498   2.126  1.1124  0.0642 -1.6413
 7960TIP3    H223845   2.760   0.515   2.186 -0.1662 -0.0624  1.5347
 7961TIP3   OH223846   5.061   1.249   2.150 -0.2556 -0.2264 -0.0776
 7961TIP3    H123847   5.023   1.166   2.178  0.2136 -0.7707 -0.9600
 7961TIP3    H223848   5.153   1.243   2.176  0.3381 -0.9990 -2.1019
 7962TIP3   OH223849   2.943   4.339   0.183 -0.4070  0.2127 -0.1093
 7962TIP3    H123850   2.850   4.356   0.164 -0.8274  0.0916  1.6872
 7962TIP3    H223851   2.953   4.362   0.275  0.9193 -1.5309  0.2345
 7963TIP3   OH223852   3.316   4.903   2.466 -0.6463 -0.1771 -0.4537
 7963TIP3    H123853   3.332   4.993   2.438 -1.4481 -0.0876 -0.6472
 7963TIP3    H223854   3.224   4.902   2.494 -0.3769 -0.7056  0.4563
 7964TIP3   OH223855   7.033   5.427   0.681 -0.2086 -0.0392  0.0416
 7964TIP3    H123856   6.980   5.455   0.756  1.4000 -1.2038  1.7149
 7964TIP3    H223857   7.120   5.413   0.718 -0.1678 -4.4568 -1.0898
 7965TIP3   OH223858   6.791   4.123   2.852 -0.5004  0.0003 -0.2508
 7965TIP3    H123859   6.708   4.081   2.873 -0.5221 -0.4150 -1.1257
 7965TIP3    H223860   6.845   4.109   2.930 -0.5368 -1.6089 -0.4866
 7966TIP3   OH223861   6.553   0.895   2.146  0.1192  0.0212  0.2417
 7966TIP3    H123862   6.480   0.956   2.146  0.2238  0.1894  1.4869
 7966TIP3    H223863   6.538   0.839   2.223  0.7337 -0.6407 -0.0957
 7967TIP3   OH223864   5.144   4.135   5.490 -0.0738 -0.4554 -0.3826
 7967TIP3    H123865   5.173   4.079   5.562  0.6086  1.5351  0.9750
 7967TIP3    H223866   5.106   4.212   5.533 -0.6429  0.3220 -2.1704
 7968TIP3   OH223867   3.436   6.669   2.237  0.1484  0.0669  0.0353
 7968TIP3    H123868   3.490   6.748   2.223  0.9754 -0.3865  0.6051
 7968TIP3    H223869   3.500   6.600   2.253 -0.6181 -0.4544  0.8911
 7969TIP3   OH223870   3.870   3.662   0.310 -0.0172 -0.4646  0.2287
 7969TIP3    H123871   3.949   3.632   0.267  0.6605 -0.1907  1.2385
 7969TIP3    H223872   3.872   3.758   0.303  0.1889 -0.4027  0.9790
 7970TIP3   OH223873   6.674   5.916   3.366  0.0361 -0.5042 -0.2870
 7970TIP3    H123874   6.628   5.999   3.373  1.0865 -0.0321  1.4096
 7970TIP3    H223875   6.668   5.878   3.454  0.0269 -1.9939 -0.8989
 7971TIP3   OH223876   7.177   0.236   4.691 -0.3559  0.0388  0.2071
 7971TIP3    H123877   7.085   0.257   4.681 -0.0993  1.0052 -0.1973
 7971TIP3    H223878   7.178   0.141   4.707 -1.2657 -0.5337 -2.4636
 7972TIP3   OH223879   5.425   5.852   3.250 -0.0159  0.2281 -0.3736
 7972TIP3    H123880   5.388   5.940   3.260 -0.4779  0.2043 -1.6754
 7972TIP3    H223881   5.404   5.807   3.332 -0.9621  0.9137 -0.2256
 7973TIP3   OH223882   4.788   6.324   1.526 -0.5220  0.5846 -0.2124
 7973TIP3    H123883   4.876   6.296   1.500 -0.7251  1.7461 -2.3648
 7973TIP3    H223884   4.747   6.244   1.560  1.0263 -0.1933 -0.0724
 7974TIP3   OH223885   5.874   6.413   5.194  0.0767 -0.2924  0.1750
 7974TIP3    H123886   5.880   6.318   5.195 -0.9655 -0.3684  1.2080
 7974TIP3    H223887   5.939   6.442   5.258  0.7512 -0.2630 -0.5039
 7975TIP3   OH223888   0.375   0.851   5.653  0.1243  0.0681 -0.1202
 7975TIP3    H123889   0.405   0.923   5.597  2.1305 -2.0976 -2.0713
 7975TIP3    H223890   0.330   0.791   5.593 -1.7466 -0.2471  1.4957
 7976TIP3   OH223891   6.515   0.296   2.529  0.3498  0.6663  0.3147
 7976TIP3    H123892   6.492   0.273   2.440  1.2256 -0.4702  0.3567
 7976TIP3    H223893   6.475   0.382   2.543  0.2679  0.8965 -1.1832
 7977TIP3   OH223894   1.868   5.696   5.599  0.0775  0.1725  0.7501
 7977TIP3    H123895   1.849   5.672   5.508  2.5024  0.7557  0.0105
 7977TIP3    H223896   1.784   5.686   5.644 -1.5129  1.0351 -1.7817
 7978TIP3   OH223897   2.619   1.950   4.316  0.1400  0.0802  0.1300
 7978TIP3    H123898   2.652   2.026   4.269 -0.6864  0.1877 -0.3099
 7978TIP3    H223899   2.525   1.967   4.324  0.0611 -0.5754  0.6270
 7979TIP3   OH223900   0.448   4.599   3.581 -0.0285  0.0682 -0.5261
 7979TIP3    H123901   0.464   4.528   3.518 -1.3154 -1.0136  0.3257
 7979TIP3    H223902   0.415   4.671   3.527  0.1055 -0.3969 -1.2489
 7980TIP3   OH223903   5.865   3.071   4.528  0.1358 -0.5000 -0.2355
 7980TIP3    H123904   5.821   3.131   4.468  0.1314 -0.3859 -0.1189
 7980TIP3    H223905   5.795   3.018   4.566 -0.2521  1.3595  1.8717
 7981TIP3   OH223906   0.307   2.168   0.533 -0.3994 -0.4702 -0.5169
 7981TIP3    H123907   0.253   2.103   0.488  1.1194 -3.2842  1.4008
 7981TIP3    H223908   0.390   2.169   0.485 -0.7979  1.0006 -1.2244
 7982TIP3   OH223909   4.171   2.274   1.331  0.2335  0.1546  0.7265
 7982TIP3    H123910   4.165   2.193   1.382 -1.1062 -2.0595 -2.6155
 7982TIP3    H223911   4.263   2.279   1.305  0.7014  0.7430  2.3759
 7983TIP3   OH223912   6.643   1.016   2.827 -0.7652 -0.1827 -0.2286
 7983TIP3    H123913   6.709   0.955   2.794 -0.4122  0.3535 -0.5180
 7983TIP3    H223914   6.690   1.072   2.889 -1.1717 -0.4404  0.3199
 7984TIP3   OH223915   1.304   3.157   2.193  0.3002  0.2506  0.1557
 7984TIP3    H123916   1.208   3.157   2.199  0.3634 -1.2323  1.9068
 7984TIP3    H223917   1.331   3.239   2.234 -0.1804 -0.1121  1.2310
 7985TIP3   OH223918   6.180   6.509   1.235  0.2232  0.5185 -0.4827
 7985TIP3    H123919   6.137   6.529   1.319 -2.2847  0.9635 -1.7514
 7985TIP3    H223920   6.198   6.416   1.239 -1.6485  0.1167 -0.1208
 7986TIP3   OH223921   5.959   4.139   2.196  0.4054 -0.3231 -0.1975
 7986TIP3    H123922   5.913   4.106   2.273  0.3564 -0.9523 -0.4849
 7986TIP3    H223923   6.038   4.084   2.190  1.1601  0.6912  0.2434
 7987TIP3   OH223924   1.938   1.347   0.057  0.1536 -0.2202 -0.3153
 7987TIP3    H123925   1.934   1.433   0.098  0.1803 -0.6542  0.6342
 7987TIP3    H223926   1.926   1.286   0.129  1.3728 -1.0459 -0.7911
 7988TIP3   OH223927   1.830   6.466   4.719 -0.1595 -0.3354  0.0866
 7988TIP3    H123928   1.925   6.456   4.724  0.0842  1.8817  1.0179
 7988TIP3    H223929   1.807   6.431   4.633  1.8586  1.2277 -1.2051
 7989TIP3   OH223930   4.842   1.553   4.173 -0.2062 -0.8177  0.5910
 7989TIP3    H123931   4.915   1.616   4.169 -0.2768 -0.7474  0.3299
 7989TIP3    H223932   4.884   1.468   4.184 -0.0325 -0.8714 -0.3754
 7990TIP3   OH223933   3.924   0.822   4.191  0.8124  0.3598 -0.3925
 7990TIP3    H123934   3.957   0.896   4.242 -1.1718  0.9517  0.1008
 7990TIP3    H223935   3.839   0.851   4.158 -0.0723 -1.7171 -0.1034
 7991TIP3   OH223936   6.962   2.088   4.283 -0.9570  0.0231  0.1054
 7991TIP3    H123937   6.964   2.183   4.295 -1.1209 -0.0476  0.7163
 7991TIP3    H223938   7.047   2.058   4.314 -1.0938 -0.0814  0.3825
 7992TIP3   OH223939   6.455   0.333   1.910 -0.1320  0.0921  0.1266
 7992TIP3    H123940   6.551   0.324   1.912 -0.0809  0.1905 -1.1609
 7992TIP3    H223941   6.438   0.414   1.959  0.6676  1.4695 -1.7588
 7993TIP3   OH223942   4.671   6.734   1.311  0.1809 -0.3897 -0.1349
 7993TIP3    H123943   4.627   6.686   1.241 -1.0501  1.0835 -0.4279
 7993TIP3    H223944   4.763   6.735   1.285 -0.1488 -0.4719 -1.3620
 7994TIP3   OH223945   0.580   6.590   1.727  0.0073 -0.1735 -0.1368
 7994TIP3    H123946   0.625   6.622   1.806 -0.1307 -0.4100  0.0413
 7994TIP3    H223947   0.531   6.514   1.758 -2.4623  1.4568  0.2285
 7995TIP3   OH223948   3.701   3.524   1.322 -0.5066  0.0517  0.1339
 7995TIP3    H123949   3.728   3.539   1.412 -0.5280 -0.3840  0.2144
 7995TIP3    H223950   3.755   3.451   1.292  0.4784  1.0745 -0.6566
 7996TIP3   OH223951   6.572   0.561   2.106  0.4380  0.4126  0.1993
 7996TIP3    H123952   6.553   0.647   2.142  0.5953  0.0069  1.2853
 7996TIP3    H223953   6.667   0.558   2.097  0.4475  0.2873  0.3322
 7997TIP3   OH223954   1.911   4.735   3.567  0.4038  0.2923 -0.4203
 7997TIP3    H123955   1.888   4.805   3.628  0.3038  1.3251 -1.6179
 7997TIP3    H223956   1.830   4.686   3.555  0.5913 -0.3454  0.7980
 7998TIP3   OH223957   1.403   6.768   2.311  0.2755  0.0048 -0.4334
 7998TIP3    H123958   1.330   6.824   2.285 -1.4797 -2.0156 -0.0595
 7998TIP3    H223959   1.431   6.803   2.396 -0.7057  0.3978 -0.2621
 7999TIP3   OH223960   7.119   1.540  -0.011  0.3960 -0.2685 -0.2031
 7999TIP3    H123961   7.065   1.475   0.035 -0.0199  0.0937 -0.1664
 7999TIP3    H223962   7.209   1.514   0.008  0.3563 -2.6567 -2.6772
 8000TIP3   OH223963   6.109   4.579   1.515 -0.1428  0.5070  0.2526
 8000TIP3    H123964   6.155   4.661   1.501 -1.6554  1.0043 -2.4071
 8000TIP3    H223965   6.144   4.519   1.449  0.0913 -0.6519  1.3741
 8001TIP3   OH223966   5.943   0.764   0.359 -0.1489 -0.4858  0.1766
 8001TIP3    H123967   6.007   0.811   0.412 -0.6827  0.8639 -0.3095
 8001TIP3    H223968   5.992   0.733   0.283  0.4253 -1.6349  0.9916
 8002TIP3   OH223969   0.296   1.062   5.359 -0.1962 -0.2620 -0.1205
 8002TIP3    H123970   0.276   0.969   5.368 -0.7936  0.0408  2.1172
 8002TIP3    H223971   0.366   1.078   5.422  2.4849  0.1662 -2.9244
 8003TIP3   OH223972   2.249   0.261   3.309  0.3039 -0.2037  0.5593
 8003TIP3    H123973   2.242   0.246   3.404 -1.6919  1.5638  0.7611
 8003TIP3    H223974   2.308   0.335   3.301  0.5429 -0.4099  0.4085
 8004TIP3   OH223975   0.308   5.053   0.763 -0.2338 -0.0076  0.4362
 8004TIP3    H123976   0.315   5.148   0.770  0.0500 -0.0444  0.6852
 8004TIP3    H223977   0.386   5.020   0.807  0.7465 -0.3023 -1.4279
 8005TIP3   OH223978   1.091   4.039   1.616  0.2759  0.0089  0.5441
 8005TIP3    H123979   1.102   4.000   1.703  1.0592  0.0845  0.4811
 8005TIP3    H223980   0.996   4.047   1.606  0.1301 -1.0825  0.9111
 8006TIP3   OH223981   6.023   2.665   0.915  0.5303 -0.1046 -0.0496
 8006TIP3    H123982   6.090   2.602   0.891  2.4509  1.6937  0.2703
 8006TIP3    H223983   6.057   2.749   0.884 -0.9308  1.0741  1.3559
 8007TIP3   OH223984   3.061   5.884   0.927  0.5308 -0.3697 -0.0529
 8007TIP3    H123985   3.022   5.911   0.844 -2.1095  0.2774  1.2794
 8007TIP3    H223986   2.987   5.851   0.979  2.3974 -2.7108  1.3307
 8008TIP3   OH223987   2.848   6.021   3.020 -0.0633 -0.1718  0.4195
 8008TIP3    H123988   2.831   6.085   3.089  1.7551  0.1080  0.6438
 8008TIP3    H223989   2.856   6.073   2.940 -1.9511 -0.4758 -0.0172
 8009TIP3   OH223990   0.373   2.386   0.164 -0.7325  0.3733 -0.3208
 8009TIP3    H123991   0.402   2.477   0.170  0.9967  0.0376 -2.3587
 8009TIP3    H223992   0.341   2.377   0.074 -2.5920 -0.6040  0.3914
 8010TIP3   OH223993   4.215   1.458   0.900 -0.3599  0.2973  0.8820
 8010TIP3    H123994   4.175   1.530   0.949  0.2024  1.7088 -0.6452
 8010TIP3    H223995   4.243   1.396   0.967 -4.2124 -0.3937  2.1139
 8011TIP3   OH223996   2.412   4.498   0.136 -0.0996  0.0556 -0.5400
 8011TIP3    H123997   2.380   4.413   0.167  0.9071 -0.1984 -0.1477
 8011TIP3    H223998   2.355   4.562   0.179  0.9786 -0.2976  1.5599
 8012TIP3   OH223999   0.981   1.025   4.299  0.5527 -0.5217 -0.3943
 8012TIP3    H124000   1.002   1.090   4.232  0.7842 -0.1886 -0.0023
 8012TIP3    H224001   0.989   0.941   4.254  1.7722 -0.3578 -0.5244
 8013TIP3   OH224002   1.008   1.544   1.702  0.5836 -0.4274 -0.3544
 8013TIP3    H124003   1.064   1.552   1.780 -0.8441 -0.8708  0.7579
 8013TIP3    H224004   0.926   1.587   1.727  0.0298 -0.7390 -1.5611
 8014TIP3   OH224005   4.789   2.079   4.589 -0.0707  0.6580  0.1394
 8014TIP3    H124006   4.820   2.087   4.680 -0.3350  2.0728  0.1281
 8014TIP3    H224007   4.776   1.985   4.577 -1.1488  0.5238  1.9454
 8015TIP3   OH224008   4.786   0.082   3.291 -0.0678 -0.4147 -0.0980
 8015TIP3    H124009   4.786   0.105   3.198  0.5850  1.1292  0.2657
 8015TIP3    H224010   4.696   0.053   3.308 -0.3289 -0.2226 -1.0852
 8016TIP3   OH224011   6.942   4.439   4.819  0.1739  0.4301 -0.7850
 8016TIP3    H124012   6.920   4.513   4.762 -1.9277 -0.8485 -1.7196
 8016TIP3    H224013   6.879   4.371   4.797  1.2770 -1.2501  0.9047
 8017TIP3   OH224014   6.061   6.270   2.053  0.6260 -0.4640  0.2080
 8017TIP3    H124015   6.098   6.182   2.052 -0.1321 -0.8161  1.3551
 8017TIP3    H224016   5.984   6.263   2.109  0.4051  0.8745  0.1031
 8018TIP3   OH224017   5.626   4.098   5.705 -0.0353 -0.1437  0.1507
 8018TIP3    H124018   5.638   4.080   5.612  0.9032 -0.3270  0.2986
 8018TIP3    H224019   5.535   4.074   5.722 -0.2881  0.1124 -0.7630
 8019TIP3   OH224020   2.795   6.551   5.542  0.0056 -0.3040  0.7585
 8019TIP3    H124021   2.731   6.507   5.598  0.6779 -0.2552  1.5840
 8019TIP3    H224022   2.743   6.611   5.488 -0.4958  0.9092  2.5270
 8020TIP3   OH224023   0.910   3.423   0.342 -0.2337  0.5421  0.3758
 8020TIP3    H124024   0.945   3.400   0.257  0.0820  1.9458  0.0937
 8020TIP3    H224025   0.816   3.436   0.327 -0.4560 -0.7502  0.5909
 8021TIP3   OH224026   1.769   6.797   0.543 -0.2396 -0.2446 -0.1826
 8021TIP3    H124027   1.784   6.716   0.593 -1.5415 -0.7979 -0.6332
 8021TIP3    H224028   1.856   6.833   0.528  0.2379  0.2643  2.9659
 8022TIP3   OH224029   4.931   1.682   4.915 -0.0386  0.2316 -0.0528
 8022TIP3    H124030   4.869   1.714   4.849 -1.7643 -0.0830  1.3388
 8022TIP3    H224031   4.889   1.603   4.951  0.8180  0.4109  1.4314
 8023TIP3   OH224032   2.354   4.126   1.020 -0.5404 -0.5869 -0.0615
 8023TIP3    H124033   2.389   4.136   0.932  2.6851  0.1851  1.1500
 8023TIP3    H224034   2.328   4.215   1.046 -2.0871 -0.9113 -0.3900
 8024TIP3   OH224035   2.675   0.276   5.007 -0.2025 -0.0822  0.2264
 8024TIP3    H124036   2.593   0.259   5.054 -0.3538 -0.8343 -0.2878
 8024TIP3    H224037   2.740   0.225   5.055  0.0130  0.6476  0.7357
 8025TIP3   OH224038   2.609   2.369   0.970  0.3629  0.1355  0.1633
 8025TIP3    H124039   2.635   2.411   1.052  1.2290 -2.2875  1.2378
 8025TIP3    H224040   2.685   2.315   0.946 -0.3936 -0.2420 -1.5105
 8026TIP3   OH224041   3.055   5.155   1.902  0.0414 -0.0455  0.2535
 8026TIP3    H124042   2.999   5.097   1.851 -1.6542  0.9228  0.9236
 8026TIP3    H224043   3.038   5.131   1.993  0.1829  0.7326  0.4936
 8027TIP3   OH224044   3.225   0.560   2.384  0.2692 -0.1132 -0.8485
 8027TIP3    H124045   3.253   0.557   2.476 -0.2679 -0.8784 -0.6974
 8027TIP3    H224046   3.177   0.478   2.372 -0.2011  0.2741 -1.6457
 8028TIP3   OH224047   4.827   1.484   0.131 -0.4720 -0.0174 -0.0774
 8028TIP3    H124048   4.757   1.515   0.189 -0.1207 -1.4842  1.1983
 8028TIP3    H224049   4.800   1.397   0.103  1.2022 -1.0360  1.2214
 8029TIP3   OH224050   3.962   4.272   3.192 -0.2094 -0.5042 -0.2917
 8029TIP3    H124051   4.000   4.191   3.227 -0.1603 -0.0667  0.6763
 8029TIP3    H224052   3.871   4.269   3.219 -0.6125 -0.9705 -1.5943
 8030TIP3   OH224053   1.854   6.068   3.626 -0.5423 -0.0816 -0.3103
 8030TIP3    H124054   1.925   6.016   3.589  1.7341  1.4725  1.6303
 8030TIP3    H224055   1.813   6.009   3.690  0.1981 -0.3974 -0.1141
 8031TIP3   OH224056   5.236   5.414   4.775  0.8243 -0.6719 -0.0905
 8031TIP3    H124057   5.212   5.366   4.854  1.3851 -0.2776  0.3224
 8031TIP3    H224058   5.152   5.446   4.740  0.6492 -0.0879  0.8366
 8032TIP3   OH224059   3.693   2.221   2.819  0.9685  0.1204  0.2692
 8032TIP3    H124060   3.701   2.125   2.820 -0.4414 -0.0824 -1.8427
 8032TIP3    H224061   3.650   2.242   2.902  0.1325 -1.2379  0.2130
 8033TIP3   OH224062   4.408   0.667   4.311 -0.1417  0.7587 -0.2130
 8033TIP3    H124063   4.480   0.678   4.373 -0.2886 -0.9031  0.3177
 8033TIP3    H224064   4.332   0.703   4.356 -0.1090  0.2201  0.2855
 8034TIP3   OH224065   0.204   4.417   1.381  0.3787  0.4048  0.1887
 8034TIP3    H124066   0.281   4.415   1.438  1.0316 -0.9656 -0.7000
 8034TIP3    H224067   0.130   4.416   1.442  1.0486  1.2983  1.0482
 8035TIP3   OH224068   6.483   6.748   2.433  0.0523 -0.3548  0.2693
 8035TIP3    H124069   6.574   6.751   2.464 -0.1731 -1.9588  1.2197
 8035TIP3    H224070   6.490   6.716   2.343  0.5140  1.1353 -0.2446
 8036TIP3   OH224071   1.962   5.118   2.655 -0.0928  0.5703  0.2043
 8036TIP3    H124072   1.874   5.087   2.677 -0.2498 -0.1786 -1.3282
 8036TIP3    H224073   2.014   5.103   2.734 -1.5031  1.7801  1.4127
 8037TIP3   OH224074   3.027   5.236   4.562 -0.0999  0.3112  0.1266
 8037TIP3    H124075   3.056   5.252   4.651  0.2567  0.8178 -0.0767
 8037TIP3    H224076   3.051   5.315   4.514 -1.3543  0.5319 -0.1751
 8038TIP3   OH224077   6.256   3.349   4.772  0.3960 -0.1310  0.0288
 8038TIP3    H124078   6.337   3.394   4.796  0.4810  0.8999 -1.9727
 8038TIP3    H224079   6.283   3.261   4.747  1.0429  0.4582 -1.4160
 8039TIP3   OH224080   6.479   0.644   4.372 -0.1859  0.3170  0.3315
 8039TIP3    H124081   6.460   0.563   4.324 -0.9169 -0.6936  2.1909
 8039TIP3    H224082   6.573   0.657   4.361 -0.2366 -0.1733 -0.8858
 8040TIP3   OH224083   4.816   2.336   0.590 -0.3866  0.1383  0.2302
 8040TIP3    H124084   4.810   2.253   0.542  1.8778  0.3743 -0.5886
 8040TIP3    H224085   4.907   2.340   0.618 -0.7572  1.8020  1.2995
 8041TIP3   OH224086   3.793   4.738   0.392 -0.2501  0.3825 -0.3688
 8041TIP3    H124087   3.739   4.810   0.360 -0.4511 -0.6714 -2.5484
 8041TIP3    H224088   3.882   4.772   0.392 -0.5014  1.0638  0.0277
 8042TIP3   OH224089   5.935   6.011   1.925 -0.0245 -0.3630  0.1142
 8042TIP3    H124090   6.031   6.017   1.928 -0.0346 -0.7219  1.1802
 8042TIP3    H224091   5.907   6.030   2.014 -1.0394  1.2062 -0.4983
 8043TIP3   OH224092   5.197   0.398   0.134  0.3810  0.7423 -0.4649
 8043TIP3    H124093   5.253   0.391   0.212  2.1027 -1.0587 -1.7430
 8043TIP3    H224094   5.167   0.309   0.119 -0.7635  1.2573 -1.2958
 8044TIP3   OH224095   4.703   4.930   4.486  0.4225 -0.4153 -0.4984
 8044TIP3    H124096   4.633   4.904   4.547  0.9514  0.1401  0.3576
 8044TIP3    H224097   4.780   4.942   4.541  0.4426  2.0546 -0.9692
 8045TIP3   OH224098   0.762   0.714   3.580 -0.0275  0.3697 -0.2021
 8045TIP3    H124099   0.758   0.714   3.675  0.4989 -1.0376 -0.1603
 8045TIP3    H224100   0.852   0.690   3.559  0.0213  1.2221 -1.0645
 8046TIP3   OH224101   0.516   3.141   5.548  0.4552  0.1647  0.3612
 8046TIP3    H124102   0.611   3.130   5.539  0.3532 -0.2323 -0.2474
 8046TIP3    H224103   0.495   3.092   5.628  0.8460  0.7954  0.8677
 8047TIP3   OH224104   6.280   1.013   2.554 -0.6757 -0.2235 -0.3328
 8047TIP3    H124105   6.290   1.003   2.460 -3.0101 -0.5259 -0.5940
 8047TIP3    H224106   6.264   1.106   2.567 -1.1548 -0.3067 -0.3238
 8048TIP3   OH224107   4.195   5.544   4.173  0.1306  0.4363  0.3467
 8048TIP3    H124108   4.226   5.594   4.097 -0.4012 -1.2769 -1.0757
 8048TIP3    H224109   4.099   5.555   4.171  0.1614  0.8580  1.1268
 8049TIP3   OH224110   4.502   5.897   0.229  0.3633 -0.0795  0.4214
 8049TIP3    H124111   4.455   5.935   0.304  0.7758  0.9927  0.1510
 8049TIP3    H224112   4.451   5.819   0.206 -3.0190  2.5217 -1.6958
 8050TIP3   OH224113   3.687   4.935   0.240 -0.3885 -0.5994 -0.1476
 8050TIP3    H124114   3.648   5.021   0.253 -0.3344 -0.7775  1.3556
 8050TIP3    H224115   3.624   4.889   0.184 -1.4206 -0.2385  0.6811
 8051TIP3   OH224116   0.298   0.850   2.369 -0.5606 -0.1446  0.2893
 8051TIP3    H124117   0.284   0.848   2.464  0.5723 -0.0001  0.4701
 8051TIP3    H224118   0.209   0.854   2.332 -1.0126 -0.1054  1.3384
 8052TIP3   OH224119   3.439   4.523   4.419  0.4091 -0.7633 -0.2737
 8052TIP3    H124120   3.395   4.566   4.493  1.7030 -3.0199  1.9882
 8052TIP3    H224121   3.431   4.585   4.347 -3.2278  0.4767  0.9770
 8053TIP3   OH224122   6.979   3.702   3.330  0.1289 -0.0121 -0.8134
 8053TIP3    H124123   6.902   3.671   3.379  0.1069 -1.3929 -1.6551
 8053TIP3    H224124   6.942   3.750   3.256  0.0642 -0.5735 -1.1527
 8054TIP3   OH224125   1.476   4.319   2.628 -0.1453 -0.0507 -0.1688
 8054TIP3    H124126   1.441   4.318   2.717  1.5962  0.0565  0.5507
 8054TIP3    H224127   1.444   4.402   2.591 -0.3944  0.1944  0.5676
 8055TIP3   OH224128   7.036   1.698   5.363 -0.1841  0.0334  0.4432
 8055TIP3    H124129   7.061   1.776   5.313 -1.1363  0.0055 -0.1036
 8055TIP3    H224130   6.970   1.729   5.425 -0.7635 -0.3703  0.0434
 8056TIP3   OH224131   4.570   2.209   5.636 -0.4533 -0.1383  0.4932
 8056TIP3    H124132   4.489   2.176   5.674 -0.3482  0.4603  1.2530
 8056TIP3    H224133   4.559   2.197   5.541 -1.1102 -0.7598  0.6419
 8057TIP3   OH224134   5.406   3.405   4.702  0.1948 -0.5680  0.1729
 8057TIP3    H124135   5.423   3.357   4.621 -0.8544 -0.8345  0.0962
 8057TIP3    H224136   5.419   3.340   4.771 -2.3086 -1.3367  0.0147
 8058TIP3   OH224137   0.763   4.023   1.959  0.7694  0.3658 -0.0296
 8058TIP3    H124138   0.718   4.005   1.877  0.4644  2.2238 -0.3177
 8058TIP3    H224139   0.699   4.071   2.012  1.5564  0.7808  0.5715
 8059TIP3   OH224140   0.205   2.835   3.953 -0.3993  0.3037  0.1062
 8059TIP3    H124141   0.120   2.802   3.924 -0.2997 -0.2475  0.4151
 8059TIP3    H224142   0.224   2.785   4.033  0.2536  0.3481 -0.0127
 8060TIP3   OH224143   6.374   5.466   4.718 -0.5381  0.2266 -0.0209
 8060TIP3    H124144   6.380   5.372   4.734 -1.9059  0.4112  2.0831
 8060TIP3    H224145   6.462   5.492   4.691  0.2418 -1.4254  0.8119
 8061TIP3   OH224146   7.243   4.910   5.238 -0.1443  0.2942 -0.0782
 8061TIP3    H124147   7.189   4.842   5.278  0.2778  0.2786  0.4841
 8061TIP3    H224148   7.216   4.991   5.281 -0.4071  0.4367 -0.5029
 8062TIP3   OH224149   3.747   2.184   0.540  0.6451  0.0315 -0.4313
 8062TIP3    H124150   3.751   2.092   0.512  1.1266  0.5861 -2.3129
 8062TIP3    H224151   3.657   2.211   0.522  0.4205 -0.1403  0.4014
 8063TIP3   OH224152   4.623   4.215   4.917 -0.2288  0.8310  0.1144
 8063TIP3    H124153   4.609   4.134   4.965 -1.5459 -0.0459 -1.6442
 8063TIP3    H224154   4.581   4.201   4.832  3.4810  1.6350 -2.0713
 8064TIP3   OH224155   4.517   2.666   4.393 -0.4546 -0.1729 -0.2683
 8064TIP3    H124156   4.607   2.686   4.369  0.0956 -0.6376  1.2932
 8064TIP3    H224157   4.466   2.739   4.357  0.5058  0.0611 -1.2259
 8065TIP3   OH224158   6.089   2.220   3.624 -0.1573  0.2824  0.6791
 8065TIP3    H124159   6.148   2.189   3.693  1.0964  0.0854 -0.4483
 8065TIP3    H224160   6.053   2.140   3.586 -0.9944  0.3961  1.2043
 8066TIP3   OH224161   5.181   1.205   1.173  0.3940  0.2334 -0.2841
 8066TIP3    H124162   5.258   1.222   1.120  1.0587  1.4222  0.9793
 8066TIP3    H224163   5.179   1.110   1.185  1.2899  0.1332 -0.8666
 8067TIP3   OH224164   3.133   3.143   2.639 -0.0288 -0.1068 -0.1037
 8067TIP3    H124165   3.135   3.089   2.718  0.8541 -0.2918 -0.2360
 8067TIP3    H224166   3.197   3.102   2.581  0.2068  0.7213 -0.4443
 8068TIP3   OH224167   6.671   5.097   0.999 -0.3529  0.4969  0.4116
 8068TIP3    H124168   6.646   5.050   0.919 -1.2732  1.4640  0.1019
 8068TIP3    H224169   6.762   5.072   1.014 -0.6649 -0.9718 -0.0147
 8069TIP3   OH224170   1.747   5.086   4.009 -0.8904  0.0252 -0.2062
 8069TIP3    H124171   1.665   5.133   4.024 -1.1632 -0.2403 -0.8098
 8069TIP3    H224172   1.815   5.145   4.041 -1.4446 -1.0798  3.4947
 8070TIP3   OH224173   4.114   6.598   4.051  0.2879  0.1778  0.1299
 8070TIP3    H124174   4.093   6.635   4.137  0.6748 -1.3830  0.9335
 8070TIP3    H224175   4.042   6.539   4.032  1.2882 -1.1901  0.4522
 8071TIP3   OH224176   3.542   0.768   2.016 -0.2717 -0.3381 -0.0201
 8071TIP3    H124177   3.533   0.825   1.939 -0.4937  2.3442  1.8705
 8071TIP3    H224178   3.452   0.743   2.037 -0.2341 -0.8383 -0.4185
 8072TIP3   OH224179   3.920   0.040   1.583 -0.2095 -0.4111 -0.3306
 8072TIP3    H124180   3.881  -0.027   1.638  0.3841 -0.6835 -0.2279
 8072TIP3    H224181   3.920   0.003   1.495  0.0944 -0.5418 -0.2783
 8073TIP3   OH224182   4.989   1.875   4.652 -0.1182 -0.5174 -0.1818
 8073TIP3    H124183   4.944   1.887   4.736  1.9357  1.0995  0.7765
 8073TIP3    H224184   5.037   1.793   4.663  0.3491 -0.1801  0.3361
 8074TIP3   OH224185   5.450   2.247   4.194 -0.0759 -0.2847 -0.4515
 8074TIP3    H124186   5.427   2.317   4.256 -0.7177  1.2771 -2.3615
 8074TIP3    H224187   5.535   2.216   4.225  0.2652  1.3971  0.4277
 8075TIP3   OH224188   0.265   6.662   5.608  0.1974  0.2388  0.1280
 8075TIP3    H124189   0.258   6.686   5.700 -0.7589 -0.9593  0.3945
 8075TIP3    H224190   0.230   6.573   5.603 -1.3046  0.8481 -1.6236
 8076TIP3   OH224191   4.160   0.459   4.529  0.1897  0.6574  0.2026
 8076TIP3    H124192   4.168   0.554   4.540  0.4116  0.9122 -1.8579
 8076TIP3    H224193   4.098   0.448   4.457 -1.0160 -0.8298  1.4119
 8077TIP3   OH224194   3.740   6.033   2.058  0.5176  0.0864 -0.2642
 8077TIP3    H124195   3.824   6.055   2.018 -0.1780  0.4926 -1.5452
 8077TIP3    H224196   3.759   6.028   2.152  2.3047 -1.4037 -0.6355
 8078TIP3   OH224197   4.770   1.543   3.655  0.3659 -0.1901  0.3126
 8078TIP3    H124198   4.737   1.607   3.718  2.1291 -0.2727  1.3664
 8078TIP3    H224199   4.691   1.508   3.613 -0.9347 -0.5762  2.8758
 8079TIP3   OH224200   6.063   6.531   5.376 -0.0354  0.0732 -0.3441
 8079TIP3    H124201   6.133   6.496   5.432 -0.0129  1.3008  0.4357
 8079TIP3    H224202   6.027   6.605   5.426 -0.3719  0.8757 -1.7291
 8080TIP3   OH224203   3.616   0.571   1.741 -0.0931 -0.0597 -0.3046
 8080TIP3    H124204   3.680   0.618   1.688 -0.9391  0.6854 -0.6859
 8080TIP3    H224205   3.581   0.637   1.802 -0.3123 -0.5150  0.0774
 8081TIP3   OH224206   5.271   4.310   2.281  0.3947 -0.0866  0.4800
 8081TIP3    H124207   5.312   4.235   2.238 -1.2500 -0.9674  0.3385
 8081TIP3    H224208   5.182   4.312   2.244  0.6497  2.4684 -0.1385
 8082TIP3   OH224209   2.194   6.002   4.910  0.6730 -0.4346 -0.5047
 8082TIP3    H124210   2.278   5.991   4.865  0.0345 -3.2842 -1.2373
 8082TIP3    H224211   2.200   5.944   4.986 -0.2543  0.1523  0.0377
 8083TIP3   OH224212   6.716   2.289   3.250 -0.2295  0.2212  0.2616
 8083TIP3    H124213   6.731   2.213   3.193  2.5232  1.3898 -0.7439
 8083TIP3    H224214   6.625   2.315   3.233 -0.8553 -2.0759 -0.2521
 8084TIP3   OH224215   0.264   6.087   2.233 -0.2966  0.6063  0.2318
 8084TIP3    H124216   0.171   6.071   2.221  0.0081 -1.4948  0.3914
 8084TIP3    H224217   0.269   6.147   2.308 -1.4639 -0.9164  1.5790
 8085TIP3   OH224218   2.371   2.547   2.809  0.2310  0.3329 -0.0682
 8085TIP3    H124219   2.400   2.572   2.721  2.1250  0.0775  0.4339
 8085TIP3    H224220   2.278   2.567   2.810  0.2330  0.6526 -2.0227
 8086TIP3   OH224221   1.426   2.256   2.607  0.1848 -0.5941  0.0671
 8086TIP3    H124222   1.362   2.203   2.654  0.2602 -1.5712 -0.9075
 8086TIP3    H224223   1.486   2.286   2.675 -0.2988 -1.1239  0.7442
 8087TIP3   OH224224   5.509   3.016   1.105 -0.7555 -0.4039 -0.0818
 8087TIP3    H124225   5.553   3.083   1.157  1.7847 -1.4351 -0.7589
 8087TIP3    H224226   5.434   2.989   1.159  0.0703  0.6354  1.6659
 8088TIP3   OH224227   0.931   1.229   0.776 -0.0547  0.2114  0.2030
 8088TIP3    H124228   0.849   1.255   0.819  0.2491  0.7740  0.4585
 8088TIP3    H224229   0.960   1.152   0.826  0.4631  1.0527  1.2484
 8089TIP3   OH224230   3.827   4.421   3.931  0.0492 -0.0137 -0.5800
 8089TIP3    H124231   3.844   4.387   3.843 -0.7547 -2.0313 -0.0093
 8089TIP3    H224232   3.732   4.419   3.940  0.1449 -0.3559  0.5131
 8090TIP3   OH224233   7.006   3.717   5.070 -0.0131  0.2745 -0.0344
 8090TIP3    H124234   7.013   3.769   5.150 -1.2496  0.9065 -0.3075
 8090TIP3    H224235   7.095   3.689   5.052  0.1089 -1.1397  2.3560
 8091TIP3   OH224236   6.705   2.084   5.171  0.2252 -0.3692 -0.6391
 8091TIP3    H124237   6.623   2.057   5.211  0.3054 -0.4497 -0.5261
 8091TIP3    H224238   6.741   2.004   5.133  0.2247 -0.3235 -0.7372
 8092TIP3   OH224239   4.045  -0.006   1.896 -0.0137 -0.4603 -0.0017
 8092TIP3    H124240   4.070   0.003   1.988  2.6218 -1.5964 -0.5425
 8092TIP3    H224241   4.027   0.084   1.867  0.6269  0.0863  1.2354
 8093TIP3   OH224242   5.232   2.422   2.323  0.3011 -0.4418 -0.2238
 8093TIP3    H124243   5.284   2.360   2.272  2.1201 -0.2902  1.3755
 8093TIP3    H224244   5.225   2.382   2.410 -0.0619  0.7664  0.3170
 8094TIP3   OH224245   1.993   4.712   3.325  0.0443 -0.1752 -0.6042
 8094TIP3    H124246   2.035   4.627   3.312 -1.8591 -1.3408  0.5258
 8094TIP3    H224247   1.953   4.706   3.412  0.0383  1.9799 -0.4045
 8095TIP3   OH224248   6.344   2.445   5.136  0.9068  0.0504 -0.3495
 8095TIP3    H124249   6.425   2.493   5.154  1.3300 -0.7427 -0.1039
 8095TIP3    H224250   6.285   2.470   5.207  0.6540  1.2306 -0.9511
 8096TIP3   OH224251   3.496   4.284   5.202  0.0137 -0.1119 -0.2299
 8096TIP3    H124252   3.485   4.373   5.168 -1.5533 -0.6478 -1.1963
 8096TIP3    H224253   3.575   4.252   5.159  0.6290  0.8107  0.1737
 8097TIP3   OH224254   3.876   2.316   2.163 -0.4723  0.0602 -0.4050
 8097TIP3    H124255   3.943   2.376   2.197 -1.6520  0.8399  0.6023
 8097TIP3    H224256   3.918   2.230   2.168  0.4832  0.5337  0.1584
 8098TIP3   OH224257   5.911   5.250   1.836 -0.0828  0.2180  0.4696
 8098TIP3    H124258   6.001   5.245   1.803 -0.6530  0.4564 -1.2278
 8098TIP3    H224259   5.859   5.272   1.759 -1.6918 -0.5825  1.2866
 8099TIP3   OH224260   4.474   4.850   3.806 -0.0890 -0.3975 -0.1014
 8099TIP3    H124261   4.515   4.905   3.874  1.0731 -0.4415 -0.7459
 8099TIP3    H224262   4.421   4.912   3.755 -0.7973 -0.3252  0.6856
 8100TIP3   OH224263   6.474   0.469   4.595 -0.0387  0.3795 -0.0057
 8100TIP3    H124264   6.480   0.532   4.524 -1.2387  0.6847  0.1262
 8100TIP3    H224265   6.388   0.428   4.583  0.3180 -0.5486  0.4734
 8101TIP3   OH224266   3.761   4.277   2.439  0.0408  0.8187 -0.2858
 8101TIP3    H124267   3.839   4.332   2.441 -0.8165  2.0847 -0.6583
 8101TIP3    H224268   3.736   4.267   2.531 -0.1110  1.5377 -0.2403
 8102TIP3   OH224269   4.737   0.419   0.236  0.3786  0.2984 -0.1490
 8102TIP3    H124270   4.745   0.408   0.331  0.5730 -0.8533 -0.2831
 8102TIP3    H224271   4.645   0.443   0.222  0.3223  0.3537  0.3143
 8103TIP3   OH224272   6.096   3.869   5.093 -0.0233 -0.0547  0.0865
 8103TIP3    H124273   6.069   3.894   5.005  0.9764  0.6169 -0.0449
 8103TIP3    H224274   6.032   3.804   5.120 -1.1045  0.6775 -0.6333
 8104TIP3   OH224275   4.493   3.657   2.055 -0.4833 -0.1759 -0.5328
 8104TIP3    H124276   4.483   3.746   2.020  0.6309  0.4497  0.6570
 8104TIP3    H224277   4.572   3.661   2.109  0.2266 -2.1689 -1.3006
 8105TIP3   OH224278   2.177   5.745   4.318 -0.2458 -0.3841  0.0310
 8105TIP3    H124279   2.249   5.798   4.284 -0.9624  1.2661  0.9594
 8105TIP3    H224280   2.098   5.783   4.279 -0.7088 -1.6147 -0.2931
 8106TIP3   OH224281   2.281   6.658   0.025 -0.4494 -0.0409 -0.3307
 8106TIP3    H124282   2.242   6.734   0.069 -2.3008 -1.1965  0.1459
 8106TIP3    H224283   2.206   6.605  -0.002  0.7775 -2.1020  0.0644
 8107TIP3   OH224284   1.787   4.801   2.483  0.1781  0.3965 -0.3683
 8107TIP3    H124285   1.855   4.841   2.538 -0.5380  1.6466 -0.3606
 8107TIP3    H224286   1.807   4.833   2.395  0.3874 -0.3371 -0.5957
 8108TIP3   OH224287   3.171   5.336   0.679  0.0067  0.5217 -0.2347
 8108TIP3    H124288   3.154   5.406   0.742 -3.0952  0.8553 -1.2753
 8108TIP3    H224289   3.084   5.312   0.645  1.1736 -2.3305 -1.5391
 8109TIP3   OH224290   1.899   2.739   0.555  0.9309  0.5849 -0.1982
 8109TIP3    H124291   1.904   2.763   0.462  1.9852 -0.8519 -0.5355
 8109TIP3    H224292   1.817   2.691   0.563  0.7491  0.8668 -0.3380
 8110TIP3   OH224293   0.594   4.203   2.108  0.2396 -0.3875 -0.1426
 8110TIP3    H124294   0.589   4.186   2.202 -1.0163  0.4942 -0.0163
 8110TIP3    H224295   0.636   4.289   2.101  1.7029 -1.0985 -0.4880
 8111TIP3   OH224296   0.532   1.528   0.229  0.4656 -0.3848  0.3405
 8111TIP3    H124297   0.577   1.527   0.313 -0.8740 -1.1773  1.0796
 8111TIP3    H224298   0.558   1.447   0.186  0.1506 -0.5879  0.5363
 8112TIP3   OH224299   2.313   3.586   3.894 -0.1796 -0.2063  0.2420
 8112TIP3    H124300   2.295   3.637   3.814  3.0984  1.5614  0.4558
 8112TIP3    H224301   2.314   3.651   3.964  1.2997 -0.9731  0.9864
 8113TIP3   OH224302   0.743   2.898   0.139 -0.2249  0.2365  0.4594
 8113TIP3    H124303   0.831   2.880   0.174 -0.5592 -1.5965  0.4636
 8113TIP3    H224304   0.684   2.850   0.197 -1.0762  0.0394 -0.5399
 8114TIP3   OH224305   0.485   0.410   3.709 -0.1153  0.7376 -0.1510
 8114TIP3    H124306   0.468   0.316   3.699 -1.6572  1.0367 -0.6200
 8114TIP3    H224307   0.446   0.450   3.631  0.7143  1.7616 -0.0653
 8115TIP3   OH224308   2.050   3.107   1.377  0.3640 -0.1756  0.3044
 8115TIP3    H124309   1.988   3.156   1.431 -0.9392 -1.6847  0.2176
 8115TIP3    H224310   2.136   3.129   1.415 -0.2868  1.0333  1.1580
 8116TIP3   OH224311   0.910   3.495   0.812  0.3928 -0.0699 -0.0377
 8116TIP3    H124312   0.995   3.477   0.854  0.6159 -1.1712 -0.9152
 8116TIP3    H224313   0.925   3.574   0.760  1.4754 -1.3040 -1.7020
 8117TIP3   OH224314   0.761   4.635   5.357  0.5357  0.2473  0.4149
 8117TIP3    H124315   0.843   4.676   5.385  1.1090 -1.5196  1.4946
 8117TIP3    H224316   0.782   4.598   5.271  0.4933  0.8299  0.1486
 8118TIP3   OH224317   3.173   2.310   2.160  0.4408 -0.3573 -0.6359
 8118TIP3    H124318   3.136   2.257   2.089 -0.3240 -1.2316  0.3713
 8118TIP3    H224319   3.268   2.303   2.148  0.3243 -0.1099 -1.8241
 8119TIP3   OH224320   3.755   0.331   2.524 -0.0020 -0.3097  0.0031
 8119TIP3    H124321   3.700   0.345   2.601  0.7419 -2.0831  0.9040
 8119TIP3    H224322   3.782   0.239   2.530  1.8628  0.1127 -1.2000
 8120TIP3   OH224323   2.386   0.305   4.680  0.1707  0.0333  0.3620
 8120TIP3    H124324   2.346   0.227   4.718 -2.2034  0.1980 -1.5074
 8120TIP3    H224325   2.318   0.372   4.686  1.3512  1.3317 -0.0926
 8121TIP3   OH224326   0.402   0.290   2.315  0.1876 -0.5309  0.1253
 8121TIP3    H124327   0.355   0.360   2.270  0.1432 -0.2616  0.5857
 8121TIP3    H224328   0.494   0.303   2.290  0.1888 -0.2682  0.2628
 8122TIP3   OH224329   2.612   1.601   4.881 -0.3628  0.7323  0.7696
 8122TIP3    H124330   2.650   1.678   4.924  0.8669 -0.7880  2.5468
 8122TIP3    H224331   2.682   1.569   4.823 -0.9947  1.1330 -0.2305
 8123TIP3   OH224332   3.936   2.035   3.692  0.3722  0.8062 -0.3886
 8123TIP3    H124333   3.996   2.104   3.663  0.4720  0.1479 -1.8122
 8123TIP3    H224334   3.850   2.064   3.661  0.3400  0.5196 -0.5660
 8124TIP3   OH224335   1.490   3.789   1.754  0.1038  0.6122  0.7556
 8124TIP3    H124336   1.557   3.745   1.806  1.3452  2.7086  1.0727
 8124TIP3    H224337   1.416   3.729   1.754  1.6855 -1.4520  1.0721
 8125TIP3   OH224338   7.101   4.374   5.658 -0.1118  0.4099  0.3958
 8125TIP3    H124339   7.054   4.442   5.609  1.2873 -0.7490 -2.7817
 8125TIP3    H224340   7.133   4.314   5.592  0.7215 -2.1416  2.9168
 8126TIP3   OH224341   4.761   5.356   5.398 -0.0749 -0.2460 -0.3791
 8126TIP3    H124342   4.721   5.442   5.385  0.9831  0.2613 -0.3981
 8126TIP3    H224343   4.728   5.326   5.483  1.3280  1.2244  0.7387
 8127TIP3   OH224344   1.940   3.273   4.424  0.4824  0.5188 -0.9826
 8127TIP3    H124345   1.991   3.194   4.405  0.5537  0.7132 -1.6300
 8127TIP3    H224346   1.850   3.242   4.431  0.6791  0.1618  0.2369
 8128TIP3   OH224347   6.884   6.506   5.652  0.3313  0.1291 -0.2699
 8128TIP3    H124348   6.886   6.412   5.664 -0.4471 -0.0210 -1.1597
 8128TIP3    H224349   6.791   6.528   5.650  0.4656  1.2399  2.0794
 8129TIP3   OH224350   2.411   2.017   0.102  0.2518  0.4914  0.1333
 8129TIP3    H124351   2.433   1.931   0.064  1.7868  0.2548  1.4470
 8129TIP3    H224352   2.487   2.072   0.082  0.5566  0.6978  1.7380
 8130TIP3   OH224353   2.181   1.807   0.174 -0.2557 -1.3950 -0.7846
 8130TIP3    H124354   2.261   1.768   0.139  0.0165 -1.2154 -0.3638
 8130TIP3    H224355   2.207   1.895   0.201 -0.7138 -1.1506 -1.1206
 8131TIP3   OH224356   5.784   4.816   4.549 -0.1885 -0.0156 -0.3057
 8131TIP3    H124357   5.813   4.836   4.460  1.4956  1.1775  0.4463
 8131TIP3    H224358   5.762   4.902   4.586  0.2013 -0.3613  0.7600
 8132TIP3   OH224359   0.457   2.549   3.400 -0.1783  0.3043 -0.0243
 8132TIP3    H124360   0.446   2.462   3.438  0.3439 -0.1539 -0.8969
 8132TIP3    H224361   0.381   2.560   3.342 -0.1368  0.3528 -0.0700
 8133TIP3   OH224362   6.409   1.260   4.363  0.1185 -0.5775 -0.3029
 8133TIP3    H124363   6.331   1.315   4.376  0.8163  0.4901 -0.5168
 8133TIP3    H224364   6.480   1.308   4.406  0.7551 -1.3100 -0.5149
 8134TIP3   OH224365   0.480   2.715   0.293  0.4143 -0.3960 -0.0165
 8134TIP3    H124366   0.406   2.753   0.339  0.3398 -0.7254  0.1409
 8134TIP3    H224367   0.471   2.745   0.203 -0.1768 -0.8150 -0.1018
 8135TIP3   OH224368   5.826   2.001   4.898  0.3631  0.3219  0.6197
 8135TIP3    H124369   5.848   2.083   4.942 -0.1574  1.0632 -0.4575
 8135TIP3    H224370   5.863   2.010   4.810  1.6593 -1.2631  0.9524
 8136TIP3   OH224371   3.421   5.083   4.601  0.0009 -0.1799 -0.2114
 8136TIP3    H124372   3.349   5.087   4.537  0.9073  1.4044 -1.2267
 8136TIP3    H224373   3.500   5.100   4.549  1.0707 -1.3029  0.9682
 8137TIP3   OH224374   4.166   6.550   4.723 -0.0412  0.0340 -0.6341
 8137TIP3    H124375   4.154   6.508   4.808 -1.4260  0.3339 -0.6704
 8137TIP3    H224376   4.201   6.637   4.744  0.7843 -0.3234 -0.4569
 8138TIP3   OH224377   4.365   3.092   4.009 -0.2366 -0.2887  0.6263
 8138TIP3    H124378   4.277   3.078   4.044 -1.1261 -0.3793 -1.5191
 8138TIP3    H224379   4.385   3.184   4.027 -0.7421 -0.2770  1.1367
 8139TIP3   OH224380   6.331   0.186   4.258 -0.3896 -0.4178  0.7882
 8139TIP3    H124381   6.291   0.108   4.295 -1.5748  0.2614  0.9758
 8139TIP3    H224382   6.263   0.253   4.262  0.0584  0.1913 -0.8826
 8140TIP3   OH224383   5.919   4.916   2.512  0.6236 -0.5509  0.6309
 8140TIP3    H124384   5.952   4.851   2.575  0.5328 -0.3938  0.8426
 8140TIP3    H224385   5.945   4.881   2.427 -1.1696 -1.8820  0.5854
 8141TIP3   OH224386   2.669   6.397   5.019  0.1388 -0.4626  0.4496
 8141TIP3    H124387   2.693   6.307   4.998  2.0242  0.0712  0.1893
 8141TIP3    H224388   2.662   6.399   5.115  1.9626 -0.4877  0.6164
 8142TIP3   OH224389   3.722   1.729   2.623 -0.0516 -0.1869  0.2820
 8142TIP3    H124390   3.756   1.651   2.666 -1.3780 -0.2320  1.3454
 8142TIP3    H224391   3.741   1.717   2.530  1.2531 -0.9698  0.6405
 8143TIP3   OH224392   3.703   5.959   3.405  0.2639  0.2058  0.7571
 8143TIP3    H124393   3.716   5.923   3.318 -0.8847 -0.0788  0.6793
 8143TIP3    H224394   3.608   5.961   3.416  0.3853 -0.0105  2.0948
 8144TIP3   OH224395   2.109   3.890   3.797 -0.0878 -0.0962 -0.1681
 8144TIP3    H124396   2.123   3.937   3.879 -1.3641  0.2093 -0.1041
 8144TIP3    H224397   2.149   3.945   3.730 -0.4828  0.4600  0.0531
 8145TIP3   OH224398   2.348   5.666   2.290  0.0814 -1.0458 -0.0686
 8145TIP3    H124399   2.307   5.678   2.204  1.0054  1.1177 -0.2628
 8145TIP3    H224400   2.285   5.611   2.339 -0.8001 -1.6986 -1.8466
 8146TIP3   OH224401   0.482   6.018   5.133  0.2489  0.1650 -0.4769
 8146TIP3    H124402   0.395   5.989   5.105 -0.5894  0.9697  1.1571
 8146TIP3    H224403   0.483   6.111   5.114  0.1896  0.4407  0.8231
 8147TIP3   OH224404   0.779   4.927   2.998 -0.8721 -0.0835  0.4101
 8147TIP3    H124405   0.798   5.015   3.030 -2.7034  1.1472 -1.6262
 8147TIP3    H224406   0.701   4.901   3.045 -3.0035  1.3397 -2.0839
 8148TIP3   OH224407   7.053   6.456   2.431 -0.2750 -0.3524  0.4420
 8148TIP3    H124408   7.063   6.542   2.471  0.7389 -0.9567  1.5826
 8148TIP3    H224409   7.117   6.456   2.359 -0.8171  0.1063 -0.0447
 8149TIP3   OH224410   5.009   6.671   4.448 -0.1330 -0.2255  0.1323
 8149TIP3    H124411   5.049   6.611   4.384 -1.2391 -0.3881 -0.4430
 8149TIP3    H224412   5.005   6.620   4.529  0.6435 -0.2673  0.1467
 8150TIP3   OH224413   0.135   1.774   5.302  0.0631  0.1248  0.2369
 8150TIP3    H124414   0.177   1.743   5.382  1.9075 -0.7639 -0.9903
 8150TIP3    H224415   0.189   1.847   5.273 -0.0676 -0.1083 -0.6281
 8151TIP3   OH224416   3.258   2.125   2.880  0.4967 -0.0882  0.4464
 8151TIP3    H124417   3.324   2.082   2.935  0.4826  0.6440  1.0645
 8151TIP3    H224418   3.277   2.095   2.791  1.7184  0.1628  0.6012
 8152TIP3   OH224419   3.922   6.688   1.012  0.3559  0.3147  0.0056
 8152TIP3    H124420   4.004   6.696   1.061  0.9764 -2.3115 -0.4200
 8152TIP3    H224421   3.866   6.634   1.068 -0.4232  0.6369 -0.4546
 8153TIP3   OH224422   6.254   3.557   3.530 -0.9360 -0.3364 -0.1152
 8153TIP3    H124423   6.162   3.541   3.549 -1.4059  2.1143  0.0395
 8153TIP3    H224424   6.253   3.613   3.452  0.4607 -0.7903 -0.4877
 8154TIP3   OH224425   0.521   4.969   4.461  0.0781 -0.2696  0.4134
 8154TIP3    H124426   0.515   5.056   4.500 -0.2448 -0.1408  0.0798
 8154TIP3    H224427   0.551   4.913   4.533  2.2563  0.4613  0.1336
 8155TIP3   OH224428   3.944   5.622   3.917 -0.3312  0.0894 -0.1800
 8155TIP3    H124429   3.949   5.596   4.009 -1.3851 -0.4396 -0.2517
 8155TIP3    H224430   3.859   5.588   3.887 -0.8009  1.7619 -0.8756
 8156TIP3   OH224431   2.349   0.009   5.050 -0.3016 -0.1704  0.2130
 8156TIP3    H124432   2.300  -0.028   5.123  0.8026 -2.7483 -0.2438
 8156TIP3    H224433   2.405   0.075   5.090 -1.4360  0.1896  1.2868
 8157TIP3   OH224434   3.987   2.607   2.189  0.6845  0.2883  0.3937
 8157TIP3    H124435   3.997   2.670   2.118  0.7628  0.6719  0.7501
 8157TIP3    H224436   3.917   2.643   2.243  0.1371 -0.3507  0.1386
 8158TIP3   OH224437   1.164   1.554   3.619 -0.0740 -0.1383 -0.0356
 8158TIP3    H124438   1.071   1.556   3.596  0.5619  0.9320 -2.8428
 8158TIP3    H224439   1.183   1.643   3.648  0.4412  0.1453 -1.2090
 8159TIP3   OH224440   1.808   2.296   3.576  0.2727 -1.0658  0.0021
 8159TIP3    H124441   1.853   2.242   3.640  1.8186  0.0469 -0.0941
 8159TIP3    H224442   1.735   2.336   3.624  2.1020  0.7188  1.4831
 8160TIP3   OH224443   1.151   0.520   0.709  0.1061 -0.1447 -0.2676
 8160TIP3    H124444   1.204   0.451   0.749  0.7897 -0.3103 -1.4215
 8160TIP3    H224445   1.189   0.532   0.622  0.1309  1.8343 -0.0200
 8161TIP3   OH224446   0.318   0.094   1.303  0.6268 -0.6157  0.1401
 8161TIP3    H124447   0.379   0.106   1.230 -0.7352  0.3954 -0.8859
 8161TIP3    H224448   0.315  -0.001   1.316  1.2733 -0.7822 -0.8010
 8162TIP3   OH224449   2.742   5.985   1.907 -0.2859  0.3752  0.1045
 8162TIP3    H124450   2.712   6.045   1.976  0.3602  0.9190 -0.0709
 8162TIP3    H224451   2.789   5.917   1.955 -1.4931 -0.3049  0.3511
 8163TIP3   OH224452   2.645   6.000   2.592 -0.1088  0.6657  0.3037
 8163TIP3    H124453   2.594   5.920   2.579  0.9034  0.2680 -1.4663
 8163TIP3    H224454   2.586   6.058   2.640 -1.9136 -0.1055 -0.8715
 8164TIP3   OH224455   0.277   5.106   1.545  0.0051  0.4323  0.0908
 8164TIP3    H124456   0.269   5.177   1.609  0.8549  1.7178 -1.1708
 8164TIP3    H224457   0.196   5.108   1.496 -0.0571  0.3815  0.1908
 8165TIP3   OH224458   3.241   1.166   1.731  0.1183 -0.1985 -0.4832
 8165TIP3    H124459   3.308   1.233   1.740  1.1746 -1.2045 -0.6223
 8165TIP3    H224460   3.236   1.149   1.636 -0.7549  0.2639 -0.5364
 8166TIP3   OH224461   6.139   2.308   0.761  0.3339 -0.1396 -0.2422
 8166TIP3    H124462   6.214   2.265   0.803  0.6041 -0.0084 -0.5808
 8166TIP3    H224463   6.065   2.287   0.817  0.8415  0.8222  0.8406
 8167TIP3   OH224464   4.862   3.130   0.364  0.3477  0.1599  0.0959
 8167TIP3    H124465   4.794   3.140   0.431 -0.0494  1.0608 -0.4144
 8167TIP3    H224466   4.944   3.147   0.410  0.1430  0.0177  0.5172
 8168TIP3   OH224467   5.800   1.087   0.282 -0.0698 -0.2140  0.0875
 8168TIP3    H124468   5.821   1.055   0.194  0.3712 -1.4679  0.6165
 8168TIP3    H224469   5.884   1.082   0.329 -0.6649 -1.4397  1.1055
 8169TIP3   OH224470   4.097   2.268   3.710 -0.1514  0.0761  0.0045
 8169TIP3    H124471   4.163   2.330   3.739 -1.6599  1.6474  0.2744
 8169TIP3    H224472   4.039   2.257   3.785 -1.1843  0.1614 -0.7446
 8170TIP3   OH224473   2.537   5.433   4.266  0.2507  0.2340  0.4106
 8170TIP3    H124474   2.592   5.367   4.222 -1.2026 -0.4776 -0.4058
 8170TIP3    H224475   2.578   5.516   4.244  1.5291 -0.3073  0.6009
 8171TIP3   OH224476   0.649   5.488   4.957  0.4512 -0.0608  0.8501
 8171TIP3    H124477   0.656   5.552   4.887  0.1426 -0.8071  0.1275
 8171TIP3    H224478   0.576   5.519   5.011 -0.2708 -0.2557  0.0082
 8172TIP3   OH224479   0.935   5.385   5.311 -0.4813 -0.2483 -0.1229
 8172TIP3    H124480   0.983   5.460   5.347  1.5779 -1.9870  0.9126
 8172TIP3    H224481   0.935   5.401   5.216 -0.7867  1.4365  0.1257
 8173TIP3   OH224482   1.476   1.520   1.469 -0.5658 -0.0709  0.2726
 8173TIP3    H124483   1.479   1.429   1.497  0.1410  0.1426  0.9315
 8173TIP3    H224484   1.553   1.532   1.414 -1.2392 -0.1402 -0.7061
 8174TIP3   OH224485   0.633   3.189   3.645  0.7205  0.3843  0.2331
 8174TIP3    H124486   0.631   3.130   3.720  0.0111 -0.0075 -0.0822
 8174TIP3    H224487   0.696   3.150   3.585  1.1430  0.5937  0.5367
 8175TIP3   OH224488   6.032   2.274   4.058 -0.2618 -0.3649  0.4873
 8175TIP3    H124489   6.102   2.275   3.992 -0.6273  1.4888  0.0601
 8175TIP3    H224490   5.973   2.205   4.030  0.0622 -0.2015 -0.6330
 8176TIP3   OH224491   0.974   2.646   5.442  0.1319  0.3968 -0.1766
 8176TIP3    H124492   0.994   2.641   5.535  0.7812  0.0983 -0.3245
 8176TIP3    H224493   0.910   2.577   5.427  1.1117 -0.5403 -0.2076
 8177TIP3   OH224494   3.040   6.674   5.547  0.1077  0.3292  0.1041
 8177TIP3    H124495   2.957   6.640   5.514 -0.1856  0.3431  0.8025
 8177TIP3    H224496   3.062   6.617   5.621  0.4419  0.6508  0.2570
 8178TIP3   OH224497   1.259   0.844   3.541 -0.3326 -0.0602  1.1009
 8178TIP3    H124498   1.337   0.806   3.502 -0.0665 -0.8443  2.3267
 8178TIP3    H224499   1.267   0.825   3.635 -1.9917 -0.1760  1.2586
 8179TIP3   OH224500   2.802   1.678   0.342  0.3026 -0.7278  0.0171
 8179TIP3    H124501   2.746   1.691   0.265  0.3708 -0.2365  0.0461
 8179TIP3    H224502   2.883   1.724   0.321  0.9895 -2.0466 -0.3226
 8180TIP3   OH224503   6.767   3.367   4.734  0.3940 -0.4381  0.2654
 8180TIP3    H124504   6.777   3.368   4.829 -1.0433  1.2264  0.4352
 8180TIP3    H224505   6.843   3.415   4.701 -0.3879  1.2266  0.7713
 8181TIP3   OH224506   5.327   6.106   3.295  0.4612 -0.1524 -0.7052
 8181TIP3    H124507   5.270   6.134   3.223 -1.4581 -0.1633  0.7387
 8181TIP3    H224508   5.359   6.188   3.333  1.8701 -0.1478 -1.7902
 8182TIP3   OH224509   1.599   5.938   4.397  0.3144 -0.2817  0.4450
 8182TIP3    H124510   1.680   5.915   4.442  0.9578  2.0555  0.5960
 8182TIP3    H224511   1.576   5.859   4.348  2.4015 -1.1668  0.7721
 8183TIP3   OH224512   3.360   0.210   2.883 -0.1395 -0.0188 -0.1648
 8183TIP3    H124513   3.302   0.173   2.816 -1.2593  0.6713  0.3903
 8183TIP3    H224514   3.419   0.138   2.907 -0.3209 -0.5342 -1.2305
 8184TIP3   OH224515   0.914   2.863   1.896 -0.0126 -0.2980 -0.1046
 8184TIP3    H124516   0.825   2.893   1.914 -0.3509 -1.0483 -0.4958
 8184TIP3    H224517   0.969   2.912   1.958 -0.4831  1.4634 -1.0374
 8185TIP3   OH224518   3.036   6.733   2.195  0.0842  0.7230 -0.1226
 8185TIP3    H124519   3.104   6.755   2.258  0.2186 -0.8018  0.3066
 8185TIP3    H224520   3.080   6.733   2.110  1.1138 -1.9423  0.3199
 8186TIP3   OH224521   0.744   5.122   1.155  0.1127 -0.9155 -0.4079
 8186TIP3    H124522   0.684   5.128   1.230  1.7890 -0.8558  0.9987
 8186TIP3    H224523   0.819   5.073   1.188  1.8449  0.8980 -1.3916
 8187TIP3   OH224524   0.721   3.044   3.446  0.2804 -0.1342 -0.5469
 8187TIP3    H124525   0.724   2.956   3.409  1.5227 -0.6543  0.6940
 8187TIP3    H224526   0.807   3.082   3.425  0.0600  0.4817 -0.3678
 8188TIP3   OH224527   0.971   4.356   3.077 -0.3157 -0.2606 -0.0161
 8188TIP3    H124528   0.996   4.263   3.076 -3.4335 -1.3472  2.3604
 8188TIP3    H224529   0.972   4.379   3.170  0.9192  2.3408 -0.6026
 8189TIP3   OH224530   5.297   6.325   0.389  0.1063  0.1684 -0.1602
 8189TIP3    H124531   5.333   6.259   0.329 -0.6085  0.5689 -1.0683
 8189TIP3    H224532   5.204   6.301   0.398 -0.8045  2.3223 -2.4263
 8190TIP3   OH224533   5.591   0.279   0.460  0.0008 -0.7266 -0.1442
 8190TIP3    H124534   5.586   0.262   0.554 -0.8355  0.0232 -0.0418
 8190TIP3    H224535   5.675   0.323   0.448  0.4449 -1.4825  0.1374
 8191TIP3   OH224536   1.532   6.675   1.361  0.4698 -0.0084  0.0176
 8191TIP3    H124537   1.560   6.589   1.328  1.1602  0.6524 -1.2208
 8191TIP3    H224538   1.452   6.694   1.312 -0.2307 -0.3649  1.0097
 8192TIP3   OH224539   6.777   0.248   4.037 -0.7392  0.1160  0.5738
 8192TIP3    H124540   6.775   0.225   3.944  0.1816  0.6529  0.4020
 8192TIP3    H224541   6.775   0.344   4.038 -0.6224  0.1175  1.0923
 8193TIP3   OH224542   4.790   4.380   3.147 -0.3078 -0.0203 -0.8515
 8193TIP3    H124543   4.875   4.424   3.144 -1.8654  3.2397 -2.2042
 8193TIP3    H224544   4.768   4.364   3.055 -1.4532 -0.1289 -0.5670
 8194TIP3   OH224545   0.344   5.212   5.195  0.5725 -0.5243 -0.5059
 8194TIP3    H124546   0.294   5.198   5.275 -0.7432  0.3413 -1.1475
 8194TIP3    H224547   0.325   5.303   5.170  0.6455 -0.8924 -1.9939
 8195TIP3   OH224548   3.462   1.987   0.105 -0.1092  0.8103 -0.0193
 8195TIP3    H124549   3.368   2.006   0.109 -0.0946  0.8564  0.0976
 8195TIP3    H224550   3.482   1.948   0.190 -0.1282  0.3176 -0.2401
 8196TIP3   OH224551   1.601   3.442   3.747 -0.2001 -0.0131 -0.0077
 8196TIP3    H124552   1.548   3.384   3.693 -1.3032  1.4583 -0.5718
 8196TIP3    H224553   1.684   3.395   3.759 -0.7251 -1.2978 -1.1656
 8197TIP3   OH224554   3.680   4.331   3.218  0.5706 -0.8461 -0.3684
 8197TIP3    H124555   3.656   4.247   3.178  0.2342 -0.5964 -0.7015
 8197TIP3    H224556   3.691   4.311   3.311  0.0293 -1.1690 -0.3685
 8198TIP3   OH224557   1.636   4.310   3.010 -0.3008  0.4689  0.1218
 8198TIP3    H124558   1.618   4.402   2.992 -1.3715  0.8434  2.6810
 8198TIP3    H224559   1.550   4.269   3.013 -0.1187  0.1477  2.4144
 8199TIP3   OH224560   2.957   6.063   0.470  0.0399  0.0819 -0.1777
 8199TIP3    H124561   2.991   6.039   0.384 -1.5462  0.1298 -0.8642
 8199TIP3    H224562   2.969   6.158   0.475 -0.6868  0.2132 -0.7527
 8200TIP3   OH224563   1.146   6.721   1.013  0.1230  0.0149  0.0937
 8200TIP3    H124564   1.215   6.734   1.078 -0.9169  0.9691  1.0400
 8200TIP3    H224565   1.089   6.655   1.052 -0.4842  0.5624  0.1437
 8201TIP3   OH224566   2.019   6.299   1.285 -0.6084  0.6052 -0.2380
 8201TIP3    H124567   1.999   6.304   1.379 -0.1985 -1.0688 -0.0240
 8201TIP3    H224568   2.035   6.389   1.259 -0.8418  1.1176  1.2843
 8202TIP3   OH224569   3.211   4.071   2.010  0.3604 -0.4440  0.5349
 8202TIP3    H124570   3.256   4.153   1.988  1.5558 -0.4533  2.6225
 8202TIP3    H224571   3.245   4.007   1.946  2.2908 -0.1141  1.1710
 8203TIP3   OH224572   2.418   0.150   3.854 -0.1203  0.8895 -0.7075
 8203TIP3    H124573   2.457   0.075   3.809 -1.7717 -0.1532 -0.4682
 8203TIP3    H224574   2.486   0.218   3.850  0.9226 -0.1736 -2.0711
 8204TIP3   OH224575   1.134   2.810   5.008  0.0286  0.4948 -0.1353
 8204TIP3    H124576   1.093   2.893   5.031 -0.7488  0.3007 -0.7628
 8204TIP3    H224577   1.161   2.773   5.092 -1.7590  0.2998  0.3968
 8205TIP3   OH224578   1.293   0.898   2.012  1.0299 -0.0976  0.4746
 8205TIP3    H124579   1.257   0.945   2.088  2.6567  0.5635  0.8811
 8205TIP3    H224580   1.275   0.806   2.030 -2.3495  0.2711 -0.4006
 8206TIP3   OH224581   2.472   0.223   5.176  0.0049 -0.2151  0.0992
 8206TIP3    H124582   2.386   0.263   5.161 -0.1478 -0.7811 -0.6438
 8206TIP3    H224583   2.501   0.257   5.260 -0.4940  0.7794 -0.1260
 8207TIP3   OH224584   6.380   2.425   3.618 -0.1171 -0.1043  0.1140
 8207TIP3    H124585   6.294   2.457   3.591 -1.0227 -0.4804  2.3675
 8207TIP3    H224586   6.420   2.498   3.665  0.9785  0.1916 -1.2207
 8208TIP3   OH224587   2.924   1.528   2.569  0.0836  0.0914 -0.6932
 8208TIP3    H124588   2.939   1.447   2.521  0.4721 -0.2743  0.0309
 8208TIP3    H224589   2.855   1.507   2.632  0.5546  0.1624 -0.1436
 8209TIP3   OH224590   4.279   0.777   5.676 -0.2693 -0.0219  0.0138
 8209TIP3    H124591   4.360   0.804   5.631  0.3666  0.1458  1.2016
 8209TIP3    H224592   4.215   0.843   5.651  0.9682  2.0595  1.9701
 8210TIP3   OH224593   0.488   4.395   0.142 -0.2664  0.0895 -0.7290
 8210TIP3    H124594   0.479   4.317   0.087  0.7059 -0.2322 -0.4482
 8210TIP3    H224595   0.479   4.468   0.082 -4.5084 -0.0625 -0.5996
 8211TIP3   OH224596   6.870   3.638   1.272 -0.4065  0.5373 -0.0621
 8211TIP3    H124597   6.937   3.673   1.330 -2.9222  2.1407  2.1204
 8211TIP3    H224598   6.834   3.563   1.319 -1.3087  0.7820 -0.3413
 8212TIP3   OH224599   4.241   6.377   1.711  0.2821 -0.4351 -0.0024
 8212TIP3    H124600   4.196   6.459   1.732 -0.5796 -0.4503 -1.6359
 8212TIP3    H224601   4.332   6.403   1.696 -0.1088  0.3722 -1.1599
 8213TIP3   OH224602   2.942   0.036   2.387  0.3098  0.5676  0.4245
 8213TIP3    H124603   3.032   0.004   2.399  0.9678  1.2736 -1.9954
 8213TIP3    H224604   2.942   0.072   2.299 -2.5017  0.2313  0.2223
 8214TIP3   OH224605   2.431   5.758   5.362 -0.3074 -0.2176 -0.7247
 8214TIP3    H124606   2.405   5.718   5.445 -1.6545 -1.1716 -1.5665
 8214TIP3    H224607   2.435   5.685   5.300 -1.0813  0.7062 -1.9038
 8215TIP3   OH224608   3.821   1.525   2.765  0.4067 -0.0419  0.6940
 8215TIP3    H124609   3.766   1.468   2.712  0.9410 -0.6639  0.7977
 8215TIP3    H224610   3.824   1.484   2.851  0.7387  0.1769  0.7912
 8216TIP3   OH224611   0.501   6.556   2.592 -0.2388 -0.2051  0.4778
 8216TIP3    H124612   0.467   6.623   2.651  1.0209 -0.1258  1.1440
 8216TIP3    H224613   0.463   6.474   2.624  1.1752 -0.2967  2.0517
 8217TIP3   OH224614   2.396   6.489   2.712  0.0224  0.2821 -0.2818
 8217TIP3    H124615   2.440   6.475   2.629 -0.4349  2.2645 -0.9195
 8217TIP3    H224616   2.309   6.521   2.688 -0.6374 -0.4709  0.9647
 8218TIP3   OH224617   0.836   3.896   2.301  0.4216  0.0187  0.0905
 8218TIP3    H124618   0.807   3.842   2.228  0.7825  0.2269 -0.2114
 8218TIP3    H224619   0.871   3.975   2.260 -0.9645  0.9143  0.5634
 8219TIP3   OH224620   5.537   0.893   2.541  0.5461  0.6799  0.1396
 8219TIP3    H124621   5.598   0.865   2.472 -0.8436 -1.4602 -0.3125
 8219TIP3    H224622   5.560   0.839   2.616 -2.0976 -1.8832 -0.7020
 8220TIP3   OH224623   2.761   2.982   5.778 -0.6519 -0.0511  0.0811
 8220TIP3    H124624   2.691   2.941   5.727  0.5070 -2.2140  0.1422
 8220TIP3    H224625   2.733   2.972   5.869 -0.8603  0.2682  0.0551
 8221TIP3   OH224626   6.023   2.522   4.194  0.4303  0.5358  0.3834
 8221TIP3    H124627   6.073   2.583   4.140 -0.3221  0.5928 -0.2623
 8221TIP3    H224628   6.025   2.439   4.146 -0.5797  0.6913  0.0478
 8222TIP3   OH224629   0.283   5.945   3.150 -0.0939 -0.4562  0.1022
 8222TIP3    H124630   0.324   5.887   3.086 -1.3213  0.2052 -1.3735
 8222TIP3    H224631   0.192   5.954   3.119 -0.0817  1.8231  0.5323
 8223TIP3   OH224632   5.451   3.134   3.590  0.1103 -0.2229 -0.2729
 8223TIP3    H124633   5.380   3.106   3.532  0.0290  0.3091 -0.4359
 8223TIP3    H224634   5.488   3.211   3.546  1.4612 -1.0947 -0.7186
 8224TIP3   OH224635   6.688   0.355   2.949 -0.2389 -0.1766  0.1536
 8224TIP3    H124636   6.720   0.313   2.869 -0.3279 -0.2575  0.1599
 8224TIP3    H224637   6.598   0.324   2.957 -0.1449 -0.3795  0.4293
 8225TIP3   OH224638   2.087   4.038   5.141 -0.2028 -0.0358 -0.2685
 8225TIP3    H124639   2.045   4.022   5.057 -0.6672 -1.0606  0.1457
 8225TIP3    H224640   2.079   3.955   5.189  0.7636  0.2733  0.4809
 8226TIP3   OH224641   1.028   0.932   2.357 -0.2741  0.3306  0.5612
 8226TIP3    H124642   1.054   0.995   2.290  0.6640 -0.4031  0.2142
 8226TIP3    H224643   1.050   0.975   2.440 -0.8929  0.9963  0.3982
 8227TIP3   OH224644   7.049   0.512   5.627  0.4061  0.4767  0.2083
 8227TIP3    H124645   6.957   0.512   5.655  0.3833  0.4319  0.1341
 8227TIP3    H224646   7.052   0.448   5.556  1.2190 -2.3672  2.6027
 8228TIP3   OH224647   2.927   5.419   5.502  0.4617  0.2793 -0.3280
 8228TIP3    H124648   2.993   5.397   5.568  1.0645  0.4328 -0.8643
 8228TIP3    H224649   2.955   5.504   5.468 -0.2391  0.5280 -0.2863
 8229TIP3   OH224650   1.030   1.181   4.816 -0.0192  1.0149  0.3584
 8229TIP3    H124651   0.996   1.266   4.790  2.1367  2.5697  2.2494
 8229TIP3    H224652   0.996   1.167   4.904  0.2371  0.2843  0.3496
 8230TIP3   OH224653   0.014   0.432   0.703 -0.1158 -0.6605 -0.0335
 8230TIP3    H124654   0.012   0.511   0.756 -1.4810 -1.1939  0.7715
 8230TIP3    H224655  -0.004   0.462   0.614  0.6323  0.0565  0.0429
 8231TIP3   OH224656   4.628   5.772   4.227  0.6528  0.3063 -0.4560
 8231TIP3    H124657   4.703   5.754   4.284  0.8916 -0.9770 -1.1529
 8231TIP3    H224658   4.577   5.691   4.228 -0.6235  1.0817 -0.1738
 8232TIP3   OH224659   0.182   4.812   2.825 -0.2112 -0.0776 -0.4194
 8232TIP3    H124660   0.175   4.902   2.858 -2.4208  1.2693 -3.9338
 8232TIP3    H224661   0.275   4.792   2.831  0.0540  1.3017  2.9029
 8233TIP3   OH224662   6.481   3.595   5.626 -0.1524 -0.3476 -0.1735
 8233TIP3    H124663   6.530   3.632   5.553  1.8097 -1.0472  0.7275
 8233TIP3    H224664   6.517   3.507   5.638 -1.3321 -0.7277  0.8189
 8234TIP3   OH224665   6.105   1.786   1.832 -0.3864  0.3396  0.2687
 8234TIP3    H124666   6.178   1.771   1.892  0.1977  2.1998  0.0858
 8234TIP3    H224667   6.027   1.764   1.883  0.2678 -2.7839  0.1158
 8235TIP3   OH224668   3.331   3.339   5.062 -0.0190 -0.1373  0.0333
 8235TIP3    H124669   3.240   3.345   5.090  0.1887 -0.2871  0.7780
 8235TIP3    H224670   3.380   3.381   5.133  0.3910  1.2790 -1.0467
 8236TIP3   OH224671   0.650   3.350   3.159 -0.2442 -0.2644  0.3685
 8236TIP3    H124672   0.734   3.315   3.190  0.5128  0.3037 -0.9449
 8236TIP3    H224673   0.674   3.412   3.090 -1.7583 -0.2278 -0.1656
 8237TIP3   OH224674   5.218   3.999   0.383  0.4054 -0.2280  0.4177
 8237TIP3    H124675   5.152   4.069   0.377 -0.2879 -0.7522  1.5604
 8237TIP3    H224676   5.301   4.043   0.365 -0.1102  0.7203  0.2823
 8238TIP3   OH224677   5.486   5.783   0.155  0.2806  0.0369  0.2352
 8238TIP3    H124678   5.432   5.772   0.077 -0.3779 -0.0087  0.6928
 8238TIP3    H224679   5.432   5.749   0.227  1.0494 -0.3341  0.6544
 8239TIP3   OH224680   2.563   5.398   2.138 -0.1083  0.5881  0.0184
 8239TIP3    H124681   2.482   5.409   2.088  1.5171  1.3937 -2.6373
 8239TIP3    H224682   2.591   5.487   2.159 -0.3547  0.2841  1.8067
 8240TIP3   OH224683   4.228   6.741   3.510  0.3529 -0.4369 -0.1590
 8240TIP3    H124684   4.298   6.676   3.515  0.0132 -1.1596 -3.2214
 8240TIP3    H224685   4.155   6.700   3.556  0.5822 -1.6581 -0.8183
 8241TIP3   OH224686   6.943   4.645   2.050 -0.0873 -0.3552 -0.4324
 8241TIP3    H124687   6.862   4.595   2.048 -0.3871  0.1223 -0.7126
 8241TIP3    H224688   6.917   4.731   2.085  0.3067 -0.2225 -0.4618
 8242TIP3   OH224689   6.232   5.840   5.476 -0.1172 -0.2369 -0.3967
 8242TIP3    H124690   6.318   5.841   5.433 -0.5461  0.2824 -1.2750
 8242TIP3    H224691   6.170   5.818   5.406 -0.6319 -1.3708  0.3850
 8243TIP3   OH224692   1.012   2.131   2.532  0.1262 -0.8743  0.5554
 8243TIP3    H124693   0.973   2.211   2.566  1.4200  0.6294 -1.2818
 8243TIP3    H224694   1.090   2.117   2.586  2.5108  1.8390 -1.8129
 8244TIP3   OH224695   2.883   6.063   3.449 -0.2624 -0.5573 -0.1001
 8244TIP3    H124696   2.900   6.131   3.385  2.4495 -1.0947 -0.0442
 8244TIP3    H224697   2.938   6.085   3.524 -0.3498 -2.0595  0.4552
 8245TIP3   OH224698   1.531   3.279   0.008  0.2481 -0.2689  0.1621
 8245TIP3    H124699   1.436   3.277   0.016  0.2645  0.9866  0.8316
 8245TIP3    H224700   1.558   3.361   0.047  1.5863 -0.3736 -0.4456
 8246TIP3   OH224701   6.212   1.547   5.463 -0.3467 -0.8330  0.2263
 8246TIP3    H124702   6.173   1.474   5.511  0.0111 -0.7941  0.5892
 8246TIP3    H224703   6.139   1.606   5.445 -0.4081 -0.6072  1.1743
 8247TIP3   OH224704   4.437   5.422   3.271 -0.1057  0.4527  0.0966
 8247TIP3    H124705   4.435   5.327   3.263  1.7191  0.4223 -0.4810
 8247TIP3    H224706   4.516   5.440   3.322 -0.1981  1.6879 -0.1625
 8248TIP3   OH224707   0.205   5.457   1.345 -0.0840 -0.2417  0.1459
 8248TIP3    H124708   0.164   5.416   1.421  0.0911 -1.7938 -0.5587
 8248TIP3    H224709   0.133   5.499   1.297 -0.3079  0.0395  0.7243
 8249TIP3   OH224710   5.574   1.933   3.429 -0.2363  0.0563 -0.7554
 8249TIP3    H124711   5.667   1.954   3.428 -0.0995 -0.4840 -0.0424
 8249TIP3    H224712   5.531   2.013   3.459  0.1048 -0.0361  0.0037
 8250TIP3   OH224713   3.566   1.249   5.454  0.9000 -0.8293  0.1284
 8250TIP3    H124714   3.586   1.225   5.544  0.5428 -0.8146  0.2152
 8250TIP3    H224715   3.586   1.343   5.449 -2.6050  0.1265  1.2849
 8251TIP3   OH224716   3.870   1.654   3.508 -0.2861  0.1012  0.2453
 8251TIP3    H124717   3.867   1.615   3.596 -0.5043 -0.6560 -0.0854
 8251TIP3    H224718   3.910   1.586   3.454 -0.8467  0.2637 -0.3817
 8252TIP3   OH224719   5.356   2.490   4.967 -0.1281  0.2170 -0.4675
 8252TIP3    H124720   5.409   2.480   4.888 -0.0949  1.1339 -0.5714
 8252TIP3    H224721   5.266   2.497   4.934  0.0099  1.9473 -0.5400
 8253TIP3   OH224722   1.791   0.731   5.274  0.5783  0.0218 -0.0712
 8253TIP3    H124723   1.861   0.666   5.286  1.9373  1.3058 -0.6758
 8253TIP3    H224724   1.730   0.690   5.212  0.5228 -1.3049  0.8161
 8254TIP3   OH224725   3.537   5.473   2.565  0.0272 -0.7953  0.1851
 8254TIP3    H124726   3.616   5.499   2.518 -0.4265 -1.4689 -0.9855
 8254TIP3    H224727   3.552   5.501   2.655  1.1631  0.0017 -0.2401
 8255TIP3   OH224728   6.704   3.515   2.642  0.0026  0.3173  0.5499
 8255TIP3    H124729   6.781   3.569   2.660  1.1832 -0.7148 -1.1453
 8255TIP3    H224730   6.706   3.447   2.708  0.6116  0.2453  0.4636
 8256TIP3   OH224731   6.444   4.866   1.856 -0.1064  0.6009  0.0191
 8256TIP3    H124732   6.352   4.860   1.830  0.0914 -0.9971 -0.4305
 8256TIP3    H224733   6.455   4.956   1.886 -1.2784  1.4439 -1.9483
 8257TIP3   OH224734   3.230   3.378   2.948 -0.3091  0.1490  0.2120
 8257TIP3    H124735   3.141   3.366   2.980  0.4656  1.0867  2.9146
 8257TIP3    H224736   3.260   3.459   2.988  1.5078  0.2810 -1.2895
 8258TIP3   OH224737   6.030   3.822   4.072  0.2428  0.3065  0.1534
 8258TIP3    H124738   6.068   3.759   4.011  0.6319 -1.2546  1.9143
 8258TIP3    H224739   5.937   3.799   4.076  0.6405 -1.3178  1.9709
 8259TIP3   OH224740   2.180   5.852   5.128 -0.5076  0.6128 -0.1736
 8259TIP3    H124741   2.088   5.855   5.151 -0.3602  0.1777  0.5180
 8259TIP3    H224742   2.203   5.759   5.133  0.0801  0.7684  0.1653
 8260TIP3   OH224743   4.343   4.616   2.959  0.5342  0.1558 -0.5596
 8260TIP3    H124744   4.412   4.600   3.024  1.2087  2.4523 -0.6326
 8260TIP3    H224745   4.382   4.589   2.876  0.4131 -0.8737 -0.2936
 8261TIP3   OH224746   3.876   1.766   1.526  0.1283  0.2457  0.3065
 8261TIP3    H124747   3.941   1.702   1.494 -1.5979 -0.7721 -1.3848
 8261TIP3    H224748   3.808   1.712   1.566 -0.6491  1.1444  0.2114
 8262TIP3   OH224749   4.146   4.889   3.954  0.3795 -0.1156 -0.1989
 8262TIP3    H124750   4.141   4.823   3.885 -0.4645 -0.1033 -0.1591
 8262TIP3    H224751   4.237   4.886   3.984  0.3636 -1.2391 -0.2179
 8263TIP3   OH224752   4.795   3.396   3.583  0.8778 -0.5877  0.1434
 8263TIP3    H124753   4.768   3.418   3.495 -3.3453 -0.2999  1.3144
 8263TIP3    H224754   4.759   3.309   3.599  0.8502 -0.3053  1.8316
 8264TIP3   OH224755   6.297   6.344   2.792 -0.0907  0.2159  0.3498
 8264TIP3    H124756   6.377   6.397   2.785  1.5107 -2.0804  0.2688
 8264TIP3    H224757   6.269   6.356   2.883  0.4304  0.9150  0.4329
 8265TIP3   OH224758   7.171   1.798   0.640  0.4396 -0.3722 -0.3138
 8265TIP3    H124759   7.087   1.768   0.605  0.1221 -0.6420  0.6483
 8265TIP3    H224760   7.194   1.733   0.706  0.4464  0.7201  0.7976
 8266TIP3   OH224761   2.429   2.693   0.130  0.1114 -0.5056 -0.1714
 8266TIP3    H124762   2.438   2.707   0.036 -0.9070 -0.9019 -0.3357
 8266TIP3    H224763   2.474   2.609   0.146 -0.7715 -1.0573 -0.5169
 8267TIP3   OH224764   2.745   6.063   3.808 -0.3927  0.2694 -0.3490
 8267TIP3    H124765   2.708   6.150   3.795  1.2990  1.3946  1.7004
 8267TIP3    H224766   2.832   6.067   3.767 -0.2166 -0.3993 -0.0620
 8268TIP3   OH224767   6.858   4.844   1.137  0.6898 -0.2427 -0.3583
 8268TIP3    H124768   6.906   4.900   1.076  1.2678 -0.6770 -0.3061
 8268TIP3    H224769   6.810   4.783   1.082  2.6405 -1.8414 -0.4017
 8269TIP3   OH224770   6.549   3.689   2.896 -0.2364 -0.2249 -0.4556
 8269TIP3    H124771   6.534   3.619   2.959  1.2406  1.4173  1.8794
 8269TIP3    H224772   6.641   3.712   2.906 -0.4959  1.5572 -1.6617
 8270TIP3   OH224773   5.691   3.979   1.721  0.1717 -0.1374  0.7672
 8270TIP3    H124774   5.753   3.932   1.666 -1.2836  0.3647 -1.4193
 8270TIP3    H224775   5.745   4.036   1.776  1.6641  0.8414 -1.5676
 8271TIP3   OH224776   6.953   4.755   0.753  0.4723  0.0258  0.4889
 8271TIP3    H124777   6.968   4.837   0.800  0.2846  0.5440 -0.3179
 8271TIP3    H224778   7.036   4.737   0.708 -0.0378  0.8139 -0.8533
 8272TIP3   OH224779   1.103   5.048   0.483 -0.5735 -0.3045 -0.0831
 8272TIP3    H124780   1.190   5.029   0.448 -0.2901  1.0670 -0.1907
 8272TIP3    H224781   1.118   5.114   0.551 -1.4902 -0.3048  0.1378
 8273TIP3   OH224782   4.460   2.141   3.798  0.4869 -0.0229  0.1447
 8273TIP3    H124783   4.373   2.101   3.808  0.1417  0.6786 -0.0024
 8273TIP3    H224784   4.483   2.172   3.886  0.3113  0.3411  0.0655
 8274TIP3   OH224785   0.416   1.565   1.764  0.0979  0.3880  0.6795
 8274TIP3    H124786   0.511   1.577   1.770 -0.0624  1.7883  0.6985
 8274TIP3    H224787   0.403   1.472   1.782  1.4519  0.1973  0.8121
 8275TIP3   OH224788   0.746   3.978   3.652 -0.5065 -0.0856 -0.1278
 8275TIP3    H124789   0.709   4.067   3.654  2.0340  1.1247 -1.8861
 8275TIP3    H224790   0.825   3.986   3.599  0.3907 -3.2275  0.5346
 8276TIP3   OH224791   5.076   6.355   5.698  0.0625  0.4628 -0.2696
 8276TIP3    H124792   5.131   6.311   5.633  1.4842  1.7253  0.0227
 8276TIP3    H224793   5.076   6.447   5.672 -2.6168  0.4377 -0.7067
 8277TIP3   OH224794   1.516   4.913   1.461  0.4926  0.4903  0.2298
 8277TIP3    H124795   1.474   4.834   1.427  1.1153 -0.4688  1.5691
 8277TIP3    H224796   1.466   4.985   1.423  0.0872 -0.5211 -1.2775
 8278TIP3   OH224797   4.632   4.603   2.847 -0.6886 -0.0336  0.1464
 8278TIP3    H124798   4.670   4.659   2.914  0.7064 -0.1164 -0.5432
 8278TIP3    H224799   4.643   4.514   2.879  2.7359 -0.3196 -1.4061
 8279TIP3   OH224800   0.043   0.672   2.007 -0.2527  0.0011 -1.0095
 8279TIP3    H124801   0.057   0.675   1.913 -1.4299 -0.9704 -1.2414
 8279TIP3    H224802  -0.029   0.610   2.019  0.0868 -0.1436  0.5541
 8280TIP3   OH224803   1.847   4.400   5.669 -0.0310 -0.2970 -0.3167
 8280TIP3    H124804   1.839   4.495   5.667 -2.5631 -0.4219  0.7075
 8280TIP3    H224805   1.794   4.370   5.595 -1.5005 -0.9588  0.9609
 8281TIP3   OH224806   4.317   1.344   5.491  0.1115 -0.5431  0.2924
 8281TIP3    H124807   4.354   1.430   5.473 -0.8547 -0.0062  0.7913
 8281TIP3    H224808   4.362   1.285   5.430  1.1468  0.2162  0.3035
 8282TIP3   OH224809   5.398   2.310   0.615  0.4163  0.4159  0.0819
 8282TIP3    H124810   5.325   2.282   0.669 -1.3406  1.5908 -1.5524
 8282TIP3    H224811   5.412   2.402   0.640  2.3765 -0.1840  1.4224
 8283TIP3   OH224812   3.825   2.299   1.377 -0.1637  0.4226 -0.4513
 8283TIP3    H124813   3.820   2.375   1.320  0.9778  0.1054 -1.0095
 8283TIP3    H224814   3.868   2.331   1.457 -2.9347  1.1757  0.8418
 8284TIP3   OH224815   5.784   3.179   3.562  0.3670  0.5376  0.0444
 8284TIP3    H124816   5.832   3.097   3.556 -0.7188 -0.2769  1.7706
 8284TIP3    H224817   5.746   3.191   3.475  1.1098 -0.4157 -0.4326
 8285TIP3   OH224818   4.021   4.790   4.537  0.5199 -0.1370 -0.2268
 8285TIP3    H124819   3.979   4.869   4.501 -0.5713 -0.6047 -0.0383
 8285TIP3    H224820   4.103   4.821   4.576  0.4085  0.7997 -0.7211
 8286TIP3   OH224821   1.703   2.625   2.518  0.4404  0.3439 -0.1613
 8286TIP3    H124822   1.641   2.645   2.588  1.8199 -0.5636  1.3914
 8286TIP3    H224823   1.685   2.534   2.495 -0.2010  0.7215 -1.2464
 8287TIP3   OH224824   2.063   6.466   2.667  0.1339 -0.6832 -0.4303
 8287TIP3    H124825   2.069   6.386   2.615  0.5280 -1.5747  0.9444
 8287TIP3    H224826   2.092   6.536   2.608  1.0169 -1.7217 -1.2529
 8288TIP3   OH224827   4.746   5.683   3.107 -0.1794  0.1567 -0.1183
 8288TIP3    H124828   4.694   5.725   3.038 -1.6722  0.9747  1.4048
 8288TIP3    H224829   4.800   5.754   3.143  1.2478 -0.4559 -0.9765
 8289TIP3   OH224830   1.954   2.948   3.343 -0.1152 -0.1473 -0.1402
 8289TIP3    H124831   1.946   2.903   3.427  1.2006  0.0062  0.0827
 8289TIP3    H224832   2.042   2.927   3.312  0.0764  1.2449 -0.6251
 8290TIP3   OH224833   7.232   0.988   1.618  0.0651  0.7537 -0.1865
 8290TIP3    H124834   7.147   0.993   1.662  0.4074 -1.0769  0.7939
 8290TIP3    H224835   7.219   0.924   1.548  0.9625 -0.6176  0.8611
 8291TIP3   OH224836   6.211   4.617   4.468  0.0009  0.7186 -0.2317
 8291TIP3    H124837   6.295   4.585   4.499 -0.6374 -0.4761  0.3137
 8291TIP3    H224838   6.150   4.545   4.483 -1.1657  1.6241 -0.4437
 8292TIP3   OH224839   2.384   4.892   0.665 -0.4996 -0.4403 -0.1660
 8292TIP3    H124840   2.381   4.808   0.711  2.2376  0.7797  2.6245
 8292TIP3    H224841   2.466   4.889   0.615  0.7384  1.1979  1.6062
 8293TIP3   OH224842   0.173   2.543   4.730 -0.2522 -0.4584 -0.3753
 8293TIP3    H124843   0.114   2.467   4.731  0.6923 -1.2652 -1.7802
 8293TIP3    H224844   0.190   2.561   4.822 -3.3443  0.3700  0.1663
 8294TIP3   OH224845   5.437   3.772   2.275  0.1348 -0.8037 -0.1227
 8294TIP3    H124846   5.367   3.707   2.278  0.1079 -0.7367  1.8290
 8294TIP3    H224847   5.491   3.746   2.201 -1.2864 -1.5347 -0.9500
 8295TIP3   OH224848   1.780   3.942   3.228 -0.1549  0.3709 -0.4355
 8295TIP3    H124849   1.816   4.012   3.174  0.5436  1.0037  0.8114
 8295TIP3    H224850   1.685   3.951   3.219 -0.0661  0.3336 -1.6770
 8296TIP3   OH224851   1.364   3.006   3.551 -0.6249  0.0351  0.6863
 8296TIP3    H124852   1.297   2.939   3.559  0.3731 -1.0221  0.3918
 8296TIP3    H224853   1.433   2.966   3.497  0.2358  1.0933  0.9497
 8297TIP3   OH224854   2.376   1.817   2.224  0.4537 -0.7138  0.1130
 8297TIP3    H124855   2.304   1.777   2.273  0.1490 -0.0493  0.2276
 8297TIP3    H224856   2.334   1.888   2.175  1.5540  2.3324  3.1970
 8298TIP3   OH224857   2.411   0.053   2.317  0.9460  0.0631  0.4748
 8298TIP3    H124858   2.470   0.089   2.383  0.1033  0.7388  0.8811
 8298TIP3    H224859   2.412   0.118   2.246 -0.3152  0.7582  1.0608
 8299TIP3   OH224860   6.057   5.380   3.400 -0.2893 -0.0606 -0.1321
 8299TIP3    H124861   6.104   5.349   3.477 -1.6613 -0.1567  0.7108
 8299TIP3    H224862   6.122   5.426   3.349  0.6466  0.0978  1.1493
 8300TIP3   OH224863   1.573   6.152   0.602 -0.0372 -0.0491 -0.1226
 8300TIP3    H124864   1.514   6.084   0.634  1.7416 -1.2216  0.8758
 8300TIP3    H224865   1.576   6.216   0.673 -0.5474  0.3213 -0.4280
 8301TIP3   OH224866   5.560   4.221   1.226 -0.1769  0.5575  0.3078
 8301TIP3    H124867   5.521   4.240   1.141 -0.7052  1.4067  0.7237
 8301TIP3    H224868   5.653   4.210   1.208 -0.2483  0.9671 -0.3479
 8302TIP3   OH224869   6.883   0.295   1.665  0.5038 -0.1410  0.0730
 8302TIP3    H124870   6.937   0.365   1.628  1.2513 -0.7490 -0.0120
 8302TIP3    H224871   6.923   0.214   1.633  0.9551 -0.6754  1.8684
 8303TIP3   OH224872   2.766   4.740   0.273 -0.2076 -0.0290  0.0130
 8303TIP3    H124873   2.748   4.688   0.195 -0.3839 -1.3645  0.9201
 8303TIP3    H224874   2.688   4.795   0.284 -0.4890 -0.3473 -0.3563
 8304TIP3   OH224875   2.108   5.897   0.760  0.5283  0.0575  0.5723
 8304TIP3    H124876   2.031   5.851   0.729  0.4639  0.6323 -0.1705
 8304TIP3    H224877   2.119   5.869   0.850  0.2502 -1.0672  0.2635
 8305TIP3   OH224878   4.756   5.930   3.528 -0.0089 -0.1965  0.3254
 8305TIP3    H124879   4.838   5.930   3.577 -0.6412 -3.0407  1.6004
 8305TIP3    H224880   4.698   5.872   3.578 -2.5405  1.0365 -0.9646
 8306TIP3   OH224881   4.420   6.098   2.434 -0.0777  0.0836 -0.2111
 8306TIP3    H124882   4.412   6.101   2.529 -1.8732  0.2604 -0.3432
 8306TIP3    H224883   4.381   6.014   2.409  0.0248  0.2132 -0.8342
 8307TIP3   OH224884   3.599   0.816   3.610  0.2764 -0.1825 -0.4875
 8307TIP3    H124885   3.550   0.787   3.687  0.8603 -1.7444 -0.6512
 8307TIP3    H224886   3.586   0.910   3.606 -2.2943 -0.4767 -0.2610
 8308TIP3   OH224887   3.182   6.617   3.000  0.3270 -0.1090  0.0863
 8308TIP3    H124888   3.130   6.644   3.075  1.0401  0.8417  0.2658
 8308TIP3    H224889   3.272   6.614   3.033  0.4586 -1.2511 -0.3325
 8309TIP3   OH224890   1.170   3.324   0.435 -0.0713 -0.0452  0.2658
 8309TIP3    H124891   1.201   3.400   0.484 -0.8096 -0.1341  0.8804
 8309TIP3    H224892   1.078   3.341   0.417  0.1330 -0.1038 -0.9454
 8310TIP3   OH224893   3.952   6.046   4.183  0.2952 -0.1047 -0.6035
 8310TIP3    H124894   3.956   6.002   4.268  0.6765 -0.9263 -1.0377
 8310TIP3    H224895   3.866   6.022   4.147  0.3995 -0.2977 -0.7288
 8311TIP3   OH224896   2.179   1.433   5.518  0.4707  0.0234 -0.2138
 8311TIP3    H124897   2.206   1.344   5.494 -0.1886 -0.2920  0.2019
 8311TIP3    H224898   2.198   1.440   5.611 -0.3557 -0.0052 -0.0419
 8312TIP3   OH224899   5.386   3.918   4.447  0.7388 -0.2750  0.0313
 8312TIP3    H124900   5.387   4.014   4.445  1.7220 -0.2087 -3.3432
 8312TIP3    H224901   5.374   3.896   4.539 -3.0107  3.0509  0.6201
 8313TIP3   OH224902   6.955   1.331   1.874 -0.2422 -0.0097  0.0217
 8313TIP3    H124903   6.924   1.421   1.884 -0.6798 -0.0867 -0.5606
 8313TIP3    H224904   6.910   1.282   1.942  0.3532  0.2897  0.6438
 8314TIP3   OH224905   2.675   3.929   2.992  1.0047  0.0539 -0.2923
 8314TIP3    H124906   2.727   3.900   3.067 -0.2946  1.1856  1.1120
 8314TIP3    H224907   2.702   4.020   2.978 -0.3228  0.5416  0.2312
 8315TIP3   OH224908   7.195   3.576   4.046  0.4983 -0.6409 -0.1489
 8315TIP3    H124909   7.191   3.499   4.102  2.0071 -0.7541 -0.1470
 8315TIP3    H224910   7.137   3.640   4.087 -0.7663 -1.7447 -0.1422
 8316TIP3   OH224911   6.463   5.113   0.492 -0.1239 -0.5959  0.2072
 8316TIP3    H124912   6.452   5.021   0.517  0.1699 -0.6635  0.0897
 8316TIP3    H224913   6.506   5.110   0.406  0.5903 -0.3375  0.5470
 8317TIP3   OH224914   1.356   5.879   4.088 -0.4170 -0.7049 -0.1491
 8317TIP3    H124915   1.388   5.968   4.072 -1.3121 -0.1529  0.9070
 8317TIP3    H224916   1.434   5.825   4.088  0.2997  0.2920  0.4678
 8318TIP3   OH224917   1.869   4.088   4.640 -0.0754  0.0747 -0.1586
 8318TIP3    H124918   1.890   4.146   4.567 -0.4408  1.2162  0.6102
 8318TIP3    H224919   1.778   4.062   4.625 -0.1623  0.3387 -0.1058
 8319TIP3   OH224920   0.134   4.036   4.644  0.0795 -0.5592  0.3311
 8319TIP3    H124921   0.226   4.054   4.624  0.2117  1.0326  2.0226
 8319TIP3    H224922   0.102   4.118   4.683 -1.5521 -1.6381  1.3841
 8320TIP3   OH224923   2.009   1.693   2.819  0.0136  0.1312 -0.2564
 8320TIP3    H124924   2.094   1.674   2.780  0.3237  0.2645  0.3518
 8320TIP3    H224925   1.962   1.741   2.751  0.3528 -0.1049 -0.6623
 8321TIP3   OH224926   0.235   1.937   0.082  0.1007  0.2222 -0.4318
 8321TIP3    H124927   0.193   1.940  -0.004  0.1824 -0.6563 -0.5120
 8321TIP3    H224928   0.312   1.883   0.070  0.0583  0.0029  0.2137
 8322TIP3   OH224929   0.183   6.761   3.221 -0.0577  0.0857  0.3300
 8322TIP3    H124930   0.231   6.680   3.206 -0.0851 -0.1418  1.4094
 8322TIP3    H224931   0.245   6.819   3.265 -0.3809  0.2405  0.5899
 8323TIP3   OH224932   3.981   5.269   0.282  0.7546  0.2386  0.1178
 8323TIP3    H124933   3.981   5.329   0.357 -1.8377  0.1026  0.3317
 8323TIP3    H224934   4.038   5.311   0.218 -1.4630  3.4241 -0.0466
 8324TIP3   OH224935   4.304   5.042   1.818  0.0886  0.4637  0.1555
 8324TIP3    H124936   4.383   5.009   1.775 -0.2021  1.8474 -1.5391
 8324TIP3    H224937   4.331   5.124   1.858 -0.7603  1.6455 -1.6016
 8325TIP3   OH224938   3.399   3.069   0.787 -0.2737  0.2017  0.2420
 8325TIP3    H124939   3.424   3.146   0.838  0.2339  1.0735 -1.2376
 8325TIP3    H224940   3.483   3.032   0.759 -0.5406 -0.0851 -0.1804
 8326TIP3   OH224941   6.340   3.059   5.339 -0.4794  0.0118 -0.4405
 8326TIP3    H124942   6.258   3.084   5.383 -0.7079  0.1256 -0.9208
 8326TIP3    H224943   6.408   3.077   5.403 -0.8708 -0.4765  0.1203
 8327TIP3   OH224944   7.052   4.803   4.616  0.1124  0.4419  0.0294
 8327TIP3    H124945   6.969   4.842   4.589 -0.6252 -0.4261  0.9915
 8327TIP3    H224946   7.113   4.826   4.545 -1.7425 -1.8428 -2.5495
 8328TIP3   OH224947   5.005   2.001   2.843 -0.6268  0.0799  0.2448
 8328TIP3    H124948   5.091   2.043   2.842  0.1269 -1.4033 -0.9775
 8328TIP3    H224949   5.003   1.952   2.925  0.0771 -0.6002 -0.1358
 8329TIP3   OH224950   3.109   5.362   5.739  0.1881 -0.4257  0.1666
 8329TIP3    H124951   3.120   5.299   5.810  0.1455  0.1467  0.6912
 8329TIP3    H224952   3.184   5.421   5.747  0.1112 -0.2733 -0.1793
 8330TIP3   OH224953   4.329   6.752   5.625 -0.6831  0.1461 -0.4440
 8330TIP3    H124954   4.371   6.700   5.694 -1.1722 -1.1647 -1.1051
 8330TIP3    H224955   4.236   6.747   5.645 -0.7000  1.2249 -0.2205
 8331TIP3   OH224956   1.245   0.723   2.537  0.4559 -0.8844  0.0725
 8331TIP3    H124957   1.323   0.733   2.482 -0.4444  1.2292 -0.9452
 8331TIP3    H224958   1.279   0.717   2.626  1.9002 -3.3621 -0.5572
 8332TIP3   OH224959   3.379   4.352   5.586  0.1068 -0.4864  0.3494
 8332TIP3    H124960   3.446   4.391   5.529 -0.9200 -0.5016 -0.9307
 8332TIP3    H224961   3.389   4.258   5.574  1.3107 -0.5900  1.9273
 8333TIP3   OH224962   0.187   2.906   4.767  0.5941  0.2955 -0.1257
 8333TIP3    H124963   0.123   2.969   4.797 -0.3197 -1.2531  1.3792
 8333TIP3    H224964   0.232   2.877   4.847  0.8760 -1.0472 -0.7289
 8334TIP3   OH224965   6.111   1.476   0.062 -0.6969  0.0257 -0.0229
 8334TIP3    H124966   6.045   1.532   0.101 -0.8461  1.1985 -1.8739
 8334TIP3    H224967   6.107   1.395   0.114 -1.6492  1.0751  1.6161
 8335TIP3   OH224968   4.033   3.953   1.892  0.1565 -0.0262 -0.1777
 8335TIP3    H124969   4.077   4.021   1.840  3.0362 -2.6008 -1.3710
 8335TIP3    H224970   4.081   3.952   1.975 -0.2357 -0.2356  0.0484
 8336TIP3   OH224971   2.942   3.658   1.959  0.2241  0.2845 -0.1664
 8336TIP3    H124972   2.938   3.722   2.030 -0.9895 -2.1324  2.1026
 8336TIP3    H224973   3.026   3.615   1.972  0.7671  0.9452 -1.3226
 8337TIP3   OH224974   4.775   5.592   0.950  0.6260  0.8107 -0.9253
 8337TIP3    H124975   4.686   5.614   0.923 -0.2455  0.0416  1.0537
 8337TIP3    H224976   4.782   5.498   0.933  1.3448  1.0025 -1.7441
 8338TIP3   OH224977   4.153   5.718   3.540 -0.2149  0.3680 -0.0858
 8338TIP3    H124978   4.083   5.780   3.560 -2.0623 -1.4372 -0.6287
 8338TIP3    H224979   4.131   5.640   3.590 -0.4481 -1.3877 -2.7210
 8339TIP3   OH224980   1.848   1.867   0.263 -0.4169 -0.1352  0.2382
 8339TIP3    H124981   1.766   1.862   0.312 -0.1437 -0.0974  0.6994
 8339TIP3    H224982   1.915   1.886   0.328 -0.0316 -0.2000 -0.1296
 8340TIP3   OH224983   6.159   1.201   1.659  0.1976 -0.5282 -0.7702
 8340TIP3    H124984   6.127   1.174   1.572 -0.6270 -1.4831 -0.1879
 8340TIP3    H224985   6.254   1.189   1.654  0.1738 -0.4372 -1.5886
 8341TIP3   OH224986   3.134   6.317   3.258 -0.4769 -0.3337 -0.4305
 8341TIP3    H124987   3.187   6.377   3.311 -0.0546 -0.3785 -0.7909
 8341TIP3    H224988   3.154   6.230   3.293  1.3117 -0.5636 -1.8843
 8342TIP3   OH224989   2.078   0.724   2.596 -0.0243 -0.2587  0.1031
 8342TIP3    H124990   2.159   0.769   2.571  0.3830 -1.0997 -0.1099
 8342TIP3    H224991   2.030   0.713   2.515 -1.2300  1.8741  0.4581
 8343TIP3   OH224992   6.062   2.742   2.273 -0.3615  0.0730  0.0455
 8343TIP3    H124993   6.088   2.660   2.232 -1.0994 -1.1144  1.8057
 8343TIP3    H224994   6.031   2.797   2.201  0.4199 -1.0691 -1.2044
 8344TIP3   OH224995   5.677   4.045   0.365  0.0375 -0.3818  0.0323
 8344TIP3    H124996   5.591   4.087   0.370 -0.7794 -1.8012 -1.4796
 8344TIP3    H224997   5.709   4.066   0.277  1.5482  0.6173  0.7635
 8345TIP3   OH224998   3.546   4.276   4.179  0.4073  0.3596  0.2067
 8345TIP3    H124999   3.499   4.206   4.224  0.2648  1.1235  1.2929
 8345TIP3    H225000   3.639   4.258   4.196  0.5525 -1.0290 -1.7599
 8346TIP3   OH225001   1.996   0.888   5.181 -0.0728  0.2502 -0.0926
 8346TIP3    H125002   2.032   0.906   5.268  0.1070  0.7910 -0.2759
 8346TIP3    H225003   1.915   0.840   5.198 -1.7429  3.0678  0.5217
 8347TIP3   OH225004   0.408   4.807   4.778 -0.0643  0.7616 -0.7294
 8347TIP3    H125005   0.465   4.761   4.839  0.2758  0.2105 -1.4520
 8347TIP3    H225006   0.337   4.745   4.760  1.1975 -0.1592 -2.9116
 8348TIP3   OH225007   4.705   4.151   0.491  0.1049 -0.0535 -0.1984
 8348TIP3    H125008   4.781   4.117   0.539 -0.2399 -0.7465 -0.1265
 8348TIP3    H225009   4.723   4.133   0.399 -1.0143 -2.4486 -0.0194
 8349TIP3   OH225010   4.858   2.194   2.381 -0.2232  0.1173  0.4800
 8349TIP3    H125011   4.766   2.217   2.389 -0.1541  0.2501  0.9706
 8349TIP3    H225012   4.902   2.278   2.365 -0.6216 -0.3692 -4.4328
 8350TIP3   OH225013   3.425   2.241   5.825 -0.0953  0.3321  0.1051
 8350TIP3    H125014   3.473   2.162   5.852 -0.4688  0.4883  1.2854
 8350TIP3    H225015   3.492   2.298   5.789  0.2299 -0.4006 -0.4840
 8351TIP3   OH225016   1.950   6.194   0.150  0.4138 -0.0516 -0.0216
 8351TIP3    H125017   2.035   6.180   0.192  0.7588  0.3700 -0.5693
 8351TIP3    H225018   1.906   6.257   0.207  0.2577 -0.6547  0.5381
 8352TIP3   OH225019   2.682   0.347   5.687  0.0048 -0.1483 -0.7457
 8352TIP3    H125020   2.685   0.381   5.597 -0.7509 -1.5074 -1.3116
 8352TIP3    H225021   2.716   0.258   5.680 -1.2980 -0.7320  0.0774
 8353TIP3   OH225022   5.874   0.430   0.917 -0.0911  0.1295  0.2728
 8353TIP3    H125023   5.941   0.497   0.929 -0.1375  0.0799  0.8470
 8353TIP3    H225024   5.858   0.396   1.005  0.6868 -1.3677 -0.1202
 8354TIP3   OH225025   6.523   4.666   5.566 -0.2403 -0.3846  0.2940
 8354TIP3    H125026   6.442   4.705   5.535  0.3369  0.0802 -0.6880
 8354TIP3    H225027   6.525   4.579   5.525 -0.3592 -0.4983  0.5259
 8355TIP3   OH225028   4.420   0.222   0.250  0.2108 -0.0321  0.4588
 8355TIP3    H125029   4.439   0.310   0.218  1.2676 -0.5416 -0.3894
 8355TIP3    H225030   4.337   0.199   0.208 -0.1638  0.6070  0.8246
 8356TIP3   OH225031   3.237   3.136   0.531 -0.0081 -0.0847  0.6280
 8356TIP3    H125032   3.239   3.040   0.533 -0.6606 -0.1098  0.3192
 8356TIP3    H225033   3.257   3.162   0.621  2.5673 -0.4449  0.2369
 8357TIP3   OH225034   6.740   4.920   1.534  0.0453 -0.1472  0.2790
 8357TIP3    H125035   6.819   4.944   1.582 -0.1886  1.4344 -0.0576
 8357TIP3    H225036   6.731   4.826   1.547  0.8924 -0.0327  1.9766
 8358TIP3   OH225037   1.473   5.992   2.595  0.5346 -0.0553  0.3133
 8358TIP3    H125038   1.479   6.087   2.584  0.1074  0.1616  1.7576
 8358TIP3    H225039   1.418   5.980   2.673  1.3739 -1.4543  0.7364
 8359TIP3   OH225040   1.956   2.851   5.492  0.0433  0.1219 -0.0784
 8359TIP3    H125041   1.861   2.848   5.501 -0.0274  1.8543  0.1404
 8359TIP3    H225042   1.971   2.874   5.400  0.2889 -0.9157 -0.3093
 8360TIP3   OH225043   0.717   6.801   5.424 -0.4191  0.1936 -0.3565
 8360TIP3    H125044   0.787   6.759   5.473 -1.1580  1.2201  1.6621
 8360TIP3    H225045   0.661   6.728   5.395 -0.2638 -0.4062  0.8113
 8361TIP3   OH225046   0.996   2.870   0.213 -0.1942  0.0516 -0.5248
 8361TIP3    H125047   1.044   2.939   0.167 -1.9053  1.3420 -0.4827
 8361TIP3    H225048   1.026   2.876   0.304 -0.0336  0.4714 -0.6039
 8362TIP3   OH225049   7.179   2.169   4.905 -0.3123 -0.2341 -1.1089
 8362TIP3    H125050   7.262   2.190   4.947 -1.4065  0.9395  0.5770
 8362TIP3    H225051   7.134   2.110   4.966 -1.9377  1.5150 -0.5100
 8363TIP3   OH225052   1.212   2.647   1.161  0.0509  0.3153 -0.1711
 8363TIP3    H125053   1.249   2.673   1.076 -1.4732 -1.2987 -1.4185
 8363TIP3    H225054   1.277   2.676   1.225  0.7896  2.5181 -1.7670
 8364TIP3   OH225055   6.944   6.329   4.460  0.3032  0.2516  0.0006
 8364TIP3    H125056   6.881   6.392   4.425  1.0435  0.2359 -1.3854
 8364TIP3    H225057   6.929   6.249   4.409  2.4149  0.6794 -1.3666
 8365TIP3   OH225058   3.564   1.851   1.525 -0.5394  0.1828 -0.0544
 8365TIP3    H125059   3.634   1.911   1.549 -1.2567  0.7686  0.6335
 8365TIP3    H225060   3.554   1.793   1.600 -1.9218  1.1974  0.5957
 8366TIP3   OH225061   3.128   2.197   4.619  0.1981 -0.1901 -0.6096
 8366TIP3    H125062   3.068   2.243   4.560 -0.2510 -1.1532 -0.9286
 8366TIP3    H225063   3.196   2.261   4.639 -1.2185  1.1110  0.1851
 8367TIP3   OH225064   3.284   2.339   1.133  0.7080  0.7296  0.9204
 8367TIP3    H125065   3.262   2.432   1.139  2.0638  1.1160  0.3274
 8367TIP3    H225066   3.316   2.327   1.043 -0.5476 -0.5723  0.6122
 8368TIP3   OH225067   4.158   3.694   4.935 -0.0088  1.1050 -0.2456
 8368TIP3    H125068   4.221   3.624   4.955  1.1769  2.0713 -0.4602
 8368TIP3    H225069   4.189   3.730   4.852  0.1491  2.6753  0.4592
 8369TIP3   OH225070   3.389   6.009   1.355 -0.1703 -0.2431 -0.2874
 8369TIP3    H125071   3.311   6.062   1.339 -0.2348 -0.8272 -2.0632
 8369TIP3    H225072   3.374   5.971   1.442 -0.4466  2.0188  0.7445
 8370TIP3   OH225073   5.679   1.151   2.548 -0.0470 -0.0047 -0.5217
 8370TIP3    H125074   5.663   1.057   2.538  0.6052 -0.2389  0.5162
 8370TIP3    H225075   5.656   1.188   2.463  1.0400 -1.2948 -1.4283
 8371TIP3   OH225076   5.275   1.937   1.728 -0.0890 -0.2522  0.6154
 8371TIP3    H125077   5.267   1.998   1.655  0.7179 -0.0726  0.6710
 8371TIP3    H225078   5.228   1.859   1.698 -1.3541  0.4688  0.6521
 8372TIP3   OH225079   2.951   3.280   1.359 -0.2556 -0.4489 -0.1928
 8372TIP3    H125080   3.004   3.347   1.316 -0.7145 -0.5542 -0.9275
 8372TIP3    H225081   2.868   3.324   1.378 -0.6504 -0.8777 -0.9031
 8373TIP3   OH225082   6.483   1.630   3.078 -0.0810 -0.1335 -0.4217
 8373TIP3    H125083   6.525   1.553   3.117  1.8619  0.9907 -0.1527
 8373TIP3    H225084   6.398   1.635   3.121 -0.3216 -2.1866 -0.5529
 8374TIP3   OH225085   5.842   2.737   4.213  0.3398 -0.5162  0.1762
 8374TIP3    H125086   5.862   2.643   4.214  1.7266 -0.2689  1.6217
 8374TIP3    H225087   5.920   2.777   4.252  0.3014  1.3716 -1.5493
 8375TIP3   OH225088   5.160   2.896   5.465 -0.2760  0.0238  0.6652
 8375TIP3    H125089   5.238   2.862   5.423 -0.4715 -2.1797  1.9554
 8375TIP3    H225090   5.128   2.824   5.519 -3.1290  0.8960  0.2985
 8376TIP3   OH225091   6.060   5.162   4.017 -0.1418 -0.3321  0.1188
 8376TIP3    H125092   5.968   5.180   3.994  0.2575  0.8376 -0.6594
 8376TIP3    H225093   6.067   5.187   4.109 -0.4397  0.2296 -0.0057
 8377TIP3   OH225094   2.966   3.406   5.063 -0.7571 -0.2607  0.6523
 8377TIP3    H125095   2.910   3.450   4.999  1.6090  0.7714 -0.8474
 8377TIP3    H225096   2.967   3.314   5.034 -1.5949 -0.2874  0.6809
 8378TIP3   OH225097   0.740   3.490   3.463 -0.3734 -0.2902 -0.5370
 8378TIP3    H125098   0.774   3.574   3.431  0.9435 -1.6300 -2.9593
 8378TIP3    H225099   0.817   3.441   3.491 -1.1032 -0.7882  0.6822
 8379TIP3   OH225100   1.314   4.842   3.236  0.7011 -0.2078  0.0536
 8379TIP3    H125101   1.343   4.788   3.162 -0.7955  0.6554 -1.2515
 8379TIP3    H225102   1.284   4.779   3.302  2.4232 -1.0048  0.1172
 8380TIP3   OH225103   5.123   3.006   5.879  0.2952 -0.0749  0.0236
 8380TIP3    H125104   5.210   2.971   5.861  1.3302  1.7807  1.0737
 8380TIP3    H225105   5.133   3.101   5.868 -1.4812  0.2099  0.5809
 8381TIP3   OH225106   6.466   4.828   1.121 -0.3107 -0.6895 -0.7272
 8381TIP3    H125107   6.486   4.775   1.199 -1.1831  2.4143  1.7986
 8381TIP3    H225108   6.544   4.819   1.065 -0.0967 -3.8652 -0.1002
 8382TIP3   OH225109   4.681   2.377   0.337  0.0629  0.1692  0.0393
 8382TIP3    H125110   4.713   2.384   0.427  1.1167 -0.5873 -0.2492
 8382TIP3    H225111   4.761   2.370   0.284 -0.5547 -0.5423 -0.8420
 8383TIP3   OH225112   5.791   3.041   0.568 -0.2497 -0.3180  0.4596
 8383TIP3    H125113   5.860   3.107   0.575 -0.9588  0.3850  1.0979
 8383TIP3    H225114   5.729   3.079   0.505 -0.2265 -0.7805  0.1582
 8384TIP3   OH225115   6.660   6.563   1.708 -0.5259 -0.1039  0.8973
 8384TIP3    H125116   6.643   6.613   1.629 -2.3203 -2.1622 -0.1177
 8384TIP3    H225117   6.697   6.480   1.677  1.6356  0.1766  2.4643
 8385TIP3   OH225118   4.431   4.646   0.267  0.6842  0.0680  0.1955
 8385TIP3    H125119   4.505   4.606   0.221  0.8988 -0.3484  0.8980
 8385TIP3    H225120   4.470   4.714   0.322  0.7524 -1.1984  1.7716
 8386TIP3   OH225121   4.527   6.341   5.626  0.2956  0.2697 -0.4316
 8386TIP3    H125122   4.518   6.311   5.536 -0.0871  1.8310 -0.9385
 8386TIP3    H225123   4.617   6.374   5.632  0.3782  0.0091 -0.1781
 8387TIP3   OH225124   0.652   0.001   1.613 -0.1644  0.7678 -0.3909
 8387TIP3    H125125   0.595   0.034   1.682  1.9548 -0.0939  1.9245
 8387TIP3    H225126   0.729   0.058   1.617  0.7476 -0.3949 -0.8034
 8388TIP3   OH225127   5.951   3.827   2.280  0.3731  0.2477 -0.4018
 8388TIP3    H125128   5.924   3.825   2.188  0.9621 -0.2939 -0.5724
 8388TIP3    H225129   5.965   3.735   2.303 -0.4934  0.3167  0.4575
 8389TIP3   OH225130   4.782   3.243   5.050 -0.1966  0.2530 -0.0875
 8389TIP3    H125131   4.758   3.326   5.092  0.2471 -0.0190  0.7150
 8389TIP3    H225132   4.698   3.205   5.024 -0.5767  0.0096  1.3717
 8390TIP3   OH225133   5.274   1.506   4.846  0.0209 -0.3443  0.1111
 8390TIP3    H125134   5.346   1.455   4.807 -0.5291 -0.6231 -0.5715
 8390TIP3    H225135   5.268   1.585   4.792 -0.8948 -0.8377 -0.5443
 8391TIP3   OH225136   2.944   0.294   0.609  0.1925 -0.2991  0.6060
 8391TIP3    H125137   2.913   0.235   0.678  0.0267  1.3984  2.0648
 8391TIP3    H225138   3.034   0.265   0.592 -0.0263 -1.2369  0.9606
 8392TIP3   OH225139   0.526   6.233   4.643 -0.2263  0.3210  0.1595
 8392TIP3    H125140   0.530   6.304   4.579 -0.8233  2.1572  2.0362
 8392TIP3    H225141   0.435   6.203   4.639  0.4426 -1.7171 -1.9309
 8393TIP3   OH225142   4.829   2.591   1.902 -0.4319  0.2067  0.2456
 8393TIP3    H125143   4.769   2.617   1.972 -0.2214 -0.4285  0.6684
 8393TIP3    H225144   4.897   2.540   1.946 -0.1447  0.0352 -0.3854
 8394TIP3   OH225145   3.478   0.000   5.405 -0.3124 -0.4411  0.0951
 8394TIP3    H125146   3.449  -0.029   5.319 -0.5255  1.0954 -0.3882
 8394TIP3    H225147   3.431   0.082   5.420  0.9882  0.1880  0.9200
 8395TIP3   OH225148   5.122   5.182   3.035 -0.1328  0.1444  0.1416
 8395TIP3    H125149   5.052   5.144   3.088  0.4018 -0.5702  0.3596
 8395TIP3    H225150   5.203   5.150   3.076  0.2984 -0.9560 -1.4561
 8396TIP3   OH225151   6.093   2.014   5.898  0.2752 -0.2871 -0.1631
 8396TIP3    H125152   6.114   2.006   5.805 -0.1936  0.6601 -0.3582
 8396TIP3    H225153   6.059   2.103   5.908 -1.1155 -0.8670  0.6242
 8397TIP3   OH225154   5.373   1.960   5.033  0.5853  0.4115  0.8448
 8397TIP3    H125155   5.345   1.869   5.021  1.1728  0.4428 -1.1155
 8397TIP3    H225156   5.316   2.010   4.974  0.5540  1.2780  1.5900
 8398TIP3   OH225157   6.707  -0.002   1.808 -0.0308  0.1172  0.4149
 8398TIP3    H125158   6.632  -0.003   1.868  0.2339 -0.2226  0.7457
 8398TIP3    H225159   6.783   0.007   1.866  0.2381 -0.3616  0.1390
 8399TIP3   OH225160   3.528   3.795   2.240 -0.0998  0.2543  0.0182
 8399TIP3    H125161   3.469   3.745   2.297  1.6256 -2.1140 -0.1131
 8399TIP3    H225162   3.585   3.843   2.301  0.2217 -0.4134  0.2555
 8400TIP3   OH225163   0.452   0.873   2.091 -0.0556 -0.5981 -0.5230
 8400TIP3    H125164   0.401   0.940   2.044  0.7957 -0.0723 -0.7156
 8400TIP3    H225165   0.427   0.883   2.183 -0.2965 -0.3461 -0.6160
 8401TIP3   OH225166   3.063   6.732   3.799  0.7230  0.5347 -0.0613
 8401TIP3    H125167   2.999   6.769   3.738 -1.5311 -1.5286  0.8641
 8401TIP3    H225168   3.095   6.806   3.850  0.2484  1.8428 -1.5836
 8402TIP3   OH225169   4.134   3.825   2.478 -0.1043  0.0128  0.6763
 8402TIP3    H125170   4.051   3.870   2.493 -0.4732 -0.3581 -0.1872
 8402TIP3    H225171   4.188   3.849   2.553 -1.0671  0.0704  1.3706
 8403TIP3   OH225172   6.807   6.186   4.957 -0.0952 -0.1217  0.2150
 8403TIP3    H125173   6.819   6.220   4.868 -0.9168  0.5746  0.3634
 8403TIP3    H225174   6.762   6.102   4.943  1.3761 -0.8886 -0.1113
 8404TIP3   OH225175   5.756   6.184   1.592 -1.3004 -0.1656 -0.3200
 8404TIP3    H125176   5.749   6.219   1.681 -1.3304 -1.8342  0.3791
 8404TIP3    H225177   5.768   6.261   1.537 -0.7431  0.8819  1.1828
 8405TIP3   OH225178   0.427   4.559   5.714 -0.2634  0.0563 -0.4464
 8405TIP3    H125179   0.475   4.590   5.791 -1.8652 -0.2546  0.7198
 8405TIP3    H225180   0.458   4.615   5.642  0.6416  0.9076  0.5819
 8406TIP3   OH225181   1.666   1.822   3.380 -0.1899  0.5010  0.1731
 8406TIP3    H125182   1.662   1.735   3.421  0.4917  0.1713 -0.4465
 8406TIP3    H225183   1.692   1.880   3.452 -1.4088  0.3390  0.7796
 8407TIP3   OH225184   3.885   0.219   5.447  0.5852  0.3287  0.4591
 8407TIP3    H125185   3.807   0.268   5.473  0.8241  0.2136  1.4402
 8407TIP3    H225186   3.858   0.127   5.450  1.2648  0.1372  2.8025
 8408TIP3   OH225187   2.686   5.066   1.848 -0.0887  0.0897  0.7831
 8408TIP3    H125188   2.635   5.145   1.830 -0.2271 -0.0369  0.6157
 8408TIP3    H225189   2.622   5.004   1.883 -0.2214 -0.3537 -0.2054
 8409TIP3   OH225190   0.302   0.883   0.423 -0.3069  0.5043 -0.1600
 8409TIP3    H125191   0.220   0.926   0.445 -0.4763 -0.6382  1.6928
 8409TIP3    H225192   0.369   0.951   0.432 -0.8858  1.1056 -0.3412
 8410TIP3   OH225193   0.167   5.311   1.104  0.3712  0.0685  0.2302
 8410TIP3    H125194   0.096   5.369   1.076  1.1023  1.2268  0.7220
 8410TIP3    H225195   0.204   5.353   1.182  1.6849 -0.4311 -0.0948
 8411TIP3   OH225196   7.210   5.046   1.578 -0.0049 -0.7655  0.2787
 8411TIP3    H125197   7.234   4.964   1.536 -2.2658 -1.4135  0.1298
 8411TIP3    H225198   7.180   5.021   1.665  0.0525 -0.0024  0.5236
 8412TIP3   OH225199   3.009   4.343   4.336 -0.4857 -0.0531  0.1622
 8412TIP3    H125200   2.940   4.370   4.276  1.2284 -0.6406 -2.2123
 8412TIP3    H225201   2.988   4.253   4.358  0.6575 -1.0550 -2.4621
 8413TIP3   OH225202   0.378   6.268   3.974 -0.6548  0.5045  0.2546
 8413TIP3    H125203   0.316   6.341   3.978 -0.4628  0.6103  2.6471
 8413TIP3    H225204   0.361   6.218   4.054 -0.2937 -1.6995 -0.9742
 8414TIP3   OH225205   0.415   3.820   2.963  0.2746 -0.0347 -0.4883
 8414TIP3    H125206   0.468   3.827   3.042  1.9755 -1.1776 -1.4494
 8414TIP3    H225207   0.353   3.892   2.968  1.4992  0.9650  1.0255
 8415TIP3   OH225208   3.991   3.355   2.422 -0.6152  0.4814  0.4729
 8415TIP3    H125209   4.018   3.431   2.371  0.9179  1.4332  2.5659
 8415TIP3    H225210   4.032   3.280   2.378 -1.1574  0.9516 -0.9079
 8416TIP3   OH225211   0.191   4.628   3.283  0.5863  0.2033 -0.0635
 8416TIP3    H125212   0.175   4.701   3.224  1.0614 -0.6646 -1.3046
 8416TIP3    H225213   0.207   4.553   3.226 -0.7341 -1.0901  1.1685
 8417TIP3   OH225214   1.072   6.101   0.896 -0.1245 -0.3389  0.5681
 8417TIP3    H125215   1.096   6.123   0.805 -0.4600  1.0988  0.7916
 8417TIP3    H225216   1.074   6.006   0.899 -2.7114 -0.5813 -1.6862
 8418TIP3   OH225217   0.229   1.896   2.554  0.8407 -0.2362  0.1550
 8418TIP3    H125218   0.139   1.910   2.583  0.3140  0.8610 -1.7976
 8418TIP3    H225219   0.280   1.892   2.634 -0.9365 -0.9116  1.3246
 8419TIP3   OH225220   3.889   6.051   2.955  0.4771 -0.1210 -0.0456
 8419TIP3    H125221   3.877   6.131   2.905  1.9546 -0.5758 -1.2085
 8419TIP3    H225222   3.873   5.981   2.892  1.6583 -0.7053  0.2750
 8420TIP3   OH225223   2.631   3.381   1.565  0.3495  0.2890  0.6014
 8420TIP3    H125224   2.607   3.472   1.547  1.6290  0.5874  0.3071
 8420TIP3    H225225   2.550   3.332   1.552  0.2798  0.9923 -2.1263
 8421TIP3   OH225226   2.730   2.131   1.919 -0.5862 -0.1754 -0.0142
 8421TIP3    H125227   2.765   2.121   1.830 -1.2357  0.4872 -0.3577
 8421TIP3    H225228   2.637   2.114   1.910 -0.4607 -1.3925  0.7976
 8422TIP3   OH225229   0.048   5.901   2.564  0.0229 -0.4863  0.4531
 8422TIP3    H125230   0.067   5.837   2.496 -0.9006  0.5147 -0.8050
 8422TIP3    H225231  -0.032   5.945   2.533  0.7656  1.4257  1.1196
 8423TIP3   OH225232   0.894   0.812   0.012 -0.2858  0.3557 -0.4283
 8423TIP3    H125233   0.821   0.869  -0.012 -0.1955  0.2315 -1.0081
 8423TIP3    H225234   0.852   0.735   0.052 -0.4421  0.5163 -0.2796
 8424TIP3   OH225235   6.396   4.009   4.427 -0.1785 -0.2586  0.0478
 8424TIP3    H125236   6.360   4.035   4.343 -0.5502 -1.5716 -0.2274
 8424TIP3    H225237   6.473   3.956   4.405  1.6715  2.0076  0.6109
 8425TIP3   OH225238   1.954   3.702   4.047  0.0784  0.1376  0.0497
 8425TIP3    H125239   1.905   3.782   4.028 -0.2410  0.0541  0.5231
 8425TIP3    H225240   2.032   3.733   4.094  0.1461  0.2029 -0.1022
 8426TIP3   OH225241   2.850   3.079   2.883  0.3540  0.5676 -0.0100
 8426TIP3    H125242   2.894   3.011   2.831 -0.1404 -1.8250  2.4662
 8426TIP3    H225243   2.765   3.089   2.841  0.5235 -0.1594 -0.5538
 8427TIP3   OH225244   5.885   2.519   3.053  0.2096  0.0454  0.1060
 8427TIP3    H125245   5.849   2.446   3.004  1.0638 -0.2809 -0.0628
 8427TIP3    H225246   5.954   2.555   2.996  0.6609  0.1743  0.7143
 8428TIP3   OH225247   3.521   2.027   0.877  0.3870  0.5478  0.2208
 8428TIP3    H125248   3.552   2.102   0.928  0.8709  0.1031  0.5876
 8428TIP3    H225249   3.484   2.066   0.798  2.6572  1.1040 -0.6773
 8429TIP3   OH225250   1.138   6.825   1.471  0.2624 -0.3052  0.0636
 8429TIP3    H125251   1.120   6.789   1.558 -1.1501 -1.0560 -0.5098
 8429TIP3    H225252   1.157   6.748   1.417 -0.5038 -0.0069 -0.6509
 8430TIP3   OH225253   0.113   4.227   0.389  0.2278 -0.2884 -0.4517
 8430TIP3    H125254   0.188   4.199   0.441  0.6356 -0.2263 -0.9958
 8430TIP3    H225255   0.094   4.316   0.418 -0.3045 -0.6789  0.4268
 8431TIP3   OH225256   4.852   4.154   2.602 -0.6887 -0.0698  0.1218
 8431TIP3    H125257   4.894   4.086   2.655  1.5287  0.5610 -0.7059
 8431TIP3    H225258   4.874   4.131   2.512  2.3974  2.9695 -0.1226
 8432TIP3   OH225259   3.939   4.788   1.004  0.2723 -0.4426 -0.2549
 8432TIP3    H125260   3.981   4.773   0.919  1.7607 -1.2354  0.5947
 8432TIP3    H225261   4.010   4.783   1.068 -1.1211 -2.1930  1.2739
 8433TIP3   OH225262   5.240   2.137   2.960 -0.5613 -0.0826 -0.2761
 8433TIP3    H125263   5.184   2.197   3.010  0.3396  1.1342 -0.6933
 8433TIP3    H225264   5.312   2.117   3.019 -0.7527 -0.6258 -0.2141
 8434TIP3   OH225265   6.873   5.567   3.967 -0.0597 -0.4793  0.2129
 8434TIP3    H125266   6.898   5.595   3.879 -2.6777  0.6530 -0.2759
 8434TIP3    H225267   6.934   5.496   3.988  1.4600  0.0713 -1.9604
 8435TIP3   OH225268   6.064   2.719   4.021 -0.4250  0.0518 -0.0205
 8435TIP3    H125269   6.086   2.725   3.927  1.6158 -0.7946  0.3440
 8435TIP3    H225270   6.070   2.809   4.052 -0.8531  0.3054 -0.6476
 8436TIP3   OH225271   1.191   3.176   4.920 -0.0161 -0.1715  0.1664
 8436TIP3    H125272   1.165   3.155   4.830  1.1018  1.3218 -0.5642
 8436TIP3    H225273   1.262   3.115   4.939  0.8060  0.5067 -0.5918
 8437TIP3   OH225274   5.387   6.531   5.684  0.4674 -0.1137 -0.1027
 8437TIP3    H125275   5.439   6.530   5.604  2.6506 -2.7429  1.2134
 8437TIP3    H225276   5.449   6.556   5.753 -1.2062  1.4410  0.9447
 8438TIP3   OH225277   6.010   0.450   3.176  0.0356  0.6207  0.8083
 8438TIP3    H125278   5.993   0.528   3.228 -1.1728 -0.0023  1.3883
 8438TIP3    H225279   5.927   0.432   3.132 -0.4501 -1.6335  2.4734
 8439TIP3   OH225280   1.380   5.956   0.685 -0.2779 -0.7114  0.5089
 8439TIP3    H125281   1.427   5.875   0.664 -1.3804 -1.0654 -0.6899
 8439TIP3    H225282   1.346   5.942   0.773  0.0568 -1.3027  0.5450
 8440TIP3   OH225283   3.683   6.723   0.825 -0.1846 -0.0338  0.3512
 8440TIP3    H125284   3.777   6.727   0.841  0.2298 -1.5724 -1.3382
 8440TIP3    H225285   3.658   6.814   0.807  0.8737  0.4627  1.2905
 8441TIP3   OH225286   2.843   2.483   3.624  0.5519 -0.3306 -0.4460
 8441TIP3    H125287   2.764   2.431   3.636 -0.0957  0.7149 -0.0339
 8441TIP3    H225288   2.895   2.465   3.703 -1.0724  1.9933  1.2826
 8442TIP3   OH225289   0.298   1.118   2.074  0.1714  0.0578 -0.1349
 8442TIP3    H125290   0.228   1.160   2.024  1.7920  0.9735 -1.7455
 8442TIP3    H225291   0.258   1.098   2.159 -1.8480  1.0926 -0.7787
 8443TIP3   OH225292   0.785   2.444   5.484 -0.2971  0.0774  1.0088
 8443TIP3    H125293   0.703   2.444   5.434  1.8441  1.7271 -2.9302
 8443TIP3    H225294   0.815   2.353   5.480 -1.3090 -0.3047  1.5119
 8444TIP3   OH225295   3.783   0.932   1.517  0.1580 -0.3374 -0.1855
 8444TIP3    H125296   3.795   0.922   1.423 -0.4554  2.2189 -0.6215
 8444TIP3    H225297   3.872   0.934   1.553  0.4019 -1.0154 -0.7511
 8445TIP3   OH225298   4.221   2.512   5.540  0.4550  0.0144 -0.4253
 8445TIP3    H125299   4.127   2.498   5.537  0.4383  0.1110 -0.3675
 8445TIP3    H225300   4.246   2.489   5.629  0.4314  0.3144 -0.3392
 8446TIP3   OH225301   1.943   1.187   4.566 -0.5258  0.1115 -0.2537
 8446TIP3    H125302   1.946   1.096   4.596  1.0983  0.1995 -0.0562
 8446TIP3    H225303   1.934   1.239   4.645  0.0958  0.1752 -0.2164
 8447TIP3   OH225304   5.320   4.689   2.574 -0.5373 -0.2816 -0.1297
 8447TIP3    H125305   5.266   4.621   2.616 -0.2725 -0.4472 -0.0546
 8447TIP3    H225306   5.366   4.643   2.504 -1.5985  0.1567 -1.1556
 8448TIP3   OH225307   5.703   4.752   3.501 -0.3641  0.2289 -0.7560
 8448TIP3    H125308   5.724   4.785   3.588 -0.2704  0.2295 -0.7788
 8448TIP3    H225309   5.690   4.658   3.513  2.4261 -0.3141 -1.2018
 8449TIP3   OH225310   2.180   0.145   4.819  0.2285 -0.2729 -0.0508
 8449TIP3    H125311   2.233   0.101   4.886  0.2856  0.9056  0.7029
 8449TIP3    H225312   2.105   0.086   4.806 -1.0823  0.5589  2.8783
 8450TIP3   OH225313   1.492   5.712   4.301  0.3066  0.6133  0.2763
 8450TIP3    H125314   1.396   5.715   4.304  0.2581 -0.2038 -0.1439
 8450TIP3    H225315   1.513   5.687   4.211  0.9511  1.5496  0.1517
 8451TIP3   OH225316   3.326   1.910   1.399  0.5677 -0.0842 -0.3950
 8451TIP3    H125317   3.400   1.891   1.457 -1.2773  0.2438  2.2778
 8451TIP3    H225318   3.321   1.834   1.341  1.2431 -1.5383  1.3371
 8452TIP3   OH225319   6.835   0.833   2.764 -0.1111 -0.3779  0.1915
 8452TIP3    H125320   6.928   0.814   2.762 -0.1042 -0.6525  1.7330
 8452TIP3    H225321   6.798   0.768   2.824 -1.0001  0.8591  1.0402
 8453TIP3   OH225322   4.157   5.856   1.488 -0.3845  0.6041  0.1306
 8453TIP3    H125323   4.125   5.799   1.558  0.1894  1.1617  0.8710
 8453TIP3    H225324   4.141   5.945   1.521  0.1855  0.8763 -0.3035
 8454TIP3   OH225325   5.866   0.564   0.654  0.0234  0.1143  0.1183
 8454TIP3    H125326   5.878   0.487   0.598 -1.3851  0.2353 -0.4028
 8454TIP3    H225327   5.859   0.529   0.742 -0.8183 -0.3906 -0.1396
 8455TIP3   OH225328   5.023   1.221   2.804  0.2040  0.0706 -0.1381
 8455TIP3    H125329   5.048   1.281   2.734 -2.7199  2.3351  0.5752
 8455TIP3    H225330   4.954   1.167   2.766  0.3388 -0.4089  0.2893
 8456TIP3   OH225331   0.721   0.357   2.284 -0.1649 -0.5605  0.2909
 8456TIP3    H125332   0.704   0.439   2.331  3.0056  0.1571  0.4205
 8456TIP3    H225333   0.677   0.369   2.199 -1.3565  0.4318  1.0034
 8457TIP3   OH225334   4.998   3.345  -0.010  0.2950  0.1097  0.2177
 8457TIP3    H125335   5.083   3.383   0.015 -0.4805  1.8714  0.3466
 8457TIP3    H225336   4.937   3.376   0.058 -0.6190 -0.4196 -0.3413
 8458TIP3   OH225337   0.300   1.444   3.741  0.1951 -0.0111 -0.0323
 8458TIP3    H125338   0.300   1.539   3.728  1.5169  0.0680  0.3572
 8458TIP3    H225339   0.383   1.427   3.786 -0.4258 -1.2506  0.6834
 8459TIP3   OH225340   3.027   1.065   1.371  0.0921  0.2409 -0.0343
 8459TIP3    H125341   2.981   1.130   1.317  0.4393  0.1396 -0.4595
 8459TIP3    H225342   2.962   0.997   1.387 -0.2838  0.7132  0.4449
 8460TIP3   OH225343   2.564   0.984   5.406  0.2592  0.7755  0.2216
 8460TIP3    H125344   2.573   1.067   5.453  0.3720 -0.4040  2.4297
 8460TIP3    H225345   2.654   0.952   5.397  0.1681  0.6109 -0.1198
 8461TIP3   OH225346   0.775   0.176   4.743  0.3022  0.1567 -0.4136
 8461TIP3    H125347   0.798   0.087   4.717  0.6562  0.1022  0.0682
 8461TIP3    H225348   0.858   0.224   4.739  0.0348  0.5691 -1.0893
 8462TIP3   OH225349   3.186   4.586   3.532  0.4265  0.0932  0.3738
 8462TIP3    H125350   3.233   4.527   3.591  0.2265  0.2358  0.6811
 8462TIP3    H225351   3.111   4.616   3.583  0.5885  0.7008  0.2630
 8463TIP3   OH225352   0.860   2.852   4.977 -0.0011  0.5964  0.3413
 8463TIP3    H125353   0.857   2.759   4.957  0.5723  0.4640  0.8502
 8463TIP3    H225354   0.793   2.891   4.920  0.5683  0.0433 -0.7318
 8464TIP3   OH225355   0.430   3.065   3.434  0.0918 -0.2987 -0.4394
 8464TIP3    H125356   0.516   3.029   3.454  0.5261  0.1462 -1.4344
 8464TIP3    H225357   0.429   3.152   3.475 -0.4379 -0.8572  0.7842
 8465TIP3   OH225358   6.471   0.033   3.271  0.0047  0.5062 -0.3391
 8465TIP3    H125359   6.489  -0.015   3.351 -2.1758  0.0361 -0.0642
 8465TIP3    H225360   6.542   0.009   3.211  3.3342  3.0301  2.2208
 8466TIP3   OH225361   0.065   6.207   2.683  0.2559  0.0216  0.5057
 8466TIP3    H125362   0.059   6.294   2.643 -1.8792 -1.7523 -3.5365
 8466TIP3    H225363   0.128   6.160   2.629  0.5140 -1.3404  1.9307
 8467TIP3   OH225364   5.709   4.091   3.688 -0.3167  0.2347 -0.0359
 8467TIP3    H125365   5.720   4.115   3.596 -0.5658 -0.4998 -0.2670
 8467TIP3    H225366   5.797   4.098   3.725 -0.4344  1.8581  0.0175
 8468TIP3   OH225367   1.471   5.284   3.616 -0.0414  0.1769  0.5225
 8468TIP3    H125368   1.460   5.297   3.522 -1.0650 -0.2831  0.5685
 8468TIP3    H225369   1.548   5.228   3.624  0.9714  1.4432  0.0523
 8469TIP3   OH225370   0.407   1.459   4.365  0.0545  0.4427  0.7084
 8469TIP3    H125371   0.347   1.471   4.291  0.7350  3.5421  0.5128
 8469TIP3    H225372   0.349   1.444   4.440 -1.0197  2.7131  0.4160
 8470TIP3   OH225373   5.089   6.063   5.822  0.6018  0.6217 -0.3154
 8470TIP3    H125374   5.056   5.987   5.773 -0.0329  0.7207 -0.0477
 8470TIP3    H225375   5.058   6.139   5.773 -2.5456  0.8092  1.7217
 8471TIP3   OH225376   1.796   5.840   0.427  0.0771  0.0143  0.4184
 8471TIP3    H125377   1.864   5.886   0.378  0.6084 -0.8521  0.3149
 8471TIP3    H225378   1.718   5.895   0.417  1.1772  2.0365  2.1216
 8472TIP3   OH225379   2.479   1.847   5.837 -0.5182 -0.0545  0.4737
 8472TIP3    H125380   2.503   1.761   5.802 -2.1574 -0.5023  0.3652
 8472TIP3    H225381   2.394   1.833   5.879 -0.1904  1.2291  1.6455
 8473TIP3   OH225382   1.575   3.689   2.721  0.5819  0.0933 -0.4386
 8473TIP3    H125383   1.518   3.620   2.687 -0.4627  1.1828 -0.9537
 8473TIP3    H225384   1.656   3.679   2.672 -0.9346  1.7350 -3.5496
 8474TIP3   OH225385   2.947   5.153   1.533 -0.9793 -0.0529 -0.1644
 8474TIP3    H125386   3.017   5.206   1.495  1.2398 -0.1184  3.3679
 8474TIP3    H225387   2.890   5.216   1.577 -0.7074 -0.2539  0.4976
 8475TIP3   OH225388   5.346   1.084   2.534  0.6183  0.8389  0.0148
 8475TIP3    H125389   5.259   1.046   2.530  0.2921  1.3558  1.5134
 8475TIP3    H225390   5.405   1.008   2.538  0.1174  0.4646  0.6795
 8476TIP3   OH225391   2.027   2.145   5.030  0.0428 -0.0345 -0.5865
 8476TIP3    H125392   2.017   2.152   4.935 -1.2208  1.1918 -0.3892
 8476TIP3    H225393   1.976   2.067   5.054  0.9189 -0.7448 -0.9664
 8477TIP3   OH225394   1.741   3.279   4.053 -0.0181 -0.2177  0.6435
 8477TIP3    H125395   1.649   3.259   4.068 -0.3518  1.0501  0.3969
 8477TIP3    H225396   1.755   3.259   3.961 -0.4827  1.0655  0.2659
 8478TIP3   OH225397   1.631   0.245   3.933 -0.3394  0.7092  0.4994
 8478TIP3    H125398   1.578   0.257   3.854 -0.5233  0.8128  0.6367
 8478TIP3    H225399   1.569   0.210   3.997 -0.2033  0.6789  0.6127
 8479TIP3   OH225400   6.516   3.001   5.558  0.1611 -0.0669  0.3556
 8479TIP3    H125401   6.518   2.906   5.566 -1.6797 -0.0451  1.6383
 8479TIP3    H225402   6.542   3.033   5.644 -0.5075  0.5564  0.3357
 8480TIP3   OH225403   3.927   2.464   1.647 -0.2588 -0.1799 -0.3462
 8480TIP3    H125404   3.945   2.394   1.711  1.5392 -0.7726 -1.4342
 8480TIP3    H225405   4.013   2.487   1.612 -0.9068  2.0547 -0.6120
 8481TIP3   OH225406   5.912   0.845   0.682 -0.8450 -0.7286 -0.3075
 8481TIP3    H125407   5.987   0.849   0.624 -0.6806 -1.8052 -0.2021
 8481TIP3    H225408   5.885   0.753   0.680 -1.8793 -0.4502  0.0056
 8482TIP3   OH225409   1.970   0.874   1.036 -0.2439  0.1595  0.4455
 8482TIP3    H125410   1.915   0.925   1.096 -0.6771 -0.6532  0.7631
 8482TIP3    H225411   2.002   0.802   1.090 -0.3587 -0.3956 -0.2191
 8483TIP3   OH225412   1.221   5.234   3.749 -0.9320  1.0043 -0.6001
 8483TIP3    H125413   1.170   5.240   3.668 -0.0728 -2.9213 -1.6290
 8483TIP3    H225414   1.305   5.275   3.727 -0.6792 -0.0876 -1.7757
 8484TIP3   OH225415   0.475   2.386   2.852 -0.2934 -0.2293  0.6178
 8484TIP3    H125416   0.471   2.373   2.947  0.8624 -0.7150  0.6233
 8484TIP3    H225417   0.440   2.474   2.838  0.9718  0.4783  1.6682
 8485TIP3   OH225418   7.089   2.816   5.310  0.6522 -0.2261  0.4576
 8485TIP3    H125419   7.099   2.900   5.265 -0.1360 -0.6430 -0.5315
 8485TIP3    H225420   7.093   2.839   5.403  0.1291  0.9609  0.2166
 8486TIP3   OH225421   6.419   3.010   1.114  0.0362  0.4352 -0.1221
 8486TIP3    H125422   6.324   3.024   1.112 -0.3941 -1.8972  0.8514
 8486TIP3    H225423   6.436   2.958   1.035  0.4309  0.4624 -0.0550
 8487TIP3   OH225424   1.554   0.983   0.863  0.4533 -0.1831 -0.1404
 8487TIP3    H125425   1.613   0.910   0.881  2.6874  1.3580 -0.7836
 8487TIP3    H225426   1.556   0.993   0.768 -0.8329 -0.0270 -0.1793
 8488TIP3   OH225427   4.015   3.150   4.993 -0.0129  0.6093 -0.1828
 8488TIP3    H125428   3.920   3.138   4.994  0.0274  0.1151  1.6718
 8488TIP3    H225429   4.032   3.212   5.065  1.1673 -0.3685  0.4185
 8489TIP3   OH225430   0.512   4.728   5.522  0.0435  0.2794  0.6449
 8489TIP3    H125431   0.569   4.702   5.450 -1.0750  0.2932 -0.2828
 8489TIP3    H225432   0.503   4.823   5.513 -0.5024  0.2177  0.4818
 8490TIP3   OH225433   2.451   2.168   1.902  0.6141 -0.1150 -0.0338
 8490TIP3    H125434   2.447   2.098   1.837  0.0323 -1.5148  1.4411
 8490TIP3    H225435   2.400   2.239   1.864 -2.4020 -2.0290  0.1569
 8491TIP3   OH225436   7.141   5.282   3.183  0.8320 -0.3303 -0.2932
 8491TIP3    H125437   7.103   5.316   3.264  1.4284 -0.7535  0.1764
 8491TIP3    H225438   7.068   5.276   3.122  0.2158 -0.7791  0.4755
 8492TIP3   OH225439   6.182   5.305   1.854 -0.0782 -0.3324 -0.2508
 8492TIP3    H125440   6.245   5.371   1.883 -1.1692  1.0216 -0.8181
 8492TIP3    H225441   6.223   5.265   1.777  1.1083 -1.1839  0.7927
 8493TIP3   OH225442   5.219   4.940   5.346 -0.5027  0.4153  0.0555
 8493TIP3    H125443   5.141   4.904   5.305  0.5020 -2.1630  0.2280
 8493TIP3    H225444   5.191   4.964   5.435 -0.7806 -2.2670  0.7856
 8494TIP3   OH225445   2.424   3.208   5.869 -0.2350 -0.3018 -0.3047
 8494TIP3    H125446   2.343   3.158   5.876 -0.3446 -0.7581 -3.4138
 8494TIP3    H225447   2.489   3.156   5.915 -1.3379 -0.7697  0.7774
 8495TIP3   OH225448   0.569   3.934   4.187 -0.1423 -0.5138 -0.5731
 8495TIP3    H125449   0.584   3.898   4.274 -1.3436  1.2381  0.4287
 8495TIP3    H225450   0.476   3.958   4.186  0.1991  0.9463 -1.7535
 8496TIP3   OH225451   2.355   3.312   0.446  0.7131  0.1820 -0.3469
 8496TIP3    H125452   2.290   3.256   0.490  1.6341 -0.8746 -0.2989
 8496TIP3    H225453   2.346   3.397   0.489  0.4591 -0.3898  0.7612
 8497TIP3   OH225454   2.984   0.889   3.183 -0.5288  0.6850 -0.1740
 8497TIP3    H125455   3.079   0.883   3.193 -0.6211 -0.9183 -0.0595
 8497TIP3    H225456   2.965   0.982   3.195  1.1261  1.2015 -1.2143
 8498TIP3   OH225457   6.442   4.478   4.526 -0.1154  0.1673 -0.2483
 8498TIP3    H125458   6.411   4.390   4.548 -0.2447  0.7534  2.1504
 8498TIP3    H225459   6.499   4.465   4.450 -1.0284 -1.8121 -0.6518
 8499TIP3   OH225460   2.900   5.464   3.532 -0.3401  0.1678  0.0287
 8499TIP3    H125461   2.868   5.411   3.460 -0.3420  0.0021  0.1495
 8499TIP3    H225462   2.968   5.411   3.573  1.0985  1.0792 -1.0745
 8500TIP3   OH225463   2.588   1.934   2.111  0.0272  0.4550 -0.1167
 8500TIP3    H125464   2.511   1.893   2.150  0.1094  0.6993  0.3218
 8500TIP3    H225465   2.604   1.885   2.031 -0.0091 -0.2193  0.2809
 8501TIP3   OH225466   4.005   3.235   5.825  0.4081 -0.2319  0.4840
 8501TIP3    H125467   3.916   3.233   5.860  1.0778  0.3863  2.3400
 8501TIP3    H225468   4.062   3.222   5.902  1.9287 -0.1832 -0.5833
 8502TIP3   OH225469   5.569   5.178   4.264  0.0777 -0.0184 -0.2492
 8502TIP3    H125470   5.525   5.094   4.251  0.5974 -0.0369 -2.2518
 8502TIP3    H225471   5.545   5.230   4.188  1.0664  1.0623  0.1440
 8503TIP3   OH225472   0.713   5.354   4.420 -0.0534  0.3524  0.5221
 8503TIP3    H125473   0.798   5.391   4.444  0.0888  1.3276 -1.2936
 8503TIP3    H225474   0.660   5.430   4.396 -0.7993 -0.4038 -0.2718
 8504TIP3   OH225475   1.843   6.368   1.834  0.1232 -0.8883 -0.2676
 8504TIP3    H125476   1.812   6.442   1.782  0.1044 -2.3554 -2.5367
 8504TIP3    H225477   1.775   6.355   1.900 -1.3093 -0.5762 -1.6065
 8505TIP3   OH225478   5.103   1.245   3.159  0.1695 -0.1017 -0.4257
 8505TIP3    H125479   5.030   1.184   3.169  0.6021 -0.5328  0.2001
 8505TIP3    H225480   5.089   1.312   3.225  0.4023 -0.2501 -0.2249
 8506TIP3   OH225481   3.352   2.371   4.678  0.5503 -0.1666 -0.1530
 8506TIP3    H125482   3.399   2.415   4.607 -0.5519  1.0657 -0.1570
 8506TIP3    H225483   3.359   2.430   4.752 -0.7238 -0.0935 -0.0727
 8507TIP3   OH225484   1.380   4.613   0.615 -0.4428 -0.5819 -0.4166
 8507TIP3    H125485   1.463   4.592   0.657 -1.0252 -0.2971  0.9285
 8507TIP3    H225486   1.403   4.631   0.524  0.7227 -2.1783 -0.4740
 8508TIP3   OH225487   5.827   6.749   1.782 -0.4018  0.6168  0.0868
 8508TIP3    H125488   5.828   6.837   1.819 -0.0518  0.7849 -0.3138
 8508TIP3    H225489   5.918   6.719   1.787 -0.7211 -0.2023  1.3338
 8509TIP3   OH225490   3.271   0.437   3.585 -0.5509 -0.1776 -0.2620
 8509TIP3    H125491   3.291   0.517   3.634  1.3165  0.3650 -1.8035
 8509TIP3    H225492   3.303   0.454   3.497  0.1619 -2.7228 -0.5778
 8510TIP3   OH225493   4.794   5.927   1.236 -0.3234 -0.6831  0.5468
 8510TIP3    H125494   4.717   5.898   1.284 -1.3685  1.7092  0.4309
 8510TIP3    H225495   4.824   6.005   1.283 -0.1650  0.5291 -1.4513
 8511TIP3   OH225496   1.772   4.630   1.404 -0.8269 -0.0229 -0.1612
 8511TIP3    H125497   1.736   4.659   1.321 -2.7938  0.9049  0.9430
 8511TIP3    H225498   1.806   4.542   1.386 -2.9027 -0.6239 -1.5445
 8512TIP3   OH225499   2.163   0.659   3.912  0.2965  0.1209 -0.5703
 8512TIP3    H125500   2.204   0.573   3.900  1.7116  0.8378 -1.0569
 8512TIP3    H225501   2.207   0.696   3.989 -0.6474  0.2238 -0.0684
 8513TIP3   OH225502   5.388   5.086   3.157  0.2590  0.1642  0.0759
 8513TIP3    H125503   5.467   5.099   3.210 -0.3087  0.9079  0.7652
 8513TIP3    H225504   5.324   5.049   3.218 -0.5845  1.5756  0.0689
 8514TIP3   OH225505   5.184   2.060   4.843  0.2248  0.3039  0.2122
 8514TIP3    H125506   5.104   2.048   4.792  0.0656  0.1494  0.4992
 8514TIP3    H225507   5.255   2.049   4.780 -0.0005  2.4130 -0.4760
 8515TIP3   OH225508   2.126   2.348   5.209  0.1009  0.7693 -0.3982
 8515TIP3    H125509   2.082   2.295   5.142  0.6259  0.7898 -0.7631
 8515TIP3    H225510   2.141   2.432   5.167 -1.6292  1.5778  0.5062
 8516TIP3   OH225511   3.261   0.910   4.248 -0.0433  0.1397  0.3621
 8516TIP3    H125512   3.284   0.856   4.324 -0.3565  0.7832  0.9270
 8516TIP3    H225513   3.169   0.932   4.260 -0.4863 -0.8794 -0.9295
 8517TIP3   OH225514   1.794   5.186   3.317  0.5629 -0.3619  0.0894
 8517TIP3    H125515   1.839   5.104   3.332  1.5839  0.1439 -0.1297
 8517TIP3    H225516   1.734   5.168   3.244  1.0351 -0.8176 -0.1904
 8518TIP3   OH225517   3.471   1.698   3.648 -0.4101 -0.1862 -0.2709
 8518TIP3    H125518   3.445   1.648   3.726  1.6862 -1.8920 -0.5600
 8518TIP3    H225519   3.432   1.651   3.575  1.2616 -1.3008 -0.5154
 8519TIP3   OH225520   3.997   4.537   4.825 -0.0909 -0.6197 -0.1973
 8519TIP3    H125521   3.998   4.618   4.875  0.4364  0.1041 -1.3144
 8519TIP3    H225522   3.922   4.546   4.766  0.1909 -0.7558 -0.5864
 8520TIP3   OH225523   5.690   3.458   5.446 -0.1179 -0.0137  0.2565
 8520TIP3    H125524   5.645   3.403   5.509 -1.8361  2.6123  1.4780
 8520TIP3    H225525   5.666   3.422   5.361 -2.8680 -0.0008  0.9480
 8521TIP3   OH225526   3.688   0.928   0.987 -0.1492  0.1852 -0.1034
 8521TIP3    H125527   3.664   0.839   0.961  0.3482 -0.0073  0.0969
 8521TIP3    H225528   3.635   0.984   0.929 -2.5371 -0.1839  1.5736
 8522TIP3   OH225529   4.174   3.980   4.594 -0.3010  0.6811  0.1624
 8522TIP3    H125530   4.241   3.979   4.527 -0.5239  0.3711 -0.0539
 8522TIP3    H225531   4.148   4.072   4.601  2.1851  1.3465  2.2925
 8523TIP3   OH225532   0.413   3.279   4.819  0.6049  0.1018  0.4015
 8523TIP3    H125533   0.408   3.247   4.909 -0.1303  0.2097  0.4040
 8523TIP3    H225534   0.467   3.214   4.774 -0.2931 -0.8007  0.5760
 8524TIP3   OH225535   0.506   6.815   3.549  0.2748  0.6282  0.4725
 8524TIP3    H125536   0.513   6.743   3.611  0.5997 -0.9113 -1.2421
 8524TIP3    H225537   0.594   6.852   3.544  0.4599  0.1584  0.2506
 8525TIP3   OH225538   5.401   2.743   0.448  0.1375 -0.6014  0.2855
 8525TIP3    H125539   5.399   2.833   0.480  1.0545  0.1441 -1.6165
 8525TIP3    H225540   5.333   2.739   0.382 -0.3355 -1.5217  0.7985
 8526TIP3   OH225541   6.693   0.140   2.176 -0.1347 -0.2745 -0.1864
 8526TIP3    H125542   6.684   0.056   2.221 -2.1167 -0.2676 -0.4502
 8526TIP3    H225543   6.625   0.195   2.215  1.2213  1.2756  0.0738
 8527TIP3   OH225544   6.044   3.545   2.736 -0.7152  0.0980 -0.9081
 8527TIP3    H125545   6.092   3.606   2.681  2.6517  0.1843  1.8174
 8527TIP3    H225546   5.960   3.588   2.751  0.3108  2.5616 -1.6404
 8528TIP3   OH225547   2.279   1.607   2.848 -0.1180 -0.1727 -0.2294
 8528TIP3    H125548   2.343   1.602   2.919 -0.9045 -2.8932  0.3942
 8528TIP3    H225549   2.317   1.669   2.786  0.6225  2.3170  2.4703
 8529TIP3   OH225550   1.707   4.997   4.897  0.1232  0.1564  0.1490
 8529TIP3    H125551   1.673   5.065   4.956 -1.1104 -0.1407 -0.2000
 8529TIP3    H225552   1.706   4.917   4.950  1.2807  0.3191  0.4586
 8530TIP3   OH225553   3.322   0.633   1.876 -0.5547 -0.4355 -0.0957
 8530TIP3    H125554   3.352   0.545   1.856  0.8463  0.0584 -0.2537
 8530TIP3    H225555   3.319   0.677   1.791  0.5373  0.1953  0.1780
 8531TIP3   OH225556   6.887   0.316   2.298 -0.5749  0.1391  0.1617
 8531TIP3    H125557   6.835   0.249   2.254 -0.1167 -0.4316  0.4765
 8531TIP3    H225558   6.870   0.396   2.249 -1.5289 -0.0994  0.0915
 8532TIP3   OH225559   4.626   6.326   0.538 -0.1502 -0.0992  0.3015
 8532TIP3    H125560   4.613   6.292   0.627 -0.0070  0.8512  0.6938
 8532TIP3    H225561   4.689   6.266   0.499  0.1822 -0.2304  1.0193
 8533TIP3   OH225562   7.149   6.270   4.026  0.3357  0.1920 -0.4165
 8533TIP3    H125563   7.227   6.307   4.067 -0.0190 -0.5757  1.0324
 8533TIP3    H225564   7.151   6.177   4.050 -1.5570  0.3481  0.5616
 8534TIP3   OH225565   0.814   2.751   2.500 -0.2510  0.0982 -0.1046
 8534TIP3    H125566   0.784   2.660   2.511  0.6467 -0.3236 -0.9868
 8534TIP3    H225567   0.761   2.801   2.563  0.1778 -1.2342  1.3970
 8535TIP3   OH225568   4.862   3.494   3.880  0.1689 -0.4543 -0.5023
 8535TIP3    H125569   4.865   3.409   3.922  0.0770 -0.2188 -0.0113
 8535TIP3    H225570   4.848   3.475   3.787 -0.2172 -0.9613 -0.3441
 8536TIP3   OH225571   2.083   0.916   4.166 -0.3307  0.5326  0.2700
 8536TIP3    H125572   2.011   0.923   4.229 -1.3776  2.5119 -1.0717
 8536TIP3    H225573   2.159   0.949   4.213 -1.1413  2.1780  0.4900
 8537TIP3   OH225574   7.043   4.114   4.121 -0.1323  0.0753 -0.0019
 8537TIP3    H125575   7.085   4.079   4.199 -2.0922  1.3488  1.7199
 8537TIP3    H225576   7.014   4.037   4.072 -3.3502 -0.9168  3.1091
 8538TIP3   OH225577   3.001   5.082   4.177 -0.8330  0.3058  0.1435
 8538TIP3    H125578   2.960   5.142   4.115  0.3074 -1.7229 -2.8124
 8538TIP3    H225579   2.943   5.083   4.253 -2.7303  2.4252 -1.1863
 8539TIP3   OH225580   5.039   2.816   2.793 -0.4001  0.0944 -0.3577
 8539TIP3    H125581   5.094   2.790   2.719  0.9598 -0.1384  0.6949
 8539TIP3    H225582   5.060   2.909   2.807 -0.4662  0.0725 -0.1069
 8540TIP3   OH225583   2.831   1.411   4.872 -0.0288  0.4499 -0.3608
 8540TIP3    H125584   2.760   1.387   4.931  0.3007  1.0156  0.2804
 8540TIP3    H225585   2.884   1.332   4.864 -0.2718  0.2704 -0.1747
 8541TIP3   OH225586   3.188   5.463   3.502 -0.1816 -0.3994 -0.6977
 8541TIP3    H125587   3.261   5.495   3.555 -1.0989  1.1725 -0.3205
 8541TIP3    H225588   3.159   5.383   3.547 -0.4157  0.4449  0.7102
 8542TIP3   OH225589   4.814   3.571   5.728  0.7715  0.0371  0.1113
 8542TIP3    H125590   4.874   3.525   5.787  2.7500  0.3446 -1.5611
 8542TIP3    H225591   4.813   3.517   5.648 -1.0115  0.1900 -0.0205
 8543TIP3   OH225592   5.781   0.788   1.054 -0.5035  0.1708  0.2017
 8543TIP3    H125593   5.854   0.726   1.046 -0.2118  0.7039 -1.9607
 8543TIP3    H225594   5.732   0.758   1.131  0.3609 -1.9592 -0.0092
 8544TIP3   OH225595   6.403   5.409   3.263 -0.4877 -0.2534 -0.2322
 8544TIP3    H125596   6.356   5.490   3.240 -0.3785 -0.7232 -2.3456
 8544TIP3    H225597   6.477   5.407   3.203 -0.1946 -1.6751  0.1402
 8545TIP3   OH225598   5.797   5.572   0.463 -0.6204  0.5202 -0.0390
 8545TIP3    H125599   5.758   5.622   0.391 -0.3968 -0.6108 -0.9837
 8545TIP3    H225600   5.880   5.540   0.427  0.0378  0.8654  1.1217
 8546TIP3   OH225601   4.849   0.463   1.176  0.5600 -0.0430  0.0633
 8546TIP3    H125602   4.911   0.478   1.105 -1.0103  0.2247 -1.3183
 8546TIP3    H225603   4.892   0.500   1.253  1.9886  0.3642 -0.8780
 8547TIP3   OH225604   3.539   3.599   1.793 -0.1934 -0.0054  0.3993
 8547TIP3    H125605   3.623   3.640   1.769 -0.7585  0.7344 -0.3688
 8547TIP3    H225606   3.502   3.658   1.858  0.2329 -0.7592  1.3564
 8548TIP3   OH225607   6.248   2.677   5.811  0.0187 -0.1159 -0.0824
 8548TIP3    H125608   6.230   2.727   5.890  1.8359  1.7939 -0.7854
 8548TIP3    H225609   6.242   2.585   5.839 -0.4143  0.5028  1.9988
 8549TIP3   OH225610   4.268   1.890   1.310 -0.1031 -0.3345 -0.4003
 8549TIP3    H125611   4.304   1.801   1.306 -1.2153 -0.7463 -2.9896
 8549TIP3    H225612   4.230   1.905   1.224 -2.3856  1.6548  0.8298
 8550TIP3   OH225613   1.029   4.922   3.238 -0.1904  0.0900  0.1038
 8550TIP3    H125614   1.123   4.937   3.246 -0.0317 -0.0602 -1.2437
 8550TIP3    H225615   1.004   4.968   3.158 -1.2337 -0.0208  0.3496
 8551TIP3   OH225616   4.019   5.053   4.821 -0.3767  0.4362  0.2914
 8551TIP3    H125617   4.024   5.083   4.730  2.1490  0.5194  0.4038
 8551TIP3    H225618   4.110   5.037   4.846 -1.1749 -1.5743  2.1662
 8552TIP3   OH225619   6.729   1.193   2.174  0.0564  0.0916 -0.5983
 8552TIP3    H125620   6.776   1.277   2.176 -0.0003  0.1249 -0.6757
 8552TIP3    H225621   6.637   1.218   2.169 -0.0589  0.0503  0.9422
 8553TIP3   OH225622   0.351   2.718   5.200 -0.3761 -0.6013  0.3764
 8553TIP3    H125623   0.422   2.770   5.164  0.5361 -0.8798  1.7010
 8553TIP3    H225624   0.341   2.748   5.290 -0.7313 -1.7841  0.7623
 8554TIP3   OH225625   4.952   3.210   3.332 -0.0983 -0.0764 -0.5588
 8554TIP3    H125626   5.040   3.246   3.318  0.1211 -1.1755 -2.3348
 8554TIP3    H225627   4.899   3.248   3.262 -0.6087 -0.7401 -0.5475
 8555TIP3   OH225628   3.377   2.712   5.455 -0.0212 -0.7395 -0.0871
 8555TIP3    H125629   3.298   2.747   5.497 -1.3834 -1.6863 -1.6838
 8555TIP3    H225630   3.418   2.659   5.523  0.3665  1.3238  1.3872
 8556TIP3   OH225631   0.119   0.815   5.365  0.3779  0.0655  0.3888
 8556TIP3    H125632   0.170   0.801   5.286 -1.1887  0.2130 -0.6835
 8556TIP3    H225633   0.031   0.785   5.343  0.0276 -0.4498  2.2735
 8557TIP3   OH225634   6.814   4.389   1.076 -0.1988 -0.2515  0.5489
 8557TIP3    H125635   6.809   4.444   0.998 -0.7366 -0.4486  0.4378
 8557TIP3    H225636   6.804   4.300   1.044  0.0733 -0.3706  0.7924
 8558TIP3   OH225637   1.296   0.464   4.698 -0.1477  0.8426  0.7056
 8558TIP3    H125638   1.271   0.438   4.786  0.7053 -0.1939  0.6620
 8558TIP3    H225639   1.217   0.450   4.645 -0.5135  0.9998  1.2115
 8559TIP3   OH225640   2.817   4.172   3.802 -0.6180 -0.2619  0.4356
 8559TIP3    H125641   2.878   4.122   3.857  0.3840 -0.6538 -0.9689
 8559TIP3    H225642   2.733   4.165   3.848 -0.1317 -1.7671  1.1889
 8560TIP3   OH225643   4.966   2.246   4.180  0.4230  0.0699  0.0695
 8560TIP3    H125644   4.887   2.210   4.220  0.5705  0.3589  0.6216
 8560TIP3    H225645   5.031   2.176   4.187 -0.0916 -0.6049 -1.4177
 8561TIP3   OH225646   6.645   4.727   5.877  0.8429 -0.6878  0.3993
 8561TIP3    H125647   6.630   4.790   5.807 -1.4579  0.6730  1.9630
 8561TIP3    H225648   6.728   4.753   5.916 -0.1291  1.5488  1.1005
 8562TIP3   OH225649   4.872   4.099   0.737 -0.2703 -0.3172  0.4296
 8562TIP3    H125650   4.857   4.191   0.759  1.8688  0.4214 -0.9007
 8562TIP3    H225651   4.942   4.071   0.796 -0.6653 -0.9862  0.5855
 8563TIP3   OH225652   2.670   0.952   0.780  0.0670  0.2070 -0.0505
 8563TIP3    H125653   2.649   0.923   0.691  0.9456 -0.5676 -0.0147
 8563TIP3    H225654   2.589   0.936   0.829  0.2815 -1.5608 -0.1954
 8564TIP3   OH225655   5.972   6.527   3.601 -0.0452 -0.4274  0.3891
 8564TIP3    H125656   6.045   6.471   3.626  0.2533 -0.1732  0.0810
 8564TIP3    H225657   5.894   6.475   3.622  0.2014 -2.1532 -2.5116
 8565TIP3   OH225658   0.785   3.448   5.450 -0.0600  0.2328 -0.0114
 8565TIP3    H125659   0.830   3.377   5.405  0.5973  0.2767  0.5625
 8565TIP3    H225660   0.833   3.527   5.426 -1.1024  0.5814 -1.0691
 8566TIP3   OH225661   3.298   1.791   2.828 -0.8794  0.2506 -0.3610
 8566TIP3    H125662   3.243   1.737   2.771 -1.8057  0.2101  0.5446
 8566TIP3    H225663   3.325   1.864   2.772 -1.4476  0.0101 -0.9705
 8567TIP3   OH225664   2.558   5.482   3.387  0.4526 -0.4903  0.4651
 8567TIP3    H125665   2.501   5.464   3.462 -0.5787 -0.8228 -0.3589
 8567TIP3    H225666   2.588   5.571   3.401 -2.5556  0.8117 -0.4230
 8568TIP3   OH225667   5.323   1.939   2.269 -0.3357 -0.0431 -0.4788
 8568TIP3    H125668   5.360   1.855   2.241  0.4756  0.7335 -1.8438
 8568TIP3    H225669   5.276   1.971   2.192 -1.4806  0.3084  0.3469
 8569TIP3   OH225670   3.182   6.284   1.482  0.0726  0.1169  0.1480
 8569TIP3    H125671   3.121   6.223   1.441  1.4600 -0.8934 -0.5168
 8569TIP3    H225672   3.228   6.324   1.408  1.5319 -0.5719  0.6406
 8570TIP3   OH225673   2.191   5.372   2.250 -0.6026 -0.1984 -0.0020
 8570TIP3    H125674   2.197   5.403   2.340  2.5283 -0.5589  0.0027
 8570TIP3    H225675   2.150   5.286   2.256 -2.0875  0.5241  0.8143
 8571TIP3   OH225676   6.136   3.052   1.275 -0.0639  0.4094 -0.2605
 8571TIP3    H125677   6.047   3.086   1.262 -0.5050 -0.2546  0.9179
 8571TIP3    H225678   6.142   2.977   1.217 -0.8544 -0.5108  0.7975
 8572TIP3   OH225679   7.245   2.971   0.345  0.2462  0.1115  0.2753
 8572TIP3    H125680   7.241   3.018   0.428  2.3586 -0.8197  0.9934
 8572TIP3    H225681   7.162   2.924   0.339  0.2880 -0.2745  2.1906
 8573TIP3   OH225682   4.949   2.056   5.806 -0.1691 -0.4076  0.1505
 8573TIP3    H125683   4.941   2.098   5.720 -0.8088 -1.2193 -0.2007
 8573TIP3    H225684   4.859   2.053   5.840  0.1718  0.6354  1.2176
 8574TIP3   OH225685   5.467   6.632   1.082  0.0516  0.0066  0.2695
 8574TIP3    H125686   5.457   6.630   0.986  2.9972 -1.8476 -0.0901
 8574TIP3    H225687   5.409   6.562   1.113  1.9026 -2.0169 -0.5871
 8575TIP3   OH225688   4.758   3.935   1.104 -0.1516  0.1248  0.2387
 8575TIP3    H125689   4.836   3.891   1.069 -1.0844  0.6660 -2.7603
 8575TIP3    H225690   4.793   4.003   1.162  1.5659 -0.1595 -0.3915
 8576TIP3   OH225691   4.847   0.677   5.118 -0.6768 -0.5283  0.4414
 8576TIP3    H125692   4.831   0.666   5.025  0.8415  0.7266 -0.0141
 8576TIP3    H225693   4.829   0.591   5.156 -0.4109 -1.3135 -1.1378
 8577TIP3   OH225694   6.265   6.797   0.516  0.5627  0.5157  0.1052
 8577TIP3    H125695   6.307   6.838   0.591  0.8119  0.5521 -0.0551
 8577TIP3    H225696   6.243   6.709   0.546  0.1107  0.7326  0.4177
 8578TIP3   OH225697   6.615   6.675   1.088 -0.0498 -0.4233  0.1024
 8578TIP3    H125698   6.693   6.665   1.142 -0.5265 -1.4232  0.6335
 8578TIP3    H225699   6.547   6.704   1.149 -0.6515 -1.7979  0.1227
 8579TIP3   OH225700   0.919   1.480   0.441 -0.0064 -0.2200  0.3078
 8579TIP3    H125701   0.989   1.486   0.505 -0.7756  0.0895  1.1517
 8579TIP3    H225702   0.931   1.394   0.400 -0.2250 -1.0007  1.7755
 8580TIP3   OH225703   0.783   3.766   3.314 -0.5818 -0.3610  0.5903
 8580TIP3    H125704   0.840   3.837   3.344  0.3908 -1.2780  0.9899
 8580TIP3    H225705   0.700   3.782   3.358  0.4831 -1.0895  3.1057
 8581TIP3   OH225706   3.123   3.507   2.334 -0.2924  0.1511 -0.1687
 8581TIP3    H125707   3.067   3.530   2.408 -2.4561 -0.6433 -1.4377
 8581TIP3    H225708   3.154   3.419   2.354  1.1576  0.8725  0.8794
 8582TIP3   OH225709   5.618   3.031   4.890 -0.5740 -0.3347 -0.2781
 8582TIP3    H125710   5.536   3.080   4.886  0.4619  1.6466  1.1840
 8582TIP3    H225711   5.616   2.987   4.976 -0.2369 -0.5456 -0.3747
 8583TIP3   OH225712   3.701   2.161   4.955  0.2417 -0.5621 -0.3454
 8583TIP3    H125713   3.636   2.212   5.004 -0.4523 -1.7963  0.0904
 8583TIP3    H225714   3.676   2.070   4.971  1.7656 -1.0621 -0.6364
 8584TIP3   OH225715   3.685   3.347   1.818  0.5649  0.1622  0.2628
 8584TIP3    H125716   3.634   3.429   1.819 -0.2132 -0.3004 -0.4063
 8584TIP3    H225717   3.651   3.299   1.742  0.5352 -1.0793  1.0465
 8585TIP3   OH225718   1.365   0.883   1.241  0.4472  0.0695 -0.0139
 8585TIP3    H125719   1.403   0.821   1.180 -0.4427 -2.7844  2.0879
 8585TIP3    H225720   1.278   0.902   1.206  0.7525  0.1818 -0.7122
 8586TIP3   OH225721   7.107   1.476   4.885  0.7061 -0.4305 -0.0448
 8586TIP3    H125722   7.146   1.556   4.921  0.0556 -0.3586  0.5290
 8586TIP3    H225723   7.151   1.405   4.932 -0.8196 -0.3116  1.6561
 8587TIP3   OH225724   4.104   5.534   4.454  0.3242  0.0417  0.1825
 8587TIP3    H125725   4.171   5.592   4.419 -0.1355  0.7459  0.4365
 8587TIP3    H225726   4.146   5.449   4.462  1.9566  0.9614  2.6160
 8588TIP3   OH225727   0.235   1.025   4.937  0.1098 -0.1019  0.0890
 8588TIP3    H125728   0.216   1.113   4.971 -1.1713 -0.8338  1.4120
 8588TIP3    H225729   0.154   0.998   4.894  0.2333 -0.9012  0.3394
 8589TIP3   OH225730   4.582   1.618   0.174  0.4595 -0.1475 -0.0416
 8589TIP3    H125731   4.583   1.627   0.269  2.3556  0.4072 -0.0713
 8589TIP3    H225732   4.556   1.705   0.142 -0.1803 -0.3347 -0.0424
 8590TIP3   OH225733   3.865   3.925   2.773 -0.2095  0.1437 -0.1555
 8590TIP3    H125734   3.822   4.007   2.797  0.1616  0.1100  0.6542
 8590TIP3    H225735   3.891   3.937   2.682 -0.7710  0.6595 -0.2492
 8591TIP3   OH225736   1.144   6.586   0.374 -0.1728  0.1895 -0.0372
 8591TIP3    H125737   1.053   6.561   0.390  0.0436 -0.4386  0.2533
 8591TIP3    H225738   1.182   6.599   0.461  0.1636 -0.1104 -0.1357
 8592TIP3   OH225739   5.595   1.790   4.774  0.2917 -0.3008  0.1152
 8592TIP3    H125740   5.620   1.758   4.860 -2.2508 -2.4700  0.1961
 8592TIP3    H225741   5.647   1.739   4.713  0.1835 -0.6801  0.3373
 8593TIP3   OH225742   1.248   1.854   0.182 -0.3578  0.0555 -0.3812
 8593TIP3    H125743   1.337   1.887   0.175  0.2220 -1.5179 -0.6313
 8593TIP3    H225744   1.220   1.879   0.270  0.5254  0.0546 -0.0930
 8594TIP3   OH225745   2.005   2.344   1.298  0.3501 -0.0645  0.1650
 8594TIP3    H125746   1.990   2.261   1.253 -0.9122  0.0268  0.3922
 8594TIP3    H225747   2.030   2.404   1.228 -0.4932 -0.2049 -0.2747
 8595TIP3   OH225748   5.685   6.141   5.421 -0.4219  0.6575  0.0646
 8595TIP3    H125749   5.753   6.153   5.354 -0.8020 -0.4044 -0.5409
 8595TIP3    H225750   5.666   6.047   5.418 -0.8680  0.7015  1.2667
 8596TIP3   OH225751   4.284   0.674   0.173  0.0393 -0.4674  0.3635
 8596TIP3    H125752   4.308   0.756   0.130  1.1533 -0.0680  1.6921
 8596TIP3    H225753   4.192   0.685   0.196 -0.8564 -1.0338 -2.5917
 8597TIP3   OH225754   5.715   5.649   0.195 -0.3052 -0.3819  0.0058
 8597TIP3    H125755   5.753   5.668   0.110 -0.8196 -0.1214 -0.1664
 8597TIP3    H225756   5.636   5.701   0.199 -1.0726 -1.5126  0.0440
 8598TIP3   OH225757   3.929   3.019   3.519  0.0513  0.3907  0.0731
 8598TIP3    H125758   3.981   3.009   3.599  0.5732  1.1979 -0.1497
 8598TIP3    H225759   3.992   3.046   3.453 -0.8170  2.5694  0.0704
 8599TIP3   OH225760   4.334   0.092   1.835 -0.3652 -0.7388  0.2439
 8599TIP3    H125761   4.257   0.146   1.820  0.7956  0.4647 -1.9949
 8599TIP3    H225762   4.353   0.053   1.750  2.2395  0.1308  0.3170
 8600TIP3   OH225763   0.761   5.126   1.762 -0.4093 -0.8710 -0.6485
 8600TIP3    H125764   0.811   5.066   1.707 -0.7421  0.2271 -2.2598
 8600TIP3    H225765   0.809   5.209   1.757 -0.7909 -0.5826  0.2255
 8601TIP3   OH225766   4.491   0.809   5.501 -0.3281 -0.0919  0.4043
 8601TIP3    H125767   4.525   0.820   5.412 -0.4970  0.0190  0.3511
 8601TIP3    H225768   4.559   0.762   5.548  0.6127  1.5262  0.7436
 8602TIP3   OH225769   3.898   3.428   4.172 -0.1258  0.1061 -0.2373
 8602TIP3    H125770   3.846   3.508   4.169 -1.6712 -0.8447  0.3512
 8602TIP3    H225771   3.853   3.372   4.234  0.4644 -1.5448 -1.2314
 8603TIP3   OH225772   5.177   1.400   1.377  0.0011 -0.2449  0.5472
 8603TIP3    H125773   5.173   1.368   1.287 -0.2674 -0.8801  0.7821
 8603TIP3    H225774   5.194   1.323   1.430  0.0607  0.1095  1.0552
 8604TIP3   OH225775   6.451   6.672   3.980  0.4456 -0.3009  0.2485
 8604TIP3    H125776   6.478   6.733   3.911 -0.0334 -1.5040 -1.0594
 8604TIP3    H225777   6.462   6.721   4.062  0.1324  1.4941 -0.7439
 8605TIP3   OH225778   3.842   5.336   4.629 -0.2347 -0.1606 -0.0705
 8605TIP3    H125779   3.847   5.367   4.539 -1.4798  1.5754  0.3987
 8605TIP3    H225780   3.907   5.387   4.677  0.4225 -1.0746  0.0309
 8606TIP3   OH225781   1.466   6.495   4.277 -0.5470 -0.5435 -0.0160
 8606TIP3    H125782   1.456   6.450   4.360 -2.0725 -2.3593 -1.0904
 8606TIP3    H225783   1.376   6.507   4.245 -0.2303  3.0448  0.0024
 8607TIP3   OH225784   4.618   0.429   5.537  0.4101  0.3811  0.0787
 8607TIP3    H125785   4.605   0.336   5.554  0.6229  0.0057 -1.6807
 8607TIP3    H225786   4.662   0.461   5.616 -0.5470 -0.7740  1.1387
 8608TIP3   OH225787   1.430   6.768   3.878 -0.5742  0.4212  0.0302
 8608TIP3    H125788   1.354   6.804   3.923 -3.0434 -1.9006 -1.9236
 8608TIP3    H225789   1.422   6.798   3.788 -0.7390 -1.9182 -0.8177
 8609TIP3   OH225790   6.887   5.982   2.267  0.1464 -0.4520 -0.1817
 8609TIP3    H125791   6.878   5.896   2.309 -1.0783 -0.6880 -0.9057
 8609TIP3    H225792   6.824   6.038   2.313  1.4797  0.2990  0.8148
 8610TIP3   OH225793   5.875   6.238   4.237  0.1602 -0.8811  0.2958
 8610TIP3    H125794   5.927   6.199   4.167  0.2028  2.4190 -1.6991
 8610TIP3    H225795   5.786   6.240   4.202  0.4666  2.3756 -0.5358
 8611TIP3   OH225796   4.207   3.740   1.854 -0.4358 -0.0657  0.2102
 8611TIP3    H125797   4.274   3.792   1.809 -1.4734  1.6075  0.4917
 8611TIP3    H225798   4.128   3.794   1.849 -1.7210 -1.8900  0.0884
 8612TIP3   OH225799   2.645   1.146   0.115 -0.1733  0.0163  0.3804
 8612TIP3    H125800   2.702   1.180   0.184  1.8505 -0.9500 -0.7249
 8612TIP3    H225801   2.591   1.080   0.159  1.5136 -1.0246  0.9882
 8613TIP3   OH225802   4.056   1.673   4.979 -0.4038 -0.2760  0.4457
 8613TIP3    H125803   3.962   1.663   4.996 -0.3127 -1.2703  0.4248
 8613TIP3    H225804   4.097   1.603   5.029  0.3040 -0.0443  0.1990
 8614TIP3   OH225805   0.876   4.108   0.889  0.3653 -0.3942  0.4102
 8614TIP3    H125806   0.883   4.013   0.882 -1.8225 -0.7759  2.3996
 8614TIP3    H225807   0.940   4.132   0.956  0.9916 -0.4245 -0.1662
 8615TIP3   OH225808   1.517   0.370   3.712  0.1059 -0.2112 -0.0700
 8615TIP3    H125809   1.583   0.413   3.658  1.8225  0.0930  2.1082
 8615TIP3    H225810   1.444   0.431   3.715  0.1757 -0.0296 -1.6084
 8616TIP3   OH225811   5.019   6.743   2.727  0.2652 -0.1810 -0.1771
 8616TIP3    H125812   5.077   6.718   2.654  1.1608 -0.2742  0.5440
 8616TIP3    H225813   4.956   6.672   2.732  0.1523 -0.1437 -0.9005
 8617TIP3   OH225814   0.351   4.566   2.195  0.2241 -0.4024 -0.4225
 8617TIP3    H125815   0.409   4.504   2.240  0.0025 -1.0790 -1.0523
 8617TIP3    H225816   0.409   4.616   2.138  0.1154 -1.6237 -1.6609
 8618TIP3   OH225817   0.062   3.822   1.575 -0.5061  0.2156  0.4682
 8618TIP3    H125818  -0.001   3.854   1.511 -0.8360 -0.7978  0.2670
 8618TIP3    H225819   0.096   3.901   1.617 -0.5928  0.8769 -0.6624
 8619TIP3   OH225820   2.568   4.302   4.137  0.2502  0.2696  0.3896
 8619TIP3    H125821   2.564   4.388   4.177  1.4568  0.5118  0.0393
 8619TIP3    H225822   2.559   4.241   4.210 -2.4854  0.6170  0.4532
 8620TIP3   OH225823   3.484   2.868   2.612  0.2962  0.3306 -0.7597
 8620TIP3    H125824   3.399   2.861   2.655  0.7065  1.9726  0.4753
 8620TIP3    H225825   3.547   2.844   2.680  0.8669  0.2243 -1.3127
 8621TIP3   OH225826   0.630   3.506   0.819 -0.0074 -0.4793  0.4958
 8621TIP3    H125827   0.622   3.529   0.911 -0.6049 -1.0027  0.5864
 8621TIP3    H225828   0.724   3.495   0.805  0.3030  1.8115  0.4662
 8622TIP3   OH225829   1.645   3.432   1.749  0.2037 -0.2947 -0.4260
 8622TIP3    H125830   1.650   3.457   1.657 -0.8330  0.3254 -0.3325
 8622TIP3    H225831   1.685   3.505   1.797 -0.8796  0.2334 -0.2894
 8623TIP3   OH225832   6.082   0.902   3.168  0.1075  0.4851  0.4529
 8623TIP3    H125833   6.007   0.900   3.227  0.5086 -0.6238  0.9650
 8623TIP3    H225834   6.096   0.995   3.150 -1.3200  0.7156  0.4096
 8624TIP3   OH225835   4.561   6.677   3.384  0.3425 -0.0728 -0.0971
 8624TIP3    H125836   4.592   6.586   3.383  0.4227 -0.0453 -1.5294
 8624TIP3    H225837   4.469   6.670   3.409  0.8675 -0.3464  1.9188
 8625TIP3   OH225838   5.579   4.833   1.251  0.2499  0.4729 -0.0596
 8625TIP3    H125839   5.639   4.799   1.317  1.0277  1.2760 -0.3387
 8625TIP3    H225840   5.635   4.872   1.184 -0.5555  0.5022 -0.7380
 8626TIP3   OH225841   6.658   0.622   4.741 -0.0701 -0.3899  0.1509
 8626TIP3    H125842   6.602   0.565   4.689  1.3108 -1.3009 -0.3805
 8626TIP3    H225843   6.598   0.662   4.805 -1.4663 -0.6415 -0.9512
 8627TIP3   OH225844   4.717   3.052   2.234 -0.4949  0.0200 -0.1463
 8627TIP3    H125845   4.805   3.043   2.199 -0.4346  1.4874 -0.4369
 8627TIP3    H225846   4.726   3.032   2.327  0.5108  1.8304  0.1838
 8628TIP3   OH225847   2.423   3.565   0.004  0.0466  0.4302 -0.0340
 8628TIP3    H125848   2.418   3.648  -0.044  3.0541  0.4607 -0.4659
 8628TIP3    H225849   2.511   3.564   0.040 -0.2785 -2.1385  0.8447
 8629TIP3   OH225850   4.592   3.546   0.808  0.3253  0.0605 -0.0624
 8629TIP3    H125851   4.563   3.465   0.851  2.3972 -1.0738 -0.6594
 8629TIP3    H225852   4.513   3.579   0.765 -1.3122  0.0524  2.6596
 8630TIP3   OH225853   2.134   5.289   4.877  0.6019  0.1337 -0.5036
 8630TIP3    H125854   2.067   5.225   4.854 -0.0242  0.5132  0.1984
 8630TIP3    H225855   2.189   5.244   4.942  0.1767  0.2814 -0.0287
 8631TIP3   OH225856   0.399   4.569   1.521 -0.2514 -0.0030  0.3333
 8631TIP3    H125857   0.473   4.602   1.471 -1.0276  0.4160 -0.5763
 8631TIP3    H225858   0.363   4.646   1.566 -0.2439 -0.1689  0.6262
 8632TIP3   OH225859   5.443   5.683   1.852  0.2285 -0.5097 -0.2553
 8632TIP3    H125860   5.429   5.679   1.947  2.4621  2.2470  0.3333
 8632TIP3    H225861   5.538   5.686   1.842  0.0240  0.1625 -2.5031
 8633TIP3   OH225862   3.552   5.384   3.475  0.7162  0.0596  0.3715
 8633TIP3    H125863   3.562   5.447   3.404  0.4231  1.3251  1.4206
 8633TIP3    H225864   3.642   5.355   3.494  0.9417  0.7470  0.3787
 8634TIP3   OH225865   3.125   5.999   1.730  0.3339 -0.0306  0.0645
 8634TIP3    H125866   3.157   5.960   1.812  0.7863 -1.0765 -0.5808
 8634TIP3    H225867   3.160   6.088   1.731  1.2644 -0.3791  0.5091
 8635TIP3   OH225868   7.223   6.342   3.067 -1.0144  0.6168 -0.1161
 8635TIP3    H125869   7.164   6.344   3.143 -2.0141 -0.9289 -0.7945
 8635TIP3    H225870   7.236   6.434   3.045  0.2041  1.1702  2.5546
 8636TIP3   OH225871   4.865   1.729   2.765 -0.2516  0.0273 -0.3079
 8636TIP3    H125872   4.912   1.808   2.738  1.3726 -0.6238  0.4554
 8636TIP3    H225873   4.914   1.697   2.841 -1.4506 -1.1864 -0.0081
 8637TIP3   OH225874   0.915   2.725   3.364  0.1229 -0.8430  0.2804
 8637TIP3    H125875   0.821   2.734   3.381  0.1564  1.1090 -0.3885
 8637TIP3    H225876   0.931   2.630   3.371 -1.4469 -1.0317  2.5836
 8638TIP3   OH225877   1.610   0.615   1.819 -0.0202  0.0354  0.3140
 8638TIP3    H125878   1.691   0.571   1.792  0.4987  0.3629  1.2886
 8638TIP3    H225879   1.625   0.707   1.799 -1.2717 -0.1879 -2.1293
 8639TIP3   OH225880   1.828   2.713   3.224  0.2383 -0.1751 -0.7016
 8639TIP3    H125881   1.845   2.801   3.256  0.4709 -0.0056 -1.2660
 8639TIP3    H225882   1.837   2.657   3.301 -2.2971  0.5231  0.1773
 8640TIP3   OH225883   2.016   2.675   1.478  0.3205 -0.0770  0.0140
 8640TIP3    H125884   2.083   2.654   1.544  1.1085  1.0671 -0.3900
 8640TIP3    H225885   2.062   2.727   1.412 -1.3947  2.7899  0.8723
 8641TIP3   OH225886   5.573   0.341   0.880  0.0757  0.0880  0.3758
 8641TIP3    H125887   5.573   0.272   0.815  0.0982  2.0253 -1.7933
 8641TIP3    H225888   5.666   0.356   0.899  0.1082  0.1064  0.1988
 8642TIP3   OH225889   6.189   3.875   0.971  0.0593 -0.6064 -0.5870
 8642TIP3    H125890   6.160   3.946   0.914 -0.3305 -0.9668 -0.8473
 8642TIP3    H225891   6.126   3.804   0.955 -0.7078 -0.3534  1.0819
 8643TIP3   OH225892   2.761   1.159   4.051  0.1877  0.3182 -0.2170
 8643TIP3    H125893   2.753   1.092   3.983 -0.2058  0.9864 -0.8429
 8643TIP3    H225894   2.757   1.242   4.004  0.8176  0.7906  0.5335
 8644TIP3   OH225895   6.592   3.061   4.077  0.1933  0.1372  0.1026
 8644TIP3    H125896   6.684   3.074   4.101  0.4187  1.6546 -1.3790
 8644TIP3    H225897   6.545   3.060   4.160  1.5789 -1.0867  0.9107
 8645TIP3   OH225898   6.592   5.489   3.463 -0.0568 -0.1867  0.1693
 8645TIP3    H125899   6.515   5.439   3.439 -0.5659  0.7848 -0.2602
 8645TIP3    H225900   6.587   5.569   3.410  0.1571  0.8154  1.5962
 8646TIP3   OH225901   4.370   4.169   0.469  0.0433 -0.2977  0.5704
 8646TIP3    H125902   4.346   4.078   0.450 -0.2323 -0.4414  1.5477
 8646TIP3    H225903   4.465   4.171   0.461 -0.0798 -0.2038 -1.3372
 8647TIP3   OH225904   5.513   4.943   3.448 -0.4770 -0.0019  0.2139
 8647TIP3    H125905   5.596   4.909   3.482  1.6666  0.7593 -3.6441
 8647TIP3    H225906   5.488   4.881   3.380 -3.0121 -0.0290  1.0566
 8648TIP3   OH225907   2.356   0.239   1.292  0.3453 -0.1493 -0.0079
 8648TIP3    H125908   2.389   0.150   1.300 -0.9127 -1.0726 -3.1673
 8648TIP3    H225909   2.337   0.267   1.381  2.8294 -2.1882  1.2622
 8649TIP3   OH225910   6.082   6.157   2.460 -0.3881  0.8002 -0.3215
 8649TIP3    H125911   6.003   6.190   2.503  1.1427  0.5126  3.0181
 8649TIP3    H225912   6.125   6.235   2.425 -1.6375  1.0680 -1.3106
 8650TIP3   OH225913   4.513   4.340   5.766 -0.1728  0.5006  0.1486
 8650TIP3    H125914   4.518   4.294   5.682 -0.5510  1.1441 -0.2356
 8650TIP3    H225915   4.431   4.310   5.805  1.2487 -1.8737  1.5605
 8651TIP3   OH225916   6.457   2.716   0.389  0.0125 -0.1935 -0.3767
 8651TIP3    H125917   6.506   2.690   0.311  0.4322 -0.9055  0.1045
 8651TIP3    H225918   6.378   2.758   0.356 -0.0526 -0.9333 -1.1906
 8652TIP3   OH225919   3.005   2.240   4.999  0.3146  0.1713  0.3783
 8652TIP3    H125920   2.925   2.221   5.049  1.3313  1.1858  2.5561
 8652TIP3    H225921   3.070   2.179   5.034  1.0057  0.7457  0.1201
 8653TIP3   OH225922   5.110   4.922   4.893 -0.1911 -0.0279  0.0028
 8653TIP3    H125923   5.122   5.002   4.945 -0.2455 -0.2337  0.3357
 8653TIP3    H225924   5.015   4.918   4.878 -0.3647 -0.7342  1.1341
 8654TIP3   OH225925   4.503   2.175   3.248 -0.4192  0.3566 -0.1989
 8654TIP3    H125926   4.501   2.231   3.171  0.3664  1.2417  0.3947
 8654TIP3    H225927   4.415   2.138   3.253 -0.2640 -0.3547 -1.9566
 8655TIP3   OH225928   0.950   5.880   4.496 -0.1505  0.3217 -0.0545
 8655TIP3    H125929   0.890   5.943   4.456 -0.5853 -0.5895 -0.8647
 8655TIP3    H225930   0.904   5.849   4.574 -0.6999 -0.2838 -0.6072
 8656TIP3   OH225931   2.857   4.591   1.132 -0.1115 -0.3276  0.7435
 8656TIP3    H125932   2.939   4.610   1.177  0.1155  0.7655 -0.0863
 8656TIP3    H225933   2.859   4.646   1.054 -1.3389 -0.7775  0.3696
 8657TIP3   OH225934   0.715   5.417   1.089  0.3637  0.3469  0.0175
 8657TIP3    H125935   0.628   5.379   1.072 -0.0006  1.3201 -0.3849
 8657TIP3    H225936   0.772   5.341   1.100 -0.3053 -0.3243 -0.8968
 8658TIP3   OH225937   3.473   2.508   0.678  0.2017 -0.0314  1.4153
 8658TIP3    H125938   3.506   2.568   0.612 -0.7003 -0.3538  0.6381
 8658TIP3    H225939   3.437   2.564   0.746 -0.6640  0.3418  0.6786
 8659TIP3   OH225940   2.577   3.275   4.053 -0.1249 -0.4916 -0.3801
 8659TIP3    H125941   2.594   3.264   3.960 -0.7556 -1.1838 -0.4286
 8659TIP3    H225942   2.482   3.282   4.060 -0.3242 -2.9772  0.4020
 8660TIP3   OH225943   7.040   0.013   2.299  0.4590  0.3307 -0.0922
 8660TIP3    H125944   7.068  -0.041   2.226 -0.7423  0.6394 -0.8188
 8660TIP3    H225945   7.062   0.102   2.274  0.2547  0.4174  0.0308
 8661TIP3   OH225946   0.320   2.115   4.404 -0.2388  0.0881  0.2831
 8661TIP3    H125947   0.275   2.189   4.365  2.3780  1.3471 -0.5111
 8661TIP3    H225948   0.397   2.152   4.447  1.0410 -2.1102  0.0848
 8662TIP3   OH225949   5.880   4.698   2.791  0.1986  0.1151  0.0985
 8662TIP3    H125950   5.802   4.647   2.816 -0.8894  1.1105 -1.1198
 8662TIP3    H225951   5.870   4.781   2.839  0.0043  0.6085 -0.7795
 8663TIP3   OH225952   4.214   4.168   4.204 -0.5630 -0.6861 -0.0854
 8663TIP3    H125953   4.168   4.235   4.154  1.7133  1.6763  0.7605
 8663TIP3    H225954   4.145   4.122   4.252 -2.1863  1.3979 -0.2946
 8664TIP3   OH225955   0.645   6.347   3.977 -0.4726  0.2190  0.0919
 8664TIP3    H125956   0.552   6.323   3.978  0.1090 -2.3128  1.0451
 8664TIP3    H225957   0.678   6.315   4.061  1.3335  0.8541 -0.3422
 8665TIP3   OH225958   6.488   3.599   4.643  0.3642 -0.3517 -0.2733
 8665TIP3    H125959   6.441   3.622   4.563  0.0045  1.7649  0.4809
 8665TIP3    H225960   6.556   3.667   4.652  1.3784 -1.4075  0.4444
 8666TIP3   OH225961   3.223   3.214   0.264  0.4448 -0.1867  0.6077
 8666TIP3    H125962   3.215   3.174   0.351 -0.9986 -1.6078 -0.1212
 8666TIP3    H225963   3.294   3.278   0.273 -0.4286  0.5519  3.1397
 8667TIP3   OH225964   4.449   1.716   4.692 -0.4030  0.1856 -0.0096
 8667TIP3    H125965   4.526   1.661   4.706 -0.0721  0.6518  0.0002
 8667TIP3    H225966   4.378   1.653   4.678 -0.2138 -0.2643  0.9348
 8668TIP3   OH225967   5.049   0.710   3.301  0.2549 -0.4215  0.4552
 8668TIP3    H125968   5.087   0.627   3.329  0.4729 -0.3615  0.3398
 8668TIP3    H225969   4.974   0.723   3.359 -0.8105 -1.5342 -0.5925
 8669TIP3   OH225970   2.276   6.124   1.708  0.3155 -0.0097  0.8343
 8669TIP3    H125971   2.332   6.170   1.646 -0.6721 -1.0476 -0.9072
 8669TIP3    H225972   2.336   6.072   1.761  1.1099 -0.1798 -0.1983
 8670TIP3   OH225973   6.253   5.045   0.091  0.3312 -0.3799  0.3388
 8670TIP3    H125974   6.242   4.968   0.035 -0.0536  0.2070 -0.4101
 8670TIP3    H225975   6.171   5.051   0.140 -0.6849  0.9521 -1.4071
 8671TIP3   OH225976   4.935   5.578   3.329 -0.5544  0.3322  0.2506
 8671TIP3    H125977   4.964   5.662   3.293 -1.7093  2.6033  3.9967
 8671TIP3    H225978   4.846   5.567   3.295 -1.2492  1.8934  1.4202
 8672TIP3   OH225979   5.286   0.664   3.899 -0.7607 -0.0812 -0.4631
 8672TIP3    H125980   5.290   0.752   3.861 -0.7821  0.3513  0.5065
 8672TIP3    H225981   5.287   0.605   3.824 -2.0200  0.7802 -1.1909
 8673TIP3   OH225982   4.263   2.771   5.232  0.1111  0.1017  0.0405
 8673TIP3    H125983   4.338   2.819   5.266  0.4037  0.1844 -0.7072
 8673TIP3    H225984   4.207   2.756   5.309 -0.2436  2.0761  0.2135
 8674TIP3   OH225985   3.951   3.725   0.635  0.3785  0.3351 -0.0581
 8674TIP3    H125986   3.958   3.725   0.540 -0.4656 -2.1958 -0.1862
 8674TIP3    H225987   4.006   3.651   0.663  0.6966  1.0990  1.4501
 8675TIP3   OH225988   1.310   4.339   2.863 -0.2047  0.5484 -0.4387
 8675TIP3    H125989   1.237   4.401   2.859 -0.2455  0.5694  0.4402
 8675TIP3    H225990   1.317   4.315   2.956 -2.2903 -3.2837 -1.0556
 8676TIP3   OH225991   4.969   4.359   0.340  0.1448 -0.1990  0.1199
 8676TIP3    H125992   4.913   4.390   0.412 -2.2783  0.6369 -1.9436
 8676TIP3    H225993   4.913   4.299   0.290  1.3536  0.0383 -1.6334
 8677TIP3   OH225994   5.273   4.743   2.243  0.0585  0.2369 -0.8510
 8677TIP3    H125995   5.224   4.769   2.321 -1.5943  0.3823 -1.8833
 8677TIP3    H225996   5.311   4.825   2.210 -0.2930  0.3819 -0.8956
 8678TIP3   OH225997   0.273   1.839   0.831  0.0833  0.1341 -0.3816
 8678TIP3    H125998   0.181   1.858   0.850  0.1377 -1.2286  1.5875
 8678TIP3    H225999   0.319   1.865   0.912  0.9533 -2.2364 -0.0404
 8679TIP3   OH226000   3.149   0.354   3.300  0.0879  0.2266  0.4867
 8679TIP3    H126001   3.161   0.259   3.294 -1.4994 -0.0258  0.9567
 8679TIP3    H226002   3.072   0.372   3.246 -0.2028  1.1076  1.1707
 8680TIP3   OH226003   0.904   3.301   2.391  0.4828  0.3032  0.1082
 8680TIP3    H126004   0.947   3.216   2.398 -0.4854 -0.1385  1.2170
 8680TIP3    H226005   0.868   3.316   2.479 -0.9821  0.9606 -0.5769
 8681TIP3   OH226006   4.439   2.119   1.329 -0.5649 -0.1025 -0.3819
 8681TIP3    H126007   4.419   2.183   1.261 -0.1293 -1.2651 -1.6369
 8681TIP3    H226008   4.373   2.050   1.319  0.1160 -0.7850 -0.3129
 8682TIP3   OH226009   0.026   3.906   5.691 -0.3843 -0.0302 -0.6127
 8682TIP3    H126010   0.090   3.976   5.698  0.2287 -0.3759 -2.3360
 8682TIP3    H226011   0.061   3.835   5.744  1.0640 -0.4767 -2.1030
 8683TIP3   OH226012   6.189   4.792   0.770  0.3684 -0.3949 -0.4968
 8683TIP3    H126013   6.094   4.793   0.755  0.1458 -0.1548  0.7371
 8683TIP3    H226014   6.205   4.871   0.822  1.5345  0.4904 -2.1374
 8684TIP3   OH226015   3.251   3.856   1.785  0.9499  0.0064 -0.0220
 8684TIP3    H126016   3.343   3.836   1.771  0.7434 -0.7404 -0.3751
 8684TIP3    H226017   3.210   3.845   1.699  0.2340 -1.4307  0.4676
 8685TIP3   OH226018   6.428   2.070   5.762  0.2692  0.4809  0.5328
 8685TIP3    H126019   6.350   2.026   5.729  1.7776 -0.7759 -1.5688
 8685TIP3    H226020   6.405   2.163   5.759 -0.7935  0.2036 -1.0275
 8686TIP3   OH226021   2.580   3.905   1.971 -0.4030  0.5809 -0.5879
 8686TIP3    H126022   2.574   3.964   1.896  0.1226 -0.0742 -1.1622
 8686TIP3    H226023   2.490   3.899   2.004 -0.5412  1.3216 -0.8124
 8687TIP3   OH226024   3.437   0.178   0.010 -0.0307  0.3359  0.3287
 8687TIP3    H126025   3.405   0.240   0.075  0.1913  0.0860  0.6772
 8687TIP3    H226026   3.481   0.110   0.061 -1.9852 -1.1627  0.1186
 8688TIP3   OH226027   3.513   5.270   4.963 -0.0569  0.6975 -0.2488
 8688TIP3    H126028   3.482   5.326   5.033 -0.0186  1.2789 -0.6906
 8688TIP3    H226029   3.606   5.291   4.954  0.1175  0.0766  0.0328
 8689TIP3   OH226030   2.274   5.437   4.022  0.3049 -0.3295 -0.3273
 8689TIP3    H126031   2.298   5.375   4.091 -0.3296 -0.9017 -0.6129
 8689TIP3    H226032   2.316   5.403   3.943 -0.8958 -0.9982 -0.7026
 8690TIP3   OH226033   1.957   2.115   0.977 -0.5212 -0.3109 -0.0053
 8690TIP3    H126034   1.909   2.152   0.903 -2.9041 -4.0781 -0.5915
 8690TIP3    H226035   2.049   2.121   0.952 -0.6162  4.5437 -0.1224
 8691TIP3   OH226036   2.055   4.307   4.974  0.1763  0.0513  0.0622
 8691TIP3    H126037   2.048   4.323   5.068 -0.1223  0.2987 -0.0019
 8691TIP3    H226038   2.133   4.357   4.947 -0.8239  1.5547 -0.1615
 8692TIP3   OH226039   5.925   2.011   3.974  0.1942  0.4733 -0.0133
 8692TIP3    H126040   5.925   1.947   4.046 -0.5531 -2.1679 -2.1721
 8692TIP3    H226041   6.014   2.006   3.938 -0.1333 -0.0974 -0.7661
 8693TIP3   OH226042   0.870   6.210   4.169 -0.0463  0.1608 -0.7725
 8693TIP3    H126043   0.951   6.193   4.217 -0.6646  0.4175  0.4149
 8693TIP3    H226044   0.827   6.279   4.219 -1.1784 -0.2540 -1.1401
 8694TIP3   OH226045   1.770   3.103   5.560 -0.1415 -0.4058 -0.0931
 8694TIP3    H126046   1.809   3.095   5.473 -1.1400 -0.3530 -0.5639
 8694TIP3    H226047   1.825   3.049   5.616 -0.6873 -2.1381 -1.1559
 8695TIP3   OH226048   4.546   5.824   2.554 -0.3335  0.0418 -0.6512
 8695TIP3    H126049   4.608   5.798   2.622 -1.2616 -2.9567 -0.8103
 8695TIP3    H226050   4.599   5.836   2.476  0.3216 -0.1710 -0.2461
 8696TIP3   OH226051   2.347   4.092   4.472 -0.0650 -0.1869  0.4332
 8696TIP3    H126052   2.359   4.162   4.536  0.2063  2.2116 -2.0233
 8696TIP3    H226053   2.288   4.130   4.406  0.5092 -2.0812 -1.2787
 8697TIP3   OH226054   0.227   6.674   3.776  0.4153  0.7949 -0.0930
 8697TIP3    H126055   0.318   6.649   3.765  0.2844  1.0833 -2.4387
 8697TIP3    H226056   0.217   6.753   3.723 -1.4012  0.2278 -0.6853
 8698TIP3   OH226057   5.424   0.036   5.242  0.3976 -0.2733 -0.0910
 8698TIP3    H126058   5.486  -0.035   5.228  1.2245  0.4102  0.0742
 8698TIP3    H226059   5.457   0.109   5.190  0.8877  0.7631  1.5846
 8699TIP3   OH226060   4.127   4.511   5.782  0.1751 -0.0898  0.1835
 8699TIP3    H126061   4.216   4.488   5.807  0.2695  0.1117  0.0400
 8699TIP3    H226062   4.072   4.476   5.852  0.4309  0.4058  0.6394
 8700TIP3   OH226063   2.293   0.454   2.385  0.2612  0.3809  0.7461
 8700TIP3    H126064   2.368   0.397   2.365  0.2672  0.4251  0.6454
 8700TIP3    H226065   2.329   0.542   2.382  0.3665  0.3648  1.4008
 8701TIP3   OH226066   1.472   0.992   0.607  0.0607 -0.5957  0.2658
 8701TIP3    H126067   1.463   1.014   0.514 -1.4535 -1.2170  0.2297
 8701TIP3    H226068   1.409   0.921   0.620  0.3990 -0.6498  1.7314
 8702TIP3   OH226069   6.181   2.682   4.850  0.0085  0.0893  0.8791
 8702TIP3    H126070   6.197   2.775   4.864  0.6325  0.0725  0.3497
 8702TIP3    H226071   6.092   2.677   4.815 -1.2736  0.1949  3.8890
 8703TIP3   OH226072   2.683   0.620   1.777 -0.0292 -0.1800 -0.1501
 8703TIP3    H126073   2.624   0.664   1.716  0.1981  1.8189  0.9780
 8703TIP3    H226074   2.770   0.645   1.749  0.1687 -0.8983 -0.1922
 8704TIP3   OH226075   4.615   2.313   2.773 -0.6127  0.4146  0.0775
 8704TIP3    H126076   4.692   2.313   2.716 -0.2236 -1.9901  0.4908
 8704TIP3    H226077   4.540   2.315   2.713 -0.2092 -0.4333 -0.4752
 8705TIP3   OH226078   0.049   2.805   1.064  0.3280 -0.0424  0.6160
 8705TIP3    H126079   0.000   2.877   1.104  0.2667 -0.9398  2.2296
 8705TIP3    H226080   0.107   2.848   1.001 -0.2876  1.3303  0.9378
 8706TIP3   OH226081   1.595   2.918   3.459  0.1886 -0.4891 -0.8364
 8706TIP3    H126082   1.663   2.937   3.523 -1.4647  0.4126  0.7371
 8706TIP3    H226083   1.625   2.963   3.379  0.7894  1.0667  0.2084
 8707TIP3   OH226084   0.746   4.253   5.029 -0.2346  0.2354  0.6263
 8707TIP3    H126085   0.817   4.203   4.987 -0.3540 -0.2688  1.0150
 8707TIP3    H226086   0.701   4.296   4.956  1.1731  1.5060  0.4745
 8708TIP3   OH226087   1.630   6.655   2.556 -0.3658 -0.4975 -0.4493
 8708TIP3    H126088   1.621   6.593   2.484 -0.2504 -2.9033  1.4966
 8708TIP3    H226089   1.706   6.624   2.605 -2.2313 -0.8877  2.4470
 8709TIP3   OH226090   1.410   1.297   5.096 -0.1914  0.1033 -0.2739
 8709TIP3    H126091   1.397   1.203   5.087 -0.1068 -0.0905  1.2854
 8709TIP3    H226092   1.335   1.337   5.052  0.2923 -0.6432 -1.8248
 8710TIP3   OH226093   4.853   2.377   2.622  0.0979  0.2956 -0.4604
 8710TIP3    H126094   4.860   2.436   2.547  0.8655  1.5965  0.6056
 8710TIP3    H226095   4.943   2.359   2.648 -0.0475 -2.3163 -1.4384
 8711TIP3   OH226096   1.384   3.821   5.441 -0.0111  0.0091  0.2149
 8711TIP3    H126097   1.427   3.749   5.394 -0.7483  0.5733 -1.3928
 8711TIP3    H226098   1.391   3.895   5.381 -0.4815  0.9202  1.2692
 8712TIP3   OH226099   4.524   1.442   0.953  0.8685  0.3346  0.2281
 8712TIP3    H126100   4.446   1.412   1.000 -1.9583  0.5845 -3.8019
 8712TIP3    H226101   4.537   1.378   0.884  3.7934  0.8340  0.1773
 8713TIP3   OH226102   6.889   2.432   0.929 -0.1011 -0.2209  0.2979
 8713TIP3    H126103   6.828   2.466   0.863 -0.3946 -0.5928  0.3757
 8713TIP3    H226104   6.834   2.413   1.005  0.4726  1.8774  1.3187
 8714TIP3   OH226105   0.471   5.438   1.304 -0.4354  0.4863  0.4513
 8714TIP3    H126106   0.498   5.351   1.332 -0.7695  0.2415  0.0167
 8714TIP3    H226107   0.378   5.444   1.328 -1.0325 -0.1249 -1.4969
 8715TIP3   OH226108   2.599   3.366   4.693 -0.7679  0.1504  0.0938
 8715TIP3    H126109   2.513   3.404   4.678 -1.6397 -1.4187  0.9425
 8715TIP3    H226110   2.612   3.305   4.621 -0.0086  0.9284 -0.4516
 8716TIP3   OH226111   2.004   2.733   3.944  0.2047 -0.1080  0.5847
 8716TIP3    H126112   1.970   2.659   3.994  0.7447  0.4018  1.7353
 8716TIP3    H226113   2.077   2.766   3.996  0.1807  1.0318 -0.0682
 8717TIP3   OH226114   7.114   3.666   4.433  0.0292 -0.3486 -0.7442
 8717TIP3    H126115   7.141   3.582   4.472 -0.2683  0.5779  1.5979
 8717TIP3    H226116   7.196   3.712   4.417  0.1206 -0.3226 -0.2177
 8718TIP3   OH226117   5.142   1.475   1.814  0.3843  0.0907 -0.5292
 8718TIP3    H126118   5.182   1.400   1.858 -0.6610 -1.4025 -2.0000
 8718TIP3    H226119   5.127   1.538   1.884  0.2394 -1.5370  0.9922
 8719TIP3   OH226120   4.626   1.925   3.452  0.6724  0.4290  0.7602
 8719TIP3    H126121   4.573   1.863   3.402  0.2572  1.2469  0.1575
 8719TIP3    H226122   4.642   1.881   3.536  0.5492 -0.5602  0.2864
 8720TIP3   OH226123   3.148   6.096   1.238 -0.0700 -0.2824 -0.2231
 8720TIP3    H126124   3.189   6.052   1.163  1.6165 -0.8817  0.9807
 8720TIP3    H226125   3.151   6.189   1.217  1.6299 -0.3380 -0.3634
 8721TIP3   OH226126   3.899   0.730   4.567 -0.0102 -0.7464 -0.2082
 8721TIP3    H126127   3.880   0.636   4.569  0.8941 -0.9373  1.3522
 8721TIP3    H226128   3.919   0.752   4.658  1.2221  0.6447 -0.7736
 8722TIP3   OH226129   6.794   1.718   5.515 -0.9454  0.2433 -0.5320
 8722TIP3    H126130   6.737   1.793   5.533 -1.4833  0.3509 -2.4714
 8722TIP3    H226131   6.736   1.654   5.474 -0.3228 -0.9580  0.4197
 8723TIP3   OH226132   0.512   3.339   3.464 -0.3537  0.5348 -0.4778
 8723TIP3    H126133   0.592   3.374   3.424  0.8627 -2.0056 -0.4935
 8723TIP3    H226134   0.544   3.294   3.543 -1.9733  0.6469  0.2661
 8724TIP3   OH226135   7.033   0.778   5.298 -0.4017 -0.1425 -0.1705
 8724TIP3    H126136   6.963   0.741   5.351  0.7734  0.2873  1.7772
 8724TIP3    H226137   7.036   0.722   5.220  0.0514 -3.0709  1.7671
 8725TIP3   OH226138   6.475   6.066   0.645 -0.0361  0.4337  0.8765
 8725TIP3    H126139   6.483   5.972   0.664 -0.3641  0.5107  1.3952
 8725TIP3    H226140   6.520   6.109   0.717  0.7549  0.6652  0.2651
 8726TIP3   OH226141   3.904   5.001   0.712 -0.0727 -0.2753 -0.4261
 8726TIP3    H126142   3.811   4.988   0.694 -0.9691  2.0587  1.8370
 8726TIP3    H226143   3.936   4.914   0.737 -1.9623 -0.9118 -0.0519
 8727TIP3   OH226144   3.855   5.525   5.040 -0.2384 -0.1798 -0.1401
 8727TIP3    H126145   3.781   5.542   5.100 -0.6383  0.9550 -0.9250
 8727TIP3    H226146   3.830   5.446   4.994 -0.7059 -0.1250  0.0097
 8728TIP3   OH226147   2.303   0.449   2.866 -0.1503 -0.2091  0.4069
 8728TIP3    H126148   2.388   0.417   2.897 -0.2771  1.7458  3.1939
 8728TIP3    H226149   2.323   0.497   2.786  0.8731 -2.2220 -0.6117
 8729TIP3   OH226150   0.380   4.887   0.018  0.0991  0.2602 -0.1041
 8729TIP3    H126151   0.369   4.934   0.101  0.1430 -0.4763  0.3284
 8729TIP3    H226152   0.374   4.955  -0.049 -1.7724  0.6217  0.3920
 8730TIP3   OH226153   1.396   4.572   2.500 -0.2090  0.2683 -0.0634
 8730TIP3    H126154   1.396   4.620   2.582 -0.7633 -0.3085  0.2902
 8730TIP3    H226155   1.484   4.582   2.466 -0.4243  1.8836 -0.2248
 8731TIP3   OH226156   6.360   4.061   1.486 -0.3223  1.0458 -0.6044
 8731TIP3    H126157   6.330   4.129   1.426 -0.7892  2.3471  1.0381
 8731TIP3    H226158   6.432   4.102   1.535 -0.6706  0.4129  0.4747
 8732TIP3   OH226159   4.286   3.639   4.031  0.4715 -0.3902  0.4801
 8732TIP3    H126160   4.198   3.656   3.998  0.4094 -3.1364 -1.0304
 8732TIP3    H226161   4.344   3.672   3.963  0.7468  1.7812  1.6464
 8733TIP3   OH226162   4.728   3.566   3.048  0.5242 -0.2761 -0.6237
 8733TIP3    H126163   4.642   3.588   3.084  0.0696 -1.5758 -0.8596
 8733TIP3    H226164   4.714   3.562   2.953  0.7768 -0.7778 -0.6407
 8734TIP3   OH226165   2.876   4.944   1.393 -0.2627 -0.1807 -0.1365
 8734TIP3    H126166   2.926   4.938   1.311 -1.7897 -0.7629 -1.0713
 8734TIP3    H226167   2.917   5.016   1.441 -0.6030  1.5892 -2.3467
 8735TIP3   OH226168   2.437   5.921   3.928 -0.4006 -0.2706  0.7318
 8735TIP3    H126169   2.479   5.856   3.984  4.0668  0.4854 -1.2936
 8735TIP3    H226170   2.416   5.874   3.847  1.3670  0.3042 -0.1282
 8736TIP3   OH226171   2.060   3.497   5.443 -0.1080 -0.1631 -0.5773
 8736TIP3    H126172   2.000   3.482   5.516 -0.6255 -0.1607 -1.0028
 8736TIP3    H226173   2.033   3.434   5.377  0.6134 -0.4355 -0.6189
 8737TIP3   OH226174   6.256   0.580   4.082  0.5132 -0.3510 -0.6483
 8737TIP3    H126175   6.350   0.595   4.089  0.5388 -1.1533  1.5819
 8737TIP3    H226176   6.217   0.654   4.128  0.1062 -0.6971 -0.4330
 8738TIP3   OH226177   6.877   4.419   5.868  0.2347  0.1134  0.0753
 8738TIP3    H126178   6.948   4.395   5.809 -0.4929  1.3833 -1.3795
 8738TIP3    H226179   6.884   4.514   5.877  0.8055 -0.0866  2.7334
 8739TIP3   OH226180   3.498   3.060   1.842 -0.1226 -0.7068 -0.6346
 8739TIP3    H126181   3.548   2.986   1.807  1.9464  0.6775 -0.8123
 8739TIP3    H226182   3.515   3.131   1.780 -0.7234  0.3464  0.3781
 8740TIP3   OH226183   6.789   4.203   4.296 -0.3021 -0.1795  0.7273
 8740TIP3    H126184   6.882   4.220   4.278 -0.6251 -0.1555 -1.0103
 8740TIP3    H226185   6.791   4.136   4.365  0.9694  1.3984  2.3383
 8741TIP3   OH226186   2.053   5.164   2.379 -0.1503 -0.8011  0.1772
 8741TIP3    H126187   2.137   5.172   2.425 -0.7129  2.5603  0.8834
 8741TIP3    H226188   1.990   5.146   2.449 -0.3099 -1.2425 -0.0777
 8742TIP3   OH226189   1.615   4.168   3.784  0.2946 -0.2388  0.2791
 8742TIP3    H126190   1.615   4.138   3.875  2.9595 -1.2232  0.0227
 8742TIP3    H226191   1.556   4.107   3.739 -0.7201  0.0035  1.2256
 8743TIP3   OH226192   4.212   6.402   4.969  0.2179  0.2844 -0.1789
 8743TIP3    H126193   4.258   6.323   4.938  0.3269  0.0607  0.5397
 8743TIP3    H226194   4.278   6.450   5.019 -0.0895  0.4133  0.1033
 8744TIP3   OH226195   1.084   2.411   2.270 -0.0173 -0.1272  0.4925
 8744TIP3    H126196   1.019   2.448   2.330 -0.8524 -1.2412  0.2898
 8744TIP3    H226197   1.039   2.407   2.185  0.3848 -0.7356  0.3043
 8745TIP3   OH226198   2.352   3.704   4.821 -0.4093  0.3450  0.2360
 8745TIP3    H126199   2.292   3.663   4.759 -0.1292 -0.2224  0.3404
 8745TIP3    H226200   2.307   3.697   4.905 -0.3898  0.3050  0.2433
 8746TIP3   OH226201   4.961   2.023   3.595  0.0267 -0.2082  0.0566
 8746TIP3    H126202   5.019   2.054   3.664 -3.1071 -0.4918  3.1125
 8746TIP3    H226203   5.017   1.970   3.539  3.0739  1.2320  1.4919
 8747TIP3   OH226204   1.883   3.826   4.426  0.4686  0.0452 -0.0451
 8747TIP3    H126205   1.901   3.732   4.421 -1.3097 -0.3650  0.4815
 8747TIP3    H226206   1.916   3.853   4.512 -2.2163 -0.9423  1.4202
 8748TIP3   OH226207   6.526   5.674   2.158 -0.1422  0.0656 -0.5014
 8748TIP3    H126208   6.519   5.740   2.090  1.7003  2.0331  1.0705
 8748TIP3    H226209   6.590   5.612   2.125  0.4635  0.8029 -0.7451
 8749TIP3   OH226210   3.083   3.488   1.642  0.1077 -0.4106  0.0156
 8749TIP3    H126211   3.079   3.479   1.737  2.1004  0.8873  0.2799
 8749TIP3    H226212   3.001   3.531   1.618 -0.5438 -1.0148  1.0844
 8750TIP3   OH226213   4.149   2.885   1.599 -0.1193 -0.5022 -0.3965
 8750TIP3    H126214   4.210   2.871   1.526 -0.0642  0.5565 -0.5705
 8750TIP3    H226215   4.201   2.866   1.677  0.5023  0.5697 -0.5355
 8751TIP3   OH226216   3.066   0.619   3.718  0.3831  0.7794  0.2326
 8751TIP3    H126217   3.021   0.699   3.689  0.3925  0.3974 -0.8675
 8751TIP3    H226218   3.059   0.559   3.644  0.6330 -0.1475  0.9402
 8752TIP3   OH226219   1.151   0.694   1.495 -0.0169 -0.2643  0.3399
 8752TIP3    H126220   1.185   0.641   1.568 -0.2279  0.5658  1.0488
 8752TIP3    H226221   1.180   0.783   1.514  0.7627 -0.1829 -1.1095
 8753TIP3   OH226222   6.179   6.027   2.026 -0.3553  0.0831  0.5938
 8753TIP3    H126223   6.157   5.961   2.092 -1.1250 -2.0785 -1.6901
 8753TIP3    H226224   6.256   5.993   1.983 -0.5434  0.8798 -0.4076
 8754TIP3   OH226225   6.246   0.237   1.275 -0.4307 -0.3848  0.2029
 8754TIP3    H126226   6.320   0.178   1.289 -1.6068 -2.2467 -1.0757
 8754TIP3    H226227   6.246   0.294   1.353  2.0379 -0.6076  0.4354
 8755TIP3   OH226228   4.823   2.386   1.393 -0.3366  0.4610 -0.8254
 8755TIP3    H126229   4.917   2.370   1.400  0.4002  3.9358 -0.7128
 8755TIP3    H226230   4.809   2.405   1.300 -1.0130 -0.3127 -0.8919
 8756TIP3   OH226231   5.883   3.488   4.085 -0.3640  0.6915  0.4865
 8756TIP3    H126232   5.903   3.539   4.006 -0.2910 -0.4514 -0.2639
 8756TIP3    H226233   5.791   3.465   4.076 -0.2395  0.1780  0.5096
 8757TIP3   OH226234   1.209   4.948   3.689  0.2228 -0.1404  0.5790
 8757TIP3    H126235   1.179   5.020   3.745 -0.9012  0.6407 -0.9590
 8757TIP3    H226236   1.130   4.897   3.671  0.2778  0.3271 -1.2345
 8758TIP3   OH226237   3.784   3.309   4.425  0.3485 -0.1276  0.7205
 8758TIP3    H126238   3.752   3.288   4.513  1.1953 -0.8995  0.8569
 8758TIP3    H226239   3.717   3.368   4.389 -0.3322 -0.3125  1.6336
 8759TIP3   OH226240   5.618   6.753   0.474 -0.6293 -0.2100  0.1800
 8759TIP3    H126241   5.679   6.808   0.425 -0.1338 -0.2572  0.7200
 8759TIP3    H226242   5.541   6.807   0.487 -0.4052  0.1252  0.1382
 8760TIP3   OH226243   2.731   5.892   4.053 -0.0580  0.1957 -0.0344
 8760TIP3    H126244   2.711   5.950   3.980  1.4761 -0.2926 -0.8797
 8760TIP3    H226245   2.816   5.921   4.084  0.6244 -1.4135 -0.3101
 8761TIP3   OH226246   3.342   1.207   2.775  0.1237 -0.5490 -0.4141
 8761TIP3    H126247   3.421   1.188   2.825  1.0391 -2.9259 -2.4916
 8761TIP3    H226248   3.375   1.238   2.690 -1.2931  1.3403 -0.3207
 8762TIP3   OH226249   2.569   5.162   3.763 -0.2541 -0.3285 -0.1738
 8762TIP3    H126250   2.499   5.187   3.824 -1.9721 -2.9200 -0.8834
 8762TIP3    H226251   2.530   5.175   3.677  0.8732 -0.0084 -0.6481
 8763TIP3   OH226252   6.345   1.889   4.034 -0.2216 -0.0607  0.1877
 8763TIP3    H126253   6.423   1.854   4.078  0.2973 -0.5855 -1.1018
 8763TIP3    H226254   6.281   1.818   4.040 -0.9037  0.6344  1.8926
 8764TIP3   OH226255   0.052   2.397   5.615 -0.1780 -0.1459 -0.1885
 8764TIP3    H126256   0.135   2.359   5.586 -0.0398 -0.9499  1.1807
 8764TIP3    H226257   0.054   2.487   5.583  1.5135  0.0413  0.3742
 8765TIP3   OH226258   6.332   3.695   2.285  0.1999  0.0836 -0.1195
 8765TIP3    H126259   6.337   3.600   2.282  1.2999  0.0997  0.5666
 8765TIP3    H226260   6.302   3.721   2.198  0.8054 -0.8461 -0.6171
 8766TIP3   OH226261   0.735   2.626   3.964 -0.1085  0.4594 -0.1817
 8766TIP3    H126262   0.754   2.710   3.924 -0.4009  0.9277  0.6475
 8766TIP3    H226263   0.690   2.577   3.895 -2.2655  1.9115  0.1060
 8767TIP3   OH226264   3.794   6.319   4.584  0.4329  0.1701  0.5327
 8767TIP3    H126265   3.832   6.231   4.586 -0.8078 -0.4144 -0.6126
 8767TIP3    H226266   3.759   6.328   4.495 -3.1470  0.1931  1.7904
 8768TIP3   OH226267   5.915   3.816   1.998  0.3950  0.0978  0.4288
 8768TIP3    H126268   5.987   3.795   1.939  0.5878 -0.2477  0.7816
 8768TIP3    H226269   5.851   3.746   1.983  0.2645  0.2380  0.3307
 8769TIP3   OH226270   1.141   1.672   5.220  0.6622  0.2247  0.2187
 8769TIP3    H126271   1.060   1.692   5.268  1.5329 -0.1020  1.9162
 8769TIP3    H226272   1.112   1.644   5.133 -1.0689 -0.3219  0.9315
 8770TIP3   OH226273   1.072   2.633   2.936  0.1455  0.6621 -0.4047
 8770TIP3    H126274   0.994   2.637   2.880  0.6859  3.2471 -1.0877
 8770TIP3    H226275   1.069   2.714   2.987  1.1524 -0.3418  1.3472
 8771TIP3   OH226276   5.915   1.828   0.486  0.1557 -0.1462  0.1034
 8771TIP3    H126277   5.840   1.846   0.543 -0.7895  1.2299 -1.4701
 8771TIP3    H226278   5.984   1.886   0.518  0.2640 -0.7618  1.0031
 8772TIP3   OH226279   4.390   3.083   4.581  0.3065  0.4498 -0.2370
 8772TIP3    H126280   4.455   3.097   4.512  1.7056 -0.7322  0.7541
 8772TIP3    H226281   4.324   3.027   4.541 -0.0401  1.5360 -1.2253
 8773TIP3   OH226282   3.806   6.185   4.877  0.2562  0.5384 -0.1477
 8773TIP3    H126283   3.850   6.258   4.919  0.2498  0.8636 -0.6907
 8773TIP3    H226284   3.797   6.212   4.785 -0.8764  0.3970 -0.0983
 8774TIP3   OH226285   7.053   4.813   0.435  0.1425  0.3597  0.4169
 8774TIP3    H126286   6.977   4.757   0.451 -0.1909  0.3906 -0.9942
 8774TIP3    H226287   7.110   4.797   0.510  0.2663 -2.1716 -0.1601
 8775TIP3   OH226288   0.925   2.641   1.710 -0.0812  0.0050  0.5403
 8775TIP3    H126289   0.911   2.719   1.763  1.1600 -0.3305  1.4008
 8775TIP3    H226290   1.015   2.650   1.677 -0.5069 -0.2404 -0.7717
 8776TIP3   OH226291   1.352   2.665   1.395  0.1298 -0.0040  0.0455
 8776TIP3    H126292   1.285   2.608   1.433  2.3725 -0.9965  2.9428
 8776TIP3    H226293   1.348   2.745   1.447  0.6064  0.2790 -0.3458
 8777TIP3   OH226294   6.376   5.361   5.084  0.6047 -0.0973  0.2549
 8777TIP3    H126295   6.413   5.421   5.149  1.9089 -0.0971 -0.4596
 8777TIP3    H226296   6.452   5.319   5.043 -0.2756 -2.3148  0.7699
 8778TIP3   OH226297   4.704   2.469   0.814  1.1039  0.3696 -0.3476
 8778TIP3    H126298   4.745   2.417   0.745 -0.7045 -1.5593 -0.0597
 8778TIP3    H226299   4.641   2.525   0.769  0.2029 -0.6112 -0.3567
 8779TIP3   OH226300   2.323   3.548   5.504 -0.0537 -0.4872 -0.0274
 8779TIP3    H126301   2.238   3.507   5.487  0.5723 -1.4076 -1.0147
 8779TIP3    H226302   2.364   3.555   5.418  1.6526 -1.8182  0.6287
 8780TIP3   OH226303   3.913   4.241   4.609 -0.2614 -0.3345 -0.0209
 8780TIP3    H126304   3.846   4.192   4.561  0.8287  0.5329 -2.5502
 8780TIP3    H226305   3.881   4.331   4.611 -0.0471 -0.2619  0.4768
 8781TIP3   OH226306   2.292   3.818   5.374 -0.0204 -0.3480 -0.4962
 8781TIP3    H126307   2.349   3.760   5.425 -0.2516  0.8916  1.2945
 8781TIP3    H226308   2.351   3.861   5.312  0.3129 -1.7485 -1.1835
 8782TIP3   OH226309   0.905   3.271   5.295  0.4360  0.1291  0.1580
 8782TIP3    H126310   0.998   3.264   5.273  0.4805  3.1220 -1.1255
 8782TIP3    H226311   0.864   3.196   5.252  2.1107 -0.7755  0.0522
 8783TIP3   OH226312   3.464   2.017   3.016  1.1854  0.1471  0.0725
 8783TIP3    H126313   3.451   1.944   3.077 -0.0159  0.8911  0.7343
 8783TIP3    H226314   3.506   2.085   3.068  1.4709  0.2701 -0.3109
 8784TIP3   OH226315   1.710   2.051   4.603  0.5323 -0.5667 -0.3093
 8784TIP3    H126316   1.744   1.968   4.569  1.3205  0.3614 -1.9030
 8784TIP3    H226317   1.785   2.091   4.648  0.6213  0.0001 -0.9505
 8785TIP3   OH226318   2.267   5.394   1.589 -0.2343 -0.1150  0.0256
 8785TIP3    H126319   2.298   5.317   1.636 -4.5182 -2.5470 -0.5884
 8785TIP3    H226320   2.331   5.406   1.518  1.4806 -2.0154  1.1426
 8786TIP3   OH226321   5.465   2.499   3.972 -0.1697  0.4257 -0.1933
 8786TIP3    H126322   5.424   2.436   4.031  2.3089 -0.2947  0.9076
 8786TIP3    H226323   5.485   2.575   4.028  0.0253  0.7456 -0.6847
 8787TIP3   OH226324   3.226   4.037   0.927 -0.4201  0.2677 -0.4848
 8787TIP3    H126325   3.224   3.948   0.893  1.5472 -0.5569  1.3740
 8787TIP3    H226326   3.284   4.084   0.868 -0.8969  0.1534 -1.0571
 8788TIP3   OH226327   4.398   6.273   4.495  0.2091  0.7263  0.3065
 8788TIP3    H126328   4.376   6.269   4.402  0.5830  1.0060  0.2042
 8788TIP3    H226329   4.416   6.183   4.520 -3.3087  0.0673  0.9532
 8789TIP3   OH226330   4.809   5.090   1.391 -0.7657 -0.0535 -0.6558
 8789TIP3    H126331   4.878   5.040   1.346 -0.4370 -0.2487  0.0564
 8789TIP3    H226332   4.745   5.109   1.322  0.5134  1.0857 -1.5975
 8790TIP3   OH226333   6.800   0.552   4.005 -0.5446  0.0084  0.3759
 8790TIP3    H126334   6.812   0.632   4.057  0.5040 -0.0491  0.2523
 8790TIP3    H226335   6.883   0.540   3.959 -1.2669 -0.2366 -0.9252
 8791TIP3   OH226336   3.223   2.865   3.982  0.3263  0.1162  0.5136
 8791TIP3    H126337   3.141   2.821   4.007 -1.4185  1.1996 -2.6847
 8791TIP3    H226338   3.213   2.954   4.015 -0.3961  0.5836 -0.9026
 8792TIP3   OH226339   6.672   5.038   5.387  0.0177  0.3538 -0.1722
 8792TIP3    H126340   6.764   5.059   5.399  0.3208 -0.7704 -0.3682
 8792TIP3    H226341   6.666   5.010   5.295 -0.4742  0.2592 -0.1134
 8793TIP3   OH226342   0.679   5.627   3.683  0.3039 -0.2274 -0.6375
 8793TIP3    H126343   0.775   5.624   3.676  0.4413  1.9813 -0.5000
 8793TIP3    H226344   0.652   5.690   3.617 -0.6709  1.8384  1.5659
 8794TIP3   OH226345   6.466   4.765   3.689 -0.1840  0.4305 -0.3242
 8794TIP3    H126346   6.485   4.828   3.759  0.2858 -1.2878  1.1824
 8794TIP3    H226347   6.552   4.736   3.658 -0.3045 -1.2725  0.7758
 8795TIP3   OH226348   1.294   4.310   0.911 -0.2555  0.4666 -0.1626
 8795TIP3    H126349   1.380   4.351   0.903 -0.3048  0.4215 -1.0480
 8795TIP3    H226350   1.232   4.383   0.911 -0.2707  0.4575 -0.5359
 8796TIP3   OH226351   0.647   0.976   4.271  0.2313  0.6532  0.0564
 8796TIP3    H126352   0.649   1.044   4.339 -4.4002 -0.1093  1.2473
 8796TIP3    H226353   0.609   1.020   4.195 -0.1684  0.0598 -0.0846
 8797TIP3   OH226354   2.485   4.870   4.623  0.3389  0.2761 -0.1105
 8797TIP3    H126355   2.509   4.887   4.532  0.8500 -0.9508 -0.2172
 8797TIP3    H226356   2.480   4.775   4.630 -0.0026  0.3623  1.0687
 8798TIP3   OH226357   0.773   5.550   4.136  0.7741 -0.0645 -0.6128
 8798TIP3    H126358   0.751   5.556   4.043  2.3359  2.1639 -0.8936
 8798TIP3    H226359   0.826   5.470   4.143 -0.3654 -0.9236 -1.3660
 8799TIP3   OH226360   6.802   2.974   1.024  0.2091 -0.3940  0.8490
 8799TIP3    H126361   6.831   2.890   0.988 -1.0883 -0.8029  0.6739
 8799TIP3    H226362   6.724   2.995   0.972  0.6761  1.0658  0.7099
 8800TIP3   OH226363   1.837   4.651   0.719  0.2735  0.0752  0.4335
 8800TIP3    H126364   1.846   4.599   0.799  0.2213 -2.3016 -1.0088
 8800TIP3    H226365   1.919   4.699   0.712  0.9637 -0.9554  1.0950
 8801TIP3   OH226366   2.812   3.688   5.194  0.1841  0.8737 -0.0652
 8801TIP3    H126367   2.730   3.731   5.220 -0.1921  0.7379 -0.9986
 8801TIP3    H226368   2.825   3.621   5.262 -0.8181  0.4774 -0.2385
 8802TIP3   OH226369   1.024   2.676   4.068  0.2544 -0.1797  0.3537
 8802TIP3    H126370   0.942   2.631   4.046  1.0416 -1.5795  0.1908
 8802TIP3    H226371   1.063   2.697   3.984  0.2149  0.2048  0.4318
 8803TIP3   OH226372   2.611   0.166   1.866 -0.2960 -0.0387 -0.4064
 8803TIP3    H126373   2.645   0.078   1.878  0.2705  0.2720  0.3140
 8803TIP3    H226374   2.563   0.162   1.783  3.2864  0.0573 -2.6979
 8804TIP3   OH226375   0.407   2.685   3.617 -0.5711 -0.3837 -0.4199
 8804TIP3    H126376   0.317   2.713   3.605 -0.3460 -0.1193 -1.6979
 8804TIP3    H226377   0.427   2.634   3.538  0.5239 -0.0772 -0.3643
 8805TIP3   OH226378   4.415   1.080   5.444  0.0277 -0.5331 -0.2850
 8805TIP3    H126379   4.443   1.008   5.501  0.8265 -2.2734 -2.7079
 8805TIP3    H226380   4.485   1.087   5.379 -0.6367  1.6487 -0.8418
 8806TIP3   OH226381   4.205   1.754   4.307  0.8152 -0.9074 -0.0874
 8806TIP3    H126382   4.289   1.747   4.352  0.2943  2.6486  1.7972
 8806TIP3    H226383   4.215   1.832   4.251 -0.8642 -1.1321 -0.7543
 8807TIP3   OH226384   5.978   1.146   2.291  0.7744 -0.0389 -0.0817
 8807TIP3    H126385   5.940   1.183   2.371  1.2353  1.2893 -0.4444
 8807TIP3    H226386   5.911   1.159   2.224  0.3652 -1.2036  0.0783
 8808TIP3   OH226387   4.713   6.278   0.089  0.1379  0.3786  0.0415
 8808TIP3    H126388   4.767   6.343   0.135  1.1759 -0.5915  0.2335
 8808TIP3    H226389   4.774   6.207   0.067 -0.8300 -0.2287 -0.7750
 8809TIP3   OH226390   4.997   3.635   3.468 -0.2648 -0.3487  0.5679
 8809TIP3    H126391   4.956   3.553   3.496 -2.1024  0.4587  0.4113
 8809TIP3    H226392   4.995   3.631   3.372 -0.1116 -0.2282  0.5597
 8810TIP3   OH226393   1.461   4.405   4.026  0.2782  0.0375  0.4935
 8810TIP3    H126394   1.392   4.470   4.044 -1.1729 -1.2618 -0.1927
 8810TIP3    H226395   1.432   4.326   4.071  0.1723 -1.1796 -1.5865
 8811TIP3   OH226396   3.502   5.878   3.053  0.1794  0.0403 -0.0919
 8811TIP3    H126397   3.574   5.839   3.004  1.1310  1.2209  0.3454
 8811TIP3    H226398   3.424   5.856   3.001  1.1586  1.3326 -2.2337
 8812TIP3   OH226399   4.082   1.012   2.329  0.5115  0.2063 -0.6471
 8812TIP3    H126400   4.139   0.937   2.310 -0.0330  0.1510 -2.1797
 8812TIP3    H226401   4.119   1.050   2.408  1.3457 -1.1432 -0.3527
 8813TIP3   OH226402   1.538   6.198   2.879 -0.6013 -0.2099  0.4079
 8813TIP3    H126403   1.502   6.164   2.961 -2.7975 -1.8966 -1.1511
 8813TIP3    H226404   1.612   6.141   2.860  0.3035  0.5644  1.4629
 8814TIP3   OH226405   6.964   0.752   3.288 -0.6513  0.5840 -0.9711
 8814TIP3    H126406   7.058   0.765   3.272 -0.2506  0.9396  1.3969
 8814TIP3    H226407   6.960   0.678   3.349 -1.9260  0.5413 -1.0754
 8815TIP3   OH226408   6.063   4.271   1.557  0.1919  0.2690  0.8241
 8815TIP3    H126409   6.154   4.296   1.538  0.4112  0.3742  1.9721
 8815TIP3    H226410   6.012   4.349   1.535  0.6683  1.1196  2.5610
 8816TIP3   OH226411   6.432   0.091   1.791 -0.4599 -0.1296 -0.3900
 8816TIP3    H126412   6.491   0.111   1.719 -2.2008  0.1601 -1.7946
 8816TIP3    H226413   6.437   0.167   1.849  1.1692 -0.4927  0.0102
 8817TIP3   OH226414   1.465   5.999   1.842  0.3062  0.0892  0.2105
 8817TIP3    H126415   1.560   6.004   1.836  0.2562  0.6556 -0.2382
 8817TIP3    H226416   1.434   6.027   1.755 -0.3335  3.1554  1.2767
 8818TIP3   OH226417   4.347   4.091   2.353 -0.4306  0.0911 -0.6377
 8818TIP3    H126418   4.275   4.142   2.390 -1.3552 -0.9863 -0.9252
 8818TIP3    H226419   4.357   4.125   2.264 -0.2517  0.5728 -0.4372
 8819TIP3   OH226420   1.134   3.030   1.154 -0.2108  0.1923 -0.2776
 8819TIP3    H126421   1.114   2.993   1.067  0.8425 -0.0753 -0.4235
 8819TIP3    H226422   1.096   2.968   1.216  1.6342 -1.2868 -0.5171
 8820TIP3   OH226423   1.693   0.760   2.861  0.2391 -0.6165  0.2101
 8820TIP3    H126424   1.710   0.783   2.952  2.1689 -1.5912  0.1547
 8820TIP3    H226425   1.754   0.815   2.811  0.6977 -1.5723 -0.3133
 8821TIP3   OH226426   1.061   4.039   0.219  0.1221  0.0133  0.5326
 8821TIP3    H126427   0.983   3.984   0.213 -0.6017  1.1110 -0.8776
 8821TIP3    H226428   1.062   4.070   0.310  0.3561 -1.9747  1.2612
 8822TIP3   OH226429   1.919   6.577   1.335  0.3868  0.1491 -0.0433
 8822TIP3    H126430   1.928   6.671   1.350  0.8684  0.3657 -1.5379
 8822TIP3    H226431   1.908   6.540   1.423  1.7197  1.4237  0.7103
 8823TIP3   OH226432   2.370   6.810   0.844 -0.0331  0.5026 -0.2654
 8823TIP3    H126433   2.434   6.796   0.915  0.8153 -1.0727 -1.2945
 8823TIP3    H226434   2.309   6.737   0.852  1.3358 -0.9882 -2.4374
 8824TIP3   OH226435   3.562   4.143   1.057 -0.4524 -0.8765 -0.4249
 8824TIP3    H126436   3.645   4.187   1.073  0.5785 -2.0248 -2.2850
 8824TIP3    H226437   3.499   4.214   1.045  0.2614  0.0129  0.8596
 8825TIP3   OH226438   4.308   2.292   2.229  0.0296  0.0225  0.4742
 8825TIP3    H126439   4.366   2.228   2.271  0.4271 -1.1577 -1.6831
 8825TIP3    H226440   4.224   2.245   2.219  0.4792 -0.4389 -1.6051
 8826TIP3   OH226441   5.932   4.197   3.842 -0.3249  0.0378 -0.4548
 8826TIP3    H126442   5.927   4.233   3.930  0.5979  0.1312 -0.4328
 8826TIP3    H226443   5.923   4.273   3.784  0.0130  0.1009 -0.4265
 8827TIP3   OH226444   5.892   4.283   4.111 -0.5244 -0.3850  0.4812
 8827TIP3    H126445   5.847   4.358   4.072  1.4348 -0.1484 -1.5190
 8827TIP3    H226446   5.924   4.315   4.195  1.2322  1.4836 -0.7969
 8828TIP3   OH226447   6.230   1.044   4.352 -0.2204 -0.3216 -0.1056
 8828TIP3    H126448   6.289   1.107   4.311  1.1928 -1.4565  0.1021
 8828TIP3    H226449   6.267   1.029   4.439 -2.2381  0.7974  1.0172
 8829TIP3   OH226450   3.662   3.444   3.828  0.2281  0.1804 -0.3693
 8829TIP3    H126451   3.645   3.387   3.902 -0.7897  1.5582  0.5176
 8829TIP3    H226452   3.577   3.481   3.805  0.6077  0.1761 -1.9018
 8830TIP3   OH226453   0.530   5.355   5.644  0.3251  0.2960 -0.1067
 8830TIP3    H126454   0.598   5.407   5.602  0.6736 -0.1711 -0.1232
 8830TIP3    H226455   0.456   5.359   5.584  1.0155 -0.8571 -1.0598
 8831TIP3   OH226456   3.280   5.627   0.726 -0.2557  0.4499 -0.3860
 8831TIP3    H126457   3.335   5.705   0.716 -0.5058  0.7195  0.2511
 8831TIP3    H226458   3.222   5.629   0.650 -2.1233  2.4353  0.9770
 8832TIP3   OH226459   1.556   4.299   4.779  0.5480 -0.5063 -0.3223
 8832TIP3    H126460   1.506   4.284   4.699  0.0379  1.2365 -0.3673
 8832TIP3    H226461   1.632   4.349   4.751  0.2105  0.3834  0.3117
 8833TIP3   OH226462   3.351   0.692   3.717 -0.1794 -0.2799  0.2991
 8833TIP3    H126463   3.336   0.738   3.634  0.3849  0.0474  0.3709
 8833TIP3    H226464   3.270   0.703   3.766 -1.1484 -1.8653 -0.8450
 8834TIP3   OH226465   0.070   5.687   5.287 -0.0207  0.0794 -0.1380
 8834TIP3    H126466   0.011   5.761   5.275  0.4354  0.7682  1.5847
 8834TIP3    H226467   0.156   5.725   5.304  0.3343 -0.8373  0.2415
 8835TIP3   OH226468   1.218   3.081   2.905 -0.0749  0.4233 -0.3754
 8835TIP3    H126469   1.250   3.044   2.988 -1.6207 -0.3893 -0.0974
 8835TIP3    H226470   1.159   3.152   2.932 -0.1033  0.5668 -0.8049
 8836TIP3   OH226471   3.109   0.783   2.021  0.1080 -0.3060  0.1038
 8836TIP3    H126472   3.146   0.731   1.950  1.1331 -1.2317  1.2647
 8836TIP3    H226473   3.124   0.874   1.994 -0.2506 -0.6079 -1.2062
 8837TIP3   OH226474   6.230   2.431   3.887  0.4307 -0.3699  0.5397
 8837TIP3    H126475   6.206   2.524   3.892 -1.6381 -0.7931 -0.4923
 8837TIP3    H226476   6.282   2.424   3.807  0.4647 -0.1341  0.5393
 8838TIP3   OH226477   3.870   5.793   2.841  0.3369 -0.4169 -0.1240
 8838TIP3    H126478   3.863   5.707   2.881 -0.2178 -1.1363 -1.7008
 8838TIP3    H226479   3.783   5.811   2.807 -0.5851  2.3256  3.0843
 8839TIP3   OH226480   6.349   6.783   1.920  0.2919 -0.2108 -0.5347
 8839TIP3    H126481   6.370   6.693   1.942  0.1759  0.0137  0.5322
 8839TIP3    H226482   6.409   6.836   1.973  1.6061  0.3560 -2.4334
 8840TIP3   OH226483   4.830   5.135   2.491 -0.3070 -0.2413  0.0792
 8840TIP3    H126484   4.867   5.109   2.576 -0.5401 -1.3567 -0.1425
 8840TIP3    H226485   4.753   5.079   2.481 -0.7796  0.4905 -0.4865
 8841TIP3   OH226486   4.585   1.081   2.623 -0.5908  0.5187 -0.1715
 8841TIP3    H126487   4.672   1.049   2.644 -0.4982  0.7171 -0.2441
 8841TIP3    H226488   4.584   1.090   2.528 -0.2980  1.6014 -0.0852
 8842TIP3   OH226489   2.581   4.447   0.372 -0.5993  0.6472 -0.7080
 8842TIP3    H126490   2.566   4.491   0.288 -1.5645  1.6985 -0.0154
 8842TIP3    H226491   2.674   4.465   0.391 -0.3341  0.2830 -1.5993
 8843TIP3   OH226492   4.629   6.222   2.303  0.2845 -0.6019  0.1605
 8843TIP3    H126493   4.702   6.160   2.304  1.9224  1.2232  1.4135
 8843TIP3    H226494   4.557   6.175   2.345  1.1985 -1.9519  0.2780
 8844TIP3   OH226495   6.649   3.498   1.420 -0.1920  0.0433  0.1426
 8844TIP3    H126496   6.607   3.485   1.506 -2.0358  0.6952 -0.6004
 8844TIP3    H226497   6.628   3.418   1.371  1.6183 -0.7256  0.5326
 8845TIP3   OH226498   5.252   3.541   2.235  0.4212  0.0200 -0.1465
 8845TIP3    H126499   5.317   3.482   2.196 -0.1495  0.0310 -1.1412
 8845TIP3    H226500   5.190   3.483   2.279  2.5512  0.0649  3.3323
 8846TIP3   OH226501   1.087   4.444   5.897  0.6935 -0.1584 -0.6970
 8846TIP3    H126502   1.007   4.467   5.849 -0.2516 -0.5716  0.6449
 8846TIP3    H226503   1.106   4.354   5.870  1.0569  0.1374 -1.4626
 8847TIP3   OH226504   3.620   5.138   1.812 -0.6606  0.3809  0.3347
 8847TIP3    H126505   3.672   5.216   1.832  0.1232 -0.0223 -0.0940
 8847TIP3    H226506   3.531   5.172   1.799 -0.1130  1.3779 -1.0403
 8848TIP3   OH226507   0.792   6.149   2.603  0.2270  0.1430 -0.1226
 8848TIP3    H126508   0.776   6.116   2.514 -1.2704 -0.1868  0.2372
 8848TIP3    H226509   0.762   6.078   2.660 -3.5510  2.1583  0.6941
 8849TIP3   OH226510   2.866   4.376   4.108  0.3741  0.3946  0.0022
 8849TIP3    H126511   2.922   4.300   4.092 -1.3471 -0.8622 -0.4277
 8849TIP3    H226512   2.777   4.341   4.102 -0.4699  2.1428  1.3989
 8850TIP3   OH226513   3.299   6.025   0.953 -0.2900  0.3081  0.1613
 8850TIP3    H126514   3.211   5.987   0.950 -0.9881  1.8251  0.0763
 8850TIP3    H226515   3.324   6.037   0.862  0.1568 -0.4429  0.1834
 8851TIP3   OH226516   4.206   1.004   5.294 -0.4728 -0.0137 -0.0077
 8851TIP3    H126517   4.279   1.061   5.319  0.1411 -0.7898  0.0054
 8851TIP3    H226518   4.200   0.940   5.364 -0.3931 -0.6701 -0.5900
 8852TIP3   OH226519   5.367   0.585   1.840 -0.2232 -0.1300 -0.6569
 8852TIP3    H126520   5.294   0.595   1.778 -2.5035 -1.4275  1.6255
 8852TIP3    H226521   5.379   0.490   1.847  0.2466  0.0134  0.5881
 8853TIP3   OH226522   7.082   1.554   1.412 -0.4541  0.1596 -0.6776
 8853TIP3    H126523   7.096   1.516   1.325  0.8513  0.0855 -0.4564
 8853TIP3    H226524   7.090   1.649   1.398 -0.1975  0.1450 -0.6329
 8854TIP3   OH226525   5.096   2.757   2.328  0.2757  0.2480  0.0996
 8854TIP3    H126526   5.131   2.733   2.241 -0.0642 -0.6661  0.1972
 8854TIP3    H226527   5.166   2.734   2.389  0.3642  0.5209  0.1000
 8855TIP3   OH226528   3.675   2.249   5.510 -0.5543  0.0890 -0.2387
 8855TIP3    H126529   3.708   2.270   5.597 -2.2062  1.4039  0.1366
 8855TIP3    H226530   3.743   2.195   5.470  0.2400 -0.5477  1.8611
 8856TIP3   OH226531   4.899   0.113   0.277  0.1688  0.3092 -0.3753
 8856TIP3    H126532   4.976   0.165   0.255  0.9546 -1.2301 -1.5021
 8856TIP3    H226533   4.888   0.124   0.371  1.8935  0.4089 -0.1575
 8857TIP3   OH226534   1.852   0.355   4.351 -0.5092 -0.3042  0.1868
 8857TIP3    H126535   1.805   0.350   4.267 -0.9954  0.2657  0.4160
 8857TIP3    H226536   1.815   0.283   4.403 -0.7000 -0.2287  0.1556
 8858TIP3   OH226537   2.851   1.320   0.252  0.4724 -0.4810  0.0614
 8858TIP3    H126538   2.897   1.371   0.184  0.8081  1.2128  1.4848
 8858TIP3    H226539   2.921   1.287   0.308  0.1270 -0.3391  0.5868
 8859TIP3   OH226540   2.282   2.332   1.786 -0.4579 -0.9342  0.2556
 8859TIP3    H126541   2.238   2.332   1.701  0.7049  2.2125 -0.4820
 8859TIP3    H226542   2.241   2.403   1.835  0.1395 -1.4997  1.6397
 8860TIP3   OH226543   2.186   3.291   5.668 -0.0117 -0.6031 -0.4835
 8860TIP3    H126544   2.161   3.237   5.743  2.4779  0.5059  1.2876
 8860TIP3    H226545   2.162   3.380   5.694  0.0699 -0.2928 -1.4241
 8861TIP3   OH226546   4.179   6.463   2.346  0.2096  0.7444  0.2431
 8861TIP3    H126547   4.195   6.485   2.254 -0.8521  1.9905  0.3103
 8861TIP3    H226548   4.141   6.375   2.344  2.0556 -0.0744 -0.3110
 8862TIP3   OH226549   2.756   5.734   1.620 -0.3425 -0.7028  0.8850
 8862TIP3    H126550   2.844   5.771   1.629 -0.4264 -0.5330  1.0221
 8862TIP3    H226551   2.706   5.803   1.576 -0.3598 -0.8732  0.6362
 8863TIP3   OH226552   5.320   4.922   1.197 -0.3613  0.2858 -0.5226
 8863TIP3    H126553   5.280   4.859   1.257  1.1509 -0.9518 -0.7496
 8863TIP3    H226554   5.414   4.908   1.208 -0.0350 -0.0121 -3.2009
 8864TIP3   OH226555   5.232   3.223   1.962 -0.1720  0.3841  0.1233
 8864TIP3    H126556   5.312   3.231   1.910 -0.0450  0.5417  0.3360
 8864TIP3    H226557   5.166   3.272   1.913 -0.4735 -0.7962 -0.7000
 8865TIP3   OH226558   2.731   3.970   4.134  0.1997 -0.0333  0.4020
 8865TIP3    H126559   2.764   3.897   4.187 -1.7023 -0.9166  0.4650
 8865TIP3    H226560   2.670   4.016   4.193 -0.9153 -0.2259 -0.5677
 8866TIP3   OH226561   6.335   1.941   4.898  0.5192  0.3399 -0.1720
 8866TIP3    H126562   6.293   1.901   4.974  0.5684  1.6321  0.5571
 8866TIP3    H226563   6.427   1.915   4.906  0.4539  0.1559 -0.0073
 8867TIP3   OH226564   0.808   2.107   4.397 -0.0420  0.0554 -0.6010
 8867TIP3    H126565   0.832   2.175   4.334 -0.2220  0.5811 -0.1214
 8867TIP3    H226566   0.746   2.151   4.456 -0.6377 -0.7082 -0.6513
 8868TIP3   OH226567   0.589   5.734   2.402  0.1017 -0.1906 -0.6371
 8868TIP3    H126568   0.621   5.820   2.375  0.2754 -0.4061 -1.1433
 8868TIP3    H226569   0.514   5.752   2.457  1.6471  0.3780  1.4064
 8869TIP3   OH226570   2.884   1.990   4.938  0.2885  0.4676  0.1702
 8869TIP3    H126571   2.950   2.054   4.911  0.8133 -0.8545 -1.9537
 8869TIP3    H226572   2.887   1.922   4.870 -1.6502 -0.8061  1.2470
 8870TIP3   OH226573   6.748   0.267   2.699  0.3201 -0.6052 -0.5769
 8870TIP3    H126574   6.670   0.283   2.645 -0.9177 -0.6821  1.1338
 8870TIP3    H226575   6.789   0.190   2.659 -0.4292 -0.5241 -1.5407
 8871TIP3   OH226576   1.188   5.291   0.670  0.4610 -0.3304  0.3391
 8871TIP3    H126577   1.240   5.342   0.607  1.4663 -0.8844  0.6988
 8871TIP3    H226578   1.105   5.275   0.624  0.3586  1.0836 -0.0136
 8872TIP3   OH226579   1.956   1.454   2.952  0.2672  0.0475 -0.2195
 8872TIP3    H126580   1.864   1.471   2.934 -0.5423 -1.2486  2.2415
 8872TIP3    H226581   2.002   1.530   2.917 -1.7134  0.7765 -1.4187
 8873TIP3   OH226582   1.286   1.730   5.526  0.5283 -0.1014 -0.7166
 8873TIP3    H126583   1.285   1.756   5.434  0.6468  0.0196 -0.6846
 8873TIP3    H226584   1.245   1.803   5.572  0.9235  0.0642 -0.6194
 8874TIP3   OH226585   4.151   1.918   4.893 -0.1915 -0.4554 -0.1219
 8874TIP3    H126586   4.162   1.967   4.974  2.3221 -0.2904 -0.4894
 8874TIP3    H226587   4.115   1.834   4.921  0.6451 -0.4143  1.1973
 8875TIP3   OH226588   3.074   1.252   1.049 -0.0331 -0.5060 -0.1672
 8875TIP3    H126589   3.073   1.179   0.987  0.6149 -2.0946  1.6232
 8875TIP3    H226590   3.153   1.240   1.101 -0.9686  0.2914  1.5371
 8876TIP3   OH226591   1.464   0.028   4.723 -0.2480 -0.6787  0.5151
 8876TIP3    H126592   1.453  -0.064   4.700 -0.6320 -0.0597 -1.9920
 8876TIP3    H226593   1.381   0.069   4.698  0.4306  0.5803  0.2675
 8877TIP3   OH226594   3.363   5.836   0.144  0.3547 -0.2238  0.3132
 8877TIP3    H126595   3.373   5.742   0.156 -2.0341 -0.5518  0.1035
 8877TIP3    H226596   3.333   5.845   0.054  1.7330  0.8764 -0.0751
 8878TIP3   OH226597   1.454   0.375   2.387 -0.3857  0.4664  0.2875
 8878TIP3    H126598   1.447   0.281   2.404 -0.3462  0.7008  1.6885
 8878TIP3    H226599   1.382   0.394   2.327  0.2881 -0.6457 -0.9225
 8879TIP3   OH226600   6.370   1.886   3.679 -0.1691 -0.0176 -0.0713
 8879TIP3    H126601   6.378   1.967   3.627  0.1965 -1.3772 -2.2553
 8879TIP3    H226602   6.439   1.893   3.744  0.3571  1.1024 -0.7159
 8880TIP3   OH226603   0.572   2.530   4.565 -0.9185 -0.2205  0.3996
 8880TIP3    H126604   0.617   2.579   4.634 -2.0010  1.6617 -0.1615
 8880TIP3    H226605   0.609   2.564   4.483 -2.7885  0.9048 -0.0500
 8881TIP3   OH226606   0.074   3.499   2.826 -0.6136  0.2179 -0.1571
 8881TIP3    H126607   0.037   3.412   2.815 -1.5978  0.4536  1.0873
 8881TIP3    H226608   0.111   3.498   2.915  1.3285  0.3845 -0.9040
 8882TIP3   OH226609   3.507   5.716   4.021  0.2622  0.3680 -0.1953
 8882TIP3    H126610   3.434   5.777   4.012  0.8204  0.8247 -1.9081
 8882TIP3    H226611   3.477   5.635   3.981 -0.6351 -0.7191  2.4522
 8883TIP3   OH226612   3.080   1.950   4.726 -0.3038 -0.2872 -0.6544
 8883TIP3    H126613   3.099   2.037   4.692 -1.2266 -0.8873 -2.9165
 8883TIP3    H226614   3.164   1.904   4.725  0.3836  0.7934  1.4779
 8884TIP3   OH226615   1.661   0.244   4.776 -0.2346 -0.6950 -0.2450
 8884TIP3    H126616   1.609   0.169   4.748 -0.2322 -0.4933 -0.8040
 8884TIP3    H226617   1.632   0.316   4.719  0.9160 -0.6641 -0.8170
 8885TIP3   OH226618   6.511   2.623   3.391 -0.5946 -0.1416 -0.2464
 8885TIP3    H126619   6.605   2.604   3.380 -0.4170  0.0800  0.7413
 8885TIP3    H226620   6.484   2.567   3.464 -1.2198 -0.1560 -0.4825
 8886TIP3   OH226621   3.959   1.190   1.448  0.4007  0.1019  0.0443
 8886TIP3    H126622   3.911   1.124   1.499  0.9128 -1.0976 -0.9869
 8886TIP3    H226623   3.922   1.273   1.477 -0.4850 -0.6414  1.1568
 8887TIP3   OH226624   6.616   0.058   0.547 -0.5052 -0.1438  0.5882
 8887TIP3    H126625   6.617  -0.033   0.517  3.8249 -0.6988  1.7001
 8887TIP3    H226626   6.555   0.059   0.620 -2.2462 -1.5471 -0.7533
 8888TIP3   OH226627   1.130   1.295   2.419  0.4218  0.3555  0.2803
 8888TIP3    H126628   1.151   1.363   2.484 -0.4518  0.4755  0.4527
 8888TIP3    H226629   1.119   1.215   2.471  1.0832  0.1522  0.1175
 8889TIP3   OH226630   3.294   3.165   3.126  0.2521  0.2168  0.3168
 8889TIP3    H126631   3.228   3.184   3.059  0.0008 -0.6659  0.2976
 8889TIP3    H226632   3.243   3.136   3.202  0.6123 -0.9169  0.1562
 8890TIP3   OH226633   0.414   4.730   2.730 -0.5886 -1.0061  0.5523
 8890TIP3    H126634   0.412   4.777   2.647  0.9930 -1.1798  0.3863
 8890TIP3    H226635   0.507   4.719   2.749 -0.8899 -3.7192  0.7789
 8891TIP3   OH226636   0.809   3.023   5.169  0.3433 -0.0356  0.0077
 8891TIP3    H126637   0.852   2.977   5.097  0.7919 -0.4043  0.5027
 8891TIP3    H226638   0.770   2.954   5.222  1.2201  0.1145  0.8802
 8892TIP3   OH226639   0.574   0.770   1.858 -0.0264  0.1238 -0.3802
 8892TIP3    H126640   0.529   0.825   1.922  0.3284 -0.8405  0.7373
 8892TIP3    H226641   0.587   0.686   1.903  0.2453 -0.5825 -1.7190
 8893TIP3   OH226642   0.691   5.001   0.664  0.0290  0.1538 -0.1119
 8893TIP3    H126643   0.605   4.987   0.625 -0.0707  0.9753 -0.1999
 8893TIP3    H226644   0.672   5.040   0.750  0.3391  1.5748 -0.6691
 8894TIP3   OH226645   1.708   2.759   5.482 -0.0369  0.3424 -0.1019
 8894TIP3    H126646   1.644   2.830   5.481 -0.9784 -0.4805 -0.1197
 8894TIP3    H226647   1.678   2.701   5.553  1.3424  0.5161  0.6512
 8895TIP3   OH226648   4.179   3.716   5.364 -0.2581  0.5596  0.2126
 8895TIP3    H126649   4.119   3.786   5.391 -0.4001  1.3126 -1.8154
 8895TIP3    H226650   4.131   3.635   5.381 -1.2014  1.0881  0.1515
 8896TIP3   OH226651   0.454   3.566   0.577 -0.5368 -0.1968 -0.6967
 8896TIP3    H126652   0.427   3.474   0.576  0.5224 -0.5134 -1.8452
 8896TIP3    H226653   0.533   3.568   0.632 -0.5592  0.0320 -0.6687
 8897TIP3   OH226654   4.444   2.981   3.536 -0.1484 -0.4062 -0.1224
 8897TIP3    H126655   4.379   3.051   3.540 -0.3552 -0.5858 -0.3046
 8897TIP3    H226656   4.459   2.968   3.442  1.6222  0.9940 -0.1088
 8898TIP3   OH226657   3.825   1.110   4.130 -0.3799  0.2338 -0.3431
 8898TIP3    H126658   3.854   1.166   4.202 -1.6426  1.1712 -0.5194
 8898TIP3    H226659   3.902   1.099   4.075  0.4148  0.0998  0.7594
 8899TIP3   OH226660   6.874   1.604   4.086  0.4013 -0.3309 -0.0349
 8899TIP3    H126661   6.878   1.521   4.133 -2.4913 -1.0335 -0.8591
 8899TIP3    H226662   6.873   1.671   4.155 -0.8847 -1.1891  0.8132
 8900TIP3   OH226663   2.640   4.642   0.032  0.0243  0.4533  0.3345
 8900TIP3    H126664   2.549   4.670   0.020  0.4372  1.1394 -1.7063
 8900TIP3    H226665   2.634   4.549   0.050 -1.0631 -0.1172 -2.3939
 8901TIP3   OH226666   2.251   5.956   5.389  0.1792 -0.2420 -0.2976
 8901TIP3    H126667   2.235   5.950   5.295  0.1432 -0.0902 -0.3029
 8901TIP3    H226668   2.320   5.892   5.407  0.3709 -0.0873 -0.4733
 8902TIP3   OH226669   0.877   6.293   0.609  0.4523 -0.5413 -0.2786
 8902TIP3    H126670   0.796   6.303   0.659  0.2805  1.1896 -0.8482
 8902TIP3    H226671   0.944   6.337   0.661  0.5960 -0.1307 -0.8024
 8903TIP3   OH226672   0.907   3.195   1.346 -0.0629 -0.2364  0.0840
 8903TIP3    H126673   0.840   3.223   1.409  0.3240  0.7828  0.0576
 8903TIP3    H226674   0.928   3.274   1.296 -0.8224 -1.1523 -1.7746
 8904TIP3   OH226675   1.088   5.091   5.301 -1.0054 -0.0223  0.3698
 8904TIP3    H126676   1.094   5.167   5.359 -0.0752 -0.0060  0.2658
 8904TIP3    H226677   1.044   5.124   5.223 -0.0956  0.5581  0.0938
 8905TIP3   OH226678   2.283   2.255   4.155  0.0625  0.4357  0.2643
 8905TIP3    H126679   2.270   2.340   4.198  0.1506  0.6756 -0.1752
 8905TIP3    H226680   2.284   2.192   4.227 -0.2331  0.7802  0.5778
 8906TIP3   OH226681   3.125   4.338   3.198 -0.4240  0.2256 -0.3825
 8906TIP3    H126682   3.134   4.309   3.107  1.4099  1.8575 -0.7867
 8906TIP3    H226683   3.064   4.412   3.194 -1.5521 -0.6587 -0.0233
 8907TIP3   OH226684   6.246   1.477   0.413 -0.4229  0.4443 -0.1113
 8907TIP3    H126685   6.294   1.504   0.491 -0.2233 -0.0131 -0.0762
 8907TIP3    H226686   6.312   1.440   0.355 -0.9291 -1.7017  0.5926
 8908TIP3   OH226687   4.045   2.564   1.272 -0.2021 -0.8980 -0.8125
 8908TIP3    H126688   4.078   2.475   1.283  1.2075 -0.5219 -1.7101
 8908TIP3    H226689   4.122   2.619   1.281 -0.8760  0.1573 -1.3039
 8909TIP3   OH226690   6.346   3.885   2.981 -0.3134  0.2149  0.2125
 8909TIP3    H126691   6.266   3.835   2.998  0.9361 -1.7433  0.6219
 8909TIP3    H226692   6.413   3.819   2.966  0.8895  1.8043 -2.0291
 8910TIP3   OH226693   1.320   2.447   3.572  0.0220 -0.3571  0.0316
 8910TIP3    H126694   1.355   2.502   3.501 -0.0534 -1.2763 -0.7342
 8910TIP3    H226695   1.353   2.359   3.553  2.3524 -0.2088  2.6683
 8911TIP3   OH226696   4.663   5.450   0.508 -0.0089  0.3479 -0.4240
 8911TIP3    H126697   4.579   5.411   0.531 -0.1763  1.0577  0.2236
 8911TIP3    H226698   4.660   5.538   0.548  0.4196  0.9615 -1.6917
 8912TIP3   OH226699   0.159   6.556   5.255  0.3886  0.6946 -0.6439
 8912TIP3    H126700   0.100   6.605   5.313 -1.0360  1.0614 -2.3126
 8912TIP3    H226701   0.104   6.487   5.218  1.6368 -0.3974 -0.5151
 8913TIP3   OH226702   2.885   5.982   0.729  0.2112 -0.5059  0.1834
 8913TIP3    H126703   2.934   6.024   0.659 -1.5091  1.2110 -0.0580
 8913TIP3    H226704   2.813   5.938   0.684 -1.3089  1.1876  0.8597
 8914TIP3   OH226705   5.717   1.807   0.709 -0.1566 -0.7145 -0.0967
 8914TIP3    H126706   5.677   1.868   0.771 -1.4982  0.2491 -1.8127
 8914TIP3    H226707   5.646   1.748   0.683  0.0098 -0.2917 -1.6411
 8915TIP3   OH226708   4.196   4.338   4.572  0.4621 -0.1897  0.2002
 8915TIP3    H126709   4.127   4.350   4.506  1.2991 -0.7806 -0.8052
 8915TIP3    H226710   4.223   4.426   4.595 -0.8561  0.0692  0.8744
 8916TIP3   OH226711   2.721   4.161   1.636  0.0714 -0.2374  0.3125
 8916TIP3    H126712   2.698   4.162   1.730  0.7352 -1.6487  0.5144
 8916TIP3    H226713   2.637   4.175   1.592 -0.4691 -0.8177  1.1060
 8917TIP3   OH226714   6.587   1.759   1.912  1.0757  0.0700  0.0503
 8917TIP3    H126715   6.638   1.741   1.991  2.4985  0.1272 -0.8337
 8917TIP3    H226716   6.644   1.813   1.858 -1.5430  4.0912  0.8677
 8918TIP3   OH226717   4.143   4.557   4.347 -0.0877 -0.6499  1.3630
 8918TIP3    H126718   4.072   4.494   4.359 -0.9864 -0.0110 -0.1717
 8918TIP3    H226719   4.115   4.634   4.398 -0.8192 -0.2018  0.3391
 8919TIP3   OH226720   1.605   2.591   4.628 -1.0173 -0.4146 -0.1165
 8919TIP3    H126721   1.683   2.625   4.584 -1.2294  2.1003  1.2674
 8919TIP3    H226722   1.540   2.582   4.559 -1.0512  2.5315 -0.5849
 8920TIP3   OH226723   1.276   0.477   3.833  0.0388  0.1176  0.1562
 8920TIP3    H126724   1.185   0.506   3.837 -0.4171 -1.3692  2.0970
 8920TIP3    H226725   1.272   0.383   3.850  1.9733  0.0718  0.5826
 8921TIP3   OH226726   0.857   6.561   4.884  0.2399 -0.4486  0.5184
 8921TIP3    H126727   0.816   6.484   4.923 -1.0669 -0.4030 -0.6702
 8921TIP3    H226728   0.789   6.629   4.889  0.2567 -0.2683 -1.2048
 8922TIP3   OH226729   1.420   3.679   5.861  0.3969 -0.7470  0.3034
 8922TIP3    H126730   1.444   3.591   5.834  2.1434 -0.3293  0.3644
 8922TIP3    H226731   1.390   3.721   5.781  0.3042 -1.1629  0.1177
 8923TIP3   OH226732   2.242   3.693   5.069 -0.0291  0.9434 -0.5470
 8923TIP3    H126733   2.174   3.697   5.136  1.8808 -0.7116  1.6636
 8923TIP3    H226734   2.307   3.758   5.096  0.1884  1.1850 -1.5712
 8924TIP3   OH226735   5.037   2.038   5.389 -0.1581 -0.1167 -0.3496
 8924TIP3    H126736   5.101   1.967   5.392 -0.8170 -0.7378 -0.6567
 8924TIP3    H226737   4.962   2.005   5.438 -1.5141 -0.7418 -2.6899
 8925TIP3   OH226738   3.917   1.396   0.930  0.2080 -0.4251 -0.3546
 8925TIP3    H126739   3.957   1.314   0.959  0.1944 -0.9907 -1.8298
 8925TIP3    H226740   3.830   1.395   0.969  0.5372 -0.6677  0.3848
 8926TIP3   OH226741   3.538   0.589   3.076 -0.2305 -0.6126  0.5163
 8926TIP3    H126742   3.516   0.499   3.100 -3.8007 -0.0332  0.0279
 8926TIP3    H226743   3.520   0.639   3.155  1.8363 -0.2720  0.8141
 8927TIP3   OH226744   4.050   0.350   2.526 -0.6447  0.6281 -0.4640
 8927TIP3    H126745   3.956   0.367   2.534 -0.3296  2.6623 -0.3458
 8927TIP3    H226746   4.085   0.431   2.487  1.0328 -0.1425 -0.6240
 8928TIP3   OH226747   1.808   5.739   0.919  0.8206  0.4511  0.1190
 8928TIP3    H126748   1.842   5.721   0.831 -0.6459  0.9035 -0.5637
 8928TIP3    H226749   1.826   5.659   0.968 -1.2444 -1.1007 -1.5138
 8929TIP3   OH226750   5.890   4.784   1.869  0.2803  0.6512 -0.8269
 8929TIP3    H126751   5.903   4.727   1.945  0.1801 -0.5488 -1.6920
 8929TIP3    H226752   5.834   4.855   1.902 -0.9398 -0.5912 -0.1136
 8930TIP3   OH226753   5.409   2.370   0.943 -0.3529 -0.5746  0.0962
 8930TIP3    H126754   5.338   2.336   0.889 -1.2436 -0.7658  1.3388
 8930TIP3    H226755   5.375   2.451   0.980 -1.1127 -2.0891  2.9868
 8931TIP3   OH226756   4.276   0.251   3.757 -0.3794 -0.1387 -0.1676
 8931TIP3    H126757   4.279   0.279   3.665 -0.2837  0.8965  0.1441
 8931TIP3    H226758   4.204   0.301   3.795  0.0787  0.0167  0.5099
 8932TIP3   OH226759   7.015   2.700   1.261  0.1077 -0.4038  0.3805
 8932TIP3    H126760   6.944   2.758   1.289  0.5263 -0.0559  0.7377
 8932TIP3    H226761   7.053   2.745   1.186 -0.1061 -0.6379  0.1290
 8933TIP3   OH226762   4.733   5.704   1.844  0.4653  0.2683  0.1731
 8933TIP3    H126763   4.771   5.777   1.894  0.5753 -0.0921  0.6197
 8933TIP3    H226764   4.718   5.636   1.909  0.1883 -0.0423 -0.2147
 8934TIP3   OH226765   0.112   2.553   0.600 -0.2262 -0.0857  0.6712
 8934TIP3    H126766   0.199   2.530   0.634  0.1184 -0.1596 -0.2424
 8934TIP3    H226767   0.112   2.521   0.510 -0.1021  2.5293 -0.3303
 8935TIP3   OH226768   3.750   5.419   1.267  0.0801 -0.1588 -0.8476
 8935TIP3    H126769   3.690   5.422   1.341  0.2942  0.7963 -0.7025
 8935TIP3    H226770   3.827   5.373   1.301  0.9600  1.9002  0.1432
 8936TIP3   OH226771   0.112   0.183   0.738 -0.4891  0.2230  0.0923
 8936TIP3    H126772   0.108   0.178   0.833 -1.0495 -0.6864  0.0407
 8936TIP3    H226773   0.090   0.274   0.717  2.8849  1.3625  0.9401
 8937TIP3   OH226774   5.443   1.000   3.258  0.0222 -0.5194 -0.3170
 8937TIP3    H126775   5.433   1.056   3.182 -0.7398  0.5718  0.5564
 8937TIP3    H226776   5.390   0.923   3.239  0.1786 -0.4412 -1.0681
 8938TIP3   OH226777   6.265   1.634   3.799  0.4134 -0.1449 -0.4847
 8938TIP3    H126778   6.169   1.633   3.800  0.4146 -0.5153 -0.6671
 8938TIP3    H226779   6.287   1.720   3.766  0.1237 -0.7369 -2.3335
 8939TIP3   OH226780   2.159   2.811   3.519  0.1094  0.1605  0.1116
 8939TIP3    H126781   2.101   2.856   3.581 -0.0452  0.7520 -0.4463
 8939TIP3    H226782   2.195   2.738   3.569  0.0717  0.6804  0.9358
 8940TIP3   OH226783   2.019   0.851   5.723 -0.0703 -0.1443 -0.4675
 8940TIP3    H126784   2.074   0.791   5.673 -0.6858  1.1285 -2.8185
 8940TIP3    H226785   1.930   0.827   5.700 -0.5070 -0.6867  1.5201
 8941TIP3   OH226786   5.666   3.796   4.810 -0.1823 -0.1510 -0.3197
 8941TIP3    H126787   5.591   3.744   4.840 -0.0362 -0.5048 -0.5705
 8941TIP3    H226788   5.629   3.881   4.788 -0.1014  0.7013  2.3680
 8942TIP3   OH226789   0.912   5.176   3.064  0.2582  0.4092  0.2904
 8942TIP3    H126790   0.890   5.169   2.971  1.2155  0.1568  0.0650
 8942TIP3    H226791   0.985   5.238   3.067  0.3654  0.2643  0.8500
 8943TIP3   OH226792   5.934   2.832   5.348  0.9734  0.2196 -0.0255
 8943TIP3    H126793   5.924   2.745   5.309  2.5745 -0.3020  0.6202
 8943TIP3    H226794   6.029   2.844   5.355  0.7632  1.3418  1.3815
 8944TIP3   OH226795   3.583   2.711   1.116  0.2501 -0.6063 -0.0809
 8944TIP3    H126796   3.499   2.749   1.141 -0.3611 -0.1865 -2.5225
 8944TIP3    H226797   3.646   2.782   1.127 -0.2749  0.0506 -1.1942
 8945TIP3   OH226798   3.906   3.486   5.743 -0.0255 -0.4703 -0.2409
 8945TIP3    H126799   3.943   3.427   5.677 -0.8788 -0.2854 -0.9018
 8945TIP3    H226800   3.848   3.431   5.795  0.1010 -0.4649 -0.0928
 8946TIP3   OH226801   0.287   6.505   2.113  0.0586  0.9088 -0.0113
 8946TIP3    H126802   0.337   6.425   2.098  0.4998  1.1419  0.2024
 8946TIP3    H226803   0.324   6.542   2.193 -1.7067  0.1193  1.2246
 8947TIP3   OH226804   5.349   1.794   3.513 -0.1643  0.3129 -0.0505
 8947TIP3    H126805   5.415   1.857   3.484 -1.0718  1.1673 -0.3601
 8947TIP3    H226806   5.378   1.767   3.600  0.5921  0.6661 -0.1849
 8948TIP3   OH226807   4.211   2.862   2.157 -0.4939  0.1896  0.1466
 8948TIP3    H126808   4.287   2.893   2.107 -0.5401  1.7245  0.9705
 8948TIP3    H226809   4.247   2.798   2.219  0.0895  0.7391  0.3774
 8949TIP3   OH226810   6.544   0.546   1.612 -0.5340  0.3855  0.2314
 8949TIP3    H126811   6.625   0.544   1.662 -0.5327 -0.3595  0.2103
 8949TIP3    H226812   6.562   0.493   1.535 -0.0943  2.5831 -1.2719
 8950TIP3   OH226813   2.421   3.123   2.175 -0.0680  0.4443  0.3601
 8950TIP3    H126814   2.486   3.055   2.193 -0.1843  0.9107  2.8916
 8950TIP3    H226815   2.469   3.205   2.180 -0.6702  0.7554  1.6036
 8951TIP3   OH226816   3.199   2.916   5.133  0.2295  0.5043  0.3776
 8951TIP3    H126817   3.230   2.826   5.145  0.8245  0.4920 -1.0813
 8951TIP3    H226818   3.132   2.927   5.200  0.5624 -0.8243  0.9661
 8952TIP3   OH226819   5.528   0.142   2.575  0.0396 -0.1462 -0.0937
 8952TIP3    H126820   5.558   0.127   2.486 -1.1357  1.7971 -0.8737
 8952TIP3    H226821   5.527   0.238   2.584 -1.0289 -0.2771  1.5943
 8953TIP3   OH226822   0.507   6.357   0.565 -0.5766 -0.5970 -0.2218
 8953TIP3    H126823   0.461   6.420   0.620  0.2326 -1.5301  1.5965
 8953TIP3    H226824   0.569   6.314   0.624  0.0808 -1.9057 -1.7897
 8954TIP3   OH226825   1.025   5.548   2.246  0.4066  0.3100 -0.0771
 8954TIP3    H126826   1.029   5.551   2.342 -0.6099 -0.2808  0.0107
 8954TIP3    H226827   1.116   5.556   2.217  0.7793 -0.0110  0.9597
 8955TIP3   OH226828   2.665   3.029   5.312  0.4565  0.9895  0.1120
 8955TIP3    H126829   2.614   2.958   5.273  2.0806  0.3415 -0.9292
 8955TIP3    H226830   2.628   3.040   5.400  0.3540 -1.3466  0.4135
 8956TIP3   OH226831   5.956   5.734   4.287  0.4371  0.1065 -0.3637
 8956TIP3    H126832   5.886   5.798   4.300  0.6937  0.0552  1.4913
 8956TIP3    H226833   6.036   5.780   4.313  0.5158 -1.2009  2.0101
 8957TIP3   OH226834   2.502   6.795   4.458 -0.0157  0.6909 -0.0035
 8957TIP3    H126835   2.444   6.736   4.409  0.3326  1.2739 -1.1430
 8957TIP3    H226836   2.459   6.805   4.543 -0.8944  0.0522 -0.3558
 8958TIP3   OH226837   6.547   3.992   5.016 -0.1389  0.0262  0.7846
 8958TIP3    H126838   6.625   3.949   4.981  0.3432  1.2299  0.3475
 8958TIP3    H226839   6.478   3.970   4.953  0.2936  0.5728  0.1010
 8959TIP3   OH226840   0.229   1.990   1.411  0.1644 -0.0236 -0.2327
 8959TIP3    H126841   0.212   2.050   1.484  2.9678  0.8649 -0.1957
 8959TIP3    H226842   0.288   1.924   1.449  2.3027  0.8824 -1.7915
 8960TIP3   OH226843   3.962   3.503   5.367 -0.2084  0.5635 -0.2619
 8960TIP3    H126844   3.957   3.410   5.392  0.4624  0.7098  0.4422
 8960TIP3    H226845   3.880   3.519   5.320 -2.3253  0.6503  3.1183
 8961TIP3   OH226846   2.094   0.234   4.389 -0.2629  0.6348 -0.4954
 8961TIP3    H126847   2.019   0.274   4.344 -0.2325  2.5653  1.0515
 8961TIP3    H226848   2.169   0.283   4.358  0.5395 -1.6225 -2.4260
 8962TIP3   OH226849   4.361   0.749   2.535 -0.0160 -0.1512 -0.0467
 8962TIP3    H126850   4.353   0.806   2.612 -0.5558 -1.5029  0.9536
 8962TIP3    H226851   4.446   0.706   2.546  1.3110  1.8619 -1.8439
 8963TIP3   OH226852   6.721   3.010   2.473  0.5751  0.6305  0.5849
 8963TIP3    H126853   6.715   2.972   2.560 -1.3366 -0.8113 -0.1193
 8963TIP3    H226854   6.781   2.952   2.425 -0.5977 -0.2425  0.1490
 8964TIP3   OH226855   6.931   3.194   1.724  0.0105 -0.0313 -0.2364
 8964TIP3    H126856   7.001   3.211   1.787 -1.7209  0.0377  1.7677
 8964TIP3    H226857   6.904   3.104   1.741 -1.7836  0.5989  0.5538
 8965TIP3   OH226858   1.090   4.942   2.613  0.3196  0.2523 -0.0005
 8965TIP3    H126859   1.114   4.869   2.555 -0.3632  0.1812 -0.2028
 8965TIP3    H226860   1.072   5.015   2.554  1.6319  0.7890  0.2324
 8966TIP3   OH226861   3.751   0.168   5.779  0.0522 -0.1790 -0.6172
 8966TIP3    H126862   3.809   0.116   5.724  1.3673  1.6004 -1.0135
 8966TIP3    H226863   3.792   0.165   5.866 -0.5577 -0.8212 -0.3496
 8967TIP3   OH226864   6.732   4.933   0.601  0.1799  0.1941 -0.2856
 8967TIP3    H126865   6.758   4.955   0.512  1.7345 -0.2221  0.0235
 8967TIP3    H226866   6.780   4.852   0.620 -0.3410  0.1294  0.8387
 8968TIP3   OH226867   5.443   3.400   2.123  0.2244  0.1848  0.3639
 8968TIP3    H126868   5.435   3.385   2.029 -0.5679 -1.1121  0.5983
 8968TIP3    H226869   5.527   3.361   2.147  0.2774  0.2244  0.2399
 8969TIP3   OH226870   4.265   1.566   3.527 -0.3644  0.4712 -0.1578
 8969TIP3    H126871   4.181   1.520   3.522  0.7661 -1.8421  0.5340
 8969TIP3    H226872   4.273   1.610   3.443 -1.9179  0.0792 -0.5408
 8970TIP3   OH226873   5.576   0.431   5.229 -0.0190  0.1502  0.1303
 8970TIP3    H126874   5.578   0.349   5.180  2.7103 -0.4217  1.0122
 8970TIP3    H226875   5.609   0.407   5.316  0.4319  2.0876  0.5349
 8971TIP3   OH226876   6.544   4.524   0.086  0.2084  0.2634 -0.1355
 8971TIP3    H126877   6.639   4.533   0.086  0.3629 -1.1265 -0.3113
 8971TIP3    H226878   6.529   4.431   0.071 -1.1819  0.3835  0.3867
 8972TIP3   OH226879   1.184   1.980   4.806 -0.0431 -0.7112  0.0656
 8972TIP3    H126880   1.200   1.960   4.714  0.5746  1.9382 -0.5070
 8972TIP3    H226881   1.271   2.001   4.841 -0.3674 -1.0064  1.0688
 8973TIP3   OH226882   6.649   4.392   3.335  0.3814 -0.1380  0.4496
 8973TIP3    H126883   6.708   4.451   3.287 -1.0736  0.3596 -0.8318
 8973TIP3    H226884   6.677   4.398   3.426  1.8733  0.5857 -0.0275
 8974TIP3   OH226885   3.111   4.284   2.911  0.2946  0.3065  0.5223
 8974TIP3    H126886   3.094   4.351   2.845 -0.2467 -1.1976 -0.9492
 8974TIP3    H226887   3.179   4.229   2.873  0.3508 -0.3022  1.4559
 8975TIP3   OH226888   3.116   0.631   2.713  0.3353  0.1649  0.2701
 8975TIP3    H126889   3.120   0.708   2.770  1.4595 -0.1209  0.6125
 8975TIP3    H226890   3.206   0.598   2.711  0.3783  0.3072 -1.9062
 8976TIP3   OH226891   3.702   5.921   5.659  0.2189  0.4294 -0.1820
 8976TIP3    H126892   3.777   5.947   5.712 -1.1248  2.7264  0.7249
 8976TIP3    H226893   3.676   6.001   5.613 -1.6059 -0.3218 -0.5517
 8977TIP3   OH226894   5.282   0.780   2.693  0.2097 -0.0695 -0.3458
 8977TIP3    H126895   5.350   0.810   2.632 -0.1278 -1.2843 -1.3597
 8977TIP3    H226896   5.199   0.802   2.650 -0.0762  1.3088  0.8395
 8978TIP3   OH226897   5.751   5.972   4.314 -0.2960 -0.3791 -0.8604
 8978TIP3    H126898   5.818   6.028   4.353  0.0674 -1.3758 -0.0088
 8978TIP3    H226899   5.671   6.025   4.318 -0.4986 -0.7226  2.1153
 8979TIP3   OH226900   0.340   5.569   2.465  0.4703  0.8160  0.0519
 8979TIP3    H126901   0.302   5.587   2.552  0.8261  1.1657  0.1346
 8979TIP3    H226902   0.270   5.523   2.418 -0.2140  1.8300  0.0596
 8980TIP3   OH226903   1.876   1.389   5.858 -0.0459  0.1357  0.7157
 8980TIP3    H126904   1.811   1.352   5.918 -1.5407 -0.9333 -1.4212
 8980TIP3    H226905   1.921   1.312   5.822  0.7219  0.7411  0.3507
 8981TIP3   OH226906   7.215   4.943   2.266  0.2451  0.6904 -0.1085
 8981TIP3    H126907   7.263   4.898   2.197  0.8710  2.0137 -0.5763
 8981TIP3    H226908   7.139   4.888   2.283  0.3933  0.0469 -1.4301
 8982TIP3   OH226909   0.599   3.107   2.920 -0.0575 -0.1297 -0.3157
 8982TIP3    H126910   0.579   3.117   3.013 -0.6542  1.8467 -0.5993
 8982TIP3    H226911   0.536   3.164   2.876  0.6071 -0.5564 -1.8899
 8983TIP3   OH226912   1.371   2.190   3.833 -0.5081 -0.3809 -0.7133
 8983TIP3    H126913   1.278   2.168   3.835 -0.7010  0.3916  1.4750
 8983TIP3    H226914   1.412   2.119   3.783 -2.1832 -1.0638 -1.1646
 8984TIP3   OH226915   0.860   2.410   5.762  0.5541 -0.4828  0.9156
 8984TIP3    H126916   0.828   2.424   5.673  1.8000  0.4237  0.5756
 8984TIP3    H226917   0.781   2.395   5.814 -0.2242 -0.5784 -0.2567
 8985TIP3   OH226918   5.414   1.815   2.509  0.4229 -0.4936 -0.3335
 8985TIP3    H126919   5.441   1.844   2.423 -0.1013  0.9141 -0.0514
 8985TIP3    H226920   5.325   1.783   2.497 -0.2545  1.1763 -0.0737
 8986TIP3   OH226921   1.960   4.142   3.599 -0.5278  0.1357  0.1659
 8986TIP3    H126922   1.973   4.172   3.688  1.3637  0.5997 -0.2272
 8986TIP3    H226923   1.977   4.219   3.544 -1.2793 -0.2374 -0.6337
 8987TIP3   OH226924   6.459   4.411   0.619 -0.1280 -0.4543 -0.3908
 8987TIP3    H126925   6.464   4.315   0.622  2.1794 -0.3839 -0.2366
 8987TIP3    H226926   6.417   4.435   0.702  0.6430 -1.3010  0.2775
 8988TIP3   OH226927   1.400   0.844   3.821 -0.0041 -0.2290 -0.3346
 8988TIP3    H126928   1.440   0.915   3.873 -1.4326  0.9723 -0.8113
 8988TIP3    H226929   1.466   0.823   3.755  1.4575 -1.1161  1.3128
 8989TIP3   OH226930   5.168   6.591   2.471  0.0769  0.7116 -0.1498
 8989TIP3    H126931   5.230   6.555   2.408 -1.2100 -0.3319 -0.8787
 8989TIP3    H226932   5.154   6.520   2.533 -0.8416  0.7164 -0.3445
 8990TIP3   OH226933   6.169   6.362   4.411 -0.1924 -0.2953 -0.1451
 8990TIP3    H126934   6.160   6.441   4.358 -0.9771 -0.3664 -0.1280
 8990TIP3    H226935   6.103   6.371   4.480 -0.7894 -1.2859 -0.5564
 8991TIP3   OH226936   5.530   1.603   2.688  0.1216  0.2247  0.2298
 8991TIP3    H126937   5.490   1.648   2.614  0.7605 -0.5572 -0.6143
 8991TIP3    H226938   5.527   1.667   2.759 -0.0271  1.1846 -0.6145
 8992TIP3   OH226939   5.402   3.165   5.210 -0.3323  0.1409  0.6139
 8992TIP3    H126940   5.351   3.199   5.284 -0.2240  0.5818  0.4849
 8992TIP3    H226941   5.491   3.194   5.227  0.0223 -1.2092  1.1991
 8993TIP3   OH226942   3.540   4.506   1.204  0.1227  0.0022  0.3402
 8993TIP3    H126943   3.611   4.467   1.255  0.1109  2.0679  2.1401
 8993TIP3    H226944   3.492   4.558   1.268 -2.0805 -0.0856 -1.1578
 8994TIP3   OH226945   7.152   6.313   0.865 -0.1657 -0.4597  0.1277
 8994TIP3    H126946   7.096   6.379   0.823  0.3068 -1.4240 -2.1997
 8994TIP3    H226947   7.241   6.345   0.850  0.0389  0.9108  3.5431
 8995TIP3   OH226948   0.834   1.065   4.544  0.2259 -0.0004 -0.3537
 8995TIP3    H126949   0.862   1.039   4.456 -0.3041 -0.5727 -0.3613
 8995TIP3    H226950   0.905   1.036   4.601 -0.8913 -2.7882 -0.1930
 8996TIP3   OH226951   3.956   5.646   0.991  0.9345 -0.0701 -0.2412
 8996TIP3    H126952   3.912   5.563   0.973  0.5792 -0.5440  2.3977
 8996TIP3    H226953   4.026   5.651   0.926  0.5716 -2.1288 -0.8552
 8997TIP3   OH226954   4.131   3.049   4.162 -0.3173  0.2471 -0.0622
 8997TIP3    H126955   4.120   2.964   4.119  1.0499 -0.0938  0.2344
 8997TIP3    H226956   4.052   3.098   4.138 -0.3467 -0.5047 -1.6309
 8998TIP3   OH226957   2.292   6.618   5.090 -0.0447  0.2777 -0.1469
 8998TIP3    H126958   2.217   6.677   5.090 -0.2382  0.0814 -1.8683
 8998TIP3    H226959   2.341   6.641   5.169 -0.8489  1.7781 -0.0528
 8999TIP3   OH226960   2.403   3.914   1.200 -0.1208 -0.1256  0.2287
 8999TIP3    H126961   2.474   3.915   1.263 -0.1518 -0.7686  0.2779
 8999TIP3    H226962   2.414   3.995   1.150  0.8440 -0.3833  0.0124
 9000TIP3   OH226963   6.455   6.549   1.921 -0.2164  0.3210 -0.4041
 9000TIP3    H126964   6.422   6.459   1.914  0.9433 -0.2715  1.0263
 9000TIP3    H226965   6.522   6.556   1.853  0.9122 -0.5215  0.5724
 9001TIP3   OH226966   0.589   3.927   1.772  0.8177  0.2626  0.4035
 9001TIP3    H126967   0.549   3.954   1.689  0.9993  2.3142  0.9427
 9001TIP3    H226968   0.517   3.931   1.835  0.8606 -0.5386  0.5168
 9002TIP3   OH226969   3.444   1.412   2.353 -0.1414 -0.5558  0.0554
 9002TIP3    H126970   3.353   1.415   2.325  0.1808 -1.3373 -1.1442
 9002TIP3    H226971   3.452   1.482   2.418 -1.0009  1.1413 -1.6045
 9003TIP3   OH226972   4.151   1.414   2.738  0.2623 -0.7949 -0.4714
 9003TIP3    H126973   4.179   1.461   2.817 -0.6487 -1.5910  0.3586
 9003TIP3    H226974   4.198   1.457   2.667  1.0919 -0.0318  0.4963
 9004TIP3   OH226975   2.241   5.263   2.821  0.0703  0.4052  0.1294
 9004TIP3    H126976   2.266   5.232   2.734 -1.8320  0.3951 -0.4416
 9004TIP3    H226977   2.176   5.201   2.852  0.3844  0.6694  1.3782
 9005TIP3   OH226978   3.955   4.630   1.311  0.0175 -0.2450 -0.6314
 9005TIP3    H126979   4.009   4.694   1.266 -2.5161  1.0310 -2.0727
 9005TIP3    H226980   3.958   4.656   1.403 -0.9430  2.0419 -1.1828
 9006TIP3   OH226981   4.281   1.759   3.312 -0.1213  0.3898 -0.1589
 9006TIP3    H126982   4.304   1.809   3.390 -1.0622 -0.4931  0.7098
 9006TIP3    H226983   4.363   1.750   3.264  0.5391  0.6451  0.8969
 9007TIP3   OH226984   4.130   5.601   5.123 -0.6101 -0.3885 -0.0962
 9007TIP3    H126985   4.036   5.611   5.107 -1.1053 -2.5764  1.1359
 9007TIP3    H226986   4.147   5.655   5.200 -0.8825 -0.1438 -0.2030
 9008TIP3   OH226987   6.251   1.659   0.671  0.1233  0.4009 -0.2674
 9008TIP3    H126988   6.156   1.660   0.682  0.2492  1.6325  0.9390
 9008TIP3    H226989   6.274   1.751   0.658  0.9109 -0.1041 -3.0999
 9009TIP3   OH226990   4.531   3.225   0.039 -0.7818 -0.0343  0.4787
 9009TIP3    H126991   4.525   3.192  -0.051  0.9931  0.0626  0.2981
 9009TIP3    H226992   4.521   3.148   0.094  1.1789 -0.5965  0.1093
 9010TIP3   OH226993   3.560   5.393   5.556  0.4095 -0.4817 -0.2952
 9010TIP3    H126994   3.557   5.398   5.652  2.0469 -0.3670 -0.2238
 9010TIP3    H226995   3.650   5.416   5.534 -0.4626  1.6230 -2.0037
 9011TIP3   OH226996   5.433   1.700   4.044 -0.2583 -0.5939  0.6523
 9011TIP3    H126997   5.490   1.764   4.087 -0.8653  0.0725  0.4855
 9011TIP3    H226998   5.455   1.616   4.085  0.4590 -0.2577  0.9603
 9012TIP3   OH226999   2.347   2.163   1.242  0.2862  0.1946 -0.6974
 9012TIP3    H127000   2.393   2.154   1.159  0.8257 -0.5756 -0.3316
 9012TIP3    H227001   2.359   2.255   1.267  0.3803  0.3499 -1.3184
 9013TIP3   OH227002   6.873   6.599   1.133  0.2410 -0.2489  0.1398
 9013TIP3    H127003   6.857   6.520   1.082 -1.7213  1.4704 -2.1216
 9013TIP3    H227004   6.938   6.648   1.082 -0.9676  1.0118 -0.2784
 9014TIP3   OH227005   0.747   4.769   4.010 -0.0732 -0.5641 -0.4486
 9014TIP3    H127006   0.834   4.770   4.050  0.5289  2.2788 -1.5303
 9014TIP3    H227007   0.691   4.814   4.074  0.0201  0.4593 -1.0570
 9015TIP3   OH227008   0.533   4.780   2.125  0.0413  0.5268  0.0075
 9015TIP3    H127009   0.591   4.843   2.083 -0.2826  1.4214  0.8506
 9015TIP3    H227010   0.533   4.806   2.217 -1.2025  0.1554  0.1294
 9016TIP3   OH227011   7.065   0.600   2.904 -0.5034 -0.4262  0.4124
 9016TIP3    H127012   7.037   0.612   2.813  0.4656 -0.3629  0.1177
 9016TIP3    H227013   7.156   0.628   2.906 -0.5370 -0.3385  1.4307
 9017TIP3   OH227014   1.802   5.060   0.489  0.2491 -0.0565  0.1057
 9017TIP3    H127015   1.731   5.000   0.469 -0.4890  0.9895 -0.4934
 9017TIP3    H227016   1.787   5.136   0.433  0.7134  1.0224  1.3717
 9018TIP3   OH227017   1.705   1.943   5.718  0.1450  0.3886  0.2193
 9018TIP3    H127018   1.787   1.969   5.676  0.6863  1.1429  1.6988
 9018TIP3    H227019   1.662   1.887   5.653  1.1654  1.1302 -1.1421
 9019TIP3   OH227020   4.822   5.976   1.504 -0.5352 -0.0610  0.1855
 9019TIP3    H127021   4.878   5.924   1.562 -0.3409  0.8155  0.8132
 9019TIP3    H227022   4.733   5.948   1.525 -0.3648 -3.2292 -2.5123
 9020TIP3   OH227023   4.744   4.779   5.586 -0.2952 -0.1503 -0.4783
 9020TIP3    H127024   4.681   4.740   5.647 -1.3188 -0.6114 -1.7732
 9020TIP3    H227025   4.830   4.750   5.618 -0.9404 -2.2616 -0.5067
 9021TIP3   OH227026   3.359   5.629   4.893  0.3581 -0.6748  0.1536
 9021TIP3    H127027   3.455   5.629   4.887  0.3799  1.0435 -0.1992
 9021TIP3    H227028   3.332   5.548   4.850  1.5853 -0.2707 -1.4809
 9022TIP3   OH227029   0.536   2.632   2.398  0.0584 -0.2164  0.4931
 9022TIP3    H127030   0.523   2.717   2.440 -0.2617 -0.4136  0.7988
 9022TIP3    H227031   0.486   2.636   2.317 -0.0851 -0.1699  0.5847
 9023TIP3   OH227032   6.166   2.698   3.765 -0.1088  0.2035 -0.2225
 9023TIP3    H127033   6.104   2.701   3.692  0.2840 -0.9307 -0.6324
 9023TIP3    H227034   6.236   2.757   3.739 -1.2485  1.9336  0.4971
 9024TIP3   OH227035   2.317   4.846   3.854  0.1677  0.2155 -0.1244
 9024TIP3    H127036   2.292   4.824   3.944 -0.4525 -0.9725 -0.5685
 9024TIP3    H227037   2.412   4.843   3.855  0.2109  1.1570  0.7098
 9025TIP3   OH227038   0.158   6.459   3.979 -0.0251  0.0301  0.0654
 9025TIP3    H127039   0.180   6.534   3.924 -0.3420  0.0904  0.0157
 9025TIP3    H227040   0.082   6.420   3.936  0.8485 -1.0269 -0.5685
 9026TIP3   OH227041   2.649   6.790   3.736 -0.0917  0.0985 -0.5347
 9026TIP3    H127042   2.574   6.730   3.734 -0.3123  0.3839 -0.8351
 9026TIP3    H227043   2.613   6.873   3.768  0.0323  0.3265 -0.9874
 9027TIP3   OH227044   4.080   4.433   1.597 -0.2162 -0.0513 -0.0205
 9027TIP3    H127045   4.039   4.519   1.600  0.7901  0.4781 -0.9421
 9027TIP3    H227046   4.138   4.431   1.673 -1.0221 -0.3466  0.6071
 9028TIP3   OH227047   2.106   2.660   2.801  0.2432  0.2138 -0.5666
 9028TIP3    H127048   2.013   2.640   2.793 -0.0955  1.5578 -0.1753
 9028TIP3    H227049   2.120   2.669   2.895  0.6106  0.7451 -0.6713
 9029TIP3   OH227050   3.026   1.103   5.162  0.1333  0.2480  0.2359
 9029TIP3    H127051   3.059   1.135   5.246 -1.0936 -1.1348  1.3156
 9029TIP3    H227052   2.946   1.154   5.147 -0.7898 -0.9025  1.0112
 9030TIP3   OH227053   6.971   4.164   5.511 -0.5913  0.3656 -1.0069
 9030TIP3    H127054   6.917   4.105   5.459  0.5107 -1.6988  0.0668
 9030TIP3    H227055   6.920   4.180   5.590 -1.2431  1.5525 -1.6548
 9031TIP3   OH227056   6.009   6.199   0.457 -0.6023 -0.6070  0.0352
 9031TIP3    H127057   6.081   6.137   0.447 -1.0557 -1.2966  0.8765
 9031TIP3    H227058   5.932   6.151   0.425 -1.0168 -0.6138  1.0092
 9032TIP3   OH227059   1.380   4.537   4.948  0.5896  0.3938  0.5864
 9032TIP3    H127060   1.376   4.588   5.028  0.3740 -0.6162  1.2300
 9032TIP3    H227061   1.469   4.502   4.946  0.6800  0.6298  0.2349
 9033TIP3   OH227062   0.899   4.970   1.601 -0.1703  0.2692 -0.8863
 9033TIP3    H127063   0.929   5.003   1.517  0.9639 -0.4461 -0.7908
 9033TIP3    H227064   0.931   4.880   1.604  0.8700  0.6521  0.8131
 9034TIP3   OH227065   5.331   3.283   3.797  0.4461 -0.4078 -0.0342
 9034TIP3    H127066   5.254   3.291   3.742  2.1090  1.4195 -2.3020
 9034TIP3    H227067   5.396   3.239   3.742  2.2258  1.6265  0.2848
 9035TIP3   OH227068   0.287   1.852   0.421 -0.3833 -0.7047  0.0955
 9035TIP3    H127069   0.379   1.827   0.411 -0.3975 -1.0761  0.8570
 9035TIP3    H227070   0.271   1.913   0.349  0.6036 -0.2293  0.2635
 9036TIP3   OH227071   3.072   1.700   0.224 -0.1498  0.5026  0.3924
 9036TIP3    H127072   3.158   1.662   0.241 -0.1561  0.5662  0.5650
 9036TIP3    H227073   3.064   1.699   0.128  0.8874  2.3432  0.2390
 9037TIP3   OH227074   5.746   2.195   0.353  0.1541 -0.5540  0.1081
 9037TIP3    H127075   5.677   2.226   0.295 -0.5878 -2.8955 -0.3668
 9037TIP3    H227076   5.722   2.228   0.439 -1.0762 -0.5665 -0.2119
 9038TIP3   OH227077   0.709   5.449   3.879 -0.7998 -0.5415  0.1988
 9038TIP3    H127078   0.781   5.392   3.852 -1.6177 -1.4849 -0.0378
 9038TIP3    H227079   0.696   5.509   3.805  1.1452  1.1010  1.0900
 9039TIP3   OH227080   0.343   5.036   5.748 -0.2035  0.6510  0.1298
 9039TIP3    H127081   0.434   5.063   5.757  0.3081 -1.1239  0.6714
 9039TIP3    H227082   0.298   5.075   5.823  0.1859  1.1712  0.0988
 9040TIP3   OH227083   5.050   0.392   4.298  0.1135 -0.1224  0.5238
 9040TIP3    H127084   5.040   0.453   4.225  2.0326 -0.7032 -0.2912
 9040TIP3    H227085   4.962   0.382   4.333 -0.8844  0.2088 -1.7175
 9041TIP3   OH227086   2.746   5.650   0.559 -0.3431 -0.4568 -0.1459
 9041TIP3    H127087   2.734   5.644   0.464 -2.2838  0.6817 -0.0074
 9041TIP3    H227088   2.658   5.638   0.595  0.2025  0.1634  1.4572
 9042TIP3   OH227089   4.601   3.009   0.463 -0.2018 -0.5055 -0.1160
 9042TIP3    H127090   4.675   2.957   0.496  0.8143  0.1173 -1.3277
 9042TIP3    H227091   4.556   3.040   0.542  0.8537 -0.8619  0.6489
 9043TIP3   OH227092   5.579   6.716   1.924 -1.2269  0.0642 -0.5911
 9043TIP3    H127093   5.490   6.717   1.958 -1.0413 -1.5226  0.0500
 9043TIP3    H227094   5.626   6.782   1.976 -1.6569 -0.2219  0.1650
 9044TIP3   OH227095   1.029   1.965   5.394  0.1295 -0.1845 -0.2223
 9044TIP3    H127096   1.118   1.947   5.364 -0.4482  0.7123 -2.7494
 9044TIP3    H227097   0.980   1.886   5.371 -0.4985  0.8343 -2.6879
 9045TIP3   OH227098   5.610   4.439   0.401 -0.8113 -0.0047 -0.2701
 9045TIP3    H127099   5.587   4.532   0.399 -2.3728 -0.3494 -0.0164
 9045TIP3    H227100   5.638   4.419   0.312 -1.5149  0.4734 -0.6069
 9046TIP3   OH227101   1.833   5.577   5.347 -0.2968  0.2870  0.2907
 9046TIP3    H127102   1.890   5.501   5.334 -1.3178 -0.4374 -0.1033
 9046TIP3    H227103   1.827   5.618   5.261  0.8177  1.2618  0.6434
 9047TIP3   OH227104   3.978   5.002   1.463  0.2220 -0.4138  0.1530
 9047TIP3    H127105   3.896   4.997   1.415 -0.2864 -1.5762  1.0961
 9047TIP3    H227106   4.023   4.920   1.443 -0.4227 -1.3784  2.3130
 9048TIP3   OH227107   6.822   5.343   3.484  0.4654 -0.0874 -1.1571
 9048TIP3    H127108   6.734   5.381   3.483 -0.3157 -1.7649 -0.0078
 9048TIP3    H227109   6.872   5.398   3.423 -1.3162  0.9998 -1.7218
 9049TIP3   OH227110   3.093   5.572   1.677 -0.1538  0.2942 -0.3671
 9049TIP3    H127111   3.010   5.535   1.647  0.1176 -0.1407 -0.5947
 9049TIP3    H227112   3.134   5.606   1.598  0.0637  0.1492 -0.3171
 9050TIP3   OH227113   2.822   1.518   3.660 -0.4453 -0.2867 -0.3937
 9050TIP3    H127114   2.885   1.446   3.664 -0.2951 -0.1255  0.3806
 9050TIP3    H227115   2.855   1.575   3.591  1.0215  0.4707  0.8738
 9051TIP3   OH227116   1.260   1.890   0.464  0.4314  0.0552 -0.0527
 9051TIP3    H127117   1.280   1.796   0.463  0.4869  0.0591  0.5093
 9051TIP3    H227118   1.250   1.911   0.557  0.6132  0.6482 -0.1653
 9052TIP3   OH227119   0.413   4.324   1.876 -0.0332  0.1022 -0.0516
 9052TIP3    H127120   0.479   4.338   1.808 -0.8542  1.5710 -0.5703
 9052TIP3    H227121   0.458   4.348   1.958  0.2084  0.6942 -0.3497
 9053TIP3   OH227122   2.414   6.040   3.474  0.1742 -0.0733  0.7328
 9053TIP3    H127123   2.418   5.972   3.540 -1.2871  0.5013  1.4524
 9053TIP3    H227124   2.502   6.043   3.437  0.7477 -1.0732  1.9626
 9054TIP3   OH227125   1.287   2.914   1.914  0.1411  0.0283  0.5416
 9054TIP3    H127126   1.309   2.920   2.007 -0.4103  1.0957  0.6172
 9054TIP3    H227127   1.370   2.891   1.872  0.7131  0.9204  1.1452
 9055TIP3   OH227128   6.362   0.959   2.842  0.2925 -0.0849  0.3506
 9055TIP3    H127129   6.454   0.982   2.834  0.1085  0.3326 -0.6207
 9055TIP3    H227130   6.326   0.969   2.754 -0.8649  0.5495  0.8688
 9056TIP3   OH227131   3.801   3.078   2.656 -0.6759  0.5434 -0.2900
 9056TIP3    H127132   3.889   3.073   2.619 -1.0273  0.4293 -1.1483
 9056TIP3    H227133   3.753   3.136   2.597 -1.9518 -1.6184 -1.5350
 9057TIP3   OH227134   3.117   5.244   1.139 -0.0432 -0.5325  0.2248
 9057TIP3    H127135   3.167   5.254   1.220 -0.1188  1.5729  0.0506
 9057TIP3    H227136   3.114   5.332   1.101  0.7646 -1.5671 -2.5297
 9058TIP3   OH227137   3.107   4.730   5.413 -0.2354  0.3081 -0.0782
 9058TIP3    H127138   3.201   4.728   5.396 -0.2324  0.1661 -0.0404
 9058TIP3    H227139   3.078   4.814   5.376  0.1956  1.1820  1.4501
 9059TIP3   OH227140   1.418   4.974   4.967 -0.4115  0.0343 -0.3546
 9059TIP3    H127141   1.371   4.895   4.992 -0.0133 -0.5201 -1.3244
 9059TIP3    H227142   1.452   5.009   5.050 -1.9030  0.0612  0.2777
 9060TIP3   OH227143   3.347   5.141   1.860  0.6134 -0.2043  0.1114
 9060TIP3    H127144   3.264   5.170   1.899  1.0386 -0.6978  1.4198
 9060TIP3    H227145   3.354   5.049   1.885  1.0007 -0.4913 -1.0000
 9061TIP3   OH227146   0.782   1.293   2.221 -0.5614  0.5911 -0.9643
 9061TIP3    H127147   0.690   1.268   2.226 -0.3875  0.2440  2.0487
 9061TIP3    H227148   0.796   1.350   2.296  1.8001  0.1822 -1.0166
 9062TIP3   OH227149   3.865   0.492   2.333  0.9564 -0.1341  0.3634
 9062TIP3    H127150   3.820   0.421   2.378  0.1399  0.3551  0.3246
 9062TIP3    H227151   3.823   0.496   2.247  1.3770  0.0333  0.1634
 9063TIP3   OH227152   2.597   0.288   0.981  0.2099 -0.3527 -0.3006
 9063TIP3    H127153   2.578   0.194   0.983 -0.1433 -0.2913 -0.6937
 9063TIP3    H227154   2.512   0.330   0.996  0.4974 -0.0980  0.7193
 9064TIP3   OH227155   3.402   0.609   5.542  0.7791  0.3523 -0.2866
 9064TIP3    H127156   3.389   0.517   5.521  1.0732 -0.2830  1.9892
 9064TIP3    H227157   3.496   0.615   5.563  1.1656  1.5983 -2.1562
 9065TIP3   OH227158   4.019   2.215   0.906  0.1969 -0.3653  0.3715
 9065TIP3    H127159   3.981   2.211   0.994 -0.0364  2.5246  0.4926
 9065TIP3    H227160   4.082   2.287   0.910  1.8154 -1.6219 -1.2721
 9066TIP3   OH227161   4.880   6.362   3.885  0.0472 -0.1002 -0.8457
 9066TIP3    H127162   4.825   6.284   3.885  0.2956 -0.2807 -1.4035
 9066TIP3    H227163   4.869   6.399   3.972 -0.7049 -0.3096 -0.8455
 9067TIP3   OH227164   4.736   4.107   2.980 -0.0486  0.0262  0.3214
 9067TIP3    H127165   4.801   4.096   3.050 -0.0726 -0.5620  0.2546
 9067TIP3    H227166   4.709   4.018   2.958  0.8614  0.1087 -1.2784
 9068TIP3   OH227167   3.951   4.095   0.111 -0.0386 -0.1603 -0.0365
 9068TIP3    H127168   3.940   4.018   0.056 -1.5865  0.0775 -0.1185
 9068TIP3    H227169   3.995   4.159   0.055 -0.7033 -0.2575 -0.6863
 9069TIP3   OH227170   2.250   6.632   4.419  0.3925 -0.0915 -0.5443
 9069TIP3    H127171   2.193   6.565   4.381 -0.8354  1.3481 -1.3458
 9069TIP3    H227172   2.224   6.635   4.511 -0.5674  0.2726 -0.8192
 9070TIP3   OH227173   1.460   0.486   3.319  0.0498 -0.1467 -0.2503
 9070TIP3    H127174   1.410   0.486   3.401  0.1431 -0.9626 -0.1836
 9070TIP3    H227175   1.405   0.437   3.258  0.4231 -0.3907 -0.3928
 9071TIP3   OH227176   2.711   6.367   2.995  0.2309 -0.3703 -0.3714
 9071TIP3    H127177   2.769   6.313   2.942  1.2505  1.2572 -1.0015
 9071TIP3    H227178   2.627   6.364   2.949  0.3706 -1.1110 -0.5949
 9072TIP3   OH227179   5.809   0.669   4.767  1.0087 -0.7756 -0.5133
 9072TIP3    H127180   5.720   0.704   4.765  0.8612 -0.9783  1.0234
 9072TIP3    H227181   5.803   0.591   4.822  1.9332 -1.4459 -1.3207
 9073TIP3   OH227182   0.290   4.079   5.655 -0.3342 -0.5419  0.2189
 9073TIP3    H127183   0.317   4.045   5.740 -1.3595  1.7065  1.5186
 9073TIP3    H227184   0.281   4.173   5.668 -4.3800 -0.5198 -1.2151
 9074TIP3   OH227185   2.316   5.414   2.013  0.1016  0.3937  0.7701
 9074TIP3    H127186   2.276   5.409   2.099 -0.5848 -2.1413  0.3723
 9074TIP3    H227187   2.245   5.439   1.954  0.6644  2.5739  0.9253
 9075TIP3   OH227188   2.883   1.748   3.820 -0.5954 -0.5245 -0.1450
 9075TIP3    H127189   2.825   1.760   3.894 -1.3229 -1.6245 -0.5080
 9075TIP3    H227190   2.862   1.660   3.787  1.0924 -0.8479 -0.4425
 9076TIP3   OH227191   2.478   5.971   4.850  0.1264  0.1819 -0.0382
 9076TIP3    H127192   2.533   5.998   4.776 -0.9780 -0.4616 -1.1330
 9076TIP3    H227193   2.511   5.884   4.874 -0.1569 -0.0379 -0.4394
 9077TIP3   OH227194   6.914   0.478   3.091  0.5841  0.1958 -0.2305
 9077TIP3    H127195   6.867   0.424   3.028  1.5764 -0.5618 -0.3460
 9077TIP3    H227196   6.973   0.532   3.037  1.1563 -0.1779  0.0131
 9078TIP3   OH227197   0.123   4.674   4.627 -0.3776  0.4462  0.2368
 9078TIP3    H127198   0.148   4.653   4.537 -1.0764 -1.7862  0.4979
 9078TIP3    H227199   0.028   4.679   4.625 -0.4638 -0.6255  1.0121
 9079TIP3   OH227200   5.641   2.128   4.343  0.3697  0.2665  0.1305
 9079TIP3    H127201   5.650   2.069   4.417  0.8031  1.0231  0.6897
 9079TIP3    H227202   5.731   2.151   4.318  0.2179  0.3811 -0.3326
 9080TIP3   OH227203   3.258   2.250   2.446  0.3356 -0.2326 -0.0012
 9080TIP3    H127204   3.195   2.265   2.375  0.2688  1.6518  0.4089
 9080TIP3    H227205   3.344   2.255   2.403  0.2875  0.6828 -0.0151
 9081TIP3   OH227206   5.308   5.438   5.729  0.4887  0.2228 -0.1180
 9081TIP3    H127207   5.274   5.397   5.808  2.4048 -0.9736  0.1480
 9081TIP3    H227208   5.361   5.512   5.761  0.9526 -0.0295 -0.2911
 9082TIP3   OH227209   3.435   6.523   4.465  0.9493 -0.3454 -0.2415
 9082TIP3    H127210   3.452   6.514   4.559 -0.7055  0.4683  0.1756
 9082TIP3    H227211   3.514   6.490   4.423  1.9592 -0.1953  1.4485
 9083TIP3   OH227212   0.607   6.268   5.018  0.1911  0.4409 -0.2955
 9083TIP3    H127213   0.691   6.230   5.041 -0.0463 -0.5567 -1.0173
 9083TIP3    H227214   0.605   6.267   4.922  0.0737  2.0826 -0.3488
 9084TIP3   OH227215   5.254   4.913   2.711  0.1793 -0.3968  0.3342
 9084TIP3    H127216   5.160   4.901   2.696  0.0636  0.5865  0.2462
 9084TIP3    H227217   5.294   4.832   2.677 -0.8142 -1.9020  2.4972
 9085TIP3   OH227218   2.670   1.445   1.000 -0.7853 -0.0776 -0.1212
 9085TIP3    H127219   2.729   1.520   1.003 -1.1606  0.1988  0.9916
 9085TIP3    H227220   2.725   1.372   0.974  0.2589  0.0185  1.6377
 9086TIP3   OH227221   5.211   1.557   1.063  0.1837 -0.2902  0.0968
 9086TIP3    H127222   5.129   1.588   1.100  0.7994  1.8029 -0.1480
 9086TIP3    H227223   5.185   1.495   0.994 -1.0763 -1.3548  1.4773
 9087TIP3   OH227224   4.341   1.703   0.556 -0.2639 -0.2681  0.2331
 9087TIP3    H127225   4.373   1.696   0.646  0.5803 -1.4177 -0.1202
 9087TIP3    H227226   4.269   1.765   0.560 -0.1661 -0.2218  1.6819
 9088TIP3   OH227227   1.890   2.122   2.287 -0.3226 -0.2958  0.2026
 9088TIP3    H127228   1.924   2.050   2.233 -0.3252  0.3013 -0.6089
 9088TIP3    H227229   1.795   2.113   2.283 -0.4909  1.4981 -2.4317
 9089TIP3   OH227230   3.862   3.016   1.030  0.2856 -0.2554 -0.0724
 9089TIP3    H127231   3.939   3.027   0.975  2.0860 -0.0206  2.3092
 9089TIP3    H227232   3.897   2.980   1.112 -2.2585 -0.7929  0.8520
 9090TIP3   OH227233   6.160   2.461   2.524 -0.8581 -0.2492  0.2085
 9090TIP3    H127234   6.139   2.378   2.567  0.4974 -0.8047 -0.1449
 9090TIP3    H227235   6.125   2.452   2.436 -0.1241 -0.7418 -0.0449
 9091TIP3   OH227236   2.456   3.070   3.294 -0.7145 -0.3210 -0.1357
 9091TIP3    H127237   2.538   3.106   3.329  0.3247 -1.7557 -0.9765
 9091TIP3    H227238   2.457   3.094   3.201 -0.3876 -1.7720 -0.5265
 9092TIP3   OH227239   4.077   3.140   2.686 -0.5268  0.4847  0.2661
 9092TIP3    H127240   4.108   3.230   2.683 -1.8162  0.9938  1.0658
 9092TIP3    H227241   4.065   3.122   2.780 -0.3986 -0.4709  0.1098
 9093TIP3   OH227242   0.936   0.569   1.730 -0.1485  0.0380 -0.1374
 9093TIP3    H127243   1.031   0.580   1.738 -0.2085  0.2302  0.3430
 9093TIP3    H227244   0.913   0.508   1.800 -0.0170 -2.1183 -1.8882
 9094TIP3   OH227245   4.247   4.719   0.552 -0.2449 -0.2848  1.0809
 9094TIP3    H127246   4.324   4.774   0.566  0.5402 -0.9615 -0.3062
 9094TIP3    H227247   4.283   4.633   0.529 -1.3290 -0.2407 -1.1234
 9095TIP3   OH227248   7.222   5.267   1.873 -0.1515 -0.4743  0.5169
 9095TIP3    H127249   7.201   5.227   1.957 -2.7788 -1.4223 -0.5037
 9095TIP3    H227250   7.138   5.288   1.834  1.0226  1.0987 -1.3789
 9096TIP3   OH227251   0.364   6.652   5.047 -0.2256  0.4653 -0.8889
 9096TIP3    H127252   0.396   6.728   5.095  0.9095 -0.1589 -0.6447
 9096TIP3    H227253   0.293   6.617   5.102  1.4570 -0.6128  0.7237
 9097TIP3   OH227254   6.598   0.193   1.571  0.0366 -0.4280  0.4254
 9097TIP3    H127255   6.649   0.271   1.551 -0.5571  0.2127  1.2773
 9097TIP3    H227256   6.653   0.143   1.631  0.3808 -0.6146 -0.0465
 9098TIP3   OH227257   1.095   3.523   5.786  0.1365 -0.1683  0.9966
 9098TIP3    H127258   1.153   3.515   5.710 -1.8991 -0.0501 -0.6680
 9098TIP3    H227259   1.077   3.617   5.792 -3.3616 -0.4606 -1.4666
 9099TIP3   OH227260   6.250   2.079   0.234  0.1620  0.1442  0.1110
 9099TIP3    H127261   6.173   2.135   0.225  0.8985  1.1951  0.1667
 9099TIP3    H227262   6.290   2.080   0.147  0.4457  0.0945  0.2401
 9100TIP3   OH227263   1.509   3.687   5.018  0.2738  0.1202  0.0539
 9100TIP3    H127264   1.577   3.754   5.018 -0.2345  0.6613 -0.5983
 9100TIP3    H227265   1.450   3.713   4.946 -0.8174 -0.1145  0.8320
 9101TIP3   OH227266   1.274   5.840   4.586 -0.2150 -0.2196  0.5496
 9101TIP3    H127267   1.269   5.844   4.491 -1.2605 -1.2516  0.5482
 9101TIP3    H227268   1.251   5.929   4.614 -1.7632 -0.3946 -0.1054
 9102TIP3   OH227269   2.507   5.274   3.197 -0.2895  0.2298 -1.1927
 9102TIP3    H127270   2.412   5.278   3.202 -0.2400  0.1122  0.4444
 9102TIP3    H227271   2.538   5.346   3.251  0.5156 -1.3852  0.6482
 9103TIP3   OH227272   5.542   2.278   1.934  0.1109 -0.2098  0.0160
 9103TIP3    H127273   5.636   2.263   1.942  0.3069  1.3466  0.9086
 9103TIP3    H227274   5.523   2.260   1.842  0.8691 -2.5103  0.2382
 9104TIP3   OH227275   5.148   1.151   3.620 -0.3068  0.4569 -0.4984
 9104TIP3    H127276   5.100   1.234   3.615 -1.2924 -0.1477 -1.9983
 9104TIP3    H227277   5.151   1.120   3.529  0.7773 -0.7432 -0.0809
 9105TIP3   OH227278   3.495   4.865   0.061  0.4712  0.4845  0.1849
 9105TIP3    H127279   3.509   4.927  -0.010  0.7515  1.9507  1.4766
 9105TIP3    H227280   3.400   4.865   0.074  0.2993 -0.5660 -0.8062
 9106TIP3   OH227281   2.939   5.275   2.602  0.3890 -0.1048 -0.0606
 9106TIP3    H127282   2.947   5.354   2.548  1.1298 -1.8562 -2.6714
 9106TIP3    H227283   2.856   5.236   2.575  1.0344 -1.3001 -0.3573
 9107TIP3   OH227284   1.291   3.453   1.245  0.1858  0.3602 -0.2905
 9107TIP3    H127285   1.264   3.410   1.326  0.0379  0.3404 -0.3503
 9107TIP3    H227286   1.385   3.439   1.240 -0.0063 -0.8660 -0.8433
 9108TIP3   OH227287   5.313   2.824   3.757  0.1782  0.5320 -0.0873
 9108TIP3    H127288   5.236   2.768   3.749  0.3961  0.4839 -2.4365
 9108TIP3    H227289   5.385   2.770   3.724  0.6840  1.6254 -0.8087
 9109TIP3   OH227290   3.368   1.891   4.752  0.0822  0.1710 -0.3174
 9109TIP3    H127291   3.376   1.983   4.726  0.7181 -0.2017 -1.5150
 9109TIP3    H227292   3.392   1.842   4.674 -0.3323 -1.0256  0.2821
 9110TIP3   OH227293   6.005   6.399   4.646 -0.0093  0.9469  0.1162
 9110TIP3    H127294   5.992   6.394   4.741 -0.2899 -2.1523  0.0451
 9110TIP3    H227295   5.938   6.460   4.616 -1.0713  0.6875  1.7856
 9111TIP3   OH227296   2.526   1.767   1.840  0.3327 -0.6509  0.1886
 9111TIP3    H127297   2.552   1.688   1.793 -1.2566 -0.6399 -0.7749
 9111TIP3    H227298   2.465   1.736   1.908  0.1239 -0.3151  0.1574
 9112TIP3   OH227299   4.019   5.501   4.824  0.4140 -0.2054  0.3640
 9112TIP3    H127300   3.974   5.524   4.906 -0.6501 -1.0603  0.0354
 9112TIP3    H227301   4.112   5.499   4.848  0.3485  1.7891  1.0155
 9113TIP3   OH227302   3.724   4.560   1.007 -0.2438  0.8990  0.9478
 9113TIP3    H127303   3.692   4.528   1.092 -0.7582  1.7217  1.0735
 9113TIP3    H227304   3.798   4.616   1.028 -1.3391  2.3857  1.0095
 9114TIP3   OH227305   6.806   3.460   0.146 -0.4129  0.1909 -0.3311
 9114TIP3    H127306   6.833   3.480   0.056  0.2527 -0.6223 -0.3286
 9114TIP3    H227307   6.872   3.398   0.177  0.0927  1.4259  1.1694
 9115TIP3   OH227308   2.502   3.321   5.338 -0.3109  0.1089  0.2427
 9115TIP3    H127309   2.414   3.299   5.370 -0.7132  2.5876  1.1367
 9115TIP3    H227310   2.550   3.238   5.339 -1.9223 -0.8881  2.1327
 9116TIP3   OH227311   3.894   6.231   2.572  0.0303  0.0758  0.0255
 9116TIP3    H127312   3.902   6.257   2.664 -0.1936  0.5057 -0.0739
 9116TIP3    H227313   3.801   6.241   2.552  0.0588 -0.1262 -0.2161
 9117TIP3   OH227314   1.419   6.824   4.324  0.3806 -0.3014  0.0647
 9117TIP3    H127315   1.473   6.745   4.321  0.1726 -0.4701 -2.8706
 9117TIP3    H227316   1.332   6.794   4.297  0.0020  0.7351  0.1035
 9118TIP3   OH227317   6.262   4.565   5.158 -0.0587  0.4118 -0.5517
 9118TIP3    H127318   6.242   4.561   5.251 -2.1461 -0.7302 -0.9730
 9118TIP3    H227319   6.250   4.657   5.135 -0.9331  0.4692  0.0611
 9119TIP3   OH227320   5.506   2.328   4.463  0.2381  0.2707 -0.0997
 9119TIP3    H127321   5.542   2.248   4.426  0.6517 -0.7934  2.4402
 9119TIP3    H227322   5.567   2.397   4.436 -0.3370 -0.0942 -2.6491
 9120TIP3   OH227323   3.099   2.559   4.477 -0.3264 -0.2126  0.1393
 9120TIP3    H127324   3.158   2.511   4.536 -0.9104 -0.5488  0.4517
 9120TIP3    H227325   3.060   2.492   4.421  1.4110  0.2444 -1.7482
 9121TIP3   OH227326   5.047   0.129   4.227  0.7584  0.3268 -0.2088
 9121TIP3    H127327   5.014   0.215   4.254  0.4245 -0.1494  0.9962
 9121TIP3    H227328   5.027   0.072   4.302  1.8394 -0.5899 -0.5968
 9122TIP3   OH227329   0.094   4.822   2.033  0.2716  0.0299 -0.4010
 9122TIP3    H127330   0.109   4.739   2.077 -2.2309 -1.0108 -1.3308
 9122TIP3    H227331   0.180   4.847   1.998  1.1142 -2.0443  0.0774
 9123TIP3   OH227332   4.658   6.597   1.086  0.3522  0.1011  0.4598
 9123TIP3    H127333   4.620   6.579   1.001  0.6921 -1.0686  0.5300
 9123TIP3    H227334   4.753   6.590   1.072  0.4067 -0.2476  0.9523
 9124TIP3   OH227335   1.986   1.879   5.649  0.3486 -0.5737 -0.1581
 9124TIP3    H127336   1.994   1.813   5.717  3.0185  0.0597  0.2777
 9124TIP3    H227337   2.047   1.948   5.676  0.0411  0.5810 -2.2092
 9125TIP3   OH227338   3.271   0.895   0.700 -0.3247  0.4768  0.0232
 9125TIP3    H127339   3.324   0.920   0.624  0.2376  1.5724  0.7631
 9125TIP3    H227340   3.186   0.871   0.662 -0.1171  1.2169 -0.9415
 9126TIP3   OH227341   3.024   3.604   2.575 -0.5561  0.5127 -0.0742
 9126TIP3    H127342   2.936   3.610   2.613 -1.2213 -2.5553 -0.8743
 9126TIP3    H227343   3.048   3.695   2.557 -3.4711  1.4818  0.3096
 9127TIP3   OH227344   2.987   6.125   4.566  0.8809 -0.0527 -0.5105
 9127TIP3    H127345   2.951   6.133   4.478  0.0167 -0.7029 -0.2251
 9127TIP3    H227346   3.025   6.211   4.584 -1.5168  1.0617 -0.4104
 9128TIP3   OH227347   4.536   1.485   3.113  0.3235  0.7066 -0.3233
 9128TIP3    H127348   4.483   1.427   3.167  0.4449  1.1205  0.2517
 9128TIP3    H227349   4.476   1.515   3.044  0.5964 -1.0928 -1.4078
 9129TIP3   OH227350   5.676   3.307   4.139 -0.7453  0.1196 -0.0776
 9129TIP3    H127351   5.631   3.252   4.075  0.7058 -0.1952 -0.8596
 9129TIP3    H227352   5.634   3.393   4.130 -1.0528 -0.1086 -0.9270
 9130TIP3   OH227353   3.538   1.381   0.118 -0.2556  0.5440  0.2739
 9130TIP3    H127354   3.480   1.305   0.124 -2.2842  1.9819  0.1192
 9130TIP3    H227355   3.560   1.402   0.209  0.6715 -0.4647  0.2914
 9131TIP3   OH227356   6.246   1.899   5.644 -0.1765  0.1263  0.4813
 9131TIP3    H127357   6.154   1.878   5.658 -0.2834 -0.0635 -0.4797
 9131TIP3    H227358   6.256   1.906   5.549  0.6175  0.9938  0.6122
 9132TIP3   OH227359   3.318   1.218   5.314 -0.1542  0.1493  0.3562
 9132TIP3    H127360   3.258   1.264   5.373  0.5922 -1.1010  2.2004
 9132TIP3    H227361   3.398   1.208   5.365  0.3711 -1.4048 -0.6993
 9133TIP3   OH227362   0.345   4.867   1.915 -0.1690  0.3446 -0.1531
 9133TIP3    H127363   0.357   4.962   1.916 -0.5337  0.4063 -0.9619
 9133TIP3    H227364   0.425   4.833   1.953  2.0396  0.7931 -3.9717
 9134TIP3   OH227365   6.150   1.478   1.730 -0.0988 -0.3122 -0.0519
 9134TIP3    H127366   6.059   1.508   1.735  0.5407  1.4528  3.1451
 9134TIP3    H227367   6.144   1.383   1.734 -1.8448 -0.4030 -2.5584
 9135TIP3   OH227368   1.660   0.503   3.149  0.8941 -0.3252 -0.4971
 9135TIP3    H127369   1.587   0.502   3.210 -0.6140  0.2295 -2.1928
 9135TIP3    H227370   1.679   0.410   3.133  1.2799 -0.4756  0.7207
 9136TIP3   OH227371   0.988   0.518   1.364 -0.4010  0.0941  0.4236
 9136TIP3    H127372   0.950   0.562   1.288  1.7363 -0.6184 -1.1576
 9136TIP3    H227373   1.046   0.584   1.403 -1.2111  0.3368  1.2553
 9137TIP3   OH227374   3.449   3.817   0.621 -0.0742  0.3022 -0.4337
 9137TIP3    H127375   3.530   3.766   0.618 -0.2611 -0.2129  1.6443
 9137TIP3    H227376   3.472   3.902   0.583  1.0207 -0.3349 -1.2416
 9138TIP3   OH227377   3.836   5.112   2.401 -0.5203  0.0743 -0.6789
 9138TIP3    H127378   3.823   5.031   2.351  0.2473 -0.6230  0.2201
 9138TIP3    H227379   3.844   5.083   2.492  0.5755  1.0915 -0.4344
 9139TIP3   OH227380   4.437   4.631   1.091  0.1798  0.0760  0.2411
 9139TIP3    H127381   4.504   4.565   1.073  0.4358  0.2217  0.6432
 9139TIP3    H227382   4.468   4.676   1.170  0.5202  1.3603 -0.5893
 9140TIP3   OH227383   0.895   6.415   3.500  0.2949 -0.4151 -0.1927
 9140TIP3    H127384   0.990   6.414   3.508  0.1776  1.4150  3.8642
 9140TIP3    H227385   0.863   6.362   3.573 -1.6525  2.6026  1.4062
 9141TIP3   OH227386   2.231   5.341   3.120 -0.0937  0.0345 -0.0613
 9141TIP3    H127387   2.275   5.425   3.107 -1.8861  1.2309  1.1191
 9141TIP3    H227388   2.252   5.291   3.041  1.8326  1.1973 -0.3480
 9142TIP3   OH227389   6.645   4.075   1.606 -0.5486 -0.1734 -0.0995
 9142TIP3    H127390   6.586   4.141   1.642 -0.1020  0.3703 -0.3596
 9142TIP3    H227391   6.729   4.091   1.649  0.2930  1.1660 -2.1082
 9143TIP3   OH227392   5.875   3.653   0.536 -0.4218  0.0350 -0.9182
 9143TIP3    H127393   5.792   3.700   0.542 -0.5509 -0.1905 -0.9219
 9143TIP3    H227394   5.942   3.722   0.538 -0.6382  0.3275 -2.2770
 9144TIP3   OH227395   5.990   4.339   2.690  0.3191 -0.0456  0.2317
 9144TIP3    H127396   6.021   4.295   2.611 -0.3367  0.3097 -0.2311
 9144TIP3    H227397   6.062   4.329   2.753  0.0371 -2.1194  0.2963
 9145TIP3   OH227398   4.619   2.626   1.614  0.8270 -0.3214 -0.0097
 9145TIP3    H127399   4.592   2.619   1.522 -0.0181  1.4064  0.0666
 9145TIP3    H227400   4.539   2.607   1.664  1.4920 -2.2075  0.4519
 9146TIP3   OH227401   6.755   2.264   1.345 -0.5770 -0.2959  0.2919
 9146TIP3    H127402   6.818   2.331   1.322  1.3481 -1.5705  1.5568
 9146TIP3    H227403   6.697   2.258   1.269 -0.6069  2.4915  0.0099
 9147TIP3   OH227404   6.739   3.473   3.334 -0.1564 -0.2737 -0.1162
 9147TIP3    H127405   6.804   3.452   3.401 -0.5151 -1.6493 -0.1670
 9147TIP3    H227406   6.657   3.436   3.368 -0.5795  0.0622 -0.7625
 9148TIP3   OH227407   4.721   5.738   2.730  0.0767 -0.2488  0.1018
 9148TIP3    H127408   4.807   5.749   2.769  0.2500  2.9949 -0.9168
 9148TIP3    H227409   4.718   5.645   2.704  2.6092 -0.8114  1.4923
 9149TIP3   OH227410   3.088   2.448   1.569  0.0333 -0.4632  0.6746
 9149TIP3    H127411   3.115   2.361   1.538  0.2391 -0.7919  1.7399
 9149TIP3    H227412   3.171   2.495   1.581 -0.0955  0.0808 -0.4028
 9150TIP3   OH227413   1.927   2.530   3.748 -0.1216  0.2252  0.0493
 9150TIP3    H127414   1.997   2.465   3.743 -0.3861 -0.1058  0.5557
 9150TIP3    H227415   1.964   2.602   3.800 -0.0159  0.2375 -0.0427
 9151TIP3   OH227416   0.847   3.771   4.810 -0.4693 -0.0627  0.1225
 9151TIP3    H127417   0.830   3.677   4.814  0.1764 -0.1867 -0.0343
 9151TIP3    H227418   0.885   3.793   4.895 -2.6601  0.4874  1.0406
 9152TIP3   OH227419   1.157   2.039   0.962  0.2620 -0.1034 -0.1438
 9152TIP3    H127420   1.202   2.123   0.950  0.1492 -0.0880 -0.4685
 9152TIP3    H227421   1.211   1.992   1.026  0.3419  0.2033  0.0152
 9153TIP3   OH227422   0.245   0.600   4.256  0.7129  0.4330 -0.5476
 9153TIP3    H127423   0.297   0.520   4.255  0.7151  0.3363  1.9957
 9153TIP3    H227424   0.309   0.670   4.241  0.9423  0.0875 -1.2316
 9154TIP3   OH227425   2.772   1.517   4.097  0.2476  0.1180  0.4462
 9154TIP3    H127426   2.709   1.477   4.037  0.2540  0.4363  0.2262
 9154TIP3    H227427   2.719   1.571   4.155  0.4655  1.7389 -0.8087
 9155TIP3   OH227428   3.213   4.535   5.721 -0.4743  0.3835 -0.1172
 9155TIP3    H127429   3.260   4.478   5.660  1.9879 -0.1773  2.1225
 9155TIP3    H227430   3.224   4.623   5.685  0.4322  0.0105 -0.7908
 9156TIP3   OH227431   6.379   1.480   5.828  0.6841  0.0490  0.4898
 9156TIP3    H127432   6.334   1.432   5.759  1.0897  1.0003 -0.4703
 9156TIP3    H227433   6.347   1.441   5.910  0.1828 -1.0819 -0.2273
 9157TIP3   OH227434   5.500   2.078   5.830 -0.0302 -0.1754  0.5213
 9157TIP3    H127435   5.592   2.105   5.834  0.1143 -0.4513 -0.6746
 9157TIP3    H227436   5.463   2.128   5.756 -0.5431 -0.9324  0.2507
 9158TIP3   OH227437   1.641   5.553   3.088 -0.2745 -0.4422  0.2705
 9158TIP3    H127438   1.689   5.481   3.047  0.8572  0.8221 -0.7275
 9158TIP3    H227439   1.707   5.598   3.141 -1.0535 -0.3263  1.1636
 9159TIP3   OH227440   3.324   5.096   4.848 -0.1479  0.1102  0.0538
 9159TIP3    H127441   3.344   5.052   4.765 -2.3503 -1.7021  0.3791
 9159TIP3    H227442   3.402   5.147   4.867  1.4073 -1.3549 -1.8974
 9160TIP3   OH227443   6.819   2.031   3.921 -0.0633  0.7725 -0.9206
 9160TIP3    H127444   6.910   2.042   3.892  0.0027 -0.8799 -1.4431
 9160TIP3    H227445   6.826   1.986   4.005 -0.3935  0.2284 -1.1791
 9161TIP3   OH227446   5.619   0.247   3.360  0.0849  0.2929  0.3134
 9161TIP3    H127447   5.644   0.184   3.292  0.0765  0.2757  0.3263
 9161TIP3    H227448   5.690   0.243   3.424  0.4464  0.8254 -0.0431
 9162TIP3   OH227449   5.120   2.555   0.672 -0.4862 -0.0601 -0.0210
 9162TIP3    H127450   5.102   2.467   0.705 -2.6651  0.5710  0.6600
 9162TIP3    H227451   5.170   2.598   0.741 -0.7615 -0.2870  0.3196
 9163TIP3   OH227452   0.960   4.137   3.566  0.8049 -0.8313  0.2556
 9163TIP3    H127453   0.901   4.204   3.600 -0.3322 -1.0795 -1.1089
 9163TIP3    H227454   1.043   4.183   3.551  0.3267  0.0361  0.2360
 9164TIP3   OH227455   2.127   6.152   4.366 -0.0699  0.1416 -0.3748
 9164TIP3    H127456   2.212   6.134   4.326  0.3307 -0.3599  0.6841
 9164TIP3    H227457   2.071   6.080   4.337  0.3150 -0.4098  0.2227
 9165TIP3   OH227458   6.145   1.881   4.712 -0.6705  0.1273  0.4435
 9165TIP3    H127459   6.202   1.918   4.780 -1.1825  1.1693  0.3242
 9165TIP3    H227460   6.196   1.885   4.632  0.0255 -1.3224  0.7819
 9166TIP3   OH227461   1.844   0.464   2.172 -0.7407  0.5295  0.0306
 9166TIP3    H127462   1.937   0.486   2.172 -0.4936 -0.2291 -2.0006
 9166TIP3    H227463   1.840   0.377   2.213 -0.2085 -0.4050 -1.7849
 9167TIP3   OH227464   1.457   2.246   1.385 -0.2958  0.0881 -0.7861
 9167TIP3    H127465   1.473   2.275   1.295 -2.8668 -0.2424 -1.4270
 9167TIP3    H227466   1.364   2.220   1.386 -0.1846 -0.4896  1.8123
 9168TIP3   OH227467   6.361   2.638   0.060  0.1565 -0.1541 -0.3573
 9168TIP3    H127468   6.457   2.645   0.063  0.1900 -0.9486  1.2564
 9168TIP3    H227469   6.335   2.704  -0.004  1.7036  0.8635 -0.0140
 9169TIP3   OH227470   2.151   6.035   3.824  0.4145 -0.2839  0.0176
 9169TIP3    H127471   2.161   5.988   3.742  2.7114  0.2305 -0.0614
 9169TIP3    H227472   2.216   5.995   3.882 -0.6579 -0.1376  1.3644
 9170TIP3   OH227473   0.438   2.843   1.206  0.3721 -0.1730  0.4325
 9170TIP3    H127474   0.363   2.789   1.232 -0.2992  0.8517  0.6750
 9170TIP3    H227475   0.514   2.786   1.218 -0.1769 -0.5956  2.0786
 9171TIP3   OH227476   5.957   4.907   1.011 -0.0322 -0.0920 -0.2538
 9171TIP3    H127477   5.944   4.817   0.980 -0.2734 -0.7208  1.5208
 9171TIP3    H227478   5.874   4.951   0.994 -0.5449 -0.7435  0.4640
 9172TIP3   OH227479   2.277   3.037   0.050  0.7953  0.1610 -0.3707
 9172TIP3    H127480   2.218   3.112   0.042  1.1006  0.4217 -0.2123
 9172TIP3    H227481   2.314   3.045   0.138  0.6076 -0.3409 -0.2458
 9173TIP3   OH227482   6.481   4.236   1.080  0.2253  0.0688  0.5436
 9173TIP3    H127483   6.523   4.184   1.011  0.2028  1.9441 -0.9557
 9173TIP3    H227484   6.532   4.216   1.159  1.0699 -1.1605 -0.2702
 9174TIP3   OH227485   6.028   5.547   1.620  0.2313  0.6913 -0.2215
 9174TIP3    H127486   6.058   5.475   1.565  0.2598  1.7867 -1.6955
 9174TIP3    H227487   6.104   5.568   1.675 -0.3951 -1.7126  1.7985
 9175TIP3   OH227488   0.657   0.319   2.011 -0.3430 -0.1180  0.5995
 9175TIP3    H127489   0.656   0.250   1.945  0.9307 -0.1985  0.6387
 9175TIP3    H227490   0.579   0.371   1.992 -0.1743 -0.3281 -0.7585
 9176TIP3   OH227491   5.500   4.450   4.766 -0.1046  0.0259 -0.0438
 9176TIP3    H127492   5.525   4.402   4.687 -1.0851 -0.0825 -0.3000
 9176TIP3    H227493   5.489   4.540   4.737  0.0125  0.0796  0.0753
 9177TIP3   OH227494   5.688   3.908   3.296  0.3476  0.3896 -0.2742
 9177TIP3    H127495   5.754   3.862   3.348 -0.1223  1.6301  1.5044
 9177TIP3    H227496   5.648   3.839   3.242 -0.4951 -1.4072  2.4200
 9178TIP3   OH227497   5.472   6.194   0.219  0.5361  0.1786  0.4324
 9178TIP3    H127498   5.433   6.235   0.142  1.9110 -1.6226 -1.3286
 9178TIP3    H227499   5.565   6.218   0.215  0.8827 -1.0256  0.7433
 9179TIP3   OH227500   5.631   4.701   5.480 -0.2347  0.2276 -0.3537
 9179TIP3    H127501   5.652   4.773   5.539  0.7340  0.3914 -0.8816
 9179TIP3    H227502   5.706   4.696   5.420 -1.1924  0.0910 -1.5914
 9180TIP3   OH227503   4.174   0.132   2.419  0.0295  0.2945  0.0354
 9180TIP3    H127504   4.139   0.097   2.337 -0.8649  1.5432 -0.1486
 9180TIP3    H227505   4.110   0.198   2.446  0.1783 -0.2692  1.8877
 9181TIP3   OH227506   0.062   3.691   5.866 -0.1099 -0.1008  0.3805
 9181TIP3    H127507  -0.011   3.703   5.927 -1.8239  0.7708 -1.6991
 9181TIP3    H227508   0.053   3.601   5.834 -2.3361  0.8961 -2.1938
 9182TIP3   OH227509   1.371   6.604   1.648 -0.1915 -0.3732  0.0282
 9182TIP3    H127510   1.333   6.556   1.721  2.2206 -1.6906  0.5145
 9182TIP3    H227511   1.384   6.539   1.579 -0.1318  0.3444 -0.6640
 9183TIP3   OH227512   5.043   5.355   4.489  0.2855  0.0036  1.4215
 9183TIP3    H127513   5.092   5.313   4.418  0.9112  1.9339  0.6547
 9183TIP3    H227514   4.968   5.297   4.503  0.7130 -0.9859 -0.0779
 9184TIP3   OH227515   1.952   6.293   5.376  0.3257  0.6374  0.3606
 9184TIP3    H127516   1.958   6.200   5.397 -2.7100  0.0510 -0.9185
 9184TIP3    H227517   2.016   6.306   5.306  0.5372 -0.5687  0.3151
 9185TIP3   OH227518   4.302   5.700   2.072 -0.3981 -0.2021  0.0644
 9185TIP3    H127519   4.263   5.656   2.148 -1.1080  0.7510  0.2729
 9185TIP3    H227520   4.233   5.758   2.039  0.8452  1.6770  0.5528
 9186TIP3   OH227521   3.262   3.489   0.536 -0.0208 -0.6318 -0.3715
 9186TIP3    H127522   3.341   3.452   0.576  0.5511  0.9261  0.0302
 9186TIP3    H227523   3.193   3.476   0.601  1.1107  2.7975  1.8017
 9187TIP3   OH227524   5.750   0.509   3.078 -0.0981 -0.6390  0.1287
 9187TIP3    H127525   5.761   0.467   2.993  0.4263 -0.8339  0.2848
 9187TIP3    H227526   5.698   0.587   3.061 -0.1975 -0.8094 -0.3319
 9188TIP3   OH227527   1.355   4.270   3.119  0.2365  0.4620 -0.1000
 9188TIP3    H127528   1.370   4.185   3.159 -0.8422  0.6002  0.6385
 9188TIP3    H227529   1.308   4.320   3.185  0.7720  1.6112 -0.5543
 9189TIP3   OH227530   5.214   5.473   0.822 -0.7381  0.1244  0.6480
 9189TIP3    H127531   5.201   5.378   0.827 -0.1710  0.0537  0.7846
 9189TIP3    H227532   5.152   5.509   0.885 -0.3577 -0.2072  1.2186
 9190TIP3   OH227533   0.355   1.043   3.954  0.0159  0.0363 -0.5160
 9190TIP3    H127534   0.418   1.053   3.882  0.7745 -2.1020 -0.2241
 9190TIP3    H227535   0.359   1.126   4.001 -0.0997  1.3015 -2.5932
 9191TIP3   OH227536   3.104   5.669   0.511 -0.3367 -0.0502 -0.5216
 9191TIP3    H127537   3.130   5.755   0.478 -1.5707  0.8438  0.6955
 9191TIP3    H227538   3.076   5.621   0.433 -1.1279  1.2188 -1.0597
 9192TIP3   OH227539   5.460   4.676   1.579 -0.0028 -0.1413  0.0395
 9192TIP3    H127540   5.554   4.654   1.584  0.0560  0.2064  0.5122
 9192TIP3    H227541   5.416   4.591   1.578  0.3407 -0.3158 -0.6492
 9193TIP3   OH227542   6.016   1.360   0.796  0.0220 -0.1606 -0.5139
 9193TIP3    H127543   5.949   1.295   0.781 -1.0597  0.4963  1.1264
 9193TIP3    H227544   5.970   1.444   0.790  0.5039  0.2742  1.2921
 9194TIP3   OH227545   6.134   4.131   2.619 -0.5262  0.1628 -0.5707
 9194TIP3    H127546   6.134   4.059   2.556 -0.4179  0.7526 -1.2662
 9194TIP3    H227547   6.220   4.127   2.660 -0.7159 -0.4255 -0.2194
 9195TIP3   OH227548   6.118   6.635   2.324  0.2792 -0.4554 -0.1669
 9195TIP3    H127549   6.087   6.597   2.407 -1.1135 -1.0785 -0.9323
 9195TIP3    H227550   6.165   6.714   2.350 -0.5374 -0.3810  1.1946
 9196TIP3   OH227551   4.221   1.991   2.679 -0.1893 -0.8202 -0.5433
 9196TIP3    H127552   4.211   2.086   2.673  1.0225 -0.6347 -0.0142
 9196TIP3    H227553   4.206   1.971   2.771 -1.5780 -1.3124 -0.8550
 9197TIP3   OH227554   2.884   5.278   4.038  0.3430 -0.2769  0.0543
 9197TIP3    H127555   2.925   5.364   4.045 -0.7458  0.3609 -0.9833
 9197TIP3    H227556   2.817   5.277   4.106  0.1717 -0.1865 -0.1109
 9198TIP3   OH227557   2.215   3.026   3.764 -0.4699  0.0554  0.0292
 9198TIP3    H127558   2.156   3.059   3.696 -0.4765  0.4841  0.2394
 9198TIP3    H227559   2.293   2.998   3.716 -0.8982 -0.6519 -0.2639
 9199TIP3   OH227560   5.854   2.244   5.256 -0.1393  0.2942  0.1704
 9199TIP3    H127561   5.867   2.263   5.163  0.2806  0.2796  0.2234
 9199TIP3    H227562   5.888   2.156   5.268  0.2417  0.4726  0.4295
 9200TIP3   OH227563   4.399   0.154   2.557 -0.2236  0.1275 -0.4272
 9200TIP3    H127564   4.456   0.188   2.488  0.0703  0.0307 -0.2333
 9200TIP3    H227565   4.318   0.130   2.512 -0.3572  0.8728 -0.6097
 9201TIP3   OH227566   3.335   3.079   4.955 -0.8207 -0.5526 -0.2755
 9201TIP3    H127567   3.275   3.045   5.022 -0.7052  0.2332  0.2377
 9201TIP3    H227568   3.350   3.170   4.980  0.8815 -0.8204 -0.1720
 9202TIP3   OH227569   0.850   1.852   4.500 -0.2549  0.3341 -0.5600
 9202TIP3    H127570   0.867   1.934   4.454 -0.4983  0.4001 -0.5350
 9202TIP3    H227571   0.936   1.814   4.515 -0.2079 -0.1318 -1.8756
 9203TIP3   OH227572   2.693   0.315   3.173  0.3034 -0.0059 -0.1681
 9203TIP3    H127573   2.706   0.247   3.239 -0.1600  0.1669  0.1063
 9203TIP3    H227574   2.607   0.352   3.193 -0.5020 -0.9274 -1.7356
 9204TIP3   OH227575   4.047   0.336   1.258  0.0708  0.0584 -0.4447
 9204TIP3    H127576   4.056   0.313   1.351 -0.2679  1.3733 -0.0637
 9204TIP3    H227577   4.126   0.386   1.238 -0.5221  1.0200 -0.4499
 9205TIP3   OH227578   2.798   1.554   4.627 -0.1898 -0.0574  0.3526
 9205TIP3    H127579   2.835   1.636   4.660 -1.4666  0.0098  1.7060
 9205TIP3    H227580   2.802   1.494   4.701 -1.3777 -0.5064  0.0697
 9206TIP3   OH227581   1.801   5.976   1.766  0.9255 -0.4569  0.6822
 9206TIP3    H127582   1.760   5.933   1.691  0.5630  1.3641 -0.2352
 9206TIP3    H227583   1.884   6.010   1.731  0.7321  0.4416  1.0663
 9207TIP3   OH227584   1.763   0.496   0.234  0.2177 -0.4621 -0.1742
 9207TIP3    H127585   1.777   0.401   0.234 -1.6810 -0.8166  1.3892
 9207TIP3    H227586   1.680   0.507   0.281 -0.4607  1.8686 -1.7646
 9208TIP3   OH227587   1.896   2.565   4.161  0.5998  0.2779  0.1572
 9208TIP3    H127588   1.929   2.609   4.239  0.4520  0.7435 -0.0378
 9208TIP3    H227589   1.856   2.485   4.194  1.2735  0.0562  0.4721
 9209TIP3   OH227590   3.613   3.250   4.063 -0.4732  0.5623 -0.2665
 9209TIP3    H127591   3.612   3.276   4.155 -0.3478 -0.4420  0.0203
 9209TIP3    H227592   3.538   3.191   4.053  0.2928 -0.3891 -0.4944
 9210TIP3   OH227593   7.168   3.739   2.921  0.1667 -0.2399  0.2268
 9210TIP3    H127594   7.123   3.742   2.837 -0.3475  1.6286  0.5250
 9210TIP3    H227595   7.223   3.660   2.917 -1.8004 -1.6151 -0.8104
 9211TIP3   OH227596   4.805   0.293   0.556 -0.3160  0.8220  0.7074
 9211TIP3    H127597   4.839   0.372   0.599 -0.5958  0.3570  1.8288
 9211TIP3    H227598   4.883   0.237   0.544 -0.3497  0.6230  1.3638
 9212TIP3   OH227599   4.328   4.523   1.359 -0.2180 -0.0952 -0.3256
 9212TIP3    H127600   4.330   4.500   1.452  0.0070 -0.4601 -0.4210
 9212TIP3    H227601   4.362   4.613   1.356 -0.7253  0.1113  0.0001
 9213TIP3   OH227602   6.990   4.877   2.829 -0.5380  0.3032  1.1056
 9213TIP3    H127603   7.007   4.831   2.911 -0.3467 -0.4988  0.6271
 9213TIP3    H227604   6.902   4.849   2.804  0.4747 -1.7884 -0.4297
 9214TIP3   OH227605   3.651   0.443   4.376 -0.2074 -0.1142  0.3609
 9214TIP3    H127606   3.634   0.513   4.313 -0.1435 -0.6792 -0.2913
 9214TIP3    H227607   3.606   0.367   4.340  1.5987 -1.0040 -0.1224
 9215TIP3   OH227608   6.351   5.697   2.379 -0.2658  0.0959  0.1405
 9215TIP3    H127609   6.390   5.752   2.447 -0.6077  1.0207 -0.3997
 9215TIP3    H227610   6.419   5.691   2.312 -0.2260 -0.1528  0.2023
 9216TIP3   OH227611   4.832   3.703   0.930  0.3787  0.9961  0.2448
 9216TIP3    H127612   4.797   3.753   0.857 -0.6654 -0.1737 -0.0813
 9216TIP3    H227613   4.756   3.662   0.971  1.2542 -1.3696 -0.2985
 9217TIP3   OH227614   0.606   4.813   2.441  0.5236 -0.1788 -0.6690
 9217TIP3    H127615   0.605   4.725   2.480  0.2716  0.8557  1.8510
 9217TIP3    H227616   0.514   4.837   2.435  0.6074  0.0505 -1.0873
 9218TIP3   OH227617   2.680   0.717   3.693  0.1199 -0.0895  0.2232
 9218TIP3    H127618   2.618   0.762   3.636 -1.9727 -2.8832  0.0808
 9218TIP3    H227619   2.756   0.699   3.637 -1.0760 -1.0145 -1.1951
 9219TIP3   OH227620   7.171   4.053   2.365  0.1488 -0.4493 -0.1615
 9219TIP3    H127621   7.081   4.047   2.331  0.5411 -0.5479 -1.2068
 9219TIP3    H227622   7.174   3.987   2.434 -1.3613  1.3425  1.7490
 9220TIP3   OH227623   3.503   0.500   3.833 -0.0633  0.3410 -0.2617
 9220TIP3    H127624   3.466   0.584   3.804  0.9793  0.9267  0.0301
 9220TIP3    H227625   3.598   0.512   3.824  0.2657  0.1312  2.2335
 9221TIP3   OH227626   3.842   1.480   3.712  0.9370 -0.3524  0.0508
 9221TIP3    H127627   3.819   1.509   3.801  0.1328  0.4804 -0.4088
 9221TIP3    H227628   3.924   1.433   3.723  1.1046  0.1595  1.1770
 9222TIP3   OH227629   4.495   3.911   2.480  0.1189  0.0526 -0.0858
 9222TIP3    H127630   4.546   3.889   2.402  1.1822 -0.9630  0.8561
 9222TIP3    H227631   4.421   3.962   2.447  0.9369  0.2697 -1.6626
 9223TIP3   OH227632   3.202   4.471   1.740  0.1423  0.1607  0.6057
 9223TIP3    H127633   3.145   4.547   1.725  0.1157  0.0086 -0.0966
 9223TIP3    H227634   3.141   4.398   1.752  0.1641  0.2871  1.5077
 9224TIP3   OH227635   2.168   2.623   5.178  0.1054 -0.2065  0.1202
 9224TIP3    H127636   2.216   2.631   5.261  0.4602 -0.2129 -0.0802
 9224TIP3    H227637   2.100   2.691   5.183  0.0557 -0.2798  0.4618
 9225TIP3   OH227638   3.923   2.236   1.806 -0.2164  0.5096  0.0802
 9225TIP3    H127639   3.965   2.241   1.892 -2.3207 -0.9861  1.2846
 9225TIP3    H227640   3.929   2.143   1.782 -1.5323  0.5199 -0.3659
 9226TIP3   OH227641   2.741   0.248   0.242  0.0948 -0.3282  0.0116
 9226TIP3    H127642   2.747   0.288   0.329  2.4345  1.6903 -0.9469
 9226TIP3    H227643   2.818   0.192   0.236 -1.7391 -3.0875  0.3158
 9227TIP3   OH227644   5.881   1.256   4.753  0.2824 -0.4055 -0.0337
 9227TIP3    H127645   5.906   1.178   4.803 -0.4389 -1.0647 -0.6712
 9227TIP3    H227646   5.817   1.300   4.809  0.4143 -0.4690  0.1691
 9228TIP3   OH227647   1.349   2.631   3.069  0.4645 -0.0563 -0.2467
 9228TIP3    H127648   1.273   2.595   3.023  0.3580  0.8888 -0.8385
 9228TIP3    H227649   1.370   2.566   3.137 -1.5207  0.1466  0.6224
 9229TIP3   OH227650   5.413   3.702   0.408 -0.3789 -0.0357 -0.1214
 9229TIP3    H127651   5.422   3.609   0.388 -0.3782 -0.2135  0.6752
 9229TIP3    H227652   5.364   3.738   0.334 -0.2109 -0.6293 -0.5297
 9230TIP3   OH227653   3.028   4.381   2.679 -0.6869 -0.1506  0.0235
 9230TIP3    H127654   3.006   4.474   2.686  0.7388  0.1700  0.7561
 9230TIP3    H227655   3.011   4.359   2.588 -0.8390  0.8885 -0.2148
 9231TIP3   OH227656   2.492   0.579   4.552 -0.1358 -0.0023  0.0596
 9231TIP3    H127657   2.493   0.499   4.500  1.6968 -0.8805  1.3320
 9231TIP3    H227658   2.401   0.587   4.582 -0.2264 -2.0053  0.4745
 9232TIP3   OH227659   3.515   3.628   0.955  0.0104 -0.2795  0.8678
 9232TIP3    H127660   3.571   3.574   0.899 -2.2520 -0.3101 -1.5704
 9232TIP3    H227661   3.572   3.701   0.981  1.0048  0.3164 -2.4311
 9233TIP3   OH227662   3.140   5.943   2.223 -0.2492  0.6047  0.0171
 9233TIP3    H127663   3.209   5.878   2.207 -0.1006  0.6967  0.2817
 9233TIP3    H227664   3.130   5.945   2.318 -0.2687  0.9535  0.0095
 9234TIP3   OH227665   4.091   5.136   3.806  0.6445 -0.0996  0.7000
 9234TIP3    H127666   4.115   5.059   3.857 -1.8560 -0.7421  1.0559
 9234TIP3    H227667   4.017   5.175   3.854  0.0963  0.9399 -0.8869
 9235TIP3   OH227668   3.098   5.652   2.393 -0.0404  0.4230 -0.0669
 9235TIP3    H127669   3.038   5.718   2.427 -0.2519  0.1085  0.1813
 9235TIP3    H227670   3.155   5.700   2.334  0.1196  0.9197  0.4771
 9236TIP3   OH227671   5.854   1.609   3.017 -0.3883  0.4948 -0.1975
 9236TIP3    H127672   5.897   1.567   2.942 -2.3474 -0.0025 -1.1061
 9236TIP3    H227673   5.868   1.702   3.003 -3.0641  0.6453 -2.8230
 9237TIP3   OH227674   5.928   3.282   2.688  0.1627  0.1882  0.4247
 9237TIP3    H127675   5.957   3.356   2.741 -0.8017 -1.1707  3.0669
 9237TIP3    H227676   5.905   3.215   2.752 -0.6463 -1.7936 -1.7942
 9238TIP3   OH227677   1.805   6.173   5.711  0.4776  0.4470 -0.3460
 9238TIP3    H127678   1.892   6.140   5.688  0.6099  1.1016 -0.8210
 9238TIP3    H227679   1.746   6.127   5.652  0.4807 -0.0911  0.0610
 9239TIP3   OH227680   5.272   3.006   3.399  0.1610  0.0386  0.2617
 9239TIP3    H127681   5.272   3.090   3.354  0.0423  0.0353  0.2561
 9239TIP3    H227682   5.180   2.980   3.403 -0.0818  1.0181  2.3834
 9240TIP3   OH227683   0.985   3.832   5.776  0.6635 -0.7911 -0.4202
 9240TIP3    H127684   0.956   3.894   5.710 -0.1040 -1.8257 -1.0796
 9240TIP3    H227685   1.012   3.887   5.850 -1.2509  0.3018 -0.4692
 9241TIP3   OH227686   5.920   0.067   4.385 -0.0204  0.0080 -0.5560
 9241TIP3    H127687   5.842   0.023   4.354  0.0781 -0.7696  0.2686
 9241TIP3    H227688   5.888   0.134   4.445 -0.0001 -2.1253  2.0222
 9242TIP3   OH227689   6.140   4.271   0.643  0.2532  0.4491  0.0841
 9242TIP3    H127690   6.138   4.324   0.723  1.2971 -0.0416  0.4542
 9242TIP3    H227691   6.214   4.212   0.655 -1.0692 -1.3592 -0.1418
 9243TIP3   OH227692   1.278   6.264   5.031  0.2085 -0.4475 -0.4101
 9243TIP3    H127693   1.326   6.345   5.013  1.3664 -0.6167  1.6470
 9243TIP3    H227694   1.189   6.281   5.001  0.6921  1.1757 -1.0286
 9244TIP3   OH227695   1.356   4.906   0.373 -0.1511  0.1439  0.1782
 9244TIP3    H127696   1.414   4.977   0.347 -1.8172  1.7520  0.7155
 9244TIP3    H227697   1.317   4.876   0.291  0.5265 -0.1604 -0.0431
 9245TIP3   OH227698   6.434   4.898   1.551 -0.6317  0.1783  0.2539
 9245TIP3    H127699   6.407   4.822   1.602  0.1821 -2.0774 -2.4524
 9245TIP3    H227700   6.527   4.907   1.568 -1.0012  1.6964  1.8132
 9246TIP3   OH227701   5.939   6.757   2.155  0.3447  0.2413 -0.5254
 9246TIP3    H127702   5.961   6.664   2.145  3.1562  0.5666  1.3274
 9246TIP3    H227703   5.910   6.765   2.246  0.1054  1.1874 -0.6714
 9247TIP3   OH227704   1.668   0.528   3.545  0.3400  0.3003  0.0240
 9247TIP3    H127705   1.743   0.505   3.599  0.1669 -1.3821 -0.3901
 9247TIP3    H227706   1.706   0.558   3.462  0.5716 -0.0577 -0.0027
 9248TIP3   OH227707   2.181   5.680   3.897  0.4553 -0.1899  0.0232
 9248TIP3    H127708   2.211   5.711   3.811  0.0718 -0.4507 -0.2028
 9248TIP3    H227709   2.261   5.647   3.939  0.4163 -1.3828 -0.7870
 9249TIP3   OH227710   3.848   5.330   4.359  0.0889 -0.0719 -0.2229
 9249TIP3    H127711   3.910   5.290   4.298  0.1030 -1.1215  0.4453
 9249TIP3    H227712   3.772   5.272   4.357 -0.5449  0.7455 -0.4063
 9250TIP3   OH227713   0.298   3.034   3.800 -0.0038 -0.2977  0.9421
 9250TIP3    H127714   0.379   2.990   3.775 -1.4207 -2.5855  0.0758
 9250TIP3    H227715   0.248   2.966   3.846 -2.6294  0.1096 -1.1280
 9251TIP3   OH227716   6.464   4.170   4.191  0.3324 -0.0876  0.4237
 9251TIP3    H127717   6.541   4.114   4.177 -1.4467 -2.8813  1.0899
 9251TIP3    H227718   6.414   4.162   4.109  0.7540  1.8240 -0.0592
 9252TIP3   OH227719   6.302   5.902   4.975  0.0444 -0.0696  0.1919
 9252TIP3    H127720   6.315   5.836   4.907  0.4680 -2.0460  2.0870
 9252TIP3    H227721   6.384   5.903   5.024 -0.1931  1.4105  0.6088
 9253TIP3   OH227722   2.356   0.618   3.086  0.0247 -0.1496 -0.1449
 9253TIP3    H127723   2.335   0.558   3.013 -0.3951  0.3630 -0.4527
 9253TIP3    H227724   2.271   0.654   3.111  0.2779  0.3040  0.0518
 9254TIP3   OH227725   6.682   3.019   0.575  0.1795 -0.0601 -0.3267
 9254TIP3    H127726   6.701   2.931   0.543  2.8276  0.7782 -1.4250
 9254TIP3    H227727   6.607   3.048   0.524  1.0879 -0.6754 -2.0932
 9255TIP3   OH227728   1.193   5.625   1.272  0.7797 -0.0726 -0.0608
 9255TIP3    H127729   1.189   5.720   1.259  0.7277 -0.2682 -1.6714
 9255TIP3    H227730   1.192   5.588   1.183  1.0702 -1.5736  0.5229
 9256TIP3   OH227731   0.745   0.682   4.122  0.2482 -0.0285  0.2224
 9256TIP3    H127732   0.687   0.628   4.175  1.1295 -1.2593  0.0020
 9256TIP3    H227733   0.691   0.710   4.048  0.2010 -2.1623 -0.6285
 9257TIP3   OH227734   5.264   0.004   4.126 -0.2657 -0.2316  0.1755
 9257TIP3    H127735   5.278  -0.012   4.219  0.0781 -2.2763 -0.1918
 9257TIP3    H227736   5.194   0.070   4.123 -1.5151 -1.4203  1.8553
 9258TIP3   OH227737   5.198   6.465   2.888  0.0928 -0.0908  0.2606
 9258TIP3    H127738   5.157   6.452   2.802  0.0963 -2.7221  0.5808
 9258TIP3    H227739   5.292   6.472   2.870 -0.0648  1.8979 -0.0999
 9259TIP3   OH227740   5.823   6.638   5.800 -0.4708 -0.8903  0.6072
 9259TIP3    H127741   5.735   6.609   5.824  0.1207 -1.2286  2.5366
 9259TIP3    H227742   5.856   6.569   5.743 -1.7902 -0.2579 -0.9974
 9260TIP3   OH227743   0.392   4.280   3.988  0.3342  0.1577  0.7110
 9260TIP3    H127744   0.427   4.206   3.938 -1.2135 -0.0880 -0.0765
 9260TIP3    H227745   0.318   4.243   4.037 -0.8709  1.2947 -0.1894
 9261TIP3   OH227746   0.943   4.703   1.126  0.1973  0.1429  0.3380
 9261TIP3    H127747   0.879   4.640   1.094  0.0322  0.4579  0.0481
 9261TIP3    H227748   0.982   4.741   1.047  1.7294 -1.0219  0.4815
 9262TIP3   OH227749   4.726   3.792   4.795  0.3830  0.8088 -0.0550
 9262TIP3    H127750   4.755   3.834   4.876 -1.2779 -0.4299  1.2749
 9262TIP3    H227751   4.795   3.729   4.775 -0.1054 -0.3456  1.6303
 9263TIP3   OH227752   6.285   6.033   2.795  0.0386 -0.8250  0.4147
 9263TIP3    H127753   6.208   5.994   2.754  1.0704  0.2938 -2.8654
 9263TIP3    H227754   6.257   6.121   2.820 -0.2799 -1.1119  1.0778
 9264TIP3   OH227755   0.992   2.165   5.158  0.9876  0.5002 -0.0448
 9264TIP3    H127756   1.017   2.075   5.139 -0.3173 -0.0535  0.7536
 9264TIP3    H227757   0.898   2.168   5.141  0.9661  1.6490  0.2007
 9265TIP3   OH227758   6.249   4.878   4.498 -0.4835  0.0984 -0.4402
 9265TIP3    H127759   6.233   4.784   4.491  1.6196 -0.2421 -1.0583
 9265TIP3    H227760   6.252   4.909   4.408  0.2114  0.5170 -0.2747
 9266TIP3   OH227761   0.035   4.807   0.267 -0.2825 -0.1559 -0.0659
 9266TIP3    H127762  -0.056   4.817   0.295 -0.6820  0.0282 -1.3748
 9266TIP3    H227763   0.047   4.872   0.199  0.9437  0.0383  0.3096
 9267TIP3   OH227764   0.225   4.984   3.542  0.3266  0.1586  0.1801
 9267TIP3    H127765   0.177   4.901   3.549  0.6295  0.0602  1.4197
 9267TIP3    H227766   0.172   5.038   3.484  1.8135 -2.0537 -3.5887
 9268TIP3   OH227767   2.947   2.291   0.493  0.2406  0.6599  0.0243
 9268TIP3    H127768   2.895   2.371   0.484  0.7459  1.0002  0.0618
 9268TIP3    H227769   2.950   2.275   0.587 -0.0512  0.4680  0.0010
 9269TIP3   OH227770   0.970   3.762   1.324  0.0463 -0.5873 -0.2074
 9269TIP3    H127771   1.046   3.735   1.274 -0.6726 -2.1347 -0.5329
 9269TIP3    H227772   0.948   3.849   1.291  0.7027 -0.8055 -1.2394
 9270TIP3   OH227773   3.978   4.505   3.605  0.2565 -0.4713 -0.3545
 9270TIP3    H127774   3.887   4.479   3.620  0.1868  0.8057  2.0199
 9270TIP3    H227775   4.030   4.428   3.628 -0.1894 -1.8991 -3.6639
 9271TIP3   OH227776   2.208   1.253   4.418  0.1196  0.1856 -0.2099
 9271TIP3    H127777   2.132   1.242   4.474 -0.2823  1.8180 -0.3737
 9271TIP3    H227778   2.278   1.283   4.477  0.7932 -1.7300  0.0162
 9272TIP3   OH227779   1.338   2.623   0.238  0.4490 -0.0865 -0.0674
 9272TIP3    H127780   1.302   2.535   0.249  2.0835 -0.7128  0.5002
 9272TIP3    H227781   1.356   2.652   0.328  0.5270  0.5762 -0.2947
 9273TIP3   OH227782   4.640   5.422   3.459 -0.2678 -0.0375  0.5625
 9273TIP3    H127783   4.668   5.333   3.483 -1.4992  0.0145  2.3996
 9273TIP3    H227784   4.694   5.479   3.514  0.7503  0.4231 -0.8448
 9274TIP3   OH227785   2.783   4.889   5.107 -0.2957 -0.4256 -0.0196
 9274TIP3    H127786   2.738   4.919   5.028  0.1747 -0.5408 -0.3385
 9274TIP3    H227787   2.857   4.949   5.118 -1.9472  1.3844  1.9850
 9275TIP3   OH227788   2.215   6.653   2.543  0.3342  0.6274 -0.2044
 9275TIP3    H127789   2.300   6.620   2.515  0.4774  1.6386 -0.9996
 9275TIP3    H227790   2.171   6.679   2.462 -1.3689 -1.3052  0.0275
 9276TIP3   OH227791   1.765   5.934   3.239 -0.2535  0.1312  0.2163
 9276TIP3    H127792   1.807   5.945   3.153 -0.0322 -0.8814  0.1725
 9276TIP3    H227793   1.818   5.867   3.282  0.9245  2.1115  2.0192
 9277TIP3   OH227794   4.428   5.397   1.653 -0.9002 -0.4825 -0.1343
 9277TIP3    H127795   4.432   5.455   1.577  0.9651  0.9988  1.0221
 9277TIP3    H227796   4.344   5.418   1.694  0.2471  2.4290  0.9537
 9278TIP3   OH227797   7.139   1.241   2.407  0.1873 -0.1095 -0.1694
 9278TIP3    H127798   7.065   1.264   2.463 -0.8623  0.3786 -1.6878
 9278TIP3    H227799   7.179   1.325   2.384  0.8324 -0.3288  0.1234
 9279TIP3   OH227800   3.606   0.623   4.124  0.1193 -0.7099  0.1193
 9279TIP3    H127801   3.662   0.695   4.154  2.6367 -2.5475  0.1371
 9279TIP3    H227802   3.522   0.665   4.105 -0.4469  1.3551  5.4582
 9280TIP3   OH227803   5.329   1.163   0.848 -0.3833 -0.5796  0.0829
 9280TIP3    H127804   5.287   1.248   0.864 -0.5989 -0.4585 -0.9987
 9280TIP3    H227805   5.390   1.151   0.921  0.0869  0.7952 -0.0567
 9281TIP3   OH227806   4.981   3.043   3.731  0.3423  0.3104 -0.2610
 9281TIP3    H127807   5.038   3.098   3.677  1.6649 -0.8889 -0.1550
 9281TIP3    H227808   4.911   3.016   3.671 -0.4110  2.1836 -0.2681
 9282TIP3   OH227809   1.223   6.347   2.066 -0.1027 -0.7082 -0.1561
 9282TIP3    H127810   1.220   6.290   1.989 -0.2684 -0.6186 -0.2147
 9282TIP3    H227811   1.231   6.286   2.140 -0.4628 -0.8145 -0.2039
 9283TIP3   OH227812   4.100   4.479   5.508 -0.6934 -0.1632 -0.0228
 9283TIP3    H127813   4.145   4.545   5.454  1.3272 -0.5204  1.1023
 9283TIP3    H227814   4.125   4.501   5.598  0.7614 -2.8796  0.3555
 9284TIP3   OH227815   3.466   1.278   4.431 -0.0672 -0.1431 -0.0778
 9284TIP3    H127816   3.485   1.223   4.355  0.9861  0.8774 -0.5888
 9284TIP3    H227817   3.469   1.218   4.505  0.9461 -0.8120 -0.6334
 9285TIP3   OH227818   5.149   5.216   0.959 -0.0165  0.4439 -0.1956
 9285TIP3    H127819   5.185   5.129   0.939 -0.2402  0.2265  0.3081
 9285TIP3    H227820   5.144   5.218   1.055  0.3066  1.1505 -0.1878
 9286TIP3   OH227821   3.154   1.887   3.843 -0.2188  0.0157  0.0972
 9286TIP3    H127822   3.080   1.826   3.847 -0.8223  0.7601  0.9381
 9286TIP3    H227823   3.147   1.927   3.757 -0.4848 -0.3063 -0.0347
 9287TIP3   OH227824   5.038   0.172   3.434  0.3068  0.0758  0.0447
 9287TIP3    H127825   5.009   0.217   3.513  0.5125  0.4466 -0.0923
 9287TIP3    H227826   4.960   0.124   3.405  0.2075 -0.0015  0.4244
 9288TIP3   OH227827   4.882   4.741   4.722  0.5592 -0.2065  0.1083
 9288TIP3    H127828   4.964   4.703   4.754  1.0855  1.3181  0.6403
 9288TIP3    H227829   4.816   4.713   4.786  0.2261 -3.0915 -1.3691
 9289TIP3   OH227830   4.949   4.706   2.190 -0.2737  0.1493  0.5611
 9289TIP3    H127831   4.916   4.620   2.214  2.2307 -1.2758 -0.6742
 9289TIP3    H227832   5.042   4.704   2.214  0.8388  0.9515 -3.0008
 9290TIP3   OH227833   2.368   2.071   2.847 -0.0651  0.3023  0.1951
 9290TIP3    H127834   2.380   2.102   2.757 -1.4859 -1.0395 -0.5180
 9290TIP3    H227835   2.277   2.042   2.850 -0.2239  0.8569  2.2612
 9291TIP3   OH227836   1.777   3.449   0.982  0.0469 -0.3627 -0.0866
 9291TIP3    H127837   1.862   3.449   1.027  0.1720 -0.5769 -0.3160
 9291TIP3    H227838   1.801   3.449   0.889 -0.1837 -2.2969 -0.1882
 9292TIP3   OH227839   5.605   1.505   3.100  0.5071 -0.0592 -0.9156
 9292TIP3    H127840   5.677   1.561   3.128  0.0842 -0.3193  0.8059
 9292TIP3    H227841   5.615   1.425   3.152 -1.6960  0.3743  0.2801
 9293TIP3   OH227842   4.742   2.240   3.513 -0.1265  0.2236  0.1708
 9293TIP3    H127843   4.742   2.324   3.559 -0.4571  0.9335 -1.0952
 9293TIP3    H227844   4.813   2.191   3.554  0.4095  1.3125  0.5825
 9294TIP3   OH227845   2.976   5.309   0.269  0.2763  0.0932 -0.0987
 9294TIP3    H127846   3.001   5.217   0.267  1.3820  0.3941 -1.7885
 9294TIP3    H227847   3.035   5.349   0.333  0.5361 -0.1667 -0.1745
 9295TIP3   OH227848   7.196   3.018   3.094  0.1940  0.3621 -0.0045
 9295TIP3    H127849   7.282   3.044   3.125 -0.0182  0.2415  0.7167
 9295TIP3    H227850   7.141   3.095   3.107  0.3346  0.6716 -1.1167
 9296TIP3   OH227851   3.670   0.330   5.576 -0.1560 -0.4918 -0.1098
 9296TIP3    H127852   3.692   0.417   5.609 -2.3938 -0.7230  2.2821
 9296TIP3    H227853   3.694   0.270   5.647 -0.2271 -1.6696 -1.0329
 9297TIP3   OH227854   4.550   4.067   0.938 -0.0195  0.4740  0.0078
 9297TIP3    H127855   4.537   4.101   1.027  1.2116 -0.7715  0.7193
 9297TIP3    H227856   4.625   4.008   0.947 -1.0809 -1.1805 -1.4583
 9298TIP3   OH227857   5.064   2.181   0.538  0.2500 -0.2252 -0.4108
 9298TIP3    H127858   5.099   2.208   0.623 -1.8620  0.5198  0.2834
 9298TIP3    H227859   5.129   2.212   0.474  1.6612 -0.4369  0.8745
 9299TIP3   OH227860   0.177   5.613   4.397 -0.5292  0.3689  0.1543
 9299TIP3    H127861   0.110   5.557   4.357 -0.1206 -0.2057  0.2641
 9299TIP3    H227862   0.259   5.585   4.356  0.0233 -0.7881  1.9642
 9300TIP3   OH227863   1.405   2.412   0.523  0.3148 -0.4160  0.5010
 9300TIP3    H127864   1.322   2.365   0.517  0.5862 -0.8256 -0.1164
 9300TIP3    H227865   1.382   2.504   0.512  0.2117 -0.6988 -2.3933
 9301TIP3   OH227866   7.072   3.726   0.619 -0.7769 -0.0002  0.2121
 9301TIP3    H127867   7.019   3.680   0.554 -0.1044 -0.1270 -0.2524
 9301TIP3    H227868   7.158   3.684   0.615 -0.0886  1.3927 -0.3590
 9302TIP3   OH227869   4.130   5.254   1.180  0.8992 -0.0902  0.1089
 9302TIP3    H127870   4.187   5.325   1.149  0.2091 -0.1275 -1.3309
 9302TIP3    H227871   4.111   5.277   1.271 -0.3926  2.3363 -0.6800
 9303TIP3   OH227872   0.842   6.617   3.287 -0.2310 -0.7772 -0.1249
 9303TIP3    H127873   0.848   6.571   3.370 -0.4039  2.5514  1.8815
 9303TIP3    H227874   0.932   6.644   3.268 -0.3181 -0.8005 -0.5999
 9304TIP3   OH227875   6.369   3.052   3.097 -0.2410 -0.1298  0.0671
 9304TIP3    H127876   6.313   3.030   3.023 -0.7605 -0.9060  0.6615
 9304TIP3    H227877   6.403   2.967   3.127  1.8957  0.3778 -0.7484
 9305TIP3   OH227878   1.450   6.530   3.458 -0.8102  0.2907  0.0985
 9305TIP3    H127879   1.488   6.616   3.441  1.1575  0.0422  2.6421
 9305TIP3    H227880   1.478   6.476   3.384 -0.4874  1.3474 -0.5749
 9306TIP3   OH227881   5.980   0.159   3.089 -0.5153  0.6653 -0.1227
 9306TIP3    H127882   6.057   0.119   3.129 -0.6720  0.8672  0.3873
 9306TIP3    H227883   6.003   0.251   3.079 -0.0426  0.4119 -1.5668
 9307TIP3   OH227884   0.560   4.818   4.227  0.2004 -0.7964 -0.1246
 9307TIP3    H127885   0.530   4.862   4.306  0.6146  0.1751 -0.4858
 9307TIP3    H227886   0.480   4.787   4.185  0.0042 -1.6601  0.8523
 9308TIP3   OH227887   2.176   2.235   3.465 -0.2711 -0.1353  0.1243
 9308TIP3    H127888   2.201   2.283   3.387 -1.1563 -0.2735 -0.2594
 9308TIP3    H227889   2.163   2.303   3.532  0.0815  0.0192  0.0355
 9309TIP3   OH227890   5.863   4.359   4.735 -0.2958  0.4215 -0.0399
 9309TIP3    H127891   5.945   4.382   4.691 -0.9348  0.1822 -1.4069
 9309TIP3    H227892   5.819   4.443   4.748 -0.2713  0.4592 -0.1982
 9310TIP3   OH227893   2.518   0.530   5.218  0.1746  0.8056  0.4392
 9310TIP3    H127894   2.444   0.549   5.160 -0.4589 -1.5369  0.3704
 9310TIP3    H227895   2.486   0.555   5.305 -0.7324 -0.1814  0.4107
 9311TIP3   OH227896   1.509   6.712   4.978  0.0669 -1.0525 -0.6381
 9311TIP3    H127897   1.510   6.628   5.023  1.1336 -1.3180 -1.1296
 9311TIP3    H227898   1.580   6.706   4.914  0.4546  0.3741 -0.3889
 9312TIP3   OH227899   1.840   0.378   3.768 -0.2011 -0.1817 -0.2209
 9312TIP3    H127900   1.875   0.368   3.856 -0.3040 -1.0609 -0.2714
 9312TIP3    H227901   1.752   0.341   3.772 -0.0838 -0.5298 -0.7711
 9313TIP3   OH227902   5.776   1.633   0.035 -0.1293  0.4167  0.2651
 9313TIP3    H127903   5.683   1.654   0.047  0.2796  1.3898  1.8540
 9313TIP3    H227904   5.802   1.591   0.116  0.9883  0.7215  0.0739
 9314TIP3   OH227905   4.071   6.025   3.391 -0.1672  0.1974  0.0531
 9314TIP3    H127906   4.038   5.966   3.459  2.4315 -0.5883  0.7513
 9314TIP3    H227907   4.076   5.970   3.313 -0.0285  0.1566  0.0897
 9315TIP3   OH227908   1.023   5.871   1.555  0.0893 -0.3658 -0.5623
 9315TIP3    H127909   0.983   5.880   1.641  2.0083 -1.6307  0.5139
 9315TIP3    H227910   1.021   5.777   1.537 -2.1725 -0.0039 -2.9072
 9316TIP3   OH227911   1.497   4.041   5.306 -0.0554 -0.0898 -0.2229
 9316TIP3    H127912   1.486   3.995   5.223  1.5168 -0.5433 -0.2173
 9316TIP3    H227913   1.520   4.130   5.281 -0.4172 -0.0047 -0.2586
 9317TIP3   OH227914   6.115   5.613   5.653  0.2733  0.2871 -0.0503
 9317TIP3    H127915   6.025   5.581   5.658  0.1445  0.8238  1.5881
 9317TIP3    H227916   6.168   5.533   5.652 -0.1919 -0.0282 -0.7817
 9318TIP3   OH227917   4.355   6.713   2.911 -0.3634 -0.3341  0.5287
 9318TIP3    H127918   4.450   6.723   2.905 -0.3836 -0.6415 -0.4580
 9318TIP3    H227919   4.335   6.730   3.003  0.1823  3.6057  0.1003
 9319TIP3   OH227920   0.935   3.334   3.203 -0.0982  0.1033 -0.3431
 9319TIP3    H127921   0.920   3.321   3.297  1.0320  0.7434 -0.0606
 9319TIP3    H227922   1.016   3.385   3.198 -0.2125  0.1898 -1.6673
 9320TIP3   OH227923   3.664   0.652   5.570 -0.3210  0.4994 -0.0992
 9320TIP3    H127924   3.674   0.722   5.506 -0.8147  1.0317  0.3919
 9320TIP3    H227925   3.751   0.638   5.606  0.3271 -0.9662 -2.0555
 9321TIP3   OH227926   4.890   0.582   3.099 -0.7073  0.0903  0.2112
 9321TIP3    H127927   4.859   0.547   3.182  0.1034 -2.6277 -0.5371
 9321TIP3    H227928   4.961   0.641   3.123 -0.4743 -0.6617  1.4641
 9322TIP3   OH227929   3.224   2.873   3.287  0.1227 -0.0450  0.0679
 9322TIP3    H127930   3.168   2.804   3.321  0.7216 -0.0914  1.0025
 9322TIP3    H227931   3.200   2.951   3.337 -1.9118  0.9716 -2.2882
 9323TIP3   OH227932   4.764   1.291   5.239  0.3970 -0.0049  0.0924
 9323TIP3    H127933   4.768   1.196   5.226  1.1724  0.2256 -1.6583
 9323TIP3    H227934   4.771   1.303   5.334  0.6729 -1.6784  0.3055
 9324TIP3   OH227935   6.210   0.707   3.053  0.0799 -0.1384  0.2340
 9324TIP3    H127936   6.149   0.633   3.055 -1.1373  0.7790 -0.7098
 9324TIP3    H227937   6.159   0.781   3.087 -0.1102  1.1290 -2.5188
 9325TIP3   OH227938   3.229   1.826   1.786 -0.3901 -0.4538 -0.0308
 9325TIP3    H127939   3.180   1.853   1.864  0.6737 -0.4333  0.6536
 9325TIP3    H227940   3.247   1.733   1.800 -0.5979 -0.5656 -0.4863
 9326TIP3   OH227941   1.108   2.134   3.837  0.1723 -0.5728 -0.0213
 9326TIP3    H127942   1.067   2.093   3.761  0.9406 -0.9253 -0.2591
 9326TIP3    H227943   1.046   2.201   3.865 -1.0585 -1.7915  0.2941
 9327TIP3   OH227944   2.218   4.343   1.489 -0.4485  0.4512  0.0558
 9327TIP3    H127945   2.184   4.327   1.400 -2.2392  1.2142  0.5500
 9327TIP3    H227946   2.227   4.256   1.527 -1.5390  0.1840 -0.2510
 9328TIP3   OH227947   2.506   5.347   5.690 -0.8541  0.0289  0.2918
 9328TIP3    H127948   2.533   5.258   5.665  0.8435  0.4797  0.4712
 9328TIP3    H227949   2.410   5.344   5.683 -0.8105 -1.6588 -0.2238
 9329TIP3   OH227950   4.042   6.113   0.752  0.4610 -0.3761  0.4702
 9329TIP3    H127951   4.087   6.187   0.792 -1.1082  0.8235  0.1361
 9329TIP3    H227952   4.014   6.058   0.826  0.5381  0.0321  0.8042
 9330TIP3   OH227953   3.419   1.654   0.061 -0.2007 -0.2015  0.0683
 9330TIP3    H127954   3.427   1.558   0.058  1.1864 -0.1862  1.5379
 9330TIP3    H227955   3.501   1.683   0.101 -0.4931  1.6372 -0.5783
 9331TIP3   OH227956   6.232   3.320   2.751 -0.0713  0.2250 -0.2726
 9331TIP3    H127957   6.168   3.390   2.759  0.0767  0.1771  1.8021
 9331TIP3    H227958   6.311   3.363   2.719 -0.9228  0.3606 -2.3852
 9332TIP3   OH227959   4.217   4.791   3.522  0.5284 -0.0536 -0.2398
 9332TIP3    H127960   4.256   4.745   3.447  0.0262  1.8927 -1.7854
 9332TIP3    H227961   4.127   4.809   3.494 -0.4351 -1.3005  1.8199
 9333TIP3   OH227962   0.818   5.403   1.828  0.4977 -0.0335 -0.0369
 9333TIP3    H127963   0.836   5.395   1.922 -0.6404  1.5128  0.3450
 9333TIP3    H227964   0.876   5.473   1.798 -1.6395  2.0263  0.3311
 9334TIP3   OH227965   3.037   5.471   1.002 -0.5702  0.1668  0.4375
 9334TIP3    H127966   2.994   5.499   0.921  0.9727  1.5555  0.0425
 9334TIP3    H227967   3.019   5.541   1.064  0.8119  0.6297  0.3519
 9335TIP3   OH227968   0.107   2.302   1.170  0.4559 -0.1443 -0.7742
 9335TIP3    H127969   0.037   2.329   1.111 -0.9075  1.2434  1.3197
 9335TIP3    H227970   0.186   2.339   1.131 -0.5266  1.5364 -1.2885
 9336TIP3   OH227971   3.743   1.031   2.487  0.1288 -0.4830 -0.6100
 9336TIP3    H127972   3.777   1.076   2.409  0.0901 -0.5466 -0.6641
 9336TIP3    H227973   3.743   1.097   2.555 -3.6917  0.8193 -1.6124
 9337TIP3   OH227974   6.957   3.467   1.885 -0.7138 -0.7119 -0.3317
 9337TIP3    H127975   6.896   3.522   1.934 -0.2256  0.6605 -1.1828
 9337TIP3    H227976   6.990   3.524   1.815  0.1603 -1.9688 -0.9976
 9338TIP3   OH227977   1.376   2.295   5.339  0.0303 -0.4051 -0.3905
 9338TIP3    H127978   1.421   2.361   5.286  0.1853 -0.0449  0.1802
 9338TIP3    H227979   1.283   2.314   5.327  0.0286 -0.9243 -1.2839
 9339TIP3   OH227980   3.276   6.233   1.745  0.1996  0.2725 -0.0421
 9339TIP3    H127981   3.358   6.260   1.786  1.3482 -0.9302 -1.4832
 9339TIP3    H227982   3.269   6.289   1.668 -1.7128  2.1824  1.3694
 9340TIP3   OH227983   3.223   0.793   5.480 -0.1133 -0.2848 -0.2233
 9340TIP3    H127984   3.176   0.746   5.411  0.8255 -1.5758 -0.0269
 9340TIP3    H227985   3.288   0.730   5.512  0.0261  0.5721  1.2781
 9341TIP3   OH227986   5.171   0.041   4.638  0.4129 -0.0439 -0.0707
 9341TIP3    H127987   5.210   0.070   4.721  1.7104 -0.0843 -0.6546
 9341TIP3    H227988   5.119  -0.036   4.662  0.4069  0.2105  0.7730
 9342TIP3   OH227989   5.116   1.948   0.899  0.3614 -0.2061  0.6229
 9342TIP3    H127990   5.200   1.908   0.923  2.6145  2.3546 -2.1632
 9342TIP3    H227991   5.068   1.878   0.854  1.9414 -1.1878  0.3751
 9343TIP3   OH227992   3.317   2.750   3.004  0.5684  0.2162  0.4442
 9343TIP3    H127993   3.284   2.766   3.092  0.8723 -0.8755  0.7726
 9343TIP3    H227994   3.391   2.810   2.994  0.5699  0.2993  0.9509
 9344TIP3   OH227995   3.711   2.012   2.014  0.3797  0.5800 -0.3646
 9344TIP3    H127996   3.646   2.061   1.962  1.7149  2.4351 -0.3946
 9344TIP3    H227997   3.731   1.935   1.961 -1.3371  0.2529 -0.6200
 9345TIP3   OH227998   0.160   2.153   1.605 -0.3651  0.2841 -0.2488
 9345TIP3    H127999   0.235   2.170   1.662 -0.7216  1.7659 -0.1797
 9345TIP3    H228000   0.085   2.145   1.665 -0.7632  1.9720 -0.4423
 9346TIP3   OH228001   4.985   1.690   3.505 -0.4175 -0.2519 -0.5239
 9346TIP3    H128002   5.012   1.701   3.596  0.3999 -1.2261 -0.6331
 9346TIP3    H228003   4.898   1.650   3.510 -1.0975  1.1982 -0.1824
 9347TIP3   OH228004   1.110   0.926   0.235 -0.1870 -0.0345 -0.0890
 9347TIP3    H128005   1.105   0.838   0.196 -0.1222 -0.2534  0.3917
 9347TIP3    H228006   1.068   0.983   0.170 -3.6066 -0.9365  1.0965
 9348TIP3   OH228007   4.608   0.196   4.823 -0.0779 -0.1172  0.2939
 9348TIP3    H128008   4.663   0.162   4.893  0.3661  0.5751  0.2840
 9348TIP3    H228009   4.549   0.258   4.867  1.1649  1.4277 -0.1398
 9349TIP3   OH228010   5.430   1.229   0.012  0.0540 -0.0810  0.1360
 9349TIP3    H128011   5.466   1.273  -0.065  1.1308 -0.1249  0.5991
 9349TIP3    H228012   5.463   1.279   0.086 -2.3573  1.0062  0.5733
 9350TIP3   OH228013   0.757   2.686   4.709  0.1331 -0.0031 -0.6604
 9350TIP3    H128014   0.806   2.613   4.746 -0.3480  0.0337  0.0769
 9350TIP3    H228015   0.822   2.736   4.659  1.8969  2.2352  3.3829
 9351TIP3   OH228016   1.555   2.782   5.173  0.1527 -0.0841  0.1743
 9351TIP3    H128017   1.543   2.750   5.263  0.1891 -0.3335  0.0933
 9351TIP3    H228018   1.548   2.703   5.119 -2.1104  0.3543 -0.2653
 9352TIP3   OH228019   4.720   5.388   0.768 -0.0267 -0.2168  0.4733
 9352TIP3    H128020   4.784   5.454   0.744 -1.3537  1.5353  1.5224
 9352TIP3    H228021   4.697   5.345   0.685  1.9600 -0.4462 -0.0007
 9353TIP3   OH228022   4.647   0.902   4.272 -0.3067 -0.4614 -0.0554
 9353TIP3    H128023   4.741   0.887   4.288 -0.3274 -0.3279  0.1996
 9353TIP3    H228024   4.628   0.852   4.193 -0.2088 -1.1917  0.3714
 9354TIP3   OH228025   1.601   3.160   4.711 -0.0359 -0.3188  0.2301
 9354TIP3    H128026   1.522   3.204   4.679 -0.2514 -0.7271  0.1919
 9354TIP3    H228027   1.670   3.227   4.706 -0.2552 -0.1257 -0.2758
 9355TIP3   OH228028   5.370   3.789   1.594  0.2669 -0.0723 -0.3035
 9355TIP3    H128029   5.412   3.756   1.673  1.1498 -0.0916 -0.7738
 9355TIP3    H228030   5.387   3.883   1.595 -0.0900 -0.0069 -0.2559
 9356TIP3   OH228031   0.040   3.547   4.683  0.0414 -0.5610  0.2532
 9356TIP3    H128032   0.025   3.641   4.697  0.7466  0.3411 -3.7869
 9356TIP3    H228033   0.122   3.529   4.729  1.5655  1.6457 -1.4128
 9357TIP3   OH228034   3.564   2.122   4.155  0.3641 -0.4244  0.4731
 9357TIP3    H128035   3.577   2.215   4.174  0.8226 -0.5379  0.7161
 9357TIP3    H228036   3.611   2.107   4.073 -0.3682 -0.2699  0.0147
 9358TIP3   OH228037   1.485   3.625   5.284 -0.2630 -0.4338 -0.0821
 9358TIP3    H128038   1.533   3.542   5.288  0.2664 -0.2409 -1.6097
 9358TIP3    H228039   1.507   3.661   5.198  0.1409  1.6879  0.8411
 9359TIP3   OH228040   0.835   4.309   1.479 -0.0308  0.1277  0.4572
 9359TIP3    H128041   0.823   4.357   1.397 -1.9181 -1.0608 -0.0252
 9359TIP3    H228042   0.752   4.318   1.525  1.0469  0.9336  2.3920
 9360TIP3   OH228043   7.072   2.786   4.875 -0.5673  0.7384  0.0695
 9360TIP3    H128044   7.000   2.753   4.821  0.2205 -0.3740 -0.3396
 9360TIP3    H228045   7.133   2.712   4.882  1.5222  2.2162 -1.2661
 9361TIP3   OH228046   1.481   5.378   3.356 -0.0278 -0.2371  0.0396
 9361TIP3    H128047   1.477   5.473   3.370 -1.6540 -0.2026 -0.4681
 9361TIP3    H228048   1.469   5.367   3.262 -1.1177 -0.9776  0.2426
 9362TIP3   OH228049   0.549   6.269   2.400  1.1742  0.1183  0.0312
 9362TIP3    H128050   0.606   6.193   2.400  2.5501  1.0975  0.3755
 9362TIP3    H228051   0.599   6.337   2.355  1.4029  1.7399  2.4805
 9363TIP3   OH228052   3.961   0.197   4.162 -0.4894  0.2387  0.3766
 9363TIP3    H128053   3.906   0.154   4.228 -0.6648  1.1260  0.8188
 9363TIP3    H228054   4.032   0.135   4.146  0.2111  0.4844  2.2691
 9364TIP3   OH228055   6.373   6.024   2.452  0.5972  0.3492  0.4959
 9364TIP3    H128056   6.285   6.047   2.422  0.2733  0.7561  1.7038
 9364TIP3    H228057   6.374   6.047   2.544  1.8297 -0.0958  0.6179
 9365TIP3   OH228058   2.230   4.405   2.537 -0.0356  0.1735  0.0859
 9365TIP3    H128059   2.269   4.439   2.618  2.0509 -0.7956 -0.4428
 9365TIP3    H228060   2.239   4.477   2.474 -0.6975  0.5531  0.4151
 9366TIP3   OH228061   0.877   2.760   2.239 -0.1528  0.0934  0.1868
 9366TIP3    H128062   0.889   2.785   2.331 -0.6515  3.0157 -0.4356
 9366TIP3    H228063   0.944   2.810   2.192 -0.3712 -0.8039 -1.1165
 9367TIP3   OH228064   2.120   2.035   2.403  0.0192  0.1909 -0.4030
 9367TIP3    H128065   2.054   2.067   2.341 -0.9743 -2.5711 -0.9069
 9367TIP3    H228066   2.202   2.076   2.374 -0.7986  0.6361 -2.2397
 9368TIP3   OH228067   7.007   2.432   1.316 -0.6541 -0.0023  0.4683
 9368TIP3    H128068   7.102   2.424   1.311 -0.8245 -1.3316 -0.9788
 9368TIP3    H228069   6.992   2.527   1.318  0.7257  0.2364  2.0840
 9369TIP3   OH228070   6.200   5.839   1.686 -0.2586 -0.0404  0.3265
 9369TIP3    H128071   6.154   5.920   1.664  0.3460  0.5244  1.0861
 9369TIP3    H228072   6.266   5.866   1.750 -1.0379 -1.3957  1.7483
 9370TIP3   OH228073   5.143   1.062   0.511 -0.7183 -0.5049  0.4150
 9370TIP3    H128074   5.065   1.023   0.472 -0.9153  0.3196 -0.0452
 9370TIP3    H228075   5.161   1.009   0.589 -0.2555 -2.2584 -0.8320
 9371TIP3   OH228076   5.712   1.266   2.244 -0.5768 -0.1568 -0.2723
 9371TIP3    H128077   5.625   1.302   2.230 -0.1211  1.2189  0.3185
 9371TIP3    H228078   5.768   1.313   2.182 -0.1686 -0.7470 -0.3677
 9372TIP3   OH228079   6.873   2.711   4.171  0.2427 -0.3469  0.1345
 9372TIP3    H128080   6.799   2.700   4.231 -0.9280 -2.8751 -1.5630
 9372TIP3    H228081   6.948   2.729   4.228 -1.5545  2.1871  1.9434
 9373TIP3   OH228082   4.331   1.639   1.590 -0.2087 -0.0757 -0.1182
 9373TIP3    H128083   4.360   1.632   1.680  1.0511 -0.9584 -0.5671
 9373TIP3    H228084   4.258   1.578   1.583  0.0642 -0.4338  0.1611
 9374TIP3   OH228085   4.669   0.606   0.671  0.0823  0.1148 -0.2610
 9374TIP3    H128086   4.638   0.681   0.621  0.2918 -0.2805 -0.9957
 9374TIP3    H228087   4.764   0.605   0.657  0.2083  0.2886  0.5476
 9375TIP3   OH228088   3.487   6.095   4.081  0.3033  0.0255 -0.1092
 9375TIP3    H128089   3.428   6.136   4.145  0.2794  0.6926 -0.5407
 9375TIP3    H228090   3.436   6.094   3.999  0.3453 -0.7810 -0.1304
 9376TIP3   OH228091   6.933   6.381   2.076  0.3126  0.0159  0.6871
 9376TIP3    H128092   6.913   6.288   2.060 -1.4864  0.0553  2.3328
 9376TIP3    H228093   7.029   6.385   2.076  0.4288 -1.7673  0.2040
 9377TIP3   OH228094   3.578   3.537   5.709  0.4315  0.3252 -0.6031
 9377TIP3    H128095   3.610   3.476   5.643 -0.0342 -1.5617  0.8373
 9377TIP3    H228096   3.511   3.488   5.757 -0.3092  2.1388  0.3134
 9378TIP3   OH228097   6.804   1.992   1.065  0.3441  0.1130 -0.6231
 9378TIP3    H128098   6.761   1.915   1.103  0.1726 -0.8355 -2.6162
 9378TIP3    H228099   6.881   2.006   1.120 -0.4657 -0.4745  0.7263
 9379TIP3   OH228100   0.882   3.519   3.931  0.2804 -0.1989  0.1901
 9379TIP3    H128101   0.812   3.532   3.867  0.2789 -0.9244  0.0341
 9379TIP3    H228102   0.960   3.555   3.890 -0.2073  1.6992  0.8409
 9380TIP3   OH228103   0.457   6.025   1.820  0.2500  0.9263  0.4854
 9380TIP3    H128104   0.370   6.046   1.853  0.0973  0.4411  0.4004
 9380TIP3    H228105   0.504   5.991   1.896  0.1269  0.4894  0.3690
 9381TIP3   OH228106   7.057   2.896   2.130 -0.5293 -0.4037 -0.6726
 9381TIP3    H128107   7.132   2.840   2.107  0.0339 -0.1488  0.4961
 9381TIP3    H228108   7.062   2.969   2.068  1.1980  0.4663  0.4186
 9382TIP3   OH228109   3.712   5.070   3.587 -0.8282  0.1062 -0.2004
 9382TIP3    H128110   3.696   5.081   3.681 -1.4224 -1.7515 -0.0348
 9382TIP3    H228111   3.627   5.046   3.551 -0.2052 -1.2774 -0.8277
 9383TIP3   OH228112   2.492   0.465   1.490  0.0746 -0.1459 -0.1394
 9383TIP3    H128113   2.514   0.551   1.524  0.2282 -0.2029 -0.0941
 9383TIP3    H228114   2.408   0.444   1.531 -0.4149  0.3722 -0.8504
 9384TIP3   OH228115   4.521   1.398   0.017 -0.2496 -0.1364  0.3972
 9384TIP3    H128116   4.501   1.468   0.079  1.9046  0.3940  0.5953
 9384TIP3    H228117   4.563   1.330   0.070  2.0296  0.5141 -0.4337
 9385TIP3   OH228118   5.465   0.545   2.330 -0.4446  0.6696  0.1073
 9385TIP3    H128119   5.371   0.561   2.342 -0.3586  1.5039 -0.2095
 9385TIP3    H228120   5.498   0.628   2.295  0.1842 -0.0397 -1.0315
 9386TIP3   OH228121   3.853   6.409   1.862  0.1336  0.7154  0.4327
 9386TIP3    H128122   3.903   6.399   1.943  0.0043 -0.7957  0.3477
 9386TIP3    H228123   3.870   6.499   1.834  0.7886  1.0113  1.7283
 9387TIP3   OH228124   5.382   3.587   0.945  0.0954  0.2620  0.3164
 9387TIP3    H128125   5.293   3.619   0.958 -0.8760 -1.7481 -0.8012
 9387TIP3    H228126   5.383   3.553   0.855  1.3832 -1.4934  0.9229
 9388TIP3   OH228127   0.317   5.017   0.254  0.0111 -0.3785 -0.1742
 9388TIP3    H128128   0.311   5.093   0.311  0.6509 -1.0011  0.7519
 9388TIP3    H228129   0.301   4.942   0.311 -0.8122 -0.9453 -1.1093
 9389TIP3   OH228130   2.001   5.771   2.304  0.2002 -0.5958  0.4096
 9389TIP3    H128131   2.045   5.814   2.230  1.2425 -0.3879  1.1294
 9389TIP3    H228132   1.949   5.701   2.263 -0.0328  0.1357 -0.6013
 9390TIP3   OH228133   5.626   6.228   3.777  0.0216 -0.4564 -0.5800
 9390TIP3    H128134   5.627   6.219   3.873  0.1368 -2.2549 -0.7065
 9390TIP3    H228135   5.642   6.139   3.745  0.0380  0.1257 -2.2818
 9391TIP3   OH228136   0.597   1.511   4.921 -0.2446 -0.0497  0.4700
 9391TIP3    H128137   0.685   1.492   4.954 -0.0706 -1.1566 -0.5870
 9391TIP3    H228138   0.558   1.426   4.903 -0.7072  0.4577 -1.1607
 9392TIP3   OH228139   2.491   6.238   0.113 -0.0234 -0.4267 -0.1438
 9392TIP3    H128140   2.434   6.206   0.043 -1.0990 -0.3494  0.6579
 9392TIP3    H228141   2.437   6.303   0.160  1.3927  1.0686 -0.4953
 9393TIP3   OH228142   0.747   0.857   2.731  0.0906 -0.3295  0.3307
 9393TIP3    H128143   0.778   0.942   2.702  0.3314 -0.1639  1.0607
 9393TIP3    H228144   0.664   0.875   2.776  0.2345 -0.4557  0.6494
 9394TIP3   OH228145   7.031   4.866   3.462  0.6681  0.4045 -0.8054
 9394TIP3    H128146   7.118   4.825   3.468  0.6686  0.4234 -0.6658
 9394TIP3    H228147   7.005   4.854   3.371  0.3050 -0.6766 -0.5718
 9395TIP3   OH228148   1.018   3.269   2.882  0.3598 -0.2134 -0.1940
 9395TIP3    H128149   0.935   3.251   2.837 -0.3928  0.2275  0.9765
 9395TIP3    H228150   1.033   3.363   2.868  0.3924 -0.1859  0.0190
 9396TIP3   OH228151   6.791   4.700   5.469  0.7740 -0.3927  0.0915
 9396TIP3    H128152   6.857   4.743   5.523 -0.9646  1.5278  0.8348
 9396TIP3    H228153   6.711   4.704   5.522 -0.5018 -0.4013 -1.7474
 9397TIP3   OH228154   4.875   0.879   2.886 -0.1142 -0.1309 -0.8717
 9397TIP3    H128155   4.952   0.905   2.937  0.2958  0.4959 -1.8071
 9397TIP3    H228156   4.905   0.805   2.834 -0.6514 -1.0468  0.0753
 9398TIP3   OH228157   6.043   5.750   2.986 -0.0896  0.0441 -0.0087
 9398TIP3    H128158   6.026   5.667   2.940 -0.8364  0.2985 -0.1980
 9398TIP3    H228159   6.005   5.817   2.930 -1.6776  0.3069  1.3176
 9399TIP3   OH228160   0.650   2.807   3.338 -0.3221 -0.2602  0.5946
 9399TIP3    H128161   0.584   2.745   3.371 -1.5154  0.8721  0.4305
 9399TIP3    H228162   0.644   2.799   3.243 -2.4575  1.9507  0.4230
 9400TIP3   OH228163   5.039   1.193   5.534  0.0585 -0.6515 -0.2802
 9400TIP3    H128164   5.105   1.192   5.465  0.5286 -2.7697  0.1307
 9400TIP3    H228165   5.089   1.207   5.615 -0.5650  2.6871 -0.3200
 9401TIP3   OH228166   5.987   4.736   3.667  0.3643  0.3596  0.6204
 9401TIP3    H128167   6.057   4.756   3.730 -0.6085 -2.0385  2.6569
 9401TIP3    H228168   6.033   4.705   3.590  1.5894  0.3691  1.3183
 9402TIP3   OH228169   4.194   1.924   2.981  0.0248  0.4331  0.0970
 9402TIP3    H128170   4.108   1.887   2.959  1.7226 -2.3696 -2.7603
 9402TIP3    H228171   4.177   2.017   2.995 -3.5810 -0.1640  0.6863
 9403TIP3   OH228172   1.310   6.164   3.870  0.3656  0.3335  0.2396
 9403TIP3    H128173   1.384   6.142   3.813  0.5002  0.0936  0.5056
 9403TIP3    H228174   1.336   6.246   3.912 -0.7352  1.8415 -1.8304
 9404TIP3   OH228175   2.854   3.651   1.174  0.1757 -0.2356 -0.2751
 9404TIP3    H128176   2.819   3.728   1.129  1.3321  1.1296  1.0443
 9404TIP3    H228177   2.866   3.586   1.105 -0.3383  0.9382 -1.5172
 9405TIP3   OH228178   4.527   0.441   4.596 -0.4678  0.5453  0.5399
 9405TIP3    H128179   4.543   0.349   4.574  0.6143  0.6566  0.7672
 9405TIP3    H228180   4.573   0.490   4.527 -0.3794  0.9059  0.8508
 9406TIP3   OH228181   5.550   3.047   2.094  0.1300 -0.6519 -0.6728
 9406TIP3    H128182   5.476   2.991   2.069 -0.3945  0.6135 -2.1341
 9406TIP3    H228183   5.600   3.057   2.014  0.7584  0.1710 -0.1900
 9407TIP3   OH228184   0.287   0.777   5.161 -0.0340  0.5519 -0.6758
 9407TIP3    H128185   0.294   0.744   5.072  1.1704 -0.0336 -0.3807
 9407TIP3    H228186   0.378   0.785   5.191 -0.4176 -1.2132  1.1885
 9408TIP3   OH228187   1.219   3.538   3.846  0.6149 -1.0829  0.0516
 9408TIP3    H128188   1.252   3.508   3.762  0.9020  1.5768 -0.8951
 9408TIP3    H228189   1.289   3.518   3.908  1.8511 -0.1459 -0.9812
 9409TIP3   OH228190   0.376   2.949   5.692 -0.2568  0.0699 -0.5943
 9409TIP3    H128191   0.418   2.880   5.744  0.1587  0.5144 -0.3320
 9409TIP3    H228192   0.313   2.990   5.752 -0.5833 -0.1531 -0.7833
 9410TIP3   OH228193   5.601   3.544   1.517 -0.6350  0.0511 -0.2310
 9410TIP3    H128194   5.518   3.585   1.491 -0.1862  0.1862 -1.5243
 9410TIP3    H228195   5.664   3.576   1.452 -0.3723 -3.2029 -1.7479
 9411TIP3   OH228196   0.214   6.240   0.619 -0.4782 -0.5822 -0.4641
 9411TIP3    H128197   0.278   6.233   0.549 -3.3299 -0.2654 -3.3229
 9411TIP3    H228198   0.239   6.319   0.667  0.0449  0.7731 -2.8436
 9412TIP3   OH228199   2.476   5.984   1.835  0.0421  0.5419  0.3758
 9412TIP3    H128200   2.566   6.010   1.858 -0.0058 -0.4235  1.8282
 9412TIP3    H228201   2.482   5.891   1.817 -1.1463 -0.3848  3.9246
 9413TIP3   OH228202   6.601   1.657   2.455 -0.2344 -0.5007 -0.2658
 9413TIP3    H128203   6.562   1.626   2.537 -0.0100  0.2685  0.1357
 9413TIP3    H228204   6.527   1.691   2.405 -0.2710 -0.2516 -0.0485
 9414TIP3   OH228205   6.735   4.278   0.365 -0.2980 -0.1450 -0.1025
 9414TIP3    H128206   6.817   4.319   0.337 -0.7620  0.5583 -0.4720
 9414TIP3    H228207   6.684   4.270   0.284 -0.2632 -1.3794 -0.0197
 9415TIP3   OH228208   1.789   3.724   2.440 -0.5975  0.4395  0.5528
 9415TIP3    H128209   1.877   3.729   2.475 -0.8524  1.1726  1.1172
 9415TIP3    H228210   1.798   3.676   2.357  0.0746 -0.8811  1.3666
 9416TIP3   OH228211   5.556   1.946   3.740  0.5828  0.1710  0.7614
 9416TIP3    H128212   5.530   2.020   3.795  1.0791 -0.1462  1.4476
 9416TIP3    H228213   5.650   1.957   3.728  0.5824 -0.1039  0.4907
 9417TIP3   OH228214   2.962   4.674   3.648 -0.1978  0.0776  0.2235
 9417TIP3    H128215   2.894   4.694   3.585  0.3633 -1.3825 -0.9179
 9417TIP3    H228216   2.921   4.612   3.709 -0.0818 -0.3542 -0.1273
 9418TIP3   OH228217   6.860   4.546   3.309  0.4589  0.4188 -0.0886
 9418TIP3    H128218   6.890   4.636   3.302 -0.9071  0.9277  0.3515
 9418TIP3    H228219   6.940   4.493   3.298  1.0560  1.6036 -1.9804
 9419TIP3   OH228220   2.148   2.378   1.556  0.0264 -0.2892  0.4151
 9419TIP3    H128221   2.107   2.385   1.469 -1.9935  0.3365  1.3541
 9419TIP3    H228222   2.197   2.459   1.566  1.8079 -1.1361 -0.8117
 9420TIP3   OH228223   1.216   5.125   5.578  0.2307 -0.2707 -0.0317
 9420TIP3    H128224   1.150   5.194   5.574  0.6652  0.1703  0.3263
 9420TIP3    H228225   1.167   5.044   5.565 -0.1427  0.1666 -1.5706
 9421TIP3   OH228226   1.259   0.391   2.208 -0.3288  0.2528  0.0153
 9421TIP3    H128227   1.275   0.315   2.152 -1.5482  1.2515 -1.7697
 9421TIP3    H228228   1.166   0.410   2.198 -0.1107  1.8377  0.6195
 9422TIP3   OH228229   0.305   1.992   3.839  0.3912  0.5067 -0.3577
 9422TIP3    H128230   0.288   1.902   3.866 -1.8599  0.7454 -0.8109
 9422TIP3    H228231   0.283   1.994   3.746  1.3756  1.3199 -0.5995
 9423TIP3   OH228232   5.156   2.959   4.818  0.4457  0.1495  0.2049
 9423TIP3    H128233   5.099   3.005   4.880  0.7822  1.0792 -0.1747
 9423TIP3    H228234   5.097   2.899   4.772  0.5510 -2.5070  3.1565
 9424TIP3   OH228235   2.010   2.848   2.377  0.6638  0.4600 -0.5171
 9424TIP3    H128236   2.099   2.868   2.348  1.1554 -0.5053  0.2470
 9424TIP3    H228237   2.007   2.752   2.380 -0.7070  0.4419 -1.4232
 9425TIP3   OH228238   1.489   3.462   0.839  0.2525 -0.4442 -0.0756
 9425TIP3    H128239   1.491   3.415   0.755 -0.6110 -2.9431  1.1908
 9425TIP3    H228240   1.566   3.430   0.886 -0.7438 -1.2231  1.0919
 9426TIP3   OH228241   6.296   6.573   4.608  0.1659 -0.5271 -0.1162
 9426TIP3    H128242   6.232   6.573   4.537  0.2282 -2.2464 -0.2348
 9426TIP3    H228243   6.311   6.480   4.626  0.6398 -0.1431  1.7149
 9427TIP3   OH228244   2.686   0.918   4.329  0.2971 -0.2550 -0.3437
 9427TIP3    H128245   2.636   0.994   4.360  0.3445  0.0215 -0.9301
 9427TIP3    H228246   2.687   0.858   4.404 -0.1072  0.1382 -0.0151
 9428TIP3   OH228247   2.962   4.551   3.146  0.1163 -0.4043  0.5102
 9428TIP3    H128248   2.960   4.607   3.068  0.5004 -0.6261  0.3359
 9428TIP3    H228249   2.871   4.528   3.162 -0.1486  1.0325  1.1398
 9429TIP3   OH228250   3.377   6.635   3.806 -0.0141 -0.3308  0.4692
 9429TIP3    H128251   3.367   6.682   3.889  0.5493  0.2627  0.2061
 9429TIP3    H228252   3.296   6.651   3.759  0.2515  0.5386  0.3027
 9430TIP3   OH228253   5.318   0.984   4.340 -0.4488  0.2773  0.7090
 9430TIP3    H128254   5.265   0.919   4.387  1.3732 -0.3494  1.9923
 9430TIP3    H228255   5.343   0.940   4.259  1.7076 -1.1778  2.0546
 9431TIP3   OH228256   3.487   0.912   1.364  0.2885  0.2388 -0.5350
 9431TIP3    H128257   3.470   0.950   1.277  2.2122  1.4467 -0.4292
 9431TIP3    H228258   3.458   0.821   1.356  0.0757  0.4215 -2.3345
 9432TIP3   OH228259   0.538   1.785   0.476 -0.2253  0.1409  0.0185
 9432TIP3    H128260   0.574   1.780   0.565 -0.0713  0.5753 -0.0171
 9432TIP3    H228261   0.545   1.695   0.442  1.7324  0.3855 -0.3313
 9433TIP3   OH228262   4.864   2.638   5.167 -0.4194  0.2332  0.1075
 9433TIP3    H128263   4.828   2.722   5.136 -3.8577 -0.1381  2.5380
 9433TIP3    H228264   4.817   2.572   5.117 -1.1407 -0.2383  1.3510
 9434TIP3   OH228265   2.919   5.839   2.081  0.0344 -0.1738  0.0931
 9434TIP3    H128266   2.986   5.888   2.128  1.1868  0.9961 -2.5924
 9434TIP3    H228267   2.939   5.747   2.101  1.8724  0.1842  0.0890
 9435TIP3   OH228268   3.460   0.942   2.457 -0.2460  0.6321  0.0494
 9435TIP3    H128269   3.449   0.865   2.401 -1.5157 -2.7825  4.4157
 9435TIP3    H228270   3.549   0.935   2.491  0.3911  2.4681 -1.0706
 9436TIP3   OH228271   5.048   5.789   1.260  0.3971  0.6712 -0.2475
 9436TIP3    H128272   5.064   5.879   1.232  0.2556  0.0988 -2.3256
 9436TIP3    H228273   4.954   5.777   1.247  0.4884  0.0965 -0.3985
 9437TIP3   OH228274   4.146   0.255   4.954 -0.4079  0.8525 -0.5688
 9437TIP3    H128275   4.074   0.310   4.925  0.8470  2.8582 -0.1023
 9437TIP3    H228276   4.220   0.280   4.899  0.8652  1.5553  1.3460
 9438TIP3   OH228277   3.781   2.774   3.400  0.5749  0.9960  0.3999
 9438TIP3    H128278   3.804   2.851   3.453  0.1262  0.7779  0.9261
 9438TIP3    H228279   3.785   2.701   3.462  0.1577  0.7166  0.1045
 9439TIP3   OH228280   3.408   3.248   3.516  0.5559  0.1836  0.7251
 9439TIP3    H128281   3.497   3.220   3.538 -0.0090 -1.3205  1.2100
 9439TIP3    H228282   3.352   3.176   3.546 -0.7939  0.9307  0.0798
 9440TIP3   OH228283   0.352   3.110   2.411 -0.0675  0.0432  0.2561
 9440TIP3    H128284   0.383   3.149   2.329  2.1899 -0.5694  0.7486
 9440TIP3    H228285   0.324   3.185   2.464  0.9750  0.7104 -0.0956
 9441TIP3   OH228286   2.875   6.518   2.180  0.1543  0.0344 -0.2522
 9441TIP3    H128287   2.909   6.456   2.115 -0.5369  0.8774 -1.4608
 9441TIP3    H228288   2.929   6.596   2.169 -0.1721  0.2942 -0.0336
 9442TIP3   OH228289   5.698   0.296   5.467  0.0768 -0.1906  0.0199
 9442TIP3    H128290   5.629   0.343   5.514 -2.6901  0.1363 -3.8642
 9442TIP3    H228291   5.697   0.208   5.506  0.5859  0.9198  2.8302
 9443TIP3   OH228292   0.793   0.803   1.677  0.3982 -0.6395  0.1736
 9443TIP3    H128293   0.715   0.786   1.730  0.4588 -0.2585  0.3939
 9443TIP3    H228294   0.851   0.730   1.696 -0.3824 -1.5734 -0.9362
 9444TIP3   OH228295   3.363   3.706   0.336 -0.0894 -0.4799 -0.0234
 9444TIP3    H128296   3.370   3.682   0.428 -1.7164 -1.2642 -0.0673
 9444TIP3    H228297   3.443   3.756   0.318  1.7077 -2.7442  1.0366
 9445TIP3   OH228298   7.066   1.008   2.710 -0.5655  0.0209  0.3948
 9445TIP3    H128299   7.127   0.992   2.638 -0.9182 -2.0167  0.4815
 9445TIP3    H228300   7.078   1.100   2.732  0.9285  0.2005 -0.9953
 9446TIP3   OH228301   2.888   0.664   5.021  0.2579 -0.1492  0.2668
 9446TIP3    H128302   2.954   0.730   5.041  0.0528 -0.2225  1.2254
 9446TIP3    H228303   2.808   0.714   5.006  0.4206 -0.0915 -0.4272
 9447TIP3   OH228304   3.182   5.692   1.434  0.5549  0.4829  0.1259
 9447TIP3    H128305   3.264   5.680   1.385  0.4756 -0.8270  0.2608
 9447TIP3    H228306   3.114   5.692   1.367  0.4739 -0.9920  0.1671
 9448TIP3   OH228307   0.342   5.088   4.850  0.4203 -0.8452  0.0493
 9448TIP3    H128308   0.319   5.029   4.922 -1.2579  0.7537  0.8996
 9448TIP3    H228309   0.395   5.034   4.791 -2.4899 -3.8228 -0.1817
 9449TIP3   OH228310   3.009   4.742   4.801 -0.5871 -0.2544 -0.1413
 9449TIP3    H128311   2.984   4.691   4.878 -0.3522 -0.8482 -0.4473
 9449TIP3    H228312   3.103   4.726   4.790  0.1019  2.3346  1.2653
 9450TIP3   OH228313   4.466   1.686   3.929  0.0027 -0.0271  0.0748
 9450TIP3    H128314   4.514   1.611   3.964 -1.1514 -0.1857  1.4071
 9450TIP3    H228315   4.388   1.648   3.889 -0.3924  0.4290  0.4029
 9451TIP3   OH228316   4.387   4.847   4.101  0.0025  1.0590 -0.1871
 9451TIP3    H128317   4.450   4.907   4.141  0.9720 -1.2775  2.0990
 9451TIP3    H228318   4.441   4.785   4.052 -0.8972  1.4412 -1.7237
 9452TIP3   OH228319   5.828   1.367   2.049  0.2267  0.1090  0.0893
 9452TIP3    H128320   5.842   1.462   2.043 -0.4758  0.1475 -1.1984
 9452TIP3    H228321   5.845   1.335   1.961  0.5645 -0.9937  0.5412
 9453TIP3   OH228322   6.872   3.132   2.044 -0.1959 -0.0027 -0.2503
 9453TIP3    H128323   6.891   3.197   2.112 -0.4508 -1.1552  0.9537
 9453TIP3    H228324   6.800   3.170   1.994 -2.0856 -0.4012  2.0008
 9454TIP3   OH228325   6.964   6.227   1.684 -0.1791  0.1682  0.3603
 9454TIP3    H128326   7.035   6.175   1.720 -0.2384 -0.7604 -0.8047
 9454TIP3    H228327   6.985   6.317   1.708  0.2347 -0.3152  1.8960
 9455TIP3   OH228328  -0.002   6.745   3.421  0.1448 -0.3390  0.2634
 9455TIP3    H128329   0.062   6.713   3.484  0.3076 -2.7511 -0.9961
 9455TIP3    H228330   0.050   6.776   3.347 -0.0825  0.5317  0.4628
 9456TIP3   OH228331   1.149   5.784   3.662  0.2968 -0.0506 -0.0871
 9456TIP3    H128332   1.141   5.878   3.677 -1.5387 -0.3697  1.1867
 9456TIP3    H228333   1.242   5.771   3.644  0.6269  1.9673 -0.0829
 9457TIP3   OH228334   6.657   3.082   5.785 -0.0305  0.3388  0.4296
 9457TIP3    H128335   6.692   3.155   5.735 -1.9031  0.7622 -0.3615
 9457TIP3    H228336   6.734   3.030   5.809  1.2404  1.9903  0.1146
 9458TIP3   OH228337   1.097   5.903   0.443 -0.3362  0.1455 -0.2059
 9458TIP3    H128338   1.005   5.917   0.421 -0.5811  1.3972  1.4267
 9458TIP3    H228339   1.096   5.866   0.531  0.7148  2.7906  1.0359
 9459TIP3   OH228340   3.606   6.517   5.764  0.2696  0.3648  0.2038
 9459TIP3    H128341   3.648   6.603   5.772 -1.5726  1.2237  1.4539
 9459TIP3    H228342   3.595   6.488   5.854 -3.2894  1.0258  0.1371
 9460TIP3   OH228343   6.459   4.679   4.734 -0.5895 -0.6591  0.0635
 9460TIP3    H128344   6.369   4.663   4.761 -0.3686 -1.9664  0.1111
 9460TIP3    H228345   6.473   4.617   4.662 -0.1151  0.4116 -0.7905
 9461TIP3   OH228346   2.112   5.167   4.591 -0.0542 -0.6495  0.0522
 9461TIP3    H128347   2.046   5.132   4.651 -1.3799  1.7887  0.1300
 9461TIP3    H228348   2.112   5.261   4.608  2.4773 -0.3911 -0.9553
 9462TIP3   OH228349   6.575   2.879   1.380 -0.1172  0.1533  0.0552
 9462TIP3    H128350   6.486   2.846   1.365  0.2563 -1.1985  0.7122
 9462TIP3    H228351   6.566   2.939   1.454 -0.2836 -1.0750  1.0689
 9463TIP3   OH228352   1.649   5.768   0.035  0.6083  0.1338  0.1661
 9463TIP3    H128353   1.625   5.783  -0.057  1.4681 -0.9148 -0.2467
 9463TIP3    H228354   1.683   5.852   0.064  0.6712  0.3756 -0.5827
 9464TIP3   OH228355   5.871   2.681   3.684  0.2134  0.4841 -0.2609
 9464TIP3    H128356   5.776   2.674   3.673  0.1272  0.6265  0.3506
 9464TIP3    H228357   5.887   2.649   3.773  0.9829 -1.5451 -1.0621
 9465TIP3   OH228358   4.404   5.156   3.311 -0.1984  0.4551 -0.2613
 9465TIP3    H128359   4.498   5.143   3.325  0.0273  1.2626 -1.0001
 9465TIP3    H228360   4.376   5.077   3.265 -0.1301 -0.3234  0.9695
 9466TIP3   OH228361   4.696   1.474   2.390 -0.5500 -0.2158 -0.3785
 9466TIP3    H128362   4.702   1.390   2.434  0.4263  0.0899  0.0847
 9466TIP3    H228363   4.622   1.464   2.330 -0.1738 -1.5493 -0.6517
 9467TIP3   OH228364   0.134   0.660   2.930  0.0679 -0.4356  0.0429
 9467TIP3    H128365   0.190   0.641   2.854  3.2436 -0.4455  2.1881
 9467TIP3    H228366   0.155   0.750   2.953 -1.5584 -0.1234  0.3937
 9468TIP3   OH228367   7.201   1.846   3.781 -0.5411  0.6134  0.4385
 9468TIP3    H128368   7.162   1.929   3.809 -3.2508  0.2764 -1.8537
 9468TIP3    H228369   7.227   1.862   3.691 -1.4147 -1.0671 -0.1473
 9469TIP3   OH228370   1.994   4.672   4.297 -0.4130 -0.4860  0.2067
 9469TIP3    H128371   2.039   4.745   4.340  1.3143 -1.7084  0.5968
 9469TIP3    H228372   1.916   4.711   4.259  1.2201  1.9050 -0.9696
 9470TIP3   OH228373   3.813   1.369   5.843  0.4380  0.1548  0.6251
 9470TIP3    H128374   3.734   1.327   5.809  1.6402 -1.3664 -0.4300
 9470TIP3    H228375   3.835   1.318   5.922  1.9231 -1.3670 -0.6814
 9471TIP3   OH228376   3.928   0.962   4.424  0.9549 -0.5890  0.0995
 9471TIP3    H128377   4.020   0.983   4.440  0.6441 -0.2151  1.6052
 9471TIP3    H228378   3.911   0.888   4.482  0.8213 -2.0158 -1.7098
 9472TIP3   OH228379   6.862   1.387   3.091  0.3222  0.2732  0.3049
 9472TIP3    H128380   6.788   1.417   3.143 -0.1767  0.1970 -0.3593
 9472TIP3    H228381   6.939   1.419   3.139 -0.1173 -0.0107  1.2157
 9473TIP3   OH228382   2.257   2.024   2.064  0.3983 -0.4095  0.1016
 9473TIP3    H128383   2.261   2.003   1.970 -1.5306  0.8273 -0.3157
 9473TIP3    H228384   2.320   2.094   2.075 -1.1646  1.2466 -0.8824
 9474TIP3   OH228385   3.771   1.645   2.322  0.0643 -0.3173 -0.1976
 9474TIP3    H128386   3.821   1.631   2.242 -0.5649 -1.2315 -0.4431
 9474TIP3    H228387   3.739   1.735   2.315  2.8005  0.8319  0.6180
 9475TIP3   OH228388   5.069   1.097   5.185 -0.1346 -0.8297 -0.1224
 9475TIP3    H128389   5.045   1.010   5.217 -1.6955 -0.4359 -0.1037
 9475TIP3    H228390   5.044   1.096   5.092 -0.4405 -0.3112 -0.0500
 9476TIP3   OH228391   2.244   4.309   5.358 -0.1207 -0.3383 -0.9622
 9476TIP3    H128392   2.159   4.269   5.338 -0.1063 -0.1145 -1.4774
 9476TIP3    H228393   2.223   4.398   5.386 -0.1885 -0.8273  0.6326
 9477TIP3   OH228394   5.133   6.048   1.201  0.0659 -0.3271  0.1663
 9477TIP3    H128395   5.217   6.018   1.236  0.2469 -0.1838 -0.1407
 9477TIP3    H228396   5.155   6.085   1.116 -0.0414  1.2465  0.7878
 9478TIP3   OH228397   2.535   1.126   4.420  0.3639  0.1228 -0.0301
 9478TIP3    H128398   2.494   1.180   4.488  1.1480 -0.5703  1.0448
 9478TIP3    H228399   2.584   1.188   4.366  0.5776  0.5997  0.6802
 9479TIP3   OH228400   3.730   5.655   4.768  0.6610  0.1791 -0.4380
 9479TIP3    H128401   3.740   5.750   4.758  1.8131  0.1899  0.6428
 9479TIP3    H228402   3.761   5.637   4.857 -0.6865 -1.0597 -0.1802
 9480TIP3   OH228403   1.251   3.365   5.219  0.1743  0.0207  0.7733
 9480TIP3    H128404   1.215   3.445   5.255 -0.9016 -0.4734  0.8442
 9480TIP3    H228405   1.250   3.378   5.124 -0.2857 -0.0220  0.7711
 9481TIP3   OH228406   1.022   6.643   1.658  0.2885  0.6203 -0.0721
 9481TIP3    H128407   1.057   6.574   1.601  1.4518  0.1537  1.1295
 9481TIP3    H228408   0.989   6.595   1.734 -0.9885  1.2489 -0.2084
 9482TIP3   OH228409   6.678   4.270   2.290 -0.7149  0.1844 -0.4708
 9482TIP3    H128410   6.696   4.201   2.353 -1.4963  0.1300 -0.2990
 9482TIP3    H228411   6.587   4.256   2.263 -0.9389  1.2303 -0.3138
 9483TIP3   OH228412   3.615   5.529   5.176  0.3271 -0.0945  0.0803
 9483TIP3    H128413   3.610   5.587   5.252  1.1258 -0.0305  0.0937
 9483TIP3    H228414   3.526   5.529   5.140 -0.4112 -1.2059  1.7938
 9484TIP3   OH228415   0.016   5.584   2.482 -0.8232  0.1421 -0.2784
 9484TIP3    H128416   0.025   5.501   2.433  1.7167  0.6091 -0.7071
 9484TIP3    H228417   0.056   5.650   2.425  1.6606  0.8302  2.0665
 9485TIP3   OH228418   5.894   3.559   1.743 -0.4411  0.1590 -0.7180
 9485TIP3    H128419   5.973   3.536   1.694 -0.9004  0.3474 -1.5551
 9485TIP3    H228420   5.861   3.637   1.700  0.1087  1.3728  0.9859
 9486TIP3   OH228421   5.112   4.683   5.302 -0.0476  0.4777 -0.4956
 9486TIP3    H128422   5.156   4.719   5.225 -1.4771  1.1064 -1.0616
 9486TIP3    H228423   5.100   4.590   5.283  1.5928  0.1440 -0.0368
 9487TIP3   OH228424   4.394   3.920   4.436  1.1823  0.1392  0.5128
 9487TIP3    H128425   4.391   3.878   4.350 -0.0638  0.1993  0.5141
 9487TIP3    H228426   4.484   3.953   4.443  2.0054 -1.9403  0.2590
 9488TIP3   OH228427   7.076   5.724   4.096 -0.1841  0.5577 -0.4070
 9488TIP3    H128428   7.155   5.671   4.089 -0.3462  0.4191 -1.3175
 9488TIP3    H228429   7.005   5.660   4.097 -0.2449  0.5228  2.7149
 9489TIP3   OH228430   6.905   4.744   1.795  0.3227 -0.4699 -0.0351
 9489TIP3    H128431   6.811   4.761   1.795  0.2655  0.0942 -3.8605
 9489TIP3    H228432   6.923   4.705   1.880 -3.1625  0.3767  1.2280
 9490TIP3   OH228433   6.600   0.411   0.696  0.3212  0.3653  0.2693
 9490TIP3    H128434   6.529   0.475   0.700 -0.6660 -0.6249 -0.7388
 9490TIP3    H228435   6.556   0.326   0.701  1.4610 -0.2678 -0.0761
 9491TIP3   OH228436   1.488   6.246   5.465  0.1868  0.0289  0.0586
 9491TIP3    H128437   1.562   6.191   5.490 -0.4560 -0.7937  0.1892
 9491TIP3    H228438   1.528   6.323   5.424  1.0902 -0.9968 -1.0576
 9492TIP3   OH228439   0.462   0.088   4.439 -0.2539  0.2911  0.1759
 9492TIP3    H128440   0.393   0.046   4.491  0.5196 -0.7201  0.4167
 9492TIP3    H228441   0.543   0.061   4.480  0.6050 -2.8883 -3.0401
 9493TIP3   OH228442   0.399   4.640   3.832  0.2966 -0.7813  0.2026
 9493TIP3    H128443   0.405   4.625   3.737 -0.0611 -0.2601  0.0963
 9493TIP3    H228444   0.481   4.604   3.866 -0.1759 -2.2426 -0.1363
 9494TIP3   OH228445   6.048   1.043   0.981 -0.4750 -0.1161 -0.6955
 9494TIP3    H128446   6.075   1.098   0.908  0.0668 -0.4408 -0.7476
 9494TIP3    H228447   6.108   0.968   0.978 -0.7347 -0.3505 -0.1897
 9495TIP3   OH228448   3.322   3.665   4.733  0.2256 -0.4014 -0.2116
 9495TIP3    H128449   3.360   3.749   4.710  0.5602 -0.4031  0.3199
 9495TIP3    H228450   3.390   3.601   4.708  1.3350 -0.2965  2.2955
 9496TIP3   OH228451   0.327   0.696   4.897  0.0204 -0.5692  0.2614
 9496TIP3    H128452   0.314   0.739   4.813  0.1324 -1.0919 -0.0314
 9496TIP3    H228453   0.239   0.674   4.927 -0.3308  2.5799  1.9122
 9497TIP3   OH228454   2.051   0.326   3.531 -0.1872 -0.1428  0.0453
 9497TIP3    H128455   2.133   0.282   3.555  1.0170  2.1051  0.3076
 9497TIP3    H228456   2.002   0.333   3.612 -1.0984 -2.2386 -0.2535
 9498TIP3   OH228457   4.292   0.051   4.382  0.2701  0.4946  0.0158
 9498TIP3    H128458   4.221   0.050   4.447  1.1228 -2.2539  1.0644
 9498TIP3    H228459   4.248   0.048   4.298 -0.9167 -0.8514  0.6434
 9499TIP3   OH228460   2.651   4.381   2.647 -0.0476 -0.2418  0.3880
 9499TIP3    H128461   2.662   4.290   2.618  1.9262  0.2048 -0.4440
 9499TIP3    H228462   2.691   4.433   2.577 -2.3595  1.3881  0.1661
 9500TIP3   OH228463   5.652   4.463   3.506  0.0056 -0.1205 -0.1529
 9500TIP3    H128464   5.593   4.397   3.469 -0.4744 -0.5916  1.3904
 9500TIP3    H228465   5.716   4.479   3.436 -1.8686  0.3621 -1.8602
 9501TIP3   OH228466   2.957   0.052   4.637  0.2404  0.6510  0.2692
 9501TIP3    H128467   3.022   0.103   4.685  0.8196 -1.0889  1.4254
 9501TIP3    H228468   2.878   0.057   4.689 -0.1560  1.5965 -0.4053
 9502TIP3   OH228469   4.794   2.425   1.668  0.4068  0.2772  0.3503
 9502TIP3    H128470   4.802   2.332   1.690 -0.1302  0.0534 -0.3765
 9502TIP3    H228471   4.785   2.426   1.573  0.1351  1.0607  0.3830
 9503TIP3   OH228472   4.383   5.118   3.018 -0.2441  0.2004  0.2288
 9503TIP3    H128473   4.474   5.147   3.018  0.6290 -1.8349 -3.6799
 9503TIP3    H228474   4.385   5.033   3.062 -0.6077  0.8356  1.5111
 9504TIP3   OH228475   2.354   5.173   1.715 -0.4967 -0.1651 -0.3491
 9504TIP3    H128476   2.358   5.089   1.669 -1.6095 -0.0155 -0.7391
 9504TIP3    H228477   2.306   5.154   1.795  1.0072 -0.3167  0.5521
 9505TIP3   OH228478   1.109   4.520   2.895  0.0877  0.2714  0.4525
 9505TIP3    H128479   1.054   4.475   2.959  0.1166  1.0902  1.0618
 9505TIP3    H228480   1.079   4.611   2.896  0.3240  0.3684 -0.4455
 9506TIP3   OH228481   0.141   5.672   0.369 -0.1137  0.1615  0.1851
 9506TIP3    H128482   0.082   5.704   0.301 -1.2752 -1.3240  0.4526
 9506TIP3    H228483   0.167   5.752   0.416  1.7207  1.4002 -2.6615
 9507TIP3   OH228484   1.140   4.532   0.900 -0.0064  0.1344 -0.6343
 9507TIP3    H128485   1.086   4.525   0.978 -0.3736 -0.5659 -0.9313
 9507TIP3    H228486   1.154   4.625   0.887 -0.6748  0.2902 -0.2300
 9508TIP3   OH228487   0.871   2.169   5.509  0.4562  0.1285  0.1658
 9508TIP3    H128488   0.906   2.143   5.594 -0.9192 -0.5966  0.5309
 9508TIP3    H228489   0.904   2.102   5.448 -1.4145 -1.4165  0.7604
 9509TIP3   OH228490   0.084   4.151   0.121  0.0568 -0.0670  0.0451
 9509TIP3    H128491   0.109   4.178   0.209 -1.2027 -1.3600  0.8499
 9509TIP3    H228492  -0.005   4.185   0.110  0.1767  0.0157 -0.6968
 9510TIP3   OH228493   1.734   2.515   1.077  0.1170  0.1667  0.0449
 9510TIP3    H128494   1.679   2.500   1.153  0.0039  1.5199  0.2682
 9510TIP3    H228495   1.770   2.603   1.090 -2.2139  1.7418 -2.8141
 9511TIP3   OH228496   2.176   5.708   1.015  0.3582  0.1660 -0.4708
 9511TIP3    H128497   2.186   5.614   1.032  1.5103  0.0459 -1.5917
 9511TIP3    H228498   2.265   5.738   0.995 -0.1426  1.2910 -1.1145
 9512TIP3   OH228499   4.253   5.860   2.573  0.1517  0.6494 -0.4200
 9512TIP3    H128500   4.222   5.939   2.619 -0.0710  0.3773 -0.1008
 9512TIP3    H228501   4.347   5.859   2.590 -0.0959 -0.0981  1.0558
 9513TIP3   OH228502   1.420   3.217   2.565 -0.3095  0.6813 -0.2181
 9513TIP3    H128503   1.467   3.264   2.496  3.3919  0.8737  2.1171
 9513TIP3    H228504   1.358   3.281   2.600 -0.2451  1.4800 -1.4928
 9514TIP3   OH228505   3.716   3.104   5.005  0.5506 -0.1518  0.0763
 9514TIP3    H128506   3.691   3.091   5.096 -0.5402  0.3772 -0.1349
 9514TIP3    H228507   3.645   3.064   4.955  0.7868  0.1896 -0.5442
 9515TIP3   OH228508   2.542   2.592   2.595  0.0421  0.2490  0.0457
 9515TIP3    H128509   2.613   2.651   2.620 -0.6473  1.2867 -0.3498
 9515TIP3    H228510   2.586   2.513   2.562  0.9799  0.3979  0.9075
 9516TIP3   OH228511   4.237   4.430   1.853 -0.0294  0.1757 -0.4034
 9516TIP3    H128512   4.202   4.412   1.941  0.3366  1.1554 -0.0455
 9516TIP3    H228513   4.301   4.499   1.867  0.8771 -0.4622 -1.2856
 9517TIP3   OH228514   1.324   3.645   2.029 -0.9018 -0.2732 -0.1599
 9517TIP3    H128515   1.296   3.555   2.010  0.0716 -0.5210 -0.5018
 9517TIP3    H228516   1.341   3.683   1.942 -2.1515  0.5523 -0.0842
 9518TIP3   OH228517   0.190   3.838   5.230 -0.1830  0.2693 -0.3117
 9518TIP3    H128518   0.167   3.915   5.282  0.4183 -0.0934  0.5184
 9518TIP3    H228519   0.272   3.807   5.268 -1.5866 -2.1959  1.0244
 9519TIP3   OH228520   1.313   3.368   0.184  0.2599  0.0412 -0.0429
 9519TIP3    H128521   1.382   3.423   0.221  0.2856  0.4677 -0.6979
 9519TIP3    H228522   1.263   3.336   0.259 -0.0165  1.3115  0.3256
 9520TIP3   OH228523   1.555   0.507   1.280 -0.1732  0.7127  0.2810
 9520TIP3    H128524   1.632   0.559   1.305  0.3606 -0.1058  0.3922
 9520TIP3    H228525   1.514   0.483   1.363 -0.5932  1.2057  0.2188
 9521TIP3   OH228526   4.131   5.180   3.490  0.0758 -0.4770 -0.1999
 9521TIP3    H128527   4.135   5.158   3.583 -0.3926 -0.6504 -0.2168
 9521TIP3    H228528   4.198   5.248   3.478 -1.3711  1.2051  0.7474
 9522TIP3   OH228529   1.019   1.793   2.395 -0.2794  0.0658  0.1794
 9522TIP3    H128530   0.998   1.699   2.393 -2.0668  0.4216 -0.1503
 9522TIP3    H228531   1.062   1.806   2.479  2.4395 -1.4648 -0.8394
 9523TIP3   OH228532   6.143   2.939   1.031  0.2070 -0.1336 -0.3261
 9523TIP3    H128533   6.130   3.034   1.023 -1.7943 -0.3478 -0.2601
 9523TIP3    H228534   6.126   2.906   0.942 -0.7109 -0.5543 -0.0075
 9524TIP3   OH228535   4.772   1.507   1.046 -0.7347  0.5782  0.0216
 9524TIP3    H128536   4.825   1.431   1.068  0.7458  1.2082 -1.1900
 9524TIP3    H228537   4.689   1.471   1.015 -1.1749 -0.4139  2.1711
 9525TIP3   OH228538   1.975   3.357   0.507  0.1974  0.1929  0.2895
 9525TIP3    H128539   2.029   3.281   0.528 -0.9960 -0.8971 -0.4399
 9525TIP3    H228540   1.931   3.379   0.588  0.0916 -0.2719  0.3580
 9526TIP3   OH228541   6.217   0.337   5.625 -0.1671  0.3994 -0.0376
 9526TIP3    H128542   6.237   0.418   5.672 -0.6865  0.7220 -0.3536
 9526TIP3    H228543   6.122   0.340   5.612  0.0192  0.5442 -1.5091
 9527TIP3   OH228544   5.823   1.121   3.680  0.1257  0.4457 -0.1277
 9527TIP3    H128545   5.749   1.115   3.618 -2.4486  2.0607  2.5499
 9527TIP3    H228546   5.804   1.055   3.746 -0.1640  2.3359  1.7544
 9528TIP3   OH228547   4.575   6.660   4.554 -0.1212  0.3206 -0.3865
 9528TIP3    H128548   4.487   6.678   4.522  0.2133  0.0063 -1.5233
 9528TIP3    H228549   4.588   6.566   4.541  0.8377  0.5703 -1.4744
 9529TIP3   OH228550   3.850   0.915   1.904  0.0280 -0.0913  0.1334
 9529TIP3    H128551   3.926   0.953   1.860  0.1921  0.9984  1.3242
 9529TIP3    H228552   3.833   0.834   1.855  2.2100 -0.6060  0.0993
 9530TIP3   OH228553   3.728   5.169   3.274  0.2621  0.6163 -0.3975
 9530TIP3    H128554   3.816   5.131   3.271  0.4979  0.9731  1.2701
 9530TIP3    H228555   3.691   5.138   3.357 -1.1278  0.6351 -0.9768
 9531TIP3   OH228556   2.226   2.513   3.985  0.1732  0.3984 -0.2178
 9531TIP3    H128557   2.268   2.599   3.976  0.4704  0.1234 -1.8897
 9531TIP3    H228558   2.263   2.476   4.065  0.8643  1.3800 -0.0590
 9532TIP3   OH228559   2.490   2.232   5.095  0.0913 -0.2970  0.1821
 9532TIP3    H128560   2.424   2.176   5.052  0.4761  0.5829 -1.6508
 9532TIP3    H228561   2.453   2.250   5.181 -1.6277 -0.6202 -0.4346
 9533TIP3   OH228562   3.142   6.035   2.478 -0.1490  0.1961 -0.6468
 9533TIP3    H128563   3.186   6.000   2.555  1.2713  0.1707 -1.4389
 9533TIP3    H228564   3.058   6.066   2.511  0.3247 -0.0220  0.8626
 9534TIP3   OH228565   0.406   1.748   4.117 -0.0861 -0.1498 -0.2514
 9534TIP3    H128566   0.349   1.734   4.042  0.1984  1.2574 -0.7721
 9534TIP3    H228567   0.486   1.699   4.096 -0.1394 -0.0430 -0.7098
 9535TIP3   OH228568   3.593   6.012   0.878 -0.5797  0.5747 -0.1098
 9535TIP3    H128569   3.615   5.949   0.947  2.0257  0.3718 -1.0308
 9535TIP3    H228570   3.600   6.098   0.921  0.2404  0.4116  0.1007
 9536TIP3   OH228571   1.399   1.279   1.885 -0.3295 -0.3891 -0.0043
 9536TIP3    H128572   1.307   1.262   1.903 -0.2884  0.9845  1.7271
 9536TIP3    H228573   1.417   1.364   1.925  1.4053 -0.0338 -1.3752
 9537TIP3   OH228574   1.197   1.847   3.750 -0.4172  0.0007 -0.1100
 9537TIP3    H128575   1.186   1.931   3.794 -0.0341 -0.1966  0.3682
 9537TIP3    H228576   1.154   1.859   3.665 -0.3950  0.6635 -0.0334
 9538TIP3   OH228577   5.886   0.922   5.370 -0.1498 -0.1357 -0.0137
 9538TIP3    H128578   5.839   0.968   5.300  0.5814  0.1726 -0.3215
 9538TIP3    H228579   5.911   0.838   5.331 -0.1643 -0.1652  0.0409
 9539TIP3   OH228580   6.140   2.052   4.204 -0.0710 -0.2262 -0.6416
 9539TIP3    H128581   6.127   2.123   4.141  1.5248 -0.4251 -1.2281
 9539TIP3    H228582   6.224   2.071   4.245 -0.4985 -0.7870  0.5546
 9540TIP3   OH228583   6.908   4.582   5.072  0.0006 -0.4280 -0.4452
 9540TIP3    H128584   6.918   4.573   4.978  1.4774 -0.3294 -0.3229
 9540TIP3    H228585   6.904   4.492   5.105  1.3365 -0.5226 -0.4616
 9541TIP3   OH228586   1.869   4.126   3.036 -0.7766  0.0275  0.1936
 9541TIP3    H128587   1.798   4.190   3.041 -1.0565 -0.2284 -0.3971
 9541TIP3    H228588   1.946   4.177   3.010 -0.4507  0.5122  2.0329
 9542TIP3   OH228589   2.949   3.333   2.977 -1.1023  0.4479  0.1545
 9542TIP3    H128590   2.932   3.240   2.962  0.5164  0.1385  0.0006
 9542TIP3    H228591   2.931   3.375   2.893 -2.2610  0.3556  0.3451
 9543TIP3   OH228592   3.242   6.112   4.528 -0.2415  0.0286  0.1964
 9543TIP3    H128593   3.149   6.110   4.548 -0.5907  0.3263 -1.2495
 9543TIP3    H228594   3.249   6.170   4.453  1.3148  1.2391  1.2112
 9544TIP3   OH228595   5.452   4.784   3.953  0.5217  0.3854  0.1098
 9544TIP3    H128596   5.430   4.810   3.864 -0.3851  0.8030  0.4523
 9544TIP3    H228597   5.409   4.699   3.964  0.9401  0.1592  0.0330
 9545TIP3   OH228598   0.184   4.212   4.380 -0.4632 -0.8157  0.2934
 9545TIP3    H128599   0.114   4.273   4.354  0.2440 -0.7149 -1.4917
 9545TIP3    H228600   0.216   4.248   4.463 -0.2856  1.0793 -0.5430
 9546TIP3   OH228601   5.077   4.981   4.585  0.0117 -0.5977  0.2656
 9546TIP3    H128602   5.133   4.994   4.662 -1.0151 -0.2027  0.9735
 9546TIP3    H228603   5.084   4.888   4.565  1.3414 -0.4690 -0.0186
 9547TIP3   OH228604   0.878   1.297   3.267  0.4356  0.2723  0.2845
 9547TIP3    H128605   0.929   1.378   3.278 -0.9551  0.9443  2.3577
 9547TIP3    H228606   0.853   1.273   3.356 -1.3989 -0.9839 -0.5249
 9548TIP3   OH228607   6.678   3.059   3.334  0.0669  0.1380 -0.1102
 9548TIP3    H128608   6.762   3.040   3.376 -0.7820 -0.2826  1.4922
 9548TIP3    H228609   6.701   3.108   3.255  1.9442 -1.7744 -0.8683
 9549TIP3   OH228610   3.482   0.325   2.305 -0.3378  0.0271  0.2452
 9549TIP3    H128611   3.468   0.419   2.317 -0.2823  0.1860 -0.8346
 9549TIP3    H228612   3.431   0.284   2.376 -1.6571  0.8178 -0.2025
 9550TIP3   OH228613   2.676   5.654   3.927 -0.4263 -0.3038  0.1090
 9550TIP3    H128614   2.730   5.652   3.848  0.3098 -0.6607  0.6059
 9550TIP3    H228615   2.687   5.742   3.962 -0.4955 -0.2448 -0.0212
 9551TIP3   OH228616   3.557   0.439   4.635  0.0433 -0.1799 -0.3081
 9551TIP3    H128617   3.577   0.511   4.695  1.7197  0.7192 -1.8500
 9551TIP3    H228618   3.590   0.469   4.550 -2.3979 -1.3177 -1.7624
 9552TIP3   OH228619   0.779   2.502   4.199  0.0463 -0.0168  0.1519
 9552TIP3    H128620   0.742   2.523   4.113 -2.0685  1.5272  1.3242
 9552TIP3    H228621   0.714   2.445   4.240 -0.2490  1.2602  1.5887
 9553TIP3   OH228622   3.303   6.476   0.741 -0.2805  0.3949  0.0904
 9553TIP3    H128623   3.395   6.483   0.716 -0.2631 -0.1173 -0.0008
 9553TIP3    H228624   3.280   6.563   0.773 -0.2207  1.0041 -1.4366
 9554TIP3   OH228625   4.591   4.974   4.218  0.3288 -0.6380 -0.1163
 9554TIP3    H128626   4.573   4.984   4.312 -1.3620  0.8743 -0.5415
 9554TIP3    H228627   4.686   4.968   4.212  0.4994 -0.2340  1.6692
 9555TIP3   OH228628   4.104   6.086   2.626 -0.0551 -0.5289 -0.1933
 9555TIP3    H128629   4.125   6.179   2.627 -0.2758 -0.4815  0.7156
 9555TIP3    H228630   4.009   6.083   2.615 -0.0777 -0.6410  0.0368
 9556TIP3   OH228631   2.023   3.179   4.120 -0.5279 -0.2541 -0.0258
 9556TIP3    H128632   1.942   3.225   4.144 -1.1987 -0.7334 -1.3166
 9556TIP3    H228633   2.056   3.227   4.044 -1.2742 -1.8843 -1.4443
 9557TIP3   OH228634   6.280   5.466   4.385  0.3457  0.3108  0.9322
 9557TIP3    H128635   6.231   5.454   4.466  0.4594  0.4441  1.0216
 9557TIP3    H228636   6.320   5.552   4.393 -0.9476  1.0226  0.0345
 9558TIP3   OH228637   5.445   1.710   2.193 -0.2230  0.4895  0.5293
 9558TIP3    H128638   5.428   1.720   2.099  0.1002 -1.2120  0.2503
 9558TIP3    H228639   5.382   1.645   2.222  1.2002 -0.7838  0.9386
 9559TIP3   OH228640   6.347   5.571   1.589 -0.0255 -0.2935 -0.8485
 9559TIP3    H128641   6.366   5.532   1.503  0.8304 -0.3848 -0.6325
 9559TIP3    H228642   6.336   5.664   1.570 -1.2031 -0.4900 -1.2396
 9560TIP3   OH228643   0.331   2.617   2.999 -0.6795 -0.4910  0.0225
 9560TIP3    H128644   0.301   2.626   3.090 -2.5937 -1.5161 -0.4441
 9560TIP3    H228645   0.385   2.695   2.984 -1.5838  0.4971  1.5747
 9561TIP3   OH228646   0.103   1.274   5.370  0.0140 -0.1552  0.9520
 9561TIP3    H128647   0.139   1.350   5.325 -1.2679 -0.6926 -1.1677
 9561TIP3    H228648   0.153   1.200   5.336 -1.5425 -0.6686 -0.4194
 9562TIP3   OH228649   3.286   0.858   3.219  0.1499 -0.3843  0.1470
 9562TIP3    H128650   3.303   0.869   3.126 -0.5750  2.2918  0.2278
 9562TIP3    H228651   3.372   0.864   3.261  0.1720  4.1248 -0.0607
 9563TIP3   OH228652   4.775   0.856   1.825 -0.1208 -0.5595 -0.0174
 9563TIP3    H128653   4.842   0.854   1.894 -1.4180  0.7582  1.3480
 9563TIP3    H228654   4.820   0.892   1.749  1.2589 -1.7415  0.1836
 9564TIP3   OH228655   3.985   3.184   4.736 -0.4675  0.1604 -0.2593
 9564TIP3    H128656   3.909   3.241   4.753  0.1473  0.6478  0.9798
 9564TIP3    H228657   4.009   3.150   4.822  0.0867 -0.8304 -0.7878
 9565TIP3   OH228658   2.646   6.458   4.433  0.2885  0.2392 -0.0028
 9565TIP3    H128659   2.619   6.426   4.347  0.4203  0.5929 -0.1786
 9565TIP3    H228660   2.632   6.552   4.429  1.9900  0.5117 -0.2688
 9566TIP3   OH228661   0.537   1.477   3.861  0.5419  0.0214 -0.3611
 9566TIP3    H128662   0.599   1.404   3.866  0.4140 -0.0817 -0.2503
 9566TIP3    H228663   0.580   1.549   3.908  0.4741 -0.1273 -0.0638
 9567TIP3   OH228664   5.220   6.756   4.943  0.4042  0.3197 -0.1379
 9567TIP3    H128665   5.276   6.679   4.950  2.8584  1.8045 -1.8385
 9567TIP3    H228666   5.202   6.781   5.034  2.4439 -0.3158  0.4921
 9568TIP3   OH228667   1.693   2.358   5.470 -0.1990 -0.0440  0.1273
 9568TIP3    H128668   1.604   2.334   5.494 -0.1011 -0.8889 -0.3323
 9568TIP3    H228669   1.683   2.416   5.394 -0.3707  0.2994  0.4074
 9569TIP3   OH228670   3.062   0.658   5.300 -0.0890  0.8875  0.5434
 9569TIP3    H128671   3.064   0.717   5.224  0.7288 -0.9284 -0.9473
 9569TIP3    H228672   2.995   0.594   5.277  1.5658 -0.8692  0.3432
 9570TIP3   OH228673   5.461   0.338   5.587  0.0067 -0.1003  0.6075
 9570TIP3    H128674   5.417   0.423   5.577 -0.6284 -0.5831 -1.1399
 9570TIP3    H228675   5.450   0.316   5.679 -0.7650  1.2182  0.8596
 9571TIP3   OH228676   6.437   4.571   1.636 -0.5547  0.5408 -0.5521
 9571TIP3    H128677   6.445   4.622   1.555 -0.5331 -0.6961 -1.3487
 9571TIP3    H228678   6.519   4.588   1.683  0.4866 -0.5713 -1.8938
 9572TIP3   OH228679   3.669   0.897   4.175 -0.3668  0.5432 -0.1748
 9572TIP3    H128680   3.652   0.892   4.270 -1.2251  1.9880 -0.2134
 9572TIP3    H228681   3.709   0.983   4.163  1.6700 -0.4544 -0.8993
 9573TIP3   OH228682   3.402   4.036   2.579  0.4783 -0.0432  0.3835
 9573TIP3    H128683   3.316   4.044   2.538  0.9234 -0.1775 -0.6128
 9573TIP3    H228684   3.406   3.945   2.610  0.6861 -0.3683 -0.5778
 9574TIP3   OH228685   1.684   6.406   5.331 -0.4236 -0.3882  0.1640
 9574TIP3    H128686   1.766   6.357   5.338 -0.1060  0.0952 -0.0247
 9574TIP3    H228687   1.713   6.496   5.314 -0.9616  0.1132  1.7917
 9575TIP3   OH228688   3.087   0.227   0.923 -0.0157  0.2155 -0.0441
 9575TIP3    H128689   3.173   0.184   0.924 -0.5419 -0.8912  1.2987
 9575TIP3    H228690   3.089   0.286   0.999 -0.2607  0.5890 -0.3249
 9576TIP3   OH228691   6.663   1.499   0.502  0.6112 -0.0585  0.2756
 9576TIP3    H128692   6.592   1.462   0.555 -0.1210  0.0723 -0.5947
 9576TIP3    H228693   6.638   1.590   0.488  1.8604  0.5031  1.4670
 9577TIP3   OH228694   5.445   6.730   4.573 -0.1069 -0.1487 -0.1384
 9577TIP3    H128695   5.430   6.640   4.542 -1.7874  0.1996 -0.4202
 9577TIP3    H228696   5.519   6.722   4.633 -1.2318 -2.0261  1.1267
 9578TIP3   OH228697   6.439   6.699   1.295 -0.0124  0.1295 -0.7589
 9578TIP3    H128698   6.458   6.606   1.285  0.1240  0.2953 -2.2394
 9578TIP3    H228699   6.349   6.709   1.263 -0.6692  0.2607  0.9937
 9579TIP3   OH228700   6.397   2.045   2.189  0.0256  0.2344 -0.3549
 9579TIP3    H128701   6.405   1.953   2.164 -0.3930  0.1073 -0.0328
 9579TIP3    H228702   6.418   2.094   2.109 -0.2845 -0.1466 -0.6701
 9580TIP3   OH228703   4.065   2.524   2.438 -0.2901 -0.0911 -0.5425
 9580TIP3    H128704   4.156   2.553   2.433 -1.0587  2.7986  0.4592
 9580TIP3    H228705   4.030   2.541   2.350 -0.0019 -0.8390 -0.8140
 9581TIP3   OH228706   3.236   2.985   3.619 -0.9006  0.6055 -0.2048
 9581TIP3    H128707   3.213   2.895   3.641  1.7403 -0.0046  0.4517
 9581TIP3    H228708   3.185   3.039   3.679  1.3872 -0.7489  3.3019
 9582TIP3   OH228709   6.498   4.995   0.204  0.1036  0.0185  0.1497
 9582TIP3    H128710   6.522   4.941   0.128  1.0087  1.3446 -0.5501
 9582TIP3    H228711   6.408   5.022   0.187  0.1017 -0.1731 -0.1565
 9583TIP3   OH228712   5.784   1.179   0.989  0.2287  0.5714  0.1675
 9583TIP3    H128713   5.719   1.232   0.944  0.1921 -0.0914 -0.5780
 9583TIP3    H228714   5.783   1.095   0.943  0.5215  0.0339  1.1191
 9584TIP3   OH228715   4.557   4.542   2.093  0.1187  0.1451  0.2244
 9584TIP3    H128716   4.635   4.541   2.038  0.2078  0.1071  0.3503
 9584TIP3    H228717   4.549   4.632   2.123  0.1256  0.1443  0.2283
 9585TIP3   OH228718   3.964   4.174   2.270 -0.0443 -0.2525 -0.1016
 9585TIP3    H128719   4.004   4.101   2.222 -0.2564 -0.0738 -0.5555
 9585TIP3    H228720   3.924   4.133   2.347  0.0989 -0.5733 -0.1971
 9586TIP3   OH228721   1.652   0.693   2.511  0.0611 -0.0884 -0.2549
 9586TIP3    H128722   1.615   0.781   2.509  1.6150  0.5865 -0.6512
 9586TIP3    H228723   1.715   0.691   2.439 -0.7448 -1.9169 -0.9880
 9587TIP3   OH228724   0.164   6.496   4.817 -0.2021 -0.1667  0.1869
 9587TIP3    H128725   0.211   6.460   4.892 -1.0329 -1.3024  0.1966
 9587TIP3    H228726   0.100   6.429   4.795 -1.0242  0.8237 -0.5581
 9588TIP3   OH228727   6.122   2.530   2.032 -0.0257 -0.0095 -0.3108
 9588TIP3    H128728   6.216   2.534   2.014 -0.0641 -2.0653 -1.2227
 9588TIP3    H228729   6.081   2.571   1.956  0.1044  2.5376  0.8824
 9589TIP3   OH228730   5.040   5.425   2.949 -0.3139  0.2361  0.1758
 9589TIP3    H128731   5.072   5.498   3.003  1.0160 -0.9278  1.0196
 9589TIP3    H228732   5.078   5.347   2.989 -3.9832 -1.2848  1.1066
 9590TIP3   OH228733   4.939   2.371   3.888 -0.2561  0.1724 -0.1044
 9590TIP3    H128734   4.887   2.449   3.909  0.1615  1.0180 -1.9881
 9590TIP3    H228735   4.971   2.340   3.972 -0.9159  1.7124  0.7521
 9591TIP3   OH228736   1.406   6.224   0.149  0.7170  0.4866 -0.7044
 9591TIP3    H128737   1.322   6.267   0.166  0.4644  0.0219 -0.7672
 9591TIP3    H228738   1.454   6.234   0.231  0.5114  0.5538 -0.5894
 9592TIP3   OH228739   6.371   1.743   3.440  0.2875  0.0099 -0.5984
 9592TIP3    H128740   6.466   1.754   3.435  0.0999  1.6188 -1.4520
 9592TIP3    H228741   6.349   1.765   3.530  0.9532 -3.0159  0.4094
 9593TIP3   OH228742   5.369   4.618   3.578 -0.0699 -0.2963  0.0874
 9593TIP3    H128743   5.297   4.627   3.515  2.0821  3.3167 -2.2253
 9593TIP3    H228744   5.404   4.531   3.562 -1.9103 -0.9113 -0.9577
 9594TIP3   OH228745   2.114   5.491   0.596 -0.9866  0.1403 -0.1271
 9594TIP3    H128746   2.106   5.504   0.502  0.0493  1.0205 -0.1063
 9594TIP3    H228747   2.206   5.466   0.609 -0.9165  0.8119  0.7321
 9595TIP3   OH228748   6.155   3.475   0.846  0.0701  0.2144  0.0218
 9595TIP3    H128749   6.214   3.455   0.774  0.3128 -0.2541  0.3410
 9595TIP3    H228750   6.069   3.488   0.805  0.4120  0.9996 -0.4543
 9596TIP3   OH228751   0.708   6.315   0.279 -0.1919 -0.1770 -0.2318
 9596TIP3    H128752   0.680   6.243   0.335  1.1674  0.8108  1.8602
 9596TIP3    H228753   0.667   6.392   0.318  2.4124  0.8144  0.7613
 9597TIP3   OH228754   0.533   3.200   5.262 -0.1513  0.0011 -0.3278
 9597TIP3    H128755   0.578   3.116   5.250  2.2324  0.8427  1.8849
 9597TIP3    H228756   0.519   3.207   5.356 -4.1626  0.3362 -0.7450
 9598TIP3   OH228757   6.931   1.690   4.670  0.1717  0.1501  0.4955
 9598TIP3    H128758   6.993   1.762   4.680  2.3042 -1.5663  0.5002
 9598TIP3    H228759   6.942   1.661   4.579 -1.1148  0.1936  0.3044
 9599TIP3   OH228760   4.745   6.518   5.079  0.0702 -0.1157 -0.3687
 9599TIP3    H128761   4.778   6.501   5.167 -0.7557 -3.0129 -0.5359
 9599TIP3    H228762   4.813   6.571   5.037  0.5967  1.1080  1.8710
 9600TIP3   OH228763   4.161   1.490   1.247  0.0235 -0.2718  0.3950
 9600TIP3    H128764   4.111   1.412   1.224  1.1736 -0.9599  0.1165
 9600TIP3    H228765   4.146   1.551   1.174  0.6770 -1.0009 -0.3654
 9601TIP3   OH228766   1.112   2.138   0.146 -0.1204  0.0957  0.3326
 9601TIP3    H128767   1.025   2.178   0.136 -0.0164 -0.1477 -1.9609
 9601TIP3    H228768   1.096   2.044   0.138  0.2522 -0.0126  0.8125
 9602TIP3   OH228769   1.496   4.885   2.230 -0.0704 -0.4317  0.0008
 9602TIP3    H128770   1.423   4.835   2.195 -0.0504  1.3605 -3.0335
 9602TIP3    H228771   1.574   4.837   2.203 -0.0796 -0.7199  0.4769
 9603TIP3   OH228772   6.085   3.897   1.399 -0.1650 -0.0841 -0.1122
 9603TIP3    H128773   6.059   3.973   1.347 -0.5871 -0.5125 -0.5235
 9603TIP3    H228774   6.130   3.840   1.337  0.9422  0.2162  0.3813
 9604TIP3   OH228775   3.198   0.140   2.656 -0.0907  0.0441  0.5802
 9604TIP3    H128776   3.140   0.216   2.665  1.3230  1.0703  1.3824
 9604TIP3    H228777   3.140   0.064   2.669 -1.8583  0.8498 -1.8711
 9605TIP3   OH228778   2.599   2.863   4.905  0.2094 -0.0933  0.4292
 9605TIP3    H128779   2.678   2.858   4.959  0.9570  0.4337 -0.5789
 9605TIP3    H228780   2.570   2.953   4.914 -0.1399 -0.2206  0.5945
 9606TIP3   OH228781   3.608   4.459   0.712  0.3100 -1.3171  0.5064
 9606TIP3    H128782   3.582   4.494   0.797  0.9910  0.5422  0.0119
 9606TIP3    H228783   3.526   4.450   0.664  0.0821 -0.6378  0.7582
 9607TIP3   OH228784   4.179   2.921   4.495  0.3050 -0.3028 -0.0416
 9607TIP3    H128785   4.101   2.967   4.464  0.2223 -0.4669 -0.0806
 9607TIP3    H228786   4.147   2.833   4.519  0.3012 -0.0719  0.8377
 9608TIP3   OH228787   0.248   5.187   5.441 -0.0597 -0.1028 -0.1266
 9608TIP3    H128788   0.198   5.165   5.520  0.4710 -0.3293  0.1529
 9608TIP3    H228789   0.259   5.282   5.444 -1.5254  0.1135 -0.8292
 9609TIP3   OH228790   2.278   5.205   5.097 -0.6827  0.1731  0.0615
 9609TIP3    H128791   2.288   5.201   5.192  0.7705 -1.1224 -0.1159
 9609TIP3    H228792   2.352   5.155   5.062 -2.7540 -1.9114 -1.6767
 9610TIP3   OH228793   5.900   0.414   3.485 -0.0251 -0.6441  0.0291
 9610TIP3    H128794   5.941   0.452   3.562  0.9143  0.7832 -1.1245
 9610TIP3    H228795   5.877   0.489   3.430 -1.0378 -1.6038 -0.9200
 9611TIP3   OH228796   2.678   5.784   2.269  0.0824  0.0739  0.5880
 9611TIP3    H128797   2.654   5.780   2.362 -1.1087  0.7837  0.3301
 9611TIP3    H228798   2.773   5.795   2.269  0.0687  0.2961  1.7343
 9612TIP3   OH228799   1.842   0.307   3.369 -0.6899  0.4787 -0.3243
 9612TIP3    H128800   1.915   0.329   3.428 -1.1294  2.1086 -0.3220
 9612TIP3    H228801   1.884   0.267   3.293  0.1073  0.4118  0.1366
 9613TIP3   OH228802   5.737   1.729   2.261  0.0065 -0.0772  0.2078
 9613TIP3    H128803   5.762   1.710   2.171 -0.0232 -1.7793  0.5386
 9613TIP3    H228804   5.641   1.724   2.261 -0.0245  0.4670  0.2225
 9614TIP3   OH228805   4.180   3.718   3.481 -0.1655 -1.0128 -0.1766
 9614TIP3    H128806   4.204   3.727   3.388  2.2944  0.1330  0.4790
 9614TIP3    H228807   4.262   3.694   3.524 -1.3772 -2.0404  1.6560
 9615TIP3   OH228808   0.295   0.915   0.968  0.3182 -0.4730  0.4096
 9615TIP3    H128809   0.325   0.829   0.943  0.0985 -0.0650 -1.3567
 9615TIP3    H228810   0.335   0.975   0.905 -2.0464  0.3494 -0.4363
 9616TIP3   OH228811   0.933   4.049   4.640 -0.1397  0.0596  0.1222
 9616TIP3    H128812   1.011   3.995   4.654 -0.5410 -0.5650  0.0031
 9616TIP3    H228813   0.927   4.059   4.545 -1.8781 -2.4891 -0.1493
 9617TIP3   OH228814   2.221   5.105   3.354  0.7991  0.2308  0.0879
 9617TIP3    H128815   2.238   5.027   3.407  0.2145 -0.8641 -1.2803
 9617TIP3    H228816   2.267   5.089   3.272 -1.4277  0.1034 -1.2130
 9618TIP3   OH228817   4.337   3.841   0.555 -0.2259  0.0205  0.6691
 9618TIP3    H128818   4.358   3.761   0.603 -0.4932  0.3190  1.2992
 9618TIP3    H228819   4.252   3.868   0.591  0.2226  1.0007  1.0093
 9619TIP3   OH228820   0.141   3.808   4.477 -0.4870  0.2365 -0.0522
 9619TIP3    H128821   0.190   3.741   4.524  0.9889 -0.8759 -2.9167
 9619TIP3    H228822   0.190   3.889   4.492  1.6647 -0.6318 -1.8425
 9620TIP3   OH228823   4.123   6.289   4.651 -0.3466  0.1269  0.0426
 9620TIP3    H128824   4.216   6.269   4.638 -0.2476 -0.4263  1.4099
 9620TIP3    H228825   4.121   6.385   4.659  0.0773  0.1565 -0.1693
 9621TIP3   OH228826   3.813   1.378   0.655 -0.0324 -0.4019  0.2508
 9621TIP3    H128827   3.757   1.453   0.634 -0.2246 -0.6974 -0.2926
 9621TIP3    H228828   3.880   1.414   0.713 -1.1235 -0.1642  1.3976
 9622TIP3   OH228829   0.226   2.371   3.566  0.0497 -0.2451 -0.3119
 9622TIP3    H128830   0.287   2.319   3.513  0.9242  1.3099 -0.8845
 9622TIP3    H228831   0.158   2.308   3.592  0.1149 -1.2958 -2.4387
 9623TIP3   OH228832   7.066   1.947   4.678 -0.1678 -0.0381  0.1584
 9623TIP3    H128833   7.037   2.037   4.696 -1.1585 -0.8967  3.5004
 9623TIP3    H228834   7.162   1.950   4.688 -0.2385  0.5558  0.7013
 9624TIP3   OH228835   2.803   2.095   2.580  0.4221  0.3335  0.0125
 9624TIP3    H128836   2.887   2.140   2.577  0.4809  0.4530  2.0412
 9624TIP3    H228837   2.803   2.049   2.664 -1.1917 -0.3613 -0.3230
 9625TIP3   OH228838   7.075   5.261   3.603  0.1282 -0.0369 -0.0212
 9625TIP3    H128839   7.006   5.302   3.551  0.3467 -2.2458 -2.2576
 9625TIP3    H228840   7.149   5.321   3.597 -0.2315  0.3087 -1.3435
 9626TIP3   OH228841   0.377   0.603   5.467  0.2049  0.1613  0.0278
 9626TIP3    H128842   0.456   0.549   5.477  2.4895  2.6358 -2.6324
 9626TIP3    H228843   0.354   0.594   5.375 -1.4591  1.0507  0.3284
 9627TIP3   OH228844   2.119   4.885   5.435  0.2161 -0.2756  0.3333
 9627TIP3    H128845   2.168   4.887   5.353  0.1862 -2.2322  0.2222
 9627TIP3    H228846   2.185   4.872   5.502  0.3156  1.9580  0.7627
 9628TIP3   OH228847   5.784   0.324   2.385  0.6735  0.6123  0.0050
 9628TIP3    H128848   5.829   0.408   2.377  0.8789  0.4660 -0.3970
 9628TIP3    H228849   5.787   0.304   2.479 -0.3937  1.6051  0.2731
 9629TIP3   OH228850   0.714   5.040   2.522  0.6118  0.1157  0.7074
 9629TIP3    H128851   0.714   4.950   2.489  0.2448  0.7988 -1.2395
 9629TIP3    H228852   0.787   5.082   2.479  1.2452  0.5953  2.1840
 9630TIP3   OH228853   1.490   1.054   0.070 -0.0522 -0.5119  0.3354
 9630TIP3    H128854   1.410   1.045   0.123  0.2902  0.1037  0.9666
 9630TIP3    H228855   1.538   0.973   0.086 -0.1250 -0.4896  0.6759
 9631TIP3   OH228856   4.137   1.627   0.041  0.3457  0.1806 -0.0126
 9631TIP3    H128857   4.187   1.690  -0.012  0.8369 -0.4026 -0.2518
 9631TIP3    H228858   4.157   1.651   0.131  1.7916 -0.5997 -0.0987
 9632TIP3   OH228859   5.899   2.468   1.343 -0.5707  0.3149  0.3937
 9632TIP3    H128860   5.894   2.538   1.277 -1.1696 -0.2489 -0.1688
 9632TIP3    H228861   5.953   2.401   1.302 -1.1136 -0.1258  0.3913
 9633TIP3   OH228862   6.914   0.271   4.654 -0.0016  0.4956  0.3061
 9633TIP3    H128863   6.840   0.227   4.613  0.1786  1.3118 -0.9630
 9633TIP3    H228864   6.874   0.332   4.716 -0.2996 -0.3623  0.9832
 9634TIP3   OH228865   2.102   0.527   2.186 -0.3785  0.6895  0.3500
 9634TIP3    H128866   2.149   0.482   2.257  1.1889 -0.9395 -1.5805
 9634TIP3    H228867   2.164   0.593   2.154 -0.7213  0.8300 -0.0322
 9635TIP3   OH228868   5.123   0.340   5.246  0.1077 -0.4046  0.2549
 9635TIP3    H128869   5.125   0.336   5.341 -1.1505 -0.0875  0.3116
 9635TIP3    H228870   5.149   0.429   5.225 -2.2623  0.4124  0.4679
 9636TIP3   OH228871   6.852   2.889   1.398 -0.0451 -0.0666 -0.1702
 9636TIP3    H128872   6.770   2.918   1.358  0.0800  2.2075  1.0527
 9636TIP3    H228873   6.896   2.970   1.423  1.2395 -1.2947  1.8313
 9637TIP3   OH228874   5.151   2.214   3.508 -0.1161  0.3172  0.0233
 9637TIP3    H128875   5.093   2.289   3.491  0.8222  1.0773  0.0440
 9637TIP3    H228876   5.123   2.147   3.447 -1.5087  0.3849  0.5505
 9638TIP3   OH228877   0.841   4.837   3.404  0.5163 -0.4092 -0.1357
 9638TIP3    H128878   0.919   4.870   3.359  0.2440 -1.8514 -1.7675
 9638TIP3    H228879   0.770   4.892   3.373  0.6664  0.0716  0.3497
 9639TIP3   OH228880   0.896   4.499   5.708  0.2148  0.0614  0.1258
 9639TIP3    H128881   0.921   4.445   5.632 -0.0233 -1.5413  1.1420
 9639TIP3    H228882   0.850   4.574   5.670 -0.8065 -1.2146 -1.2625
 9640TIP3   OH228883   3.091   4.403   4.792  0.0976 -0.3562 -0.3990
 9640TIP3    H128884   3.076   4.447   4.708 -1.3717  0.1377  0.0873
 9640TIP3    H228885   3.078   4.472   4.857  0.4575 -0.9047  0.2614
 9641TIP3   OH228886   4.510   2.744   2.647  0.4136 -0.0518 -0.2695
 9641TIP3    H128887   4.418   2.736   2.671  0.7655 -0.7986  0.9230
 9641TIP3    H228888   4.532   2.660   2.607  0.7049 -0.0701 -0.0777
 9642TIP3   OH228889   2.696   1.891   3.441 -0.2798 -0.0704  0.2021
 9642TIP3    H128890   2.627   1.880   3.375 -0.5213 -0.2353  0.4807
 9642TIP3    H228891   2.766   1.832   3.412  0.1276  0.7613 -0.5789
 9643TIP3   OH228892   3.554   6.763   2.524  0.4238  0.0437  0.5100
 9643TIP3    H128893   3.641   6.724   2.531  1.0136  1.3661  0.7148
 9643TIP3    H228894   3.521   6.765   2.614  0.4724  0.1941  0.5246
 9644TIP3   OH228895   0.834   5.096   0.423 -0.3365  0.0142 -0.5761
 9644TIP3    H128896   0.919   5.066   0.455 -0.1994  0.3228 -0.6403
 9644TIP3    H228897   0.771   5.064   0.487 -0.1768 -0.2609 -0.5553
 9645TIP3   OH228898   5.236   3.075   2.245 -0.0697 -0.1102 -0.0899
 9645TIP3    H128899   5.288   3.090   2.167  0.9429  0.5202  0.6809
 9645TIP3    H228900   5.191   3.159   2.259  1.0750  0.3567  0.9428
 9646TIP3   OH228901   1.467   1.182   4.317  0.4862  0.2673  0.1992
 9646TIP3    H128902   1.516   1.227   4.385 -0.1708  0.7083  0.3915
 9646TIP3    H228903   1.502   1.093   4.317 -1.0855 -0.4671  2.7890
 9647TIP3   OH228904   4.007   6.336   2.088 -0.3408  0.7177 -0.2542
 9647TIP3    H128905   4.032   6.290   2.168  0.6443  0.4152 -0.7122
 9647TIP3    H228906   4.091   6.357   2.046 -0.8582 -0.8558 -2.1771
 9648TIP3   OH228907   6.834   2.642   5.342  0.2718  0.1670 -0.4727
 9648TIP3    H128908   6.891   2.715   5.320  0.9791 -0.3204 -0.3107
 9648TIP3    H228909   6.777   2.676   5.411  1.7398  0.0983  0.8429
 9649TIP3   OH228910   4.926   1.215   4.095  0.3336 -0.0433 -0.0253
 9649TIP3    H128911   4.924   1.248   4.185  0.5702 -0.8158  0.2723
 9649TIP3    H228912   5.018   1.214   4.071  0.1457  2.4147 -1.1608
 9650TIP3   OH228913   1.125   6.192   0.369  0.2943  0.1569  0.4449
 9650TIP3    H128914   1.066   6.252   0.323 -0.9662 -0.3520  1.3459
 9650TIP3    H228915   1.107   6.107   0.330  0.8142  0.0853  0.3636
 9651TIP3   OH228916   4.612   3.408   0.554 -0.2543  0.7892  0.7188
 9651TIP3    H128917   4.582   3.317   0.561  0.6355  0.5145  1.1836
 9651TIP3    H228918   4.614   3.439   0.645 -1.5039  1.6071  0.4840
 9652TIP3   OH228919   6.325   5.936   0.847  0.3537 -0.3286  0.4033
 9652TIP3    H128920   6.304   5.846   0.824 -0.5014 -0.4344  1.5082
 9652TIP3    H228921   6.370   5.971   0.770 -1.9796 -0.7625 -1.2600
 9653TIP3   OH228922   5.802   3.671   0.094 -0.3010  0.1494  0.6088
 9653TIP3    H128923   5.721   3.719   0.112  0.1030  0.2415  2.3215
 9653TIP3    H228924   5.869   3.739   0.092  0.0312 -0.1449  1.3863
 9654TIP3   OH228925   3.259   1.521   3.985  0.1401 -0.4325  0.3952
 9654TIP3    H128926   3.345   1.557   4.009 -0.7679  2.2582 -0.0509
 9654TIP3    H228927   3.268   1.497   3.893  1.1698 -2.8940  1.0442
 9655TIP3   OH228928   5.144   4.887   2.416  0.0807 -0.3642 -0.5265
 9655TIP3    H128929   5.114   4.977   2.403 -2.9266 -1.0726  0.6208
 9655TIP3    H228930   5.208   4.893   2.487 -2.2141  0.6513  1.5934
 9656TIP3   OH228931   6.204   0.085   3.207  0.0746  0.0075 -0.2908
 9656TIP3    H128932   6.172   0.071   3.297  0.9528 -1.1848 -0.1315
 9656TIP3    H228933   6.299   0.079   3.215  0.2369  1.3657 -1.0864
 9657TIP3   OH228934   3.004   4.497   2.041 -0.3172  0.4570 -0.6752
 9657TIP3    H128935   2.953   4.453   1.974 -0.8726  0.1416 -0.0622
 9657TIP3    H228936   3.040   4.426   2.095  1.5683  0.6282 -1.6388
 9658TIP3   OH228937   7.008   5.597   2.654 -0.3520  0.6324 -0.4429
 9658TIP3    H128938   7.033   5.590   2.746 -1.0458  2.0421 -0.1084
 9658TIP3    H228939   7.090   5.614   2.608 -0.0984  0.7381  0.0386
 9659TIP3   OH228940   4.250   4.557   2.255 -0.7628 -0.5627  0.3787
 9659TIP3    H128941   4.266   4.566   2.349 -0.6480 -0.0276  0.3054
 9659TIP3    H228942   4.208   4.639   2.230 -0.4045 -0.5307 -0.1231
 9660TIP3   OH228943   5.400   4.050   5.095  0.1428  0.8305 -0.1773
 9660TIP3    H128944   5.360   4.007   5.020  0.3708 -0.4086  0.3835
 9660TIP3    H228945   5.351   4.132   5.105 -2.1846 -0.5344  0.3618
 9661TIP3   OH228946   0.805   0.609   4.520  0.1732  0.0963  0.0788
 9661TIP3    H128947   0.761   0.692   4.540 -0.4783 -0.4776  1.1333
 9661TIP3    H228948   0.742   0.542   4.547  1.3205 -0.7482  0.7167
 9662TIP3   OH228949   3.292   1.138   2.290 -0.1663 -0.0993  0.2040
 9662TIP3    H128950   3.244   1.092   2.359 -1.1984  0.3324 -0.2203
 9662TIP3    H228951   3.265   1.229   2.299  1.2494  0.3112  0.5180
 9663TIP3   OH228952   3.159   2.817   4.486 -0.3578 -0.7634  0.5528
 9663TIP3    H128953   3.192   2.820   4.576 -0.4709  1.5659  0.5803
 9663TIP3    H228954   3.127   2.728   4.474  0.9114 -1.4985  2.3602
 9664TIP3   OH228955   5.204   0.666   2.928 -0.0002 -0.4920 -0.2734
 9664TIP3    H128956   5.250   0.692   3.007  0.6718 -0.5765 -0.6244
 9664TIP3    H228957   5.214   0.741   2.869  0.2375 -0.7649 -0.5804
 9665TIP3   OH228958   0.660   1.688   4.015 -0.8378 -0.1641 -0.1428
 9665TIP3    H128959   0.702   1.714   4.097  2.4960 -1.2076 -1.3296
 9665TIP3    H228960   0.680   1.759   3.954  0.7636 -1.4003 -1.1489
 9666TIP3   OH228961   6.529   0.640   5.600  0.2576  0.2829 -0.1243
 9666TIP3    H128962   6.518   0.732   5.623  0.5506  0.1795  0.4611
 9666TIP3    H228963   6.523   0.638   5.505  0.0971  0.8862 -0.1307
 9667TIP3   OH228964   0.110   4.339   5.446 -0.2207  0.8077 -0.6481
 9667TIP3    H128965   0.098   4.247   5.468  1.4623 -0.0521 -2.8919
 9667TIP3    H228966   0.160   4.375   5.519 -0.4045 -0.1980 -0.0114
 9668TIP3   OH228967   5.152   0.334   2.730 -0.5635 -0.4070 -0.0902
 9668TIP3    H128968   5.074   0.336   2.785  0.8792 -0.6993  2.0972
 9668TIP3    H228969   5.220   0.377   2.783  0.7932 -0.2186 -1.8842
 9669TIP3   OH228970   2.707   2.654   5.428 -0.1995 -0.3675  0.0804
 9669TIP3    H128971   2.790   2.656   5.381  0.2621  0.5593  0.8987
 9669TIP3    H228972   2.651   2.716   5.382  0.4658  1.0272  1.1066
 9670TIP3   OH228973   6.131   3.206   2.493  0.5302  0.3002  0.7183
 9670TIP3    H128974   6.091   3.207   2.580  1.9533  1.1559  1.3899
 9670TIP3    H228975   6.150   3.298   2.474 -0.1876  0.1700 -0.7084
 9671TIP3   OH228976   3.471   1.060   3.568  0.7442 -0.1039  0.2677
 9671TIP3    H128977   3.412   1.108   3.627  2.3715  0.5171  1.4835
 9671TIP3    H228978   3.450   1.094   3.481 -1.7340 -1.0542  0.4178
 9672TIP3   OH228979   6.189   0.464   4.811  0.2981 -0.1111 -0.1057
 9672TIP3    H128980   6.100   0.482   4.842  0.3277  2.2767 -1.1289
 9672TIP3    H228981   6.245   0.514   4.870  0.8905 -0.8205 -0.0571
 9673TIP3   OH228982   4.062   4.808   0.399 -0.2424  0.4717  0.3034
 9673TIP3    H128983   4.092   4.897   0.381 -1.1240  0.7853  0.3162
 9673TIP3    H228984   4.133   4.768   0.449 -0.1793  1.4433  1.0236
 9674TIP3   OH228985   1.720   3.085   0.418  0.5571 -0.6074 -0.2806
 9674TIP3    H128986   1.775   3.088   0.340  1.7194 -0.4050  0.5195
 9674TIP3    H228987   1.782   3.092   0.491 -0.5413 -0.3075  0.6463
 9675TIP3   OH228988   0.840   0.614   4.969  0.3200  0.0819  0.2582
 9675TIP3    H128989   0.749   0.591   4.950 -0.3685  3.1700 -0.6697
 9675TIP3    H228990   0.835   0.666   5.049  1.2476  0.4763  0.0665
 9676TIP3   OH228991   6.110   2.322   4.469  0.4864 -0.5384 -0.1672
 9676TIP3    H128992   6.121   2.411   4.504  0.7506 -1.1806  1.5107
 9676TIP3    H228993   6.150   2.266   4.536 -0.8311 -2.0095 -0.5544
 9677TIP3   OH228994   1.257   1.367   4.312 -0.4982  0.4694  0.1995
 9677TIP3    H128995   1.330   1.306   4.320  0.6150  1.6615 -0.5702
 9677TIP3    H228996   1.233   1.387   4.403  1.7600  1.9065  0.5513
 9678TIP3   OH228997   1.334   3.922   5.691  0.6238 -0.2865 -0.0583
 9678TIP3    H128998   1.239   3.916   5.693  0.4335  1.3974 -1.2871
 9678TIP3    H228999   1.360   3.878   5.611  0.8280 -0.2890  0.0077
 9679TIP3   OH229000   0.021   0.144   2.538  0.3876  0.3143 -0.0723
 9679TIP3    H129001   0.074   0.069   2.509  1.5751  0.9814  0.3057
 9679TIP3    H229002   0.034   0.210   2.471 -0.9460  0.0845 -0.5878
 9680TIP3   OH229003   5.581   1.475   1.645  0.0362 -0.1299  0.2969
 9680TIP3    H129004   5.527   1.540   1.599 -1.2162 -1.0956  0.3513
 9680TIP3    H229005   5.565   1.393   1.599 -0.0772 -0.8204  1.5092
 9681TIP3   OH229006   1.021   2.828   3.128 -0.0749  0.2175  0.3269
 9681TIP3    H129007   0.996   2.783   3.209 -0.9383 -0.0761 -0.0852
 9681TIP3    H229008   0.940   2.871   3.099 -0.2461 -1.1351 -1.3153
 9682TIP3   OH229009   1.701   3.343   2.924 -0.0706  0.1714  0.4723
 9682TIP3    H129010   1.613   3.304   2.918 -1.9837  4.1987 -1.2286
 9682TIP3    H229011   1.743   3.320   2.842 -1.6806  2.4314 -1.1121
 9683TIP3   OH229012   3.983   2.863   2.790 -0.4970  0.0027 -0.3340
 9683TIP3    H129013   3.970   2.950   2.755  1.8126 -0.6217 -3.1159
 9683TIP3    H229014   3.928   2.806   2.736 -2.3886 -0.3116  1.7827
 9684TIP3   OH229015   3.684   5.259   5.297  0.8917  0.6495 -0.6498
 9684TIP3    H129016   3.676   5.329   5.231 -1.5939  1.3539  0.2529
 9684TIP3    H229017   3.727   5.302   5.372 -2.1144  1.8866  0.5458
 9685TIP3   OH229018   3.458   2.460   2.683 -0.2099  0.1968 -0.1539
 9685TIP3    H129019   3.500   2.382   2.646  1.0113  0.8491 -0.2051
 9685TIP3    H229020   3.531   2.520   2.701 -1.0063  0.8456  1.0485
 9686TIP3   OH229021   6.959   0.574   0.624 -0.1613 -0.0450 -0.1343
 9686TIP3    H129022   6.935   0.506   0.688  1.1454 -0.0021  0.4485
 9686TIP3    H229023   7.019   0.631   0.672  1.6481 -0.5656 -1.6618
 9687TIP3   OH229024   1.104   0.039   5.324 -0.1407  0.1544 -0.6415
 9687TIP3    H129025   1.133  -0.005   5.404  0.5548  0.1034 -0.9162
 9687TIP3    H229026   1.145  -0.011   5.253 -0.0100  0.7407 -0.9901
 9688TIP3   OH229027   2.828   3.336   0.613  0.5834 -0.1165  0.1354
 9688TIP3    H129028   2.740   3.300   0.604  1.1890 -1.6168  0.0011
 9688TIP3    H229029   2.850   3.367   0.525  0.1825  0.3014  0.1782
 9689TIP3   OH229030   1.343   2.330   2.284  0.0033 -1.0763  0.0603
 9689TIP3    H129031   1.249   2.343   2.297 -0.4695 -1.9397 -2.1181
 9689TIP3    H229032   1.357   2.237   2.301  0.4604 -0.9830  0.2275
 9690TIP3   OH229033   3.602   2.917   2.361 -0.1987  0.4608  0.3887
 9690TIP3    H129034   3.520   2.906   2.313 -0.2904 -0.5375  0.7512
 9690TIP3    H229035   3.578   2.904   2.452  0.5571 -1.0883  0.3932
 9691TIP3   OH229036   1.150   0.757   5.298  0.0039  0.5232 -0.2448
 9691TIP3    H129037   1.076   0.733   5.355  0.4101  0.2868  0.1958
 9691TIP3    H229038   1.135   0.849   5.278 -0.7616  0.3084 -0.7010
 9692TIP3   OH229039   1.584   0.349   5.630 -0.3915 -0.0164  0.4168
 9692TIP3    H129040   1.680   0.350   5.635 -0.3749 -1.0905  0.7350
 9692TIP3    H229041   1.562   0.422   5.573  0.7208 -0.6623 -0.9174
 9693TIP3   OH229042   6.025   5.054   5.323 -0.3836  0.0040  0.3384
 9693TIP3    H129043   6.064   5.113   5.387 -0.6134  1.0275 -0.4251
 9693TIP3    H229044   6.070   5.074   5.241 -1.2689 -0.0518 -0.1778
 9694TIP3   OH229045   6.815   1.324   0.346 -0.4471 -0.2393  0.2820
 9694TIP3    H129046   6.760   1.399   0.368  0.4056  0.9706 -1.5151
 9694TIP3    H229047   6.769   1.249   0.383 -1.3068  1.1399  2.1802
 9695TIP3   OH229048   2.540   3.654   2.672 -0.1553 -1.0680  0.2337
 9695TIP3    H129049   2.459   3.620   2.634  0.5024 -0.0840 -2.2721
 9695TIP3    H229050   2.513   3.736   2.716 -0.9083 -2.1555  1.9097
 9696TIP3   OH229051   5.089   4.034   4.950  0.4875 -0.3117  0.1338
 9696TIP3    H129052   5.083   4.049   5.044 -0.2517 -0.3929  0.1057
 9696TIP3    H229053   5.001   4.050   4.917  0.8137  0.0426 -0.5962
 9697TIP3   OH229054   0.816   6.062   5.749  0.2504  0.6125  0.1699
 9697TIP3    H129055   0.855   6.066   5.837  0.1551  0.9544  0.1981
 9697TIP3    H229056   0.777   6.148   5.737 -1.3595 -0.0432  0.5282
 9698TIP3   OH229057   6.700   5.655   0.516 -0.4629 -0.0189 -0.1662
 9698TIP3    H129058   6.747   5.574   0.496  0.9679  0.3943  1.3044
 9698TIP3    H229059   6.763   5.708   0.565 -1.3978  1.9657 -1.0111
 9699TIP3   OH229060   6.285   4.429   1.851  0.0313 -0.1363 -0.5918
 9699TIP3    H129061   6.349   4.443   1.921  0.2006  1.9820 -1.1021
 9699TIP3    H229062   6.332   4.451   1.771 -0.6946 -0.7370 -1.1901
 9700TIP3   OH229063   1.090   3.769   3.770 -0.3626  0.1069  0.0866
 9700TIP3    H129064   1.143   3.692   3.788  1.8172  1.7132  1.0607
 9700TIP3    H229065   1.101   3.785   3.676 -0.5977 -0.5802 -0.0604
 9701TIP3   OH229066   4.711   1.817   4.502  0.0508 -0.2931  0.0745
 9701TIP3    H129067   4.757   1.774   4.430  0.6209 -1.6501  1.1913
 9701TIP3    H229068   4.640   1.865   4.460  2.2575  1.6741 -1.6985
 9702TIP3   OH229069   0.615   0.220   0.235  0.3109  0.2086  0.4396
 9702TIP3    H129070   0.532   0.190   0.198 -0.0216  2.5148 -0.8382
 9702TIP3    H229071   0.621   0.175   0.319 -2.4256  0.2264  0.7393
 9703TIP3   OH229072   5.993   4.052   4.221 -0.4260  0.5764 -0.1143
 9703TIP3    H129073   6.038   3.982   4.174  0.1572  1.2430 -0.5680
 9703TIP3    H229074   5.989   4.125   4.159 -0.0573  1.3119  0.6971
 9704TIP3   OH229075   3.998   4.504   0.434 -0.3100 -0.4685  0.3011
 9704TIP3    H129076   3.964   4.587   0.468 -0.9188 -0.3813 -0.4908
 9704TIP3    H229077   4.093   4.515   0.434 -0.4140  0.6179 -0.7331
 9705TIP3   OH229078   1.549   6.430   5.100 -0.3487  0.0372 -0.0424
 9705TIP3    H129079   1.600   6.397   5.174 -0.4665 -0.9086 -0.3673
 9705TIP3    H229080   1.582   6.381   5.025 -0.6830  0.5196 -0.5094
 9706TIP3   OH229081   1.272   0.807   0.642 -0.2890 -0.2908 -0.3848
 9706TIP3    H129082   1.304   0.717   0.646  1.8036  0.4096 -0.1172
 9706TIP3    H229083   1.189   0.801   0.596 -0.5577 -2.4417  0.2658
 9707TIP3   OH229084   5.632   3.631   3.938 -0.1670  0.3053  1.1786
 9707TIP3    H129085   5.609   3.702   3.878 -0.0009  0.2227  1.0160
 9707TIP3    H229086   5.587   3.554   3.903  0.4673  0.1099  0.7704
 9708TIP3   OH229087   2.057   3.330   5.234 -0.5980  0.2915  0.4780
 9708TIP3    H129088   2.085   3.268   5.166 -0.1741  1.8955 -0.8589
 9708TIP3    H229089   1.991   3.384   5.192 -1.0995  0.6615  1.6853
 9709TIP3   OH229090   6.547   0.672   0.312 -0.4108  0.4445 -0.3562
 9709TIP3    H129091   6.576   0.762   0.324 -0.3469  0.2278  1.4284
 9709TIP3    H229092   6.465   0.667   0.361  0.1142 -0.7202  0.4376
 9710TIP3   OH229093   4.094   6.707   2.766 -0.2061 -0.0467 -0.3924
 9710TIP3    H129094   4.182   6.734   2.792 -0.4263  0.7025 -0.4281
 9710TIP3    H229095   4.064   6.775   2.706 -0.8344 -0.2638 -0.3301
 9711TIP3   OH229096   5.978   6.771   3.122 -0.1231  0.4398  0.3527
 9711TIP3    H129097   5.960   6.677   3.120  0.1464  0.3658  1.2082
 9711TIP3    H229098   6.060   6.780   3.075 -0.2032  0.2622  0.1752
 9712TIP3   OH229099   4.269   6.099   0.113 -0.1896 -0.0055 -0.2422
 9712TIP3    H129100   4.245   6.172   0.056  1.1333  1.3235  0.8055
 9712TIP3    H229101   4.360   6.079   0.090 -0.0130 -0.2153  0.5948
 9713TIP3   OH229102   4.655   2.677   3.730 -0.0518 -0.1133  0.6450
 9713TIP3    H129103   4.600   2.754   3.740  0.1650 -0.1613  2.5386
 9713TIP3    H229104   4.624   2.616   3.797  4.3125  1.1066  4.2962
 9714TIP3   OH229105   2.393   4.520   2.725 -0.2757  0.1590  0.3271
 9714TIP3    H129106   2.343   4.522   2.806 -1.9596 -2.7611 -0.5132
 9714TIP3    H229107   2.454   4.447   2.736  1.9430  1.8877  0.2095
 9715TIP3   OH229108   1.310   4.476   3.314  0.3333  0.1530  0.1047
 9715TIP3    H129109   1.384   4.457   3.373  1.1301  0.2022 -0.8487
 9715TIP3    H229110   1.241   4.509   3.371  0.9746 -0.1074  1.0485
 9716TIP3   OH229111   4.627   1.750   0.419 -0.5872 -0.0521  0.0229
 9716TIP3    H129112   4.716   1.750   0.454 -0.4969 -0.5340 -0.1999
 9716TIP3    H229113   4.572   1.777   0.493 -0.2272  0.5728  0.0700
 9717TIP3   OH229114   2.142   0.866   4.569  0.6828  0.4644 -0.7124
 9717TIP3    H129115   2.080   0.913   4.514  2.1312  2.4507 -0.7400
 9717TIP3    H229116   2.228   0.901   4.544  1.4854  0.6624  2.0266
 9718TIP3   OH229117   1.117   6.590   3.804  0.2067 -0.4186 -0.0583
 9718TIP3    H129118   1.091   6.674   3.766 -0.8539 -0.6855  0.0717
 9718TIP3    H229119   1.039   6.557   3.847  0.1091 -2.2987 -1.5708
 9719TIP3   OH229120   2.329   4.477   3.517 -0.1896 -0.0959 -0.1069
 9719TIP3    H129121   2.401   4.520   3.563  0.5281 -0.3511 -0.9521
 9719TIP3    H229122   2.368   4.397   3.481 -0.8000 -0.0702 -0.8578
 9720TIP3   OH229123   3.214   1.029   5.597 -0.2657  0.0527 -0.5402
 9720TIP3    H129124   3.173   1.008   5.680  0.0992  0.9454 -0.1181
 9720TIP3    H229125   3.212   0.947   5.547 -1.5376 -0.2006 -0.1089
 9721TIP3   OH229126   1.115   3.591   0.020  0.4303 -0.0279  0.2784
 9721TIP3    H129127   1.134   3.685   0.012  0.8415  0.0774  1.9457
 9721TIP3    H229128   1.107   3.577   0.115 -0.7752 -1.4668  0.0004
 9722TIP3   OH229129   5.265   4.262   4.050  0.5303  0.2325 -0.5219
 9722TIP3    H129130   5.297   4.192   3.993  0.2938  1.0203 -1.6286
 9722TIP3    H229131   5.183   4.228   4.086  0.7769 -0.3370 -0.4792
 9723TIP3   OH229132   6.378   0.895   0.929  0.0266 -0.0113  0.5361
 9723TIP3    H129133   6.413   0.846   0.855  0.5278  0.3269  0.5383
 9723TIP3    H229134   6.449   0.956   0.952  0.2306 -0.7240  1.8680
 9724TIP3   OH229135   7.042   5.335   2.898  0.8026  0.2702  0.2680
 9724TIP3    H129136   6.951   5.330   2.928  0.9113  2.3249  1.0891
 9724TIP3    H229137   7.058   5.251   2.855 -1.1048 -0.6001  1.1632
 9725TIP3   OH229138   6.448   1.370   0.256  0.3587  0.0170  0.5099
 9725TIP3    H129139   6.492   1.326   0.183  0.4488  0.9507 -0.0165
 9725TIP3    H229140   6.501   1.347   0.333  1.8823  1.1875 -0.1213
 9726TIP3   OH229141   1.232   1.469   4.580 -0.2103  0.3202 -0.0550
 9726TIP3    H129142   1.137   1.477   4.588 -0.3298 -2.1340  3.1531
 9726TIP3    H229143   1.265   1.487   4.668  2.5089  2.2676 -1.3497
 9727TIP3   OH229144   5.432   2.272   5.547 -0.2407  0.3480 -0.2854
 9727TIP3    H129145   5.377   2.302   5.474  0.6065  1.3400 -0.5419
 9727TIP3    H229146   5.500   2.219   5.505 -2.1568 -2.7439  0.2334
 9728TIP3   OH229147   0.627   3.910   2.776  0.0856 -0.1788  0.3828
 9728TIP3    H129148   0.552   3.863   2.813  1.1908 -2.3121  0.0686
 9728TIP3    H229149   0.589   3.987   2.735 -2.1251 -1.7354 -0.7340
 9729TIP3   OH229150   6.368   3.091   1.754 -0.1406  0.2532 -0.8226
 9729TIP3    H129151   6.315   3.143   1.815  1.6575  0.6920  0.4271
 9729TIP3    H229152   6.304   3.053   1.693 -1.9797 -0.0550  1.2059
 9730TIP3   OH229153   4.066   1.649   1.052  0.7877 -0.5685 -0.2336
 9730TIP3    H129154   3.976   1.632   1.025  0.5247 -1.1521  0.9151
 9730TIP3    H229155   4.067   1.741   1.077  0.3781 -0.6635  0.1587
 9731TIP3   OH229156   4.421   4.892   3.180  0.3969  0.1585 -0.5117
 9731TIP3    H129157   4.509   4.897   3.217  0.0001  1.3491  0.3289
 9731TIP3    H229158   4.388   4.806   3.207  0.3202  0.7862  1.5285
 9732TIP3   OH229159   6.211   5.024   0.929  0.2448  0.0066  0.1666
 9732TIP3    H129160   6.124   5.064   0.937 -0.1192 -1.1392  3.1213
 9732TIP3    H229161   6.272   5.098   0.937 -0.3242  0.9343 -2.7070
 9733TIP3   OH229162   3.249   6.126   1.998  0.1574 -0.1743  0.3694
 9733TIP3    H129163   3.312   6.055   2.012  1.8567  1.2639  0.3838
 9733TIP3    H229164   3.269   6.159   1.910 -0.3010  0.5659  0.5353
 9734TIP3   OH229165   6.596   1.210   0.087 -0.3656 -0.1173 -0.0229
 9734TIP3    H129166   6.682   1.168   0.092  0.1472  1.0166  1.1898
 9734TIP3    H229167   6.602   1.266   0.010  0.5295  1.0483  0.8540
 9735TIP3   OH229168   1.571   4.642   0.850 -0.7009 -0.0430  0.3110
 9735TIP3    H129169   1.498   4.685   0.894 -2.2332 -0.3979 -1.7295
 9735TIP3    H229170   1.640   4.708   0.847 -1.6725  1.0043  0.4813
 9736TIP3   OH229171   4.410   0.125   5.334  0.2897  1.1168  0.4831
 9736TIP3    H129172   4.444   0.086   5.253  0.3770  1.1873  0.4853
 9736TIP3    H229173   4.418   0.055   5.399  0.4187  1.1289  0.4807
 9737TIP3   OH229174   5.217   2.775   3.142  0.0069  0.4486  0.0628
 9737TIP3    H129175   5.217   2.850   3.082 -1.2154  1.7919  1.6492
 9737TIP3    H229176   5.307   2.771   3.175 -0.0715  1.7082  0.4949
 9738TIP3   OH229177   4.412   5.429   4.793  0.2624 -0.3140 -0.2008
 9738TIP3    H129178   4.353   5.492   4.753 -1.2791 -0.2161  2.0974
 9738TIP3    H229179   4.366   5.396   4.870  2.2894 -1.9377  0.4436
 9739TIP3   OH229180   4.764   3.469   1.534  0.4305 -0.1324 -0.0306
 9739TIP3    H129181   4.832   3.537   1.534  1.3583 -1.0398 -0.5724
 9739TIP3    H229182   4.695   3.505   1.478  0.8719  0.4111 -0.2347
 9740TIP3   OH229183   0.285   5.476   5.207 -0.3175 -0.1932  0.0048
 9740TIP3    H129184   0.316   5.564   5.227  0.3471 -0.7141  1.3682
 9740TIP3    H229185   0.214   5.489   5.144  1.2947  1.1546 -1.6430
 9741TIP3   OH229186   3.687   2.131   3.587  0.2929  0.2834 -0.1486
 9741TIP3    H129187   3.610   2.152   3.534 -0.2998 -1.9007 -0.2350
 9741TIP3    H229188   3.689   2.035   3.589  2.1019  0.3112  1.1936
 9742TIP3   OH229189   5.984   1.158   2.784  0.3038 -0.1426  0.2186
 9742TIP3    H129190   6.077   1.167   2.762  0.7433 -2.4559  0.8434
 9742TIP3    H229191   5.947   1.109   2.711 -0.0678 -0.5625  0.6795
 9743TIP3   OH229192   7.003   2.674   4.429  0.2513  0.3617 -0.2051
 9743TIP3    H129193   6.957   2.592   4.446 -0.3288  0.6542 -0.3611
 9743TIP3    H229194   7.091   2.660   4.464  0.4328 -0.6492 -0.9999
 9744TIP3   OH229195   6.366   0.585   0.737 -0.0806  0.4744 -0.1283
 9744TIP3    H129196   6.366   0.529   0.814 -0.4954  2.6564  1.5828
 9744TIP3    H229197   6.278   0.622   0.734  0.5187  1.9907 -0.3562
 9745TIP3   OH229198   6.370   2.076   1.898  0.4493 -0.0295 -0.4729
 9745TIP3    H129199   6.385   2.169   1.920  1.3414 -0.4643  0.9141
 9745TIP3    H229200   6.436   2.057   1.831  0.7168  0.1821 -0.2773
 9746TIP3   OH229201   2.999   0.928   0.151 -0.2528 -0.1623 -0.7505
 9746TIP3    H129202   3.072   0.880   0.191  2.2454  3.8400  0.0364
 9746TIP3    H229203   2.995   0.896   0.061  2.2596 -0.8446 -0.6911
 9747TIP3   OH229204   1.786   0.728   2.028  0.2332 -0.0763 -0.2060
 9747TIP3    H129205   1.838   0.648   2.017  0.7417  0.3026 -0.6180
 9747TIP3    H229206   1.710   0.700   2.078  0.5319 -0.7700 -0.1222
 9748TIP3   OH229207   4.511   5.110   5.017 -0.6025  0.0560 -0.3103
 9748TIP3    H129208   4.522   5.203   5.033  1.7863 -0.1497 -0.5038
 9748TIP3    H229209   4.548   5.095   4.930  0.9974 -1.3892  0.5605
 9749TIP3   OH229210   2.617   4.159   4.356  0.0188  0.7477 -0.1460
 9749TIP3    H129211   2.528   4.157   4.392 -0.1904 -0.7830 -0.6767
 9749TIP3    H229212   2.652   4.072   4.377  0.9658  0.9211 -0.9794
   7.21736   6.80459   5.89294   0.00000   0.00000  -2.40579   0.00000  -2.40579  -3.40229
