Title
  205
    1GLY      N    1   3.553   6.160   1.785 -0.1243  0.3360  0.2261
    1GLY    HT1    2   3.571   6.126   1.688  0.7333  0.2231  0.4133
    1GLY    HT2    3   3.453   6.189   1.787 -0.0958  0.5440 -0.7344
    1GLY    HT3    4   3.564   6.072   1.840 -1.9899  1.0718  1.9090
    1GLY     CA    5   3.659   6.253   1.842  0.1296  0.2130  0.0300
    1GLY    HA1    6   3.628   6.355   1.823  0.0961  0.3605  0.8512
    1GLY    HA2    7   3.760   6.227   1.814 -0.0723  0.7184 -1.2849
    1GLY      C    8   3.666   6.247   1.995 -1.0603 -0.1722  0.4531
    1GLY      O    9   3.632   6.151   2.059  0.3481 -0.1538  0.3107
    2PRO      N   10   3.718   6.350   2.058 -0.4643 -0.0209  0.1522
    2PRO     CD   11   3.787   6.466   1.991 -0.4366 -0.1283 -1.1465
    2PRO    HD1   12   3.712   6.548   1.986  1.4299  1.9292  1.9196
    2PRO    HD2   13   3.832   6.448   1.891  1.3836 -0.0477 -0.3797
    2PRO     CA   14   3.752   6.335   2.197  0.3836 -1.5476  0.1844
    2PRO     HA   15   3.800   6.239   2.204  1.2212 -1.4521 -2.7565
    2PRO     CB   16   3.831   6.466   2.232  0.9168  0.5896 -0.8576
    2PRO    HB1   17   3.908   6.449   2.311 -0.5257  0.7172  0.6232
    2PRO    HB2   18   3.764   6.550   2.259 -1.4935 -2.0863  2.3342
    2PRO     CG   19   3.895   6.504   2.094 -0.1435  0.1335 -0.4497
    2PRO    HG1   20   3.908   6.614   2.098 -2.0734  0.3832  0.1395
    2PRO    HG2   21   3.990   6.456   2.063 -0.3189  0.5194 -1.6102
    2PRO      C   22   3.624   6.325   2.282 -0.3637 -1.0234 -0.1613
    2PRO      O   23   3.520   6.382   2.245 -0.7130  0.2147  0.1759
    3GLY      N   24   3.640   6.271   2.402 -0.3908  0.0683 -0.4094
    3GLY     HN   25   3.732   6.235   2.416  0.2755  2.3902  2.0055
    3GLY     CA   26   3.545   6.269   2.516  0.0108  0.6991  0.7916
    3GLY    HA1   27   3.603   6.247   2.604 -0.1233 -1.2093  0.4311
    3GLY    HA2   28   3.474   6.191   2.496  0.2808  0.1683  1.8317
    3GLY      C   29   3.473   6.399   2.546 -0.9612 -0.8620  0.3641
    3GLY      O   30   3.509   6.515   2.519 -0.3744  0.0018 -0.0861
    4ASN      N   31   3.358   6.377   2.613  1.0406  0.2267  0.5488
    4ASN     HN   32   3.334   6.283   2.633  1.4593  0.3029  1.4952
    4ASN     CA   33   3.260   6.477   2.654  0.0664 -0.3419  0.2910
    4ASN     HA   34   3.290   6.558   2.588 -2.5362 -1.2774 -2.2668
    4ASN     CB   35   3.116   6.441   2.610 -0.1936  0.0556 -0.2247
    4ASN    HB1   36   3.090   6.351   2.668 -1.8004  0.0874 -0.8411
    4ASN    HB2   37   3.117   6.423   2.500 -0.4323 -1.9640  0.0661
    4ASN     CG   38   3.009   6.544   2.634 -0.2721  0.3608 -0.8197
    4ASN    OD1   39   3.042   6.664   2.628  0.4232 -0.5240 -0.0945
    4ASN    ND2   40   2.883   6.501   2.665  0.6351  0.2366 -1.3372
    4ASN   HD21   41   2.817   6.575   2.675  0.1422 -0.0758 -2.1650
    4ASN   HD22   42   2.862   6.404   2.651 -1.0747  0.6929 -2.1869
    4ASN      C   43   3.280   6.499   2.806  0.2252  0.3056  0.9059
    4ASN      O   44   3.274   6.400   2.873 -0.3251  0.2857 -0.3887
    5PRO      N   45   3.301   6.618   2.859 -0.8074  0.1073 -0.0741
    5PRO     CD   46   3.341   6.731   2.779 -0.0251 -0.5060  0.0900
    5PRO    HD1   47   3.246   6.764   2.732  0.9364  0.0598 -1.5530
    5PRO    HD2   48   3.414   6.703   2.700 -0.3610  0.0174 -0.4129
    5PRO     CA   49   3.310   6.646   3.005  0.6513  0.6374 -0.1151
    5PRO     HA   50   3.404   6.598   3.029  1.1409  0.6505 -1.8448
    5PRO     CB   51   3.320   6.797   3.011 -0.7072 -0.1672 -0.2625
    5PRO    HB1   52   3.367   6.824   3.108 -1.9275 -0.9579  0.5802
    5PRO    HB2   53   3.219   6.841   2.997 -0.6023 -0.1154 -0.8970
    5PRO     CG   54   3.397   6.831   2.879  0.8225 -0.5502  0.3262
    5PRO    HG1   55   3.380   6.938   2.856  0.4228 -0.4422  1.0696
    5PRO    HG2   56   3.501   6.806   2.907  0.6498 -0.4346  1.1220
    5PRO      C   57   3.202   6.585   3.102  0.2755  0.3742  0.1932
    5PRO      O   58   3.096   6.541   3.054  0.2225  0.6101  0.3222
    6GLY      N   59   3.234   6.583   3.233 -0.8312  0.5100  0.1150
    6GLY     HN   60   3.329   6.610   3.252 -0.4056 -1.5272  1.1081
    6GLY     CA   61   3.157   6.536   3.340  0.0753 -0.2911 -0.9516
    6GLY    HA1   62   3.225   6.550   3.422  1.7421  0.3991 -2.3985
    6GLY    HA2   63   3.131   6.432   3.323 -0.7643 -0.0564 -1.1558
    6GLY      C   64   3.038   6.609   3.371  0.1985 -0.2849 -0.1972
    6GLY      O   65   2.993   6.707   3.311 -0.2417  0.7363  0.4547
    7SER      N   66   2.964   6.571   3.471 -0.6453 -0.3840 -0.0080
    7SER     HN   67   2.999   6.494   3.523  0.2007 -1.4155 -1.9847
    7SER     CA   68   2.830   6.615   3.507  0.3625 -0.6288 -0.4417
    7SER     HA   69   2.792   6.687   3.436  1.0276 -0.1492 -0.3202
    7SER     CB   70   2.713   6.507   3.490 -0.0089 -0.0199 -0.3913
    7SER    HB1   71   2.617   6.555   3.518 -0.8798 -0.9085 -1.7096
    7SER    HB2   72   2.722   6.424   3.563 -1.2989  0.2989  0.1731
    7SER     OG   73   2.706   6.458   3.359  0.1926  0.1063  0.5045
    7SER    HG1   74   2.688   6.532   3.301 -2.1288  0.3712  1.4223
    7SER      C   75   2.826   6.671   3.646  0.6538  0.7289  0.7601
    7SER      O   76   2.858   6.605   3.746  0.0143 -0.2280 -0.0270
    8GLY      N   77   2.785   6.796   3.649 -0.2516 -0.1315  0.2073
    8GLY     HN   78   2.776   6.847   3.565  1.2590  1.2570  0.8213
    8GLY     CA   79   2.797   6.883   3.766  1.0293  0.3491 -0.4446
    8GLY    HA1   80   2.757   6.972   3.719 -0.7488 -1.4508 -2.5841
    8GLY    HA2   81   2.902   6.889   3.790  0.9197 -1.2349  0.6310
    8GLY      C   82   2.715   6.852   3.890 -0.3738 -0.0530  0.1602
    8GLY      O   83   2.630   6.760   3.886 -0.0679 -0.5131 -0.2810
    9PRO      N   84   2.736   6.929   3.996 -0.0733 -0.6847  0.1628
    9PRO     CD   85   2.856   7.012   4.015  0.7434 -0.0660 -0.1651
    9PRO    HD1   86   2.855   7.082   3.928 -1.3020 -1.5874 -1.4724
    9PRO    HD2   87   2.942   6.942   4.022  0.3429 -0.4673  0.9029
    9PRO     CA   88   2.663   6.901   4.117 -0.5248 -0.0184  0.0508
    9PRO     HA   89   2.656   6.795   4.134  0.9878 -0.1867 -0.2134
    9PRO     CB   90   2.754   6.956   4.222 -0.5192 -0.1727 -0.5385
    9PRO    HB1   91   2.821   6.880   4.268  1.1977  1.3255 -0.4410
    9PRO    HB2   92   2.702   6.995   4.313  0.3827  0.6368 -0.3520
    9PRO     CG   93   2.833   7.073   4.151  0.3643 -0.5429  0.1126
    9PRO    HG1   94   2.779   7.169   4.134  0.0253 -0.7681 -0.1235
    9PRO    HG2   95   2.923   7.092   4.212  0.4383  0.2249 -0.2196
    9PRO      C   96   2.526   6.965   4.106 -0.2496 -0.3899  0.5408
    9PRO      O   97   2.442   6.926   4.187 -0.1623  0.6289 -0.3007
   10GLY      N   98   2.504   7.067   4.015 -0.4306 -0.1161 -0.0287
   10GLY     HN   99   2.581   7.090   3.956  0.4259  0.2980  1.2238
   10GLY     CA  100   2.373   7.121   3.986 -0.5629  0.0374  0.7438
   10GLY    HA1  101   2.393   7.215   3.938 -0.4093  0.1420  1.0148
   10GLY    HA2  102   2.318   7.133   4.078 -0.2314 -1.2880  1.1379
   10GLY      C  103   2.288   7.040   3.893  0.1375  1.0606  0.1614
   10GLY      O  104   2.323   6.928   3.850 -0.3703 -0.3146 -0.4011
   11ASP      N  105   2.176   7.101   3.848 -0.5035  0.5292 -0.7193
   11ASP     HN  106   2.154   7.190   3.886 -1.0026  1.0214 -2.1325
   11ASP     CA  107   2.075   7.051   3.759 -0.9726  0.5225  0.4601
   11ASP     HA  108   2.036   6.959   3.800 -0.5285 -0.3046 -0.9003
   11ASP     CB  109   1.963   7.156   3.746  0.4565 -0.0425  0.2581
   11ASP    HB1  110   1.879   7.127   3.679 -0.1479 -1.8468  1.7115
   11ASP    HB2  111   2.000   7.250   3.700 -1.9152  0.0488 -1.7149
   11ASP     CG  112   1.899   7.183   3.881  0.6296  1.1454 -0.1016
   11ASP    OD1  113   1.939   7.272   3.955 -0.3402 -0.5220  0.1440
   11ASP    OD2  114   1.806   7.108   3.919  0.2512  0.3632  0.0813
   11ASP      C  115   2.124   6.999   3.619 -0.6037  0.0281 -0.1923
   11ASP      O  116   2.239   7.030   3.577 -0.3334  0.3286 -0.4762
   12PRO      N  117   2.044   6.933   3.537  0.4914  0.0518  0.5852
   12PRO     CD  118   1.911   6.886   3.579  0.3011  0.5757 -0.5633
   12PRO    HD1  119   1.830   6.957   3.553  0.1031  0.2961 -0.7209
   12PRO    HD2  120   1.896   6.873   3.688  1.3473  1.2586 -0.3288
   12PRO     CA  121   2.086   6.853   3.421  0.9378  0.1355 -0.8990
   12PRO     HA  122   2.154   6.777   3.456  0.4721 -1.6832 -3.6097
   12PRO     CB  123   1.959   6.779   3.376  0.3973  0.0642 -0.4651
   12PRO    HB1  124   1.979   6.673   3.349 -1.9218 -0.9453  1.4557
   12PRO    HB2  125   1.899   6.837   3.303  1.3295 -1.1904 -2.3018
   12PRO     CG  126   1.888   6.754   3.507  0.3248 -0.2455  0.3439
   12PRO    HG1  127   1.778   6.742   3.497  0.3193  1.0951 -1.7898
   12PRO    HG2  128   1.929   6.671   3.568  1.6572  0.8420  0.9963
   12PRO      C  129   2.163   6.923   3.312 -0.6971 -1.1697 -0.7221
   12PRO      O  130   2.119   7.026   3.268  0.0970  0.1634 -0.2781
   13GLY      N  131   2.274   6.872   3.270 -0.1150  0.2157  0.1586
   13GLY     HN  132   2.300   6.781   3.301 -0.9955  0.2840  1.1398
   13GLY     CA  133   2.348   6.929   3.162 -0.3552 -0.4019  0.2124
   13GLY    HA1  134   2.292   6.957   3.074 -0.0188  2.0954  0.7382
   13GLY    HA2  135   2.424   6.855   3.139  3.2093  2.5684  1.4592
   13GLY      C  136   2.429   7.047   3.195  0.1392  0.0178  0.2112
   13GLY      O  137   2.464   7.118   3.101 -0.2476 -0.2349 -0.0818
   14SER      N  138   2.444   7.071   3.323 -0.5212 -0.3964 -0.3693
   14SER     HN  139   2.388   7.026   3.392 -0.7569 -0.1873 -0.4216
   14SER     CA  140   2.529   7.181   3.376 -0.1244  0.1255  0.3297
   14SER     HA  141   2.544   7.260   3.304 -1.9504  0.9795  0.8192
   14SER     CB  142   2.458   7.254   3.490 -0.1872 -0.1468  0.2136
   14SER    HB1  143   2.355   7.270   3.451  0.0796 -1.1269 -0.9388
   14SER    HB2  144   2.498   7.357   3.503  1.4230 -0.5679 -1.0687
   14SER     OG  145   2.450   7.187   3.615 -0.0452 -0.2218  0.9521
   14SER    HG1  146   2.370   7.135   3.617 -0.2484 -0.0242 -0.5848
   14SER      C  147   2.670   7.127   3.404 -0.2273  0.1905 -0.1424
   14SER      O  148   2.689   7.010   3.433  0.3920  0.0018 -0.2315
   15GLY      N  149   2.776   7.209   3.388  0.0794  0.0543  0.5725
   15GLY     HN  150   2.771   7.307   3.371  3.4725  0.1370 -0.7288
   15GLY     CA  151   2.917   7.177   3.397  0.4257  0.3791 -0.3351
   15GLY    HA1  152   2.973   7.268   3.407  0.6452  0.0485  2.0258
   15GLY    HA2  153   2.932   7.122   3.304  0.9020 -0.0147 -0.0307
   15GLY      C  154   2.977   7.099   3.505  0.1689  0.9648 -0.1269
   15GLY      O  155   2.923   7.103   3.617  0.0817 -0.3774 -0.2720
   16PRO      N  156   3.082   7.012   3.487  0.2583 -0.5445 -0.5160
   16PRO     CD  157   3.151   6.989   3.363 -0.2265 -0.1560  0.0694
   16PRO    HD1  158   3.175   7.092   3.329 -0.6603  0.4395  1.4849
   16PRO    HD2  159   3.087   6.928   3.297 -0.5119 -0.9471  1.0537
   16PRO     CA  160   3.150   6.963   3.604 -0.0951 -0.0981 -0.5163
   16PRO     HA  161   3.090   6.880   3.638 -0.8321  0.6201 -0.0055
   16PRO     CB  162   3.279   6.898   3.553  0.0707  0.9225  0.4215
   16PRO    HB1  163   3.283   6.792   3.588 -1.5577  0.5051 -0.5626
   16PRO    HB2  164   3.371   6.949   3.588  0.6437 -0.3806  0.8894
   16PRO     CG  165   3.271   6.905   3.405  0.1548 -0.2857  0.3697
   16PRO    HG1  166   3.365   6.947   3.362  0.6768 -0.8852  0.9002
   16PRO    HG2  167   3.271   6.803   3.361  0.7323 -0.4765  0.7929
   16PRO      C  168   3.180   7.060   3.715  0.2576 -0.1971 -0.1279
   16PRO      O  169   3.226   7.173   3.694 -0.3199 -0.0142  0.5853
   17GLY      N  170   3.167   7.009   3.840  0.1091  0.4657 -0.2412
   17GLY     HN  171   3.130   6.916   3.843  1.8799 -0.3125 -0.7633
   17GLY     CA  172   3.198   7.081   3.957  0.1026  0.2512 -0.0552
   17GLY    HA1  173   3.161   7.017   4.036 -0.7049  2.6519  1.6023
   17GLY    HA2  174   3.149   7.177   3.959  0.8661  0.6362  0.4603
   17GLY      C  175   3.343   7.095   3.980  0.0866  0.5760  0.5088
   17GLY      O  176   3.426   7.028   3.918 -0.1847  0.1536 -0.1412
   18ASN      N  177   3.380   7.166   4.086  0.0100 -0.5946  0.1703
   18ASN     HN  178   3.324   7.231   4.137  2.0677  2.5288 -1.2646
   18ASN     CA  179   3.519   7.176   4.132 -0.6443  0.2702 -0.0826
   18ASN     HA  180   3.579   7.226   4.056 -0.7352 -1.2588 -1.2062
   18ASN     CB  181   3.526   7.258   4.261  0.8828  0.0950 -0.1645
   18ASN    HB1  182   3.629   7.258   4.303  0.1890 -1.0240  1.6253
   18ASN    HB2  183   3.457   7.222   4.340  2.5499  0.2661  1.4559
   18ASN     CG  184   3.481   7.400   4.235  0.0096 -0.6210  0.1077
   18ASN    OD1  185   3.374   7.441   4.289 -0.0342 -0.3411 -0.7164
   18ASN    ND2  186   3.560   7.478   4.160  0.7849  0.3355 -0.3960
   18ASN   HD21  187   3.522   7.559   4.115 -0.5011  0.1569  0.3255
   18ASN   HD22  188   3.656   7.457   4.143  1.1638  1.7616 -0.1124
   18ASN      C  189   3.573   7.042   4.168 -0.0788  0.5557  0.2334
   18ASN      O  190   3.517   6.971   4.249 -0.2107  0.4475 -0.6429
   19PRO      N  191   3.686   6.998   4.101  0.5006 -0.2722  0.0484
   19PRO     CD  192   3.739   7.048   3.973 -0.5362  0.7402  0.1980
   19PRO    HD1  193   3.824   7.116   3.997  0.8602 -1.0910  0.6676
   19PRO    HD2  194   3.663   7.088   3.903 -0.5528  1.6040  0.6932
   19PRO     CA  195   3.717   6.858   4.119 -0.1771 -0.0873  0.0234
   19PRO     HA  196   3.625   6.803   4.108 -0.6292  0.4182  1.0809
   19PRO     CB  197   3.829   6.836   4.016 -1.3278  0.1105  0.3715
   19PRO    HB1  198   3.838   6.728   3.990  2.0711  1.0480 -3.3458
   19PRO    HB2  199   3.922   6.873   4.064 -0.8406 -1.7230  0.9538
   19PRO     CG  200   3.794   6.925   3.899  0.7219 -1.0182  0.4094
   19PRO    HG1  201   3.875   6.947   3.826 -0.4293 -1.9400 -1.1982
   19PRO    HG2  202   3.710   6.876   3.845 -0.8912  2.1521 -0.2343
   19PRO      C  203   3.770   6.823   4.264  0.7888  0.6895 -0.0075
   19PRO    OT1  204   3.856   6.894   4.315  0.3697  0.0952 -0.0124
   19PRO    OT2  205   3.744   6.712   4.320 -0.1408  0.0357  0.0131
   9.56375   9.01679   7.80877   0.00000   0.00000  -3.18792   0.00000  -3.18792  -4.50839
