Title t= 323.00000 step= 161500
44469
    1GLY      N    1   5.916   5.466   3.696
    1GLY    HT1    2   5.834   5.529   3.711
    1GLY    HT2    3   5.980   5.491   3.774
    1GLY    HT3    4   5.881   5.368   3.703
    1GLY     CA    5   5.981   5.508   3.570
    1GLY    HA1    6   5.931   5.458   3.488
    1GLY    HA2    7   6.087   5.489   3.576
    1GLY      C    8   5.954   5.658   3.545
    1GLY      O    9   5.896   5.727   3.635
    2PRO      N   10   5.979   5.711   3.430
    2PRO     CD   11   6.051   5.650   3.324
    2PRO    HD1   12   6.006   5.551   3.302
    2PRO    HD2   13   6.160   5.635   3.343
    2PRO     CA   14   5.929   5.845   3.398
    2PRO     HA   15   5.968   5.908   3.477
    2PRO     CB   16   5.987   5.877   3.262
    2PRO    HB1   17   6.084   5.932   3.264
    2PRO    HB2   18   5.916   5.935   3.200
    2PRO     CG   19   6.021   5.737   3.203
    2PRO    HG1   20   5.932   5.689   3.157
    2PRO    HG2   21   6.098   5.746   3.124
    2PRO      C   22   5.781   5.868   3.408
    2PRO      O   23   5.752   5.989   3.422
    3GLY      N   24   5.690   5.774   3.403
    3GLY     HN   25   5.720   5.680   3.388
    3GLY     CA   26   5.546   5.796   3.402
    3GLY    HA1   27   5.498   5.703   3.376
    3GLY    HA2   28   5.520   5.882   3.342
    3GLY      C   29   5.479   5.823   3.535
    3GLY      O   30   5.370   5.883   3.540
    4ASN      N   31   5.546   5.788   3.648
    4ASN     HN   32   5.638   5.750   3.647
    4ASN     CA   33   5.479   5.797   3.780
    4ASN     HA   34   5.388   5.743   3.756
    4ASN     CB   35   5.565   5.728   3.898
    4ASN    HB1   36   5.507   5.733   3.992
    4ASN    HB2   37   5.660   5.783   3.909
    4ASN     CG   38   5.600   5.591   3.860
    4ASN    OD1   39   5.699   5.562   3.799
    4ASN    ND2   40   5.519   5.494   3.894
    4ASN   HD21   41   5.545   5.406   3.855
    4ASN   HD22   42   5.479   5.505   3.985
    4ASN      C   43   5.452   5.944   3.818
    4ASN      O   44   5.531   6.033   3.781
    5PRO      N   45   5.341   5.981   3.882
    5PRO     CD   46   5.224   5.891   3.876
    5PRO    HD1   47   5.253   5.801   3.934
    5PRO    HD2   48   5.211   5.868   3.768
    5PRO     CA   49   5.312   6.104   3.960
    5PRO     HA   50   5.303   6.181   3.885
    5PRO     CB   51   5.172   6.067   4.025
    5PRO    HB1   52   5.111   6.155   4.055
    5PRO    HB2   53   5.196   6.006   4.115
    5PRO     CG   54   5.100   5.974   3.927
    5PRO    HG1   55   5.007   5.928   3.966
    5PRO    HG2   56   5.073   6.037   3.840
    5PRO      C   57   5.416   6.177   4.038
    5PRO      O   58   5.512   6.106   4.074
    6GLY      N   59   5.413   6.308   4.056
    6GLY     HN   60   5.330   6.354   4.024
    6GLY     CA   61   5.517   6.383   4.133
    6GLY    HA1   62   5.524   6.487   4.106
    6GLY    HA2   63   5.613   6.336   4.120
    6GLY      C   64   5.489   6.375   4.279
    6GLY      O   65   5.394   6.310   4.318
    7PRO      N   66   5.558   6.445   4.371
    7PRO     CD   67   5.647   6.548   4.327
    7PRO    HD1   68   5.574   6.629   4.307
    7PRO    HD2   69   5.714   6.511   4.246
    7PRO     CA   70   5.518   6.453   4.508
    7PRO     HA   71   5.551   6.361   4.554
    7PRO     CB   72   5.598   6.577   4.554
    7PRO    HB1   73   5.630   6.566   4.660
    7PRO    HB2   74   5.536   6.669   4.547
    7PRO     CG   75   5.718   6.594   4.457
    7PRO    HG1   76   5.762   6.696   4.449
    7PRO    HG2   77   5.800   6.522   4.477
    7PRO      C   78   5.375   6.463   4.553
    7PRO      O   79   5.297   6.540   4.497
    8GLY      N   80   5.332   6.402   4.670
    8GLY     HN   81   5.408   6.370   4.725
    8GLY     CA   82   5.193   6.392   4.726
    8GLY    HA1   83   5.138   6.485   4.725
    8GLY    HA2   84   5.196   6.354   4.827
    8GLY      C   85   5.119   6.283   4.650
    8GLY      O   86   5.162   6.226   4.550
    9ASN      N   87   4.999   6.248   4.693
    9ASN     HN   88   4.956   6.285   4.775
    9ASN     CA   89   4.918   6.143   4.631
    9ASN     HA   90   4.983   6.062   4.602
    9ASN     CB   91   4.807   6.098   4.733
    9ASN    HB1   92   4.733   6.029   4.686
    9ASN    HB2   93   4.750   6.181   4.780
    9ASN     CG   94   4.871   6.015   4.846
    9ASN    OD1   95   4.994   6.011   4.871
    9ASN    ND2   96   4.787   5.938   4.921
    9ASN   HD21   97   4.823   5.874   4.989
    9ASN   HD22   98   4.693   5.971   4.935
    9ASN      C   99   4.842   6.195   4.500
    9ASN      O  100   4.795   6.310   4.500
   10PRO      N  101   4.832   6.126   4.384
   10PRO     CD  102   4.889   5.994   4.358
   10PRO    HD1  103   4.905   5.926   4.444
   10PRO    HD2  104   4.989   6.010   4.313
   10PRO     CA  105   4.735   6.164   4.285
   10PRO     HA  106   4.756   6.263   4.249
   10PRO     CB  107   4.738   6.051   4.174
   10PRO    HB1  108   4.788   6.088   4.082
   10PRO    HB2  109   4.637   6.025   4.135
   10PRO     CG  110   4.803   5.932   4.243
   10PRO    HG1  111   4.724   5.865   4.282
   10PRO    HG2  112   4.872   5.878   4.175
   10PRO      C  113   4.592   6.163   4.333
   10PRO      O  114   4.558   6.074   4.415
   11GLY      N  115   4.512   6.261   4.296
   11GLY     HN  116   4.542   6.330   4.232
   11GLY     CA  117   4.381   6.274   4.351
   11GLY    HA1  118   4.359   6.380   4.344
   11GLY    HA2  119   4.379   6.232   4.450
   11GLY      C  120   4.272   6.216   4.265
   11GLY      O  121   4.308   6.134   4.176
   12PRO      N  122   4.147   6.242   4.297
   12PRO     CD  123   4.100   6.273   4.434
   12PRO    HD1  124   4.085   6.383   4.442
   12PRO    HD2  125   4.171   6.242   4.513
   12PRO     CA  126   4.048   6.155   4.230
   12PRO     HA  127   4.083   6.079   4.161
   12PRO     CB  128   3.970   6.088   4.346
   12PRO    HB1  129   4.021   6.005   4.400
   12PRO    HB2  130   3.871   6.053   4.309
   12PRO     CG  131   3.960   6.208   4.446
   12PRO    HG1  132   3.874   6.271   4.417
   12PRO    HG2  133   3.945   6.174   4.551
   12PRO      C  134   3.966   6.241   4.127
   12PRO      O  135   3.886   6.175   4.062
   13GLY      N  136   3.982   6.370   4.119
   13GLY     HN  137   4.045   6.424   4.174
   13GLY     CA  138   3.906   6.448   4.018
   13GLY    HA1  139   3.887   6.387   3.931
   13GLY    HA2  140   3.963   6.533   3.984
   13GLY      C  141   3.781   6.487   4.080
   13GLY      O  142   3.701   6.417   4.142
   14ASN      N  143   3.747   6.618   4.053
   14ASN     HN  144   3.807   6.675   3.998
   14ASN     CA  145   3.621   6.679   4.095
   14ASN     HA  146   3.615   6.668   4.203
   14ASN     CB  147   3.647   6.829   4.054
   14ASN    HB1  148   3.647   6.847   3.944
   14ASN    HB2  149   3.749   6.853   4.091
   14ASN     CG  150   3.559   6.937   4.116
   14ASN    OD1  151   3.596   6.990   4.221
   14ASN    ND2  152   3.448   6.976   4.052
   14ASN   HD21  153   3.394   7.047   4.097
   14ASN   HD22  154   3.437   6.956   3.955
   14ASN      C  155   3.495   6.611   4.028
   14ASN      O  156   3.508   6.558   3.919
   15PRO      N  157   3.375   6.604   4.085
   15PRO     CD  158   3.363   6.626   4.228
   15PRO    HD1  159   3.392   6.727   4.262
   15PRO    HD2  160   3.425   6.548   4.276
   15PRO     CA  161   3.258   6.539   4.026
   15PRO     HA  162   3.290   6.448   3.976
   15PRO     CB  163   3.174   6.495   4.147
   15PRO    HB1  164   3.219   6.398   4.177
   15PRO    HB2  165   3.068   6.482   4.117
   15PRO     CG  166   3.210   6.598   4.251
   15PRO    HG1  167   3.165   6.698   4.232
   15PRO    HG2  168   3.185   6.581   4.357
   15PRO      C  169   3.176   6.616   3.938
   15PRO    OT1  170   3.090   6.550   3.874
   15PRO    OT2  171   3.180   6.739   3.917
   16LIT    LIT  172   2.031   6.607   2.031
   17LIT    LIT  173   5.184   0.784   1.992
   18LIT    LIT  174   5.594   3.698   6.681
   19LIT    LIT  175   1.989   5.436   4.063
   20LIT    LIT  176   1.722   0.393   4.064
   21LIT    LIT  177   1.655   5.652   6.152
   22LIT    LIT  178   5.165   7.135   4.636
   23LIT    LIT  179   3.618   0.454   5.335
   24LIT    LIT  180   4.009   5.460   1.744
   25LIT    LIT  181   6.714   5.982   4.983
   26LIT    LIT  182   7.019   6.848   1.398
   27LIT    LIT  183   1.222   3.463   0.185
   28LIT    LIT  184   7.997   4.043   6.402
   29LIT    LIT  185   1.064   4.282   6.650
   30LIT    LIT  186   4.005   1.149   4.884
   31LIT    LIT  187   0.050   2.124   1.630
   32LIT    LIT  188   5.938   1.996   3.370
   33LIT    LIT  189   7.996   5.394   3.127
   34LIT    LIT  190   1.039   0.488   3.326
   35LIT    LIT  191   7.027   5.907   3.167
   36LIT    LIT  192   5.373   4.446   0.886
   37LIT    LIT  193   6.220   5.151   0.090
   38LIT    LIT  194   2.886   1.266   2.407
   39LIT    LIT  195   4.844   5.658   5.705
   40LIT    LIT  196   6.815   1.671   6.672
   41LIT    LIT  197   1.064   5.993   6.228
   42LIT    LIT  198   0.848   2.160   4.150
   43LIT    LIT  199   3.012   6.705   3.810
   44LIT    LIT  200   4.468   3.773   3.382
   45LIT    LIT  201   2.157   2.888   3.862
   46LIT    LIT  202   5.264   4.884   6.261
   47LIT    LIT  203   5.401   4.638   4.671
   48LIT    LIT  204   6.062   1.168   1.199
   49LIT    LIT  205   1.210   3.127   3.607
   50LIT    LIT  206   4.195   4.497   0.728
   51LIT    LIT  207   3.871   0.843   2.497
   52LIT    LIT  208   5.088   4.949   2.094
   53LIT    LIT  209   2.385   0.843   1.929
   54LIT    LIT  210   6.108   0.108   0.931
   55LIT    LIT  211   8.162   4.521   0.022
   56LIT    LIT  212   0.619   2.919   0.074
   57LIT    LIT  213   7.046   4.929   3.933
   58CLA    CLA  214   3.694   1.487   2.444
   59CLA    CLA  215   5.879   0.561   1.856
   60CLA    CLA  216   0.885   0.437   4.281
   61CLA    CLA  217   4.833   4.539   4.267
   62CLA    CLA  218   5.730   7.584   0.673
   63CLA    CLA  219   8.175   6.956   2.452
   64CLA    CLA  220   1.828   5.680   4.651
   65CLA    CLA  221   3.582   1.504   5.989
   66CLA    CLA  222   8.289   7.460   0.375
   67CLA    CLA  223   7.520   4.621   3.158
   68CLA    CLA  224   1.359   5.630   1.670
   69CLA    CLA  225   4.716   5.216   4.048
   70CLA    CLA  226   4.290   1.256   5.176
   71CLA    CLA  227   7.264   4.898   4.355
   72CLA    CLA  228   5.188   4.284   1.942
   73CLA    CLA  229   0.458   2.968   3.382
   74CLA    CLA  230   2.115   2.849   3.651
   75CLA    CLA  231   1.743   4.278   4.999
   76CLA    CLA  232   3.439   1.693   4.186
   77CLA    CLA  233   6.153   5.850   5.382
   78CLA    CLA  234   0.469   0.138   6.286
   79CLA    CLA  235   2.662   7.000   3.738
   80CLA    CLA  236   1.270   4.455   4.143
   81CLA    CLA  237   4.328   2.737   0.764
   82CLA    CLA  238   0.599   1.936   3.820
   83CLA    CLA  239   4.825   6.209   1.303
   84CLA    CLA  240   1.952   6.132   2.016
   85CLA    CLA  241   7.973   2.338   1.340
   86CLA    CLA  242   4.222   7.722   4.684
   87CLA    CLA  243   6.426   2.430   1.551
   88CLA    CLA  244   4.042   5.517   4.081
   89CLA    CLA  245   7.029   3.936   2.718
   90CLA    CLA  246   5.449   3.432   0.180
   91CLA    CLA  247   2.710   0.867   1.510
   92CLA    CLA  248   1.173   4.460   6.540
   93CLA    CLA  249   3.911   2.274   5.936
   94CLA    CLA  250   3.083   3.785   3.715
   95CLA    CLA  251   1.503   1.282   5.362
   96CLA    CLA  252   3.217   4.736   6.449
   97CLA    CLA  253   8.166   5.337   0.185
   98CLA    CLA  254   0.144   5.511   5.748
   99CLA    CLA  255   6.970   2.730   0.579
  100TIP3   OH2  256   4.842   0.627   3.915
  100TIP3    H1  257   4.828   0.721   3.906
  100TIP3    H2  258   4.797   0.589   3.840
  101TIP3   OH2  259   5.938   3.331   3.148
  101TIP3    H1  260   5.859   3.334   3.094
  101TIP3    H2  261   6.008   3.362   3.090
  102TIP3   OH2  262   4.682   1.283   1.297
  102TIP3    H1  263   4.696   1.198   1.339
  102TIP3    H2  264   4.616   1.326   1.350
  103TIP3   OH2  265   3.059   3.784   5.590
  103TIP3    H1  266   3.077   3.878   5.583
  103TIP3    H2  267   3.005   3.764   5.514
  104TIP3   OH2  268   1.509   4.528   0.262
  104TIP3    H1  269   1.556   4.506   0.182
  104TIP3    H2  270   1.577   4.533   0.329
  105TIP3   OH2  271   7.194   2.477   6.351
  105TIP3    H1  272   7.267   2.426   6.317
  105TIP3    H2  273   7.119   2.452   6.297
  106TIP3   OH2  274   3.411   6.831   3.786
  106TIP3    H1  275   3.343   6.784   3.835
  106TIP3    H2  276   3.374   6.843   3.699
  107TIP3   OH2  277   3.284   1.217   2.976
  107TIP3    H1  278   3.289   1.222   2.881
  107TIP3    H2  279   3.340   1.143   2.999
  108TIP3   OH2  280   6.812   0.426   5.628
  108TIP3    H1  281   6.869   0.393   5.698
  108TIP3    H2  282   6.863   0.496   5.587
  109TIP3   OH2  283   5.706   5.643   3.095
  109TIP3    H1  284   5.627   5.606   3.056
  109TIP3    H2  285   5.725   5.721   3.041
  110TIP3   OH2  286   2.377   0.431   0.448
  110TIP3    H1  287   2.325   0.471   0.378
  110TIP3    H2  288   2.335   0.460   0.529
  111TIP3   OH2  289   7.934   0.112   5.100
  111TIP3    H1  290   7.924   0.201   5.063
  111TIP3    H2  291   7.913   0.054   5.027
  112TIP3   OH2  292   6.637   4.718   1.715
  112TIP3    H1  293   6.670   4.798   1.676
  112TIP3    H2  294   6.542   4.727   1.713
  113TIP3   OH2  295   8.313   1.552   5.538
  113TIP3    H1  296   8.299   1.473   5.487
  113TIP3    H2  297   8.312   1.623   5.474
  114TIP3   OH2  298   4.953   4.157   0.290
  114TIP3    H1  299   5.003   4.218   0.236
  114TIP3    H2  300   4.969   4.071   0.251
  115TIP3   OH2  301   3.507   6.212   2.191
  115TIP3    H1  302   3.542   6.147   2.252
  115TIP3    H2  303   3.426   6.173   2.157
  116TIP3   OH2  304   6.312   2.613   4.577
  116TIP3    H1  305   6.319   2.696   4.529
  116TIP3    H2  306   6.248   2.562   4.527
  117TIP3   OH2  307   5.294   5.729   4.773
  117TIP3    H1  308   5.311   5.741   4.679
  117TIP3    H2  309   5.241   5.804   4.798
  118TIP3   OH2  310   0.675   0.755   2.759
  118TIP3    H1  311   0.649   0.684   2.701
  118TIP3    H2  312   0.604   0.818   2.753
  119TIP3   OH2  313   0.844   0.501   0.815
  119TIP3    H1  314   0.886   0.506   0.729
  119TIP3    H2  315   0.915   0.473   0.873
  120TIP3   OH2  316   2.414   1.638   5.861
  120TIP3    H1  317   2.329   1.674   5.833
  120TIP3    H2  318   2.465   1.633   5.781
  121TIP3   OH2  319   0.507   6.364   2.698
  121TIP3    H1  320   0.434   6.314   2.663
  121TIP3    H2  321   0.483   6.455   2.684
  122TIP3   OH2  322   0.256   2.951   0.904
  122TIP3    H1  323   0.234   2.907   0.821
  122TIP3    H2  324   0.172   2.969   0.945
  123TIP3   OH2  325   2.378   7.039   3.177
  123TIP3    H1  326   2.417   7.068   3.094
  123TIP3    H2  327   2.440   7.070   3.243
  124TIP3   OH2  328   1.528   7.479   2.787
  124TIP3    H1  329   1.486   7.546   2.734
  124TIP3    H2  330   1.604   7.523   2.826
  125TIP3   OH2  331   7.096   0.213   2.216
  125TIP3    H1  332   7.076   0.185   2.305
  125TIP3    H2  333   7.087   0.308   2.218
  126TIP3   OH2  334   5.175   7.611   2.076
  126TIP3    H1  335   5.193   7.614   2.170
  126TIP3    H2  336   5.261   7.621   2.035
  127TIP3   OH2  337   7.985   5.947   1.498
  127TIP3    H1  338   7.991   5.940   1.403
  127TIP3    H2  339   8.074   5.968   1.526
  128TIP3   OH2  340   8.171   1.120   5.863
  128TIP3    H1  341   8.121   1.183   5.811
  128TIP3    H2  342   8.172   1.156   5.951
  129TIP3   OH2  343   5.284   6.156   3.407
  129TIP3    H1  344   5.227   6.081   3.418
  129TIP3    H2  345   5.323   6.145   3.320
  130TIP3   OH2  346   7.557   6.845   1.727
  130TIP3    H1  347   7.604   6.844   1.811
  130TIP3    H2  348   7.621   6.814   1.663
  131TIP3   OH2  349   2.313   1.090   4.038
  131TIP3    H1  350   2.226   1.128   4.052
  131TIP3    H2  351   2.337   1.055   4.124
  132TIP3   OH2  352   0.024   3.213   5.979
  132TIP3    H1  353  -0.034   3.288   5.993
  132TIP3    H2  354   0.024   3.200   5.884
  133TIP3   OH2  355   1.508   2.717   1.355
  133TIP3    H1  356   1.543   2.806   1.355
  133TIP3    H2  357   1.581   2.662   1.327
  134TIP3   OH2  358   0.908   6.880   4.174
  134TIP3    H1  359   0.961   6.801   4.172
  134TIP3    H2  360   0.958   6.941   4.228
  135TIP3   OH2  361   4.965   1.265   3.954
  135TIP3    H1  362   5.009   1.185   3.985
  135TIP3    H2  363   4.915   1.237   3.878
  136TIP3   OH2  364   4.783   5.878   1.577
  136TIP3    H1  365   4.746   5.824   1.647
  136TIP3    H2  366   4.712   5.938   1.553
  137TIP3   OH2  367   3.667   6.734   3.676
  137TIP3    H1  368   3.726   6.659   3.686
  137TIP3    H2  369   3.600   6.720   3.743
  138TIP3   OH2  370   4.708   3.191   0.945
  138TIP3    H1  371   4.756   3.274   0.951
  138TIP3    H2  372   4.700   3.176   0.851
  139TIP3   OH2  373   7.451   0.874   3.262
  139TIP3    H1  374   7.432   0.964   3.290
  139TIP3    H2  375   7.524   0.846   3.318
  140TIP3   OH2  376   0.475   5.891   4.434
  140TIP3    H1  377   0.435   5.866   4.517
  140TIP3    H2  378   0.408   5.872   4.369
  141TIP3   OH2  379   7.886   0.716   3.409
  141TIP3    H1  380   7.873   0.656   3.336
  141TIP3    H2  381   7.980   0.712   3.427
  142TIP3   OH2  382   4.412   3.635   0.423
  142TIP3    H1  383   4.480   3.703   0.418
  142TIP3    H2  384   4.335   3.675   0.382
  143TIP3   OH2  385   0.892   6.065   4.123
  143TIP3    H1  386   0.981   6.093   4.146
  143TIP3    H2  387   0.902   6.022   4.038
  144TIP3   OH2  388   2.749   3.246   0.690
  144TIP3    H1  389   2.735   3.192   0.612
  144TIP3    H2  390   2.688   3.319   0.681
  145TIP3   OH2  391   4.869   2.314   5.042
  145TIP3    H1  392   4.869   2.408   5.058
  145TIP3    H2  393   4.932   2.302   4.971
  146TIP3   OH2  394   1.402   2.108   5.805
  146TIP3    H1  395   1.377   2.200   5.814
  146TIP3    H2  396   1.497   2.108   5.811
  147TIP3   OH2  397   8.059   4.187   6.531
  147TIP3    H1  398   8.038   4.186   6.625
  147TIP3    H2  399   8.120   4.260   6.521
  148TIP3   OH2  400   3.008   7.460   3.211
  148TIP3    H1  401   2.992   7.466   3.306
  148TIP3    H2  402   3.039   7.547   3.186
  149TIP3   OH2  403   2.166   3.233   4.117
  149TIP3    H1  404   2.156   3.317   4.071
  149TIP3    H2  405   2.222   3.254   4.192
  150TIP3   OH2  406   2.085   7.379   1.612
  150TIP3    H1  407   2.010   7.343   1.659
  150TIP3    H2  408   2.134   7.427   1.678
  151TIP3   OH2  409   3.176   6.000   1.357
  151TIP3    H1  410   3.245   5.955   1.308
  151TIP3    H2  411   3.199   5.987   1.448
  152TIP3   OH2  412   5.633   1.118   1.048
  152TIP3    H1  413   5.666   1.098   1.136
  152TIP3    H2  414   5.685   1.193   1.020
  153TIP3   OH2  415   2.813   7.271   4.550
  153TIP3    H1  416   2.867   7.205   4.507
  153TIP3    H2  417   2.776   7.322   4.478
  154TIP3   OH2  418   8.089   7.202   4.021
  154TIP3    H1  419   8.159   7.174   4.080
  154TIP3    H2  420   8.114   7.167   3.936
  155TIP3   OH2  421   1.420   3.947   2.377
  155TIP3    H1  422   1.494   3.941   2.438
  155TIP3    H2  423   1.412   3.859   2.340
  156TIP3   OH2  424   0.843   2.383   3.015
  156TIP3    H1  425   0.812   2.472   3.032
  156TIP3    H2  426   0.932   2.394   2.983
  157TIP3   OH2  427   7.478   1.967   1.579
  157TIP3    H1  428   7.536   1.992   1.650
  157TIP3    H2  429   7.398   1.936   1.622
  158TIP3   OH2  430   7.891   1.715   5.969
  158TIP3    H1  431   7.858   1.749   5.886
  158TIP3    H2  432   7.920   1.793   6.018
  159TIP3   OH2  433   0.943   1.512   5.591
  159TIP3    H1  434   0.892   1.564   5.529
  159TIP3    H2  435   0.925   1.421   5.566
  160TIP3   OH2  436   5.156   4.761   1.357
  160TIP3    H1  437   5.204   4.699   1.412
  160TIP3    H2  438   5.187   4.847   1.387
  161TIP3   OH2  439   4.638   4.429   4.019
  161TIP3    H1  440   4.693   4.415   3.942
  161TIP3    H2  441   4.699   4.456   4.087
  162TIP3   OH2  442   0.873   5.847   3.808
  162TIP3    H1  443   0.941   5.841   3.740
  162TIP3    H2  444   0.909   5.800   3.883
  163TIP3   OH2  445   2.278   0.399   4.348
  163TIP3    H1  446   2.358   0.361   4.312
  163TIP3    H2  447   2.211   0.333   4.334
  164TIP3   OH2  448   3.318   3.481   0.845
  164TIP3    H1  449   3.224   3.494   0.834
  164TIP3    H2  450   3.344   3.547   0.910
  165TIP3   OH2  451   2.599   4.062   4.909
  165TIP3    H1  452   2.520   4.115   4.923
  165TIP3    H2  453   2.661   4.095   4.973
  166TIP3   OH2  454   5.029   3.601   3.711
  166TIP3    H1  455   4.953   3.659   3.701
  166TIP3    H2  456   5.104   3.659   3.702
  167TIP3   OH2  457   4.346   4.868   0.966
  167TIP3    H1  458   4.430   4.862   0.921
  167TIP3    H2  459   4.366   4.845   1.057
  168TIP3   OH2  460   6.002   2.079   4.384
  168TIP3    H1  461   6.016   2.028   4.464
  168TIP3    H2  462   5.995   2.170   4.414
  169TIP3   OH2  463   5.284   7.018   1.609
  169TIP3    H1  464   5.201   7.043   1.650
  169TIP3    H2  465   5.351   7.051   1.669
  170TIP3   OH2  466   5.751   4.217   1.913
  170TIP3    H1  467   5.791   4.131   1.918
  170TIP3    H2  468   5.749   4.249   2.003
  171TIP3   OH2  469   2.773   4.697   3.476
  171TIP3    H1  470   2.751   4.706   3.384
  171TIP3    H2  471   2.694   4.662   3.517
  172TIP3   OH2  472   2.942   1.056   4.858
  172TIP3    H1  473   3.002   1.126   4.882
  172TIP3    H2  474   2.913   1.019   4.941
  173TIP3   OH2  475   7.744   3.433   3.086
  173TIP3    H1  476   7.780   3.479   3.010
  173TIP3    H2  477   7.791   3.349   3.087
  174TIP3   OH2  478   7.516   6.403   3.470
  174TIP3    H1  479   7.564   6.485   3.469
  174TIP3    H2  480   7.584   6.335   3.474
  175TIP3   OH2  481   3.232   1.906   2.494
  175TIP3    H1  482   3.160   1.844   2.509
  175TIP3    H2  483   3.285   1.865   2.426
  176TIP3   OH2  484   0.967   0.380   6.352
  176TIP3    H1  485   0.878   0.372   6.386
  176TIP3    H2  486   0.970   0.317   6.280
  177TIP3   OH2  487   5.846   5.603   1.198
  177TIP3    H1  488   5.810   5.662   1.264
  177TIP3    H2  489   5.774   5.544   1.175
  178TIP3   OH2  490   2.032   5.139   2.540
  178TIP3    H1  491   2.005   5.109   2.453
  178TIP3    H2  492   2.037   5.234   2.532
  179TIP3   OH2  493   2.223   5.667   2.397
  179TIP3    H1  494   2.278   5.588   2.394
  179TIP3    H2  495   2.217   5.688   2.490
  180TIP3   OH2  496   3.212   6.678   5.953
  180TIP3    H1  497   3.262   6.610   5.907
  180TIP3    H2  498   3.124   6.671   5.917
  181TIP3   OH2  499   3.812   0.356   4.493
  181TIP3    H1  500   3.778   0.444   4.511
  181TIP3    H2  501   3.759   0.324   4.420
  182TIP3   OH2  502   1.727   7.596   0.361
  182TIP3    H1  503   1.728   7.670   0.301
  182TIP3    H2  504   1.635   7.588   0.389
  183TIP3   OH2  505   6.981   0.696   3.174
  183TIP3    H1  506   6.914   0.764   3.172
  183TIP3    H2  507   7.026   0.709   3.257
  184TIP3   OH2  508   4.101   7.269   1.604
  184TIP3    H1  509   4.125   7.313   1.523
  184TIP3    H2  510   4.009   7.243   1.591
  185TIP3   OH2  511   1.309   3.291   0.654
  185TIP3    H1  512   1.237   3.339   0.612
  185TIP3    H2  513   1.388   3.341   0.631
  186TIP3   OH2  514   3.390   5.962   0.748
  186TIP3    H1  515   3.460   5.999   0.695
  186TIP3    H2  516   3.433   5.932   0.828
  187TIP3   OH2  517   2.124   7.417   3.357
  187TIP3    H1  518   2.117   7.453   3.269
  187TIP3    H2  519   2.175   7.482   3.405
  188TIP3   OH2  520   5.324   4.239   3.708
  188TIP3    H1  521   5.416   4.211   3.709
  188TIP3    H2  522   5.326   4.332   3.731
  189TIP3   OH2  523   3.141   4.885   2.220
  189TIP3    H1  524   3.115   4.955   2.280
  189TIP3    H2  525   3.237   4.880   2.229
  190TIP3   OH2  526   3.828   4.463   5.279
  190TIP3    H1  527   3.899   4.463   5.214
  190TIP3    H2  528   3.849   4.536   5.337
  191TIP3   OH2  529   5.327   6.814   1.448
  191TIP3    H1  530   5.326   6.877   1.520
  191TIP3    H2  531   5.237   6.812   1.417
  192TIP3   OH2  532   3.204   2.408   0.548
  192TIP3    H1  533   3.188   2.414   0.642
  192TIP3    H2  534   3.250   2.489   0.526
  193TIP3   OH2  535   6.115   4.470   1.906
  193TIP3    H1  536   6.161   4.543   1.947
  193TIP3    H2  537   6.183   4.404   1.891
  194TIP3   OH2  538   1.438   1.195   6.217
  194TIP3    H1  539   1.518   1.224   6.173
  194TIP3    H2  540   1.444   1.232   6.305
  195TIP3   OH2  541   5.061   4.343   0.089
  195TIP3    H1  542   5.059   4.436   0.110
  195TIP3    H2  543   5.083   4.339  -0.004
  196TIP3   OH2  544   7.819   6.658   2.831
  196TIP3    H1  545   7.814   6.672   2.926
  196TIP3    H2  546   7.894   6.710   2.803
  197TIP3   OH2  547   7.079   3.831   6.401
  197TIP3    H1  548   7.073   3.774   6.478
  197TIP3    H2  549   6.996   3.819   6.355
  198TIP3   OH2  550   5.423   5.728   1.909
  198TIP3    H1  551   5.342   5.719   1.859
  198TIP3    H2  552   5.475   5.652   1.883
  199TIP3   OH2  553   0.093   1.876   4.521
  199TIP3    H1  554   0.121   1.801   4.470
  199TIP3    H2  555   0.158   1.944   4.501
  200TIP3   OH2  556   7.598   1.582   2.953
  200TIP3    H1  557   7.530   1.645   2.931
  200TIP3    H2  558   7.599   1.521   2.879
  201TIP3   OH2  559   3.717   5.465   5.769
  201TIP3    H1  560   3.710   5.424   5.683
  201TIP3    H2  561   3.787   5.417   5.813
  202TIP3   OH2  562   4.226   4.476   1.321
  202TIP3    H1  563   4.273   4.423   1.385
  202TIP3    H2  564   4.134   4.469   1.346
  203TIP3   OH2  565   2.041   3.623   5.668
  203TIP3    H1  566   2.126   3.653   5.638
  203TIP3    H2  567   2.049   3.617   5.763
  204TIP3   OH2  568   4.761   0.247   1.562
  204TIP3    H1  569   4.756   0.198   1.644
  204TIP3    H2  570   4.679   0.296   1.559
  205TIP3   OH2  571   5.690   2.987   5.601
  205TIP3    H1  572   5.618   2.990   5.537
  205TIP3    H2  573   5.701   3.078   5.628
  206TIP3   OH2  574   6.932   0.318   6.309
  206TIP3    H1  575   6.945   0.241   6.365
  206TIP3    H2  576   6.943   0.393   6.367
  207TIP3   OH2  577   0.729   5.081   3.829
  207TIP3    H1  578   0.799   5.034   3.874
  207TIP3    H2  579   0.675   5.117   3.899
  208TIP3   OH2  580   4.561   2.822   0.542
  208TIP3    H1  581   4.623   2.792   0.608
  208TIP3    H2  582   4.476   2.822   0.586
  209TIP3   OH2  583   4.280   6.619   0.032
  209TIP3    H1  584   4.292   6.692  -0.029
  209TIP3    H2  585   4.240   6.659   0.109
  210TIP3   OH2  586   1.815   5.787   5.492
  210TIP3    H1  587   1.896   5.829   5.521
  210TIP3    H2  588   1.759   5.787   5.570
  211TIP3   OH2  589   1.001   6.425   6.407
  211TIP3    H1  590   0.909   6.399   6.420
  211TIP3    H2  591   1.038   6.424   6.496
  212TIP3   OH2  592   2.924   7.065   3.580
  212TIP3    H1  593   2.835   7.066   3.616
  212TIP3    H2  594   2.980   7.086   3.654
  213TIP3   OH2  595   5.126   1.725   1.183
  213TIP3    H1  596   5.118   1.712   1.277
  213TIP3    H2  597   5.047   1.774   1.159
  214TIP3   OH2  598   5.691   7.264   0.813
  214TIP3    H1  599   5.710   7.345   0.767
  214TIP3    H2  600   5.627   7.219   0.757
  215TIP3   OH2  601   6.063   3.278   2.476
  215TIP3    H1  602   6.147   3.235   2.460
  215TIP3    H2  603   6.009   3.210   2.516
  216TIP3   OH2  604   0.934   0.537   1.966
  216TIP3    H1  605   0.972   0.545   2.054
  216TIP3    H2  606   0.849   0.497   1.981
  217TIP3   OH2  607   6.359   6.383   2.090
  217TIP3    H1  608   6.452   6.383   2.114
  217TIP3    H2  609   6.342   6.293   2.063
  218TIP3   OH2  610   5.266   1.152   1.926
  218TIP3    H1  611   5.327   1.092   1.885
  218TIP3    H2  612   5.318   1.196   1.994
  219TIP3   OH2  613   0.359   7.278   4.475
  219TIP3    H1  614   0.387   7.229   4.552
  219TIP3    H2  615   0.269   7.250   4.459
  220TIP3   OH2  616   1.981   2.012   5.423
  220TIP3    H1  617   1.951   1.923   5.441
  220TIP3    H2  618   2.076   2.008   5.432
  221TIP3   OH2  619   3.357   0.647   2.643
  221TIP3    H1  620   3.306   0.566   2.645
  221TIP3    H2  621   3.316   0.702   2.710
  222TIP3   OH2  622   3.441   3.945   2.432
  222TIP3    H1  623   3.354   3.912   2.457
  222TIP3    H2  624   3.452   4.023   2.485
  223TIP3   OH2  625   7.048   7.508   4.976
  223TIP3    H1  626   7.058   7.504   4.881
  223TIP3    H2  627   6.957   7.535   4.990
  224TIP3   OH2  628   1.718   2.061   4.377
  224TIP3    H1  629   1.675   2.019   4.451
  224TIP3    H2  630   1.810   2.039   4.387
  225TIP3   OH2  631   3.009   1.280   2.265
  225TIP3    H1  632   3.010   1.357   2.207
  225TIP3    H2  633   3.033   1.207   2.208
  226TIP3   OH2  634   4.747   1.655   0.222
  226TIP3    H1  635   4.659   1.689   0.208
  226TIP3    H2  636   4.735   1.562   0.240
  227TIP3   OH2  637   3.236   1.339   2.689
  227TIP3    H1  638   3.301   1.400   2.654
  227TIP3    H2  639   3.224   1.273   2.621
  228TIP3   OH2  640   0.441   2.592   4.923
  228TIP3    H1  641   0.347   2.583   4.908
  228TIP3    H2  642   0.460   2.534   4.996
  229TIP3   OH2  643   5.389   3.527   5.195
  229TIP3    H1  644   5.480   3.554   5.205
  229TIP3    H2  645   5.344   3.604   5.160
  230TIP3   OH2  646   2.952   3.888   6.233
  230TIP3    H1  647   2.995   3.811   6.270
  230TIP3    H2  648   2.981   3.890   6.142
  231TIP3   OH2  649   3.360   7.489   4.370
  231TIP3    H1  650   3.438   7.485   4.314
  231TIP3    H2  651   3.390   7.459   4.456
  232TIP3   OH2  652   0.106   6.261   4.982
  232TIP3    H1  653   0.099   6.302   4.896
  232TIP3    H2  654   0.049   6.313   5.039
  233TIP3   OH2  655   2.862   1.475   0.174
  233TIP3    H1  656   2.908   1.477   0.257
  233TIP3    H2  657   2.786   1.532   0.187
  234TIP3   OH2  658   2.671   1.883   3.371
  234TIP3    H1  659   2.584   1.923   3.376
  234TIP3    H2  660   2.730   1.956   3.351
  235TIP3   OH2  661   6.136   4.281   3.959
  235TIP3    H1  662   6.140   4.235   3.875
  235TIP3    H2  663   6.213   4.250   4.006
  236TIP3   OH2  664   7.132   6.959   2.647
  236TIP3    H1  665   7.086   7.043   2.653
  236TIP3    H2  666   7.225   6.982   2.649
  237TIP3   OH2  667   1.445   7.714   1.083
  237TIP3    H1  668   1.494   7.632   1.082
  237TIP3    H2  669   1.483   7.765   1.012
  238TIP3   OH2  670   1.951   0.073   2.880
  238TIP3    H1  671   1.862   0.046   2.905
  238TIP3    H2  672   1.950   0.168   2.888
  239TIP3   OH2  673   6.779   0.041   0.300
  239TIP3    H1  674   6.745   0.083   0.221
  239TIP3    H2  675   6.725  -0.037   0.311
  240TIP3   OH2  676   2.314   3.179   1.889
  240TIP3    H1  677   2.227   3.211   1.868
  240TIP3    H2  678   2.309   3.155   1.982
  241TIP3   OH2  679   2.467   6.940   4.604
  241TIP3    H1  680   2.491   6.946   4.696
  241TIP3    H2  681   2.428   7.026   4.584
  242TIP3   OH2  682   1.861   0.888   1.641
  242TIP3    H1  683   1.827   0.954   1.580
  242TIP3    H2  684   1.785   0.833   1.660
  243TIP3   OH2  685   6.538   2.766   0.224
  243TIP3    H1  686   6.505   2.686   0.263
  243TIP3    H2  687   6.632   2.751   0.213
  244TIP3   OH2  688   4.354   3.998   1.967
  244TIP3    H1  689   4.345   4.003   1.872
  244TIP3    H2  690   4.330   3.908   1.989
  245TIP3   OH2  691   3.059   5.306   2.211
  245TIP3    H1  692   3.086   5.327   2.121
  245TIP3    H2  693   3.112   5.364   2.266
  246TIP3   OH2  694   5.550   5.423   6.567
  246TIP3    H1  695   5.482   5.368   6.527
  246TIP3    H2  696   5.614   5.437   6.497
  247TIP3   OH2  697   2.382   3.706   0.706
  247TIP3    H1  698   2.352   3.785   0.661
  247TIP3    H2  699   2.305   3.674   0.753
  248TIP3   OH2  700   0.298   4.546   5.424
  248TIP3    H1  701   0.364   4.607   5.458
  248TIP3    H2  702   0.214   4.585   5.449
  249TIP3   OH2  703   7.174   5.908   0.197
  249TIP3    H1  704   7.171   5.942   0.108
  249TIP3    H2  705   7.215   5.822   0.189
  250TIP3   OH2  706   1.582   3.031   0.595
  250TIP3    H1  707   1.640   3.000   0.665
  250TIP3    H2  708   1.608   3.122   0.581
  251TIP3   OH2  709   1.896   0.282   2.172
  251TIP3    H1  710   1.980   0.313   2.140
  251TIP3    H2  711   1.902   0.187   2.169
  252TIP3   OH2  712   1.433   6.523   5.442
  252TIP3    H1  713   1.528   6.532   5.433
  252TIP3    H2  714   1.422   6.448   5.501
  253TIP3   OH2  715   2.044   1.172   2.207
  253TIP3    H1  716   2.082   1.228   2.139
  253TIP3    H2  717   1.962   1.215   2.230
  254TIP3   OH2  718   0.243   5.523   3.954
  254TIP3    H1  719   0.331   5.530   3.918
  254TIP3    H2  720   0.255   5.486   4.041
  255TIP3   OH2  721   6.753   6.750   1.629
  255TIP3    H1  722   6.831   6.758   1.685
  255TIP3    H2  723   6.736   6.840   1.600
  256TIP3   OH2  724   7.871   0.063   1.149
  256TIP3    H1  725   7.837   0.118   1.079
  256TIP3    H2  726   7.935   0.006   1.106
  257TIP3   OH2  727   2.206   1.865   0.263
  257TIP3    H1  728   2.251   1.946   0.240
  257TIP3    H2  729   2.261   1.795   0.227
  258TIP3   OH2  730   7.443   3.996   3.389
  258TIP3    H1  731   7.452   3.934   3.461
  258TIP3    H2  732   7.520   4.052   3.396
  259TIP3   OH2  733   3.476   0.667   6.689
  259TIP3    H1  734   3.440   0.722   6.620
  259TIP3    H2  735   3.539   0.723   6.735
  260TIP3   OH2  736   5.212   6.000   3.176
  260TIP3    H1  737   5.208   5.999   3.080
  260TIP3    H2  738   5.151   6.068   3.202
  261TIP3   OH2  739   2.916   3.911   2.556
  261TIP3    H1  740   2.870   3.908   2.640
  261TIP3    H2  741   2.847   3.899   2.491
  262TIP3   OH2  742   2.683   3.947   6.176
  262TIP3    H1  743   2.772   3.916   6.197
  262TIP3    H2  744   2.676   3.938   6.081
  263TIP3   OH2  745   3.363   0.913   3.067
  263TIP3    H1  746   3.455   0.886   3.069
  263TIP3    H2  747   3.327   0.884   3.151
  264TIP3   OH2  748   4.526   2.502   3.115
  264TIP3    H1  749   4.441   2.509   3.071
  264TIP3    H2  750   4.505   2.482   3.206
  265TIP3   OH2  751   8.069   4.992   0.623
  265TIP3    H1  752   8.029   4.909   0.594
  265TIP3    H2  753   8.116   5.024   0.546
  266TIP3   OH2  754   4.113   7.290   3.842
  266TIP3    H1  755   4.071   7.245   3.915
  266TIP3    H2  756   4.042   7.335   3.797
  267TIP3   OH2  757   6.309   4.437   4.547
  267TIP3    H1  758   6.313   4.383   4.626
  267TIP3    H2  759   6.284   4.524   4.579
  268TIP3   OH2  760   5.682   1.002   0.662
  268TIP3    H1  761   5.726   0.986   0.578
  268TIP3    H2  762   5.594   0.966   0.650
  269TIP3   OH2  763   3.758   0.733   0.793
  269TIP3    H1  764   3.744   0.706   0.702
  269TIP3    H2  765   3.678   0.780   0.817
  270TIP3   OH2  766   0.924   6.835   0.154
  270TIP3    H1  767   0.830   6.821   0.153
  270TIP3    H2  768   0.956   6.780   0.226
  271TIP3   OH2  769   8.066   0.220   1.851
  271TIP3    H1  770   8.064   0.210   1.946
  271TIP3    H2  771   7.976   0.245   1.828
  272TIP3   OH2  772   2.465   7.710   6.322
  272TIP3    H1  773   2.386   7.719   6.375
  272TIP3    H2  774   2.488   7.617   6.328
  273TIP3   OH2  775   1.181   0.056   0.775
  273TIP3    H1  776   1.110   0.109   0.740
  273TIP3    H2  777   1.158  -0.034   0.753
  274TIP3   OH2  778   4.817   7.300   5.315
  274TIP3    H1  779   4.793   7.209   5.335
  274TIP3    H2  780   4.912   7.303   5.328
  275TIP3   OH2  781   2.193   0.778   3.581
  275TIP3    H1  782   2.168   0.815   3.665
  275TIP3    H2  783   2.149   0.835   3.517
  276TIP3   OH2  784   1.271   0.216   6.745
  276TIP3    H1  785   1.366   0.211   6.747
  276TIP3    H2  786   1.250   0.253   6.659
  277TIP3   OH2  787   4.876   3.578   4.050
  277TIP3    H1  788   4.930   3.510   4.012
  277TIP3    H2  789   4.787   3.542   4.049
  278TIP3   OH2  790   0.840   3.355   5.727
  278TIP3    H1  791   0.810   3.310   5.806
  278TIP3    H2  792   0.761   3.363   5.673
  279TIP3   OH2  793   0.472   6.501   2.395
  279TIP3    H1  794   0.422   6.571   2.436
  279TIP3    H2  795   0.560   6.537   2.384
  280TIP3   OH2  796   6.585   3.143   3.531
  280TIP3    H1  797   6.628   3.059   3.548
  280TIP3    H2  798   6.557   3.138   3.439
  281TIP3   OH2  799   0.705   2.325   0.362
  281TIP3    H1  800   0.675   2.380   0.289
  281TIP3    H2  801   0.723   2.386   0.433
  282TIP3   OH2  802   8.271   1.782   3.516
  282TIP3    H1  803   8.194   1.726   3.501
  282TIP3    H2  804   8.318   1.740   3.588
  283TIP3   OH2  805   5.846   0.815   6.054
  283TIP3    H1  806   5.753   0.832   6.042
  283TIP3    H2  807   5.888   0.900   6.038
  284TIP3   OH2  808   3.932   7.346   1.028
  284TIP3    H1  809   3.849   7.299   1.032
  284TIP3    H2  810   3.987   7.303   1.093
  285TIP3   OH2  811   7.512   4.166   5.778
  285TIP3    H1  812   7.478   4.244   5.734
  285TIP3    H2  813   7.571   4.126   5.715
  286TIP3   OH2  814   6.791   1.840   6.280
  286TIP3    H1  815   6.696   1.834   6.293
  286TIP3    H2  816   6.805   1.932   6.257
  287TIP3   OH2  817   3.166   7.187   5.304
  287TIP3    H1  818   3.082   7.223   5.276
  287TIP3    H2  819   3.209   7.161   5.223
  288TIP3   OH2  820   5.403   2.906   5.774
  288TIP3    H1  821   5.489   2.931   5.740
  288TIP3    H2  822   5.408   2.926   5.868
  289TIP3   OH2  823   3.177   6.333   5.464
  289TIP3    H1  824   3.153   6.277   5.538
  289TIP3    H2  825   3.162   6.422   5.496
  290TIP3   OH2  826   6.324   6.531   1.315
  290TIP3    H1  827   6.327   6.515   1.220
  290TIP3    H2  828   6.382   6.465   1.352
  291TIP3   OH2  829   3.363   0.484   3.000
  291TIP3    H1  830   3.320   0.569   2.990
  291TIP3    H2  831   3.336   0.433   2.924
  292TIP3   OH2  832   0.581   3.684   6.198
  292TIP3    H1  833   0.670   3.652   6.182
  292TIP3    H2  834   0.546   3.702   6.110
  293TIP3   OH2  835   0.793   1.089   3.368
  293TIP3    H1  836   0.736   1.038   3.425
  293TIP3    H2  837   0.764   1.067   3.279
  294TIP3   OH2  838   1.545   7.781   0.831
  294TIP3    H1  839   1.630   7.749   0.805
  294TIP3    H2  840   1.543   7.872   0.800
  295TIP3   OH2  841   8.213   3.230   4.563
  295TIP3    H1  842   8.226   3.200   4.653
  295TIP3    H2  843   8.254   3.316   4.560
  296TIP3   OH2  844   7.649   3.331   4.656
  296TIP3    H1  845   7.638   3.424   4.637
  296TIP3    H2  846   7.743   3.319   4.665
  297TIP3   OH2  847   2.579   4.044   3.544
  297TIP3    H1  848   2.544   4.034   3.455
  297TIP3    H2  849   2.593   3.955   3.575
  298TIP3   OH2  850   2.879   6.092   5.167
  298TIP3    H1  851   2.887   6.046   5.083
  298TIP3    H2  852   2.954   6.151   5.170
  299TIP3   OH2  853   6.171   2.593   5.489
  299TIP3    H1  854   6.130   2.628   5.568
  299TIP3    H2  855   6.217   2.668   5.451
  300TIP3   OH2  856   7.306   1.405   2.253
  300TIP3    H1  857   7.313   1.489   2.299
  300TIP3    H2  858   7.222   1.369   2.281
  301TIP3   OH2  859   0.694   6.673   2.403
  301TIP3    H1  860   0.783   6.640   2.414
  301TIP3    H2  861   0.670   6.708   2.488
  302TIP3   OH2  862   6.968   1.956   4.517
  302TIP3    H1  863   6.965   1.874   4.566
  302TIP3    H2  864   6.941   2.022   4.581
  303TIP3   OH2  865   5.301   0.684   2.369
  303TIP3    H1  866   5.285   0.776   2.346
  303TIP3    H2  867   5.360   0.688   2.445
  304TIP3   OH2  868   3.550   4.962   6.537
  304TIP3    H1  869   3.552   5.043   6.486
  304TIP3    H2  870   3.485   4.979   6.605
  305TIP3   OH2  871   7.844   1.307   0.568
  305TIP3    H1  872   7.887   1.292   0.484
  305TIP3    H2  873   7.884   1.242   0.627
  306TIP3   OH2  874   7.675   0.589   3.729
  306TIP3    H1  875   7.767   0.617   3.735
  306TIP3    H2  876   7.656   0.591   3.635
  307TIP3   OH2  877   4.153   7.001   0.860
  307TIP3    H1  878   4.244   6.988   0.833
  307TIP3    H2  879   4.125   7.080   0.813
  308TIP3   OH2  880   6.575   4.217   0.396
  308TIP3    H1  881   6.626   4.254   0.324
  308TIP3    H2  882   6.592   4.276   0.470
  309TIP3   OH2  883   3.609   5.516   0.920
  309TIP3    H1  884   3.617   5.459   0.844
  309TIP3    H2  885   3.515   5.521   0.937
  310TIP3   OH2  886   2.129   2.397   4.757
  310TIP3    H1  887   2.211   2.441   4.733
  310TIP3    H2  888   2.065   2.431   4.694
  311TIP3   OH2  889   7.223   5.522   1.563
  311TIP3    H1  890   7.251   5.524   1.472
  311TIP3    H2  891   7.286   5.462   1.606
  312TIP3   OH2  892   3.865   1.071   1.733
  312TIP3    H1  893   3.943   1.021   1.759
  312TIP3    H2  894   3.833   1.110   1.814
  313TIP3   OH2  895   4.751   7.584   6.375
  313TIP3    H1  896   4.732   7.533   6.297
  313TIP3    H2  897   4.691   7.659   6.370
  314TIP3   OH2  898   1.634   1.330   1.267
  314TIP3    H1  899   1.571   1.316   1.339
  314TIP3    H2  900   1.684   1.407   1.294
  315TIP3   OH2  901   7.754   0.301   3.719
  315TIP3    H1  902   7.670   0.268   3.687
  315TIP3    H2  903   7.756   0.392   3.689
  316TIP3   OH2  904   4.811   6.346   5.405
  316TIP3    H1  905   4.777   6.348   5.316
  316TIP3    H2  906   4.848   6.258   5.415
  317TIP3   OH2  907   2.923   5.239   4.858
  317TIP3    H1  908   2.950   5.181   4.787
  317TIP3    H2  909   2.861   5.188   4.909
  318TIP3   OH2  910   3.093   4.414   5.703
  318TIP3    H1  911   3.001   4.401   5.724
  318TIP3    H2  912   3.094   4.426   5.608
  319TIP3   OH2  913   0.653   5.055   1.171
  319TIP3    H1  914   0.683   5.112   1.241
  319TIP3    H2  915   0.570   5.093   1.142
  320TIP3   OH2  916   6.614   7.445   0.246
  320TIP3    H1  917   6.564   7.399   0.314
  320TIP3    H2  918   6.595   7.537   0.260
  321TIP3   OH2  919   5.178   3.651   5.891
  321TIP3    H1  920   5.250   3.699   5.931
  321TIP3    H2  921   5.139   3.713   5.829
  322TIP3   OH2  922   0.381   5.092   0.663
  322TIP3    H1  923   0.302   5.144   0.646
  322TIP3    H2  924   0.452   5.156   0.666
  323TIP3   OH2  925   3.219   4.326   5.053
  323TIP3    H1  926   3.265   4.243   5.056
  323TIP3    H2  927   3.127   4.302   5.036
  324TIP3   OH2  928   0.909   1.738   5.398
  324TIP3    H1  929   0.906   1.746   5.303
  324TIP3    H2  930   1.002   1.746   5.420
  325TIP3   OH2  931   7.968   3.721   1.797
  325TIP3    H1  932   7.951   3.814   1.814
  325TIP3    H2  933   7.914   3.701   1.720
  326TIP3   OH2  934   3.608   6.730   0.807
  326TIP3    H1  935   3.661   6.670   0.754
  326TIP3    H2  936   3.672   6.790   0.846
  327TIP3   OH2  937   0.396   4.184   5.916
  327TIP3    H1  938   0.376   4.278   5.916
  327TIP3    H2  939   0.451   4.172   5.839
  328TIP3   OH2  940   3.086   4.440   6.457
  328TIP3    H1  941   3.069   4.498   6.383
  328TIP3    H2  942   3.159   4.481   6.503
  329TIP3   OH2  943   3.489   3.460   0.540
  329TIP3    H1  944   3.444   3.378   0.561
  329TIP3    H2  945   3.420   3.526   0.536
  330TIP3   OH2  946   5.506   7.516   6.234
  330TIP3    H1  947   5.569   7.569   6.283
  330TIP3    H2  948   5.537   7.518   6.144
  331TIP3   OH2  949   4.269   7.776   6.183
  331TIP3    H1  950   4.244   7.756   6.273
  331TIP3    H2  951   4.297   7.867   6.185
  332TIP3   OH2  952   6.890   4.009   1.517
  332TIP3    H1  953   6.891   3.991   1.611
  332TIP3    H2  954   6.802   4.039   1.499
  333TIP3   OH2  955   5.973   5.646   0.474
  333TIP3    H1  956   5.929   5.613   0.396
  333TIP3    H2  957   6.045   5.584   0.489
  334TIP3   OH2  958   4.292   7.082   5.977
  334TIP3    H1  959   4.234   7.007   5.985
  334TIP3    H2  960   4.252   7.137   5.909
  335TIP3   OH2  961   6.470   4.380   4.336
  335TIP3    H1  962   6.431   4.390   4.423
  335TIP3    H2  963   6.564   4.378   4.353
  336TIP3   OH2  964   1.590   7.734   5.570
  336TIP3    H1  965   1.669   7.722   5.518
  336TIP3    H2  966   1.540   7.653   5.557
  337TIP3   OH2  967   5.553   4.828   5.887
  337TIP3    H1  968   5.566   4.923   5.881
  337TIP3    H2  969   5.630   4.791   5.843
  338TIP3   OH2  970   1.216   0.039   2.632
  338TIP3    H1  971   1.151   0.011   2.568
  338TIP3    H2  972   1.290   0.071   2.579
  339TIP3   OH2  973   0.809   7.058   2.302
  339TIP3    H1  974   0.754   7.004   2.245
  339TIP3    H2  975   0.853   6.994   2.359
  340TIP3   OH2  976   0.141   1.819   4.211
  340TIP3    H1  977   0.098   1.882   4.153
  340TIP3    H2  978   0.077   1.749   4.224
  341TIP3   OH2  979   8.008   6.446   5.317
  341TIP3    H1  980   8.030   6.441   5.410
  341TIP3    H2  981   7.925   6.494   5.314
  342TIP3   OH2  982   1.138   6.984   0.147
  342TIP3    H1  983   1.206   6.938   0.196
  342TIP3    H2  984   1.068   6.921   0.136
  343TIP3   OH2  985   7.718   7.608   5.734
  343TIP3    H1  986   7.752   7.694   5.757
  343TIP3    H2  987   7.653   7.589   5.801
  344TIP3   OH2  988   7.653   5.825   1.759
  344TIP3    H1  989   7.614   5.884   1.823
  344TIP3    H2  990   7.628   5.861   1.674
  345TIP3   OH2  991   0.624   4.822  -0.012
  345TIP3    H1  992   0.673   4.839   0.069
  345TIP3    H2  993   0.609   4.908  -0.050
  346TIP3   OH2  994   1.059   2.652   2.550
  346TIP3    H1  995   1.095   2.633   2.463
  346TIP3    H2  996   1.084   2.576   2.603
  347TIP3   OH2  997   0.493   6.464   4.319
  347TIP3    H1  998   0.570   6.512   4.291
  347TIP3    H2  999   0.509   6.374   4.294
  348TIP3   OH2 1000   3.042   4.912   3.388
  348TIP3    H1 1001   3.017   4.882   3.301
  348TIP3    H2 1002   2.981   4.983   3.408
  349TIP3   OH2 1003   0.167   6.269   2.197
  349TIP3    H1 1004   0.258   6.297   2.185
  349TIP3    H2 1005   0.131   6.268   2.108
  350TIP3   OH2 1006   1.653   5.783   6.662
  350TIP3    H1 1007   1.725   5.779   6.599
  350TIP3    H2 1008   1.667   5.708   6.719
  351TIP3   OH2 1009   3.854   5.216   3.190
  351TIP3    H1 1010   3.887   5.298   3.228
  351TIP3    H2 1011   3.759   5.222   3.199
  352TIP3   OH2 1012   7.369   5.905   3.823
  352TIP3    H1 1013   7.430   5.834   3.841
  352TIP3    H2 1014   7.375   5.962   3.900
  353TIP3   OH2 1015   5.642   0.569   3.756
  353TIP3    H1 1016   5.646   0.662   3.775
  353TIP3    H2 1017   5.548   0.549   3.752
  354TIP3   OH2 1018   5.615   4.355   2.635
  354TIP3    H1 1019   5.664   4.422   2.684
  354TIP3    H2 1020   5.659   4.351   2.550
  355TIP3   OH2 1021   0.901   2.055   4.846
  355TIP3    H1 1022   0.849   2.111   4.903
  355TIP3    H2 1023   0.838   2.017   4.785
  356TIP3   OH2 1024   4.914   1.342   6.263
  356TIP3    H1 1025   4.908   1.416   6.203
  356TIP3    H2 1026   5.007   1.336   6.284
  357TIP3   OH2 1027   6.299   2.074   1.270
  357TIP3    H1 1028   6.238   2.129   1.319
  357TIP3    H2 1029   6.331   2.132   1.200
  358TIP3   OH2 1030   5.185   1.849   3.869
  358TIP3    H1 1031   5.135   1.927   3.891
  358TIP3    H2 1032   5.159   1.785   3.935
  359TIP3   OH2 1033   4.217   4.091   3.526
  359TIP3    H1 1034   4.137   4.071   3.478
  359TIP3    H2 1035   4.221   4.186   3.531
  360TIP3   OH2 1036   3.947   5.107   2.662
  360TIP3    H1 1037   3.940   5.096   2.757
  360TIP3    H2 1038   4.034   5.142   2.648
  361TIP3   OH2 1039   7.991   1.375   6.690
  361TIP3    H1 1040   7.958   1.344   6.775
  361TIP3    H2 1041   8.049   1.305   6.660
  362TIP3   OH2 1042   2.384   5.910   6.059
  362TIP3    H1 1043   2.436   5.840   6.100
  362TIP3    H2 1044   2.444   5.983   6.051
  363TIP3   OH2 1045   3.296   4.670   0.479
  363TIP3    H1 1046   3.242   4.659   0.400
  363TIP3    H2 1047   3.260   4.749   0.520
  364TIP3   OH2 1048   6.383   6.071   5.972
  364TIP3    H1 1049   6.350   6.118   6.048
  364TIP3    H2 1050   6.335   5.989   5.972
  365TIP3   OH2 1051   4.034   5.813   1.272
  365TIP3    H1 1052   3.948   5.845   1.299
  365TIP3    H2 1053   4.082   5.799   1.354
  366TIP3   OH2 1054   4.689   6.899   0.274
  366TIP3    H1 1055   4.715   6.898   0.366
  366TIP3    H2 1056   4.649   6.985   0.262
  367TIP3   OH2 1057   0.468   4.744   5.573
  367TIP3    H1 1058   0.527   4.785   5.510
  367TIP3    H2 1059   0.444   4.815   5.633
  368TIP3   OH2 1060   6.178   5.337   3.398
  368TIP3    H1 1061   6.264   5.378   3.394
  368TIP3    H2 1062   6.153   5.325   3.306
  369TIP3   OH2 1063   2.948   4.225   2.048
  369TIP3    H1 1064   3.016   4.160   2.028
  369TIP3    H2 1065   2.905   4.241   1.964
  370TIP3   OH2 1066   8.216   3.080   3.586
  370TIP3    H1 1067   8.239   3.010   3.647
  370TIP3    H2 1068   8.278   3.070   3.513
  371TIP3   OH2 1069   2.487   5.718   5.104
  371TIP3    H1 1070   2.512   5.720   5.012
  371TIP3    H2 1071   2.536   5.791   5.143
  372TIP3   OH2 1072   1.232   1.979   0.680
  372TIP3    H1 1073   1.249   1.896   0.725
  372TIP3    H2 1074   1.139   1.995   0.693
  373TIP3   OH2 1075   5.131   2.172   0.161
  373TIP3    H1 1076   5.097   2.165   0.071
  373TIP3    H2 1077   5.105   2.089   0.202
  374TIP3   OH2 1078   6.736   2.838   2.068
  374TIP3    H1 1079   6.712   2.896   1.996
  374TIP3    H2 1080   6.652   2.803   2.099
  375TIP3   OH2 1081   0.089   2.210   4.909
  375TIP3    H1 1082   0.169   2.159   4.924
  375TIP3    H2 1083   0.106   2.257   4.827
  376TIP3   OH2 1084   4.642   5.943   0.323
  376TIP3    H1 1085   4.626   6.018   0.380
  376TIP3    H2 1086   4.722   5.966   0.274
  377TIP3   OH2 1087   1.440   4.256   0.748
  377TIP3    H1 1088   1.369   4.316   0.773
  377TIP3    H2 1089   1.467   4.215   0.830
  378TIP3   OH2 1090   6.073   5.168   5.639
  378TIP3    H1 1091   6.138   5.232   5.612
  378TIP3    H2 1092   5.994   5.192   5.590
  379TIP3   OH2 1093   4.961   4.303   4.556
  379TIP3    H1 1094   4.941   4.389   4.520
  379TIP3    H2 1095   4.989   4.251   4.481
  380TIP3   OH2 1096   0.678   0.708   5.500
  380TIP3    H1 1097   0.588   0.731   5.477
  380TIP3    H2 1098   0.686   0.615   5.476
  381TIP3   OH2 1099   3.800   0.785   2.841
  381TIP3    H1 1100   3.757   0.866   2.814
  381TIP3    H2 1101   3.748   0.715   2.802
  382TIP3   OH2 1102   3.169   4.218   6.308
  382TIP3    H1 1103   3.079   4.216   6.278
  382TIP3    H2 1104   3.171   4.287   6.374
  383TIP3   OH2 1105   0.133   0.340   3.922
  383TIP3    H1 1106   0.137   0.272   3.854
  383TIP3    H2 1107   0.166   0.297   4.001
  384TIP3   OH2 1108   2.956   4.366   2.470
  384TIP3    H1 1109   2.889   4.433   2.480
  384TIP3    H2 1110   2.916   4.300   2.413
  385TIP3   OH2 1111   6.977   4.628   3.611
  385TIP3    H1 1112   7.001   4.544   3.571
  385TIP3    H2 1113   6.909   4.663   3.553
  386TIP3   OH2 1114   0.153   1.750   0.175
  386TIP3    H1 1115   0.167   1.655   0.173
  386TIP3    H2 1116   0.174   1.776   0.264
  387TIP3   OH2 1117   3.043   6.311   3.093
  387TIP3    H1 1118   3.003   6.394   3.070
  387TIP3    H2 1119   3.019   6.297   3.184
  388TIP3   OH2 1120   1.401   6.069   2.207
  388TIP3    H1 1121   1.382   6.107   2.293
  388TIP3    H2 1122   1.470   6.124   2.171
  389TIP3   OH2 1123   1.483   0.385   2.273
  389TIP3    H1 1124   1.533   0.359   2.196
  389TIP3    H2 1125   1.512   0.474   2.291
  390TIP3   OH2 1126   6.912   5.415   3.886
  390TIP3    H1 1127   6.867   5.346   3.837
  390TIP3    H2 1128   7.002   5.385   3.892
  391TIP3   OH2 1129   4.842   1.533   5.358
  391TIP3    H1 1130   4.917   1.550   5.300
  391TIP3    H2 1131   4.768   1.576   5.315
  392TIP3   OH2 1132   3.721   5.512   4.682
  392TIP3    H1 1133   3.634   5.528   4.718
  392TIP3    H2 1134   3.780   5.566   4.736
  393TIP3   OH2 1135   0.575   3.084   2.286
  393TIP3    H1 1136   0.593   2.991   2.276
  393TIP3    H2 1137   0.484   3.088   2.316
  394TIP3   OH2 1138   1.483   6.055   6.397
  394TIP3    H1 1139   1.397   6.097   6.386
  394TIP3    H2 1140   1.530   6.112   6.459
  395TIP3   OH2 1141   4.758   0.380   0.534
  395TIP3    H1 1142   4.849   0.380   0.563
  395TIP3    H2 1143   4.748   0.463   0.487
  396TIP3   OH2 1144   3.473   1.568   3.919
  396TIP3    H1 1145   3.471   1.624   3.997
  396TIP3    H2 1146   3.441   1.484   3.950
  397TIP3   OH2 1147   1.698   3.784   0.910
  397TIP3    H1 1148   1.670   3.761   0.822
  397TIP3    H2 1149   1.774   3.842   0.897
  398TIP3   OH2 1150   4.620   2.080   1.381
  398TIP3    H1 1151   4.574   2.106   1.460
  398TIP3    H2 1152   4.705   2.049   1.412
  399TIP3   OH2 1153   5.617   7.185   4.996
  399TIP3    H1 1154   5.675   7.117   5.030
  399TIP3    H2 1155   5.639   7.190   4.903
  400TIP3   OH2 1156   7.262   7.284   2.393
  400TIP3    H1 1157   7.327   7.248   2.331
  400TIP3    H2 1158   7.305   7.278   2.478
  401TIP3   OH2 1159   2.118   7.094   1.425
  401TIP3    H1 1160   2.150   7.100   1.515
  401TIP3    H2 1161   2.060   7.170   1.416
  402TIP3   OH2 1162   2.921   6.844   0.054
  402TIP3    H1 1163   2.928   6.799   0.138
  402TIP3    H2 1164   2.976   6.922   0.064
  403TIP3   OH2 1165   1.143   6.375   2.964
  403TIP3    H1 1166   1.079   6.438   2.995
  403TIP3    H2 1167   1.092   6.309   2.916
  404TIP3   OH2 1168   1.420   6.896   3.096
  404TIP3    H1 1169   1.407   6.839   3.172
  404TIP3    H2 1170   1.346   6.957   3.099
  405TIP3   OH2 1171   3.098   6.559   5.625
  405TIP3    H1 1172   3.043   6.508   5.685
  405TIP3    H2 1173   3.059   6.646   5.625
  406TIP3   OH2 1174   6.267   3.275   4.182
  406TIP3    H1 1175   6.267   3.242   4.092
  406TIP3    H2 1176   6.359   3.289   4.203
  407TIP3   OH2 1177   8.176   0.335   0.209
  407TIP3    H1 1178   8.118   0.377   0.272
  407TIP3    H2 1179   8.117   0.300   0.142
  408TIP3   OH2 1180   1.221   0.234   3.003
  408TIP3    H1 1181   1.166   0.302   2.965
  408TIP3    H2 1182   1.270   0.198   2.928
  409TIP3   OH2 1183   0.356   6.440   3.562
  409TIP3    H1 1184   0.440   6.425   3.518
  409TIP3    H2 1185   0.379   6.443   3.655
  410TIP3   OH2 1186   3.889   5.414   1.039
  410TIP3    H1 1187   3.846   5.439   0.957
  410TIP3    H2 1188   3.820   5.372   1.091
  411TIP3   OH2 1189   7.820   0.743   2.747
  411TIP3    H1 1190   7.729   0.732   2.717
  411TIP3    H2 1191   7.835   0.838   2.740
  412TIP3   OH2 1192   6.844   2.101   4.757
  412TIP3    H1 1193   6.772   2.129   4.813
  412TIP3    H2 1194   6.921   2.103   4.813
  413TIP3   OH2 1195   3.389   4.544   4.286
  413TIP3    H1 1196   3.443   4.619   4.260
  413TIP3    H2 1197   3.435   4.507   4.361
  414TIP3   OH2 1198   3.651   3.715   3.756
  414TIP3    H1 1199   3.624   3.806   3.764
  414TIP3    H2 1200   3.597   3.680   3.685
  415TIP3   OH2 1201   2.791   6.999   2.773
  415TIP3    H1 1202   2.755   7.088   2.765
  415TIP3    H2 1203   2.886   7.013   2.781
  416TIP3   OH2 1204   8.062   6.572   1.173
  416TIP3    H1 1205   8.072   6.479   1.193
  416TIP3    H2 1206   8.044   6.574   1.079
  417TIP3   OH2 1207   1.859   1.201   1.909
  417TIP3    H1 1208   1.774   1.229   1.878
  417TIP3    H2 1209   1.919   1.271   1.883
  418TIP3   OH2 1210   7.071   1.644   0.980
  418TIP3    H1 1211   7.118   1.714   1.025
  418TIP3    H2 1212   7.133   1.571   0.977
  419TIP3   OH2 1213   2.201   3.172   2.661
  419TIP3    H1 1214   2.109   3.187   2.683
  419TIP3    H2 1215   2.239   3.133   2.739
  420TIP3   OH2 1216   1.714   0.352   3.170
  420TIP3    H1 1217   1.767   0.429   3.149
  420TIP3    H2 1218   1.635   0.387   3.212
  421TIP3   OH2 1219   3.723  -0.043   3.184
  421TIP3    H1 1220   3.697   0.045   3.212
  421TIP3    H2 1221   3.665  -0.062   3.110
  422TIP3   OH2 1222   4.400   4.653   5.723
  422TIP3    H1 1223   4.437   4.567   5.704
  422TIP3    H2 1224   4.357   4.643   5.808
  423TIP3   OH2 1225   1.500   4.877   4.967
  423TIP3    H1 1226   1.579   4.844   4.925
  423TIP3    H2 1227   1.461   4.937   4.904
  424TIP3   OH2 1228   1.778   0.615   6.473
  424TIP3    H1 1229   1.780   0.519   6.473
  424TIP3    H2 1230   1.770   0.638   6.380
  425TIP3   OH2 1231   4.378   7.297   3.822
  425TIP3    H1 1232   4.400   7.266   3.910
  425TIP3    H2 1233   4.284   7.313   3.825
  426TIP3   OH2 1234   2.259   1.762   1.644
  426TIP3    H1 1235   2.350   1.734   1.643
  426TIP3    H2 1236   2.238   1.778   1.552
  427TIP3   OH2 1237   0.337   5.195   4.247
  427TIP3    H1 1238   0.268   5.149   4.295
  427TIP3    H2 1239   0.356   5.138   4.173
  428TIP3   OH2 1240   2.276   6.695   5.668
  428TIP3    H1 1241   2.230   6.700   5.752
  428TIP3    H2 1242   2.364   6.727   5.687
  429TIP3   OH2 1243   6.513   0.839   3.984
  429TIP3    H1 1244   6.585   0.798   3.937
  429TIP3    H2 1245   6.504   0.787   4.064
  430TIP3   OH2 1246   2.198   1.770   4.566
  430TIP3    H1 1247   2.250   1.691   4.581
  430TIP3    H2 1248   2.210   1.789   4.473
  431TIP3   OH2 1249   2.052   2.298   6.475
  431TIP3    H1 1250   1.997   2.315   6.552
  431TIP3    H2 1251   1.992   2.301   6.401
  432TIP3   OH2 1252   0.851   2.869   1.129
  432TIP3    H1 1253   0.914   2.904   1.067
  432TIP3    H2 1254   0.904   2.825   1.196
  433TIP3   OH2 1255   1.822   2.858   6.470
  433TIP3    H1 1256   1.886   2.862   6.398
  433TIP3    H2 1257   1.762   2.788   6.444
  434TIP3   OH2 1258   3.703   5.235   3.702
  434TIP3    H1 1259   3.715   5.200   3.791
  434TIP3    H2 1260   3.731   5.326   3.708
  435TIP3   OH2 1261   4.140   1.474   3.039
  435TIP3    H1 1262   4.163   1.381   3.041
  435TIP3    H2 1263   4.045   1.475   3.038
  436TIP3   OH2 1264   4.433   7.343   5.031
  436TIP3    H1 1265   4.376   7.315   5.103
  436TIP3    H2 1266   4.415   7.437   5.022
  437TIP3   OH2 1267   6.148   0.594   2.072
  437TIP3    H1 1268   6.133   0.577   1.979
  437TIP3    H2 1269   6.188   0.513   2.105
  438TIP3   OH2 1270   8.023   6.528   3.515
  438TIP3    H1 1271   8.078   6.554   3.442
  438TIP3    H2 1272   8.057   6.579   3.589
  439TIP3   OH2 1273   4.203   2.187   1.513
  439TIP3    H1 1274   4.184   2.185   1.419
  439TIP3    H2 1275   4.122   2.156   1.554
  440TIP3   OH2 1276   8.130   6.678   6.352
  440TIP3    H1 1277   8.106   6.728   6.275
  440TIP3    H2 1278   8.065   6.608   6.356
  441TIP3   OH2 1279   1.691   7.377   0.223
  441TIP3    H1 1280   1.597   7.393   0.217
  441TIP3    H2 1281   1.726   7.454   0.268
  442TIP3   OH2 1282   5.477   1.624   0.154
  442TIP3    H1 1283   5.570   1.646   0.164
  442TIP3    H2 1284   5.432   1.708   0.155
  443TIP3   OH2 1285   4.796   1.843   0.420
  443TIP3    H1 1286   4.796   1.793   0.338
  443TIP3    H2 1287   4.759   1.784   0.485
  444TIP3   OH2 1288   5.601   1.909   5.874
  444TIP3    H1 1289   5.694   1.898   5.854
  444TIP3    H2 1290   5.585   2.003   5.861
  445TIP3   OH2 1291   7.641   5.953   0.588
  445TIP3    H1 1292   7.625   5.879   0.646
  445TIP3    H2 1293   7.733   5.977   0.603
  446TIP3   OH2 1294   4.943   5.736   3.648
  446TIP3    H1 1295   4.892   5.672   3.697
  446TIP3    H2 1296   4.911   5.820   3.677
  447TIP3   OH2 1297   5.313   2.936   4.464
  447TIP3    H1 1298   5.357   3.012   4.426
  447TIP3    H2 1299   5.342   2.862   4.411
  448TIP3   OH2 1300   2.720   5.725   2.172
  448TIP3    H1 1301   2.656   5.758   2.109
  448TIP3    H2 1302   2.792   5.788   2.169
  449TIP3   OH2 1303   6.053   0.034   6.603
  449TIP3    H1 1304   6.137   0.079   6.597
  449TIP3    H2 1305   6.076  -0.059   6.610
  450TIP3   OH2 1306   1.591   0.476   5.157
  450TIP3    H1 1307   1.666   0.535   5.164
  450TIP3    H2 1308   1.514   0.532   5.169
  451TIP3   OH2 1309   0.419   0.087   5.818
  451TIP3    H1 1310   0.427   0.148   5.891
  451TIP3    H2 1311   0.493   0.027   5.829
  452TIP3   OH2 1312   4.618   0.999   1.883
  452TIP3    H1 1313   4.684   0.933   1.903
  452TIP3    H2 1314   4.667   1.073   1.846
  453TIP3   OH2 1315   0.829   7.360   4.081
  453TIP3    H1 1316   0.798   7.274   4.111
  453TIP3    H2 1317   0.925   7.354   4.089
  454TIP3   OH2 1318   5.805   2.988   6.531
  454TIP3    H1 1319   5.812   3.080   6.555
  454TIP3    H2 1320   5.756   2.988   6.449
  455TIP3   OH2 1321   1.663   1.766   0.820
  455TIP3    H1 1322   1.620   1.702   0.764
  455TIP3    H2 1323   1.756   1.754   0.804
  456TIP3   OH2 1324   1.284   3.078   5.225
  456TIP3    H1 1325   1.315   3.145   5.164
  456TIP3    H2 1326   1.341   3.002   5.208
  457TIP3   OH2 1327   0.398   4.648   0.005
  457TIP3    H1 1328   0.390   4.657   0.100
  457TIP3    H2 1329   0.480   4.692  -0.016
  458TIP3   OH2 1330   5.423   5.284   0.490
  458TIP3    H1 1331   5.492   5.260   0.429
  458TIP3    H2 1332   5.468   5.291   0.575
  459TIP3   OH2 1333   2.373   5.589   1.372
  459TIP3    H1 1334   2.278   5.588   1.357
  459TIP3    H2 1335   2.382   5.621   1.461
  460TIP3   OH2 1336   3.099   5.210   0.119
  460TIP3    H1 1337   3.177   5.206   0.064
  460TIP3    H2 1338   3.086   5.303   0.136
  461TIP3   OH2 1339   4.804   7.302   5.793
  461TIP3    H1 1340   4.753   7.264   5.721
  461TIP3    H2 1341   4.836   7.226   5.842
  462TIP3   OH2 1342   6.551   0.921   5.417
  462TIP3    H1 1343   6.526   1.013   5.415
  462TIP3    H2 1344   6.552   0.898   5.510
  463TIP3   OH2 1345   0.971   2.484   4.450
  463TIP3    H1 1346   1.004   2.568   4.418
  463TIP3    H2 1347   0.880   2.481   4.418
  464TIP3   OH2 1348   3.246   1.339   6.237
  464TIP3    H1 1349   3.262   1.251   6.204
  464TIP3    H2 1350   3.333   1.373   6.257
  465TIP3   OH2 1351   0.004   4.988   5.615
  465TIP3    H1 1352   0.058   4.999   5.693
  465TIP3    H2 1353   0.052   5.034   5.546
  466TIP3   OH2 1354   1.410   4.039   6.581
  466TIP3    H1 1355   1.455   3.955   6.585
  466TIP3    H2 1356   1.481   4.103   6.571
  467TIP3   OH2 1357   0.176   1.802   0.458
  467TIP3    H1 1358   0.218   1.881   0.491
  467TIP3    H2 1359   0.096   1.794   0.510
  468TIP3   OH2 1360   7.210   5.177   2.283
  468TIP3    H1 1361   7.162   5.147   2.361
  468TIP3    H2 1362   7.177   5.121   2.213
  469TIP3   OH2 1363   2.125   2.729   3.974
  469TIP3    H1 1364   2.150   2.636   3.974
  469TIP3    H2 1365   2.084   2.743   4.059
  470TIP3   OH2 1366   6.872   6.261   2.349
  470TIP3    H1 1367   6.923   6.313   2.287
  470TIP3    H2 1368   6.923   6.264   2.430
  471TIP3   OH2 1369   2.050   2.738   3.372
  471TIP3    H1 1370   2.087   2.771   3.454
  471TIP3    H2 1371   1.992   2.666   3.399
  472TIP3   OH2 1372   8.054   1.824   5.404
  472TIP3    H1 1373   8.026   1.908   5.367
  472TIP3    H2 1374   7.980   1.765   5.388
  473TIP3   OH2 1375   7.833   3.137   3.070
  473TIP3    H1 1376   7.928   3.128   3.076
  473TIP3    H2 1377   7.799   3.049   3.088
  474TIP3   OH2 1378   4.458   4.257   3.626
  474TIP3    H1 1379   4.526   4.258   3.559
  474TIP3    H2 1380   4.382   4.297   3.584
  475TIP3   OH2 1381   8.148   5.151   4.118
  475TIP3    H1 1382   8.197   5.233   4.116
  475TIP3    H2 1383   8.131   5.135   4.210
  476TIP3   OH2 1384   5.791   1.592   0.766
  476TIP3    H1 1385   5.869   1.628   0.723
  476TIP3    H2 1386   5.790   1.634   0.852
  477TIP3   OH2 1387   2.626   3.267   0.063
  477TIP3    H1 1388   2.711   3.277   0.019
  477TIP3    H2 1389   2.587   3.354   0.061
  478TIP3   OH2 1390   6.640   5.620   1.483
  478TIP3    H1 1391   6.725   5.583   1.461
  478TIP3    H2 1392   6.578   5.575   1.425
  479TIP3   OH2 1393   3.877   1.261   1.447
  479TIP3    H1 1394   3.917   1.236   1.531
  479TIP3    H2 1395   3.943   1.316   1.404
  480TIP3   OH2 1396   8.166   6.757   4.839
  480TIP3    H1 1397   8.184   6.681   4.784
  480TIP3    H2 1398   8.081   6.738   4.878
  481TIP3   OH2 1399   3.561   0.990   0.480
  481TIP3    H1 1400   3.632   1.034   0.527
  481TIP3    H2 1401   3.482   1.039   0.507
  482TIP3   OH2 1402   3.118   1.186   5.036
  482TIP3    H1 1403   3.181   1.115   5.023
  482TIP3    H2 1404   3.071   1.161   5.115
  483TIP3   OH2 1405   4.265   6.068   1.095
  483TIP3    H1 1406   4.322   6.091   1.021
  483TIP3    H2 1407   4.179   6.102   1.072
  484TIP3   OH2 1408   3.027   7.401   0.676
  484TIP3    H1 1409   3.071   7.360   0.751
  484TIP3    H2 1410   3.093   7.403   0.608
  485TIP3   OH2 1411   2.814   6.806   5.543
  485TIP3    H1 1412   2.831   6.812   5.449
  485TIP3    H2 1413   2.776   6.719   5.555
  486TIP3   OH2 1414   7.200   1.056   3.937
  486TIP3    H1 1415   7.197   0.995   3.863
  486TIP3    H2 1416   7.124   1.113   3.924
  487TIP3   OH2 1417   6.726   2.643   0.051
  487TIP3    H1 1418   6.759   2.612   0.135
  487TIP3    H2 1419   6.767   2.728   0.039
  488TIP3   OH2 1420   6.544   4.303   3.265
  488TIP3    H1 1421   6.600   4.230   3.237
  488TIP3    H2 1422   6.537   4.359   3.188
  489TIP3   OH2 1423   2.243   2.375   5.138
  489TIP3    H1 1424   2.338   2.371   5.150
  489TIP3    H2 1425   2.223   2.302   5.080
  490TIP3   OH2 1426   0.143   7.537   1.040
  490TIP3    H1 1427   0.089   7.482   1.097
  490TIP3    H2 1428   0.146   7.489   0.957
  491TIP3   OH2 1429   0.806   2.043   1.796
  491TIP3    H1 1430   0.779   2.119   1.846
  491TIP3    H2 1431   0.808   1.971   1.859
  492TIP3   OH2 1432   3.025   3.610   3.450
  492TIP3    H1 1433   3.081   3.651   3.516
  492TIP3    H2 1434   3.077   3.537   3.417
  493TIP3   OH2 1435   2.760   6.166   4.457
  493TIP3    H1 1436   2.822   6.238   4.466
  493TIP3    H2 1437   2.677   6.208   4.433
  494TIP3   OH2 1438   6.765   4.862   6.047
  494TIP3    H1 1439   6.724   4.793   5.994
  494TIP3    H2 1440   6.712   4.940   6.031
  495TIP3   OH2 1441   4.423   2.334   0.991
  495TIP3    H1 1442   4.488   2.324   0.922
  495TIP3    H2 1443   4.465   2.299   1.069
  496TIP3   OH2 1444   1.289   0.764   6.427
  496TIP3    H1 1445   1.228   0.702   6.386
  496TIP3    H2 1446   1.300   0.833   6.362
  497TIP3   OH2 1447   5.926   1.850   2.582
  497TIP3    H1 1448   5.994   1.908   2.547
  497TIP3    H2 1449   5.972   1.769   2.604
  498TIP3   OH2 1450   7.455   2.981   0.829
  498TIP3    H1 1451   7.426   2.954   0.742
  498TIP3    H2 1452   7.515   3.053   0.813
  499TIP3   OH2 1453   5.745   7.619   4.552
  499TIP3    H1 1454   5.779   7.701   4.587
  499TIP3    H2 1455   5.751   7.557   4.625
  500TIP3   OH2 1456   1.579   5.248   3.870
  500TIP3    H1 1457   1.581   5.337   3.835
  500TIP3    H2 1458   1.503   5.247   3.929
  501TIP3   OH2 1459   7.460   0.588   0.729
  501TIP3    H1 1460   7.390   0.550   0.675
  501TIP3    H2 1461   7.478   0.673   0.688
  502TIP3   OH2 1462   2.596   1.472   0.341
  502TIP3    H1 1463   2.678   1.436   0.374
  502TIP3    H2 1464   2.622   1.555   0.300
  503TIP3   OH2 1465   1.442   5.925   3.051
  503TIP3    H1 1466   1.526   5.968   3.067
  503TIP3    H2 1467   1.380   5.974   3.106
  504TIP3   OH2 1468   4.915   3.038   2.022
  504TIP3    H1 1469   4.901   3.103   1.953
  504TIP3    H2 1470   4.915   3.089   2.103
  505TIP3   OH2 1471   6.644   0.342   0.406
  505TIP3    H1 1472   6.642   0.395   0.486
  505TIP3    H2 1473   6.707   0.387   0.349
  506TIP3   OH2 1474   7.318   4.469   6.264
  506TIP3    H1 1475   7.251   4.536   6.246
  506TIP3    H2 1476   7.343   4.485   6.356
  507TIP3   OH2 1477   5.545   1.177   3.914
  507TIP3    H1 1478   5.534   1.107   3.978
  507TIP3    H2 1479   5.463   1.177   3.864
  508TIP3   OH2 1480   3.322   7.512   3.925
  508TIP3    H1 1481   3.304   7.444   3.989
  508TIP3    H2 1482   3.343   7.590   3.977
  509TIP3   OH2 1483   5.332   1.879   0.170
  509TIP3    H1 1484   5.246   1.908   0.202
  509TIP3    H2 1485   5.393   1.944   0.205
  510TIP3   OH2 1486   1.948   3.698   2.642
  510TIP3    H1 1487   1.967   3.791   2.633
  510TIP3    H2 1488   1.871   3.695   2.700
  511TIP3   OH2 1489   2.075   5.443   4.232
  511TIP3    H1 1490   2.079   5.516   4.294
  511TIP3    H2 1491   2.119   5.371   4.278
  512TIP3   OH2 1492   3.497   1.266   0.052
  512TIP3    H1 1493   3.564   1.212   0.010
  512TIP3    H2 1494   3.456   1.208   0.116
  513TIP3   OH2 1495   6.809   2.992   3.166
  513TIP3    H1 1496   6.765   2.955   3.089
  513TIP3    H2 1497   6.783   3.084   3.168
  514TIP3   OH2 1498   5.799   0.649   0.265
  514TIP3    H1 1499   5.894   0.646   0.261
  514TIP3    H2 1500   5.773   0.557   0.275
  515TIP3   OH2 1501   1.844   4.258   2.864
  515TIP3    H1 1502   1.852   4.279   2.957
  515TIP3    H2 1503   1.782   4.322   2.829
  516TIP3   OH2 1504   6.514   0.077   5.240
  516TIP3    H1 1505   6.502   0.156   5.187
  516TIP3    H2 1506   6.457   0.090   5.316
  517TIP3   OH2 1507   0.901   7.777   2.070
  517TIP3    H1 1508   0.835   7.799   2.005
  517TIP3    H2 1509   0.856   7.717   2.130
  518TIP3   OH2 1510   4.463   0.881   3.990
  518TIP3    H1 1511   4.407   0.901   4.065
  518TIP3    H2 1512   4.459   0.786   3.982
  519TIP3   OH2 1513   0.463   1.928   2.372
  519TIP3    H1 1514   0.556   1.914   2.388
  519TIP3    H2 1515   0.443   2.012   2.413
  520TIP3   OH2 1516   1.314   4.223   5.755
  520TIP3    H1 1517   1.226   4.258   5.767
  520TIP3    H2 1518   1.358   4.236   5.839
  521TIP3   OH2 1519   4.481   4.599   6.493
  521TIP3    H1 1520   4.481   4.535   6.564
  521TIP3    H2 1521   4.463   4.683   6.536
  522TIP3   OH2 1522   8.078   6.125   0.145
  522TIP3    H1 1523   8.064   6.118   0.050
  522TIP3    H2 1524   8.173   6.126   0.155
  523TIP3   OH2 1525   5.877   6.974   3.213
  523TIP3    H1 1526   5.822   7.004   3.285
  523TIP3    H2 1527   5.818   6.969   3.138
  524TIP3   OH2 1528   2.154   5.921   6.187
  524TIP3    H1 1529   2.225   5.895   6.129
  524TIP3    H2 1530   2.191   5.916   6.275
  525TIP3   OH2 1531   2.070   0.704   1.617
  525TIP3    H1 1532   2.018   0.784   1.612
  525TIP3    H2 1533   2.046   0.654   1.539
  526TIP3   OH2 1534   3.606   3.108   1.064
  526TIP3    H1 1535   3.515   3.122   1.089
  526TIP3    H2 1536   3.602   3.054   0.985
  527TIP3   OH2 1537   1.149   3.697   5.103
  527TIP3    H1 1538   1.178   3.678   5.014
  527TIP3    H2 1539   1.067   3.648   5.112
  528TIP3   OH2 1540   6.941   3.472   1.456
  528TIP3    H1 1541   6.968   3.445   1.368
  528TIP3    H2 1542   6.893   3.396   1.490
  529TIP3   OH2 1543   2.701   7.412   4.737
  529TIP3    H1 1544   2.651   7.476   4.685
  529TIP3    H2 1545   2.756   7.367   4.673
  530TIP3   OH2 1546   7.210   0.834   2.150
  530TIP3    H1 1547   7.258   0.856   2.229
  530TIP3    H2 1548   7.212   0.914   2.097
  531TIP3   OH2 1549   7.262   5.741   4.695
  531TIP3    H1 1550   7.298   5.759   4.608
  531TIP3    H2 1551   7.173   5.710   4.679
  532TIP3   OH2 1552   3.213   7.048   0.838
  532TIP3    H1 1553   3.258   6.969   0.869
  532TIP3    H2 1554   3.267   7.079   0.765
  533TIP3   OH2 1555   3.393   2.149   0.450
  533TIP3    H1 1556   3.319   2.095   0.479
  533TIP3    H2 1557   3.446   2.161   0.529
  534TIP3   OH2 1558   6.037   1.972   1.827
  534TIP3    H1 1559   6.121   1.930   1.807
  534TIP3    H2 1560   6.020   2.029   1.752
  535TIP3   OH2 1561   5.012   3.555   5.522
  535TIP3    H1 1562   5.026   3.645   5.550
  535TIP3    H2 1563   5.082   3.538   5.459
  536TIP3   OH2 1564   3.295   2.655   5.684
  536TIP3    H1 1565   3.341   2.606   5.752
  536TIP3    H2 1566   3.244   2.720   5.732
  537TIP3   OH2 1567   0.017   7.045   0.445
  537TIP3    H1 1568   0.014   7.020   0.537
  537TIP3    H2 1569   0.098   7.095   0.436
  538TIP3   OH2 1570   6.098   4.822   1.749
  538TIP3    H1 1571   6.192   4.826   1.766
  538TIP3    H2 1572   6.064   4.762   1.815
  539TIP3   OH2 1573   3.634   2.779   2.221
  539TIP3    H1 1574   3.714   2.809   2.178
  539TIP3    H2 1575   3.613   2.696   2.177
  540TIP3   OH2 1576   5.479   2.599   2.819
  540TIP3    H1 1577   5.402   2.547   2.841
  540TIP3    H2 1578   5.501   2.574   2.729
  541TIP3   OH2 1579   5.124   2.637   0.008
  541TIP3    H1 1580   5.106   2.550  -0.027
  541TIP3    H2 1581   5.210   2.659  -0.026
  542TIP3   OH2 1582   7.473   1.327   6.470
  542TIP3    H1 1583   7.565   1.317   6.443
  542TIP3    H2 1584   7.423   1.293   6.396
  543TIP3   OH2 1585   7.797   4.532   3.346
  543TIP3    H1 1586   7.729   4.594   3.319
  543TIP3    H2 1587   7.868   4.548   3.284
  544TIP3   OH2 1588   3.860   5.614   2.962
  544TIP3    H1 1589   3.916   5.686   2.993
  544TIP3    H2 1590   3.921   5.551   2.924
  545TIP3   OH2 1591   4.602   3.755   6.741
  545TIP3    H1 1592   4.550   3.709   6.675
  545TIP3    H2 1593   4.655   3.817   6.691
  546TIP3   OH2 1594   4.015   2.279   3.923
  546TIP3    H1 1595   4.038   2.371   3.935
  546TIP3    H2 1596   4.001   2.246   4.012
  547TIP3   OH2 1597   3.619   0.531   3.834
  547TIP3    H1 1598   3.635   0.620   3.864
  547TIP3    H2 1599   3.533   0.508   3.870
  548TIP3   OH2 1600   4.945   4.409   1.575
  548TIP3    H1 1601   4.922   4.343   1.640
  548TIP3    H2 1602   4.863   4.457   1.560
  549TIP3   OH2 1603   4.270   6.929   5.353
  549TIP3    H1 1604   4.260   6.899   5.443
  549TIP3    H2 1605   4.182   6.921   5.315
  550TIP3   OH2 1606   7.042   5.429   4.909
  550TIP3    H1 1607   7.052   5.334   4.910
  550TIP3    H2 1608   7.096   5.459   4.835
  551TIP3   OH2 1609   4.269   3.097   1.177
  551TIP3    H1 1610   4.357   3.078   1.145
  551TIP3    H2 1611   4.213   3.089   1.100
  552TIP3   OH2 1612   8.113   7.400   1.899
  552TIP3    H1 1613   8.077   7.439   1.979
  552TIP3    H2 1614   8.093   7.464   1.831
  553TIP3   OH2 1615   7.767   3.402   2.358
  553TIP3    H1 1616   7.728   3.392   2.271
  553TIP3    H2 1617   7.843   3.459   2.344
  554TIP3   OH2 1618   1.705   0.050   1.358
  554TIP3    H1 1619   1.783  -0.005   1.363
  554TIP3    H2 1620   1.672   0.038   1.269
  555TIP3   OH2 1621   4.249   5.822   3.085
  555TIP3    H1 1622   4.343   5.822   3.107
  555TIP3    H2 1623   4.247   5.840   2.991
  556TIP3   OH2 1624   5.195   4.009   3.809
  556TIP3    H1 1625   5.233   4.039   3.727
  556TIP3    H2 1626   5.102   3.995   3.789
  557TIP3   OH2 1627   3.318   5.142   5.437
  557TIP3    H1 1628   3.240   5.105   5.397
  557TIP3    H2 1629   3.354   5.071   5.490
  558TIP3   OH2 1630   1.569   1.797   3.945
  558TIP3    H1 1631   1.560   1.888   3.975
  558TIP3    H2 1632   1.647   1.765   3.990
  559TIP3   OH2 1633   5.028   1.025   5.860
  559TIP3    H1 1634   5.051   0.994   5.773
  559TIP3    H2 1635   4.964   0.961   5.892
  560TIP3   OH2 1636   7.060   6.740   2.492
  560TIP3    H1 1637   7.153   6.735   2.469
  560TIP3    H2 1638   7.051   6.825   2.536
  561TIP3   OH2 1639   6.125   7.463   0.093
  561TIP3    H1 1640   6.098   7.377   0.061
  561TIP3    H2 1641   6.167   7.505   0.017
  562TIP3   OH2 1642   0.774   4.328   3.134
  562TIP3    H1 1643   0.727   4.291   3.059
  562TIP3    H2 1644   0.764   4.263   3.203
  563TIP3   OH2 1645   3.065   7.299   0.298
  563TIP3    H1 1646   3.123   7.288   0.373
  563TIP3    H2 1647   3.029   7.387   0.308
  564TIP3   OH2 1648   5.026   6.591   5.693
  564TIP3    H1 1649   5.089   6.545   5.636
  564TIP3    H2 1650   4.972   6.642   5.632
  565TIP3   OH2 1651   3.821   6.265   1.527
  565TIP3    H1 1652   3.851   6.355   1.516
  565TIP3    H2 1653   3.884   6.213   1.477
  566TIP3   OH2 1654   8.303   5.622   0.947
  566TIP3    H1 1655   8.363   5.687   0.911
  566TIP3    H2 1656   8.255   5.669   1.015
  567TIP3   OH2 1657   2.310   4.391   2.883
  567TIP3    H1 1658   2.243   4.323   2.890
  567TIP3    H2 1659   2.392   4.343   2.867
  568TIP3   OH2 1660   2.233   6.418   5.675
  568TIP3    H1 1661   2.256   6.509   5.655
  568TIP3    H2 1662   2.300   6.390   5.737
  569TIP3   OH2 1663   5.439   0.858   4.916
  569TIP3    H1 1664   5.368   0.862   4.852
  569TIP3    H2 1665   5.483   0.775   4.899
  570TIP3   OH2 1666   2.207   2.208   3.072
  570TIP3    H1 1667   2.179   2.297   3.094
  570TIP3    H2 1668   2.134   2.171   3.023
  571TIP3   OH2 1669   2.157   4.593   5.615
  571TIP3    H1 1670   2.113   4.574   5.698
  571TIP3    H2 1671   2.090   4.577   5.548
  572TIP3   OH2 1672   4.251   4.660   4.233
  572TIP3    H1 1673   4.205   4.688   4.312
  572TIP3    H2 1674   4.202   4.582   4.203
  573TIP3   OH2 1675   4.158   3.937   6.349
  573TIP3    H1 1676   4.227   3.969   6.406
  573TIP3    H2 1677   4.182   3.845   6.332
  574TIP3   OH2 1678   6.100   1.159   6.703
  574TIP3    H1 1679   6.183   1.193   6.670
  574TIP3    H2 1680   6.047   1.237   6.719
  575TIP3   OH2 1681   7.754   0.145   4.370
  575TIP3    H1 1682   7.664   0.122   4.393
  575TIP3    H2 1683   7.755   0.241   4.368
  576TIP3   OH2 1684   1.942   3.920   1.805
  576TIP3    H1 1685   1.880   3.983   1.769
  576TIP3    H2 1686   1.952   3.854   1.737
  577TIP3   OH2 1687   6.099   7.880   4.838
  577TIP3    H1 1688   6.114   7.798   4.885
  577TIP3    H2 1689   6.186   7.915   4.821
  578TIP3   OH2 1690   1.072   6.641   4.203
  578TIP3    H1 1691   1.034   6.566   4.251
  578TIP3    H2 1692   1.138   6.601   4.147
  579TIP3   OH2 1693   2.594   1.079   1.047
  579TIP3    H1 1694   2.524   1.122   1.096
  579TIP3    H2 1695   2.647   1.151   1.012
  580TIP3   OH2 1696   5.395   0.181   6.451
  580TIP3    H1 1697   5.442   0.099   6.436
  580TIP3    H2 1698   5.462   0.249   6.438
  581TIP3   OH2 1699   5.927   7.825   2.987
  581TIP3    H1 1700   5.840   7.800   3.018
  581TIP3    H2 1701   5.912   7.907   2.940
  582TIP3   OH2 1702   7.114   3.326   4.469
  582TIP3    H1 1703   7.157   3.264   4.410
  582TIP3    H2 1704   7.131   3.412   4.431
  583TIP3   OH2 1705   1.560   6.594   0.765
  583TIP3    H1 1706   1.627   6.570   0.702
  583TIP3    H2 1707   1.587   6.551   0.847
  584TIP3   OH2 1708   1.658   7.513   4.761
  584TIP3    H1 1709   1.699   7.427   4.760
  584TIP3    H2 1710   1.668   7.544   4.851
  585TIP3   OH2 1711   8.153   4.765   1.388
  585TIP3    H1 1712   8.175   4.851   1.424
  585TIP3    H2 1713   8.064   4.775   1.354
  586TIP3   OH2 1714   0.916   7.201   2.083
  586TIP3    H1 1715   0.910   7.166   2.172
  586TIP3    H2 1716   0.987   7.151   2.042
  587TIP3   OH2 1717   2.484   1.476   5.396
  587TIP3    H1 1718   2.435   1.436   5.325
  587TIP3    H2 1719   2.575   1.470   5.370
  588TIP3   OH2 1720   2.990   0.202   0.607
  588TIP3    H1 1721   3.067   0.156   0.638
  588TIP3    H2 1722   2.929   0.200   0.680
  589TIP3   OH2 1723   6.100   0.659   3.020
  589TIP3    H1 1724   6.128   0.577   3.060
  589TIP3    H2 1725   6.172   0.682   2.961
  590TIP3   OH2 1726   0.746   7.722   2.553
  590TIP3    H1 1727   0.748   7.638   2.507
  590TIP3    H2 1728   0.787   7.783   2.493
  591TIP3   OH2 1729   2.406   7.057   0.801
  591TIP3    H1 1730   2.384   6.970   0.768
  591TIP3    H2 1731   2.502   7.058   0.805
  592TIP3   OH2 1732   4.791   2.614   5.050
  592TIP3    H1 1733   4.771   2.680   4.984
  592TIP3    H2 1734   4.712   2.610   5.105
  593TIP3   OH2 1735   0.857   5.826   5.654
  593TIP3    H1 1736   0.794   5.899   5.656
  593TIP3    H2 1737   0.935   5.864   5.614
  594TIP3   OH2 1738   3.868   7.290   0.397
  594TIP3    H1 1739   3.894   7.201   0.422
  594TIP3    H2 1740   3.807   7.318   0.465
  595TIP3   OH2 1741   0.255   6.969   0.977
  595TIP3    H1 1742   0.241   6.939   0.888
  595TIP3    H2 1743   0.260   6.888   1.029
  596TIP3   OH2 1744   7.167   7.081   2.123
  596TIP3    H1 1745   7.112   7.127   2.187
  596TIP3    H2 1746   7.241   7.141   2.109
  597TIP3   OH2 1747   7.747   6.573   3.533
  597TIP3    H1 1748   7.746   6.541   3.623
  597TIP3    H2 1749   7.839   6.570   3.508
  598TIP3   OH2 1750   1.852   5.405   1.400
  598TIP3    H1 1751   1.916   5.336   1.383
  598TIP3    H2 1752   1.771   5.374   1.359
  599TIP3   OH2 1753   7.687   5.579   0.990
  599TIP3    H1 1754   7.614   5.579   1.052
  599TIP3    H2 1755   7.758   5.623   1.037
  600TIP3   OH2 1756   3.704   2.472   0.131
  600TIP3    H1 1757   3.657   2.522   0.065
  600TIP3    H2 1758   3.755   2.537   0.179
  601TIP3   OH2 1759   8.222   2.720   4.616
  601TIP3    H1 1760   8.208   2.801   4.568
  601TIP3    H2 1761   8.146   2.713   4.675
  602TIP3   OH2 1762   5.714   5.441   2.629
  602TIP3    H1 1763   5.632   5.415   2.672
  602TIP3    H2 1764   5.783   5.401   2.682
  603TIP3   OH2 1765   4.719   6.849   6.710
  603TIP3    H1 1766   4.647   6.910   6.696
  603TIP3    H2 1767   4.797   6.905   6.713
  604TIP3   OH2 1768   7.512   2.947   5.964
  604TIP3    H1 1769   7.469   2.868   5.932
  604TIP3    H2 1770   7.482   3.016   5.905
  605TIP3   OH2 1771   5.510   4.550   1.951
  605TIP3    H1 1772   5.448   4.621   1.968
  605TIP3    H2 1773   5.581   4.565   2.013
  606TIP3   OH2 1774   5.185   2.363   0.864
  606TIP3    H1 1775   5.252   2.418   0.906
  606TIP3    H2 1776   5.233   2.315   0.796
  607TIP3   OH2 1777   0.929   1.886   0.747
  607TIP3    H1 1778   0.844   1.906   0.706
  607TIP3    H2 1779   0.909   1.818   0.811
  608TIP3   OH2 1780   6.399   6.876   0.567
  608TIP3    H1 1781   6.438   6.891   0.481
  608TIP3    H2 1782   6.348   6.795   0.556
  609TIP3   OH2 1783   7.627   3.373   4.317
  609TIP3    H1 1784   7.597   3.424   4.392
  609TIP3    H2 1785   7.719   3.355   4.336
  610TIP3   OH2 1786   3.654   3.137   0.169
  610TIP3    H1 1787   3.614   3.159   0.085
  610TIP3    H2 1788   3.725   3.201   0.179
  611TIP3   OH2 1789   0.968   4.986   5.324
  611TIP3    H1 1790   1.060   4.973   5.302
  611TIP3    H2 1791   0.954   4.932   5.402
  612TIP3   OH2 1792   4.183   1.839   1.315
  612TIP3    H1 1793   4.171   1.934   1.312
  612TIP3    H2 1794   4.192   1.813   1.223
  613TIP3   OH2 1795   7.490   3.712   2.387
  613TIP3    H1 1796   7.565   3.682   2.439
  613TIP3    H2 1797   7.486   3.651   2.314
  614TIP3   OH2 1798   3.878   0.897   0.987
  614TIP3    H1 1799   3.960   0.892   0.937
  614TIP3    H2 1800   3.812   0.861   0.928
  615TIP3   OH2 1801   7.621   7.638   2.875
  615TIP3    H1 1802   7.562   7.710   2.849
  615TIP3    H2 1803   7.626   7.646   2.971
  616TIP3   OH2 1804   3.221   0.347   0.933
  616TIP3    H1 1805   3.233   0.342   1.028
  616TIP3    H2 1806   3.126   0.348   0.921
  617TIP3   OH2 1807   7.312   0.259   3.037
  617TIP3    H1 1808   7.257   0.309   3.097
  617TIP3    H2 1809   7.260   0.249   2.957
  618TIP3   OH2 1810   0.937   7.735   5.428
  618TIP3    H1 1811   0.959   7.650   5.389
  618TIP3    H2 1812   0.985   7.798   5.375
  619TIP3   OH2 1813   7.870   4.569   1.097
  619TIP3    H1 1814   7.848   4.523   1.016
  619TIP3    H2 1815   7.956   4.607   1.081
  620TIP3   OH2 1816   2.697   0.388   3.608
  620TIP3    H1 1817   2.673   0.315   3.664
  620TIP3    H2 1818   2.669   0.466   3.657
  621TIP3   OH2 1819   3.999   5.786   0.952
  621TIP3    H1 1820   4.049   5.799   1.033
  621TIP3    H2 1821   3.913   5.758   0.981
  622TIP3   OH2 1822   1.486   6.275   4.356
  622TIP3    H1 1823   1.468   6.228   4.275
  622TIP3    H2 1824   1.419   6.344   4.360
  623TIP3   OH2 1825   6.815   3.671   4.764
  623TIP3    H1 1826   6.750   3.626   4.818
  623TIP3    H2 1827   6.880   3.603   4.744
  624TIP3   OH2 1828   4.439   5.784   1.955
  624TIP3    H1 1829   4.347   5.803   1.975
  624TIP3    H2 1830   4.487   5.817   2.031
  625TIP3   OH2 1831   4.325   7.179   4.059
  625TIP3    H1 1832   4.374   7.218   4.131
  625TIP3    H2 1833   4.236   7.170   4.093
  626TIP3   OH2 1834   0.513   0.836   4.792
  626TIP3    H1 1835   0.464   0.906   4.749
  626TIP3    H2 1836   0.600   0.873   4.806
  627TIP3   OH2 1837   6.867   4.814   0.145
  627TIP3    H1 1838   6.841   4.905   0.161
  627TIP3    H2 1839   6.830   4.766   0.220
  628TIP3   OH2 1840   2.919   4.995   6.263
  628TIP3    H1 1841   2.892   4.913   6.223
  628TIP3    H2 1842   3.015   4.991   6.263
  629TIP3   OH2 1843   2.153   7.894   3.703
  629TIP3    H1 1844   2.145   7.876   3.609
  629TIP3    H2 1845   2.071   7.862   3.741
  630TIP3   OH2 1846   3.626   1.643   0.723
  630TIP3    H1 1847   3.554   1.644   0.787
  630TIP3    H2 1848   3.673   1.725   0.738
  631TIP3   OH2 1849   1.110   4.785   1.493
  631TIP3    H1 1850   1.103   4.703   1.445
  631TIP3    H2 1851   1.164   4.842   1.438
  632TIP3   OH2 1852   5.348   2.679   5.102
  632TIP3    H1 1853   5.417   2.614   5.118
  632TIP3    H2 1854   5.271   2.643   5.147
  633TIP3   OH2 1855   6.140   1.921   0.277
  633TIP3    H1 1856   6.190   1.958   0.350
  633TIP3    H2 1857   6.057   1.894   0.315
  634TIP3   OH2 1858   5.467   2.382   6.510
  634TIP3    H1 1859   5.408   2.457   6.499
  634TIP3    H2 1860   5.417   2.307   6.478
  635TIP3   OH2 1861   5.855   3.683   0.659
  635TIP3    H1 1862   5.770   3.646   0.684
  635TIP3    H2 1863   5.918   3.614   0.679
  636TIP3   OH2 1864   4.568   6.186   0.457
  636TIP3    H1 1865   4.503   6.255   0.471
  636TIP3    H2 1866   4.647   6.233   0.430
  637TIP3   OH2 1867   7.414   6.603   0.323
  637TIP3    H1 1868   7.478   6.532   0.329
  637TIP3    H2 1869   7.362   6.595   0.403
  638TIP3   OH2 1870   2.964   7.016   0.876
  638TIP3    H1 1871   2.929   7.057   0.797
  638TIP3    H2 1872   3.058   7.013   0.862
  639TIP3   OH2 1873   4.264   7.709   1.894
  639TIP3    H1 1874   4.207   7.765   1.946
  639TIP3    H2 1875   4.350   7.718   1.934
  640TIP3   OH2 1876   1.821   1.968   1.070
  640TIP3    H1 1877   1.737   1.940   1.034
  640TIP3    H2 1878   1.882   1.960   0.997
  641TIP3   OH2 1879   0.641   0.923   0.820
  641TIP3    H1 1880   0.653   0.910   0.914
  641TIP3    H2 1881   0.549   0.947   0.810
  642TIP3   OH2 1882   6.289   3.746   4.184
  642TIP3    H1 1883   6.314   3.800   4.258
  642TIP3    H2 1884   6.371   3.706   4.154
  643TIP3   OH2 1885   7.585   4.700   1.371
  643TIP3    H1 1886   7.624   4.613   1.381
  643TIP3    H2 1887   7.659   4.759   1.361
  644TIP3   OH2 1888   6.581   2.798   6.676
  644TIP3    H1 1889   6.648   2.828   6.616
  644TIP3    H2 1890   6.563   2.873   6.733
  645TIP3   OH2 1891   2.022   1.678   0.212
  645TIP3    H1 1892   2.037   1.659   0.304
  645TIP3    H2 1893   2.046   1.770   0.201
  646TIP3   OH2 1894   7.445   0.201   1.937
  646TIP3    H1 1895   7.494   0.204   1.854
  646TIP3    H2 1896   7.511   0.216   2.004
  647TIP3   OH2 1897   4.182   5.731   0.662
  647TIP3    H1 1898   4.092   5.706   0.639
  647TIP3    H2 1899   4.192   5.819   0.627
  648TIP3   OH2 1900   5.268   2.950   0.775
  648TIP3    H1 1901   5.228   2.865   0.792
  648TIP3    H2 1902   5.340   2.931   0.715
  649TIP3   OH2 1903   4.246   5.449   2.515
  649TIP3    H1 1904   4.222   5.374   2.569
  649TIP3    H2 1905   4.241   5.416   2.425
  650TIP3   OH2 1906   8.155   7.567   1.673
  650TIP3    H1 1907   8.173   7.651   1.631
  650TIP3    H2 1908   8.201   7.503   1.620
  651TIP3   OH2 1909   6.851   5.277   3.147
  651TIP3    H1 1910   6.900   5.237   3.075
  651TIP3    H2 1911   6.902   5.353   3.173
  652TIP3   OH2 1912   4.770   3.556   4.571
  652TIP3    H1 1913   4.822   3.531   4.495
  652TIP3    H2 1914   4.800   3.644   4.593
  653TIP3   OH2 1915   2.880   4.122   4.139
  653TIP3    H1 1916   2.820   4.102   4.067
  653TIP3    H2 1917   2.922   4.204   4.113
  654TIP3   OH2 1918   6.524   0.410   4.240
  654TIP3    H1 1919   6.514   0.414   4.335
  654TIP3    H2 1920   6.606   0.364   4.227
  655TIP3   OH2 1921   6.056   2.362   2.949
  655TIP3    H1 1922   5.968   2.384   2.980
  655TIP3    H2 1923   6.092   2.306   3.018
  656TIP3   OH2 1924   7.148   5.118   0.643
  656TIP3    H1 1925   7.177   5.049   0.703
  656TIP3    H2 1926   7.175   5.087   0.557
  657TIP3   OH2 1927   3.599   5.178   4.678
  657TIP3    H1 1928   3.674   5.149   4.730
  657TIP3    H2 1929   3.555   5.241   4.734
  658TIP3   OH2 1930   3.602   2.881   2.496
  658TIP3    H1 1931   3.626   2.849   2.408
  658TIP3    H2 1932   3.555   2.808   2.536
  659TIP3   OH2 1933   5.294   4.732   4.198
  659TIP3    H1 1934   5.340   4.816   4.207
  659TIP3    H2 1935   5.357   4.676   4.152
  660TIP3   OH2 1936   7.267   6.833   3.869
  660TIP3    H1 1937   7.198   6.807   3.930
  660TIP3    H2 1938   7.247   6.924   3.849
  661TIP3   OH2 1939   0.857   5.037   0.739
  661TIP3    H1 1940   0.827   4.986   0.815
  661TIP3    H2 1941   0.832   5.127   0.759
  662TIP3   OH2 1942   4.079   6.325   6.294
  662TIP3    H1 1943   4.019   6.298   6.224
  662TIP3    H2 1944   4.022   6.338   6.370
  663TIP3   OH2 1945   4.979   2.898   0.254
  663TIP3    H1 1946   4.919   2.859   0.317
  663TIP3    H2 1947   5.023   2.968   0.303
  664TIP3   OH2 1948   2.229   2.260   2.700
  664TIP3    H1 1949   2.230   2.287   2.609
  664TIP3    H2 1950   2.225   2.342   2.750
  665TIP3   OH2 1951   4.241   1.164   2.131
  665TIP3    H1 1952   4.292   1.085   2.109
  665TIP3    H2 1953   4.260   1.225   2.059
  666TIP3   OH2 1954   7.102   0.834   6.232
  666TIP3    H1 1955   7.085   0.778   6.157
  666TIP3    H2 1956   7.193   0.814   6.257
  667TIP3   OH2 1957   0.085   5.213   5.823
  667TIP3    H1 1958   0.108   5.299   5.787
  667TIP3    H2 1959   0.104   5.220   5.916
  668TIP3   OH2 1960   1.587   3.404   1.834
  668TIP3    H1 1961   1.584   3.460   1.756
  668TIP3    H2 1962   1.524   3.335   1.816
  669TIP3   OH2 1963   7.534   5.287   3.576
  669TIP3    H1 1964   7.566   5.207   3.535
  669TIP3    H2 1965   7.589   5.357   3.540
  670TIP3   OH2 1966   4.382   4.883   5.565
  670TIP3    H1 1967   4.474   4.889   5.592
  670TIP3    H2 1968   4.346   4.812   5.617
  671TIP3   OH2 1969   4.910   6.826   2.608
  671TIP3    H1 1970   4.940   6.821   2.699
  671TIP3    H2 1971   4.908   6.735   2.579
  672TIP3   OH2 1972   5.107   2.615   2.030
  672TIP3    H1 1973   5.151   2.575   2.104
  672TIP3    H2 1974   5.042   2.674   2.069
  673TIP3   OH2 1975   8.130   2.787   6.506
  673TIP3    H1 1976   8.064   2.734   6.549
  673TIP3    H2 1977   8.084   2.829   6.433
  674TIP3   OH2 1978   2.435   3.471   5.608
  674TIP3    H1 1979   2.457   3.471   5.701
  674TIP3    H2 1980   2.453   3.560   5.579
  675TIP3   OH2 1981   5.119   1.277   5.150
  675TIP3    H1 1982   5.116   1.354   5.093
  675TIP3    H2 1983   5.210   1.274   5.181
  676TIP3   OH2 1984   4.221   3.588   5.393
  676TIP3    H1 1985   4.294   3.616   5.448
  676TIP3    H2 1986   4.221   3.492   5.400
  677TIP3   OH2 1987   6.876   5.787   6.725
  677TIP3    H1 1988   6.967   5.779   6.753
  677TIP3    H2 1989   6.882   5.812   6.632
  678TIP3   OH2 1990   2.232   6.676   5.352
  678TIP3    H1 1991   2.324   6.687   5.329
  678TIP3    H2 1992   2.231   6.676   5.448
  679TIP3   OH2 1993   2.358   4.854   5.304
  679TIP3    H1 1994   2.431   4.805   5.267
  679TIP3    H2 1995   2.301   4.872   5.230
  680TIP3   OH2 1996   0.641   3.631   5.814
  680TIP3    H1 1997   0.638   3.553   5.759
  680TIP3    H2 1998   0.728   3.629   5.854
  681TIP3   OH2 1999   6.796   7.458   6.324
  681TIP3    H1 2000   6.886   7.490   6.316
  681TIP3    H2 2001   6.765   7.449   6.234
  682TIP3   OH2 2002   5.793   2.377   3.010
  682TIP3    H1 2003   5.790   2.447   3.076
  682TIP3    H2 2004   5.740   2.410   2.937
  683TIP3   OH2 2005   5.001   0.386   4.495
  683TIP3    H1 2006   5.057   0.439   4.439
  683TIP3    H2 2007   5.003   0.299   4.455
  684TIP3   OH2 2008   4.264   1.542   3.275
  684TIP3    H1 2009   4.180   1.528   3.231
  684TIP3    H2 2010   4.290   1.455   3.305
  685TIP3   OH2 2011   5.228   1.779   6.585
  685TIP3    H1 2012   5.312   1.736   6.597
  685TIP3    H2 2013   5.219   1.789   6.491
  686TIP3   OH2 2014   4.475   5.317   5.146
  686TIP3    H1 2015   4.519   5.271   5.218
  686TIP3    H2 2016   4.463   5.251   5.078
  687TIP3   OH2 2017   1.002   2.331   4.773
  687TIP3    H1 2018   0.918   2.369   4.800
  687TIP3    H2 2019   0.979   2.256   4.718
  688TIP3   OH2 2020   8.279   1.607   0.914
  688TIP3    H1 2021   8.347   1.540   0.922
  688TIP3    H2 2022   8.199   1.558   0.898
  689TIP3   OH2 2023   6.416   3.603   3.382
  689TIP3    H1 2024   6.421   3.562   3.296
  689TIP3    H2 2025   6.507   3.612   3.410
  690TIP3   OH2 2026   5.674   5.495   3.467
  690TIP3    H1 2027   5.597   5.453   3.503
  690TIP3    H2 2028   5.687   5.452   3.382
  691TIP3   OH2 2029   2.958   6.094   0.240
  691TIP3    H1 2030   2.970   6.149   0.317
  691TIP3    H2 2031   3.012   6.017   0.257
  692TIP3   OH2 2032   2.827   4.424   0.655
  692TIP3    H1 2033   2.808   4.332   0.673
  692TIP3    H2 2034   2.888   4.450   0.725
  693TIP3   OH2 2035   5.573   1.878   2.081
  693TIP3    H1 2036   5.484   1.904   2.103
  693TIP3    H2 2037   5.610   1.848   2.164
  694TIP3   OH2 2038   1.419   5.803   2.248
  694TIP3    H1 2039   1.419   5.773   2.339
  694TIP3    H2 2040   1.415   5.898   2.254
  695TIP3   OH2 2041   2.339   1.459   4.146
  695TIP3    H1 2042   2.416   1.471   4.090
  695TIP3    H2 2043   2.364   1.389   4.206
  696TIP3   OH2 2044   1.424   3.348   3.859
  696TIP3    H1 2045   1.514   3.328   3.885
  696TIP3    H2 2046   1.370   3.287   3.910
  697TIP3   OH2 2047   0.742   1.163   4.359
  697TIP3    H1 2048   0.790   1.083   4.379
  697TIP3    H2 2049   0.808   1.226   4.332
  698TIP3   OH2 2050   5.002   0.465   4.863
  698TIP3    H1 2051   4.933   0.408   4.897
  698TIP3    H2 2052   5.023   0.523   4.937
  699TIP3   OH2 2053   6.249   6.500   4.800
  699TIP3    H1 2054   6.215   6.548   4.876
  699TIP3    H2 2055   6.342   6.487   4.820
  700TIP3   OH2 2056   4.545   1.228   2.823
  700TIP3    H1 2057   4.617   1.279   2.787
  700TIP3    H2 2058   4.509   1.283   2.892
  701TIP3   OH2 2059   2.118   3.112   1.400
  701TIP3    H1 2060   2.182   3.179   1.375
  701TIP3    H2 2061   2.048   3.161   1.443
  702TIP3   OH2 2062   6.354   3.275   5.929
  702TIP3    H1 2063   6.261   3.268   5.950
  702TIP3    H2 2064   6.358   3.264   5.834
  703TIP3   OH2 2065   3.542   2.728   0.064
  703TIP3    H1 2066   3.462   2.700   0.110
  703TIP3    H2 2067   3.514   2.738  -0.027
  704TIP3   OH2 2068   7.771   6.083   4.084
  704TIP3    H1 2069   7.798   6.170   4.114
  704TIP3    H2 2070   7.834   6.024   4.125
  705TIP3   OH2 2071   7.376   5.655   0.198
  705TIP3    H1 2072   7.318   5.642   0.273
  705TIP3    H2 2073   7.388   5.568   0.162
  706TIP3   OH2 2074   4.468   1.510   6.548
  706TIP3    H1 2075   4.509   1.595   6.560
  706TIP3    H2 2076   4.389   1.513   6.602
  707TIP3   OH2 2077   6.868   0.567   0.443
  707TIP3    H1 2078   6.936   0.616   0.397
  707TIP3    H2 2079   6.825   0.633   0.498
  708TIP3   OH2 2080   6.669   4.273   6.283
  708TIP3    H1 2081   6.739   4.338   6.293
  708TIP3    H2 2082   6.606   4.295   6.351
  709TIP3   OH2 2083   1.628   3.494   3.048
  709TIP3    H1 2084   1.632   3.404   3.015
  709TIP3    H2 2085   1.612   3.485   3.142
  710TIP3   OH2 2086   1.232   5.147   0.093
  710TIP3    H1 2087   1.201   5.083   0.157
  710TIP3    H2 2088   1.164   5.149   0.025
  711TIP3   OH2 2089   7.179   3.183   5.605
  711TIP3    H1 2090   7.174   3.206   5.512
  711TIP3    H2 2091   7.165   3.265   5.651
  712TIP3   OH2 2092   6.201   4.729   3.721
  712TIP3    H1 2093   6.120   4.780   3.718
  712TIP3    H2 2094   6.236   4.746   3.808
  713TIP3   OH2 2095   1.255   2.054   2.478
  713TIP3    H1 2096   1.176   2.071   2.528
  713TIP3    H2 2097   1.224   2.016   2.396
  714TIP3   OH2 2098   4.222   6.718   6.573
  714TIP3    H1 2099   4.264   6.654   6.630
  714TIP3    H2 2100   4.269   6.712   6.490
  715TIP3   OH2 2101   7.864   6.796   4.073
  715TIP3    H1 2102   7.928   6.726   4.082
  715TIP3    H2 2103   7.878   6.831   3.985
  716TIP3   OH2 2104   7.936   6.474   0.504
  716TIP3    H1 2105   7.923   6.464   0.410
  716TIP3    H2 2106   7.933   6.568   0.519
  717TIP3   OH2 2107   5.185   3.990   6.699
  717TIP3    H1 2108   5.245   3.985   6.774
  717TIP3    H2 2109   5.110   3.938   6.726
  718TIP3   OH2 2110   4.950   4.272   4.166
  718TIP3    H1 2111   5.006   4.289   4.090
  718TIP3    H2 2112   4.940   4.357   4.208
  719TIP3   OH2 2113   7.855   3.974   1.911
  719TIP3    H1 2114   7.899   4.021   1.982
  719TIP3    H2 2115   7.782   4.031   1.887
  720TIP3   OH2 2116   7.214   6.973   0.630
  720TIP3    H1 2117   7.186   7.057   0.594
  720TIP3    H2 2118   7.133   6.924   0.643
  721TIP3   OH2 2119   8.148   6.928   6.511
  721TIP3    H1 2120   8.242   6.945   6.507
  721TIP3    H2 2121   8.131   6.867   6.439
  722TIP3   OH2 2122   7.340   5.144   5.164
  722TIP3    H1 2123   7.345   5.052   5.140
  722TIP3    H2 2124   7.250   5.157   5.195
  723TIP3   OH2 2125   1.810   1.712   6.285
  723TIP3    H1 2126   1.772   1.667   6.361
  723TIP3    H2 2127   1.765   1.675   6.210
  724TIP3   OH2 2128   1.052   2.634   0.994
  724TIP3    H1 2129   1.026   2.634   1.087
  724TIP3    H2 2130   1.010   2.711   0.957
  725TIP3   OH2 2131   4.424   4.773   2.364
  725TIP3    H1 2132   4.486   4.799   2.295
  725TIP3    H2 2133   4.473   4.710   2.417
  726TIP3   OH2 2134   3.941   5.091   2.941
  726TIP3    H1 2135   3.882   5.132   3.004
  726TIP3    H2 2136   3.988   5.025   2.992
  727TIP3   OH2 2137   1.772   5.260   5.117
  727TIP3    H1 2138   1.857   5.243   5.157
  727TIP3    H2 2139   1.758   5.354   5.131
  728TIP3   OH2 2140   2.877   2.652   2.474
  728TIP3    H1 2141   2.929   2.728   2.501
  728TIP3    H2 2142   2.875   2.596   2.551
  729TIP3   OH2 2143   7.026   1.837   5.713
  729TIP3    H1 2144   7.074   1.917   5.693
  729TIP3    H2 2145   6.991   1.852   5.801
  730TIP3   OH2 2146   7.100   3.546   5.422
  730TIP3    H1 2147   7.016   3.510   5.450
  730TIP3    H2 2148   7.130   3.598   5.497
  731TIP3   OH2 2149   7.488   0.870   3.693
  731TIP3    H1 2150   7.556   0.803   3.685
  731TIP3    H2 2151   7.535   0.953   3.686
  732TIP3   OH2 2152   7.700   3.018   4.860
  732TIP3    H1 2153   7.721   2.929   4.888
  732TIP3    H2 2154   7.652   3.055   4.934
  733TIP3   OH2 2155   8.301   0.017   3.446
  733TIP3    H1 2156   8.230  -0.027   3.494
  733TIP3    H2 2157   8.258   0.092   3.405
  734TIP3   OH2 2158   4.255   6.986   1.546
  734TIP3    H1 2159   4.323   6.935   1.502
  734TIP3    H2 2160   4.279   6.984   1.639
  735TIP3   OH2 2161   2.835   6.165   3.690
  735TIP3    H1 2162   2.853   6.233   3.756
  735TIP3    H2 2163   2.753   6.125   3.719
  736TIP3   OH2 2164   0.972   6.602   3.457
  736TIP3    H1 2165   1.034   6.577   3.388
  736TIP3    H2 2166   1.017   6.671   3.505
  737TIP3   OH2 2167   5.194   7.215   3.418
  737TIP3    H1 2168   5.190   7.228   3.513
  737TIP3    H2 2169   5.107   7.239   3.387
  738TIP3   OH2 2170   1.047   4.507   2.726
  738TIP3    H1 2171   1.005   4.443   2.784
  738TIP3    H2 2172   1.129   4.528   2.770
  739TIP3   OH2 2173   3.972   5.772   3.177
  739TIP3    H1 2174   4.066   5.791   3.170
  739TIP3    H2 2175   3.963   5.726   3.260
  740TIP3   OH2 2176   5.952   6.263   0.463
  740TIP3    H1 2177   5.889   6.317   0.415
  740TIP3    H2 2178   5.929   6.275   0.555
  741TIP3   OH2 2179   3.874   3.077   1.293
  741TIP3    H1 2180   3.939   3.113   1.232
  741TIP3    H2 2181   3.809   3.036   1.236
  742TIP3   OH2 2182   2.946   5.044   4.679
  742TIP3    H1 2183   2.857   5.009   4.665
  742TIP3    H2 2184   2.990   5.030   4.595
  743TIP3   OH2 2185   6.564   2.753   2.267
  743TIP3    H1 2186   6.511   2.825   2.235
  743TIP3    H2 2187   6.502   2.683   2.286
  744TIP3   OH2 2188   1.652   2.634   0.609
  744TIP3    H1 2189   1.643   2.666   0.699
  744TIP3    H2 2190   1.732   2.674   0.576
  745TIP3   OH2 2191   2.720   2.481   1.390
  745TIP3    H1 2192   2.667   2.511   1.464
  745TIP3    H2 2193   2.743   2.391   1.412
  746TIP3   OH2 2194   6.921   3.444   2.332
  746TIP3    H1 2195   7.014   3.430   2.315
  746TIP3    H2 2196   6.919   3.523   2.386
  747TIP3   OH2 2197   2.663   6.067   4.693
  747TIP3    H1 2198   2.730   6.064   4.625
  747TIP3    H2 2199   2.664   6.157   4.725
  748TIP3   OH2 2200   2.651   3.669   0.788
  748TIP3    H1 2201   2.630   3.669   0.881
  748TIP3    H2 2202   2.569   3.695   0.745
  749TIP3   OH2 2203   3.569   4.553   5.242
  749TIP3    H1 2204   3.652   4.506   5.244
  749TIP3    H2 2205   3.573   4.605   5.162
  750TIP3   OH2 2206   0.827   4.216   1.201
  750TIP3    H1 2207   0.830   4.139   1.256
  750TIP3    H2 2208   0.875   4.283   1.250
  751TIP3   OH2 2209   2.905   0.740   1.286
  751TIP3    H1 2210   2.859   0.744   1.370
  751TIP3    H2 2211   2.846   0.783   1.224
  752TIP3   OH2 2212   4.699   6.530   2.409
  752TIP3    H1 2213   4.745   6.601   2.363
  752TIP3    H2 2214   4.709   6.552   2.501
  753TIP3   OH2 2215   5.045   6.149   6.116
  753TIP3    H1 2216   4.982   6.174   6.184
  753TIP3    H2 2217   5.007   6.183   6.034
  754TIP3   OH2 2218   2.379   5.599   3.074
  754TIP3    H1 2219   2.385   5.662   3.003
  754TIP3    H2 2220   2.464   5.555   3.074
  755TIP3   OH2 2221   5.792   4.558   2.088
  755TIP3    H1 2222   5.800   4.464   2.102
  755TIP3    H2 2223   5.871   4.595   2.128
  756TIP3   OH2 2224   7.421   2.704   3.844
  756TIP3    H1 2225   7.341   2.663   3.876
  756TIP3    H2 2226   7.400   2.732   3.755
  757TIP3   OH2 2227   3.956   7.575   4.668
  757TIP3    H1 2228   3.927   7.631   4.595
  757TIP3    H2 2229   4.043   7.608   4.690
  758TIP3   OH2 2230   5.873   4.543   1.116
  758TIP3    H1 2231   5.945   4.484   1.140
  758TIP3    H2 2232   5.795   4.504   1.155
  759TIP3   OH2 2233   0.156   1.301   6.291
  759TIP3    H1 2234   0.212   1.261   6.223
  759TIP3    H2 2235   0.217   1.344   6.350
  760TIP3   OH2 2236   3.144   6.580   0.212
  760TIP3    H1 2237   3.185   6.500   0.245
  760TIP3    H2 2238   3.210   6.648   0.224
  761TIP3   OH2 2239   4.704   7.260   2.856
  761TIP3    H1 2240   4.695   7.196   2.926
  761TIP3    H2 2241   4.794   7.292   2.864
  762TIP3   OH2 2242   6.721   1.804   2.009
  762TIP3    H1 2243   6.782   1.777   2.078
  762TIP3    H2 2244   6.744   1.896   1.992
  763TIP3   OH2 2245   1.151   6.998   4.555
  763TIP3    H1 2246   1.219   7.031   4.613
  763TIP3    H2 2247   1.069   7.033   4.591
  764TIP3   OH2 2248   2.519   0.553   3.127
  764TIP3    H1 2249   2.555   0.558   3.215
  764TIP3    H2 2250   2.456   0.481   3.130
  765TIP3   OH2 2251   2.271   1.007   1.961
  765TIP3    H1 2252   2.278   1.103   1.955
  765TIP3    H2 2253   2.182   0.988   1.932
  766TIP3   OH2 2254   1.206   0.574   6.716
  766TIP3    H1 2255   1.297   0.595   6.696
  766TIP3    H2 2256   1.186   0.624   6.795
  767TIP3   OH2 2257   1.327   3.720   6.441
  767TIP3    H1 2258   1.405   3.768   6.413
  767TIP3    H2 2259   1.309   3.660   6.369
  768TIP3   OH2 2260   0.787   1.399   1.414
  768TIP3    H1 2261   0.766   1.467   1.477
  768TIP3    H2 2262   0.807   1.447   1.333
  769TIP3   OH2 2263   4.155   3.378   0.822
  769TIP3    H1 2264   4.093   3.432   0.872
  769TIP3    H2 2265   4.101   3.308   0.786
  770TIP3   OH2 2266   7.770   1.061   6.632
  770TIP3    H1 2267   7.821   1.056   6.551
  770TIP3    H2 2268   7.820   1.010   6.695
  771TIP3   OH2 2269   3.023   0.497   4.369
  771TIP3    H1 2270   2.979   0.476   4.287
  771TIP3    H2 2271   2.992   0.585   4.392
  772TIP3   OH2 2272   1.340   4.438   1.465
  772TIP3    H1 2273   1.426   4.414   1.430
  772TIP3    H2 2274   1.357   4.462   1.556
  773TIP3   OH2 2275   3.943   1.301   5.298
  773TIP3    H1 2276   4.022   1.324   5.250
  773TIP3    H2 2277   3.892   1.382   5.301
  774TIP3   OH2 2278   0.109   6.983   2.680
  774TIP3    H1 2279   0.060   6.978   2.598
  774TIP3    H2 2280   0.048   7.019   2.743
  775TIP3   OH2 2281   5.823   0.031   1.712
  775TIP3    H1 2282   5.820   0.036   1.808
  775TIP3    H2 2283   5.889   0.096   1.687
  776TIP3   OH2 2284   6.512   0.362   4.535
  776TIP3    H1 2285   6.446   0.293   4.534
  776TIP3    H2 2286   6.509   0.397   4.624
  777TIP3   OH2 2287   0.700   6.800   0.349
  777TIP3    H1 2288   0.631   6.753   0.301
  777TIP3    H2 2289   0.746   6.732   0.398
  778TIP3   OH2 2290   2.175   4.520   1.550
  778TIP3    H1 2291   2.089   4.505   1.590
  778TIP3    H2 2292   2.156   4.576   1.474
  779TIP3   OH2 2293   6.611   1.424   0.042
  779TIP3    H1 2294   6.620   1.513   0.075
  779TIP3    H2 2295   6.616   1.433  -0.053
  780TIP3   OH2 2296   5.875   6.609   4.820
  780TIP3    H1 2297   5.891   6.515   4.805
  780TIP3    H2 2298   5.962   6.647   4.827
  781TIP3   OH2 2299   2.069   5.006   6.031
  781TIP3    H1 2300   2.098   4.935   5.974
  781TIP3    H2 2301   1.999   5.049   5.981
  782TIP3   OH2 2302   3.030   5.170   1.819
  782TIP3    H1 2303   3.004   5.119   1.741
  782TIP3    H2 2304   3.051   5.104   1.885
  783TIP3   OH2 2305   1.903   2.549   2.972
  783TIP3    H1 2306   1.936   2.603   2.901
  783TIP3    H2 2307   1.816   2.522   2.944
  784TIP3   OH2 2308   4.468   0.284   1.492
  784TIP3    H1 2309   4.438   0.212   1.437
  784TIP3    H2 2310   4.390   0.309   1.543
  785TIP3   OH2 2311   2.285   5.782   4.593
  785TIP3    H1 2312   2.365   5.834   4.601
  785TIP3    H2 2313   2.215   5.846   4.583
  786TIP3   OH2 2314   0.777   7.696   3.803
  786TIP3    H1 2315   0.843   7.762   3.782
  786TIP3    H2 2316   0.733   7.730   3.881
  787TIP3   OH2 2317   6.745   5.822   5.107
  787TIP3    H1 2318   6.755   5.820   5.202
  787TIP3    H2 2319   6.829   5.789   5.074
  788TIP3   OH2 2320   4.253   3.615   6.381
  788TIP3    H1 2321   4.181   3.602   6.319
  788TIP3    H2 2322   4.229   3.562   6.456
  789TIP3   OH2 2323   7.336   3.521   3.493
  789TIP3    H1 2324   7.326   3.449   3.431
  789TIP3    H2 2325   7.338   3.478   3.579
  790TIP3   OH2 2326   7.041   6.860   4.561
  790TIP3    H1 2327   7.102   6.895   4.626
  790TIP3    H2 2328   6.960   6.845   4.611
  791TIP3   OH2 2329   6.736   5.666   4.621
  791TIP3    H1 2330   6.714   5.723   4.548
  791TIP3    H2 2331   6.822   5.696   4.650
  792TIP3   OH2 2332   0.338   6.717   1.376
  792TIP3    H1 2333   0.404   6.769   1.330
  792TIP3    H2 2334   0.381   6.633   1.393
  793TIP3   OH2 2335   4.686   0.592   2.228
  793TIP3    H1 2336   4.628   0.519   2.207
  793TIP3    H2 2337   4.762   0.552   2.269
  794TIP3   OH2 2338   7.685   2.203   4.017
  794TIP3    H1 2339   7.686   2.281   3.961
  794TIP3    H2 2340   7.605   2.156   3.991
  795TIP3   OH2 2341   7.515   4.329   0.786
  795TIP3    H1 2342   7.442   4.279   0.822
  795TIP3    H2 2343   7.485   4.356   0.699
  796TIP3   OH2 2344   1.958   2.849   6.225
  796TIP3    H1 2345   1.894   2.915   6.200
  796TIP3    H2 2346   1.962   2.789   6.150
  797TIP3   OH2 2347   5.021   6.690   4.935
  797TIP3    H1 2348   5.081   6.628   4.976
  797TIP3    H2 2349   4.971   6.727   5.007
  798TIP3   OH2 2350   5.281   0.316   5.146
  798TIP3    H1 2351   5.375   0.308   5.131
  798TIP3    H2 2352   5.265   0.411   5.149
  799TIP3   OH2 2353   6.203   3.926   1.130
  799TIP3    H1 2354   6.192   3.964   1.217
  799TIP3    H2 2355   6.145   3.850   1.129
  800TIP3   OH2 2356   3.241   7.325   0.503
  800TIP3    H1 2357   3.298   7.352   0.432
  800TIP3    H2 2358   3.301   7.288   0.569
  801TIP3   OH2 2359   5.060   3.857   4.453
  801TIP3    H1 2360   5.092   3.943   4.425
  801TIP3    H2 2361   5.064   3.803   4.375
  802TIP3   OH2 2362   5.457   5.093   5.666
  802TIP3    H1 2363   5.505   5.107   5.747
  802TIP3    H2 2364   5.524   5.090   5.598
  803TIP3   OH2 2365   5.821   4.275   0.253
  803TIP3    H1 2366   5.837   4.358   0.298
  803TIP3    H2 2367   5.786   4.217   0.321
  804TIP3   OH2 2368   2.288   2.188   5.725
  804TIP3    H1 2369   2.350   2.252   5.689
  804TIP3    H2 2370   2.331   2.154   5.803
  805TIP3   OH2 2371   3.868   6.753   3.458
  805TIP3    H1 2372   3.789   6.780   3.505
  805TIP3    H2 2373   3.840   6.681   3.402
  806TIP3   OH2 2374   4.125   3.114   0.938
  806TIP3    H1 2375   4.053   3.115   0.875
  806TIP3    H2 2376   4.185   3.182   0.908
  807TIP3   OH2 2377   4.346   7.169   1.387
  807TIP3    H1 2378   4.404   7.216   1.447
  807TIP3    H2 2379   4.294   7.112   1.444
  808TIP3   OH2 2380   5.898   4.789   6.016
  808TIP3    H1 2381   5.944   4.834   5.946
  808TIP3    H2 2382   5.858   4.860   6.068
  809TIP3   OH2 2383   0.818   6.544   3.960
  809TIP3    H1 2384   0.861   6.622   3.927
  809TIP3    H2 2385   0.800   6.492   3.881
  810TIP3   OH2 2386   2.473   0.957   0.053
  810TIP3    H1 2387   2.407   1.024   0.073
  810TIP3    H2 2388   2.498   0.922   0.138
  811TIP3   OH2 2389   5.525   0.522   1.084
  811TIP3    H1 2390   5.497   0.610   1.108
  811TIP3    H2 2391   5.541   0.526   0.990
  812TIP3   OH2 2392   3.378   1.359   4.894
  812TIP3    H1 2393   3.367   1.452   4.871
  812TIP3    H2 2394   3.312   1.314   4.841
  813TIP3   OH2 2395   2.419   4.129   6.243
  813TIP3    H1 2396   2.370   4.122   6.161
  813TIP3    H2 2397   2.387   4.211   6.282
  814TIP3   OH2 2398   6.707   6.917   6.748
  814TIP3    H1 2399   6.788   6.931   6.698
  814TIP3    H2 2400   6.702   6.822   6.759
  815TIP3   OH2 2401   2.180   0.446   0.656
  815TIP3    H1 2402   2.114   0.411   0.596
  815TIP3    H2 2403   2.213   0.369   0.702
  816TIP3   OH2 2404   3.247   6.387   3.690
  816TIP3    H1 2405   3.193   6.429   3.758
  816TIP3    H2 2406   3.200   6.405   3.608
  817TIP3   OH2 2407   4.181   6.287   5.394
  817TIP3    H1 2408   4.258   6.339   5.414
  817TIP3    H2 2409   4.204   6.198   5.419
  818TIP3   OH2 2410   3.850   4.464   1.671
  818TIP3    H1 2411   3.758   4.488   1.684
  818TIP3    H2 2412   3.874   4.420   1.753
  819TIP3   OH2 2413   3.760   6.497   3.415
  819TIP3    H1 2414   3.692   6.431   3.403
  819TIP3    H2 2415   3.788   6.487   3.506
  820TIP3   OH2 2416   7.506   7.140   1.334
  820TIP3    H1 2417   7.578   7.136   1.271
  820TIP3    H2 2418   7.439   7.083   1.297
  821TIP3   OH2 2419   5.417   5.051   4.476
  821TIP3    H1 2420   5.433   5.111   4.549
  821TIP3    H2 2421   5.330   5.075   4.444
  822TIP3   OH2 2422   4.172   6.843   0.559
  822TIP3    H1 2423   4.218   6.759   0.552
  822TIP3    H2 2424   4.239   6.908   0.541
  823TIP3   OH2 2425   0.712   1.923   4.702
  823TIP3    H1 2426   0.640   1.935   4.641
  823TIP3    H2 2427   0.731   1.830   4.700
  824TIP3   OH2 2428   2.339   3.685   1.243
  824TIP3    H1 2429   2.366   3.777   1.245
  824TIP3    H2 2430   2.323   3.662   1.334
  825TIP3   OH2 2431   1.508   2.980   3.883
  825TIP3    H1 2432   1.587   2.931   3.861
  825TIP3    H2 2433   1.534   3.038   3.955
  826TIP3   OH2 2434   0.280   5.070   1.681
  826TIP3    H1 2435   0.280   5.005   1.610
  826TIP3    H2 2436   0.333   5.030   1.750
  827TIP3   OH2 2437   2.097   0.169   2.438
  827TIP3    H1 2438   2.109   0.122   2.355
  827TIP3    H2 2439   2.007   0.148   2.464
  828TIP3   OH2 2440   3.958   4.014   5.376
  828TIP3    H1 2441   3.883   3.981   5.326
  828TIP3    H2 2442   4.030   3.955   5.352
  829TIP3   OH2 2443   2.827   0.137   5.945
  829TIP3    H1 2444   2.854   0.176   5.862
  829TIP3    H2 2445   2.781   0.057   5.920
  830TIP3   OH2 2446   7.364   2.562   5.484
  830TIP3    H1 2447   7.407   2.641   5.518
  830TIP3    H2 2448   7.400   2.552   5.396
  831TIP3   OH2 2449   7.855   7.236   1.869
  831TIP3    H1 2450   7.864   7.185   1.789
  831TIP3    H2 2451   7.943   7.272   1.885
  832TIP3   OH2 2452   6.370   1.410   2.395
  832TIP3    H1 2453   6.319   1.368   2.464
  832TIP3    H2 2454   6.350   1.361   2.316
  833TIP3   OH2 2455   3.238   5.909   5.915
  833TIP3    H1 2456   3.324   5.883   5.881
  833TIP3    H2 2457   3.177   5.846   5.877
  834TIP3   OH2 2458   4.167   3.403   4.357
  834TIP3    H1 2459   4.245   3.353   4.332
  834TIP3    H2 2460   4.170   3.482   4.303
  835TIP3   OH2 2461   2.283   6.574   0.365
  835TIP3    H1 2462   2.326   6.657   0.345
  835TIP3    H2 2463   2.339   6.508   0.325
  836TIP3   OH2 2464   0.174   0.467   2.648
  836TIP3    H1 2465   0.193   0.545   2.700
  836TIP3    H2 2466   0.114   0.497   2.580
  837TIP3   OH2 2467   3.332   1.489   0.378
  837TIP3    H1 2468   3.251   1.451   0.342
  837TIP3    H2 2469   3.361   1.550   0.310
  838TIP3   OH2 2470   7.828   5.788   3.317
  838TIP3    H1 2471   7.782   5.871   3.329
  838TIP3    H2 2472   7.918   5.814   3.295
  839TIP3   OH2 2473   6.239   1.836   6.340
  839TIP3    H1 2474   6.240   1.782   6.261
  839TIP3    H2 2475   6.153   1.821   6.378
  840TIP3   OH2 2476   5.204   1.478   3.033
  840TIP3    H1 2477   5.222   1.569   3.057
  840TIP3    H2 2478   5.210   1.477   2.938
  841TIP3   OH2 2479   5.631   3.893   2.452
  841TIP3    H1 2480   5.609   3.808   2.415
  841TIP3    H2 2481   5.659   3.873   2.542
  842TIP3   OH2 2482   2.117   5.900   2.251
  842TIP3    H1 2483   2.084   5.836   2.188
  842TIP3    H2 2484   2.180   5.852   2.304
  843TIP3   OH2 2485   3.125   4.330   3.646
  843TIP3    H1 2486   3.058   4.383   3.689
  843TIP3    H2 2487   3.192   4.316   3.713
  844TIP3   OH2 2488   7.240   2.150   4.344
  844TIP3    H1 2489   7.270   2.239   4.321
  844TIP3    H2 2490   7.257   2.143   4.438
  845TIP3   OH2 2491   0.213   2.818   0.148
  845TIP3    H1 2492   0.172   2.736   0.178
  845TIP3    H2 2493   0.163   2.841   0.070
  846TIP3   OH2 2494   1.456   2.810   5.569
  846TIP3    H1 2495   1.397   2.764   5.509
  846TIP3    H2 2496   1.449   2.902   5.543
  847TIP3   OH2 2497   1.656   6.443   5.203
  847TIP3    H1 2498   1.590   6.511   5.186
  847TIP3    H2 2499   1.715   6.483   5.266
  848TIP3   OH2 2500   1.826   6.779   4.863
  848TIP3    H1 2501   1.904   6.745   4.907
  848TIP3    H2 2502   1.858   6.855   4.814
  849TIP3   OH2 2503   6.976   0.263   2.482
  849TIP3    H1 2504   7.053   0.290   2.531
  849TIP3    H2 2505   6.942   0.344   2.443
  850TIP3   OH2 2506   3.284   7.587   6.615
  850TIP3    H1 2507   3.285   7.506   6.666
  850TIP3    H2 2508   3.263   7.559   6.526
  851TIP3   OH2 2509   3.710   4.739   3.657
  851TIP3    H1 2510   3.790   4.711   3.702
  851TIP3    H2 2511   3.737   4.814   3.604
  852TIP3   OH2 2512   2.251   3.851   6.005
  852TIP3    H1 2513   2.196   3.928   6.019
  852TIP3    H2 2514   2.319   3.857   6.073
  853TIP3   OH2 2515   8.013   4.586   3.191
  853TIP3    H1 2516   8.045   4.514   3.137
  853TIP3    H2 2517   8.089   4.613   3.243
  854TIP3   OH2 2518   2.477   6.159   2.738
  854TIP3    H1 2519   2.490   6.147   2.832
  854TIP3    H2 2520   2.400   6.105   2.718
  855TIP3   OH2 2521   0.282   3.289   3.611
  855TIP3    H1 2522   0.306   3.323   3.697
  855TIP3    H2 2523   0.364   3.255   3.575
  856TIP3   OH2 2524   3.839   6.856   4.419
  856TIP3    H1 2525   3.887   6.774   4.430
  856TIP3    H2 2526   3.748   6.833   4.435
  857TIP3   OH2 2527   1.841   5.404   0.817
  857TIP3    H1 2528   1.871   5.389   0.907
  857TIP3    H2 2529   1.902   5.354   0.763
  858TIP3   OH2 2530   6.356   0.478   3.846
  858TIP3    H1 2531   6.330   0.562   3.808
  858TIP3    H2 2532   6.433   0.498   3.898
  859TIP3   OH2 2533   1.886   2.495   0.617
  859TIP3    H1 2534   1.886   2.589   0.598
  859TIP3    H2 2535   1.793   2.472   0.622
  860TIP3   OH2 2536   5.273   5.058   6.606
  860TIP3    H1 2537   5.227   4.990   6.656
  860TIP3    H2 2538   5.345   5.084   6.662
  861TIP3   OH2 2539   0.125   4.818   5.235
  861TIP3    H1 2540   0.101   4.894   5.289
  861TIP3    H2 2541   0.168   4.856   5.158
  862TIP3   OH2 2542   6.672   6.971   4.451
  862TIP3    H1 2543   6.692   6.946   4.360
  862TIP3    H2 2544   6.623   6.896   4.486
  863TIP3   OH2 2545   6.802   4.106   3.769
  863TIP3    H1 2546   6.760   4.061   3.696
  863TIP3    H2 2547   6.812   4.196   3.740
  864TIP3   OH2 2548   4.497   2.661   6.361
  864TIP3    H1 2549   4.416   2.614   6.340
  864TIP3    H2 2550   4.537   2.609   6.431
  865TIP3   OH2 2551   2.132   7.487   5.262
  865TIP3    H1 2552   2.068   7.460   5.196
  865TIP3    H2 2553   2.172   7.405   5.292
  866TIP3   OH2 2554   3.534   6.376   3.742
  866TIP3    H1 2555   3.511   6.444   3.805
  866TIP3    H2 2556   3.449   6.347   3.708
  867TIP3   OH2 2557   5.107   6.354   3.859
  867TIP3    H1 2558   5.132   6.318   3.774
  867TIP3    H2 2559   5.042   6.421   3.839
  868TIP3   OH2 2560   6.557   0.817   2.330
  868TIP3    H1 2561   6.593   0.759   2.397
  868TIP3    H2 2562   6.522   0.758   2.264
  869TIP3   OH2 2563   4.299   7.642   0.706
  869TIP3    H1 2564   4.371   7.706   0.702
  869TIP3    H2 2565   4.323   7.584   0.778
  870TIP3   OH2 2566   4.790   2.244   2.130
  870TIP3    H1 2567   4.706   2.236   2.176
  870TIP3    H2 2568   4.772   2.302   2.056
  871TIP3   OH2 2569   6.435   5.523   4.055
  871TIP3    H1 2570   6.432   5.605   4.103
  871TIP3    H2 2571   6.528   5.499   4.055
  872TIP3   OH2 2572   1.360   7.257   6.557
  872TIP3    H1 2573   1.395   7.320   6.494
  872TIP3    H2 2574   1.389   7.172   6.524
  873TIP3   OH2 2575   1.304   4.848   6.713
  873TIP3    H1 2576   1.379   4.795   6.685
  873TIP3    H2 2577   1.245   4.787   6.756
  874TIP3   OH2 2578   3.378   0.728   4.884
  874TIP3    H1 2579   3.283   0.728   4.891
  874TIP3    H2 2580   3.404   0.642   4.919
  875TIP3   OH2 2581   5.122   3.139   3.514
  875TIP3    H1 2582   5.039   3.120   3.558
  875TIP3    H2 2583   5.185   3.146   3.586
  876TIP3   OH2 2584   4.150   2.142   1.249
  876TIP3    H1 2585   4.065   2.173   1.219
  876TIP3    H2 2586   4.197   2.119   1.169
  877TIP3   OH2 2587   5.631   6.693   0.355
  877TIP3    H1 2588   5.675   6.778   0.354
  877TIP3    H2 2589   5.587   6.688   0.270
  878TIP3   OH2 2590   3.437   5.172   3.609
  878TIP3    H1 2591   3.432   5.091   3.557
  878TIP3    H2 2592   3.529   5.179   3.633
  879TIP3   OH2 2593   6.701   7.486   4.565
  879TIP3    H1 2594   6.714   7.525   4.479
  879TIP3    H2 2595   6.698   7.392   4.549
  880TIP3   OH2 2596   4.009   3.805   3.453
  880TIP3    H1 2597   3.981   3.895   3.469
  880TIP3    H2 2598   3.933   3.752   3.475
  881TIP3   OH2 2599   3.436   3.473   3.009
  881TIP3    H1 2600   3.343   3.486   2.989
  881TIP3    H2 2601   3.451   3.524   3.088
  882TIP3   OH2 2602   6.443   6.971   6.107
  882TIP3    H1 2603   6.466   7.041   6.045
  882TIP3    H2 2604   6.350   6.986   6.125
  883TIP3   OH2 2605   0.683   5.511   4.078
  883TIP3    H1 2606   0.687   5.520   4.173
  883TIP3    H2 2607   0.771   5.530   4.048
  884TIP3   OH2 2608   5.785   5.273   3.946
  884TIP3    H1 2609   5.696   5.238   3.934
  884TIP3    H2 2610   5.840   5.216   3.893
  885TIP3   OH2 2611   6.716   4.296   5.161
  885TIP3    H1 2612   6.655   4.336   5.224
  885TIP3    H2 2613   6.801   4.302   5.204
  886TIP3   OH2 2614   6.080   5.686   5.109
  886TIP3    H1 2615   6.150   5.621   5.104
  886TIP3    H2 2616   6.102   5.739   5.186
  887TIP3   OH2 2617   7.236   0.282   2.616
  887TIP3    H1 2618   7.269   0.292   2.527
  887TIP3    H2 2619   7.212   0.370   2.643
  888TIP3   OH2 2620   6.948   3.683   3.195
  888TIP3    H1 2621   7.000   3.678   3.274
  888TIP3    H2 2622   6.997   3.740   3.136
  889TIP3   OH2 2623   5.678   4.985   2.249
  889TIP3    H1 2624   5.748   4.961   2.188
  889TIP3    H2 2625   5.700   5.074   2.277
  890TIP3   OH2 2626   4.517   5.160   5.410
  890TIP3    H1 2627   4.605   5.178   5.442
  890TIP3    H2 2628   4.460   5.210   5.468
  891TIP3   OH2 2629   1.709   3.084   2.345
  891TIP3    H1 2630   1.649   3.017   2.312
  891TIP3    H2 2631   1.652   3.147   2.388
  892TIP3   OH2 2632   3.743   6.937   1.559
  892TIP3    H1 2633   3.836   6.930   1.578
  892TIP3    H2 2634   3.724   6.860   1.506
  893TIP3   OH2 2635   5.957   6.912   2.088
  893TIP3    H1 2636   6.033   6.856   2.104
  893TIP3    H2 2637   5.991   6.982   2.033
  894TIP3   OH2 2638   6.482   6.341   4.194
  894TIP3    H1 2639   6.427   6.387   4.130
  894TIP3    H2 2640   6.570   6.345   4.156
  895TIP3   OH2 2641   4.628   4.631   4.475
  895TIP3    H1 2642   4.682   4.627   4.396
  895TIP3    H2 2643   4.552   4.578   4.456
  896TIP3   OH2 2644   1.368   7.763   2.890
  896TIP3    H1 2645   1.452   7.792   2.854
  896TIP3    H2 2646   1.360   7.810   2.973
  897TIP3   OH2 2647   5.552   2.503   5.184
  897TIP3    H1 2648   5.626   2.455   5.149
  897TIP3    H2 2649   5.543   2.472   5.274
  898TIP3   OH2 2650   5.642   7.406   5.569
  898TIP3    H1 2651   5.550   7.402   5.596
  898TIP3    H2 2652   5.690   7.365   5.641
  899TIP3   OH2 2653   1.395   1.429   4.466
  899TIP3    H1 2654   1.338   1.498   4.433
  899TIP3    H2 2655   1.481   1.471   4.473
  900TIP3   OH2 2656   1.190   1.200   3.082
  900TIP3    H1 2657   1.205   1.291   3.055
  900TIP3    H2 2658   1.138   1.208   3.162
  901TIP3   OH2 2659   8.218   7.333   1.550
  901TIP3    H1 2660   8.128   7.302   1.557
  901TIP3    H2 2661   8.249   7.302   1.465
  902TIP3   OH2 2662   1.365   2.442   6.783
  902TIP3    H1 2663   1.423   2.517   6.773
  902TIP3    H2 2664   1.279   2.475   6.760
  903TIP3   OH2 2665   4.996   3.768   0.898
  903TIP3    H1 2666   5.036   3.827   0.962
  903TIP3    H2 2667   5.019   3.805   0.813
  904TIP3   OH2 2668   7.279   7.504   4.333
  904TIP3    H1 2669   7.301   7.417   4.367
  904TIP3    H2 2670   7.280   7.561   4.410
  905TIP3   OH2 2671   1.074   7.502   5.299
  905TIP3    H1 2672   1.006   7.511   5.233
  905TIP3    H2 2673   1.151   7.545   5.260
  906TIP3   OH2 2674   6.455   0.032   4.711
  906TIP3    H1 2675   6.416   0.112   4.749
  906TIP3    H2 2676   6.542   0.028   4.749
  907TIP3   OH2 2677   1.544   0.478   4.444
  907TIP3    H1 2678   1.552   0.568   4.476
  907TIP3    H2 2679   1.581   0.424   4.513
  908TIP3   OH2 2680   7.362   2.268   6.297
  908TIP3    H1 2681   7.383   2.182   6.332
  908TIP3    H2 2682   7.445   2.315   6.295
  909TIP3   OH2 2683   6.888   5.049   5.246
  909TIP3    H1 2684   6.951   5.022   5.314
  909TIP3    H2 2685   6.917   5.136   5.219
  910TIP3   OH2 2686   2.699   3.681   1.865
  910TIP3    H1 2687   2.674   3.637   1.946
  910TIP3    H2 2688   2.651   3.764   1.866
  911TIP3   OH2 2689   2.649   4.437   6.086
  911TIP3    H1 2690   2.669   4.420   6.178
  911TIP3    H2 2691   2.722   4.491   6.056
  912TIP3   OH2 2692   7.548   1.795   4.518
  912TIP3    H1 2693   7.576   1.713   4.558
  912TIP3    H2 2694   7.453   1.796   4.529
  913TIP3   OH2 2695   4.702   0.008   4.948
  913TIP3    H1 2696   4.699  -0.015   4.855
  913TIP3    H2 2697   4.792  -0.013   4.974
  914TIP3   OH2 2698   4.949   5.833   2.155
  914TIP3    H1 2699   4.929   5.898   2.223
  914TIP3    H2 2700   4.879   5.844   2.091
  915TIP3   OH2 2701   7.171   6.695   6.044
  915TIP3    H1 2702   7.077   6.696   6.061
  915TIP3    H2 2703   7.205   6.624   6.099
  916TIP3   OH2 2704   4.250   4.486   4.617
  916TIP3    H1 2705   4.181   4.547   4.644
  916TIP3    H2 2706   4.280   4.520   4.533
  917TIP3   OH2 2707   5.451   2.256   0.882
  917TIP3    H1 2708   5.497   2.181   0.846
  917TIP3    H2 2709   5.402   2.221   0.956
  918TIP3   OH2 2710   4.860   6.906   3.215
  918TIP3    H1 2711   4.888   6.815   3.220
  918TIP3    H2 2712   4.892   6.945   3.296
  919TIP3   OH2 2713   7.622   6.618   6.170
  919TIP3    H1 2714   7.654   6.594   6.257
  919TIP3    H2 2715   7.591   6.536   6.133
  920TIP3   OH2 2716   2.137   3.674   2.852
  920TIP3    H1 2717   2.081   3.609   2.896
  920TIP3    H2 2718   2.106   3.675   2.762
  921TIP3   OH2 2719   5.709   3.984   6.267
  921TIP3    H1 2720   5.707   4.035   6.348
  921TIP3    H2 2721   5.629   3.932   6.270
  922TIP3   OH2 2722   4.834   6.616   3.270
  922TIP3    H1 2723   4.876   6.601   3.186
  922TIP3    H2 2724   4.857   6.540   3.323
  923TIP3   OH2 2725   4.484   4.823   1.419
  923TIP3    H1 2726   4.452   4.773   1.344
  923TIP3    H2 2727   4.574   4.845   1.396
  924TIP3   OH2 2728   8.148   3.363   5.240
  924TIP3    H1 2729   8.199   3.305   5.184
  924TIP3    H2 2730   8.057   3.341   5.221
  925TIP3   OH2 2731   4.899   6.450   1.068
  925TIP3    H1 2732   4.856   6.373   1.107
  925TIP3    H2 2733   4.968   6.472   1.130
  926TIP3   OH2 2734   2.197   4.143   0.130
  926TIP3    H1 2735   2.266   4.198   0.167
  926TIP3    H2 2736   2.127   4.205   0.108
  927TIP3   OH2 2737   5.602   0.127   5.373
  927TIP3    H1 2738   5.589   0.217   5.342
  927TIP3    H2 2739   5.558   0.124   5.457
  928TIP3   OH2 2740   3.867   2.616   6.789
  928TIP3    H1 2741   3.939   2.610   6.851
  928TIP3    H2 2742   3.905   2.590   6.705
  929TIP3   OH2 2743   1.246   6.522   4.007
  929TIP3    H1 2744   1.338   6.519   3.980
  929TIP3    H2 2745   1.213   6.434   3.992
  930TIP3   OH2 2746   5.478   4.799   4.574
  930TIP3    H1 2747   5.439   4.869   4.521
  930TIP3    H2 2748   5.548   4.843   4.623
  931TIP3   OH2 2749   8.292   6.166   5.338
  931TIP3    H1 2750   8.358   6.126   5.281
  931TIP3    H2 2751   8.210   6.158   5.288
  932TIP3   OH2 2752   4.023   0.877   5.772
  932TIP3    H1 2753   3.934   0.885   5.737
  932TIP3    H2 2754   4.075   0.844   5.699
  933TIP3   OH2 2755   1.508   2.591   5.277
  933TIP3    H1 2756   1.500   2.571   5.184
  933TIP3    H2 2757   1.599   2.571   5.298
  934TIP3   OH2 2758   2.723   5.804   0.089
  934TIP3    H1 2759   2.653   5.741   0.106
  934TIP3    H2 2760   2.710   5.831  -0.002
  935TIP3   OH2 2761   3.920   3.547   1.512
  935TIP3    H1 2762   3.948   3.457   1.527
  935TIP3    H2 2763   3.985   3.583   1.451
  936TIP3   OH2 2764   3.043   0.261   4.535
  936TIP3    H1 2765   3.017   0.328   4.472
  936TIP3    H2 2766   3.085   0.193   4.482
  937TIP3   OH2 2767   1.661   7.526   6.128
  937TIP3    H1 2768   1.630   7.583   6.199
  937TIP3    H2 2769   1.689   7.586   6.059
  938TIP3   OH2 2770   4.731   4.560   6.182
  938TIP3    H1 2771   4.750   4.616   6.106
  938TIP3    H2 2772   4.687   4.484   6.145
  939TIP3   OH2 2773   5.606   7.058   2.076
  939TIP3    H1 2774   5.675   6.993   2.060
  939TIP3    H2 2775   5.651   7.142   2.074
  940TIP3   OH2 2776   3.583   0.364   2.724
  940TIP3    H1 2777   3.567   0.338   2.815
  940TIP3    H2 2778   3.640   0.296   2.690
  941TIP3   OH2 2779   5.131   6.493   1.463
  941TIP3    H1 2780   5.186   6.418   1.439
  941TIP3    H2 2781   5.094   6.523   1.380
  942TIP3   OH2 2782   2.311   4.728   1.706
  942TIP3    H1 2783   2.343   4.762   1.623
  942TIP3    H2 2784   2.266   4.647   1.684
  943TIP3   OH2 2785   2.513   4.827   6.630
  943TIP3    H1 2786   2.521   4.837   6.725
  943TIP3    H2 2787   2.422   4.800   6.616
  944TIP3   OH2 2788   6.233   7.613   1.110
  944TIP3    H1 2789   6.202   7.580   1.194
  944TIP3    H2 2790   6.306   7.671   1.132
  945TIP3   OH2 2791   5.325   4.790   5.719
  945TIP3    H1 2792   5.403   4.809   5.772
  945TIP3    H2 2793   5.353   4.805   5.629
  946TIP3   OH2 2794   2.447   6.539   5.002
  946TIP3    H1 2795   2.405   6.545   4.916
  946TIP3    H2 2796   2.401   6.467   5.046
  947TIP3   OH2 2797   2.287   2.946   1.530
  947TIP3    H1 2798   2.242   3.015   1.481
  947TIP3    H2 2799   2.335   2.992   1.599
  948TIP3   OH2 2800   6.417   3.707   5.781
  948TIP3    H1 2801   6.329   3.746   5.782
  948TIP3    H2 2802   6.475   3.781   5.799
  949TIP3   OH2 2803   7.672   0.517   1.298
  949TIP3    H1 2804   7.648   0.568   1.220
  949TIP3    H2 2805   7.593   0.467   1.318
  950TIP3   OH2 2806   0.371   3.068   4.421
  950TIP3    H1 2807   0.379   3.069   4.326
  950TIP3    H2 2808   0.343   3.157   4.443
  951TIP3   OH2 2809   5.707   2.471   6.633
  951TIP3    H1 2810   5.633   2.465   6.572
  951TIP3    H2 2811   5.779   2.504   6.580
  952TIP3   OH2 2812   2.022   1.322   5.705
  952TIP3    H1 2813   2.061   1.382   5.642
  952TIP3    H2 2814   2.096   1.273   5.741
  953TIP3   OH2 2815   0.425   3.138   0.272
  953TIP3    H1 2816   0.358   3.075   0.244
  953TIP3    H2 2817   0.506   3.106   0.234
  954TIP3   OH2 2818   3.525   4.630   5.522
  954TIP3    H1 2819   3.522   4.604   5.430
  954TIP3    H2 2820   3.557   4.552   5.568
  955TIP3   OH2 2821   3.695   2.373   3.645
  955TIP3    H1 2822   3.783   2.404   3.664
  955TIP3    H2 2823   3.687   2.381   3.550
  956TIP3   OH2 2824   5.606   4.239   6.699
  956TIP3    H1 2825   5.632   4.179   6.769
  956TIP3    H2 2826   5.548   4.303   6.742
  957TIP3   OH2 2827   7.097   1.668   2.245
  957TIP3    H1 2828   7.051   1.585   2.253
  957TIP3    H2 2829   7.106   1.681   2.150
  958TIP3   OH2 2830   7.644   3.660   6.291
  958TIP3    H1 2831   7.661   3.583   6.237
  958TIP3    H2 2832   7.611   3.725   6.229
  959TIP3   OH2 2833   1.588   6.696   5.951
  959TIP3    H1 2834   1.538   6.767   5.991
  959TIP3    H2 2835   1.676   6.732   5.939
  960TIP3   OH2 2836   2.791   2.121   0.765
  960TIP3    H1 2837   2.731   2.050   0.788
  960TIP3    H2 2838   2.866   2.078   0.726
  961TIP3   OH2 2839   0.681   6.411   5.998
  961TIP3    H1 2840   0.610   6.411   5.934
  961TIP3    H2 2841   0.689   6.503   6.025
  962TIP3   OH2 2842   2.987   2.156   5.608
  962TIP3    H1 2843   2.998   2.073   5.655
  962TIP3    H2 2844   2.893   2.159   5.588
  963TIP3   OH2 2845   3.645   5.213   3.982
  963TIP3    H1 2846   3.583   5.285   3.995
  963TIP3    H2 2847   3.711   5.225   4.050
  964TIP3   OH2 2848   6.636   4.028   1.404
  964TIP3    H1 2849   6.601   4.021   1.315
  964TIP3    H2 2850   6.619   4.119   1.429
  965TIP3   OH2 2851   1.803   4.591   5.035
  965TIP3    H1 2852   1.814   4.635   4.951
  965TIP3    H2 2853   1.789   4.499   5.012
  966TIP3   OH2 2854   5.324   3.835   2.600
  966TIP3    H1 2855   5.347   3.765   2.539
  966TIP3    H2 2856   5.321   3.914   2.545
  967TIP3   OH2 2857   7.897   4.439   5.270
  967TIP3    H1 2858   7.817   4.482   5.238
  967TIP3    H2 2859   7.968   4.496   5.240
  968TIP3   OH2 2860   8.127   3.904   6.453
  968TIP3    H1 2861   8.178   3.841   6.402
  968TIP3    H2 2862   8.117   3.863   6.539
  969TIP3   OH2 2863   2.150   1.006   0.958
  969TIP3    H1 2864   2.181   1.054   1.035
  969TIP3    H2 2865   2.055   1.020   0.958
  970TIP3   OH2 2866   5.105   6.126   6.719
  970TIP3    H1 2867   5.096   6.064   6.647
  970TIP3    H2 2868   5.167   6.192   6.687
  971TIP3   OH2 2869   7.937   6.245   1.590
  971TIP3    H1 2870   8.009   6.305   1.573
  971TIP3    H2 2871   7.939   6.183   1.517
  972TIP3   OH2 2872   0.053   3.511   6.636
  972TIP3    H1 2873   0.086   3.421   6.642
  972TIP3    H2 2874   0.006   3.514   6.552
  973TIP3   OH2 2875   7.786   4.253   3.210
  973TIP3    H1 2876   7.743   4.231   3.127
  973TIP3    H2 2877   7.752   4.340   3.231
  974TIP3   OH2 2878   6.896   3.928   1.047
  974TIP3    H1 2879   6.895   3.968   1.134
  974TIP3    H2 2880   6.958   3.856   1.054
  975TIP3   OH2 2881   6.741   1.769   0.709
  975TIP3    H1 2882   6.808   1.704   0.689
  975TIP3    H2 2883   6.660   1.732   0.675
  976TIP3   OH2 2884   2.159   3.108   0.314
  976TIP3    H1 2885   2.181   3.015   0.324
  976TIP3    H2 2886   2.108   3.130   0.391
  977TIP3   OH2 2887   1.999   4.700   2.763
  977TIP3    H1 2888   1.980   4.788   2.731
  977TIP3    H2 2889   2.088   4.681   2.734
  978TIP3   OH2 2890   4.750   0.427   3.737
  978TIP3    H1 2891   4.762   0.481   3.659
  978TIP3    H2 2892   4.838   0.395   3.757
  979TIP3   OH2 2893   7.040   0.586   6.132
  979TIP3    H1 2894   7.071   0.571   6.222
  979TIP3    H2 2895   7.019   0.499   6.099
  980TIP3   OH2 2896   4.834   1.769   4.639
  980TIP3    H1 2897   4.764   1.762   4.704
  980TIP3    H2 2898   4.847   1.679   4.609
  981TIP3   OH2 2899   5.155   2.223   5.907
  981TIP3    H1 2900   5.207   2.142   5.907
  981TIP3    H2 2901   5.075   2.199   5.860
  982TIP3   OH2 2902   1.909   7.771   2.376
  982TIP3    H1 2903   1.995   7.803   2.401
  982TIP3    H2 2904   1.925   7.685   2.338
  983TIP3   OH2 2905   1.831   1.478   0.680
  983TIP3    H1 2906   1.830   1.394   0.724
  983TIP3    H2 2907   1.740   1.507   0.681
  984TIP3   OH2 2908   5.060   6.539   5.974
  984TIP3    H1 2909   5.007   6.460   5.977
  984TIP3    H2 2910   5.061   6.565   5.882
  985TIP3   OH2 2911   5.324   4.962   0.291
  985TIP3    H1 2912   5.276   4.938   0.212
  985TIP3    H2 2913   5.380   5.034   0.264
  986TIP3   OH2 2914   2.021   5.461   5.876
  986TIP3    H1 2915   2.055   5.508   5.800
  986TIP3    H2 2916   2.052   5.512   5.951
  987TIP3   OH2 2917   2.073   6.509   0.118
  987TIP3    H1 2918   2.144   6.562   0.154
  987TIP3    H2 2919   2.028   6.474   0.195
  988TIP3   OH2 2920   7.937   3.620   2.312
  988TIP3    H1 2921   7.922   3.622   2.218
  988TIP3    H2 2922   8.030   3.640   2.322
  989TIP3   OH2 2923   1.438   5.152   1.584
  989TIP3    H1 2924   1.455   5.238   1.546
  989TIP3    H2 2925   1.350   5.129   1.555
  990TIP3   OH2 2926   0.352   5.944   3.534
  990TIP3    H1 2927   0.445   5.951   3.514
  990TIP3    H2 2928   0.347   5.951   3.629
  991TIP3   OH2 2929   2.445   3.901   6.671
  991TIP3    H1 2930   2.533   3.894   6.635
  991TIP3    H2 2931   2.447   3.846   6.750
  992TIP3   OH2 2932   7.561   4.113   6.053
  992TIP3    H1 2933   7.581   4.137   5.963
  992TIP3    H2 2934   7.640   4.068   6.084
  993TIP3   OH2 2935   3.254   1.576   5.474
  993TIP3    H1 2936   3.241   1.654   5.419
  993TIP3    H2 2937   3.318   1.603   5.539
  994TIP3   OH2 2938   3.052   2.894   4.343
  994TIP3    H1 2939   3.009   2.866   4.262
  994TIP3    H2 2940   3.013   2.979   4.363
  995TIP3   OH2 2941   4.533   6.944   1.237
  995TIP3    H1 2942   4.550   7.033   1.268
  995TIP3    H2 2943   4.607   6.925   1.179
  996TIP3   OH2 2944   2.711   2.886   5.468
  996TIP3    H1 2945   2.754   2.921   5.390
  996TIP3    H2 2946   2.658   2.813   5.435
  997TIP3   OH2 2947   3.999   0.055   3.135
  997TIP3    H1 2948   3.921   0.000   3.148
  997TIP3    H2 2949   4.021   0.086   3.222
  998TIP3   OH2 2950   6.090   6.039   4.387
  998TIP3    H1 2951   6.000   6.027   4.417
  998TIP3    H2 2952   6.101   6.134   4.383
  999TIP3   OH2 2953   5.730   1.483   1.199
  999TIP3    H1 2954   5.715   1.568   1.242
  999TIP3    H2 2955   5.672   1.422   1.244
 1000TIP3   OH2 2956   1.712   4.508   1.572
 1000TIP3    H1 2957   1.704   4.603   1.561
 1000TIP3    H2 2958   1.795   4.487   1.530
 1001TIP3   OH2 2959   6.497   6.380   1.474
 1001TIP3    H1 2960   6.495   6.458   1.530
 1001TIP3    H2 2961   6.586   6.346   1.483
 1002TIP3   OH2 2962   6.359   5.592   3.798
 1002TIP3    H1 2963   6.405   5.675   3.784
 1002TIP3    H2 2964   6.360   5.580   3.893
 1003TIP3   OH2 2965   1.170   0.020   6.367
 1003TIP3    H1 2966   1.210   0.106   6.354
 1003TIP3    H2 2967   1.077   0.039   6.379
 1004TIP3   OH2 2968   1.424   0.291   0.781
 1004TIP3    H1 2969   1.490   0.346   0.739
 1004TIP3    H2 2970   1.340   0.325   0.749
 1005TIP3   OH2 2971   4.849   2.985   5.688
 1005TIP3    H1 2972   4.871   3.021   5.602
 1005TIP3    H2 2973   4.910   3.029   5.748
 1006TIP3   OH2 2974   5.320   4.247   5.164
 1006TIP3    H1 2975   5.343   4.274   5.075
 1006TIP3    H2 2976   5.375   4.170   5.181
 1007TIP3   OH2 2977   7.747   7.365   4.336
 1007TIP3    H1 2978   7.689   7.411   4.396
 1007TIP3    H2 2979   7.695   7.356   4.255
 1008TIP3   OH2 2980   1.390   2.475   2.922
 1008TIP3    H1 2981   1.460   2.468   2.987
 1008TIP3    H2 2982   1.309   2.479   2.974
 1009TIP3   OH2 2983   0.856   0.462   2.664
 1009TIP3    H1 2984   0.915   0.387   2.662
 1009TIP3    H2 2985   0.911   0.537   2.643
 1010TIP3   OH2 2986   8.255   1.945   2.931
 1010TIP3    H1 2987   8.275   1.900   2.849
 1010TIP3    H2 2988   8.170   1.986   2.917
 1011TIP3   OH2 2989   3.504   7.233   3.861
 1011TIP3    H1 2990   3.426   7.192   3.898
 1011TIP3    H2 2991   3.551   7.162   3.818
 1012TIP3   OH2 2992   6.388   2.901   6.010
 1012TIP3    H1 2993   6.347   2.913   5.925
 1012TIP3    H2 2994   6.482   2.915   5.994
 1013TIP3   OH2 2995   6.024   6.898   3.425
 1013TIP3    H1 2996   5.983   6.933   3.346
 1013TIP3    H2 2997   6.117   6.916   3.413
 1014TIP3   OH2 2998   1.116   5.926   2.060
 1014TIP3    H1 2999   1.202   5.913   2.019
 1014TIP3    H2 3000   1.055   5.880   2.001
 1015TIP3   OH2 3001   1.083   0.618   6.286
 1015TIP3    H1 3002   1.114   0.609   6.196
 1015TIP3    H2 3003   1.036   0.536   6.303
 1016TIP3   OH2 3004   7.766   3.576   6.527
 1016TIP3    H1 3005   7.721   3.618   6.453
 1016TIP3    H2 3006   7.830   3.518   6.486
 1017TIP3   OH2 3007   1.410   0.525   5.804
 1017TIP3    H1 3008   1.341   0.565   5.856
 1017TIP3    H2 3009   1.470   0.597   5.783
 1018TIP3   OH2 3010   4.094   6.688   1.688
 1018TIP3    H1 3011   4.044   6.767   1.668
 1018TIP3    H2 3012   4.085   6.677   1.782
 1019TIP3   OH2 3013   7.652   0.061   4.135
 1019TIP3    H1 3014   7.683   0.092   4.221
 1019TIP3    H2 3015   7.722   0.003   4.105
 1020TIP3   OH2 3016   1.789   3.333   3.481
 1020TIP3    H1 3017   1.750   3.299   3.561
 1020TIP3    H2 3018   1.838   3.258   3.445
 1021TIP3   OH2 3019   2.844   5.146   2.204
 1021TIP3    H1 3020   2.839   5.084   2.277
 1021TIP3    H2 3021   2.909   5.211   2.231
 1022TIP3   OH2 3022   4.244   3.166   5.143
 1022TIP3    H1 3023   4.202   3.148   5.059
 1022TIP3    H2 3024   4.268   3.080   5.177
 1023TIP3   OH2 3025   4.549   1.864   3.698
 1023TIP3    H1 3026   4.463   1.823   3.686
 1023TIP3    H2 3027   4.588   1.863   3.610
 1024TIP3   OH2 3028   2.283   2.454   6.486
 1024TIP3    H1 3029   2.245   2.525   6.433
 1024TIP3    H2 3030   2.210   2.395   6.503
 1025TIP3   OH2 3031   1.863   6.615   3.104
 1025TIP3    H1 3032   1.901   6.676   3.041
 1025TIP3    H2 3033   1.800   6.668   3.154
 1026TIP3   OH2 3034   0.097   2.419   3.013
 1026TIP3    H1 3035   0.058   2.445   2.930
 1026TIP3    H2 3036   0.061   2.332   3.031
 1027TIP3   OH2 3037   1.431   7.152   3.489
 1027TIP3    H1 3038   1.462   7.061   3.489
 1027TIP3    H2 3039   1.431   7.177   3.582
 1028TIP3   OH2 3040   6.727   6.206   1.388
 1028TIP3    H1 3041   6.741   6.244   1.301
 1028TIP3    H2 3042   6.699   6.116   1.371
 1029TIP3   OH2 3043   4.703   3.445   1.870
 1029TIP3    H1 3044   4.634   3.455   1.936
 1029TIP3    H2 3045   4.725   3.535   1.845
 1030TIP3   OH2 3046   4.460   7.497   4.372
 1030TIP3    H1 3047   4.461   7.484   4.277
 1030TIP3    H2 3048   4.498   7.417   4.408
 1031TIP3   OH2 3049   0.087   4.321   5.359
 1031TIP3    H1 3050  -0.005   4.339   5.380
 1031TIP3    H2 3051   0.082   4.253   5.291
 1032TIP3   OH2 3052   3.387   0.268   2.378
 1032TIP3    H1 3053   3.320   0.257   2.445
 1032TIP3    H2 3054   3.398   0.362   2.369
 1033TIP3   OH2 3055   1.410   6.421   6.108
 1033TIP3    H1 3056   1.335   6.394   6.055
 1033TIP3    H2 3057   1.454   6.488   6.057
 1034TIP3   OH2 3058   6.579   6.814   4.232
 1034TIP3    H1 3059   6.542   6.806   4.144
 1034TIP3    H2 3060   6.542   6.896   4.266
 1035TIP3   OH2 3061   2.396   3.352   5.943
 1035TIP3    H1 3062   2.305   3.323   5.938
 1035TIP3    H2 3063   2.389   3.447   5.954
 1036TIP3   OH2 3064   4.621   7.142   4.594
 1036TIP3    H1 3065   4.647   7.207   4.530
 1036TIP3    H2 3066   4.682   7.069   4.580
 1037TIP3   OH2 3067   7.152   5.854   1.898
 1037TIP3    H1 3068   7.062   5.868   1.868
 1037TIP3    H2 3069   7.206   5.869   1.820
 1038TIP3   OH2 3070   0.728   4.716   4.526
 1038TIP3    H1 3071   0.725   4.808   4.551
 1038TIP3    H2 3072   0.788   4.676   4.589
 1039TIP3   OH2 3073   5.459   0.318   3.883
 1039TIP3    H1 3074   5.503   0.299   3.800
 1039TIP3    H2 3075   5.486   0.247   3.941
 1040TIP3   OH2 3076   4.857   4.981   2.713
 1040TIP3    H1 3077   4.892   5.008   2.629
 1040TIP3    H2 3078   4.880   4.888   2.720
 1041TIP3   OH2 3079   3.159   3.238   4.348
 1041TIP3    H1 3080   3.195   3.178   4.282
 1041TIP3    H2 3081   3.161   3.324   4.306
 1042TIP3   OH2 3082   3.798   5.308   5.213
 1042TIP3    H1 3083   3.844   5.269   5.138
 1042TIP3    H2 3084   3.707   5.283   5.201
 1043TIP3   OH2 3085   1.086   4.426   3.474
 1043TIP3    H1 3086   1.042   4.493   3.526
 1043TIP3    H2 3087   1.116   4.471   3.396
 1044TIP3   OH2 3088   4.756   6.363   2.632
 1044TIP3    H1 3089   4.762   6.308   2.553
 1044TIP3    H2 3090   4.691   6.320   2.686
 1045TIP3   OH2 3091   0.317   6.408   4.547
 1045TIP3    H1 3092   0.363   6.456   4.478
 1045TIP3    H2 3093   0.379   6.341   4.576
 1046TIP3   OH2 3094   1.425   4.114   4.526
 1046TIP3    H1 3095   1.476   4.144   4.602
 1046TIP3    H2 3096   1.391   4.194   4.487
 1047TIP3   OH2 3097   6.064   0.765   6.435
 1047TIP3    H1 3098   6.121   0.730   6.504
 1047TIP3    H2 3099   6.067   0.700   6.365
 1048TIP3   OH2 3100   2.461   7.103   2.923
 1048TIP3    H1 3101   2.410   7.175   2.887
 1048TIP3    H2 3102   2.446   7.030   2.862
 1049TIP3   OH2 3103   0.084   7.149   1.089
 1049TIP3    H1 3104   0.150   7.087   1.056
 1049TIP3    H2 3105   0.067   7.207   1.014
 1050TIP3   OH2 3106   4.344   2.080   5.811
 1050TIP3    H1 3107   4.379   2.167   5.831
 1050TIP3    H2 3108   4.270   2.069   5.872
 1051TIP3   OH2 3109   5.566   7.352   4.660
 1051TIP3    H1 3110   5.617   7.423   4.696
 1051TIP3    H2 3111   5.626   7.307   4.600
 1052TIP3   OH2 3112   2.998   7.589   4.185
 1052TIP3    H1 3113   2.920   7.639   4.209
 1052TIP3    H2 3114   3.015   7.615   4.095
 1053TIP3   OH2 3115   2.643   3.605   4.185
 1053TIP3    H1 3116   2.710   3.565   4.239
 1053TIP3    H2 3117   2.665   3.577   4.096
 1054TIP3   OH2 3118   4.973   5.521   3.078
 1054TIP3    H1 3119   4.914   5.560   3.141
 1054TIP3    H2 3120   5.044   5.585   3.067
 1055TIP3   OH2 3121   1.877   2.868   2.887
 1055TIP3    H1 3122   1.909   2.959   2.883
 1055TIP3    H2 3123   1.877   2.847   2.980
 1056TIP3   OH2 3124   2.567   6.054   3.826
 1056TIP3    H1 3125   2.564   5.961   3.849
 1056TIP3    H2 3126   2.505   6.063   3.753
 1057TIP3   OH2 3127   0.031   0.540   0.144
 1057TIP3    H1 3128   0.073   0.551   0.229
 1057TIP3    H2 3129  -0.033   0.470   0.158
 1058TIP3   OH2 3130   3.878   6.230   6.118
 1058TIP3    H1 3131   3.911   6.145   6.088
 1058TIP3    H2 3132   3.784   6.215   6.132
 1059TIP3   OH2 3133   2.499   5.756   6.644
 1059TIP3    H1 3134   2.446   5.748   6.723
 1059TIP3    H2 3135   2.588   5.771   6.675
 1060TIP3   OH2 3136   7.403   1.103   1.171
 1060TIP3    H1 3137   7.447   1.186   1.152
 1060TIP3    H2 3138   7.330   1.127   1.227
 1061TIP3   OH2 3139   7.118   5.261   0.081
 1061TIP3    H1 3140   7.102   5.355   0.093
 1061TIP3    H2 3141   7.032   5.226   0.056
 1062TIP3   OH2 3142   5.848   0.544   6.090
 1062TIP3    H1 3143   5.843   0.640   6.086
 1062TIP3    H2 3144   5.919   0.526   6.152
 1063TIP3   OH2 3145   6.784   2.671   2.420
 1063TIP3    H1 3146   6.844   2.736   2.457
 1063TIP3    H2 3147   6.727   2.721   2.362
 1064TIP3   OH2 3148   0.057   3.425   3.801
 1064TIP3    H1 3149   0.063   3.420   3.705
 1064TIP3    H2 3150   0.081   3.338   3.831
 1065TIP3   OH2 3151   1.285   1.190   1.647
 1065TIP3    H1 3152   1.264   1.178   1.739
 1065TIP3    H2 3153   1.243   1.115   1.603
 1066TIP3   OH2 3154   6.815   6.968   5.946
 1066TIP3    H1 3155   6.880   6.916   5.993
 1066TIP3    H2 3156   6.867   7.025   5.889
 1067TIP3   OH2 3157   5.386   1.513   6.222
 1067TIP3    H1 3158   5.438   1.560   6.157
 1067TIP3    H2 3159   5.382   1.572   6.297
 1068TIP3   OH2 3160   4.352   4.638   3.375
 1068TIP3    H1 3161   4.370   4.711   3.315
 1068TIP3    H2 3162   4.421   4.643   3.441
 1069TIP3   OH2 3163   4.763   5.641   3.246
 1069TIP3    H1 3164   4.799   5.729   3.260
 1069TIP3    H2 3165   4.704   5.651   3.171
 1070TIP3   OH2 3166   7.737   2.650   3.139
 1070TIP3    H1 3167   7.828   2.678   3.137
 1070TIP3    H2 3168   7.706   2.661   3.048
 1071TIP3   OH2 3169   6.076   5.579   3.885
 1071TIP3    H1 3170   6.059   5.627   3.966
 1071TIP3    H2 3171   6.140   5.633   3.838
 1072TIP3   OH2 3172   1.825   4.587   4.320
 1072TIP3    H1 3173   1.770   4.550   4.251
 1072TIP3    H2 3174   1.839   4.678   4.294
 1073TIP3   OH2 3175   4.354   5.987   0.231
 1073TIP3    H1 3176   4.326   6.065   0.182
 1073TIP3    H2 3177   4.440   5.967   0.194
 1074TIP3   OH2 3178   3.694   1.485   3.383
 1074TIP3    H1 3179   3.759   1.552   3.403
 1074TIP3    H2 3180   3.646   1.521   3.308
 1075TIP3   OH2 3181   0.122   1.143   6.599
 1075TIP3    H1 3182   0.064   1.141   6.522
 1075TIP3    H2 3183   0.170   1.060   6.594
 1076TIP3   OH2 3184   2.215   3.073   2.144
 1076TIP3    H1 3185   2.128   3.109   2.129
 1076TIP3    H2 3186   2.241   3.107   2.230
 1077TIP3   OH2 3187   4.837   1.718   1.894
 1077TIP3    H1 3188   4.831   1.638   1.842
 1077TIP3    H2 3189   4.748   1.754   1.892
 1078TIP3   OH2 3190   2.945   1.403   1.465
 1078TIP3    H1 3191   2.929   1.337   1.397
 1078TIP3    H2 3192   3.039   1.418   1.461
 1079TIP3   OH2 3193   5.498   2.518   4.870
 1079TIP3    H1 3194   5.460   2.441   4.912
 1079TIP3    H2 3195   5.503   2.584   4.939
 1080TIP3   OH2 3196   5.461   4.602   1.229
 1080TIP3    H1 3197   5.426   4.585   1.317
 1080TIP3    H2 3198   5.528   4.535   1.217
 1081TIP3   OH2 3199   7.742   7.763   0.099
 1081TIP3    H1 3200   7.780   7.740   0.184
 1081TIP3    H2 3201   7.726   7.679   0.056
 1082TIP3   OH2 3202   8.134   0.940   0.124
 1082TIP3    H1 3203   8.056   0.982   0.161
 1082TIP3    H2 3204   8.130   0.851   0.157
 1083TIP3   OH2 3205   7.059   5.043   2.697
 1083TIP3    H1 3206   7.023   5.064   2.611
 1083TIP3    H2 3207   7.142   5.090   2.702
 1084TIP3   OH2 3208   0.608   1.354   3.354
 1084TIP3    H1 3209   0.645   1.302   3.283
 1084TIP3    H2 3210   0.630   1.445   3.332
 1085TIP3   OH2 3211   3.084   1.406   4.696
 1085TIP3    H1 3212   3.110   1.391   4.605
 1085TIP3    H2 3213   3.126   1.488   4.721
 1086TIP3   OH2 3214   1.260   7.484   1.665
 1086TIP3    H1 3215   1.177   7.524   1.638
 1086TIP3    H2 3216   1.311   7.478   1.584
 1087TIP3   OH2 3217   0.236   4.486   4.357
 1087TIP3    H1 3218   0.196   4.568   4.331
 1087TIP3    H2 3219   0.320   4.511   4.396
 1088TIP3   OH2 3220   2.660   3.636   4.451
 1088TIP3    H1 3221   2.613   3.645   4.368
 1088TIP3    H2 3222   2.595   3.601   4.511
 1089TIP3   OH2 3223   2.399   1.198   1.194
 1089TIP3    H1 3224   2.366   1.275   1.146
 1089TIP3    H2 3225   2.329   1.176   1.255
 1090TIP3   OH2 3226   0.883   0.903   2.660
 1090TIP3    H1 3227   0.795   0.872   2.684
 1090TIP3    H2 3228   0.939   0.826   2.672
 1091TIP3   OH2 3229   0.730   7.681   0.800
 1091TIP3    H1 3230   0.661   7.701   0.862
 1091TIP3    H2 3231   0.807   7.725   0.834
 1092TIP3   OH2 3232   4.735   3.317   3.559
 1092TIP3    H1 3233   4.728   3.270   3.476
 1092TIP3    H2 3234   4.646   3.314   3.596
 1093TIP3   OH2 3235   6.817   5.390   5.269
 1093TIP3    H1 3236   6.789   5.332   5.339
 1093TIP3    H2 3237   6.757   5.372   5.197
 1094TIP3   OH2 3238   6.466   5.136   0.326
 1094TIP3    H1 3239   6.526   5.184   0.383
 1094TIP3    H2 3240   6.397   5.200   0.305
 1095TIP3   OH2 3241   4.790   2.519   5.789
 1095TIP3    H1 3242   4.829   2.594   5.834
 1095TIP3    H2 3243   4.814   2.444   5.842
 1096TIP3   OH2 3244   4.151   5.339   4.345
 1096TIP3    H1 3245   4.076   5.354   4.403
 1096TIP3    H2 3246   4.129   5.388   4.266
 1097TIP3   OH2 3247   2.554   4.111   0.840
 1097TIP3    H1 3248   2.525   4.083   0.753
 1097TIP3    H2 3249   2.650   4.118   0.832
 1098TIP3   OH2 3250   6.318   2.980   4.172
 1098TIP3    H1 3251   6.358   3.013   4.092
 1098TIP3    H2 3252   6.252   2.917   4.142
 1099TIP3   OH2 3253   1.126   0.346   0.342
 1099TIP3    H1 3254   1.113   0.325   0.250
 1099TIP3    H2 3255   1.135   0.261   0.385
 1100TIP3   OH2 3256   7.545   6.814   5.980
 1100TIP3    H1 3257   7.531   6.902   6.016
 1100TIP3    H2 3258   7.577   6.762   6.053
 1101TIP3   OH2 3259   4.168   4.013   3.799
 1101TIP3    H1 3260   4.158   4.103   3.829
 1101TIP3    H2 3261   4.181   4.019   3.705
 1102TIP3   OH2 3262   5.641   5.151   2.655
 1102TIP3    H1 3263   5.637   5.056   2.649
 1102TIP3    H2 3264   5.555   5.177   2.688
 1103TIP3   OH2 3265   4.828   0.886   3.818
 1103TIP3    H1 3266   4.801   0.970   3.780
 1103TIP3    H2 3267   4.902   0.858   3.764
 1104TIP3   OH2 3268   6.389   6.597   2.673
 1104TIP3    H1 3269   6.371   6.682   2.714
 1104TIP3    H2 3270   6.315   6.583   2.615
 1105TIP3   OH2 3271   0.470   0.701   4.261
 1105TIP3    H1 3272   0.508   0.666   4.180
 1105TIP3    H2 3273   0.395   0.753   4.230
 1106TIP3   OH2 3274   7.483   6.003   3.554
 1106TIP3    H1 3275   7.427   5.963   3.621
 1106TIP3    H2 3276   7.432   6.077   3.522
 1107TIP3   OH2 3277   5.002   5.587   5.105
 1107TIP3    H1 3278   5.089   5.622   5.087
 1107TIP3    H2 3279   4.967   5.643   5.175
 1108TIP3   OH2 3280   6.178   0.518   1.805
 1108TIP3    H1 3281   6.219   0.563   1.731
 1108TIP3    H2 3282   6.089   0.551   1.807
 1109TIP3   OH2 3283   7.647   0.503   0.915
 1109TIP3    H1 3284   7.603   0.530   0.834
 1109TIP3    H2 3285   7.579   0.509   0.982
 1110TIP3   OH2 3286   5.533   0.431   3.255
 1110TIP3    H1 3287   5.479   0.356   3.229
 1110TIP3    H2 3288   5.569   0.464   3.173
 1111TIP3   OH2 3289   7.232   5.569   1.982
 1111TIP3    H1 3290   7.246   5.475   1.979
 1111TIP3    H2 3291   7.181   5.589   1.903
 1112TIP3   OH2 3292   6.999   6.424   5.590
 1112TIP3    H1 3293   7.024   6.500   5.536
 1112TIP3    H2 3294   7.027   6.348   5.539
 1113TIP3   OH2 3295   5.448   5.684   1.043
 1113TIP3    H1 3296   5.541   5.692   1.024
 1113TIP3    H2 3297   5.412   5.771   1.022
 1114TIP3   OH2 3298   0.077   1.460   2.562
 1114TIP3    H1 3299   0.056   1.467   2.655
 1114TIP3    H2 3300   0.040   1.377   2.534
 1115TIP3   OH2 3301   7.722   4.005   6.652
 1115TIP3    H1 3302   7.767   3.936   6.702
 1115TIP3    H2 3303   7.634   3.970   6.637
 1116TIP3   OH2 3304   8.035   0.954   1.135
 1116TIP3    H1 3305   8.100   0.991   1.194
 1116TIP3    H2 3306   8.021   0.864   1.168
 1117TIP3   OH2 3307   6.326   3.864   6.711
 1117TIP3    H1 3308   6.281   3.784   6.683
 1117TIP3    H2 3309   6.361   3.901   6.630
 1118TIP3   OH2 3310   3.860   2.047   2.748
 1118TIP3    H1 3311   3.906   1.977   2.794
 1118TIP3    H2 3312   3.896   2.127   2.787
 1119TIP3   OH2 3313   6.166   2.486   2.027
 1119TIP3    H1 3314   6.181   2.475   1.933
 1119TIP3    H2 3315   6.157   2.397   2.060
 1120TIP3   OH2 3316   4.002   6.741   1.185
 1120TIP3    H1 3317   4.028   6.724   1.094
 1120TIP3    H2 3318   4.055   6.816   1.212
 1121TIP3   OH2 3319   7.411   5.921   4.850
 1121TIP3    H1 3320   7.372   5.853   4.796
 1121TIP3    H2 3321   7.505   5.907   4.842
 1122TIP3   OH2 3322   1.023   6.425   5.005
 1122TIP3    H1 3323   0.998   6.444   4.915
 1122TIP3    H2 3324   0.979   6.343   5.025
 1123TIP3   OH2 3325   6.120   3.640   4.429
 1123TIP3    H1 3326   6.201   3.672   4.390
 1123TIP3    H2 3327   6.092   3.569   4.372
 1124TIP3   OH2 3328   2.394   3.474   2.980
 1124TIP3    H1 3329   2.360   3.546   2.926
 1124TIP3    H2 3330   2.472   3.511   3.023
 1125TIP3   OH2 3331   5.151   4.975   0.693
 1125TIP3    H1 3332   5.140   4.965   0.599
 1125TIP3    H2 3333   5.179   5.066   0.705
 1126TIP3   OH2 3334   2.067   1.636   3.275
 1126TIP3    H1 3335   2.158   1.628   3.304
 1126TIP3    H2 3336   2.063   1.587   3.193
 1127TIP3   OH2 3337   8.199   6.254   2.283
 1127TIP3    H1 3338   8.197   6.349   2.294
 1127TIP3    H2 3339   8.292   6.234   2.272
 1128TIP3   OH2 3340   7.282   4.523   5.919
 1128TIP3    H1 3341   7.334   4.457   5.965
 1128TIP3    H2 3342   7.246   4.578   5.989
 1129TIP3   OH2 3343   7.243   1.188   4.191
 1129TIP3    H1 3344   7.292   1.268   4.209
 1129TIP3    H2 3345   7.305   1.133   4.143
 1130TIP3   OH2 3346   4.219   2.516   1.615
 1130TIP3    H1 3347   4.274   2.592   1.630
 1130TIP3    H2 3348   4.172   2.534   1.534
 1131TIP3   OH2 3349   0.990   3.865   4.181
 1131TIP3    H1 3350   0.949   3.910   4.255
 1131TIP3    H2 3351   1.043   3.932   4.138
 1132TIP3   OH2 3352   5.495   0.290   0.572
 1132TIP3    H1 3353   5.464   0.380   0.561
 1132TIP3    H2 3354   5.427   0.247   0.624
 1133TIP3   OH2 3355   5.036   5.649   2.777
 1133TIP3    H1 3356   5.022   5.654   2.872
 1133TIP3    H2 3357   5.079   5.731   2.755
 1134TIP3   OH2 3358   5.216   2.182   5.023
 1134TIP3    H1 3359   5.205   2.271   4.990
 1134TIP3    H2 3360   5.255   2.194   5.110
 1135TIP3   OH2 3361   5.662   1.827   6.503
 1135TIP3    H1 3362   5.612   1.819   6.584
 1135TIP3    H2 3363   5.749   1.856   6.532
 1136TIP3   OH2 3364   1.587   6.503   6.559
 1136TIP3    H1 3365   1.559   6.558   6.486
 1136TIP3    H2 3366   1.644   6.560   6.611
 1137TIP3   OH2 3367   4.506   2.245   6.668
 1137TIP3    H1 3368   4.433   2.190   6.698
 1137TIP3    H2 3369   4.571   2.183   6.635
 1138TIP3   OH2 3370   3.729   7.815   5.570
 1138TIP3    H1 3371   3.772   7.900   5.573
 1138TIP3    H2 3372   3.786   7.757   5.620
 1139TIP3   OH2 3373   3.425   7.194   5.764
 1139TIP3    H1 3374   3.431   7.277   5.718
 1139TIP3    H2 3375   3.443   7.128   5.697
 1140TIP3   OH2 3376   6.761   3.579   6.566
 1140TIP3    H1 3377   6.758   3.621   6.652
 1140TIP3    H2 3378   6.855   3.569   6.549
 1141TIP3   OH2 3379   4.263   7.402   2.004
 1141TIP3    H1 3380   4.279   7.481   1.951
 1141TIP3    H2 3381   4.328   7.407   2.074
 1142TIP3   OH2 3382   0.788   5.170   1.567
 1142TIP3    H1 3383   0.806   5.076   1.571
 1142TIP3    H2 3384   0.782   5.189   1.473
 1143TIP3   OH2 3385   1.047   6.516   0.660
 1143TIP3    H1 3386   1.125   6.463   0.644
 1143TIP3    H2 3387   1.069   6.570   0.735
 1144TIP3   OH2 3388   7.857   3.796   3.164
 1144TIP3    H1 3389   7.792   3.810   3.095
 1144TIP3    H2 3390   7.806   3.761   3.238
 1145TIP3   OH2 3391   3.824   0.805   2.309
 1145TIP3    H1 3392   3.850   0.827   2.219
 1145TIP3    H2 3393   3.761   0.734   2.299
 1146TIP3   OH2 3394   1.625   2.154   0.210
 1146TIP3    H1 3395   1.715   2.126   0.228
 1146TIP3    H2 3396   1.631   2.203   0.129
 1147TIP3   OH2 3397   4.242   1.044   3.830
 1147TIP3    H1 3398   4.225   0.991   3.751
 1147TIP3    H2 3399   4.328   1.015   3.859
 1148TIP3   OH2 3400   2.651   2.520   3.905
 1148TIP3    H1 3401   2.723   2.541   3.964
 1148TIP3    H2 3402   2.573   2.523   3.961
 1149TIP3   OH2 3403   2.174   2.720   5.300
 1149TIP3    H1 3404   2.251   2.668   5.321
 1149TIP3    H2 3405   2.157   2.771   5.379
 1150TIP3   OH2 3406   0.836   7.639   1.192
 1150TIP3    H1 3407   0.915   7.586   1.187
 1150TIP3    H2 3408   0.793   7.611   1.273
 1151TIP3   OH2 3409   8.091   0.696   2.563
 1151TIP3    H1 3410   8.015   0.734   2.608
 1151TIP3    H2 3411   8.080   0.602   2.572
 1152TIP3   OH2 3412   3.924   0.192   1.045
 1152TIP3    H1 3413   3.956   0.261   1.104
 1152TIP3    H2 3414   3.950   0.221   0.958
 1153TIP3   OH2 3415   5.797   2.270   5.634
 1153TIP3    H1 3416   5.707   2.296   5.616
 1153TIP3    H2 3417   5.797   2.175   5.630
 1154TIP3   OH2 3418   7.121   4.737   4.930
 1154TIP3    H1 3419   7.094   4.661   4.982
 1154TIP3    H2 3420   7.204   4.711   4.891
 1155TIP3   OH2 3421   1.961   2.375   5.844
 1155TIP3    H1 3422   2.007   2.398   5.764
 1155TIP3    H2 3423   1.971   2.280   5.850
 1156TIP3   OH2 3424   2.119   4.863   5.796
 1156TIP3    H1 3425   2.210   4.833   5.805
 1156TIP3    H2 3426   2.122   4.928   5.725
 1157TIP3   OH2 3427   7.532   2.780   4.612
 1157TIP3    H1 3428   7.594   2.852   4.624
 1157TIP3    H2 3429   7.517   2.747   4.701
 1158TIP3   OH2 3430   3.125   1.886   3.922
 1158TIP3    H1 3431   3.182   1.955   3.887
 1158TIP3    H2 3432   3.045   1.892   3.871
 1159TIP3   OH2 3433   6.804   2.138   6.188
 1159TIP3    H1 3434   6.720   2.152   6.145
 1159TIP3    H2 3435   6.793   2.178   6.275
 1160TIP3   OH2 3436   4.494   2.254   2.212
 1160TIP3    H1 3437   4.440   2.319   2.166
 1160TIP3    H2 3438   4.482   2.276   2.305
 1161TIP3   OH2 3439   6.333   6.810   2.824
 1161TIP3    H1 3440   6.349   6.795   2.917
 1161TIP3    H2 3441   6.245   6.848   2.821
 1162TIP3   OH2 3442   4.518   0.977   4.878
 1162TIP3    H1 3443   4.452   0.981   4.809
 1162TIP3    H2 3444   4.468   0.961   4.958
 1163TIP3   OH2 3445   6.196   3.610   5.212
 1163TIP3    H1 3446   6.277   3.626   5.261
 1163TIP3    H2 3447   6.194   3.678   5.145
 1164TIP3   OH2 3448   6.943   7.551   2.361
 1164TIP3    H1 3449   6.882   7.598   2.304
 1164TIP3    H2 3450   7.027   7.594   2.347
 1165TIP3   OH2 3451   5.496   0.872   3.578
 1165TIP3    H1 3452   5.496   0.826   3.494
 1165TIP3    H2 3453   5.481   0.964   3.556
 1166TIP3   OH2 3454   4.232   4.311   0.712
 1166TIP3    H1 3455   4.304   4.305   0.650
 1166TIP3    H2 3456   4.184   4.229   0.701
 1167TIP3   OH2 3457   6.700   2.992   1.232
 1167TIP3    H1 3458   6.734   3.081   1.242
 1167TIP3    H2 3459   6.715   2.950   1.316
 1168TIP3   OH2 3460   0.984   0.499   0.540
 1168TIP3    H1 3461   0.890   0.511   0.530
 1168TIP3    H2 3462   1.001   0.409   0.512
 1169TIP3   OH2 3463   5.653   1.491   0.467
 1169TIP3    H1 3464   5.567   1.454   0.487
 1169TIP3    H2 3465   5.712   1.449   0.530
 1170TIP3   OH2 3466   1.320   4.117   0.259
 1170TIP3    H1 3467   1.272   4.069   0.327
 1170TIP3    H2 3468   1.373   4.180   0.308
 1171TIP3   OH2 3469   5.465   6.213   3.602
 1171TIP3    H1 3470   5.411   6.172   3.535
 1171TIP3    H2 3471   5.477   6.145   3.668
 1172TIP3   OH2 3472   0.067   5.498   0.360
 1172TIP3    H1 3473   0.122   5.513   0.284
 1172TIP3    H2 3474  -0.016   5.465   0.324
 1173TIP3   OH2 3475   2.687   3.553   0.333
 1173TIP3    H1 3476   2.775   3.562   0.370
 1173TIP3    H2 3477   2.695   3.483   0.268
 1174TIP3   OH2 3478   7.236   3.980   2.453
 1174TIP3    H1 3479   7.186   3.994   2.533
 1174TIP3    H2 3480   7.199   3.900   2.416
 1175TIP3   OH2 3481   1.054   2.494   3.255
 1175TIP3    H1 3482   0.995   2.458   3.321
 1175TIP3    H2 3483   1.126   2.533   3.305
 1176TIP3   OH2 3484   1.172   5.983   4.988
 1176TIP3    H1 3485   1.255   5.939   4.969
 1176TIP3    H2 3486   1.138   6.008   4.902
 1177TIP3   OH2 3487   2.922   2.605   0.100
 1177TIP3    H1 3488   2.953   2.623   0.011
 1177TIP3    H2 3489   2.997   2.563   0.143
 1178TIP3   OH2 3490   6.337   1.380   0.532
 1178TIP3    H1 3491   6.350   1.393   0.438
 1178TIP3    H2 3492   6.273   1.310   0.538
 1179TIP3   OH2 3493   6.889   3.010   4.933
 1179TIP3    H1 3494   6.876   2.996   4.839
 1179TIP3    H2 3495   6.868   2.926   4.974
 1180TIP3   OH2 3496   1.064   6.365   0.984
 1180TIP3    H1 3497   1.097   6.393   1.069
 1180TIP3    H2 3498   1.142   6.341   0.935
 1181TIP3   OH2 3499   6.845   4.751   3.414
 1181TIP3    H1 3500   6.764   4.750   3.363
 1181TIP3    H2 3501   6.909   4.793   3.356
 1182TIP3   OH2 3502   3.897   1.027   2.479
 1182TIP3    H1 3503   3.945   1.070   2.408
 1182TIP3    H2 3504   3.844   1.097   2.518
 1183TIP3   OH2 3505   1.571   2.013   0.873
 1183TIP3    H1 3506   1.489   1.981   0.910
 1183TIP3    H2 3507   1.616   1.934   0.842
 1184TIP3   OH2 3508   2.611   0.572   6.683
 1184TIP3    H1 3509   2.643   0.634   6.618
 1184TIP3    H2 3510   2.521   0.553   6.657
 1185TIP3   OH2 3511   0.460   1.004   2.873
 1185TIP3    H1 3512   0.484   1.070   2.937
 1185TIP3    H2 3513   0.487   1.041   2.789
 1186TIP3   OH2 3514   5.782   0.708   5.330
 1186TIP3    H1 3515   5.834   0.653   5.389
 1186TIP3    H2 3516   5.828   0.704   5.246
 1187TIP3   OH2 3517   5.186   0.934   1.026
 1187TIP3    H1 3518   5.133   0.951   0.948
 1187TIP3    H2 3519   5.273   0.966   1.003
 1188TIP3   OH2 3520   1.881   2.791   3.151
 1188TIP3    H1 3521   1.906   2.824   3.237
 1188TIP3    H2 3522   1.902   2.698   3.154
 1189TIP3   OH2 3523   7.416   6.814   0.733
 1189TIP3    H1 3524   7.473   6.793   0.659
 1189TIP3    H2 3525   7.357   6.882   0.699
 1190TIP3   OH2 3526   6.507   1.921   4.339
 1190TIP3    H1 3527   6.427   1.968   4.318
 1190TIP3    H2 3528   6.506   1.914   4.435
 1191TIP3   OH2 3529   3.185   2.699   1.217
 1191TIP3    H1 3530   3.247   2.670   1.284
 1191TIP3    H2 3531   3.234   2.764   1.166
 1192TIP3   OH2 3532   3.397   6.026   1.553
 1192TIP3    H1 3533   3.492   6.021   1.564
 1192TIP3    H2 3534   3.368   6.079   1.627
 1193TIP3   OH2 3535   8.031   3.219   5.001
 1193TIP3    H1 3536   7.954   3.269   5.029
 1193TIP3    H2 3537   8.025   3.137   5.051
 1194TIP3   OH2 3538   4.097   2.015   5.961
 1194TIP3    H1 3539   4.064   1.990   6.047
 1194TIP3    H2 3540   4.054   2.098   5.941
 1195TIP3   OH2 3541   7.393   1.709   5.912
 1195TIP3    H1 3542   7.419   1.724   6.003
 1195TIP3    H2 3543   7.428   1.784   5.864
 1196TIP3   OH2 3544   7.286   3.708   5.598
 1196TIP3    H1 3545   7.305   3.683   5.688
 1196TIP3    H2 3546   7.233   3.788   5.606
 1197TIP3   OH2 3547   3.132   7.684   3.140
 1197TIP3    H1 3548   3.124   7.773   3.175
 1197TIP3    H2 3549   3.154   7.696   3.048
 1198TIP3   OH2 3550   2.242   2.817   4.725
 1198TIP3    H1 3551   2.151   2.846   4.720
 1198TIP3    H2 3552   2.272   2.847   4.811
 1199TIP3   OH2 3553   8.121   6.361   4.301
 1199TIP3    H1 3554   8.050   6.425   4.306
 1199TIP3    H2 3555   8.112   6.322   4.215
 1200TIP3   OH2 3556   1.939   5.129   4.457
 1200TIP3    H1 3557   1.891   5.210   4.478
 1200TIP3    H2 3558   1.986   5.108   4.538
 1201TIP3   OH2 3559   7.804   3.204   0.382
 1201TIP3    H1 3560   7.733   3.234   0.439
 1201TIP3    H2 3561   7.839   3.284   0.342
 1202TIP3   OH2 3562   2.118   1.401   6.465
 1202TIP3    H1 3563   2.158   1.472   6.414
 1202TIP3    H2 3564   2.130   1.428   6.556
 1203TIP3   OH2 3565   7.384   5.343   2.167
 1203TIP3    H1 3566   7.401   5.271   2.106
 1203TIP3    H2 3567   7.310   5.313   2.220
 1204TIP3   OH2 3568   5.390   3.596   0.464
 1204TIP3    H1 3569   5.405   3.536   0.391
 1204TIP3    H2 3570   5.327   3.660   0.429
 1205TIP3   OH2 3571   6.621   5.092   0.717
 1205TIP3    H1 3572   6.576   5.143   0.785
 1205TIP3    H2 3573   6.607   5.142   0.637
 1206TIP3   OH2 3574   3.390   1.364   4.597
 1206TIP3    H1 3575   3.418   1.445   4.639
 1206TIP3    H2 3576   3.409   1.377   4.504
 1207TIP3   OH2 3577   3.843   5.929   0.511
 1207TIP3    H1 3578   3.891   5.904   0.432
 1207TIP3    H2 3579   3.846   5.851   0.567
 1208TIP3   OH2 3580   7.412   2.683   5.100
 1208TIP3    H1 3581   7.324   2.684   5.136
 1208TIP3    H2 3582   7.464   2.636   5.165
 1209TIP3   OH2 3583   2.872   4.211   1.779
 1209TIP3    H1 3584   2.840   4.139   1.726
 1209TIP3    H2 3585   2.921   4.266   1.719
 1210TIP3   OH2 3586   7.542   4.318   1.111
 1210TIP3    H1 3587   7.488   4.265   1.052
 1210TIP3    H2 3588   7.629   4.315   1.072
 1211TIP3   OH2 3589   4.208   5.334   3.132
 1211TIP3    H1 3590   4.273   5.283   3.181
 1211TIP3    H2 3591   4.153   5.373   3.199
 1212TIP3   OH2 3592   7.888   6.734   1.592
 1212TIP3    H1 3593   7.958   6.716   1.529
 1212TIP3    H2 3594   7.808   6.708   1.546
 1213TIP3   OH2 3595   3.579   5.032   0.054
 1213TIP3    H1 3596   3.596   5.067  -0.034
 1213TIP3    H2 3597   3.637   5.081   0.112
 1214TIP3   OH2 3598   4.868   5.536   2.197
 1214TIP3    H1 3599   4.935   5.595   2.230
 1214TIP3    H2 3600   4.786   5.584   2.208
 1215TIP3   OH2 3601   3.987   3.839   5.747
 1215TIP3    H1 3602   3.919   3.879   5.693
 1215TIP3    H2 3603   4.006   3.904   5.814
 1216TIP3   OH2 3604   0.181   0.888   1.799
 1216TIP3    H1 3605   0.123   0.814   1.781
 1216TIP3    H2 3606   0.265   0.847   1.821
 1217TIP3   OH2 3607   3.944   5.128   2.376
 1217TIP3    H1 3608   3.915   5.130   2.467
 1217TIP3    H2 3609   3.929   5.217   2.344
 1218TIP3   OH2 3610   4.109   7.145   3.437
 1218TIP3    H1 3611   4.165   7.070   3.455
 1218TIP3    H2 3612   4.164   7.222   3.453
 1219TIP3   OH2 3613   5.521   3.349   0.713
 1219TIP3    H1 3614   5.511   3.321   0.622
 1219TIP3    H2 3615   5.432   3.367   0.743
 1220TIP3   OH2 3616   1.947   3.556   3.414
 1220TIP3    H1 3617   1.890   3.489   3.451
 1220TIP3    H2 3618   1.972   3.523   3.328
 1221TIP3   OH2 3619   2.450   4.825   1.915
 1221TIP3    H1 3620   2.396   4.786   1.846
 1221TIP3    H2 3621   2.465   4.914   1.885
 1222TIP3   OH2 3622   3.394   7.097   0.598
 1222TIP3    H1 3623   3.434   7.013   0.621
 1222TIP3    H2 3624   3.463   7.162   0.613
 1223TIP3   OH2 3625   5.238   2.977   6.484
 1223TIP3    H1 3626   5.149   2.965   6.519
 1223TIP3    H2 3627   5.248   3.072   6.477
 1224TIP3   OH2 3628   4.231   5.468   0.631
 1224TIP3    H1 3629   4.225   5.431   0.719
 1224TIP3    H2 3630   4.217   5.562   0.644
 1225TIP3   OH2 3631   4.772   1.224   1.791
 1225TIP3    H1 3632   4.828   1.171   1.734
 1225TIP3    H2 3633   4.817   1.308   1.798
 1226TIP3   OH2 3634   7.703   3.040   3.826
 1226TIP3    H1 3635   7.709   3.004   3.737
 1226TIP3    H2 3636   7.776   3.000   3.873
 1227TIP3   OH2 3637   3.766   2.465   1.220
 1227TIP3    H1 3638   3.817   2.449   1.299
 1227TIP3    H2 3639   3.806   2.542   1.180
 1228TIP3   OH2 3640   5.111   7.025   0.141
 1228TIP3    H1 3641   5.047   6.954   0.146
 1228TIP3    H2 3642   5.092   7.079   0.218
 1229TIP3   OH2 3643   2.834   7.683   2.681
 1229TIP3    H1 3644   2.858   7.594   2.707
 1229TIP3    H2 3645   2.840   7.734   2.761
 1230TIP3   OH2 3646   5.967   6.663   3.794
 1230TIP3    H1 3647   5.925   6.615   3.722
 1230TIP3    H2 3648   5.907   6.654   3.868
 1231TIP3   OH2 3649   5.514   0.378   2.680
 1231TIP3    H1 3650   5.553   0.364   2.766
 1231TIP3    H2 3651   5.444   0.442   2.695
 1232TIP3   OH2 3652   8.132   0.408   6.758
 1232TIP3    H1 3653   8.103   0.446   6.675
 1232TIP3    H2 3654   8.093   0.464   6.825
 1233TIP3   OH2 3655   7.873   5.683   1.477
 1233TIP3    H1 3656   7.798   5.698   1.535
 1233TIP3    H2 3657   7.922   5.766   1.480
 1234TIP3   OH2 3658   8.200   0.453   5.709
 1234TIP3    H1 3659   8.216   0.482   5.799
 1234TIP3    H2 3660   8.106   0.467   5.696
 1235TIP3   OH2 3661   1.344   0.323   2.749
 1235TIP3    H1 3662   1.327   0.417   2.759
 1235TIP3    H2 3663   1.311   0.301   2.662
 1236TIP3   OH2 3664   7.682   7.454   5.506
 1236TIP3    H1 3665   7.751   7.430   5.568
 1236TIP3    H2 3666   7.630   7.519   5.552
 1237TIP3   OH2 3667   4.015   5.049   6.531
 1237TIP3    H1 3668   3.955   5.124   6.533
 1237TIP3    H2 3669   4.095   5.085   6.493
 1238TIP3   OH2 3670   7.045   1.417   5.885
 1238TIP3    H1 3671   7.056   1.484   5.817
 1238TIP3    H2 3672   7.117   1.356   5.870
 1239TIP3   OH2 3673   6.612   5.534   4.830
 1239TIP3    H1 3674   6.645   5.586   4.757
 1239TIP3    H2 3675   6.558   5.595   4.880
 1240TIP3   OH2 3676   6.222   2.754   4.859
 1240TIP3    H1 3677   6.297   2.739   4.801
 1240TIP3    H2 3678   6.149   2.710   4.815
 1241TIP3   OH2 3679   0.553   1.955   0.228
 1241TIP3    H1 3680   0.543   2.037   0.276
 1241TIP3    H2 3681   0.646   1.935   0.233
 1242TIP3   OH2 3682   0.622   7.607   3.310
 1242TIP3    H1 3683   0.712   7.625   3.338
 1242TIP3    H2 3684   0.630   7.536   3.247
 1243TIP3   OH2 3685   2.850   0.061   0.168
 1243TIP3    H1 3686   2.815   0.065   0.257
 1243TIP3    H2 3687   2.944   0.048   0.179
 1244TIP3   OH2 3688   7.055   2.460   0.773
 1244TIP3    H1 3689   7.027   2.516   0.701
 1244TIP3    H2 3690   7.019   2.502   0.851
 1245TIP3   OH2 3691   3.526   1.338   5.139
 1245TIP3    H1 3692   3.495   1.330   5.049
 1245TIP3    H2 3693   3.611   1.294   5.138
 1246TIP3   OH2 3694   6.284   0.207   4.542
 1246TIP3    H1 3695   6.291   0.113   4.529
 1246TIP3    H2 3696   6.294   0.219   4.637
 1247TIP3   OH2 3697   5.169   6.815   2.081
 1247TIP3    H1 3698   5.180   6.733   2.129
 1247TIP3    H2 3699   5.093   6.857   2.123
 1248TIP3   OH2 3700   8.213   5.143   3.852
 1248TIP3    H1 3701   8.257   5.065   3.819
 1248TIP3    H2 3702   8.171   5.115   3.933
 1249TIP3   OH2 3703   2.983   3.208   5.058
 1249TIP3    H1 3704   2.898   3.186   5.096
 1249TIP3    H2 3705   2.985   3.304   5.056
 1250TIP3   OH2 3706   7.160   2.587   3.498
 1250TIP3    H1 3707   7.132   2.678   3.489
 1250TIP3    H2 3708   7.121   2.541   3.424
 1251TIP3   OH2 3709   5.739   3.279   5.726
 1251TIP3    H1 3710   5.722   3.323   5.643
 1251TIP3    H2 3711   5.788   3.344   5.777
 1252TIP3   OH2 3712   1.748   4.471   4.736
 1252TIP3    H1 3713   1.832   4.515   4.720
 1252TIP3    H2 3714   1.758   4.432   4.822
 1253TIP3   OH2 3715   1.497   4.809  -0.002
 1253TIP3    H1 3716   1.591   4.816  -0.020
 1253TIP3    H2 3717   1.490   4.813   0.093
 1254TIP3   OH2 3718   7.488   3.244   6.247
 1254TIP3    H1 3719   7.541   3.166   6.232
 1254TIP3    H2 3720   7.523   3.282   6.328
 1255TIP3   OH2 3721   4.916   3.240   0.246
 1255TIP3    H1 3722   4.878   3.290   0.318
 1255TIP3    H2 3723   5.008   3.266   0.245
 1256TIP3   OH2 3724   7.111   6.960   6.055
 1256TIP3    H1 3725   7.154   6.880   6.024
 1256TIP3    H2 3726   7.073   6.936   6.139
 1257TIP3   OH2 3727   5.910   3.822   6.136
 1257TIP3    H1 3728   5.834   3.852   6.186
 1257TIP3    H2 3729   5.908   3.727   6.145
 1258TIP3   OH2 3730   5.363   4.756   5.404
 1258TIP3    H1 3731   5.380   4.717   5.319
 1258TIP3    H2 3732   5.289   4.816   5.389
 1259TIP3   OH2 3733   4.468   2.529   3.437
 1259TIP3    H1 3734   4.470   2.599   3.502
 1259TIP3    H2 3735   4.501   2.452   3.484
 1260TIP3   OH2 3736   2.584   2.047   1.703
 1260TIP3    H1 3737   2.514   2.110   1.717
 1260TIP3    H2 3738   2.574   2.021   1.611
 1261TIP3   OH2 3739   6.651   5.732   0.802
 1261TIP3    H1 3740   6.702   5.652   0.818
 1261TIP3    H2 3741   6.700   5.801   0.846
 1262TIP3   OH2 3742   5.906   5.227   0.607
 1262TIP3    H1 3743   5.816   5.218   0.638
 1262TIP3    H2 3744   5.951   5.273   0.678
 1263TIP3   OH2 3745   5.675   2.990   1.165
 1263TIP3    H1 3746   5.645   2.910   1.120
 1263TIP3    H2 3747   5.617   2.999   1.240
 1264TIP3   OH2 3748   2.523   5.072   1.802
 1264TIP3    H1 3749   2.597   5.093   1.859
 1264TIP3    H2 3750   2.559   5.076   1.713
 1265TIP3   OH2 3751   6.247   6.743   1.698
 1265TIP3    H1 3752   6.244   6.717   1.606
 1265TIP3    H2 3753   6.274   6.664   1.745
 1266TIP3   OH2 3754   6.882   7.750   4.133
 1266TIP3    H1 3755   6.860   7.808   4.060
 1266TIP3    H2 3756   6.876   7.662   4.096
 1267TIP3   OH2 3757   7.477   0.081   4.430
 1267TIP3    H1 3758   7.407   0.023   4.460
 1267TIP3    H2 3759   7.432   0.154   4.388
 1268TIP3   OH2 3760   1.810   2.925   0.734
 1268TIP3    H1 3761   1.760   2.900   0.812
 1268TIP3    H2 3762   1.889   2.968   0.768
 1269TIP3   OH2 3763   7.169   0.436   3.189
 1269TIP3    H1 3764   7.192   0.529   3.190
 1269TIP3    H2 3765   7.096   0.430   3.126
 1270TIP3   OH2 3766   1.735   1.047   1.462
 1270TIP3    H1 3767   1.656   1.100   1.465
 1270TIP3    H2 3768   1.707   0.965   1.421
 1271TIP3   OH2 3769   0.534   1.316   2.367
 1271TIP3    H1 3770   0.477   1.243   2.391
 1271TIP3    H2 3771   0.622   1.281   2.372
 1272TIP3   OH2 3772   1.818   7.747   1.113
 1272TIP3    H1 3773   1.793   7.672   1.167
 1272TIP3    H2 3774   1.856   7.709   1.035
 1273TIP3   OH2 3775   7.620   0.535   6.253
 1273TIP3    H1 3776   7.609   0.590   6.331
 1273TIP3    H2 3777   7.545   0.476   6.256
 1274TIP3   OH2 3778   3.986   4.678   3.666
 1274TIP3    H1 3779   4.025   4.763   3.645
 1274TIP3    H2 3780   4.055   4.633   3.716
 1275TIP3   OH2 3781   6.407   0.802   6.477
 1275TIP3    H1 3782   6.431   0.772   6.390
 1275TIP3    H2 3783   6.339   0.742   6.506
 1276TIP3   OH2 3784   3.149   4.276   2.863
 1276TIP3    H1 3785   3.173   4.196   2.816
 1276TIP3    H2 3786   3.091   4.323   2.803
 1277TIP3   OH2 3787   2.819   0.221   5.612
 1277TIP3    H1 3788   2.820   0.125   5.621
 1277TIP3    H2 3789   2.899   0.250   5.656
 1278TIP3   OH2 3790   0.399   7.354   2.023
 1278TIP3    H1 3791   0.402   7.449   2.007
 1278TIP3    H2 3792   0.474   7.320   1.974
 1279TIP3   OH2 3793   1.426   1.959   5.578
 1279TIP3    H1 3794   1.441   1.996   5.665
 1279TIP3    H2 3795   1.348   2.005   5.545
 1280TIP3   OH2 3796   0.710   5.460   5.469
 1280TIP3    H1 3797   0.615   5.450   5.468
 1280TIP3    H2 3798   0.726   5.529   5.533
 1281TIP3   OH2 3799   3.197   0.892   4.689
 1281TIP3    H1 3800   3.138   0.873   4.762
 1281TIP3    H2 3801   3.206   0.988   4.689
 1282TIP3   OH2 3802   4.044   3.197   3.651
 1282TIP3    H1 3803   4.092   3.225   3.573
 1282TIP3    H2 3804   4.037   3.276   3.705
 1283TIP3   OH2 3805   8.278   3.924   2.116
 1283TIP3    H1 3806   8.349   3.987   2.125
 1283TIP3    H2 3807   8.287   3.889   2.028
 1284TIP3   OH2 3808   0.343   3.340   4.453
 1284TIP3    H1 3809   0.256   3.360   4.419
 1284TIP3    H2 3810   0.377   3.425   4.483
 1285TIP3   OH2 3811   6.562   4.293   6.033
 1285TIP3    H1 3812   6.615   4.261   6.106
 1285TIP3    H2 3813   6.549   4.386   6.052
 1286TIP3   OH2 3814   1.056   4.566   0.171
 1286TIP3    H1 3815   1.033   4.480   0.136
 1286TIP3    H2 3816   1.088   4.615   0.096
 1287TIP3   OH2 3817   6.971   1.707   4.656
 1287TIP3    H1 3818   7.008   1.636   4.709
 1287TIP3    H2 3819   6.967   1.671   4.567
 1288TIP3   OH2 3820   7.262   1.567   6.541
 1288TIP3    H1 3821   7.339   1.511   6.533
 1288TIP3    H2 3822   7.189   1.507   6.548
 1289TIP3   OH2 3823   2.321   1.574   1.332
 1289TIP3    H1 3824   2.279   1.531   1.407
 1289TIP3    H2 3825   2.266   1.651   1.314
 1290TIP3   OH2 3826   4.147   6.836   6.021
 1290TIP3    H1 3827   4.057   6.821   5.993
 1290TIP3    H2 3828   4.152   6.796   6.108
 1291TIP3   OH2 3829   5.927   5.534   1.873
 1291TIP3    H1 3830   5.893   5.495   1.953
 1291TIP3    H2 3831   5.865   5.604   1.852
 1292TIP3   OH2 3832   7.868   1.593   5.381
 1292TIP3    H1 3833   7.829   1.564   5.298
 1292TIP3    H2 3834   7.808   1.559   5.448
 1293TIP3   OH2 3835   1.565   6.043   3.320
 1293TIP3    H1 3836   1.616   6.087   3.388
 1293TIP3    H2 3837   1.624   5.977   3.284
 1294TIP3   OH2 3838   4.283   4.107   4.528
 1294TIP3    H1 3839   4.324   4.038   4.580
 1294TIP3    H2 3840   4.258   4.173   4.592
 1295TIP3   OH2 3841   4.799   3.902   1.165
 1295TIP3    H1 3842   4.728   3.953   1.126
 1295TIP3    H2 3843   4.761   3.864   1.244
 1296TIP3   OH2 3844   7.966   2.248   3.518
 1296TIP3    H1 3845   8.019   2.314   3.563
 1296TIP3    H2 3846   8.022   2.170   3.517
 1297TIP3   OH2 3847   6.818   2.257   2.571
 1297TIP3    H1 3848   6.795   2.172   2.609
 1297TIP3    H2 3849   6.906   2.275   2.605
 1298TIP3   OH2 3850   7.873   7.693   0.336
 1298TIP3    H1 3851   7.869   7.646   0.419
 1298TIP3    H2 3852   7.871   7.786   0.360
 1299TIP3   OH2 3853   5.603   2.702   6.381
 1299TIP3    H1 3854   5.519   2.660   6.397
 1299TIP3    H2 3855   5.588   2.794   6.400
 1300TIP3   OH2 3856   3.733   2.635   6.226
 1300TIP3    H1 3857   3.665   2.648   6.159
 1300TIP3    H2 3858   3.764   2.723   6.245
 1301TIP3   OH2 3859   2.887   0.331   2.636
 1301TIP3    H1 3860   2.887   0.335   2.731
 1301TIP3    H2 3861   2.801   0.297   2.613
 1302TIP3   OH2 3862   0.485   1.328   1.091
 1302TIP3    H1 3863   0.559   1.277   1.123
 1302TIP3    H2 3864   0.420   1.262   1.067
 1303TIP3   OH2 3865   0.821   5.529   3.567
 1303TIP3    H1 3866   0.862   5.506   3.484
 1303TIP3    H2 3867   0.792   5.445   3.603
 1304TIP3   OH2 3868   3.841   7.279   3.569
 1304TIP3    H1 3869   3.768   7.218   3.557
 1304TIP3    H2 3870   3.836   7.305   3.661
 1305TIP3   OH2 3871   2.063   0.416   6.467
 1305TIP3    H1 3872   2.133   0.469   6.429
 1305TIP3    H2 3873   1.995   0.414   6.400
 1306TIP3   OH2 3874   4.574   0.697   2.863
 1306TIP3    H1 3875   4.537   0.781   2.890
 1306TIP3    H2 3876   4.500   0.651   2.824
 1307TIP3   OH2 3877   3.129   1.831   6.170
 1307TIP3    H1 3878   3.116   1.745   6.129
 1307TIP3    H2 3879   3.169   1.884   6.100
 1308TIP3   OH2 3880   1.136   5.599   5.225
 1308TIP3    H1 3881   1.211   5.654   5.250
 1308TIP3    H2 3882   1.140   5.595   5.130
 1309TIP3   OH2 3883   3.718   1.733   1.450
 1309TIP3    H1 3884   3.802   1.745   1.495
 1309TIP3    H2 3885   3.652   1.744   1.518
 1310TIP3   OH2 3886   1.656   1.999   3.244
 1310TIP3    H1 3887   1.592   1.995   3.173
 1310TIP3    H2 3888   1.611   1.959   3.319
 1311TIP3   OH2 3889   5.608   1.420   2.275
 1311TIP3    H1 3890   5.643   1.348   2.223
 1311TIP3    H2 3891   5.513   1.411   2.266
 1312TIP3   OH2 3892   3.473   3.879   0.294
 1312TIP3    H1 3893   3.478   3.875   0.389
 1312TIP3    H2 3894   3.518   3.960   0.271
 1313TIP3   OH2 3895   1.532   0.481   2.959
 1313TIP3    H1 3896   1.519   0.430   2.880
 1313TIP3    H2 3897   1.617   0.522   2.948
 1314TIP3   OH2 3898   7.889   3.487   2.673
 1314TIP3    H1 3899   7.842   3.422   2.726
 1314TIP3    H2 3900   7.977   3.488   2.710
 1315TIP3   OH2 3901   3.947   3.145   0.342
 1315TIP3    H1 3902   3.909   3.215   0.395
 1315TIP3    H2 3903   3.923   3.168   0.252
 1316TIP3   OH2 3904   4.015   5.690   4.626
 1316TIP3    H1 3905   3.956   5.763   4.612
 1316TIP3    H2 3906   4.100   5.730   4.645
 1317TIP3   OH2 3907   2.144   5.826   0.310
 1317TIP3    H1 3908   2.113   5.748   0.357
 1317TIP3    H2 3909   2.174   5.885   0.379
 1318TIP3   OH2 3910   7.386   0.701   6.488
 1318TIP3    H1 3911   7.432   0.728   6.568
 1318TIP3    H2 3912   7.401   0.606   6.484
 1319TIP3   OH2 3913   4.250   0.148   6.693
 1319TIP3    H1 3914   4.237   0.243   6.696
 1319TIP3    H2 3915   4.212   0.116   6.774
 1320TIP3   OH2 3916   8.182   2.975   4.445
 1320TIP3    H1 3917   8.099   2.999   4.404
 1320TIP3    H2 3918   8.214   3.057   4.484
 1321TIP3   OH2 3919   2.132   3.695   6.562
 1321TIP3    H1 3920   2.169   3.751   6.494
 1321TIP3    H2 3921   2.207   3.645   6.595
 1322TIP3   OH2 3922   5.697   7.678   3.061
 1322TIP3    H1 3923   5.719   7.606   3.003
 1322TIP3    H2 3924   5.700   7.640   3.149
 1323TIP3   OH2 3925   0.919   5.619   3.989
 1323TIP3    H1 3926   0.968   5.546   3.952
 1323TIP3    H2 3927   0.985   5.683   4.016
 1324TIP3   OH2 3928   3.419   5.522   3.097
 1324TIP3    H1 3929   3.470   5.591   3.140
 1324TIP3    H2 3930   3.468   5.502   3.018
 1325TIP3   OH2 3931   1.285   6.178   2.453
 1325TIP3    H1 3932   1.246   6.263   2.471
 1325TIP3    H2 3933   1.288   6.134   2.538
 1326TIP3   OH2 3934   4.821   5.539   0.417
 1326TIP3    H1 3935   4.851   5.584   0.496
 1326TIP3    H2 3936   4.749   5.483   0.446
 1327TIP3   OH2 3937   0.967   7.646   4.864
 1327TIP3    H1 3938   0.950   7.730   4.821
 1327TIP3    H2 3939   0.978   7.584   4.792
 1328TIP3   OH2 3940   6.240   6.732   5.372
 1328TIP3    H1 3941   6.181   6.807   5.384
 1328TIP3    H2 3942   6.316   6.769   5.326
 1329TIP3   OH2 3943   7.905   7.638   0.626
 1329TIP3    H1 3944   7.943   7.724   0.646
 1329TIP3    H2 3945   7.848   7.619   0.700
 1330TIP3   OH2 3946   3.615   5.290   0.753
 1330TIP3    H1 3947   3.553   5.282   0.680
 1330TIP3    H2 3948   3.573   5.243   0.825
 1331TIP3   OH2 3949   3.416   0.663   6.233
 1331TIP3    H1 3950   3.404   0.595   6.300
 1331TIP3    H2 3951   3.504   0.697   6.250
 1332TIP3   OH2 3952   6.429   1.118   1.344
 1332TIP3    H1 3953   6.485   1.165   1.282
 1332TIP3    H2 3954   6.349   1.100   1.294
 1333TIP3   OH2 3955   1.767   7.026   4.549
 1333TIP3    H1 3956   1.709   6.978   4.609
 1333TIP3    H2 3957   1.711   7.094   4.511
 1334TIP3   OH2 3958   3.746   3.368   2.610
 1334TIP3    H1 3959   3.682   3.409   2.669
 1334TIP3    H2 3960   3.792   3.442   2.570
 1335TIP3   OH2 3961   1.734   2.494   3.768
 1335TIP3    H1 3962   1.759   2.403   3.752
 1335TIP3    H2 3963   1.739   2.505   3.863
 1336TIP3   OH2 3964   1.824   6.756   2.605
 1336TIP3    H1 3965   1.825   6.716   2.518
 1336TIP3    H2 3966   1.854   6.686   2.663
 1337TIP3   OH2 3967   1.712   5.802   4.369
 1337TIP3    H1 3968   1.741   5.761   4.450
 1337TIP3    H2 3969   1.720   5.733   4.303
 1338TIP3   OH2 3970   6.423   5.507   2.414
 1338TIP3    H1 3971   6.432   5.551   2.329
 1338TIP3    H2 3972   6.389   5.420   2.393
 1339TIP3   OH2 3973   3.798   1.385   4.803
 1339TIP3    H1 3974   3.719   1.431   4.776
 1339TIP3    H2 3975   3.860   1.399   4.731
 1340TIP3   OH2 3976   1.804   5.341   5.744
 1340TIP3    H1 3977   1.874   5.394   5.779
 1340TIP3    H2 3978   1.766   5.395   5.674
 1341TIP3   OH2 3979   2.982   2.628   6.496
 1341TIP3    H1 3980   3.065   2.621   6.449
 1341TIP3    H2 3981   2.918   2.583   6.440
 1342TIP3   OH2 3982   5.485   7.721   0.530
 1342TIP3    H1 3983   5.530   7.764   0.458
 1342TIP3    H2 3984   5.549   7.658   0.565
 1343TIP3   OH2 3985   6.281   7.838   0.263
 1343TIP3    H1 3986   6.359   7.805   0.218
 1343TIP3    H2 3987   6.261   7.773   0.329
 1344TIP3   OH2 3988   4.161   3.743   0.339
 1344TIP3    H1 3989   4.182   3.829   0.375
 1344TIP3    H2 3990   4.106   3.761   0.263
 1345TIP3   OH2 3991   4.100   3.837   6.723
 1345TIP3    H1 3992   4.193   3.831   6.745
 1345TIP3    H2 3993   4.055   3.788   6.792
 1346TIP3   OH2 3994   0.107   0.256   1.405
 1346TIP3    H1 3995   0.129   0.202   1.481
 1346TIP3    H2 3996   0.144   0.209   1.331
 1347TIP3   OH2 3997   4.496   6.179   5.435
 1347TIP3    H1 3998   4.529   6.243   5.497
 1347TIP3    H2 3999   4.482   6.228   5.354
 1348TIP3   OH2 4000   0.257   2.654   5.339
 1348TIP3    H1 4001   0.172   2.625   5.306
 1348TIP3    H2 4002   0.287   2.717   5.273
 1349TIP3   OH2 4003   0.862   1.746   0.134
 1349TIP3    H1 4004   0.899   1.833   0.153
 1349TIP3    H2 4005   0.923   1.709   0.070
 1350TIP3   OH2 4006   5.754   4.020   3.880
 1350TIP3    H1 4007   5.735   4.101   3.927
 1350TIP3    H2 4008   5.696   3.955   3.919
 1351TIP3   OH2 4009   2.959   6.455   5.147
 1351TIP3    H1 4010   2.942   6.482   5.056
 1351TIP3    H2 4011   2.983   6.362   5.140
 1352TIP3   OH2 4012   6.573   1.108   3.407
 1352TIP3    H1 4013   6.667   1.104   3.425
 1352TIP3    H2 4014   6.535   1.154   3.482
 1353TIP3   OH2 4015   1.169   7.378   4.580
 1353TIP3    H1 4016   1.243   7.367   4.639
 1353TIP3    H2 4017   1.204   7.363   4.492
 1354TIP3   OH2 4018   2.993   1.486   3.999
 1354TIP3    H1 4019   3.051   1.529   3.936
 1354TIP3    H2 4020   3.050   1.465   4.073
 1355TIP3   OH2 4021   5.751   4.290   2.170
 1355TIP3    H1 4022   5.665   4.268   2.206
 1355TIP3    H2 4023   5.812   4.239   2.223
 1356TIP3   OH2 4024   4.641   4.626   2.432
 1356TIP3    H1 4025   4.702   4.642   2.360
 1356TIP3    H2 4026   4.696   4.629   2.511
 1357TIP3   OH2 4027   2.472   1.833   2.868
 1357TIP3    H1 4028   2.538   1.902   2.858
 1357TIP3    H2 4029   2.510   1.774   2.933
 1358TIP3   OH2 4030   6.183   0.861   6.173
 1358TIP3    H1 4031   6.148   0.949   6.159
 1358TIP3    H2 4032   6.161   0.840   6.264
 1359TIP3   OH2 4033   4.283   1.881   3.895
 1359TIP3    H1 4034   4.194   1.849   3.879
 1359TIP3    H2 4035   4.288   1.964   3.848
 1360TIP3   OH2 4036   4.022   3.009   5.005
 1360TIP3    H1 4037   3.992   3.099   5.014
 1360TIP3    H2 4038   3.944   2.956   5.016
 1361TIP3   OH2 4039   2.337   6.817   1.818
 1361TIP3    H1 4040   2.404   6.853   1.876
 1361TIP3    H2 4041   2.319   6.888   1.756
 1362TIP3   OH2 4042   3.996   2.559   6.528
 1362TIP3    H1 4043   4.014   2.606   6.447
 1362TIP3    H2 4044   3.926   2.498   6.506
 1363TIP3   OH2 4045   2.730   3.385   5.826
 1363TIP3    H1 4046   2.731   3.471   5.785
 1363TIP3    H2 4047   2.726   3.323   5.753
 1364TIP3   OH2 4048   0.282   2.547   6.188
 1364TIP3    H1 4049   0.271   2.510   6.101
 1364TIP3    H2 4050   0.228   2.491   6.245
 1365TIP3   OH2 4051   2.137   6.903   6.671
 1365TIP3    H1 4052   2.182   6.907   6.756
 1365TIP3    H2 4053   2.189   6.958   6.613
 1366TIP3   OH2 4054   5.431   7.007   1.859
 1366TIP3    H1 4055   5.511   6.989   1.909
 1366TIP3    H2 4056   5.389   6.922   1.850
 1367TIP3   OH2 4057   2.253   2.229   2.211
 1367TIP3    H1 4058   2.327   2.287   2.198
 1367TIP3    H2 4059   2.289   2.156   2.262
 1368TIP3   OH2 4060   6.677   1.963   3.742
 1368TIP3    H1 4061   6.626   1.949   3.822
 1368TIP3    H2 4062   6.623   2.019   3.687
 1369TIP3   OH2 4063   0.495   7.292   3.394
 1369TIP3    H1 4064   0.463   7.362   3.450
 1369TIP3    H2 4065   0.512   7.219   3.453
 1370TIP3   OH2 4066   6.071   4.641   1.312
 1370TIP3    H1 4067   5.981   4.624   1.339
 1370TIP3    H2 4068   6.069   4.728   1.274
 1371TIP3   OH2 4069   3.515   1.368   0.631
 1371TIP3    H1 4070   3.485   1.282   0.660
 1371TIP3    H2 4071   3.566   1.401   0.705
 1372TIP3   OH2 4072   3.673   1.154   1.211
 1372TIP3    H1 4073   3.588   1.127   1.177
 1372TIP3    H2 4074   3.655   1.233   1.262
 1373TIP3   OH2 4075   1.343   7.586   0.746
 1373TIP3    H1 4076   1.261   7.629   0.723
 1373TIP3    H2 4077   1.397   7.656   0.783
 1374TIP3   OH2 4078   2.481   1.474   0.901
 1374TIP3    H1 4079   2.451   1.410   0.837
 1374TIP3    H2 4080   2.521   1.421   0.970
 1375TIP3   OH2 4081   3.786   2.134   3.090
 1375TIP3    H1 4082   3.694   2.130   3.114
 1375TIP3    H2 4083   3.829   2.173   3.166
 1376TIP3   OH2 4084   2.979   2.286   4.258
 1376TIP3    H1 4085   3.023   2.203   4.237
 1376TIP3    H2 4086   3.037   2.353   4.223
 1377TIP3   OH2 4087   6.029   4.667   2.990
 1377TIP3    H1 4088   6.065   4.578   2.996
 1377TIP3    H2 4089   6.005   4.677   2.898
 1378TIP3   OH2 4090   5.659   3.373   6.198
 1378TIP3    H1 4091   5.627   3.399   6.284
 1378TIP3    H2 4092   5.713   3.295   6.215
 1379TIP3   OH2 4093   0.463   2.683   3.532
 1379TIP3    H1 4094   0.489   2.772   3.508
 1379TIP3    H2 4095   0.488   2.629   3.457
 1380TIP3   OH2 4096   5.248   2.519   4.434
 1380TIP3    H1 4097   5.177   2.525   4.370
 1380TIP3    H2 4098   5.264   2.426   4.443
 1381TIP3   OH2 4099   0.918   2.113   3.082
 1381TIP3    H1 4100   0.877   2.196   3.106
 1381TIP3    H2 4101   0.961   2.131   2.998
 1382TIP3   OH2 4102   5.058   2.785   6.294
 1382TIP3    H1 4103   5.005   2.789   6.374
 1382TIP3    H2 4104   5.043   2.870   6.252
 1383TIP3   OH2 4105   7.124   4.599   4.115
 1383TIP3    H1 4106   7.047   4.553   4.083
 1383TIP3    H2 4107   7.111   4.605   4.210
 1384TIP3   OH2 4108   4.746   5.250   4.578
 1384TIP3    H1 4109   4.702   5.220   4.499
 1384TIP3    H2 4110   4.778   5.170   4.619
 1385TIP3   OH2 4111   4.837   6.612   5.457
 1385TIP3    H1 4112   4.748   6.638   5.434
 1385TIP3    H2 4113   4.838   6.517   5.446
 1386TIP3   OH2 4114   2.100   0.860   0.532
 1386TIP3    H1 4115   2.166   0.909   0.581
 1386TIP3    H2 4116   2.116   0.884   0.440
 1387TIP3   OH2 4117   1.302   7.126   5.473
 1387TIP3    H1 4118   1.320   7.200   5.531
 1387TIP3    H2 4119   1.345   7.051   5.513
 1388TIP3   OH2 4120   1.440   2.296   4.888
 1388TIP3    H1 4121   1.434   2.390   4.904
 1388TIP3    H2 4122   1.514   2.266   4.941
 1389TIP3   OH2 4123   6.447   1.297   2.803
 1389TIP3    H1 4124   6.392   1.241   2.857
 1389TIP3    H2 4125   6.389   1.328   2.733
 1390TIP3   OH2 4126   0.737   5.074   2.469
 1390TIP3    H1 4127   0.650   5.037   2.457
 1390TIP3    H2 4128   0.783   5.055   2.387
 1391TIP3   OH2 4129   3.562   7.245   6.729
 1391TIP3    H1 4130   3.570   7.200   6.645
 1391TIP3    H2 4131   3.554   7.337   6.707
 1392TIP3   OH2 4132   5.314   1.801   0.955
 1392TIP3    H1 4133   5.395   1.750   0.962
 1392TIP3    H2 4134   5.254   1.760   1.017
 1393TIP3   OH2 4135   6.255   5.630   2.652
 1393TIP3    H1 4136   6.226   5.561   2.592
 1393TIP3    H2 4137   6.185   5.695   2.650
 1394TIP3   OH2 4138   6.504   3.004   5.386
 1394TIP3    H1 4139   6.583   2.982   5.337
 1394TIP3    H2 4140   6.533   3.009   5.477
 1395TIP3   OH2 4141   8.003   0.181   0.729
 1395TIP3    H1 4142   8.031   0.094   0.757
 1395TIP3    H2 4143   8.084   0.231   0.723
 1396TIP3   OH2 4144   1.526   5.006   1.284
 1396TIP3    H1 4145   1.460   5.034   1.221
 1396TIP3    H2 4146   1.588   5.078   1.288
 1397TIP3   OH2 4147   5.948   5.130   3.193
 1397TIP3    H1 4148   5.989   5.059   3.242
 1397TIP3    H2 4149   5.854   5.120   3.208
 1398TIP3   OH2 4150   1.635   7.716   5.904
 1398TIP3    H1 4151   1.596   7.629   5.897
 1398TIP3    H2 4152   1.561   7.776   5.905
 1399TIP3   OH2 4153   6.940   7.566   4.710
 1399TIP3    H1 4154   6.886   7.546   4.634
 1399TIP3    H2 4155   6.877   7.573   4.782
 1400TIP3   OH2 4156   6.554   7.602   5.761
 1400TIP3    H1 4157   6.525   7.529   5.815
 1400TIP3    H2 4158   6.476   7.655   5.747
 1401TIP3   OH2 4159   7.891   1.470   3.948
 1401TIP3    H1 4160   7.840   1.409   4.001
 1401TIP3    H2 4161   7.831   1.497   3.878
 1402TIP3   OH2 4162   0.843   4.832   2.586
 1402TIP3    H1 4163   0.917   4.839   2.526
 1402TIP3    H2 4164   0.799   4.917   2.579
 1403TIP3   OH2 4165   4.592   2.135   3.684
 1403TIP3    H1 4166   4.572   2.042   3.697
 1403TIP3    H2 4167   4.654   2.156   3.754
 1404TIP3   OH2 4168   1.433   5.082   4.277
 1404TIP3    H1 4169   1.519   5.054   4.246
 1404TIP3    H2 4170   1.451   5.130   4.357
 1405TIP3   OH2 4171   1.561   6.205   6.616
 1405TIP3    H1 4172   1.651   6.191   6.647
 1405TIP3    H2 4173   1.539   6.294   6.644
 1406TIP3   OH2 4174   6.469   2.451   2.809
 1406TIP3    H1 4175   6.391   2.409   2.773
 1406TIP3    H2 4176   6.455   2.544   2.794
 1407TIP3   OH2 4177   7.493   3.955   2.535
 1407TIP3    H1 4178   7.401   3.974   2.517
 1407TIP3    H2 4179   7.501   3.861   2.521
 1408TIP3   OH2 4180   6.857   5.998   4.182
 1408TIP3    H1 4181   6.886   6.089   4.185
 1408TIP3    H2 4182   6.762   6.003   4.176
 1409TIP3   OH2 4183   6.575   1.931   0.889
 1409TIP3    H1 4184   6.609   1.872   0.821
 1409TIP3    H2 4185   6.629   1.914   0.966
 1410TIP3   OH2 4186   7.602   4.236   6.620
 1410TIP3    H1 4187   7.550   4.217   6.542
 1410TIP3    H2 4188   7.655   4.157   6.633
 1411TIP3   OH2 4189   4.925   4.837   3.824
 1411TIP3    H1 4190   5.001   4.781   3.840
 1411TIP3    H2 4191   4.870   4.825   3.901
 1412TIP3   OH2 4192   5.523   3.056   1.387
 1412TIP3    H1 4193   5.449   3.098   1.344
 1412TIP3    H2 4194   5.531   3.101   1.471
 1413TIP3   OH2 4195   7.290   3.681   5.249
 1413TIP3    H1 4196   7.273   3.742   5.177
 1413TIP3    H2 4197   7.203   3.665   5.287
 1414TIP3   OH2 4198   7.762   0.220   5.609
 1414TIP3    H1 4199   7.669   0.199   5.601
 1414TIP3    H2 4200   7.801   0.186   5.528
 1415TIP3   OH2 4201   8.001   0.880   0.860
 1415TIP3    H1 4202   7.997   0.785   0.872
 1415TIP3    H2 4203   8.001   0.916   0.949
 1416TIP3   OH2 4204   2.157   4.530   5.936
 1416TIP3    H1 4205   2.130   4.439   5.947
 1416TIP3    H2 4206   2.240   4.537   5.984
 1417TIP3   OH2 4207   0.168   0.665   2.867
 1417TIP3    H1 4208   0.227   0.662   2.943
 1417TIP3    H2 4209   0.173   0.756   2.838
 1418TIP3   OH2 4210   7.541   7.530   0.183
 1418TIP3    H1 4211   7.469   7.482   0.225
 1418TIP3    H2 4212   7.497   7.594   0.126
 1419TIP3   OH2 4213   5.743   4.552   2.440
 1419TIP3    H1 4214   5.679   4.542   2.370
 1419TIP3    H2 4215   5.768   4.644   2.437
 1420TIP3   OH2 4216   4.732   4.891   5.393
 1420TIP3    H1 4217   4.795   4.824   5.422
 1420TIP3    H2 4218   4.718   4.871   5.300
 1421TIP3   OH2 4219   0.902   0.207   5.616
 1421TIP3    H1 4220   0.935   0.143   5.553
 1421TIP3    H2 4221   0.925   0.292   5.579
 1422TIP3   OH2 4222   3.223   6.631   4.939
 1422TIP3    H1 4223   3.318   6.640   4.944
 1422TIP3    H2 4224   3.204   6.633   4.846
 1423TIP3   OH2 4225   2.790   3.635   5.721
 1423TIP3    H1 4226   2.792   3.622   5.626
 1423TIP3    H2 4227   2.878   3.611   5.751
 1424TIP3   OH2 4228   3.378   2.293   4.249
 1424TIP3    H1 4229   3.371   2.210   4.297
 1424TIP3    H2 4230   3.447   2.277   4.184
 1425TIP3   OH2 4231   2.292   0.564   6.358
 1425TIP3    H1 4232   2.371   0.559   6.305
 1425TIP3    H2 4233   2.256   0.651   6.340
 1426TIP3   OH2 4234   7.876   6.981   0.776
 1426TIP3    H1 4235   7.798   6.931   0.799
 1426TIP3    H2 4236   7.948   6.937   0.822
 1427TIP3   OH2 4237   0.020   0.273   2.740
 1427TIP3    H1 4238  -0.009   0.296   2.828
 1427TIP3    H2 4239   0.077   0.344   2.713
 1428TIP3   OH2 4240   4.415   3.478   1.858
 1428TIP3    H1 4241   4.333   3.468   1.907
 1428TIP3    H2 4242   4.388   3.472   1.766
 1429TIP3   OH2 4243   1.988   6.148   1.508
 1429TIP3    H1 4244   2.076   6.181   1.488
 1429TIP3    H2 4245   1.985   6.062   1.467
 1430TIP3   OH2 4246   2.548   2.959   4.143
 1430TIP3    H1 4247   2.604   2.957   4.220
 1430TIP3    H2 4248   2.494   2.880   4.150
 1431TIP3   OH2 4249   7.531   2.583   1.645
 1431TIP3    H1 4250   7.584   2.549   1.572
 1431TIP3    H2 4251   7.586   2.651   1.684
 1432TIP3   OH2 4252   7.999   1.410   2.730
 1432TIP3    H1 4253   7.997   1.389   2.637
 1432TIP3    H2 4254   8.017   1.327   2.773
 1433TIP3   OH2 4255   1.201   7.714   0.320
 1433TIP3    H1 4256   1.120   7.701   0.271
 1433TIP3    H2 4257   1.186   7.671   0.404
 1434TIP3   OH2 4258   3.629   1.666   2.707
 1434TIP3    H1 4259   3.620   1.630   2.619
 1434TIP3    H2 4260   3.540   1.669   2.741
 1435TIP3   OH2 4261   7.763   0.543   6.657
 1435TIP3    H1 4262   7.755   0.618   6.599
 1435TIP3    H2 4263   7.826   0.485   6.613
 1436TIP3   OH2 4264   7.181   5.198   5.553
 1436TIP3    H1 4265   7.196   5.108   5.579
 1436TIP3    H2 4266   7.087   5.213   5.566
 1437TIP3   OH2 4267   7.868   3.332   6.795
 1437TIP3    H1 4268   7.897   3.403   6.738
 1437TIP3    H2 4269   7.942   3.317   6.854
 1438TIP3   OH2 4270   7.526   6.971  -0.023
 1438TIP3    H1 4271   7.439   6.976   0.016
 1438TIP3    H2 4272   7.555   7.062  -0.029
 1439TIP3   OH2 4273   4.535   2.806   2.816
 1439TIP3    H1 4274   4.506   2.891   2.783
 1439TIP3    H2 4275   4.465   2.778   2.875
 1440TIP3   OH2 4276   3.473   7.487   6.396
 1440TIP3    H1 4277   3.422   7.522   6.323
 1440TIP3    H2 4278   3.455   7.393   6.395
 1441TIP3   OH2 4279   2.573   5.313   5.456
 1441TIP3    H1 4280   2.513   5.238   5.448
 1441TIP3    H2 4281   2.615   5.301   5.541
 1442TIP3   OH2 4282   6.432   5.064   5.700
 1442TIP3    H1 4283   6.397   5.091   5.615
 1442TIP3    H2 4284   6.382   5.114   5.764
 1443TIP3   OH2 4285   4.566   7.428   4.689
 1443TIP3    H1 4286   4.606   7.406   4.605
 1443TIP3    H2 4287   4.484   7.378   4.691
 1444TIP3   OH2 4288   7.940   6.995   2.254
 1444TIP3    H1 4289   8.012   6.980   2.316
 1444TIP3    H2 4290   7.969   6.953   2.173
 1445TIP3   OH2 4291   7.397   1.220   3.811
 1445TIP3    H1 4292   7.454   1.164   3.758
 1445TIP3    H2 4293   7.351   1.160   3.869
 1446TIP3   OH2 4294   2.428   7.252   1.672
 1446TIP3    H1 4295   2.460   7.320   1.613
 1446TIP3    H2 4296   2.430   7.293   1.759
 1447TIP3   OH2 4297   6.302   6.703   1.064
 1447TIP3    H1 4298   6.332   6.750   0.986
 1447TIP3    H2 4299   6.310   6.611   1.042
 1448TIP3   OH2 4300   0.967   6.991   3.691
 1448TIP3    H1 4301   0.873   6.986   3.707
 1448TIP3    H2 4302   0.997   7.062   3.748
 1449TIP3   OH2 4303   4.412   1.543   5.042
 1449TIP3    H1 4304   4.342   1.486   5.075
 1449TIP3    H2 4305   4.367   1.600   4.980
 1450TIP3   OH2 4306   4.529   2.271   6.094
 1450TIP3    H1 4307   4.514   2.234   6.181
 1450TIP3    H2 4308   4.444   2.262   6.050
 1451TIP3   OH2 4309   4.820   5.138   0.570
 1451TIP3    H1 4310   4.743   5.130   0.626
 1451TIP3    H2 4311   4.847   5.048   0.552
 1452TIP3   OH2 4312   2.263   5.927   1.584
 1452TIP3    H1 4313   2.188   5.886   1.541
 1452TIP3    H2 4314   2.224   5.977   1.656
 1453TIP3   OH2 4315   4.673   7.058   2.231
 1453TIP3    H1 4316   4.729   7.132   2.255
 1453TIP3    H2 4317   4.589   7.098   2.207
 1454TIP3   OH2 4318   2.188   3.863   6.360
 1454TIP3    H1 4319   2.254   3.814   6.311
 1454TIP3    H2 4320   2.165   3.936   6.303
 1455TIP3   OH2 4321   6.846   5.676   5.336
 1455TIP3    H1 4322   6.758   5.701   5.365
 1455TIP3    H2 4323   6.838   5.583   5.314
 1456TIP3   OH2 4324   2.448   7.539   2.308
 1456TIP3    H1 4325   2.522   7.529   2.368
 1456TIP3    H2 4326   2.393   7.462   2.325
 1457TIP3   OH2 4327   1.401   7.834   4.233
 1457TIP3    H1 4328   1.445   7.797   4.309
 1457TIP3    H2 4329   1.308   7.814   4.248
 1458TIP3   OH2 4330   4.834   2.463   3.515
 1458TIP3    H1 4331   4.895   2.440   3.585
 1458TIP3    H2 4332   4.889   2.477   3.438
 1459TIP3   OH2 4333   7.748   6.437   3.780
 1459TIP3    H1 4334   7.733   6.347   3.810
 1459TIP3    H2 4335   7.663   6.480   3.790
 1460TIP3   OH2 4336   6.227   3.715   3.538
 1460TIP3    H1 4337   6.300   3.689   3.480
 1460TIP3    H2 4338   6.183   3.633   3.558
 1461TIP3   OH2 4339   8.162   0.601   5.976
 1461TIP3    H1 4340   8.166   0.685   5.930
 1461TIP3    H2 4341   8.078   0.564   5.951
 1462TIP3   OH2 4342   3.522   3.049   3.915
 1462TIP3    H1 4343   3.436   3.088   3.929
 1462TIP3    H2 4344   3.584   3.116   3.942
 1463TIP3   OH2 4345   8.011   6.057   2.395
 1463TIP3    H1 4346   8.066   5.985   2.425
 1463TIP3    H2 4347   8.062   6.098   2.325
 1464TIP3   OH2 4348   3.274   4.178   3.472
 1464TIP3    H1 4349   3.214   4.103   3.461
 1464TIP3    H2 4350   3.222   4.243   3.519
 1465TIP3   OH2 4351   3.848   0.816   3.215
 1465TIP3    H1 4352   3.914   0.779   3.156
 1465TIP3    H2 4353   3.831   0.903   3.181
 1466TIP3   OH2 4354   7.977   3.045   0.508
 1466TIP3    H1 4355   8.032   3.122   0.526
 1466TIP3    H2 4356   7.906   3.080   0.454
 1467TIP3   OH2 4357   0.337   7.335   3.145
 1467TIP3    H1 4358   0.349   7.276   3.220
 1467TIP3    H2 4359   0.329   7.422   3.184
 1468TIP3   OH2 4360   8.040   4.187   4.650
 1468TIP3    H1 4361   7.948   4.160   4.644
 1468TIP3    H2 4362   8.082   4.116   4.699
 1469TIP3   OH2 4363   8.044   7.587   5.032
 1469TIP3    H1 4364   8.042   7.650   5.105
 1469TIP3    H2 4365   8.123   7.611   4.983
 1470TIP3   OH2 4366   7.404   1.923   6.700
 1470TIP3    H1 4367   7.476   1.955   6.755
 1470TIP3    H2 4368   7.354   1.865   6.758
 1471TIP3   OH2 4369   6.435   7.446   6.422
 1471TIP3    H1 4370   6.511   7.412   6.469
 1471TIP3    H2 4371   6.471   7.477   6.338
 1472TIP3   OH2 4372   2.181   3.628   3.615
 1472TIP3    H1 4373   2.145   3.579   3.542
 1472TIP3    H2 4374   2.203   3.562   3.681
 1473TIP3   OH2 4375   0.680   6.803   6.470
 1473TIP3    H1 4376   0.745   6.737   6.494
 1473TIP3    H2 4377   0.723   6.887   6.489
 1474TIP3   OH2 4378   6.309   1.546   0.780
 1474TIP3    H1 4379   6.331   1.520   0.691
 1474TIP3    H2 4380   6.391   1.578   0.818
 1475TIP3   OH2 4381   0.832   4.868   1.551
 1475TIP3    H1 4382   0.916   4.827   1.572
 1475TIP3    H2 4383   0.769   4.827   1.611
 1476TIP3   OH2 4384   3.885   2.228   1.941
 1476TIP3    H1 4385   3.940   2.239   2.019
 1476TIP3    H2 4386   3.943   2.246   1.867
 1477TIP3   OH2 4387   0.206   2.063   0.609
 1477TIP3    H1 4388   0.191   2.036   0.700
 1477TIP3    H2 4389   0.122   2.100   0.581
 1478TIP3   OH2 4390   6.419   1.547   1.859
 1478TIP3    H1 4391   6.328   1.529   1.883
 1478TIP3    H2 4392   6.447   1.468   1.813
 1479TIP3   OH2 4393   0.062   2.670   2.477
 1479TIP3    H1 4394   0.055   2.593   2.420
 1479TIP3    H2 4395  -0.027   2.685   2.508
 1480TIP3   OH2 4396   6.067   3.953   3.562
 1480TIP3    H1 4397   6.017   3.990   3.489
 1480TIP3    H2 4398   6.133   3.898   3.521
 1481TIP3   OH2 4399   5.808   4.758   1.869
 1481TIP3    H1 4400   5.829   4.728   1.781
 1481TIP3    H2 4401   5.830   4.685   1.926
 1482TIP3   OH2 4402   7.133   1.896   4.076
 1482TIP3    H1 4403   7.078   1.930   4.147
 1482TIP3    H2 4404   7.095   1.933   3.997
 1483TIP3   OH2 4405   0.937   5.151   5.630
 1483TIP3    H1 4406   0.870   5.217   5.649
 1483TIP3    H2 4407   0.893   5.067   5.641
 1484TIP3   OH2 4408   4.154   1.893   1.726
 1484TIP3    H1 4409   4.090   1.963   1.710
 1484TIP3    H2 4410   4.115   1.815   1.687
 1485TIP3   OH2 4411   2.864   6.300   1.735
 1485TIP3    H1 4412   2.794   6.346   1.781
 1485TIP3    H2 4413   2.887   6.359   1.663
 1486TIP3   OH2 4414   0.410   1.807   3.588
 1486TIP3    H1 4415   0.335   1.808   3.647
 1486TIP3    H2 4416   0.476   1.861   3.632
 1487TIP3   OH2 4417   4.915   7.002   5.354
 1487TIP3    H1 4418   5.005   7.035   5.361
 1487TIP3    H2 4419   4.866   7.053   5.418
 1488TIP3   OH2 4420   2.436   1.549   2.250
 1488TIP3    H1 4421   2.457   1.579   2.162
 1488TIP3    H2 4422   2.492   1.602   2.307
 1489TIP3   OH2 4423   3.272   0.703   2.236
 1489TIP3    H1 4424   3.254   0.782   2.286
 1489TIP3    H2 4425   3.195   0.648   2.248
 1490TIP3   OH2 4426   0.929   0.540   5.976
 1490TIP3    H1 4427   0.900   0.559   5.887
 1490TIP3    H2 4428   0.974   0.456   5.969
 1491TIP3   OH2 4429   2.349   3.520   0.505
 1491TIP3    H1 4430   2.358   3.587   0.572
 1491TIP3    H2 4431   2.348   3.437   0.553
 1492TIP3   OH2 4432   6.239   7.351   0.682
 1492TIP3    H1 4433   6.153   7.389   0.665
 1492TIP3    H2 4434   6.291   7.425   0.714
 1493TIP3   OH2 4435   0.994   3.493   2.710
 1493TIP3    H1 4436   0.990   3.451   2.796
 1493TIP3    H2 4437   0.905   3.527   2.697
 1494TIP3   OH2 4438   0.595   7.168   2.552
 1494TIP3    H1 4439   0.620   7.125   2.471
 1494TIP3    H2 4440   0.500   7.157   2.557
 1495TIP3   OH2 4441   4.569   0.349   5.755
 1495TIP3    H1 4442   4.486   0.396   5.763
 1495TIP3    H2 4443   4.556   0.269   5.806
 1496TIP3   OH2 4444   7.503   6.666   2.197
 1496TIP3    H1 4445   7.468   6.684   2.110
 1496TIP3    H2 4446   7.568   6.734   2.212
 1497TIP3   OH2 4447   7.163   0.514   2.719
 1497TIP3    H1 4448   7.189   0.561   2.799
 1497TIP3    H2 4449   7.070   0.533   2.710
 1498TIP3   OH2 4450   7.036   6.818   3.400
 1498TIP3    H1 4451   7.130   6.817   3.381
 1498TIP3    H2 4452   7.025   6.748   3.464
 1499TIP3   OH2 4453   5.342   2.900   1.747
 1499TIP3    H1 4454   5.337   2.827   1.810
 1499TIP3    H2 4455   5.256   2.941   1.752
 1500TIP3   OH2 4456   6.789   4.377   0.597
 1500TIP3    H1 4457   6.804   4.286   0.571
 1500TIP3    H2 4458   6.839   4.428   0.533
 1501TIP3   OH2 4459   6.945   5.355   2.219
 1501TIP3    H1 4460   7.032   5.323   2.196
 1501TIP3    H2 4461   6.915   5.404   2.143
 1502TIP3   OH2 4462   3.736   6.486   6.733
 1502TIP3    H1 4463   3.790   6.553   6.691
 1502TIP3    H2 4464   3.792   6.409   6.738
 1503TIP3   OH2 4465   0.033   3.480   4.602
 1503TIP3    H1 4466   0.082   3.437   4.672
 1503TIP3    H2 4467   0.094   3.543   4.565
 1504TIP3   OH2 4468   1.837   1.513   1.341
 1504TIP3    H1 4469   1.825   1.607   1.332
 1504TIP3    H2 4470   1.893   1.503   1.417
 1505TIP3   OH2 4471   2.856   6.597   2.547
 1505TIP3    H1 4472   2.840   6.563   2.636
 1505TIP3    H2 4473   2.898   6.524   2.501
 1506TIP3   OH2 4474   8.101   2.483   6.115
 1506TIP3    H1 4475   8.181   2.534   6.125
 1506TIP3    H2 4476   8.119   2.424   6.041
 1507TIP3   OH2 4477   6.534   1.085   5.152
 1507TIP3    H1 4478   6.565   1.137   5.079
 1507TIP3    H2 4479   6.550   0.994   5.126
 1508TIP3   OH2 4480   2.762   1.402   0.769
 1508TIP3    H1 4481   2.718   1.389   0.853
 1508TIP3    H2 4482   2.843   1.352   0.776
 1509TIP3   OH2 4483   5.761   5.508   4.636
 1509TIP3    H1 4484   5.808   5.446   4.692
 1509TIP3    H2 4485   5.694   5.456   4.593
 1510TIP3   OH2 4486   6.119   7.609   2.366
 1510TIP3    H1 4487   6.162   7.589   2.282
 1510TIP3    H2 4488   6.053   7.541   2.375
 1511TIP3   OH2 4489   8.210   6.308   6.758
 1511TIP3    H1 4490   8.258   6.390   6.772
 1511TIP3    H2 4491   8.142   6.331   6.695
 1512TIP3   OH2 4492   4.001   0.572   2.198
 1512TIP3    H1 4493   4.038   0.626   2.268
 1512TIP3    H2 4494   3.965   0.495   2.243
 1513TIP3   OH2 4495   3.723   4.669   1.346
 1513TIP3    H1 4496   3.688   4.716   1.270
 1513TIP3    H2 4497   3.818   4.680   1.339
 1514TIP3   OH2 4498   1.431   7.496   3.198
 1514TIP3    H1 4499   1.513   7.538   3.223
 1514TIP3    H2 4500   1.396   7.461   3.280
 1515TIP3   OH2 4501   5.261   0.203   3.577
 1515TIP3    H1 4502   5.212   0.284   3.565
 1515TIP3    H2 4503   5.342   0.230   3.620
 1516TIP3   OH2 4504   6.331   7.812   4.446
 1516TIP3    H1 4505   6.332   7.737   4.387
 1516TIP3    H2 4506   6.418   7.810   4.488
 1517TIP3   OH2 4507   6.837   2.771   5.085
 1517TIP3    H1 4508   6.754   2.726   5.101
 1517TIP3    H2 4509   6.872   2.730   5.006
 1518TIP3   OH2 4510   0.841   5.226   5.301
 1518TIP3    H1 4511   0.882   5.148   5.339
 1518TIP3    H2 4512   0.914   5.287   5.286
 1519TIP3   OH2 4513   6.846   7.436   5.808
 1519TIP3    H1 4514   6.795   7.437   5.889
 1519TIP3    H2 4515   6.934   7.464   5.835
 1520TIP3   OH2 4516   4.583   6.724   6.154
 1520TIP3    H1 4517   4.642   6.650   6.135
 1520TIP3    H2 4518   4.529   6.732   6.076
 1521TIP3   OH2 4519   3.266   2.057   2.017
 1521TIP3    H1 4520   3.227   2.011   1.943
 1521TIP3    H2 4521   3.259   2.150   1.994
 1522TIP3   OH2 4522   6.155   1.118   0.446
 1522TIP3    H1 4523   6.173   1.040   0.497
 1522TIP3    H2 4524   6.102   1.088   0.372
 1523TIP3   OH2 4525   6.918   3.470   5.129
 1523TIP3    H1 4526   6.823   3.479   5.143
 1523TIP3    H2 4527   6.957   3.524   5.198
 1524TIP3   OH2 4528   0.848   4.869   2.907
 1524TIP3    H1 4529   0.793   4.941   2.875
 1524TIP3    H2 4530   0.906   4.849   2.834
 1525TIP3   OH2 4531   0.247   4.380   4.787
 1525TIP3    H1 4532   0.180   4.360   4.853
 1525TIP3    H2 4533   0.326   4.339   4.820
 1526TIP3   OH2 4534   4.720   1.029   5.474
 1526TIP3    H1 4535   4.746   1.096   5.411
 1526TIP3    H2 4536   4.626   1.040   5.483
 1527TIP3   OH2 4537   3.623   6.248   2.532
 1527TIP3    H1 4538   3.619   6.311   2.460
 1527TIP3    H2 4539   3.685   6.286   2.594
 1528TIP3   OH2 4540   1.152   0.652   3.273
 1528TIP3    H1 4541   1.111   0.721   3.220
 1528TIP3    H2 4542   1.244   0.675   3.275
 1529TIP3   OH2 4543   0.111   1.433   4.244
 1529TIP3    H1 4544   0.190   1.396   4.205
 1529TIP3    H2 4545   0.042   1.415   4.180
 1530TIP3   OH2 4546   3.614   2.974   1.708
 1530TIP3    H1 4547   3.551   3.043   1.732
 1530TIP3    H2 4548   3.617   2.918   1.785
 1531TIP3   OH2 4549   5.450   1.336   4.418
 1531TIP3    H1 4550   5.523   1.354   4.359
 1531TIP3    H2 4551   5.465   1.392   4.493
 1532TIP3   OH2 4552   3.117   4.551   4.592
 1532TIP3    H1 4553   3.090   4.561   4.683
 1532TIP3    H2 4554   3.054   4.604   4.543
 1533TIP3   OH2 4555   6.199   0.299   0.233
 1533TIP3    H1 4556   6.257   0.233   0.271
 1533TIP3    H2 4557   6.192   0.275   0.140
 1534TIP3   OH2 4558   7.293   5.357   5.363
 1534TIP3    H1 4559   7.232   5.343   5.290
 1534TIP3    H2 4560   7.257   5.303   5.434
 1535TIP3   OH2 4561   4.935   1.520   0.505
 1535TIP3    H1 4562   4.912   1.572   0.582
 1535TIP3    H2 4563   4.996   1.575   0.456
 1536TIP3   OH2 4564   5.058   3.229   0.686
 1536TIP3    H1 4565   5.077   3.211   0.778
 1536TIP3    H2 4566   5.001   3.158   0.658
 1537TIP3   OH2 4567   2.786   2.592   5.263
 1537TIP3    H1 4568   2.697   2.625   5.266
 1537TIP3    H2 4569   2.839   2.668   5.238
 1538TIP3   OH2 4570   0.428   3.905   3.183
 1538TIP3    H1 4571   0.428   3.923   3.089
 1538TIP3    H2 4572   0.372   3.973   3.220
 1539TIP3   OH2 4573   6.289   7.582   2.612
 1539TIP3    H1 4574   6.238   7.622   2.542
 1539TIP3    H2 4575   6.368   7.549   2.568
 1540TIP3   OH2 4576   0.409   2.926   2.872
 1540TIP3    H1 4577   0.436   2.867   2.942
 1540TIP3    H2 4578   0.458   2.897   2.795
 1541TIP3   OH2 4579   1.166   4.718   6.394
 1541TIP3    H1 4580   1.192   4.640   6.444
 1541TIP3    H2 4581   1.105   4.764   6.452
 1542TIP3   OH2 4582   0.471   2.310   3.694
 1542TIP3    H1 4583   0.458   2.230   3.745
 1542TIP3    H2 4584   0.466   2.281   3.603
 1543TIP3   OH2 4585   0.726   3.880   1.153
 1543TIP3    H1 4586   0.804   3.900   1.205
 1543TIP3    H2 4587   0.695   3.965   1.122
 1544TIP3   OH2 4588   3.985   6.049   0.224
 1544TIP3    H1 4589   3.959   6.080   0.137
 1544TIP3    H2 4590   3.982   5.954   0.218
 1545TIP3   OH2 4591   5.139   5.730   3.317
 1545TIP3    H1 4592   5.187   5.810   3.337
 1545TIP3    H2 4593   5.147   5.677   3.396
 1546TIP3   OH2 4594   3.657   3.750   4.957
 1546TIP3    H1 4595   3.734   3.695   4.975
 1546TIP3    H2 4596   3.659   3.763   4.862
 1547TIP3   OH2 4597   7.528   7.259   1.582
 1547TIP3    H1 4598   7.523   7.228   1.492
 1547TIP3    H2 4599   7.534   7.354   1.575
 1548TIP3   OH2 4600   5.596   7.766   4.104
 1548TIP3    H1 4601   5.573   7.771   4.197
 1548TIP3    H2 4602   5.604   7.672   4.086
 1549TIP3   OH2 4603   6.871   0.194   4.599
 1549TIP3    H1 4604   6.944   0.249   4.629
 1549TIP3    H2 4605   6.893   0.106   4.628
 1550TIP3   OH2 4606   0.666   7.390   5.574
 1550TIP3    H1 4607   0.685   7.360   5.663
 1550TIP3    H2 4608   0.610   7.466   5.586
 1551TIP3   OH2 4609   0.850   5.449   1.099
 1551TIP3    H1 4610   0.823   5.538   1.121
 1551TIP3    H2 4611   0.938   5.459   1.063
 1552TIP3   OH2 4612   0.819   4.990   6.398
 1552TIP3    H1 4613   0.848   4.955   6.314
 1552TIP3    H2 4614   0.859   5.077   6.403
 1553TIP3   OH2 4615   8.295   5.915   1.538
 1553TIP3    H1 4616   8.291   5.991   1.596
 1553TIP3    H2 4617   8.341   5.947   1.460
 1554TIP3   OH2 4618   2.540   5.808   5.441
 1554TIP3    H1 4619   2.597   5.807   5.365
 1554TIP3    H2 4620   2.478   5.880   5.424
 1555TIP3   OH2 4621   6.693   6.813   5.342
 1555TIP3    H1 4622   6.707   6.726   5.379
 1555TIP3    H2 4623   6.781   6.847   5.325
 1556TIP3   OH2 4624   7.681   2.640   2.865
 1556TIP3    H1 4625   7.604   2.685   2.830
 1556TIP3    H2 4626   7.662   2.547   2.849
 1557TIP3   OH2 4627   7.856   6.985   4.256
 1557TIP3    H1 4628   7.806   7.033   4.189
 1557TIP3    H2 4629   7.870   6.898   4.218
 1558TIP3   OH2 4630   6.702   6.551   4.201
 1558TIP3    H1 4631   6.790   6.567   4.236
 1558TIP3    H2 4632   6.653   6.631   4.224
 1559TIP3   OH2 4633   1.010   3.252   2.168
 1559TIP3    H1 4634   1.029   3.338   2.205
 1559TIP3    H2 4635   0.954   3.210   2.234
 1560TIP3   OH2 4636   6.717   5.492   4.074
 1560TIP3    H1 4637   6.800   5.494   4.026
 1560TIP3    H2 4638   6.693   5.399   4.075
 1561TIP3   OH2 4639   3.136   5.177   3.308
 1561TIP3    H1 4640   3.230   5.180   3.290
 1561TIP3    H2 4641   3.131   5.178   3.404
 1562TIP3   OH2 4642   2.143   7.703   1.270
 1562TIP3    H1 4643   2.087   7.674   1.342
 1562TIP3    H2 4644   2.084   7.706   1.195
 1563TIP3   OH2 4645   5.093   5.861   5.370
 1563TIP3    H1 4646   5.185   5.869   5.396
 1563TIP3    H2 4647   5.076   5.767   5.373
 1564TIP3   OH2 4648   1.397   0.348   5.609
 1564TIP3    H1 4649   1.423   0.263   5.644
 1564TIP3    H2 4650   1.393   0.406   5.686
 1565TIP3   OH2 4651   8.039   4.213   3.291
 1565TIP3    H1 4652   8.054   4.120   3.304
 1565TIP3    H2 4653   7.944   4.221   3.284
 1566TIP3   OH2 4654   8.110   3.155   6.422
 1566TIP3    H1 4655   8.159   3.095   6.478
 1566TIP3    H2 4656   8.048   3.099   6.375
 1567TIP3   OH2 4657   7.709   7.472   0.404
 1567TIP3    H1 4658   7.706   7.502   0.313
 1567TIP3    H2 4659   7.801   7.483   0.430
 1568TIP3   OH2 4660   6.620   0.895   6.079
 1568TIP3    H1 4661   6.688   0.909   6.144
 1568TIP3    H2 4662   6.563   0.827   6.117
 1569TIP3   OH2 4663   6.463   3.895   3.412
 1569TIP3    H1 4664   6.484   3.889   3.319
 1569TIP3    H2 4665   6.408   3.818   3.430
 1570TIP3   OH2 4666   5.770   3.676   3.335
 1570TIP3    H1 4667   5.813   3.622   3.401
 1570TIP3    H2 4668   5.709   3.616   3.291
 1571TIP3   OH2 4669   0.509   5.103   3.305
 1571TIP3    H1 4670   0.531   5.015   3.335
 1571TIP3    H2 4671   0.417   5.098   3.281
 1572TIP3   OH2 4672   6.247   7.620   0.430
 1572TIP3    H1 4673   6.240   7.532   0.465
 1572TIP3    H2 4674   6.157   7.644   0.406
 1573TIP3   OH2 4675   1.348   6.511   3.687
 1573TIP3    H1 4676   1.372   6.548   3.602
 1573TIP3    H2 4677   1.255   6.489   3.678
 1574TIP3   OH2 4678   0.433   3.931   3.722
 1574TIP3    H1 4679   0.453   3.896   3.809
 1574TIP3    H2 4680   0.362   3.875   3.690
 1575TIP3   OH2 4681   2.293   1.516   3.843
 1575TIP3    H1 4682   2.249   1.443   3.887
 1575TIP3    H2 4683   2.301   1.584   3.910
 1576TIP3   OH2 4684   7.510   4.230   4.219
 1576TIP3    H1 4685   7.526   4.302   4.157
 1576TIP3    H2 4686   7.434   4.185   4.184
 1577TIP3   OH2 4687   5.477   1.428   1.023
 1577TIP3    H1 4688   5.466   1.491   0.952
 1577TIP3    H2 4689   5.416   1.357   1.001
 1578TIP3   OH2 4690   5.515   6.725   2.617
 1578TIP3    H1 4691   5.558   6.771   2.545
 1578TIP3    H2 4692   5.575   6.736   2.691
 1579TIP3   OH2 4693   5.735   1.533   6.354
 1579TIP3    H1 4694   5.710   1.603   6.294
 1579TIP3    H2 4695   5.661   1.472   6.352
 1580TIP3   OH2 4696   2.492   2.221   3.053
 1580TIP3    H1 4697   2.496   2.213   2.958
 1580TIP3    H2 4698   2.398   2.215   3.073
 1581TIP3   OH2 4699   7.433   4.372   0.521
 1581TIP3    H1 4700   7.402   4.461   0.541
 1581TIP3    H2 4701   7.520   4.384   0.483
 1582TIP3   OH2 4702   1.649   4.963   3.307
 1582TIP3    H1 4703   1.685   4.880   3.276
 1582TIP3    H2 4704   1.714   5.029   3.281
 1583TIP3   OH2 4705   4.147   2.599   4.954
 1583TIP3    H1 4706   4.109   2.649   5.026
 1583TIP3    H2 4707   4.228   2.563   4.990
 1584TIP3   OH2 4708   3.090   2.689   0.713
 1584TIP3    H1 4709   3.125   2.640   0.787
 1584TIP3    H2 4710   3.029   2.630   0.670
 1585TIP3   OH2 4711   0.440   6.667   0.402
 1585TIP3    H1 4712   0.476   6.597   0.456
 1585TIP3    H2 4713   0.396   6.725   0.464
 1586TIP3   OH2 4714   1.364   1.536   6.573
 1586TIP3    H1 4715   1.437   1.599   6.576
 1586TIP3    H2 4716   1.398   1.464   6.521
 1587TIP3   OH2 4717   6.458   1.650   2.331
 1587TIP3    H1 4718   6.497   1.633   2.245
 1587TIP3    H2 4719   6.421   1.566   2.357
 1588TIP3   OH2 4720   4.956   3.450   3.432
 1588TIP3    H1 4721   5.002   3.498   3.500
 1588TIP3    H2 4722   4.888   3.401   3.478
 1589TIP3   OH2 4723   6.893   4.010   3.447
 1589TIP3    H1 4724   6.926   4.016   3.357
 1589TIP3    H2 4725   6.969   4.031   3.502
 1590TIP3   OH2 4726   2.627   2.238   1.012
 1590TIP3    H1 4727   2.591   2.185   0.940
 1590TIP3    H2 4728   2.710   2.271   0.978
 1591TIP3   OH2 4729   4.451   6.152   2.065
 1591TIP3    H1 4730   4.447   6.198   1.982
 1591TIP3    H2 4731   4.539   6.170   2.099
 1592TIP3   OH2 4732   6.776   5.918   0.999
 1592TIP3    H1 4733   6.847   5.883   1.052
 1592TIP3    H2 4734   6.748   5.997   1.045
 1593TIP3   OH2 4735   0.155   7.712   0.468
 1593TIP3    H1 4736   0.087   7.650   0.439
 1593TIP3    H2 4737   0.114   7.798   0.459
 1594TIP3   OH2 4738   2.915   6.388   4.427
 1594TIP3    H1 4739   2.884   6.463   4.479
 1594TIP3    H2 4740   2.890   6.409   4.337
 1595TIP3   OH2 4741   4.980   4.549   6.287
 1595TIP3    H1 4742   4.896   4.552   6.240
 1595TIP3    H2 4743   4.961   4.502   6.368
 1596TIP3   OH2 4744   8.117   3.641   4.697
 1596TIP3    H1 4745   8.193   3.594   4.662
 1596TIP3    H2 4746   8.080   3.687   4.622
 1597TIP3   OH2 4747   3.295   4.963   1.358
 1597TIP3    H1 4748   3.212   4.981   1.403
 1597TIP3    H2 4749   3.316   4.873   1.382
 1598TIP3   OH2 4750   0.439   5.113   0.267
 1598TIP3    H1 4751   0.531   5.117   0.242
 1598TIP3    H2 4752   0.428   5.184   0.330
 1599TIP3   OH2 4753   7.779   3.911   6.084
 1599TIP3    H1 4754   7.707   3.848   6.089
 1599TIP3    H2 4755   7.813   3.902   5.995
 1600TIP3   OH2 4756   3.212   5.290   0.775
 1600TIP3    H1 4757   3.269   5.264   0.848
 1600TIP3    H2 4758   3.200   5.384   0.788
 1601TIP3   OH2 4759   5.066   7.761   3.617
 1601TIP3    H1 4760   4.986   7.708   3.620
 1601TIP3    H2 4761   5.075   7.784   3.525
 1602TIP3   OH2 4762   4.069   1.427   4.290
 1602TIP3    H1 4763   4.115   1.362   4.344
 1602TIP3    H2 4764   4.098   1.410   4.201
 1603TIP3   OH2 4765   7.406   5.129   0.911
 1603TIP3    H1 4766   7.497   5.102   0.923
 1603TIP3    H2 4767   7.360   5.048   0.890
 1604TIP3   OH2 4768   1.204   5.007   3.696
 1604TIP3    H1 4769   1.240   4.958   3.622
 1604TIP3    H2 4770   1.143   5.069   3.656
 1605TIP3   OH2 4771   5.351   3.207   4.103
 1605TIP3    H1 4772   5.325   3.120   4.134
 1605TIP3    H2 4773   5.408   3.190   4.029
 1606TIP3   OH2 4774   7.994   1.517   4.563
 1606TIP3    H1 4775   7.943   1.437   4.552
 1606TIP3    H2 4776   8.001   1.553   4.474
 1607TIP3   OH2 4777   2.290   3.338   1.096
 1607TIP3    H1 4778   2.300   3.357   1.189
 1607TIP3    H2 4779   2.312   3.421   1.052
 1608TIP3   OH2 4780   1.931   2.137   4.981
 1608TIP3    H1 4781   1.922   2.157   5.074
 1608TIP3    H2 4782   2.022   2.110   4.971
 1609TIP3   OH2 4783   1.335   7.644   1.366
 1609TIP3    H1 4784   1.386   7.721   1.340
 1609TIP3    H2 4785   1.244   7.672   1.359
 1610TIP3   OH2 4786   4.363   5.125   4.655
 1610TIP3    H1 4787   4.432   5.182   4.690
 1610TIP3    H2 4788   4.282   5.170   4.678
 1611TIP3   OH2 4789   2.936   1.296   5.253
 1611TIP3    H1 4790   2.882   1.359   5.301
 1611TIP3    H2 4791   3.024   1.312   5.284
 1612TIP3   OH2 4792   3.979   2.010   5.096
 1612TIP3    H1 4793   3.961   1.943   5.162
 1612TIP3    H2 4794   3.919   2.082   5.119
 1613TIP3   OH2 4795   0.182   7.003   4.428
 1613TIP3    H1 4796   0.123   7.041   4.494
 1613TIP3    H2 4797   0.124   6.951   4.372
 1614TIP3   OH2 4798   8.159   4.841   2.600
 1614TIP3    H1 4799   8.176   4.849   2.507
 1614TIP3    H2 4800   8.188   4.752   2.622
 1615TIP3   OH2 4801   5.821   7.328   1.965
 1615TIP3    H1 4802   5.912   7.360   1.965
 1615TIP3    H2 4803   5.822   7.254   1.905
 1616TIP3   OH2 4804   5.051   5.599   5.412
 1616TIP3    H1 4805   5.098   5.540   5.352
 1616TIP3    H2 4806   5.044   5.549   5.494
 1617TIP3   OH2 4807   5.148   4.658   0.237
 1617TIP3    H1 4808   5.074   4.634   0.180
 1617TIP3    H2 4809   5.177   4.743   0.205
 1618TIP3   OH2 4810   1.287   1.774   5.307
 1618TIP3    H1 4811   1.267   1.834   5.379
 1618TIP3    H2 4812   1.238   1.694   5.329
 1619TIP3   OH2 4813   5.975   0.393   0.401
 1619TIP3    H1 4814   5.990   0.333   0.474
 1619TIP3    H2 4815   6.038   0.367   0.334
 1620TIP3   OH2 4816   2.045   0.378   3.702
 1620TIP3    H1 4817   2.002   0.359   3.619
 1620TIP3    H2 4818   1.996   0.451   3.739
 1621TIP3   OH2 4819   2.643   6.219   6.268
 1621TIP3    H1 4820   2.612   6.147   6.323
 1621TIP3    H2 4821   2.583   6.291   6.288
 1622TIP3   OH2 4822   4.125   0.356   2.504
 1622TIP3    H1 4823   4.036   0.375   2.475
 1622TIP3    H2 4824   4.178   0.428   2.470
 1623TIP3   OH2 4825   4.562   0.210   3.204
 1623TIP3    H1 4826   4.525   0.295   3.179
 1623TIP3    H2 4827   4.614   0.184   3.128
 1624TIP3   OH2 4828   4.271   7.395   4.730
 1624TIP3    H1 4829   4.198   7.347   4.768
 1624TIP3    H2 4830   4.234   7.479   4.705
 1625TIP3   OH2 4831   3.893   3.240   0.093
 1625TIP3    H1 4832   3.913   3.160   0.044
 1625TIP3    H2 4833   3.964   3.300   0.070
 1626TIP3   OH2 4834   5.278   5.069   6.339
 1626TIP3    H1 4835   5.299   5.088   6.431
 1626TIP3    H2 4836   5.269   5.156   6.298
 1627TIP3   OH2 4837   2.158   0.592   4.754
 1627TIP3    H1 4838   2.141   0.572   4.846
 1627TIP3    H2 4839   2.214   0.521   4.723
 1628TIP3   OH2 4840   3.720   1.139   5.286
 1628TIP3    H1 4841   3.706   1.128   5.381
 1628TIP3    H2 4842   3.806   1.181   5.279
 1629TIP3   OH2 4843   0.592   5.707   0.020
 1629TIP3    H1 4844   0.605   5.713   0.115
 1629TIP3    H2 4845   0.669   5.750  -0.017
 1630TIP3   OH2 4846   7.841   4.615   4.878
 1630TIP3    H1 4847   7.914   4.556   4.900
 1630TIP3    H2 4848   7.860   4.645   4.789
 1631TIP3   OH2 4849   3.397   0.850   5.319
 1631TIP3    H1 4850   3.346   0.931   5.326
 1631TIP3    H2 4851   3.446   0.846   5.401
 1632TIP3   OH2 4852   6.675   4.570   4.773
 1632TIP3    H1 4853   6.655   4.587   4.681
 1632TIP3    H2 4854   6.761   4.529   4.771
 1633TIP3   OH2 4855   0.469   3.831   6.692
 1633TIP3    H1 4856   0.534   3.860   6.755
 1633TIP3    H2 4857   0.519   3.782   6.626
 1634TIP3   OH2 4858   2.201   6.829   1.020
 1634TIP3    H1 4859   2.273   6.892   1.028
 1634TIP3    H2 4860   2.122   6.879   1.041
 1635TIP3   OH2 4861   6.087   1.401   3.363
 1635TIP3    H1 4862   6.080   1.412   3.457
 1635TIP3    H2 4863   6.168   1.352   3.350
 1636TIP3   OH2 4864   1.831   1.593   2.813
 1636TIP3    H1 4865   1.793   1.654   2.749
 1636TIP3    H2 4866   1.907   1.640   2.848
 1637TIP3   OH2 4867   5.892   3.707   2.385
 1637TIP3    H1 4868   5.975   3.660   2.383
 1637TIP3    H2 4869   5.907   3.786   2.333
 1638TIP3   OH2 4870   5.761   7.520   4.113
 1638TIP3    H1 4871   5.810   7.533   4.194
 1638TIP3    H2 4872   5.818   7.554   4.044
 1639TIP3   OH2 4873   7.094   0.548   6.406
 1639TIP3    H1 4874   7.185   0.562   6.380
 1639TIP3    H2 4875   7.083   0.602   6.484
 1640TIP3   OH2 4876   0.495   6.500   5.517
 1640TIP3    H1 4877   0.466   6.535   5.433
 1640TIP3    H2 4878   0.459   6.411   5.520
 1641TIP3   OH2 4879   2.392   3.531   4.241
 1641TIP3    H1 4880   2.354   3.533   4.153
 1641TIP3    H2 4881   2.483   3.558   4.228
 1642TIP3   OH2 4882   5.188   6.895   5.744
 1642TIP3    H1 4883   5.128   6.906   5.670
 1642TIP3    H2 4884   5.238   6.816   5.723
 1643TIP3   OH2 4885   5.853   7.123   5.294
 1643TIP3    H1 4886   5.882   7.201   5.341
 1643TIP3    H2 4887   5.825   7.063   5.362
 1644TIP3   OH2 4888   2.742   0.074   2.964
 1644TIP3    H1 4889   2.758   0.083   2.870
 1644TIP3    H2 4890   2.824   0.040   3.000
 1645TIP3   OH2 4891   6.933   5.276   0.761
 1645TIP3    H1 4892   7.016   5.252   0.720
 1645TIP3    H2 4893   6.918   5.209   0.827
 1646TIP3   OH2 4894   4.416   0.937   2.069
 1646TIP3    H1 4895   4.469   0.913   2.145
 1646TIP3    H2 4896   4.479   0.946   1.998
 1647TIP3   OH2 4897   6.644   1.413   2.451
 1647TIP3    H1 4898   6.559   1.457   2.447
 1647TIP3    H2 4899   6.640   1.348   2.381
 1648TIP3   OH2 4900   0.004   2.263   6.551
 1648TIP3    H1 4901   0.085   2.310   6.570
 1648TIP3    H2 4902  -0.052   2.327   6.507
 1649TIP3   OH2 4903   5.361   4.429   3.256
 1649TIP3    H1 4904   5.370   4.406   3.164
 1649TIP3    H2 4905   5.396   4.353   3.303
 1650TIP3   OH2 4906   3.435   5.488   5.851
 1650TIP3    H1 4907   3.525   5.507   5.826
 1650TIP3    H2 4908   3.437   5.397   5.882
 1651TIP3   OH2 4909   4.444   4.506   3.797
 1651TIP3    H1 4910   4.503   4.508   3.872
 1651TIP3    H2 4911   4.441   4.414   3.771
 1652TIP3   OH2 4912   3.115   7.441   2.238
 1652TIP3    H1 4913   3.192   7.386   2.253
 1652TIP3    H2 4914   3.107   7.445   2.142
 1653TIP3   OH2 4915   7.284   4.076   6.713
 1653TIP3    H1 4916   7.349   4.007   6.703
 1653TIP3    H2 4917   7.293   4.129   6.634
 1654TIP3   OH2 4918   1.665   3.219   3.709
 1654TIP3    H1 4919   1.722   3.272   3.765
 1654TIP3    H2 4920   1.701   3.131   3.715
 1655TIP3   OH2 4921   1.170   4.889   5.187
 1655TIP3    H1 4922   1.119   4.809   5.199
 1655TIP3    H2 4923   1.257   4.868   5.222
 1656TIP3   OH2 4924   2.616   6.873   6.214
 1656TIP3    H1 4925   2.530   6.912   6.198
 1656TIP3    H2 4926   2.597   6.790   6.258
 1657TIP3   OH2 4927   7.863   7.391   4.977
 1657TIP3    H1 4928   7.929   7.458   4.996
 1657TIP3    H2 4929   7.800   7.399   5.048
 1658TIP3   OH2 4930   0.591   7.181   2.820
 1658TIP3    H1 4931   0.607   7.182   2.726
 1658TIP3    H2 4932   0.579   7.273   2.843
 1659TIP3   OH2 4933   5.284   6.976   6.091
 1659TIP3    H1 4934   5.208   7.005   6.041
 1659TIP3    H2 4935   5.280   6.880   6.085
 1660TIP3   OH2 4936   0.316   1.412   4.642
 1660TIP3    H1 4937   0.405   1.378   4.650
 1660TIP3    H2 4938   0.263   1.351   4.694
 1661TIP3   OH2 4939   1.547   5.631   4.486
 1661TIP3    H1 4940   1.544   5.720   4.520
 1661TIP3    H2 4941   1.572   5.577   4.561
 1662TIP3   OH2 4942   3.504   0.464   6.427
 1662TIP3    H1 4943   3.506   0.506   6.513
 1662TIP3    H2 4944   3.589   0.483   6.389
 1663TIP3   OH2 4945   4.817   2.016   1.583
 1663TIP3    H1 4946   4.784   2.031   1.672
 1663TIP3    H2 4947   4.816   1.920   1.573
 1664TIP3   OH2 4948   1.303   1.530   1.842
 1664TIP3    H1 4949   1.218   1.512   1.803
 1664TIP3    H2 4950   1.361   1.545   1.767
 1665TIP3   OH2 4951   8.067   2.823   3.575
 1665TIP3    H1 4952   8.096   2.737   3.544
 1665TIP3    H2 4953   7.980   2.807   3.613
 1666TIP3   OH2 4954   1.294   7.343   0.855
 1666TIP3    H1 4955   1.333   7.300   0.779
 1666TIP3    H2 4956   1.303   7.437   0.837
 1667TIP3   OH2 4957   0.640   0.572   1.967
 1667TIP3    H1 4958   0.582   0.510   1.923
 1667TIP3    H2 4959   0.589   0.604   2.042
 1668TIP3   OH2 4960   6.658   5.825   4.413
 1668TIP3    H1 4961   6.693   5.800   4.327
 1668TIP3    H2 4962   6.701   5.908   4.433
 1669TIP3   OH2 4963   0.609   5.576   4.758
 1669TIP3    H1 4964   0.590   5.518   4.685
 1669TIP3    H2 4965   0.698   5.554   4.784
 1670TIP3   OH2 4966   4.409   1.025   3.327
 1670TIP3    H1 4967   4.441   0.936   3.309
 1670TIP3    H2 4968   4.317   1.013   3.349
 1671TIP3   OH2 4969   1.204   1.526   5.239
 1671TIP3    H1 4970   1.169   1.448   5.195
 1671TIP3    H2 4971   1.299   1.515   5.236
 1672TIP3   OH2 4972   0.450   4.663   6.297
 1672TIP3    H1 4973   0.363   4.625   6.288
 1672TIP3    H2 4974   0.491   4.649   6.211
 1673TIP3   OH2 4975   4.706   4.908   4.313
 1673TIP3    H1 4976   4.634   4.882   4.370
 1673TIP3    H2 4977   4.712   5.003   4.325
 1674TIP3   OH2 4978   4.465   5.429   0.397
 1674TIP3    H1 4979   4.390   5.381   0.431
 1674TIP3    H2 4980   4.513   5.456   0.476
 1675TIP3   OH2 4981   5.565   6.259   4.790
 1675TIP3    H1 4982   5.612   6.199   4.731
 1675TIP3    H2 4983   5.634   6.308   4.835
 1676TIP3   OH2 4984   7.062   0.397   5.803
 1676TIP3    H1 4985   7.079   0.320   5.748
 1676TIP3    H2 4986   7.034   0.360   5.887
 1677TIP3   OH2 4987   3.760   2.728   3.565
 1677TIP3    H1 4988   3.768   2.639   3.598
 1677TIP3    H2 4989   3.698   2.723   3.493
 1678TIP3   OH2 4990   6.651   4.606   2.100
 1678TIP3    H1 4991   6.694   4.629   2.182
 1678TIP3    H2 4992   6.717   4.624   2.033
 1679TIP3   OH2 4993   3.671   6.724   3.197
 1679TIP3    H1 4994   3.598   6.668   3.223
 1679TIP3    H2 4995   3.630   6.794   3.145
 1680TIP3   OH2 4996   3.874   4.434   4.190
 1680TIP3    H1 4997   3.862   4.500   4.259
 1680TIP3    H2 4998   3.791   4.387   4.187
 1681TIP3   OH2 4999   7.913   5.119   4.844
 1681TIP3    H1 5000   7.973   5.194   4.845
 1681TIP3    H2 5001   7.970   5.043   4.834
 1682TIP3   OH2 5002   4.405   0.897   5.134
 1682TIP3    H1 5003   4.354   0.930   5.208
 1682TIP3    H2 5004   4.358   0.819   5.106
 1683TIP3   OH2 5005   0.044   4.526   5.146
 1683TIP3    H1 5006   0.100   4.487   5.213
 1683TIP3    H2 5007   0.066   4.619   5.147
 1684TIP3   OH2 5008   7.516   6.910   6.370
 1684TIP3    H1 5009   7.465   6.843   6.324
 1684TIP3    H2 5010   7.467   6.928   6.449
 1685TIP3   OH2 5011   2.770   4.854   0.607
 1685TIP3    H1 5012   2.723   4.858   0.690
 1685TIP3    H2 5013   2.708   4.814   0.546
 1686TIP3   OH2 5014   7.193   1.039   5.416
 1686TIP3    H1 5015   7.147   1.025   5.333
 1686TIP3    H2 5016   7.215   0.951   5.447
 1687TIP3   OH2 5017   7.912   5.322   3.500
 1687TIP3    H1 5018   7.830   5.363   3.472
 1687TIP3    H2 5019   7.891   5.229   3.509
 1688TIP3   OH2 5020   5.233   3.385   5.888
 1688TIP3    H1 5021   5.329   3.378   5.885
 1688TIP3    H2 5022   5.216   3.479   5.885
 1689TIP3   OH2 5023   0.463   2.215   5.827
 1689TIP3    H1 5024   0.444   2.234   5.919
 1689TIP3    H2 5025   0.431   2.126   5.815
 1690TIP3   OH2 5026   6.219   6.766   5.767
 1690TIP3    H1 5027   6.180   6.729   5.847
 1690TIP3    H2 5028   6.306   6.726   5.762
 1691TIP3   OH2 5029   5.822   7.690   1.088
 1691TIP3    H1 5030   5.749   7.636   1.118
 1691TIP3    H2 5031   5.883   7.691   1.162
 1692TIP3   OH2 5032   1.840   5.586   2.959
 1692TIP3    H1 5033   1.876   5.619   3.042
 1692TIP3    H2 5034   1.861   5.492   2.960
 1693TIP3   OH2 5035   7.875   2.311   5.099
 1693TIP3    H1 5036   7.833   2.380   5.047
 1693TIP3    H2 5037   7.967   2.338   5.104
 1694TIP3   OH2 5038   3.079   1.398   1.094
 1694TIP3    H1 5039   3.059   1.324   1.152
 1694TIP3    H2 5040   3.164   1.430   1.124
 1695TIP3   OH2 5041   6.704   4.976   2.050
 1695TIP3    H1 5042   6.711   5.055   2.104
 1695TIP3    H2 5043   6.701   4.904   2.112
 1696TIP3   OH2 5044   2.113   2.509   4.350
 1696TIP3    H1 5045   2.207   2.505   4.366
 1696TIP3    H2 5046   2.096   2.441   4.286
 1697TIP3   OH2 5047   3.594   4.944   3.346
 1697TIP3    H1 5048   3.518   4.892   3.373
 1697TIP3    H2 5049   3.647   4.953   3.425
 1698TIP3   OH2 5050   4.122   7.792   4.220
 1698TIP3    H1 5051   4.201   7.786   4.167
 1698TIP3    H2 5052   4.056   7.830   4.160
 1699TIP3   OH2 5053   7.937   2.201   4.799
 1699TIP3    H1 5054   7.925   2.220   4.706
 1699TIP3    H2 5055   7.859   2.237   4.841
 1700TIP3   OH2 5056   5.990   5.581   5.479
 1700TIP3    H1 5057   5.987   5.531   5.397
 1700TIP3    H2 5058   6.036   5.662   5.456
 1701TIP3   OH2 5059   6.474   2.720   2.855
 1701TIP3    H1 5060   6.524   2.663   2.913
 1701TIP3    H2 5061   6.429   2.780   2.915
 1702TIP3   OH2 5062   2.619   1.205   2.130
 1702TIP3    H1 5063   2.530   1.221   2.161
 1702TIP3    H2 5064   2.626   1.110   2.127
 1703TIP3   OH2 5065   4.351   1.697   3.576
 1703TIP3    H1 5066   4.358   1.656   3.490
 1703TIP3    H2 5067   4.271   1.661   3.614
 1704TIP3   OH2 5068   1.552   1.035   0.480
 1704TIP3    H1 5069   1.591   0.977   0.545
 1704TIP3    H2 5070   1.464   1.001   0.467
 1705TIP3   OH2 5071   5.825   4.527   4.964
 1705TIP3    H1 5072   5.908   4.575   4.957
 1705TIP3    H2 5073   5.847   4.438   4.939
 1706TIP3   OH2 5074   5.450   5.937   6.258
 1706TIP3    H1 5075   5.481   5.980   6.338
 1706TIP3    H2 5076   5.355   5.938   6.265
 1707TIP3   OH2 5077   0.099   7.445   4.878
 1707TIP3    H1 5078   0.037   7.381   4.844
 1707TIP3    H2 5079   0.164   7.454   4.809
 1708TIP3   OH2 5080   6.064   6.477   6.141
 1708TIP3    H1 5081   6.003   6.550   6.151
 1708TIP3    H2 5082   6.022   6.420   6.076
 1709TIP3   OH2 5083   7.413   1.020   0.919
 1709TIP3    H1 5084   7.335   1.070   0.893
 1709TIP3    H2 5085   7.432   1.050   1.008
 1710TIP3   OH2 5086   4.688   5.425   3.475
 1710TIP3    H1 5087   4.764   5.483   3.479
 1710TIP3    H2 5088   4.638   5.445   3.554
 1711TIP3   OH2 5089   2.434   4.997   0.656
 1711TIP3    H1 5090   2.377   4.935   0.611
 1711TIP3    H2 5091   2.496   5.026   0.588
 1712TIP3   OH2 5092   0.006   3.214   2.605
 1712TIP3    H1 5093  -0.031   3.278   2.544
 1712TIP3    H2 5094  -0.043   3.228   2.686
 1713TIP3   OH2 5095   7.013   5.105   6.352
 1713TIP3    H1 5096   6.924   5.101   6.388
 1713TIP3    H2 5097   7.064   5.144   6.423
 1714TIP3   OH2 5098   4.873   1.747   4.970
 1714TIP3    H1 5099   4.935   1.817   4.992
 1714TIP3    H2 5100   4.799   1.792   4.930
 1715TIP3   OH2 5101   1.915   3.837   6.338
 1715TIP3    H1 5102   1.909   3.748   6.303
 1715TIP3    H2 5103   2.006   3.847   6.364
 1716TIP3   OH2 5104   3.511   3.565   5.416
 1716TIP3    H1 5105   3.500   3.540   5.324
 1716TIP3    H2 5106   3.483   3.488   5.465
 1717TIP3   OH2 5107   0.029   2.533   1.178
 1717TIP3    H1 5108   0.105   2.559   1.126
 1717TIP3    H2 5109   0.061   2.534   1.269
 1718TIP3   OH2 5110   5.308   0.712   3.403
 1718TIP3    H1 5111   5.390   0.726   3.355
 1718TIP3    H2 5112   5.282   0.799   3.432
 1719TIP3   OH2 5113   3.337   4.582   4.977
 1719TIP3    H1 5114   3.389   4.571   4.897
 1719TIP3    H2 5115   3.326   4.493   5.010
 1720TIP3   OH2 5116   0.982   7.784   0.864
 1720TIP3    H1 5117   1.025   7.763   0.781
 1720TIP3    H2 5118   1.052   7.777   0.929
 1721TIP3   OH2 5119   6.313   6.474   4.045
 1721TIP3    H1 5120   6.311   6.411   3.973
 1721TIP3    H2 5121   6.281   6.556   4.007
 1722TIP3   OH2 5122   7.604   7.453   6.683
 1722TIP3    H1 5123   7.596   7.358   6.672
 1722TIP3    H2 5124   7.613   7.465   6.777
 1723TIP3   OH2 5125   1.475   1.735   0.037
 1723TIP3    H1 5126   1.563   1.745   0.000
 1723TIP3    H2 5127   1.416   1.746  -0.037
 1724TIP3   OH2 5128   6.013   0.109   4.091
 1724TIP3    H1 5129   5.937   0.118   4.033
 1724TIP3    H2 5130   5.993   0.165   4.166
 1725TIP3   OH2 5131   1.393   0.368   4.799
 1725TIP3    H1 5132   1.346   0.310   4.859
 1725TIP3    H2 5133   1.339   0.372   4.721
 1726TIP3   OH2 5134   7.514   0.646   0.415
 1726TIP3    H1 5135   7.440   0.606   0.369
 1726TIP3    H2 5136   7.522   0.733   0.377
 1727TIP3   OH2 5137   3.113   6.689   6.225
 1727TIP3    H1 5138   3.130   6.615   6.166
 1727TIP3    H2 5139   3.025   6.719   6.201
 1728TIP3   OH2 5140   4.384   3.380   6.087
 1728TIP3    H1 5141   4.387   3.340   6.174
 1728TIP3    H2 5142   4.439   3.324   6.033
 1729TIP3   OH2 5143   1.783   7.092   5.780
 1729TIP3    H1 5144   1.775   7.032   5.855
 1729TIP3    H2 5145   1.756   7.177   5.815
 1730TIP3   OH2 5146   3.310   5.202   2.023
 1730TIP3    H1 5147   3.332   5.163   2.108
 1730TIP3    H2 5148   3.340   5.139   1.959
 1731TIP3   OH2 5149   5.933   4.380   2.548
 1731TIP3    H1 5150   5.883   4.436   2.488
 1731TIP3    H2 5151   6.018   4.371   2.505
 1732TIP3   OH2 5152   1.829   7.772   2.662
 1732TIP3    H1 5153   1.788   7.857   2.647
 1732TIP3    H2 5154   1.870   7.751   2.578
 1733TIP3   OH2 5155   7.467   1.606   1.734
 1733TIP3    H1 5156   7.465   1.532   1.794
 1733TIP3    H2 5157   7.459   1.683   1.791
 1734TIP3   OH2 5158   6.951   0.105   6.484
 1734TIP3    H1 5159   6.925   0.018   6.453
 1734TIP3    H2 5160   7.044   0.096   6.505
 1735TIP3   OH2 5161   8.084   6.176   6.066
 1735TIP3    H1 5162   8.101   6.083   6.083
 1735TIP3    H2 5163   8.163   6.207   6.021
 1736TIP3   OH2 5164   2.999   2.504   1.494
 1736TIP3    H1 5165   3.048   2.487   1.414
 1736TIP3    H2 5166   2.917   2.456   1.484
 1737TIP3   OH2 5167   8.173   0.120   4.051
 1737TIP3    H1 5168   8.114   0.144   4.123
 1737TIP3    H2 5169   8.229   0.051   4.088
 1738TIP3   OH2 5170   1.472   0.099   5.767
 1738TIP3    H1 5171   1.554   0.101   5.816
 1738TIP3    H2 5172   1.498   0.074   5.678
 1739TIP3   OH2 5173   6.308   4.216   1.381
 1739TIP3    H1 5174   6.352   4.201   1.297
 1739TIP3    H2 5175   6.280   4.129   1.410
 1740TIP3   OH2 5176   3.939   4.880   5.649
 1740TIP3    H1 5177   3.854   4.872   5.607
 1740TIP3    H2 5178   3.935   4.818   5.722
 1741TIP3   OH2 5179   5.887   1.558   3.809
 1741TIP3    H1 5180   5.823   1.508   3.860
 1741TIP3    H2 5181   5.870   1.532   3.718
 1742TIP3   OH2 5182   0.685   3.788   0.028
 1742TIP3    H1 5183   0.608   3.732   0.040
 1742TIP3    H2 5184   0.705   3.821   0.115
 1743TIP3   OH2 5185   1.026   3.275   3.955
 1743TIP3    H1 5186   1.060   3.191   3.923
 1743TIP3    H2 5187   1.088   3.302   4.023
 1744TIP3   OH2 5188   6.419   4.713   0.057
 1744TIP3    H1 5189   6.370   4.668   0.126
 1744TIP3    H2 5190   6.511   4.690   0.074
 1745TIP3   OH2 5191   1.330   1.264   4.697
 1745TIP3    H1 5192   1.385   1.313   4.758
 1745TIP3    H2 5193   1.314   1.324   4.625
 1746TIP3   OH2 5194   6.836   5.935   0.097
 1746TIP3    H1 5195   6.931   5.933   0.104
 1746TIP3    H2 5196   6.817   6.013   0.044
 1747TIP3   OH2 5197   0.776   7.517   1.751
 1747TIP3    H1 5198   0.749   7.425   1.745
 1747TIP3    H2 5199   0.763   7.539   1.843
 1748TIP3   OH2 5200   1.460   6.232   3.763
 1748TIP3    H1 5201   1.536   6.252   3.818
 1748TIP3    H2 5202   1.461   6.301   3.696
 1749TIP3   OH2 5203   2.640   6.692   0.252
 1749TIP3    H1 5204   2.723   6.654   0.224
 1749TIP3    H2 5205   2.624   6.655   0.339
 1750TIP3   OH2 5206   0.125   4.922   2.342
 1750TIP3    H1 5207   0.206   4.938   2.294
 1750TIP3    H2 5208   0.070   4.873   2.280
 1751TIP3   OH2 5209   2.018   3.520   2.164
 1751TIP3    H1 5210   2.087   3.497   2.102
 1751TIP3    H2 5211   1.942   3.542   2.109
 1752TIP3   OH2 5212   1.706   0.380   3.857
 1752TIP3    H1 5213   1.690   0.450   3.793
 1752TIP3    H2 5214   1.750   0.311   3.808
 1753TIP3   OH2 5215   1.633   0.573   0.405
 1753TIP3    H1 5216   1.547   0.606   0.378
 1753TIP3    H2 5217   1.694   0.610   0.342
 1754TIP3   OH2 5218   7.383   0.276   0.831
 1754TIP3    H1 5219   7.331   0.325   0.895
 1754TIP3    H2 5220   7.393   0.336   0.758
 1755TIP3   OH2 5221   4.908   4.205   5.175
 1755TIP3    H1 5222   4.867   4.204   5.088
 1755TIP3    H2 5223   4.844   4.249   5.231
 1756TIP3   OH2 5224   3.340   4.146   2.586
 1756TIP3    H1 5225   3.245   4.134   2.593
 1756TIP3    H2 5226   3.350   4.234   2.548
 1757TIP3   OH2 5227   7.405   0.301   1.300
 1757TIP3    H1 5228   7.317   0.266   1.314
 1757TIP3    H2 5229   7.391   0.377   1.243
 1758TIP3   OH2 5230   7.840   2.920   2.194
 1758TIP3    H1 5231   7.814   2.830   2.213
 1758TIP3    H2 5232   7.911   2.938   2.256
 1759TIP3   OH2 5233   1.938   6.453   1.955
 1759TIP3    H1 5234   1.942   6.358   1.968
 1759TIP3    H2 5235   1.847   6.469   1.929
 1760TIP3   OH2 5236   6.317   3.072   2.425
 1760TIP3    H1 5237   6.400   3.035   2.455
 1760TIP3    H2 5238   6.256   3.055   2.497
 1761TIP3   OH2 5239   5.498   6.819   6.753
 1761TIP3    H1 5240   5.457   6.734   6.769
 1761TIP3    H2 5241   5.425   6.879   6.743
 1762TIP3   OH2 5242   6.582   6.478   6.585
 1762TIP3    H1 5243   6.489   6.468   6.606
 1762TIP3    H2 5244   6.606   6.563   6.623
 1763TIP3   OH2 5245   6.856   5.907   1.763
 1763TIP3    H1 5246   6.768   5.945   1.763
 1763TIP3    H2 5247   6.891   5.925   1.676
 1764TIP3   OH2 5248   7.972   2.927   3.817
 1764TIP3    H1 5249   8.050   2.936   3.762
 1764TIP3    H2 5250   8.001   2.873   3.891
 1765TIP3   OH2 5251   6.057   4.908   5.836
 1765TIP3    H1 5252   6.133   4.878   5.785
 1765TIP3    H2 5253   6.060   5.003   5.829
 1766TIP3   OH2 5254   6.434   0.722   6.211
 1766TIP3    H1 5255   6.374   0.748   6.140
 1766TIP3    H2 5256   6.445   0.628   6.199
 1767TIP3   OH2 5257   4.440   7.674   0.251
 1767TIP3    H1 5258   4.472   7.603   0.195
 1767TIP3    H2 5259   4.350   7.688   0.223
 1768TIP3   OH2 5260   2.360   4.471   1.309
 1768TIP3    H1 5261   2.286   4.478   1.369
 1768TIP3    H2 5262   2.417   4.405   1.349
 1769TIP3   OH2 5263   6.950   2.049   1.238
 1769TIP3    H1 5264   7.018   2.089   1.184
 1769TIP3    H2 5265   6.914   2.122   1.289
 1770TIP3   OH2 5266   4.432   7.202   0.706
 1770TIP3    H1 5267   4.467   7.120   0.740
 1770TIP3    H2 5268   4.508   7.251   0.676
 1771TIP3   OH2 5269   5.318   4.294   4.416
 1771TIP3    H1 5270   5.378   4.316   4.345
 1771TIP3    H2 5271   5.374   4.262   4.487
 1772TIP3   OH2 5272   5.098   3.347   3.778
 1772TIP3    H1 5273   5.065   3.429   3.814
 1772TIP3    H2 5274   5.140   3.371   3.696
 1773TIP3   OH2 5275   2.778   5.693   6.725
 1773TIP3    H1 5276   2.831   5.679   6.803
 1773TIP3    H2 5277   2.761   5.605   6.692
 1774TIP3   OH2 5278   0.708   6.643   5.366
 1774TIP3    H1 5279   0.630   6.698   5.375
 1774TIP3    H2 5280   0.674   6.554   5.354
 1775TIP3   OH2 5281   4.334   7.543   5.186
 1775TIP3    H1 5282   4.308   7.628   5.220
 1775TIP3    H2 5283   4.259   7.486   5.204
 1776TIP3   OH2 5284   5.525   2.266   1.650
 1776TIP3    H1 5285   5.559   2.348   1.614
 1776TIP3    H2 5286   5.587   2.199   1.621
 1777TIP3   OH2 5287   8.167   3.431   6.044
 1777TIP3    H1 5288   8.131   3.500   5.988
 1777TIP3    H2 5289   8.138   3.453   6.132
 1778TIP3   OH2 5290   4.313   6.504   1.811
 1778TIP3    H1 5291   4.264   6.576   1.771
 1778TIP3    H2 5292   4.382   6.547   1.862
 1779TIP3   OH2 5293   2.559   6.922   4.017
 1779TIP3    H1 5294   2.609   6.940   3.937
 1779TIP3    H2 5295   2.471   6.952   3.997
 1780TIP3   OH2 5296   6.674   5.607   1.907
 1780TIP3    H1 5297   6.626   5.686   1.931
 1780TIP3    H2 5298   6.618   5.564   1.842
 1781TIP3   OH2 5299   4.697   7.366   4.138
 1781TIP3    H1 5300   4.609   7.396   4.114
 1781TIP3    H2 5301   4.756   7.429   4.096
 1782TIP3   OH2 5302   2.660   3.296   2.062
 1782TIP3    H1 5303   2.717   3.332   2.129
 1782TIP3    H2 5304   2.571   3.316   2.092
 1783TIP3   OH2 5305   3.265   7.827   3.676
 1783TIP3    H1 5306   3.226   7.914   3.667
 1783TIP3    H2 5307   3.263   7.791   3.587
 1784TIP3   OH2 5308   6.967   0.278   1.232
 1784TIP3    H1 5309   6.901   0.249   1.169
 1784TIP3    H2 5310   6.944   0.369   1.250
 1785TIP3   OH2 5311   4.430   5.511   6.212
 1785TIP3    H1 5312   4.486   5.585   6.235
 1785TIP3    H2 5313   4.475   5.435   6.249
 1786TIP3   OH2 5314   5.724   7.618   2.508
 1786TIP3    H1 5315   5.725   7.575   2.594
 1786TIP3    H2 5316   5.774   7.698   2.520
 1787TIP3   OH2 5317   1.537   0.489   3.383
 1787TIP3    H1 5318   1.487   0.415   3.349
 1787TIP3    H2 5319   1.484   0.566   3.361
 1788TIP3   OH2 5320   4.252   5.961   6.567
 1788TIP3    H1 5321   4.260   6.055   6.582
 1788TIP3    H2 5322   4.182   5.933   6.626
 1789TIP3   OH2 5323   4.581   2.825   6.649
 1789TIP3    H1 5324   4.587   2.753   6.586
 1789TIP3    H2 5325   4.648   2.887   6.620
 1790TIP3   OH2 5326   8.008   6.114   3.029
 1790TIP3    H1 5327   7.924   6.069   3.032
 1790TIP3    H2 5328   8.022   6.132   2.936
 1791TIP3   OH2 5329   7.622   7.052   6.117
 1791TIP3    H1 5330   7.616   7.115   6.189
 1791TIP3    H2 5331   7.671   6.978   6.154
 1792TIP3   OH2 5332   1.191   6.689   3.007
 1792TIP3    H1 5333   1.121   6.747   2.978
 1792TIP3    H2 5334   1.244   6.675   2.928
 1793TIP3   OH2 5335   3.615   1.961   2.717
 1793TIP3    H1 5336   3.612   1.866   2.710
 1793TIP3    H2 5337   3.708   1.982   2.722
 1794TIP3   OH2 5338   6.719   7.794   3.628
 1794TIP3    H1 5339   6.629   7.790   3.596
 1794TIP3    H2 5340   6.760   7.716   3.590
 1795TIP3   OH2 5341   5.620   4.626   0.647
 1795TIP3    H1 5342   5.637   4.667   0.562
 1795TIP3    H2 5343   5.701   4.638   0.696
 1796TIP3   OH2 5344   0.085   4.531   6.005
 1796TIP3    H1 5345   0.171   4.496   5.981
 1796TIP3    H2 5346   0.029   4.513   5.929
 1797TIP3   OH2 5347   3.968   6.902   0.094
 1797TIP3    H1 5348   3.875   6.889   0.114
 1797TIP3    H2 5349   4.001   6.813   0.079
 1798TIP3   OH2 5350   7.075   1.372   3.877
 1798TIP3    H1 5351   7.129   1.444   3.909
 1798TIP3    H2 5352   6.985   1.404   3.886
 1799TIP3   OH2 5353   2.475   3.482   1.712
 1799TIP3    H1 5354   2.517   3.396   1.717
 1799TIP3    H2 5355   2.534   3.541   1.758
 1800TIP3   OH2 5356   1.491   2.943   2.536
 1800TIP3    H1 5357   1.402   2.950   2.570
 1800TIP3    H2 5358   1.521   3.034   2.531
 1801TIP3   OH2 5359   2.717   6.895   4.456
 1801TIP3    H1 5360   2.645   6.877   4.516
 1801TIP3    H2 5361   2.675   6.937   4.380
 1802TIP3   OH2 5362   2.650   3.161   3.132
 1802TIP3    H1 5363   2.670   3.129   3.044
 1802TIP3    H2 5364   2.608   3.086   3.176
 1803TIP3   OH2 5365   0.808   1.180   2.886
 1803TIP3    H1 5366   0.799   1.108   2.949
 1803TIP3    H2 5367   0.900   1.179   2.860
 1804TIP3   OH2 5368   6.505   7.726   1.797
 1804TIP3    H1 5369   6.466   7.751   1.713
 1804TIP3    H2 5370   6.468   7.639   1.815
 1805TIP3   OH2 5371   4.739   6.069   5.372
 1805TIP3    H1 5372   4.662   6.109   5.410
 1805TIP3    H2 5373   4.706   5.989   5.329
 1806TIP3   OH2 5374   1.958   0.300   5.171
 1806TIP3    H1 5375   2.023   0.292   5.241
 1806TIP3    H2 5376   1.895   0.231   5.188
 1807TIP3   OH2 5377   0.367   6.611   0.156
 1807TIP3    H1 5378   0.395   6.675   0.090
 1807TIP3    H2 5379   0.388   6.653   0.240
 1808TIP3   OH2 5380   2.995   6.171   1.250
 1808TIP3    H1 5381   3.024   6.096   1.303
 1808TIP3    H2 5382   2.998   6.245   1.309
 1809TIP3   OH2 5383   0.694   6.525   5.691
 1809TIP3    H1 5384   0.712   6.431   5.699
 1809TIP3    H2 5385   0.645   6.533   5.609
 1810TIP3   OH2 5386   4.227   7.300   5.775
 1810TIP3    H1 5387   4.208   7.225   5.718
 1810TIP3    H2 5388   4.231   7.375   5.715
 1811TIP3   OH2 5389   2.802   5.789   0.734
 1811TIP3    H1 5390   2.854   5.869   0.724
 1811TIP3    H2 5391   2.772   5.769   0.645
 1812TIP3   OH2 5392   7.122   6.398   2.243
 1812TIP3    H1 5393   7.061   6.461   2.206
 1812TIP3    H2 5394   7.208   6.439   2.235
 1813TIP3   OH2 5395   0.049   2.006   5.459
 1813TIP3    H1 5396   0.090   1.953   5.391
 1813TIP3    H2 5397   0.122   2.046   5.506
 1814TIP3   OH2 5398   0.874   3.388   3.480
 1814TIP3    H1 5399   0.816   3.388   3.556
 1814TIP3    H2 5400   0.843   3.316   3.426
 1815TIP3   OH2 5401   5.294   7.373   6.337
 1815TIP3    H1 5402   5.219   7.417   6.297
 1815TIP3    H2 5403   5.368   7.430   6.318
 1816TIP3   OH2 5404   4.176   2.555   2.053
 1816TIP3    H1 5405   4.157   2.489   1.986
 1816TIP3    H2 5406   4.097   2.559   2.106
 1817TIP3   OH2 5407   2.464   6.378   2.151
 1817TIP3    H1 5408   2.389   6.332   2.113
 1817TIP3    H2 5409   2.448   6.470   2.129
 1818TIP3   OH2 5410   6.613   1.558   0.588
 1818TIP3    H1 5411   6.642   1.478   0.543
 1818TIP3    H2 5412   6.617   1.535   0.681
 1819TIP3   OH2 5413   6.497   6.817   3.959
 1819TIP3    H1 5414   6.468   6.887   3.901
 1819TIP3    H2 5415   6.418   6.766   3.975
 1820TIP3   OH2 5416   4.081   3.482   3.091
 1820TIP3    H1 5417   4.138   3.438   3.028
 1820TIP3    H2 5418   4.072   3.571   3.056
 1821TIP3   OH2 5419   5.434   4.964   4.130
 1821TIP3    H1 5420   5.439   5.043   4.077
 1821TIP3    H2 5421   5.503   4.907   4.094
 1822TIP3   OH2 5422   2.236   1.732   2.238
 1822TIP3    H1 5423   2.180   1.770   2.307
 1822TIP3    H2 5424   2.303   1.684   2.286
 1823TIP3   OH2 5425   0.919   1.463   5.192
 1823TIP3    H1 5426   0.986   1.394   5.190
 1823TIP3    H2 5427   0.967   1.544   5.208
 1824TIP3   OH2 5428   1.576   0.482   2.020
 1824TIP3    H1 5429   1.564   0.506   1.928
 1824TIP3    H2 5430   1.659   0.523   2.045
 1825TIP3   OH2 5431   6.662   3.623   2.676
 1825TIP3    H1 5432   6.652   3.715   2.652
 1825TIP3    H2 5433   6.622   3.575   2.604
 1826TIP3   OH2 5434   6.941   1.572   0.708
 1826TIP3    H1 5435   6.971   1.538   0.792
 1826TIP3    H2 5436   7.015   1.621   0.674
 1827TIP3   OH2 5437   5.270   1.990   5.854
 1827TIP3    H1 5438   5.343   1.959   5.801
 1827TIP3    H2 5439   5.193   1.948   5.815
 1828TIP3   OH2 5440   4.379   2.872   0.233
 1828TIP3    H1 5441   4.363   2.951   0.285
 1828TIP3    H2 5442   4.303   2.817   0.251
 1829TIP3   OH2 5443   2.332   4.540   4.942
 1829TIP3    H1 5444   2.251   4.564   4.988
 1829TIP3    H2 5445   2.302   4.504   4.858
 1830TIP3   OH2 5446   6.670   4.372   1.108
 1830TIP3    H1 5447   6.716   4.401   1.029
 1830TIP3    H2 5448   6.740   4.343   1.167
 1831TIP3   OH2 5449   1.277   6.508   4.399
 1831TIP3    H1 5450   1.256   6.599   4.380
 1831TIP3    H2 5451   1.328   6.511   4.480
 1832TIP3   OH2 5452   3.543   4.560   0.063
 1832TIP3    H1 5453   3.539   4.582   0.156
 1832TIP3    H2 5454   3.588   4.635   0.024
 1833TIP3   OH2 5455   1.247   5.792   3.323
 1833TIP3    H1 5456   1.160   5.765   3.293
 1833TIP3    H2 5457   1.231   5.870   3.376
 1834TIP3   OH2 5458   8.131   3.749   0.738
 1834TIP3    H1 5459   8.195   3.708   0.796
 1834TIP3    H2 5460   8.099   3.824   0.787
 1835TIP3   OH2 5461   0.393   2.171   3.023
 1835TIP3    H1 5462   0.303   2.139   3.025
 1835TIP3    H2 5463   0.388   2.261   3.054
 1836TIP3   OH2 5464   3.768   0.062   4.698
 1836TIP3    H1 5465   3.750   0.084   4.606
 1836TIP3    H2 5466   3.695   0.101   4.746
 1837TIP3   OH2 5467   4.619   3.759   1.776
 1837TIP3    H1 5468   4.616   3.798   1.864
 1837TIP3    H2 5469   4.537   3.786   1.735
 1838TIP3   OH2 5470   3.416   5.735   5.149
 1838TIP3    H1 5471   3.452   5.782   5.224
 1838TIP3    H2 5472   3.333   5.699   5.180
 1839TIP3   OH2 5473   6.816   4.659   1.098
 1839TIP3    H1 5474   6.911   4.657   1.094
 1839TIP3    H2 5475   6.788   4.627   1.012
 1840TIP3   OH2 5476   0.083   1.245   5.221
 1840TIP3    H1 5477   0.111   1.332   5.246
 1840TIP3    H2 5478   0.031   1.214   5.295
 1841TIP3   OH2 5479   7.166   6.474   1.888
 1841TIP3    H1 5480   7.182   6.396   1.941
 1841TIP3    H2 5481   7.150   6.439   1.800
 1842TIP3   OH2 5482   5.997   1.609   5.814
 1842TIP3    H1 5483   5.976   1.589   5.905
 1842TIP3    H2 5484   6.092   1.598   5.808
 1843TIP3   OH2 5485   4.259   2.507   6.342
 1843TIP3    H1 5486   4.189   2.555   6.299
 1843TIP3    H2 5487   4.237   2.415   6.328
 1844TIP3   OH2 5488   6.508   4.904   5.437
 1844TIP3    H1 5489   6.572   4.897   5.366
 1844TIP3    H2 5490   6.446   4.832   5.420
 1845TIP3   OH2 5491   5.112   2.746   4.519
 1845TIP3    H1 5492   5.176   2.686   4.480
 1845TIP3    H2 5493   5.151   2.833   4.509
 1846TIP3   OH2 5494   4.608   6.774   3.331
 1846TIP3    H1 5495   4.682   6.723   3.298
 1846TIP3    H2 5496   4.647   6.853   3.367
 1847TIP3   OH2 5497   5.832   4.051   5.264
 1847TIP3    H1 5498   5.821   4.098   5.182
 1847TIP3    H2 5499   5.788   4.106   5.329
 1848TIP3   OH2 5500   0.633   1.579   5.247
 1848TIP3    H1 5501   0.656   1.625   5.166
 1848TIP3    H2 5502   0.715   1.537   5.275
 1849TIP3   OH2 5503   7.696   2.848   3.601
 1849TIP3    H1 5504   7.707   2.772   3.544
 1849TIP3    H2 5505   7.614   2.888   3.573
 1850TIP3   OH2 5506   3.104   6.538   3.498
 1850TIP3    H1 5507   3.152   6.560   3.418
 1850TIP3    H2 5508   3.082   6.623   3.536
 1851TIP3   OH2 5509   5.399   3.936   5.490
 1851TIP3    H1 5510   5.434   3.991   5.420
 1851TIP3    H2 5511   5.455   3.953   5.566
 1852TIP3   OH2 5512   3.052   0.806   3.870
 1852TIP3    H1 5513   3.134   0.844   3.839
 1852TIP3    H2 5514   3.078   0.747   3.941
 1853TIP3   OH2 5515   7.027   7.064   3.551
 1853TIP3    H1 5516   7.102   7.094   3.498
 1853TIP3    H2 5517   7.009   6.976   3.519
 1854TIP3   OH2 5518   6.010   1.245   1.977
 1854TIP3    H1 5519   5.967   1.290   1.904
 1854TIP3    H2 5520   6.010   1.310   2.048
 1855TIP3   OH2 5521   4.670   0.033   4.285
 1855TIP3    H1 5522   4.627   0.113   4.256
 1855TIP3    H2 5523   4.756   0.062   4.316
 1856TIP3   OH2 5524   6.562   0.315   3.594
 1856TIP3    H1 5525   6.484   0.369   3.608
 1856TIP3    H2 5526   6.538   0.228   3.628
 1857TIP3   OH2 5527   7.865   1.914   3.768
 1857TIP3    H1 5528   7.775   1.922   3.799
 1857TIP3    H2 5529   7.914   1.978   3.820
 1858TIP3   OH2 5530   2.791   1.987   4.445
 1858TIP3    H1 5531   2.804   2.061   4.505
 1858TIP3    H2 5532   2.812   2.023   4.358
 1859TIP3   OH2 5533   2.700   7.592   2.419
 1859TIP3    H1 5534   2.768   7.652   2.449
 1859TIP3    H2 5535   2.738   7.505   2.431
 1860TIP3   OH2 5536   7.450   4.765   2.039
 1860TIP3    H1 5537   7.388   4.790   1.970
 1860TIP3    H2 5538   7.417   4.809   2.117
 1861TIP3   OH2 5539   2.973   7.493   1.478
 1861TIP3    H1 5540   2.945   7.483   1.387
 1861TIP3    H2 5541   2.902   7.542   1.519
 1862TIP3   OH2 5542   4.371   1.981   3.440
 1862TIP3    H1 5543   4.449   1.945   3.483
 1862TIP3    H2 5544   4.319   1.904   3.417
 1863TIP3   OH2 5545   4.033   6.264   3.070
 1863TIP3    H1 5546   3.957   6.252   3.127
 1863TIP3    H2 5547   4.052   6.358   3.076
 1864TIP3   OH2 5548   1.314   2.184   0.115
 1864TIP3    H1 5549   1.266   2.115   0.160
 1864TIP3    H2 5550   1.405   2.172   0.143
 1865TIP3   OH2 5551   0.511   5.578   2.155
 1865TIP3    H1 5552   0.600   5.561   2.125
 1865TIP3    H2 5553   0.458   5.570   2.076
 1866TIP3   OH2 5554   4.836   5.271   2.330
 1866TIP3    H1 5555   4.868   5.346   2.279
 1866TIP3    H2 5556   4.796   5.311   2.407
 1867TIP3   OH2 5557   7.874   2.270   2.693
 1867TIP3    H1 5558   7.847   2.215   2.619
 1867TIP3    H2 5559   7.920   2.210   2.752
 1868TIP3   OH2 5560   2.461   6.640   2.074
 1868TIP3    H1 5561   2.519   6.653   1.998
 1868TIP3    H2 5562   2.497   6.697   2.142
 1869TIP3   OH2 5563   6.678   3.045   2.702
 1869TIP3    H1 5564   6.713   3.134   2.714
 1869TIP3    H2 5565   6.685   3.029   2.608
 1870TIP3   OH2 5566   6.934   1.166   3.694
 1870TIP3    H1 5567   6.931   1.155   3.789
 1870TIP3    H2 5568   7.006   1.228   3.680
 1871TIP3   OH2 5569   1.435   1.705   5.744
 1871TIP3    H1 5570   1.435   1.740   5.834
 1871TIP3    H2 5571   1.455   1.781   5.689
 1872TIP3   OH2 5572   5.948   5.729   2.265
 1872TIP3    H1 5573   5.889   5.747   2.192
 1872TIP3    H2 5574   6.024   5.784   2.248
 1873TIP3   OH2 5575   8.022   5.091   2.638
 1873TIP3    H1 5576   8.075   5.011   2.642
 1873TIP3    H2 5577   7.962   5.083   2.711
 1874TIP3   OH2 5578   4.405   7.725   2.565
 1874TIP3    H1 5579   4.368   7.646   2.604
 1874TIP3    H2 5580   4.495   7.728   2.597
 1875TIP3   OH2 5581   3.641   4.679   4.251
 1875TIP3    H1 5582   3.710   4.641   4.306
 1875TIP3    H2 5583   3.598   4.743   4.308
 1876TIP3   OH2 5584   4.562   3.605   3.428
 1876TIP3    H1 5585   4.594   3.536   3.370
 1876TIP3    H2 5586   4.584   3.574   3.516
 1877TIP3   OH2 5587   7.179   5.324   3.041
 1877TIP3    H1 5588   7.268   5.303   3.012
 1877TIP3    H2 5589   7.125   5.254   3.004
 1878TIP3   OH2 5590   6.898   1.069   3.949
 1878TIP3    H1 5591   6.875   0.987   3.991
 1878TIP3    H2 5592   6.913   1.130   4.022
 1879TIP3   OH2 5593   3.673   3.045   2.784
 1879TIP3    H1 5594   3.690   2.959   2.823
 1879TIP3    H2 5595   3.603   3.029   2.721
 1880TIP3   OH2 5596   7.121   2.653   5.174
 1880TIP3    H1 5597   7.062   2.648   5.249
 1880TIP3    H2 5598   7.104   2.739   5.135
 1881TIP3   OH2 5599   2.078   3.296   3.745
 1881TIP3    H1 5600   2.078   3.250   3.661
 1881TIP3    H2 5601   2.126   3.377   3.728
 1882TIP3   OH2 5602   1.863   0.060   2.528
 1882TIP3    H1 5603   1.902   0.095   2.608
 1882TIP3    H2 5604   1.791   0.120   2.508
 1883TIP3   OH2 5605   3.178   3.805   2.486
 1883TIP3    H1 5606   3.094   3.826   2.526
 1883TIP3    H2 5607   3.198   3.717   2.517
 1884TIP3   OH2 5608   1.593   7.336   2.164
 1884TIP3    H1 5609   1.572   7.244   2.179
 1884TIP3    H2 5610   1.651   7.359   2.236
 1885TIP3   OH2 5611   6.539   6.581   1.650
 1885TIP3    H1 5612   6.537   6.535   1.734
 1885TIP3    H2 5613   6.616   6.638   1.656
 1886TIP3   OH2 5614   2.229   7.053   1.676
 1886TIP3    H1 5615   2.175   7.064   1.754
 1886TIP3    H2 5616   2.286   7.131   1.675
 1887TIP3   OH2 5617   4.057   3.399   5.788
 1887TIP3    H1 5618   4.108   3.449   5.852
 1887TIP3    H2 5619   4.015   3.466   5.734
 1888TIP3   OH2 5620   1.168   6.369   0.414
 1888TIP3    H1 5621   1.090   6.362   0.359
 1888TIP3    H2 5622   1.240   6.379   0.351
 1889TIP3   OH2 5623   2.393   2.464   3.325
 1889TIP3    H1 5624   2.334   2.413   3.381
 1889TIP3    H2 5625   2.452   2.508   3.385
 1890TIP3   OH2 5626   0.925   0.913   2.184
 1890TIP3    H1 5627   0.962   0.995   2.152
 1890TIP3    H2 5628   0.832   0.918   2.162
 1891TIP3   OH2 5629   8.251   3.017   6.674
 1891TIP3    H1 5630   8.222   2.932   6.643
 1891TIP3    H2 5631   8.324   2.998   6.733
 1892TIP3   OH2 5632   0.123   6.218   4.581
 1892TIP3    H1 5633   0.120   6.172   4.665
 1892TIP3    H2 5634   0.179   6.294   4.597
 1893TIP3   OH2 5635   5.197   0.481   5.642
 1893TIP3    H1 5636   5.132   0.533   5.689
 1893TIP3    H2 5637   5.181   0.391   5.670
 1894TIP3   OH2 5638   3.457   5.628   2.639
 1894TIP3    H1 5639   3.491   5.576   2.712
 1894TIP3    H2 5640   3.423   5.563   2.578
 1895TIP3   OH2 5641   1.488   0.044   4.325
 1895TIP3    H1 5642   1.443  -0.016   4.267
 1895TIP3    H2 5643   1.581   0.031   4.306
 1896TIP3   OH2 5644   2.932   1.752   1.048
 1896TIP3    H1 5645   2.871   1.726   0.979
 1896TIP3    H2 5646   2.900   1.708   1.126
 1897TIP3   OH2 5647   2.660   0.480   2.033
 1897TIP3    H1 5648   2.572   0.486   1.998
 1897TIP3    H2 5649   2.701   0.408   1.985
 1898TIP3   OH2 5650   3.557   3.508   2.777
 1898TIP3    H1 5651   3.517   3.493   2.862
 1898TIP3    H2 5652   3.599   3.594   2.784
 1899TIP3   OH2 5653   0.767   2.652   5.794
 1899TIP3    H1 5654   0.806   2.690   5.715
 1899TIP3    H2 5655   0.813   2.569   5.806
 1900TIP3   OH2 5656   5.359   0.150   0.998
 1900TIP3    H1 5657   5.314   0.160   1.082
 1900TIP3    H2 5658   5.364   0.056   0.984
 1901TIP3   OH2 5659   4.530   0.374   2.197
 1901TIP3    H1 5660   4.436   0.361   2.193
 1901TIP3    H2 5661   4.568   0.289   2.174
 1902TIP3   OH2 5662   5.613   3.675   6.464
 1902TIP3    H1 5663   5.609   3.709   6.375
 1902TIP3    H2 5664   5.612   3.580   6.453
 1903TIP3   OH2 5665   5.874   0.700   3.546
 1903TIP3    H1 5666   5.964   0.669   3.533
 1903TIP3    H2 5667   5.820   0.625   3.522
 1904TIP3   OH2 5668   3.834   5.400   2.604
 1904TIP3    H1 5669   3.795   5.312   2.609
 1904TIP3    H2 5670   3.792   5.441   2.529
 1905TIP3   OH2 5671   4.408   0.095   3.505
 1905TIP3    H1 5672   4.496   0.093   3.544
 1905TIP3    H2 5673   4.401   0.182   3.467
 1906TIP3   OH2 5674   6.926   4.129   6.091
 1906TIP3    H1 5675   6.870   4.076   6.148
 1906TIP3    H2 5676   6.960   4.198   6.148
 1907TIP3   OH2 5677   1.640   6.220   0.530
 1907TIP3    H1 5678   1.710   6.154   0.535
 1907TIP3    H2 5679   1.624   6.245   0.621
 1908TIP3   OH2 5680   0.216   0.735   2.152
 1908TIP3    H1 5681   0.258   0.710   2.070
 1908TIP3    H2 5682   0.158   0.662   2.173
 1909TIP3   OH2 5683   6.726   3.951   5.004
 1909TIP3    H1 5684   6.752   3.865   4.971
 1909TIP3    H2 5685   6.801   4.008   4.985
 1910TIP3   OH2 5686   0.355   4.604   4.993
 1910TIP3    H1 5687   0.352   4.553   5.074
 1910TIP3    H2 5688   0.442   4.586   4.957
 1911TIP3   OH2 5689   0.765   3.165   2.939
 1911TIP3    H1 5690   0.825   3.091   2.928
 1911TIP3    H2 5691   0.716   3.145   3.019
 1912TIP3   OH2 5692   6.425   5.227   4.636
 1912TIP3    H1 5693   6.374   5.269   4.705
 1912TIP3    H2 5694   6.443   5.296   4.573
 1913TIP3   OH2 5695   1.176   0.439   3.459
 1913TIP3    H1 5696   1.223   0.493   3.522
 1913TIP3    H2 5697   1.210   0.351   3.473
 1914TIP3   OH2 5698   0.515   6.214   1.045
 1914TIP3    H1 5699   0.523   6.204   0.950
 1914TIP3    H2 5700   0.606   6.212   1.077
 1915TIP3   OH2 5701   5.080   5.529   5.992
 1915TIP3    H1 5702   5.030   5.501   5.915
 1915TIP3    H2 5703   5.171   5.516   5.968
 1916TIP3   OH2 5704   4.974   6.746   5.202
 1916TIP3    H1 5705   4.949   6.839   5.205
 1916TIP3    H2 5706   4.945   6.711   5.286
 1917TIP3   OH2 5707   2.420   2.130   4.396
 1917TIP3    H1 5708   2.353   2.147   4.463
 1917TIP3    H2 5709   2.482   2.203   4.406
 1918TIP3   OH2 5710   4.598   3.764   4.269
 1918TIP3    H1 5711   4.562   3.814   4.196
 1918TIP3    H2 5712   4.619   3.831   4.335
 1919TIP3   OH2 5713   3.022   1.141   0.169
 1919TIP3    H1 5714   3.013   1.144   0.074
 1919TIP3    H2 5715   3.070   1.060   0.185
 1920TIP3   OH2 5716   2.488   1.380   1.700
 1920TIP3    H1 5717   2.418   1.425   1.653
 1920TIP3    H2 5718   2.563   1.438   1.693
 1921TIP3   OH2 5719   6.257   7.714   5.522
 1921TIP3    H1 5720   6.182   7.748   5.474
 1921TIP3    H2 5721   6.245   7.619   5.522
 1922TIP3   OH2 5722   5.387   3.525   4.841
 1922TIP3    H1 5723   5.366   3.548   4.750
 1922TIP3    H2 5724   5.364   3.603   4.891
 1923TIP3   OH2 5725   7.532   3.957   6.327
 1923TIP3    H1 5726   7.471   4.027   6.348
 1923TIP3    H2 5727   7.481   3.877   6.338
 1924TIP3   OH2 5728   7.139   2.089   6.189
 1924TIP3    H1 5729   7.110   2.179   6.205
 1924TIP3    H2 5730   7.233   2.096   6.176
 1925TIP3   OH2 5731   1.376   2.887   0.715
 1925TIP3    H1 5732   1.438   2.947   0.674
 1925TIP3    H2 5733   1.290   2.926   0.699
 1926TIP3   OH2 5734   0.846   0.631   1.061
 1926TIP3    H1 5735   0.928   0.679   1.052
 1926TIP3    H2 5736   0.823   0.607   0.971
 1927TIP3   OH2 5737   4.447   5.955   4.631
 1927TIP3    H1 5738   4.504   5.895   4.680
 1927TIP3    H2 5739   4.497   5.978   4.553
 1928TIP3   OH2 5740   3.211   3.077   5.484
 1928TIP3    H1 5741   3.272   3.101   5.553
 1928TIP3    H2 5742   3.254   3.105   5.403
 1929TIP3   OH2 5743   4.521   2.835   3.167
 1929TIP3    H1 5744   4.595   2.816   3.224
 1929TIP3    H2 5745   4.489   2.749   3.140
 1930TIP3   OH2 5746   7.172   2.929   0.220
 1930TIP3    H1 5747   7.162   2.852   0.275
 1930TIP3    H2 5748   7.267   2.945   0.217
 1931TIP3   OH2 5749   5.713   2.994   2.006
 1931TIP3    H1 5750   5.723   2.989   1.911
 1931TIP3    H2 5751   5.622   2.971   2.022
 1932TIP3   OH2 5752   5.244   6.675   5.302
 1932TIP3    H1 5753   5.239   6.750   5.243
 1932TIP3    H2 5754   5.205   6.603   5.253
 1933TIP3   OH2 5755   4.672   1.302   5.984
 1933TIP3    H1 5756   4.768   1.299   5.989
 1933TIP3    H2 5757   4.646   1.348   6.064
 1934TIP3   OH2 5758   2.331   7.380   2.695
 1934TIP3    H1 5759   2.269   7.419   2.634
 1934TIP3    H2 5760   2.349   7.293   2.659
 1935TIP3   OH2 5761   0.681   7.237   1.684
 1935TIP3    H1 5762   0.736   7.160   1.697
 1935TIP3    H2 5763   0.635   7.248   1.768
 1936TIP3   OH2 5764   1.375   2.754   6.430
 1936TIP3    H1 5765   1.360   2.802   6.349
 1936TIP3    H2 5766   1.405   2.668   6.402
 1937TIP3   OH2 5767   0.233   0.717   3.144
 1937TIP3    H1 5768   0.154   0.663   3.155
 1937TIP3    H2 5769   0.200   0.807   3.140
 1938TIP3   OH2 5770   0.636   7.366   3.156
 1938TIP3    H1 5771   0.677   7.286   3.124
 1938TIP3    H2 5772   0.579   7.337   3.227
 1939TIP3   OH2 5773   4.204   5.233   4.903
 1939TIP3    H1 5774   4.214   5.328   4.910
 1939TIP3    H2 5775   4.161   5.219   4.819
 1940TIP3   OH2 5776   7.871   5.594   6.541
 1940TIP3    H1 5777   7.857   5.687   6.527
 1940TIP3    H2 5778   7.922   5.589   6.622
 1941TIP3   OH2 5779   1.879   4.162   5.603
 1941TIP3    H1 5780   1.913   4.095   5.663
 1941TIP3    H2 5781   1.784   4.157   5.613
 1942TIP3   OH2 5782   7.792   3.680   3.735
 1942TIP3    H1 5783   7.762   3.710   3.821
 1942TIP3    H2 5784   7.741   3.600   3.719
 1943TIP3   OH2 5785   0.301   0.934   5.884
 1943TIP3    H1 5786   0.338   0.897   5.804
 1943TIP3    H2 5787   0.233   0.994   5.852
 1944TIP3   OH2 5788   6.786   7.584   4.938
 1944TIP3    H1 5789   6.716   7.522   4.920
 1944TIP3    H2 5790   6.751   7.669   4.910
 1945TIP3   OH2 5791   2.970   5.455   0.761
 1945TIP3    H1 5792   2.986   5.463   0.667
 1945TIP3    H2 5793   2.938   5.366   0.772
 1946TIP3   OH2 5794   4.660   7.329   3.781
 1946TIP3    H1 5795   4.565   7.322   3.794
 1946TIP3    H2 5796   4.697   7.256   3.830
 1947TIP3   OH2 5797   2.874   4.122   2.295
 1947TIP3    H1 5798   2.815   4.048   2.282
 1947TIP3    H2 5799   2.910   4.140   2.208
 1948TIP3   OH2 5800   6.768   5.738   2.813
 1948TIP3    H1 5801   6.681   5.711   2.785
 1948TIP3    H2 5802   6.796   5.802   2.747
 1949TIP3   OH2 5803   0.727   2.816   3.314
 1949TIP3    H1 5804   0.747   2.838   3.223
 1949TIP3    H2 5805   0.647   2.864   3.334
 1950TIP3   OH2 5806   3.928   0.213   2.907
 1950TIP3    H1 5807   3.962   0.148   2.967
 1950TIP3    H2 5808   3.840   0.183   2.886
 1951TIP3   OH2 5809   3.832   0.647   5.696
 1951TIP3    H1 5810   3.743   0.644   5.659
 1951TIP3    H2 5811   3.822   0.609   5.784
 1952TIP3   OH2 5812   1.480   4.773   1.006
 1952TIP3    H1 5813   1.465   4.693   1.056
 1952TIP3    H2 5814   1.569   4.799   1.028
 1953TIP3   OH2 5815   3.958   7.873   2.356
 1953TIP3    H1 5816   4.048   7.902   2.368
 1953TIP3    H2 5817   3.943   7.811   2.427
 1954TIP3   OH2 5818   6.594   2.723   4.786
 1954TIP3    H1 5819   6.518   2.767   4.749
 1954TIP3    H2 5820   6.669   2.766   4.746
 1955TIP3   OH2 5821   7.124   1.025   0.823
 1955TIP3    H1 5822   7.179   0.953   0.790
 1955TIP3    H2 5823   7.046   1.022   0.768
 1956TIP3   OH2 5824   0.329   2.151   2.265
 1956TIP3    H1 5825   0.292   2.191   2.344
 1956TIP3    H2 5826   0.287   2.065   2.261
 1957TIP3   OH2 5827   6.630   6.797   6.024
 1957TIP3    H1 5828   6.703   6.849   5.990
 1957TIP3    H2 5829   6.567   6.861   6.055
 1958TIP3   OH2 5830   7.887   7.249   1.357
 1958TIP3    H1 5831   7.952   7.257   1.288
 1958TIP3    H2 5832   7.806   7.285   1.320
 1959TIP3   OH2 5833   7.900   3.596   2.024
 1959TIP3    H1 5834   7.945   3.623   1.944
 1959TIP3    H2 5835   7.870   3.507   2.006
 1960TIP3   OH2 5836   3.181   5.852   0.406
 1960TIP3    H1 5837   3.268   5.890   0.395
 1960TIP3    H2 5838   3.162   5.861   0.500
 1961TIP3   OH2 5839   4.338   1.128   2.405
 1961TIP3    H1 5840   4.298   1.165   2.326
 1961TIP3    H2 5841   4.275   1.063   2.436
 1962TIP3   OH2 5842   6.383   4.550   0.809
 1962TIP3    H1 5843   6.379   4.542   0.714
 1962TIP3    H2 5844   6.323   4.482   0.842
 1963TIP3   OH2 5845   1.782   7.400   5.835
 1963TIP3    H1 5846   1.803   7.411   5.743
 1963TIP3    H2 5847   1.686   7.404   5.839
 1964TIP3   OH2 5848   6.416   4.366   0.571
 1964TIP3    H1 5849   6.427   4.349   0.477
 1964TIP3    H2 5850   6.375   4.286   0.605
 1965TIP3   OH2 5851   5.860   6.261   3.021
 1965TIP3    H1 5852   5.804   6.308   3.082
 1965TIP3    H2 5853   5.814   6.267   2.937
 1966TIP3   OH2 5854   1.216   3.879   2.531
 1966TIP3    H1 5855   1.279   3.863   2.601
 1966TIP3    H2 5856   1.270   3.904   2.456
 1967TIP3   OH2 5857   1.614   0.315   4.664
 1967TIP3    H1 5858   1.662   0.262   4.728
 1967TIP3    H2 5859   1.537   0.346   4.711
 1968TIP3   OH2 5860   4.789   3.324   4.833
 1968TIP3    H1 5861   4.878   3.348   4.859
 1968TIP3    H2 5862   4.736   3.399   4.858
 1969TIP3   OH2 5863   4.313   2.964   3.676
 1969TIP3    H1 5864   4.309   3.004   3.589
 1969TIP3    H2 5865   4.381   3.012   3.722
 1970TIP3   OH2 5866   3.011   2.000   1.902
 1970TIP3    H1 5867   2.953   2.039   1.836
 1970TIP3    H2 5868   3.016   1.908   1.878
 1971TIP3   OH2 5869   4.074   2.360   1.810
 1971TIP3    H1 5870   4.004   2.416   1.777
 1971TIP3    H2 5871   4.152   2.387   1.762
 1972TIP3   OH2 5872   6.432   5.511   1.353
 1972TIP3    H1 5873   6.340   5.488   1.367
 1972TIP3    H2 5874   6.436   5.535   1.260
 1973TIP3   OH2 5875   5.692   6.606   5.721
 1973TIP3    H1 5876   5.658   6.526   5.762
 1973TIP3    H2 5877   5.786   6.589   5.710
 1974TIP3   OH2 5878   1.332   3.479   5.774
 1974TIP3    H1 5879   1.245   3.438   5.785
 1974TIP3    H2 5880   1.342   3.490   5.680
 1975TIP3   OH2 5881   0.499   4.068   0.114
 1975TIP3    H1 5882   0.520   4.040   0.024
 1975TIP3    H2 5883   0.419   4.020   0.135
 1976TIP3   OH2 5884   3.353   6.658   2.995
 1976TIP3    H1 5885   3.418   6.728   2.998
 1976TIP3    H2 5886   3.391   6.592   2.938
 1977TIP3   OH2 5887   0.773   2.667   2.969
 1977TIP3    H1 5888   0.788   2.667   2.875
 1977TIP3    H2 5889   0.680   2.687   2.978
 1978TIP3   OH2 5890   4.425   0.889   5.489
 1978TIP3    H1 5891   4.356   0.888   5.423
 1978TIP3    H2 5892   4.409   0.970   5.538
 1979TIP3   OH2 5893   7.799   3.609   5.895
 1979TIP3    H1 5894   7.720   3.662   5.910
 1979TIP3    H2 5895   7.871   3.672   5.897
 1980TIP3   OH2 5896   7.708   2.902   1.371
 1980TIP3    H1 5897   7.636   2.869   1.317
 1980TIP3    H2 5898   7.680   2.990   1.396
 1981TIP3   OH2 5899   7.014   1.672   6.692
 1981TIP3    H1 5900   7.076   1.678   6.619
 1981TIP3    H2 5901   7.070   1.663   6.769
 1982TIP3   OH2 5902   1.289   3.401   6.577
 1982TIP3    H1 5903   1.373   3.390   6.533
 1982TIP3    H2 5904   1.262   3.312   6.602
 1983TIP3   OH2 5905   2.129   7.509   3.104
 1983TIP3    H1 5906   2.159   7.599   3.115
 1983TIP3    H2 5907   2.048   7.516   3.054
 1984TIP3   OH2 5908   0.957   2.279   6.503
 1984TIP3    H1 5909   1.001   2.260   6.586
 1984TIP3    H2 5910   0.865   2.291   6.526
 1985TIP3   OH2 5911   3.936   1.871   3.111
 1985TIP3    H1 5912   3.900   1.847   3.026
 1985TIP3    H2 5913   3.886   1.948   3.138
 1986TIP3   OH2 5914   4.532   4.488   1.411
 1986TIP3    H1 5915   4.446   4.513   1.445
 1986TIP3    H2 5916   4.545   4.546   1.336
 1987TIP3   OH2 5917   4.993   4.334   2.678
 1987TIP3    H1 5918   5.068   4.291   2.638
 1987TIP3    H2 5919   5.016   4.427   2.680
 1988TIP3   OH2 5920   6.611   3.517   4.886
 1988TIP3    H1 5921   6.592   3.443   4.943
 1988TIP3    H2 5922   6.583   3.488   4.799
 1989TIP3   OH2 5923   5.116   7.212   0.350
 1989TIP3    H1 5924   5.103   7.306   0.338
 1989TIP3    H2 5925   5.202   7.205   0.390
 1990TIP3   OH2 5926   4.919   2.893   3.454
 1990TIP3    H1 5927   5.008   2.911   3.486
 1990TIP3    H2 5928   4.901   2.965   3.394
 1991TIP3   OH2 5929   0.166   6.251   1.897
 1991TIP3    H1 5930   0.136   6.201   1.821
 1991TIP3    H2 5931   0.122   6.335   1.890
 1992TIP3   OH2 5932   0.180   6.056   5.151
 1992TIP3    H1 5933   0.265   6.085   5.184
 1992TIP3    H2 5934   0.165   6.108   5.072
 1993TIP3   OH2 5935   4.171   5.354   2.267
 1993TIP3    H1 5936   4.157   5.262   2.290
 1993TIP3    H2 5937   4.085   5.385   2.239
 1994TIP3   OH2 5938   1.463   6.891   6.087
 1994TIP3    H1 5939   1.376   6.929   6.073
 1994TIP3    H2 5940   1.449   6.824   6.154
 1995TIP3   OH2 5941   5.745   5.829   6.135
 1995TIP3    H1 5942   5.827   5.850   6.180
 1995TIP3    H2 5943   5.682   5.817   6.206
 1996TIP3   OH2 5944   7.764   6.338   4.131
 1996TIP3    H1 5945   7.710   6.409   4.095
 1996TIP3    H2 5946   7.797   6.374   4.213
 1997TIP3   OH2 5947   8.082   3.325   1.609
 1997TIP3    H1 5948   8.108   3.254   1.550
 1997TIP3    H2 5949   8.002   3.361   1.569
 1998TIP3   OH2 5950   4.704   5.069   4.918
 1998TIP3    H1 5951   4.609   5.068   4.906
 1998TIP3    H2 5952   4.740   5.038   4.834
 1999TIP3   OH2 5953   5.392   2.753   1.520
 1999TIP3    H1 5954   5.313   2.730   1.471
 1999TIP3    H2 5955   5.365   2.825   1.577
 2000TIP3   OH2 5956   3.765   7.059   1.196
 2000TIP3    H1 5957   3.787   7.110   1.273
 2000TIP3    H2 5958   3.725   7.122   1.136
 2001TIP3   OH2 5959   7.590   5.410   3.828
 2001TIP3    H1 5960   7.568   5.355   3.752
 2001TIP3    H2 5961   7.631   5.488   3.790
 2002TIP3   OH2 5962   1.321   7.322   4.901
 2002TIP3    H1 5963   1.352   7.412   4.914
 2002TIP3    H2 5964   1.226   7.331   4.892
 2003TIP3   OH2 5965   7.926   6.281   1.225
 2003TIP3    H1 5966   7.907   6.342   1.154
 2003TIP3    H2 5967   7.846   6.280   1.277
 2004TIP3   OH2 5968   7.748   2.272   1.553
 2004TIP3    H1 5969   7.805   2.295   1.481
 2004TIP3    H2 5970   7.661   2.260   1.513
 2005TIP3   OH2 5971   2.180   5.218   6.181
 2005TIP3    H1 5972   2.142   5.149   6.128
 2005TIP3    H2 5973   2.272   5.221   6.154
 2006TIP3   OH2 5974   1.386   6.535   2.052
 2006TIP3    H1 5975   1.431   6.480   2.116
 2006TIP3    H2 5976   1.444   6.534   1.976
 2007TIP3   OH2 5977   0.516   5.347   1.180
 2007TIP3    H1 5978   0.433   5.390   1.203
 2007TIP3    H2 5979   0.495   5.294   1.104
 2008TIP3   OH2 5980   0.746   6.253   5.703
 2008TIP3    H1 5981   0.715   6.171   5.743
 2008TIP3    H2 5982   0.743   6.236   5.609
 2009TIP3   OH2 5983   2.882   6.186   6.555
 2009TIP3    H1 5984   2.955   6.154   6.609
 2009TIP3    H2 5985   2.825   6.110   6.543
 2010TIP3   OH2 5986   5.804   1.454   4.738
 2010TIP3    H1 5987   5.826   1.361   4.745
 2010TIP3    H2 5988   5.831   1.479   4.650
 2011TIP3   OH2 5989   0.238   5.783   3.820
 2011TIP3    H1 5990   0.166   5.840   3.792
 2011TIP3    H2 5991   0.200   5.727   3.888
 2012TIP3   OH2 5992   8.242   3.175   1.414
 2012TIP3    H1 5993   8.294   3.231   1.356
 2012TIP3    H2 5994   8.297   3.162   1.491
 2013TIP3   OH2 5995   6.491   7.533   1.339
 2013TIP3    H1 5996   6.580   7.565   1.326
 2013TIP3    H2 5997   6.502   7.442   1.367
 2014TIP3   OH2 5998   7.675   0.528   2.573
 2014TIP3    H1 5999   7.705   0.456   2.628
 2014TIP3    H2 6000   7.685   0.497   2.483
 2015TIP3   OH2 6001   1.390   4.123   6.317
 2015TIP3    H1 6002   1.297   4.130   6.294
 2015TIP3    H2 6003   1.390   4.122   6.413
 2016TIP3   OH2 6004   7.272   5.842   4.420
 2016TIP3    H1 6005   7.294   5.749   4.431
 2016TIP3    H2 6006   7.220   5.846   4.340
 2017TIP3   OH2 6007   6.635   1.580   4.648
 2017TIP3    H1 6008   6.667   1.498   4.686
 2017TIP3    H2 6009   6.667   1.648   4.708
 2018TIP3   OH2 6010   4.716   5.406   2.545
 2018TIP3    H1 6011   4.713   5.477   2.609
 2018TIP3    H2 6012   4.661   5.337   2.582
 2019TIP3   OH2 6013   4.597   3.864   3.242
 2019TIP3    H1 6014   4.596   3.862   3.146
 2019TIP3    H2 6015   4.655   3.937   3.263
 2020TIP3   OH2 6016   4.771   2.134   5.214
 2020TIP3    H1 6017   4.815   2.209   5.173
 2020TIP3    H2 6018   4.843   2.081   5.249
 2021TIP3   OH2 6019   1.149   6.264   1.934
 2021TIP3    H1 6020   1.091   6.337   1.910
 2021TIP3    H2 6021   1.161   6.272   2.028
 2022TIP3   OH2 6022   4.719   0.824   4.753
 2022TIP3    H1 6023   4.653   0.862   4.811
 2022TIP3    H2 6024   4.794   0.808   4.810
 2023TIP3   OH2 6025   4.601   3.498   0.637
 2023TIP3    H1 6026   4.564   3.488   0.725
 2023TIP3    H2 6027   4.533   3.544   0.587
 2024TIP3   OH2 6028   3.081   2.163   6.329
 2024TIP3    H1 6029   3.008   2.218   6.358
 2024TIP3    H2 6030   3.079   2.088   6.389
 2025TIP3   OH2 6031   1.481   2.686   1.066
 2025TIP3    H1 6032   1.415   2.617   1.075
 2025TIP3    H2 6033   1.516   2.697   1.154
 2026TIP3   OH2 6034   3.954   0.605   1.301
 2026TIP3    H1 6035   3.939   0.643   1.388
 2026TIP3    H2 6036   3.871   0.618   1.255
 2027TIP3   OH2 6037   7.132   3.262   3.560
 2027TIP3    H1 6038   7.141   3.320   3.636
 2027TIP3    H2 6039   7.076   3.311   3.499
 2028TIP3   OH2 6040   3.304   3.200   2.773
 2028TIP3    H1 6041   3.335   3.150   2.849
 2028TIP3    H2 6042   3.228   3.248   2.805
 2029TIP3   OH2 6043   2.604   2.889   1.284
 2029TIP3    H1 6044   2.578   2.859   1.371
 2029TIP3    H2 6045   2.697   2.871   1.278
 2030TIP3   OH2 6046   3.911   4.494   1.947
 2030TIP3    H1 6047   4.006   4.479   1.945
 2030TIP3    H2 6048   3.901   4.589   1.950
 2031TIP3   OH2 6049   6.738   5.618   3.202
 2031TIP3    H1 6050   6.745   5.594   3.294
 2031TIP3    H2 6051   6.828   5.618   3.170
 2032TIP3   OH2 6052   6.607   1.634   2.666
 2032TIP3    H1 6053   6.594   1.665   2.576
 2032TIP3    H2 6054   6.691   1.587   2.663
 2033TIP3   OH2 6055   5.579   0.277   4.995
 2033TIP3    H1 6056   5.623   0.337   5.056
 2033TIP3    H2 6057   5.572   0.195   5.044
 2034TIP3   OH2 6058   4.767   0.469   1.413
 2034TIP3    H1 6059   4.686   0.477   1.364
 2034TIP3    H2 6060   4.764   0.380   1.449
 2035TIP3   OH2 6061   3.935   5.666   0.655
 2035TIP3    H1 6062   3.917   5.572   0.660
 2035TIP3    H2 6063   3.954   5.692   0.745
 2036TIP3   OH2 6064   3.209   5.995   1.867
 2036TIP3    H1 6065   3.135   6.045   1.902
 2036TIP3    H2 6066   3.177   5.960   1.784
 2037TIP3   OH2 6067   4.600   5.297   5.789
 2037TIP3    H1 6068   4.561   5.350   5.719
 2037TIP3    H2 6069   4.554   5.325   5.868
 2038TIP3   OH2 6070   5.136   7.486   3.710
 2038TIP3    H1 6071   5.143   7.578   3.684
 2038TIP3    H2 6072   5.213   7.470   3.764
 2039TIP3   OH2 6073   2.309   6.337   5.131
 2039TIP3    H1 6074   2.273   6.404   5.189
 2039TIP3    H2 6075   2.396   6.319   5.166
 2040TIP3   OH2 6076   3.280   4.226   5.797
 2040TIP3    H1 6077   3.283   4.266   5.710
 2040TIP3    H2 6078   3.222   4.283   5.848
 2041TIP3   OH2 6079   2.094   2.319   0.258
 2041TIP3    H1 6080   2.047   2.398   0.283
 2041TIP3    H2 6081   2.030   2.249   0.264
 2042TIP3   OH2 6082   4.646   2.570   2.699
 2042TIP3    H1 6083   4.625   2.636   2.764
 2042TIP3    H2 6084   4.626   2.486   2.741
 2043TIP3   OH2 6085   3.804   3.687   6.699
 2043TIP3    H1 6086   3.841   3.599   6.697
 2043TIP3    H2 6087   3.848   3.733   6.627
 2044TIP3   OH2 6088   4.639   1.279   6.312
 2044TIP3    H1 6089   4.729   1.308   6.296
 2044TIP3    H2 6090   4.635   1.268   6.407
 2045TIP3   OH2 6091   5.730   1.383   3.941
 2045TIP3    H1 6092   5.682   1.452   3.986
 2045TIP3    H2 6093   5.676   1.305   3.950
 2046TIP3   OH2 6094   0.424   2.219   6.114
 2046TIP3    H1 6095   0.422   2.206   6.209
 2046TIP3    H2 6096   0.337   2.253   6.093
 2047TIP3   OH2 6097   1.576   4.523   1.056
 2047TIP3    H1 6098   1.600   4.466   1.129
 2047TIP3    H2 6099   1.621   4.485   0.980
 2048TIP3   OH2 6100   5.640   6.019   3.142
 2048TIP3    H1 6101   5.676   6.016   3.230
 2048TIP3    H2 6102   5.698   5.962   3.090
 2049TIP3   OH2 6103   2.934   0.396   1.749
 2049TIP3    H1 6104   2.983   0.424   1.826
 2049TIP3    H2 6105   3.000   0.392   1.679
 2050TIP3   OH2 6106   7.029   4.349   5.813
 2050TIP3    H1 6107   7.049   4.256   5.823
 2050TIP3    H2 6108   7.103   4.394   5.854
 2051TIP3   OH2 6109   7.808   0.884   0.611
 2051TIP3    H1 6110   7.865   0.888   0.689
 2051TIP3    H2 6111   7.840   0.808   0.562
 2052TIP3   OH2 6112   5.044   7.100   3.801
 2052TIP3    H1 6113   5.101   7.032   3.767
 2052TIP3    H2 6114   4.968   7.053   3.835
 2053TIP3   OH2 6115   6.638   3.007   1.864
 2053TIP3    H1 6116   6.683   3.027   1.782
 2053TIP3    H2 6117   6.548   3.038   1.849
 2054TIP3   OH2 6118   6.778   0.140   5.886
 2054TIP3    H1 6119   6.779   0.066   5.947
 2054TIP3    H2 6120   6.692   0.134   5.843
 2055TIP3   OH2 6121   7.327   3.997   6.076
 2055TIP3    H1 6122   7.410   4.045   6.075
 2055TIP3    H2 6123   7.284   4.025   6.156
 2056TIP3   OH2 6124   7.482   1.625   4.096
 2056TIP3    H1 6125   7.575   1.629   4.077
 2056TIP3    H2 6126   7.476   1.586   4.183
 2057TIP3   OH2 6127   6.904   0.572   2.620
 2057TIP3    H1 6128   6.833   0.515   2.590
 2057TIP3    H2 6129   6.862   0.657   2.634
 2058TIP3   OH2 6130   8.262   0.195   6.213
 2058TIP3    H1 6131   8.262   0.111   6.168
 2058TIP3    H2 6132   8.194   0.246   6.170
 2059TIP3   OH2 6133   3.060   3.252   1.970
 2059TIP3    H1 6134   3.037   3.253   1.877
 2059TIP3    H2 6135   3.009   3.324   2.007
 2060TIP3   OH2 6136   0.651   7.263   1.137
 2060TIP3    H1 6137   0.648   7.292   1.228
 2060TIP3    H2 6138   0.580   7.199   1.130
 2061TIP3   OH2 6139   6.603   2.991   2.410
 2061TIP3    H1 6140   6.567   2.903   2.404
 2061TIP3    H2 6141   6.695   2.981   2.384
 2062TIP3   OH2 6142   1.259   0.401   5.368
 2062TIP3    H1 6143   1.293   0.387   5.456
 2062TIP3    H2 6144   1.289   0.324   5.319
 2063TIP3   OH2 6145   7.281   1.197   2.701
 2063TIP3    H1 6146   7.246   1.137   2.767
 2063TIP3    H2 6147   7.293   1.280   2.749
 2064TIP3   OH2 6148   8.149   4.934   5.334
 2064TIP3    H1 6149   8.092   4.919   5.258
 2064TIP3    H2 6150   8.129   4.863   5.394
 2065TIP3   OH2 6151   6.083   1.450   2.174
 2065TIP3    H1 6152   6.118   1.519   2.230
 2065TIP3    H2 6153   6.160   1.399   2.148
 2066TIP3   OH2 6154   7.668   7.189   5.847
 2066TIP3    H1 6155   7.688   7.159   5.936
 2066TIP3    H2 6156   7.598   7.131   5.818
 2067TIP3   OH2 6157   2.104   5.545   3.943
 2067TIP3    H1 6158   2.086   5.582   3.857
 2067TIP3    H2 6159   2.195   5.518   3.939
 2068TIP3   OH2 6160   0.248   2.454   6.562
 2068TIP3    H1 6161   0.212   2.541   6.582
 2068TIP3    H2 6162   0.233   2.443   6.469
 2069TIP3   OH2 6163   3.092   4.049   5.520
 2069TIP3    H1 6164   3.140   4.117   5.568
 2069TIP3    H2 6165   3.087   4.082   5.431
 2070TIP3   OH2 6166   4.961   6.986   6.726
 2070TIP3    H1 6167   5.020   6.973   6.799
 2070TIP3    H2 6168   4.975   7.077   6.699
 2071TIP3   OH2 6169   1.653   3.733   2.258
 2071TIP3    H1 6170   1.672   3.821   2.225
 2071TIP3    H2 6171   1.642   3.680   2.179
 2072TIP3   OH2 6172   1.932   4.611   6.655
 2072TIP3    H1 6173   1.885   4.593   6.573
 2072TIP3    H2 6174   1.930   4.706   6.664
 2073TIP3   OH2 6175   7.631   1.380   1.102
 2073TIP3    H1 6176   7.696   1.312   1.122
 2073TIP3    H2 6177   7.646   1.400   1.009
 2074TIP3   OH2 6178   0.882   3.940   1.887
 2074TIP3    H1 6179   0.886   4.031   1.916
 2074TIP3    H2 6180   0.789   3.919   1.885
 2075TIP3   OH2 6181   5.126   6.769   0.380
 2075TIP3    H1 6182   5.158   6.840   0.435
 2075TIP3    H2 6183   5.106   6.698   0.440
 2076TIP3   OH2 6184   4.030   7.006   2.715
 2076TIP3    H1 6185   4.105   7.052   2.752
 2076TIP3    H2 6186   3.959   7.070   2.716
 2077TIP3   OH2 6187   4.496   7.801   1.463
 2077TIP3    H1 6188   4.475   7.867   1.529
 2077TIP3    H2 6189   4.455   7.833   1.383
 2078TIP3   OH2 6190   7.686   6.155   0.355
 2078TIP3    H1 6191   7.758   6.188   0.409
 2078TIP3    H2 6192   7.721   6.077   0.312
 2079TIP3   OH2 6193   2.270   1.140   0.064
 2079TIP3    H1 6194   2.234   1.193   0.135
 2079TIP3    H2 6195   2.226   1.173  -0.015
 2080TIP3   OH2 6196   6.663   6.947   2.221
 2080TIP3    H1 6197   6.604   6.882   2.260
 2080TIP3    H2 6198   6.702   6.902   2.146
 2081TIP3   OH2 6199   7.448   0.591   2.928
 2081TIP3    H1 6200   7.471   0.650   2.857
 2081TIP3    H2 6201   7.519   0.600   2.991
 2082TIP3   OH2 6202   6.519   0.555   5.667
 2082TIP3    H1 6203   6.608   0.530   5.644
 2082TIP3    H2 6204   6.508   0.527   5.758
 2083TIP3   OH2 6205   2.096   7.124   4.039
 2083TIP3    H1 6206   2.099   7.217   4.062
 2083TIP3    H2 6207   2.186   7.104   4.012
 2084TIP3   OH2 6208   4.522   2.737   3.620
 2084TIP3    H1 6209   4.586   2.695   3.678
 2084TIP3    H2 6210   4.553   2.827   3.612
 2085TIP3   OH2 6211   0.181   1.981   6.313
 2085TIP3    H1 6212   0.261   1.987   6.261
 2085TIP3    H2 6213   0.157   1.888   6.309
 2086TIP3   OH2 6214   4.503   5.250   2.176
 2086TIP3    H1 6215   4.420   5.246   2.223
 2086TIP3    H2 6216   4.539   5.162   2.184
 2087TIP3   OH2 6217   4.532   7.428   2.139
 2087TIP3    H1 6218   4.530   7.335   2.117
 2087TIP3    H2 6219   4.546   7.430   2.234
 2088TIP3   OH2 6220   8.184   7.668   6.171
 2088TIP3    H1 6221   8.240   7.661   6.094
 2088TIP3    H2 6222   8.241   7.705   6.238
 2089TIP3   OH2 6223   0.206   3.353   6.141
 2089TIP3    H1 6224   0.264   3.296   6.192
 2089TIP3    H2 6225   0.138   3.293   6.108
 2090TIP3   OH2 6226   3.119   1.677   0.884
 2090TIP3    H1 6227   3.067   1.681   0.964
 2090TIP3    H2 6228   3.208   1.698   0.913
 2091TIP3   OH2 6229   2.554   0.224   1.427
 2091TIP3    H1 6230   2.628   0.278   1.403
 2091TIP3    H2 6231   2.517   0.194   1.344
 2092TIP3   OH2 6232   6.928   1.801   1.692
 2092TIP3    H1 6233   7.005   1.851   1.668
 2092TIP3    H2 6234   6.862   1.824   1.626
 2093TIP3   OH2 6235   6.559   5.470   6.028
 2093TIP3    H1 6236   6.649   5.456   6.058
 2093TIP3    H2 6237   6.543   5.399   5.966
 2094TIP3   OH2 6238   1.650   1.292   3.817
 2094TIP3    H1 6239   1.606   1.363   3.771
 2094TIP3    H2 6240   1.712   1.257   3.753
 2095TIP3   OH2 6241   4.276   2.017   4.516
 2095TIP3    H1 6242   4.269   1.923   4.498
 2095TIP3    H2 6243   4.347   2.048   4.460
 2096TIP3   OH2 6244   1.540   1.237   4.926
 2096TIP3    H1 6245   1.483   1.163   4.904
 2096TIP3    H2 6246   1.503   1.275   5.005
 2097TIP3   OH2 6247   0.912   3.470   1.535
 2097TIP3    H1 6248   0.952   3.518   1.463
 2097TIP3    H2 6249   0.899   3.536   1.604
 2098TIP3   OH2 6250   0.420   6.915   6.256
 2098TIP3    H1 6251   0.482   6.945   6.189
 2098TIP3    H2 6252   0.367   6.992   6.277
 2099TIP3   OH2 6253   3.071   7.203   1.428
 2099TIP3    H1 6254   3.040   7.219   1.517
 2099TIP3    H2 6255   3.045   7.113   1.409
 2100TIP3   OH2 6256   2.564   5.768   3.736
 2100TIP3    H1 6257   2.660   5.765   3.745
 2100TIP3    H2 6258   2.549   5.769   3.642
 2101TIP3   OH2 6259   2.811   4.026   5.156
 2101TIP3    H1 6260   2.740   3.961   5.155
 2101TIP3    H2 6261   2.845   4.025   5.066
 2102TIP3   OH2 6262   6.824   1.531   1.025
 2102TIP3    H1 6263   6.828   1.547   1.120
 2102TIP3    H2 6264   6.903   1.574   0.991
 2103TIP3   OH2 6265   1.748   0.981   2.260
 2103TIP3    H1 6266   1.674   0.929   2.289
 2103TIP3    H2 6267   1.739   1.064   2.307
 2104TIP3   OH2 6268   3.647   2.029   5.457
 2104TIP3    H1 6269   3.574   2.074   5.499
 2104TIP3    H2 6270   3.619   2.015   5.367
 2105TIP3   OH2 6271   8.009   4.416   0.641
 2105TIP3    H1 6272   7.995   4.350   0.709
 2105TIP3    H2 6273   8.084   4.382   0.591
 2106TIP3   OH2 6274   6.143   1.893   5.797
 2106TIP3    H1 6275   6.104   1.935   5.720
 2106TIP3    H2 6276   6.226   1.859   5.766
 2107TIP3   OH2 6277   3.710   5.574   6.458
 2107TIP3    H1 6278   3.771   5.530   6.399
 2107TIP3    H2 6279   3.752   5.569   6.544
 2108TIP3   OH2 6280   6.454   0.613   2.173
 2108TIP3    H1 6281   6.477   0.538   2.119
 2108TIP3    H2 6282   6.372   0.589   2.214
 2109TIP3   OH2 6283   8.219   6.554   4.669
 2109TIP3    H1 6284   8.239   6.566   4.576
 2109TIP3    H2 6285   8.198   6.461   4.676
 2110TIP3   OH2 6286   4.530   2.721   2.500
 2110TIP3    H1 6287   4.563   2.685   2.582
 2110TIP3    H2 6288   4.602   2.712   2.438
 2111TIP3   OH2 6289   2.735   4.797   2.577
 2111TIP3    H1 6290   2.640   4.790   2.586
 2111TIP3    H2 6291   2.769   4.776   2.664
 2112TIP3   OH2 6292   0.187   0.944   4.549
 2112TIP3    H1 6293   0.200   0.990   4.466
 2112TIP3    H2 6294   0.253   0.981   4.608
 2113TIP3   OH2 6295   7.525   5.114   4.832
 2113TIP3    H1 6296   7.554   5.157   4.913
 2113TIP3    H2 6297   7.594   5.050   4.813
 2114TIP3   OH2 6298   7.330   0.954   6.427
 2114TIP3    H1 6299   7.356   0.861   6.430
 2114TIP3    H2 6300   7.412   1.002   6.437
 2115TIP3   OH2 6301   0.240   2.380   5.244
 2115TIP3    H1 6302   0.179   2.400   5.172
 2115TIP3    H2 6303   0.283   2.463   5.262
 2116TIP3   OH2 6304   4.860   3.348   6.446
 2116TIP3    H1 6305   4.807   3.289   6.393
 2116TIP3    H2 6306   4.950   3.325   6.426
 2117TIP3   OH2 6307   5.088   4.663   4.384
 2117TIP3    H1 6308   5.155   4.697   4.324
 2117TIP3    H2 6309   5.015   4.639   4.327
 2118TIP3   OH2 6310   4.588   5.830   3.452
 2118TIP3    H1 6311   4.501   5.825   3.412
 2118TIP3    H2 6312   4.642   5.772   3.399
 2119TIP3   OH2 6313   0.879   0.930   6.645
 2119TIP3    H1 6314   0.912   0.848   6.607
 2119TIP3    H2 6315   0.940   0.949   6.716
 2120TIP3   OH2 6316   4.807   3.254   2.940
 2120TIP3    H1 6317   4.716   3.275   2.918
 2120TIP3    H2 6318   4.801   3.176   2.995
 2121TIP3   OH2 6319   1.383   6.134   1.873
 2121TIP3    H1 6320   1.292   6.154   1.894
 2121TIP3    H2 6321   1.395   6.044   1.905
 2122TIP3   OH2 6322   0.727   3.061   0.164
 2122TIP3    H1 6323   0.730   3.152   0.136
 2122TIP3    H2 6324   0.807   3.022   0.128
 2123TIP3   OH2 6325   7.977   6.418   2.735
 2123TIP3    H1 6326   7.926   6.491   2.699
 2123TIP3    H2 6327   7.914   6.366   2.784
 2124TIP3   OH2 6328   6.809   2.770   0.271
 2124TIP3    H1 6329   6.895   2.778   0.229
 2124TIP3    H2 6330   6.826   2.723   0.352
 2125TIP3   OH2 6331   7.537   6.356   0.241
 2125TIP3    H1 6332   7.577   6.282   0.286
 2125TIP3    H2 6333   7.491   6.317   0.167
 2126TIP3   OH2 6334   0.920   4.692   1.798
 2126TIP3    H1 6335   0.835   4.734   1.811
 2126TIP3    H2 6336   0.984   4.760   1.822
 2127TIP3   OH2 6337   4.507   0.355   1.811
 2127TIP3    H1 6338   4.553   0.296   1.753
 2127TIP3    H2 6339   4.506   0.310   1.896
 2128TIP3   OH2 6340   0.491   7.511   4.460
 2128TIP3    H1 6341   0.579   7.473   4.456
 2128TIP3    H2 6342   0.432   7.435   4.464
 2129TIP3   OH2 6343   0.529   1.062   1.942
 2129TIP3    H1 6344   0.567   1.147   1.964
 2129TIP3    H2 6345   0.520   1.064   1.847
 2130TIP3   OH2 6346   3.700   4.859   5.511
 2130TIP3    H1 6347   3.659   4.900   5.435
 2130TIP3    H2 6348   3.639   4.790   5.538
 2131TIP3   OH2 6349   5.565   1.773   1.589
 2131TIP3    H1 6350   5.483   1.822   1.590
 2131TIP3    H2 6351   5.559   1.718   1.511
 2132TIP3   OH2 6352   0.700   2.272   2.464
 2132TIP3    H1 6353   0.748   2.220   2.400
 2132TIP3    H2 6354   0.722   2.363   2.443
 2133TIP3   OH2 6355   1.134   5.711   0.620
 2133TIP3    H1 6356   1.121   5.805   0.631
 2133TIP3    H2 6357   1.228   5.698   0.637
 2134TIP3   OH2 6358   0.139   4.267   4.216
 2134TIP3    H1 6359   0.151   4.346   4.268
 2134TIP3    H2 6360   0.107   4.298   4.131
 2135TIP3   OH2 6361   0.780   5.842   6.434
 2135TIP3    H1 6362   0.692   5.856   6.400
 2135TIP3    H2 6363   0.804   5.755   6.402
 2136TIP3   OH2 6364   1.803   7.715   3.115
 2136TIP3    H1 6365   1.880   7.773   3.118
 2136TIP3    H2 6366   1.820   7.650   3.184
 2137TIP3   OH2 6367   1.530   5.146   0.016
 2137TIP3    H1 6368   1.436   5.138   0.028
 2137TIP3    H2 6369   1.563   5.056   0.017
 2138TIP3   OH2 6370   1.374   0.523   3.725
 2138TIP3    H1 6371   1.383   0.600   3.782
 2138TIP3    H2 6372   1.453   0.523   3.672
 2139TIP3   OH2 6373   3.321   6.871   3.543
 2139TIP3    H1 6374   3.390   6.829   3.492
 2139TIP3    H2 6375   3.272   6.923   3.478
 2140TIP3   OH2 6376   3.397   7.596   2.230
 2140TIP3    H1 6377   3.357   7.562   2.310
 2140TIP3    H2 6378   3.462   7.530   2.206
 2141TIP3   OH2 6379   2.607   3.253   3.406
 2141TIP3    H1 6380   2.633   3.250   3.314
 2141TIP3    H2 6381   2.550   3.329   3.413
 2142TIP3   OH2 6382   2.542   0.519   5.292
 2142TIP3    H1 6383   2.454   0.489   5.268
 2142TIP3    H2 6384   2.544   0.611   5.265
 2143TIP3   OH2 6385   1.297   3.836   1.456
 2143TIP3    H1 6386   1.288   3.765   1.520
 2143TIP3    H2 6387   1.387   3.830   1.426
 2144TIP3   OH2 6388   4.786   0.036   6.743
 2144TIP3    H1 6389   4.695   0.044   6.712
 2144TIP3    H2 6390   4.830   0.112   6.705
 2145TIP3   OH2 6391   5.355   1.608   2.082
 2145TIP3    H1 6392   5.278   1.646   2.039
 2145TIP3    H2 6393   5.418   1.595   2.011
 2146TIP3   OH2 6394   1.213   6.593   4.816
 2146TIP3    H1 6395   1.248   6.676   4.849
 2146TIP3    H2 6396   1.121   6.612   4.797
 2147TIP3   OH2 6397   4.296   1.469   1.364
 2147TIP3    H1 6398   4.321   1.447   1.274
 2147TIP3    H2 6399   4.201   1.473   1.363
 2148TIP3   OH2 6400   5.459   2.688   3.095
 2148TIP3    H1 6401   5.484   2.664   3.005
 2148TIP3    H2 6402   5.365   2.670   3.099
 2149TIP3   OH2 6403   5.617   2.930   3.018
 2149TIP3    H1 6404   5.572   2.931   2.934
 2149TIP3    H2 6405   5.582   2.853   3.063
 2150TIP3   OH2 6406   4.039   4.032   5.941
 2150TIP3    H1 6407   3.961   4.065   5.897
 2150TIP3    H2 6408   4.020   4.037   6.034
 2151TIP3   OH2 6409   3.756   5.697   1.044
 2151TIP3    H1 6410   3.732   5.660   1.128
 2151TIP3    H2 6411   3.717   5.638   0.979
 2152TIP3   OH2 6412   4.677   2.038   6.586
 2152TIP3    H1 6413   4.743   2.005   6.646
 2152TIP3    H2 6414   4.726   2.081   6.516
 2153TIP3   OH2 6415   2.488   6.822   2.817
 2153TIP3    H1 6416   2.524   6.773   2.744
 2153TIP3    H2 6417   2.399   6.789   2.828
 2154TIP3   OH2 6418   5.494   1.867   3.956
 2154TIP3    H1 6419   5.570   1.843   3.903
 2154TIP3    H2 6420   5.420   1.860   3.896
 2155TIP3   OH2 6421   1.993   1.798   2.913
 2155TIP3    H1 6422   1.949   1.883   2.914
 2155TIP3    H2 6423   2.080   1.815   2.949
 2156TIP3   OH2 6424   2.991   5.301   4.251
 2156TIP3    H1 6425   2.951   5.249   4.321
 2156TIP3    H2 6426   2.921   5.359   4.221
 2157TIP3   OH2 6427   6.278   4.141   3.244
 2157TIP3    H1 6428   6.312   4.119   3.158
 2157TIP3    H2 6429   6.356   4.150   3.299
 2158TIP3   OH2 6430   3.714   0.152   2.236
 2158TIP3    H1 6431   3.700   0.099   2.158
 2158TIP3    H2 6432   3.756   0.092   2.298
 2159TIP3   OH2 6433   2.653   1.012   2.670
 2159TIP3    H1 6434   2.709   0.967   2.733
 2159TIP3    H2 6435   2.590   1.061   2.725
 2160TIP3   OH2 6436   4.389   4.879   1.673
 2160TIP3    H1 6437   4.319   4.815   1.682
 2160TIP3    H2 6438   4.423   4.865   1.585
 2161TIP3   OH2 6439   6.888   1.028   4.858
 2161TIP3    H1 6440   6.878   1.122   4.876
 2161TIP3    H2 6441   6.966   1.023   4.803
 2162TIP3   OH2 6442   8.070   7.023   6.058
 2162TIP3    H1 6443   8.103   6.976   5.981
 2162TIP3    H2 6444   8.032   6.954   6.113
 2163TIP3   OH2 6445   8.198   1.700   4.228
 2163TIP3    H1 6446   8.119   1.719   4.279
 2163TIP3    H2 6447   8.174   1.721   4.138
 2164TIP3   OH2 6448   8.061   2.051   2.392
 2164TIP3    H1 6449   7.996   2.078   2.456
 2164TIP3    H2 6450   8.144   2.053   2.440
 2165TIP3   OH2 6451   3.313   2.887   2.866
 2165TIP3    H1 6452   3.310   2.792   2.860
 2165TIP3    H2 6453   3.223   2.913   2.885
 2166TIP3   OH2 6454   0.241   7.027   0.683
 2166TIP3    H1 6455   0.273   7.094   0.743
 2166TIP3    H2 6456   0.259   7.061   0.596
 2167TIP3   OH2 6457   2.268   1.033   0.682
 2167TIP3    H1 6458   2.346   0.983   0.704
 2167TIP3    H2 6459   2.248   1.083   0.761
 2168TIP3   OH2 6460   6.546   6.808   6.390
 2168TIP3    H1 6461   6.636   6.836   6.407
 2168TIP3    H2 6462   6.522   6.852   6.309
 2169TIP3   OH2 6463   0.100   7.541   3.005
 2169TIP3    H1 6464   0.107   7.635   3.021
 2169TIP3    H2 6465   0.091   7.503   3.092
 2170TIP3   OH2 6466   3.619   7.262   4.808
 2170TIP3    H1 6467   3.543   7.283   4.753
 2170TIP3    H2 6468   3.683   7.228   4.746
 2171TIP3   OH2 6469   5.867   3.556   6.132
 2171TIP3    H1 6470   5.809   3.485   6.161
 2171TIP3    H2 6471   5.953   3.532   6.167
 2172TIP3   OH2 6472   6.974   2.852   0.045
 2172TIP3    H1 6473   7.040   2.900   0.095
 2172TIP3    H2 6474   6.944   2.916  -0.020
 2173TIP3   OH2 6475   5.602   1.271   6.320
 2173TIP3    H1 6476   5.574   1.255   6.410
 2173TIP3    H2 6477   5.520   1.279   6.271
 2174TIP3   OH2 6478   6.207   1.068   4.376
 2174TIP3    H1 6479   6.268   1.041   4.444
 2174TIP3    H2 6480   6.141   1.119   4.422
 2175TIP3   OH2 6481   6.034   6.906   2.541
 2175TIP3    H1 6482   6.064   6.910   2.632
 2175TIP3    H2 6483   5.938   6.910   2.547
 2176TIP3   OH2 6484   5.248   5.338   6.681
 2176TIP3    H1 6485   5.277   5.311   6.768
 2176TIP3    H2 6486   5.219   5.256   6.639
 2177TIP3   OH2 6487   4.766   7.560   1.073
 2177TIP3    H1 6488   4.859   7.540   1.073
 2177TIP3    H2 6489   4.758   7.637   1.130
 2178TIP3   OH2 6490   1.245   4.481   5.091
 2178TIP3    H1 6491   1.189   4.556   5.114
 2178TIP3    H2 6492   1.331   4.520   5.073
 2179TIP3   OH2 6493   2.430   7.139   2.593
 2179TIP3    H1 6494   2.358   7.090   2.633
 2179TIP3    H2 6495   2.444   7.097   2.508
 2180TIP3   OH2 6496   1.861   0.568   5.258
 2180TIP3    H1 6497   1.841   0.623   5.182
 2180TIP3    H2 6498   1.912   0.495   5.222
 2181TIP3   OH2 6499   2.595   5.254   6.063
 2181TIP3    H1 6500   2.652   5.178   6.053
 2181TIP3    H2 6501   2.650   5.329   6.041
 2182TIP3   OH2 6502   7.910   3.976   0.102
 2182TIP3    H1 6503   7.964   4.035   0.049
 2182TIP3    H2 6504   7.963   3.958   0.180
 2183TIP3   OH2 6505   7.919   2.097   6.699
 2183TIP3    H1 6506   7.854   2.147   6.750
 2183TIP3    H2 6507   7.898   2.006   6.718
 2184TIP3   OH2 6508   6.209   7.652   4.954
 2184TIP3    H1 6509   6.290   7.687   4.992
 2184TIP3    H2 6510   6.210   7.559   4.976
 2185TIP3   OH2 6511   1.069   5.558   0.396
 2185TIP3    H1 6512   1.097   5.617   0.466
 2185TIP3    H2 6513   1.082   5.470   0.431
 2186TIP3   OH2 6514   1.009   0.843   3.696
 2186TIP3    H1 6515   0.928   0.893   3.711
 2186TIP3    H2 6516   1.078   0.908   3.707
 2187TIP3   OH2 6517   2.260   7.262   5.378
 2187TIP3    H1 6518   2.237   7.289   5.467
 2187TIP3    H2 6519   2.263   7.167   5.382
 2188TIP3   OH2 6520   4.868  -0.071   3.198
 2188TIP3    H1 6521   4.955  -0.031   3.208
 2188TIP3    H2 6522   4.845  -0.098   3.287
 2189TIP3   OH2 6523   0.016   2.670   6.114
 2189TIP3    H1 6524  -0.008   2.755   6.151
 2189TIP3    H2 6525   0.089   2.640   6.169
 2190TIP3   OH2 6526   2.701   6.888   0.923
 2190TIP3    H1 6527   2.735   6.811   0.878
 2190TIP3    H2 6528   2.772   6.952   0.918
 2191TIP3   OH2 6529   2.626   3.755   1.329
 2191TIP3    H1 6530   2.686   3.764   1.403
 2191TIP3    H2 6531   2.638   3.665   1.299
 2192TIP3   OH2 6532   0.908   1.057   6.373
 2192TIP3    H1 6533   0.908   1.020   6.462
 2192TIP3    H2 6534   1.001   1.065   6.351
 2193TIP3   OH2 6535   3.631   5.178   6.359
 2193TIP3    H1 6536   3.658   5.152   6.270
 2193TIP3    H2 6537   3.598   5.267   6.348
 2194TIP3   OH2 6538   3.254   3.606   0.559
 2194TIP3    H1 6539   3.200   3.545   0.609
 2194TIP3    H2 6540   3.192   3.661   0.511
 2195TIP3   OH2 6541   7.016   1.237   6.190
 2195TIP3    H1 6542   7.085   1.211   6.130
 2195TIP3    H2 6543   7.044   1.202   6.275
 2196TIP3   OH2 6544   4.236   1.087   1.501
 2196TIP3    H1 6545   4.329   1.093   1.523
 2196TIP3    H2 6546   4.190   1.127   1.576
 2197TIP3   OH2 6547   4.775   0.873   0.787
 2197TIP3    H1 6548   4.767   0.782   0.818
 2197TIP3    H2 6549   4.701   0.918   0.829
 2198TIP3   OH2 6550   2.047   1.910   0.475
 2198TIP3    H1 6551   2.095   1.859   0.410
 2198TIP3    H2 6552   1.958   1.876   0.471
 2199TIP3   OH2 6553   2.988   4.458   0.421
 2199TIP3    H1 6554   2.942   4.415   0.493
 2199TIP3    H2 6555   3.080   4.456   0.448
 2200TIP3   OH2 6556   0.946   2.688   4.969
 2200TIP3    H1 6557   0.904   2.676   4.884
 2200TIP3    H2 6558   0.933   2.605   5.015
 2201TIP3   OH2 6559   3.781   5.171   0.198
 2201TIP3    H1 6560   3.774   5.212   0.284
 2201TIP3    H2 6561   3.775   5.244   0.136
 2202TIP3   OH2 6562   0.880   2.095   4.339
 2202TIP3    H1 6563   0.824   2.039   4.392
 2202TIP3    H2 6564   0.943   2.133   4.401
 2203TIP3   OH2 6565   7.352   2.971   2.375
 2203TIP3    H1 6566   7.362   3.001   2.285
 2203TIP3    H2 6567   7.328   2.879   2.367
 2204TIP3   OH2 6568   2.624   3.551   0.031
 2204TIP3    H1 6569   2.650   3.565  -0.061
 2204TIP3    H2 6570   2.562   3.622   0.049
 2205TIP3   OH2 6571   1.636   7.760   4.038
 2205TIP3    H1 6572   1.599   7.757   3.950
 2205TIP3    H2 6573   1.573   7.811   4.089
 2206TIP3   OH2 6574   8.313   7.837   2.699
 2206TIP3    H1 6575   8.409   7.840   2.694
 2206TIP3    H2 6576   8.292   7.744   2.702
 2207TIP3   OH2 6577   0.735   1.562   3.997
 2207TIP3    H1 6578   0.811   1.525   3.952
 2207TIP3    H2 6579   0.660   1.532   3.946
 2208TIP3   OH2 6580   3.901   3.155   2.860
 2208TIP3    H1 6581   3.907   3.173   2.954
 2208TIP3    H2 6582   3.812   3.122   2.847
 2209TIP3   OH2 6583   1.444   7.397   6.338
 2209TIP3    H1 6584   1.521   7.447   6.362
 2209TIP3    H2 6585   1.465   7.361   6.252
 2210TIP3   OH2 6586   0.078   1.978   4.004
 2210TIP3    H1 6587   0.010   2.029   3.961
 2210TIP3    H2 6588   0.158   2.028   3.989
 2211TIP3   OH2 6589   3.460   2.538   5.863
 2211TIP3    H1 6590   3.555   2.548   5.867
 2211TIP3    H2 6591   3.445   2.446   5.887
 2212TIP3   OH2 6592   3.802   7.329   6.089
 2212TIP3    H1 6593   3.793   7.419   6.058
 2212TIP3    H2 6594   3.840   7.337   6.176
 2213TIP3   OH2 6595   0.131   0.808   0.227
 2213TIP3    H1 6596   0.089   0.754   0.161
 2213TIP3    H2 6597   0.219   0.771   0.236
 2214TIP3   OH2 6598   5.317   1.906   6.127
 2214TIP3    H1 6599   5.351   1.951   6.049
 2214TIP3    H2 6600   5.318   1.813   6.103
 2215TIP3   OH2 6601   5.313   1.101   5.822
 2215TIP3    H1 6602   5.327   1.016   5.781
 2215TIP3    H2 6603   5.221   1.099   5.851
 2216TIP3   OH2 6604   3.549   7.078   4.471
 2216TIP3    H1 6605   3.481   7.017   4.502
 2216TIP3    H2 6606   3.569   7.048   4.383
 2217TIP3   OH2 6607   5.248   3.414   3.555
 2217TIP3    H1 6608   5.250   3.495   3.606
 2217TIP3    H2 6609   5.246   3.443   3.464
 2218TIP3   OH2 6610   0.314   4.470   5.876
 2218TIP3    H1 6611   0.384   4.531   5.896
 2218TIP3    H2 6612   0.262   4.514   5.809
 2219TIP3   OH2 6613   6.807   0.581   4.203
 2219TIP3    H1 6614   6.726   0.633   4.205
 2219TIP3    H2 6615   6.831   0.571   4.295
 2220TIP3   OH2 6616   4.519   7.237   5.634
 2220TIP3    H1 6617   4.474   7.152   5.632
 2220TIP3    H2 6618   4.450   7.301   5.617
 2221TIP3   OH2 6619   2.313   1.671   0.732
 2221TIP3    H1 6620   2.388   1.647   0.786
 2221TIP3    H2 6621   2.335   1.756   0.695
 2222TIP3   OH2 6622   4.853   4.786   4.087
 2222TIP3    H1 6623   4.872   4.693   4.102
 2222TIP3    H2 6624   4.809   4.815   4.167
 2223TIP3   OH2 6625   6.871   3.389   0.915
 2223TIP3    H1 6626   6.822   3.311   0.942
 2223TIP3    H2 6627   6.958   3.357   0.893
 2224TIP3   OH2 6628   1.378   4.753   2.690
 2224TIP3    H1 6629   1.345   4.731   2.777
 2224TIP3    H2 6630   1.361   4.676   2.637
 2225TIP3   OH2 6631   1.556   1.749   2.848
 2225TIP3    H1 6632   1.601   1.688   2.907
 2225TIP3    H2 6633   1.526   1.820   2.905
 2226TIP3   OH2 6634   3.206   0.529   3.611
 2226TIP3    H1 6635   3.151   0.451   3.605
 2226TIP3    H2 6636   3.171   0.578   3.685
 2227TIP3   OH2 6637   5.153   1.841   3.602
 2227TIP3    H1 6638   5.168   1.926   3.560
 2227TIP3    H2 6639   5.164   1.858   3.695
 2228TIP3   OH2 6640   2.944   0.269   2.916
 2228TIP3    H1 6641   3.035   0.245   2.938
 2228TIP3    H2 6642   2.899   0.268   3.001
 2229TIP3   OH2 6643   5.750   2.162   6.419
 2229TIP3    H1 6644   5.779   2.246   6.382
 2229TIP3    H2 6645   5.678   2.134   6.362
 2230TIP3   OH2 6646   5.207   5.607   6.600
 2230TIP3    H1 6647   5.217   5.514   6.580
 2230TIP3    H2 6648   5.290   5.646   6.570
 2231TIP3   OH2 6649   7.523   7.276   5.129
 2231TIP3    H1 6650   7.570   7.255   5.210
 2231TIP3    H2 6651   7.432   7.253   5.148
 2232TIP3   OH2 6652   2.479   0.918   4.945
 2232TIP3    H1 6653   2.541   0.988   4.924
 2232TIP3    H2 6654   2.406   0.962   4.990
 2233TIP3   OH2 6655   6.483   0.689   4.500
 2233TIP3    H1 6656   6.476   0.595   4.520
 2233TIP3    H2 6657   6.406   0.728   4.541
 2234TIP3   OH2 6658   2.535   0.298   2.330
 2234TIP3    H1 6659   2.589   0.240   2.384
 2234TIP3    H2 6660   2.581   0.382   2.331
 2235TIP3   OH2 6661   7.567   5.811   5.836
 2235TIP3    H1 6662   7.573   5.842   5.745
 2235TIP3    H2 6663   7.513   5.732   5.831
 2236TIP3   OH2 6664   8.240   4.939   1.115
 2236TIP3    H1 6665   8.330   4.945   1.147
 2236TIP3    H2 6666   8.190   4.998   1.172
 2237TIP3   OH2 6667   7.056   3.847   4.258
 2237TIP3    H1 6668   7.017   3.847   4.346
 2237TIP3    H2 6669   6.984   3.825   4.200
 2238TIP3   OH2 6670   8.007   1.509   1.576
 2238TIP3    H1 6671   8.018   1.529   1.669
 2238TIP3    H2 6672   7.973   1.419   1.574
 2239TIP3   OH2 6673   4.554   0.022   1.374
 2239TIP3    H1 6674   4.631  -0.030   1.353
 2239TIP3    H2 6675   4.513   0.042   1.290
 2240TIP3   OH2 6676   2.951   4.678   5.619
 2240TIP3    H1 6677   2.861   4.700   5.593
 2240TIP3    H2 6678   2.994   4.763   5.631
 2241TIP3   OH2 6679   7.631   5.211   6.330
 2241TIP3    H1 6680   7.710   5.263   6.349
 2241TIP3    H2 6681   7.663   5.139   6.276
 2242TIP3   OH2 6682   4.103   1.939   5.645
 2242TIP3    H1 6683   4.121   2.029   5.672
 2242TIP3    H2 6684   4.065   1.897   5.722
 2243TIP3   OH2 6685   6.734   4.811   2.308
 2243TIP3    H1 6686   6.688   4.781   2.387
 2243TIP3    H2 6687   6.815   4.760   2.307
 2244TIP3   OH2 6688   8.046   1.407   3.575
 2244TIP3    H1 6689   8.067   1.458   3.497
 2244TIP3    H2 6690   8.071   1.465   3.648
 2245TIP3   OH2 6691   5.853   1.058   5.602
 2245TIP3    H1 6692   5.850   1.126   5.670
 2245TIP3    H2 6693   5.763   1.024   5.599
 2246TIP3   OH2 6694   0.635   1.346   5.650
 2246TIP3    H1 6695   0.584   1.271   5.622
 2246TIP3    H2 6696   0.721   1.311   5.670
 2247TIP3   OH2 6697   6.440   4.419   6.355
 2247TIP3    H1 6698   6.346   4.437   6.364
 2247TIP3    H2 6699   6.471   4.485   6.294
 2248TIP3   OH2 6700   6.157   0.123   6.227
 2248TIP3    H1 6701   6.168   0.181   6.302
 2248TIP3    H2 6702   6.212   0.047   6.247
 2249TIP3   OH2 6703   1.127   0.934   2.408
 2249TIP3    H1 6704   1.084   0.883   2.340
 2249TIP3    H2 6705   1.155   1.015   2.363
 2250TIP3   OH2 6706   0.485   4.846   6.756
 2250TIP3    H1 6707   0.501   4.815   6.666
 2250TIP3    H2 6708   0.525   4.778   6.811
 2251TIP3   OH2 6709   1.311   3.320   5.057
 2251TIP3    H1 6710   1.218   3.337   5.074
 2251TIP3    H2 6711   1.336   3.386   4.993
 2252TIP3   OH2 6712   8.056   2.467   3.688
 2252TIP3    H1 6713   7.987   2.523   3.724
 2252TIP3    H2 6714   8.082   2.511   3.607
 2253TIP3   OH2 6715   1.673   3.294   2.162
 2253TIP3    H1 6716   1.586   3.331   2.181
 2253TIP3    H2 6717   1.688   3.230   2.232
 2254TIP3   OH2 6718   8.140   5.560   1.202
 2254TIP3    H1 6719   8.052   5.586   1.176
 2254TIP3    H2 6720   8.128   5.484   1.258
 2255TIP3   OH2 6721   2.602   2.598   3.496
 2255TIP3    H1 6722   2.678   2.633   3.448
 2255TIP3    H2 6723   2.634   2.518   3.536
 2256TIP3   OH2 6724   7.832   1.875   5.002
 2256TIP3    H1 6725   7.819   1.857   5.095
 2256TIP3    H2 6726   7.926   1.890   4.992
 2257TIP3   OH2 6727   2.833   1.079   4.083
 2257TIP3    H1 6728   2.794   1.159   4.119
 2257TIP3    H2 6729   2.924   1.102   4.066
 2258TIP3   OH2 6730   7.309   6.452   2.813
 2258TIP3    H1 6731   7.335   6.534   2.770
 2258TIP3    H2 6732   7.214   6.457   2.817
 2259TIP3   OH2 6733   1.118   6.957   2.266
 2259TIP3    H1 6734   1.191   6.990   2.318
 2259TIP3    H2 6735   1.127   7.000   2.181
 2260TIP3   OH2 6736   7.816   2.561   1.145
 2260TIP3    H1 6737   7.904   2.537   1.176
 2260TIP3    H2 6738   7.769   2.478   1.142
 2261TIP3   OH2 6739   0.632   1.072   6.329
 2261TIP3    H1 6740   0.620   1.112   6.244
 2261TIP3    H2 6741   0.726   1.051   6.334
 2262TIP3   OH2 6742   0.081   0.996   1.060
 2262TIP3    H1 6743   0.071   0.970   1.152
 2262TIP3    H2 6744   0.023   0.937   1.012
 2263TIP3   OH2 6745   5.196   4.123   3.492
 2263TIP3    H1 6746   5.249   4.176   3.552
 2263TIP3    H2 6747   5.249   4.044   3.478
 2264TIP3   OH2 6748   3.272   6.344   0.225
 2264TIP3    H1 6749   3.332   6.288   0.176
 2264TIP3    H2 6750   3.194   6.290   0.237
 2265TIP3   OH2 6751   5.785   4.895   2.997
 2265TIP3    H1 6752   5.721   4.869   2.930
 2265TIP3    H2 6753   5.733   4.936   3.066
 2266TIP3   OH2 6754   0.920   3.296   0.826
 2266TIP3    H1 6755   0.905   3.306   0.920
 2266TIP3    H2 6756   0.977   3.219   0.819
 2267TIP3   OH2 6757   6.264   5.921   0.086
 2267TIP3    H1 6758   6.171   5.900   0.098
 2267TIP3    H2 6759   6.310   5.844   0.119
 2268TIP3   OH2 6760   7.605   6.603   1.037
 2268TIP3    H1 6761   7.636   6.660   1.108
 2268TIP3    H2 6762   7.510   6.617   1.035
 2269TIP3   OH2 6763   2.600   6.682   2.615
 2269TIP3    H1 6764   2.674   6.650   2.563
 2269TIP3    H2 6765   2.548   6.604   2.632
 2270TIP3   OH2 6766   7.485   0.080   4.707
 2270TIP3    H1 6767   7.465   0.062   4.615
 2270TIP3    H2 6768   7.400   0.103   4.745
 2271TIP3   OH2 6769   4.164   7.845   2.591
 2271TIP3    H1 6770   4.243   7.795   2.572
 2271TIP3    H2 6771   4.182   7.933   2.559
 2272TIP3   OH2 6772   3.714   2.866   6.429
 2272TIP3    H1 6773   3.753   2.926   6.365
 2272TIP3    H2 6774   3.787   2.842   6.486
 2273TIP3   OH2 6775   6.132   3.098   6.066
 2273TIP3    H1 6776   6.153   3.151   6.142
 2273TIP3    H2 6777   6.162   3.010   6.089
 2274TIP3   OH2 6778   0.536   5.301   4.870
 2274TIP3    H1 6779   0.588   5.280   4.947
 2274TIP3    H2 6780   0.591   5.275   4.796
 2275TIP3   OH2 6781   4.344   0.603   1.919
 2275TIP3    H1 6782   4.340   0.557   2.003
 2275TIP3    H2 6783   4.428   0.578   1.881
 2276TIP3   OH2 6784   5.502   6.496   0.803
 2276TIP3    H1 6785   5.539   6.554   0.870
 2276TIP3    H2 6786   5.502   6.549   0.723
 2277TIP3   OH2 6787   4.430   1.215   3.597
 2277TIP3    H1 6788   4.439   1.151   3.668
 2277TIP3    H2 6789   4.517   1.218   3.556
 2278TIP3   OH2 6790   3.950   6.062   6.499
 2278TIP3    H1 6791   4.015   6.123   6.535
 2278TIP3    H2 6792   3.949   5.990   6.562
 2279TIP3   OH2 6793   0.977   5.710   4.787
 2279TIP3    H1 6794   0.942   5.796   4.764
 2279TIP3    H2 6795   0.908   5.669   4.838
 2280TIP3   OH2 6796   1.011   3.058   3.601
 2280TIP3    H1 6797   0.961   3.086   3.524
 2280TIP3    H2 6798   1.003   2.963   3.602
 2281TIP3   OH2 6799   4.051   3.695   4.201
 2281TIP3    H1 6800   4.072   3.763   4.137
 2281TIP3    H2 6801   4.112   3.710   4.273
 2282TIP3   OH2 6802   8.116   2.907   5.840
 2282TIP3    H1 6803   8.167   2.925   5.918
 2282TIP3    H2 6804   8.025   2.912   5.869
 2283TIP3   OH2 6805   0.018   4.030   0.516
 2283TIP3    H1 6806  -0.001   4.066   0.603
 2283TIP3    H2 6807   0.096   4.076   0.487
 2284TIP3   OH2 6808   0.686   7.823   3.549
 2284TIP3    H1 6809   0.764   7.768   3.545
 2284TIP3    H2 6810   0.614   7.762   3.566
 2285TIP3   OH2 6811   6.012   3.769   4.087
 2285TIP3    H1 6812   6.080   3.733   4.145
 2285TIP3    H2 6813   6.060   3.821   4.024
 2286TIP3   OH2 6814   4.053   5.574   3.538
 2286TIP3    H1 6815   4.112   5.615   3.475
 2286TIP3    H2 6816   4.101   5.574   3.620
 2287TIP3   OH2 6817   2.263   1.764   6.390
 2287TIP3    H1 6818   2.270   1.744   6.297
 2287TIP3    H2 6819   2.302   1.851   6.399
 2288TIP3   OH2 6820   6.068   1.276   5.459
 2288TIP3    H1 6821   6.132   1.220   5.503
 2288TIP3    H2 6822   6.086   1.364   5.493
 2289TIP3   OH2 6823   5.277   6.672   6.006
 2289TIP3    H1 6824   5.194   6.624   6.009
 2289TIP3    H2 6825   5.301   6.671   5.913
 2290TIP3   OH2 6826   5.846   0.239   1.406
 2290TIP3    H1 6827   5.928   0.289   1.404
 2290TIP3    H2 6828   5.814   0.244   1.316
 2291TIP3   OH2 6829   0.177   6.876   6.057
 2291TIP3    H1 6830   0.123   6.860   5.980
 2291TIP3    H2 6831   0.151   6.963   6.087
 2292TIP3   OH2 6832   6.496   5.887   1.563
 2292TIP3    H1 6833   6.410   5.845   1.553
 2292TIP3    H2 6834   6.558   5.815   1.569
 2293TIP3   OH2 6835   2.838   5.111   3.467
 2293TIP3    H1 6836   2.782   5.107   3.545
 2293TIP3    H2 6837   2.836   5.203   3.441
 2294TIP3   OH2 6838   5.186   0.275   1.164
 2294TIP3    H1 6839   5.180   0.240   1.253
 2294TIP3    H2 6840   5.122   0.346   1.162
 2295TIP3   OH2 6841   1.082   4.772   2.781
 2295TIP3    H1 6842   1.047   4.697   2.733
 2295TIP3    H2 6843   1.172   4.781   2.750
 2296TIP3   OH2 6844   2.767   4.742   6.179
 2296TIP3    H1 6845   2.729   4.719   6.264
 2296TIP3    H2 6846   2.857   4.710   6.184
 2297TIP3   OH2 6847   4.824   0.432   5.841
 2297TIP3    H1 6848   4.777   0.459   5.920
 2297TIP3    H2 6849   4.755   0.410   5.779
 2298TIP3   OH2 6850   0.278   7.236   5.832
 2298TIP3    H1 6851   0.348   7.226   5.896
 2298TIP3    H2 6852   0.323   7.257   5.750
 2299TIP3   OH2 6853   6.891   7.482   0.946
 2299TIP3    H1 6854   6.885   7.570   0.908
 2299TIP3    H2 6855   6.805   7.467   0.985
 2300TIP3   OH2 6856   2.391   1.371   6.689
 2300TIP3    H1 6857   2.319   1.375   6.752
 2300TIP3    H2 6858   2.445   1.447   6.710
 2301TIP3   OH2 6859   3.796   2.884   5.564
 2301TIP3    H1 6860   3.885   2.893   5.598
 2301TIP3    H2 6861   3.800   2.921   5.476
 2302TIP3   OH2 6862   5.958   3.859   3.803
 2302TIP3    H1 6863   5.983   3.887   3.715
 2302TIP3    H2 6864   5.888   3.919   3.828
 2303TIP3   OH2 6865   3.365   1.278   6.697
 2303TIP3    H1 6866   3.410   1.339   6.638
 2303TIP3    H2 6867   3.279   1.266   6.658
 2304TIP3   OH2 6868   6.234   1.838   4.871
 2304TIP3    H1 6869   6.298   1.804   4.809
 2304TIP3    H2 6870   6.286   1.889   4.934
 2305TIP3   OH2 6871   2.318   5.120   6.534
 2305TIP3    H1 6872   2.367   5.166   6.466
 2305TIP3    H2 6873   2.257   5.064   6.486
 2306TIP3   OH2 6874   1.369   1.024   0.885
 2306TIP3    H1 6875   1.446   0.992   0.932
 2306TIP3    H2 6876   1.335   0.948   0.838
 2307TIP3   OH2 6877   5.017   0.752   3.683
 2307TIP3    H1 6878   5.096   0.762   3.736
 2307TIP3    H2 6879   5.025   0.819   3.616
 2308TIP3   OH2 6880   3.441   5.252   0.531
 2308TIP3    H1 6881   3.358   5.297   0.513
 2308TIP3    H2 6882   3.423   5.161   0.510
 2309TIP3   OH2 6883   6.862   0.906   3.567
 2309TIP3    H1 6884   6.881   0.982   3.622
 2309TIP3    H2 6885   6.948   0.869   3.547
 2310TIP3   OH2 6886   4.514   5.880   2.206
 2310TIP3    H1 6887   4.591   5.913   2.159
 2310TIP3    H2 6888   4.496   5.946   2.273
 2311TIP3   OH2 6889   6.981   2.315   4.551
 2311TIP3    H1 6890   7.047   2.376   4.518
 2311TIP3    H2 6891   7.021   2.276   4.629
 2312TIP3   OH2 6892   1.597   5.910   0.271
 2312TIP3    H1 6893   1.540   5.920   0.347
 2312TIP3    H2 6894   1.678   5.955   0.295
 2313TIP3   OH2 6895   4.251   7.493   1.128
 2313TIP3    H1 6896   4.203   7.411   1.141
 2313TIP3    H2 6897   4.289   7.484   1.040
 2314TIP3   OH2 6898   0.091   4.257   5.003
 2314TIP3    H1 6899   0.037   4.204   5.062
 2314TIP3    H2 6900   0.100   4.341   5.048
 2315TIP3   OH2 6901   1.736   0.270   1.520
 2315TIP3    H1 6902   1.817   0.303   1.481
 2315TIP3    H2 6903   1.727   0.182   1.484
 2316TIP3   OH2 6904   3.146   5.772   4.992
 2316TIP3    H1 6905   3.136   5.680   4.968
 2316TIP3    H2 6906   3.232   5.797   4.958
 2317TIP3   OH2 6907   6.142   6.567   0.252
 2317TIP3    H1 6908   6.142   6.472   0.240
 2317TIP3    H2 6909   6.175   6.580   0.341
 2318TIP3   OH2 6910   0.226   0.894   6.598
 2318TIP3    H1 6911   0.212   0.806   6.633
 2318TIP3    H2 6912   0.320   0.899   6.583
 2319TIP3   OH2 6913   1.578   4.205   5.620
 2319TIP3    H1 6914   1.584   4.112   5.641
 2319TIP3    H2 6915   1.490   4.230   5.649
 2320TIP3   OH2 6916   1.689   3.148   5.153
 2320TIP3    H1 6917   1.694   3.135   5.058
 2320TIP3    H2 6918   1.669   3.241   5.163
 2321TIP3   OH2 6919   2.008   4.005   5.795
 2321TIP3    H1 6920   1.941   3.950   5.835
 2321TIP3    H2 6921   2.068   3.944   5.753
 2322TIP3   OH2 6922   3.880   3.297   3.169
 2322TIP3    H1 6923   3.821   3.360   3.211
 2322TIP3    H2 6924   3.949   3.351   3.131
 2323TIP3   OH2 6925   7.981  -0.005   4.481
 2323TIP3    H1 6926   8.006   0.031   4.566
 2323TIP3    H2 6927   7.944   0.070   4.434
 2324TIP3   OH2 6928   1.859   3.499   5.869
 2324TIP3    H1 6929   1.830   3.558   5.800
 2324TIP3    H2 6930   1.918   3.437   5.825
 2325TIP3   OH2 6931   0.944   6.127   3.822
 2325TIP3    H1 6932   0.859   6.083   3.829
 2325TIP3    H2 6933   0.982   6.093   3.741
 2326TIP3   OH2 6934   4.038   3.670   6.240
 2326TIP3    H1 6935   3.987   3.730   6.296
 2326TIP3    H2 6936   3.987   3.665   6.159
 2327TIP3   OH2 6937   2.854   4.231   0.328
 2327TIP3    H1 6938   2.835   4.320   0.359
 2327TIP3    H2 6939   2.878   4.241   0.236
 2328TIP3   OH2 6940   7.830   3.014   5.799
 2328TIP3    H1 6941   7.740   3.036   5.824
 2328TIP3    H2 6942   7.823   2.986   5.708
 2329TIP3   OH2 6943   5.102   4.324   5.760
 2329TIP3    H1 6944   5.144   4.410   5.757
 2329TIP3    H2 6945   5.163   4.265   5.718
 2330TIP3   OH2 6946   5.957   5.834   4.835
 2330TIP3    H1 6947   5.982   5.744   4.851
 2330TIP3    H2 6948   6.034   5.874   4.795
 2331TIP3   OH2 6949   1.459   2.887   5.175
 2331TIP3    H1 6950   1.528   2.910   5.237
 2331TIP3    H2 6951   1.464   2.792   5.167
 2332TIP3   OH2 6952   0.094   5.582   1.726
 2332TIP3    H1 6953   0.011   5.553   1.763
 2332TIP3    H2 6954   0.083   5.676   1.712
 2333TIP3   OH2 6955   4.417   7.389   3.247
 2333TIP3    H1 6956   4.412   7.420   3.338
 2333TIP3    H2 6957   4.339   7.426   3.205
 2334TIP3   OH2 6958   2.277   1.805   3.554
 2334TIP3    H1 6959   2.268   1.843   3.642
 2334TIP3    H2 6960   2.341   1.860   3.510
 2335TIP3   OH2 6961   1.027   2.709   1.840
 2335TIP3    H1 6962   1.017   2.761   1.760
 2335TIP3    H2 6963   1.117   2.677   1.837
 2336TIP3   OH2 6964   5.329   2.067   1.027
 2336TIP3    H1 6965   5.312   2.049   1.120
 2336TIP3    H2 6966   5.328   1.981   0.986
 2337TIP3   OH2 6967   1.817   5.493   2.671
 2337TIP3    H1 6968   1.802   5.399   2.668
 2337TIP3    H2 6969   1.821   5.520   2.579
 2338TIP3   OH2 6970   8.234   6.941   0.705
 2338TIP3    H1 6971   8.214   6.851   0.680
 2338TIP3    H2 6972   8.256   6.936   0.798
 2339TIP3   OH2 6973   3.629   3.780   1.052
 2339TIP3    H1 6974   3.674   3.706   1.012
 2339TIP3    H2 6975   3.686   3.808   1.123
 2340TIP3   OH2 6976   5.270   2.556   4.710
 2340TIP3    H1 6977   5.291   2.577   4.619
 2340TIP3    H2 6978   5.355   2.533   4.749
 2341TIP3   OH2 6979   1.170   4.072   0.900
 2341TIP3    H1 6980   1.098   4.082   0.838
 2341TIP3    H2 6981   1.239   4.028   0.851
 2342TIP3   OH2 6982   6.647   6.320   2.127
 2342TIP3    H1 6983   6.726   6.289   2.084
 2342TIP3    H2 6984   6.611   6.243   2.172
 2343TIP3   OH2 6985   6.950   5.645   1.822
 2343TIP3    H1 6986   6.929   5.728   1.779
 2343TIP3    H2 6987   6.867   5.618   1.863
 2344TIP3   OH2 6988   0.916   4.870   3.949
 2344TIP3    H1 6989   0.978   4.898   4.016
 2344TIP3    H2 6990   0.970   4.827   3.883
 2345TIP3   OH2 6991   4.127   4.439   4.160
 2345TIP3    H1 6992   4.148   4.347   4.175
 2345TIP3    H2 6993   4.032   4.440   4.152
 2346TIP3   OH2 6994   6.326   5.697   4.508
 2346TIP3    H1 6995   6.366   5.772   4.464
 2346TIP3    H2 6996   6.266   5.660   4.443
 2347TIP3   OH2 6997   5.175   6.904   3.669
 2347TIP3    H1 6998   5.132   6.821   3.649
 2347TIP3    H2 6999   5.261   6.897   3.628
 2348TIP3   OH2 7000   7.517   7.486   4.130
 2348TIP3    H1 7001   7.473   7.412   4.089
 2348TIP3    H2 7002   7.448   7.532   4.178
 2349TIP3   OH2 7003   1.116   1.684   3.753
 2349TIP3    H1 7004   1.075   1.613   3.803
 2349TIP3    H2 7005   1.045   1.747   3.737
 2350TIP3   OH2 7006   5.152   3.403   6.396
 2350TIP3    H1 7007   5.111   3.481   6.436
 2350TIP3    H2 7008   5.220   3.439   6.339
 2351TIP3   OH2 7009   8.223   5.811   1.826
 2351TIP3    H1 7010   8.282   5.884   1.846
 2351TIP3    H2 7011   8.200   5.823   1.734
 2352TIP3   OH2 7012   2.255   4.867   5.054
 2352TIP3    H1 7013   2.198   4.840   4.982
 2352TIP3    H2 7014   2.229   4.957   5.074
 2353TIP3   OH2 7015   3.059   5.585   1.134
 2353TIP3    H1 7016   3.005   5.568   1.212
 2353TIP3    H2 7017   3.146   5.605   1.169
 2354TIP3   OH2 7018   1.162   1.667   0.480
 2354TIP3    H1 7019   1.101   1.728   0.438
 2354TIP3    H2 7020   1.219   1.638   0.408
 2355TIP3   OH2 7021   1.630   6.644   2.936
 2355TIP3    H1 7022   1.558   6.585   2.959
 2355TIP3    H2 7023   1.596   6.731   2.953
 2356TIP3   OH2 7024   6.246   5.082   3.554
 2356TIP3    H1 7025   6.289   5.062   3.638
 2356TIP3    H2 7026   6.230   5.176   3.558
 2357TIP3   OH2 7027   5.782   0.399   0.602
 2357TIP3    H1 7028   5.696   0.380   0.564
 2357TIP3    H2 7029   5.840   0.409   0.526
 2358TIP3   OH2 7030   1.363   0.184   1.405
 2358TIP3    H1 7031   1.353   0.162   1.312
 2358TIP3    H2 7032   1.428   0.121   1.437
 2359TIP3   OH2 7033   6.351   5.068   0.560
 2359TIP3    H1 7034   6.307   4.983   0.568
 2359TIP3    H2 7035   6.402   5.061   0.479
 2360TIP3   OH2 7036   6.676   6.538   2.911
 2360TIP3    H1 7037   6.640   6.592   2.841
 2360TIP3    H2 7038   6.602   6.485   2.940
 2361TIP3   OH2 7039   7.796   7.418   6.094
 2361TIP3    H1 7040   7.831   7.351   6.153
 2361TIP3    H2 7041   7.791   7.374   6.009
 2362TIP3   OH2 7042   1.389   3.499   0.084
 2362TIP3    H1 7043   1.429   3.413   0.073
 2362TIP3    H2 7044   1.451   3.560   0.045
 2363TIP3   OH2 7045   2.468   5.360   4.936
 2363TIP3    H1 7046   2.439   5.377   5.026
 2363TIP3    H2 7047   2.449   5.441   4.889
 2364TIP3   OH2 7048   6.009   0.985   1.232
 2364TIP3    H1 7049   6.074   0.927   1.270
 2364TIP3    H2 7050   5.951   0.927   1.182
 2365TIP3   OH2 7051   4.027   0.979   0.712
 2365TIP3    H1 7052   3.965   1.047   0.738
 2365TIP3    H2 7053   4.029   0.984   0.616
 2366TIP3   OH2 7054   1.819   6.986   2.737
 2366TIP3    H1 7055   1.833   6.915   2.674
 2366TIP3    H2 7056   1.725   7.004   2.731
 2367TIP3   OH2 7057   2.303   5.952   5.435
 2367TIP3    H1 7058   2.213   5.944   5.403
 2367TIP3    H2 7059   2.311   6.044   5.461
 2368TIP3   OH2 7060   2.431   7.236   6.291
 2368TIP3    H1 7061   2.386   7.301   6.238
 2368TIP3    H2 7062   2.492   7.287   6.344
 2369TIP3   OH2 7063   2.007   6.779   6.207
 2369TIP3    H1 7064   2.062   6.767   6.284
 2369TIP3    H2 7065   1.921   6.800   6.242
 2370TIP3   OH2 7066   5.599   5.357   4.151
 2370TIP3    H1 7067   5.526   5.315   4.106
 2370TIP3    H2 7068   5.666   5.367   4.082
 2371TIP3   OH2 7069   7.722   6.699   0.772
 2371TIP3    H1 7070   7.687   6.698   0.861
 2371TIP3    H2 7071   7.666   6.640   0.723
 2372TIP3   OH2 7072   3.622   6.170   6.120
 2372TIP3    H1 7073   3.572   6.094   6.092
 2372TIP3    H2 7074   3.557   6.228   6.160
 2373TIP3   OH2 7075   4.220   0.845   1.116
 2373TIP3    H1 7076   4.181   0.854   1.203
 2373TIP3    H2 7077   4.314   0.856   1.130
 2374TIP3   OH2 7078   5.243   3.766   5.116
 2374TIP3    H1 7079   5.179   3.817   5.165
 2374TIP3    H2 7080   5.206   3.761   5.027
 2375TIP3   OH2 7081   4.155   3.844   5.305
 2375TIP3    H1 7082   4.237   3.879   5.272
 2375TIP3    H2 7083   4.169   3.749   5.309
 2376TIP3   OH2 7084   0.951   2.046   2.496
 2376TIP3    H1 7085   0.982   2.136   2.509
 2376TIP3    H2 7086   0.867   2.043   2.542
 2377TIP3   OH2 7087   5.752   6.065   4.742
 2377TIP3    H1 7088   5.805   6.031   4.669
 2377TIP3    H2 7089   5.722   5.987   4.788
 2378TIP3   OH2 7090   5.730   6.643   3.939
 2378TIP3    H1 7091   5.687   6.559   3.920
 2378TIP3    H2 7092   5.658   6.705   3.947
 2379TIP3   OH2 7093   7.291   4.261   5.457
 2379TIP3    H1 7094   7.302   4.170   5.485
 2379TIP3    H2 7095   7.370   4.281   5.407
 2380TIP3   OH2 7096   1.892   3.146   2.792
 2380TIP3    H1 7097   1.842   3.097   2.727
 2380TIP3    H2 7098   1.912   3.229   2.750
 2381TIP3   OH2 7099   4.710   1.522   3.579
 2381TIP3    H1 7100   4.760   1.582   3.524
 2381TIP3    H2 7101   4.765   1.510   3.657
 2382TIP3   OH2 7102   7.659   2.681   1.932
 2382TIP3    H1 7103   7.576   2.688   1.980
 2382TIP3    H2 7104   7.651   2.743   1.861
 2383TIP3   OH2 7105   5.456   2.209   2.236
 2383TIP3    H1 7106   5.481   2.237   2.324
 2383TIP3    H2 7107   5.516   2.256   2.178
 2384TIP3   OH2 7108   0.112   2.796   0.691
 2384TIP3    H1 7109   0.042   2.735   0.711
 2384TIP3    H2 7110   0.072   2.861   0.632
 2385TIP3   OH2 7111   5.482   5.090   2.899
 2385TIP3    H1 7112   5.422   5.070   2.971
 2385TIP3    H2 7113   5.511   5.004   2.868
 2386TIP3   OH2 7114   5.337   0.278   0.257
 2386TIP3    H1 7115   5.377   0.193   0.276
 2386TIP3    H2 7116   5.384   0.340   0.313
 2387TIP3   OH2 7117   7.795   3.668   2.878
 2387TIP3    H1 7118   7.881   3.710   2.871
 2387TIP3    H2 7119   7.787   3.618   2.797
 2388TIP3   OH2 7120   7.175   2.409   3.688
 2388TIP3    H1 7121   7.094   2.361   3.669
 2388TIP3    H2 7122   7.183   2.472   3.617
 2389TIP3   OH2 7123   6.975   4.730   5.751
 2389TIP3    H1 7124   6.935   4.797   5.808
 2389TIP3    H2 7125   7.068   4.754   5.749
 2390TIP3   OH2 7126   6.966   2.913   0.836
 2390TIP3    H1 7127   6.968   2.877   0.747
 2390TIP3    H2 7128   6.890   2.871   0.876
 2391TIP3   OH2 7129   0.536   7.285   3.841
 2391TIP3    H1 7130   0.614   7.334   3.813
 2391TIP3    H2 7131   0.569   7.198   3.862
 2392TIP3   OH2 7132   5.021   2.678   4.808
 2392TIP3    H1 7133   5.085   2.664   4.738
 2392TIP3    H2 7134   5.036   2.769   4.835
 2393TIP3   OH2 7135   5.662   3.274   2.089
 2393TIP3    H1 7136   5.738   3.274   2.148
 2393TIP3    H2 7137   5.662   3.187   2.050
 2394TIP3   OH2 7138   0.034   1.610   4.813
 2394TIP3    H1 7139   0.051   1.531   4.761
 2394TIP3    H2 7140   0.090   1.676   4.773
 2395TIP3   OH2 7141   5.485   7.398   5.106
 2395TIP3    H1 7142   5.515   7.485   5.079
 2395TIP3    H2 7143   5.545   7.337   5.064
 2396TIP3   OH2 7144   7.607   2.806   2.536
 2396TIP3    H1 7145   7.654   2.753   2.471
 2396TIP3    H2 7146   7.516   2.778   2.528
 2397TIP3   OH2 7147   6.633   7.699   6.702
 2397TIP3    H1 7148   6.677   7.690   6.787
 2397TIP3    H2 7149   6.704   7.717   6.640
 2398TIP3   OH2 7150   5.130   4.502   5.500
 2398TIP3    H1 7151   5.080   4.432   5.542
 2398TIP3    H2 7152   5.124   4.484   5.407
 2399TIP3   OH2 7153   6.299   4.199   4.196
 2399TIP3    H1 7154   6.364   4.260   4.231
 2399TIP3    H2 7155   6.238   4.186   4.268
 2400TIP3   OH2 7156   5.180   0.854   2.685
 2400TIP3    H1 7157   5.116   0.783   2.682
 2400TIP3    H2 7158   5.182   0.880   2.777
 2401TIP3   OH2 7159   5.120   4.923   5.342
 2401TIP3    H1 7160   5.065   4.859   5.386
 2401TIP3    H2 7161   5.089   4.922   5.251
 2402TIP3   OH2 7162   6.737   4.378   4.511
 2402TIP3    H1 7163   6.741   4.347   4.601
 2402TIP3    H2 7164   6.761   4.303   4.457
 2403TIP3   OH2 7165   1.644   5.278   1.280
 2403TIP3    H1 7166   1.622   5.302   1.190
 2403TIP3    H2 7167   1.590   5.336   1.334
 2404TIP3   OH2 7168   2.274   1.455   6.056
 2404TIP3    H1 7169   2.181   1.479   6.063
 2404TIP3    H2 7170   2.321   1.536   6.077
 2405TIP3   OH2 7171   6.005   4.948   6.372
 2405TIP3    H1 7172   5.954   4.895   6.433
 2405TIP3    H2 7173   6.035   5.023   6.424
 2406TIP3   OH2 7174   7.233   5.687   2.224
 2406TIP3    H1 7175   7.319   5.730   2.226
 2406TIP3    H2 7176   7.233   5.638   2.142
 2407TIP3   OH2 7177   0.991   4.852   6.556
 2407TIP3    H1 7178   0.924   4.785   6.569
 2407TIP3    H2 7179   0.946   4.923   6.509
 2408TIP3   OH2 7180   8.121   2.567   1.480
 2408TIP3    H1 7181   8.061   2.514   1.427
 2408TIP3    H2 7182   8.078   2.653   1.486
 2409TIP3   OH2 7183   5.007   5.855   6.643
 2409TIP3    H1 7184   4.963   5.793   6.585
 2409TIP3    H2 7185   5.098   5.826   6.645
 2410TIP3   OH2 7186   2.219   5.995   1.871
 2410TIP3    H1 7187   2.187   5.907   1.891
 2410TIP3    H2 7188   2.168   6.052   1.929
 2411TIP3   OH2 7189   6.729   4.380   0.248
 2411TIP3    H1 7190   6.696   4.446   0.186
 2411TIP3    H2 7191   6.814   4.415   0.275
 2412TIP3   OH2 7192   7.888   2.020   6.069
 2412TIP3    H1 7193   7.969   2.058   6.103
 2412TIP3    H2 7194   7.854   1.967   6.141
 2413TIP3   OH2 7195   7.246   5.797   3.411
 2413TIP3    H1 7196   7.206   5.875   3.449
 2413TIP3    H2 7197   7.206   5.790   3.324
 2414TIP3   OH2 7198   6.163   5.080   1.930
 2414TIP3    H1 7199   6.254   5.063   1.956
 2414TIP3    H2 7200   6.144   5.012   1.865
 2415TIP3   OH2 7201   7.722   5.222   2.879
 2415TIP3    H1 7202   7.709   5.278   2.802
 2415TIP3    H2 7203   7.772   5.148   2.845
 2416TIP3   OH2 7204   6.246   2.556   6.321
 2416TIP3    H1 7205   6.283   2.585   6.404
 2416TIP3    H2 7206   6.296   2.605   6.255
 2417TIP3   OH2 7207   1.975   1.868   3.439
 2417TIP3    H1 7208   1.962   1.788   3.387
 2417TIP3    H2 7209   2.060   1.901   3.410
 2418TIP3   OH2 7210   6.679   4.931   2.626
 2418TIP3    H1 7211   6.642   4.853   2.584
 2418TIP3    H2 7212   6.739   4.896   2.692
 2419TIP3   OH2 7213   3.050   4.946   5.591
 2419TIP3    H1 7214   3.138   4.931   5.625
 2419TIP3    H2 7215   3.055   4.923   5.498
 2420TIP3   OH2 7216   7.304   7.368   0.855
 2420TIP3    H1 7217   7.287   7.439   0.793
 2420TIP3    H2 7218   7.389   7.333   0.827
 2421TIP3   OH2 7219   0.885   4.088   0.896
 2421TIP3    H1 7220   0.896   4.039   0.976
 2421TIP3    H2 7221   0.796   4.124   0.902
 2422TIP3   OH2 7222   0.345   4.137   3.579
 2422TIP3    H1 7223   0.369   4.070   3.642
 2422TIP3    H2 7224   0.414   4.203   3.586
 2423TIP3   OH2 7225   1.914   3.097   4.483
 2423TIP3    H1 7226   1.937   3.188   4.464
 2423TIP3    H2 7227   1.998   3.053   4.496
 2424TIP3   OH2 7228   5.068   0.949   2.001
 2424TIP3    H1 7229   4.976   0.970   2.013
 2424TIP3    H2 7230   5.109   1.033   1.979
 2425TIP3   OH2 7231   0.632   2.321   0.989
 2425TIP3    H1 7232   0.634   2.415   0.972
 2425TIP3    H2 7233   0.572   2.286   0.923
 2426TIP3   OH2 7234   3.378   1.679   2.794
 2426TIP3    H1 7235   3.303   1.666   2.736
 2426TIP3    H2 7236   3.345   1.735   2.864
 2427TIP3   OH2 7237   7.701   1.372   2.754
 2427TIP3    H1 7238   7.794   1.390   2.766
 2427TIP3    H2 7239   7.684   1.394   2.662
 2428TIP3   OH2 7240   2.680   5.215   5.042
 2428TIP3    H1 7241   2.613   5.261   4.991
 2428TIP3    H2 7242   2.659   5.236   5.133
 2429TIP3   OH2 7243   4.229   7.052   2.097
 2429TIP3    H1 7244   4.163   7.053   2.167
 2429TIP3    H2 7245   4.178   7.066   2.017
 2430TIP3   OH2 7246   2.559   3.617   2.108
 2430TIP3    H1 7247   2.540   3.705   2.141
 2430TIP3    H2 7248   2.612   3.577   2.176
 2431TIP3   OH2 7249   4.178   5.607   3.802
 2431TIP3    H1 7250   4.256   5.564   3.838
 2431TIP3    H2 7251   4.110   5.591   3.867
 2432TIP3   OH2 7252   3.241   4.347   4.724
 2432TIP3    H1 7253   3.206   4.426   4.683
 2432TIP3    H2 7254   3.185   4.277   4.692
 2433TIP3   OH2 7255   6.183   6.571   2.150
 2433TIP3    H1 7256   6.131   6.552   2.072
 2433TIP3    H2 7257   6.265   6.524   2.137
 2434TIP3   OH2 7258   7.456   5.902   0.977
 2434TIP3    H1 7259   7.533   5.939   1.018
 2434TIP3    H2 7260   7.442   5.955   0.898
 2435TIP3   OH2 7261   2.975   0.768   1.857
 2435TIP3    H1 7262   2.955   0.677   1.835
 2435TIP3    H2 7263   3.061   0.763   1.900
 2436TIP3   OH2 7264   2.963   4.346   1.570
 2436TIP3    H1 7265   2.920   4.423   1.532
 2436TIP3    H2 7266   3.052   4.349   1.535
 2437TIP3   OH2 7267   1.570   1.741   5.431
 2437TIP3    H1 7268   1.517   1.662   5.435
 2437TIP3    H2 7269   1.507   1.813   5.435
 2438TIP3   OH2 7270   1.556   5.780   5.127
 2438TIP3    H1 7271   1.577   5.699   5.080
 2438TIP3    H2 7272   1.637   5.804   5.171
 2439TIP3   OH2 7273   3.570   2.030   2.287
 2439TIP3    H1 7274   3.662   2.021   2.263
 2439TIP3    H2 7275   3.545   2.116   2.255
 2440TIP3   OH2 7276   5.089   7.015   2.453
 2440TIP3    H1 7277   5.164   7.042   2.505
 2440TIP3    H2 7278   5.039   6.957   2.510
 2441TIP3   OH2 7279   2.230   4.516   4.680
 2441TIP3    H1 7280   2.303   4.459   4.653
 2441TIP3    H2 7281   2.266   4.604   4.677
 2442TIP3   OH2 7282   4.220   4.386   3.518
 2442TIP3    H1 7283   4.241   4.477   3.538
 2442TIP3    H2 7284   4.153   4.391   3.449
 2443TIP3   OH2 7285   0.883   7.539   5.122
 2443TIP3    H1 7286   0.911   7.567   5.036
 2443TIP3    H2 7287   0.806   7.593   5.141
 2444TIP3   OH2 7288   2.863   7.103   5.653
 2444TIP3    H1 7289   2.868   7.110   5.558
 2444TIP3    H2 7290   2.782   7.147   5.676
 2445TIP3   OH2 7291   4.889   2.822   2.414
 2445TIP3    H1 7292   4.874   2.803   2.506
 2445TIP3    H2 7293   4.870   2.740   2.368
 2446TIP3   OH2 7294   8.126   5.584   1.941
 2446TIP3    H1 7295   8.165   5.666   1.910
 2446TIP3    H2 7296   8.097   5.540   1.861
 2447TIP3   OH2 7297   2.334   5.413   2.432
 2447TIP3    H1 7298   2.308   5.329   2.396
 2447TIP3    H2 7299   2.407   5.393   2.491
 2448TIP3   OH2 7300   1.997   0.585   4.299
 2448TIP3    H1 7301   1.993   0.665   4.351
 2448TIP3    H2 7302   2.060   0.529   4.345
 2449TIP3   OH2 7303   2.555   0.988   5.331
 2449TIP3    H1 7304   2.489   1.054   5.312
 2449TIP3    H2 7305   2.625   1.036   5.376
 2450TIP3   OH2 7306   5.708   6.805   1.804
 2450TIP3    H1 7307   5.801   6.791   1.786
 2450TIP3    H2 7308   5.663   6.744   1.746
 2451TIP3   OH2 7309   5.358   6.650   6.442
 2451TIP3    H1 7310   5.446   6.678   6.417
 2451TIP3    H2 7311   5.307   6.731   6.445
 2452TIP3   OH2 7312   8.254   1.222   2.541
 2452TIP3    H1 7313   8.245   1.128   2.525
 2452TIP3    H2 7314   8.167   1.258   2.527
 2453TIP3   OH2 7315   4.840   2.797   2.065
 2453TIP3    H1 7316   4.852   2.890   2.046
 2453TIP3    H2 7317   4.832   2.756   1.979
 2454TIP3   OH2 7318   3.924   0.687   4.798
 2454TIP3    H1 7319   3.876   0.770   4.806
 2454TIP3    H2 7320   4.015   0.711   4.816
 2455TIP3   OH2 7321   5.547   0.422   2.404
 2455TIP3    H1 7322   5.536   0.430   2.499
 2455TIP3    H2 7323   5.458   0.405   2.371
 2456TIP3   OH2 7324   6.181   3.690   0.464
 2456TIP3    H1 7325   6.276   3.697   0.465
 2456TIP3    H2 7326   6.158   3.699   0.371
 2457TIP3   OH2 7327   3.013   2.582   1.894
 2457TIP3    H1 7328   3.087   2.522   1.906
 2457TIP3    H2 7329   3.039   2.638   1.821
 2458TIP3   OH2 7330   4.557   1.742   2.641
 2458TIP3    H1 7331   4.540   1.787   2.724
 2458TIP3    H2 7332   4.616   1.800   2.594
 2459TIP3   OH2 7333   1.879   2.734   5.538
 2459TIP3    H1 7334   1.845   2.743   5.450
 2459TIP3    H2 7335   1.923   2.817   5.556
 2460TIP3   OH2 7336   7.564   6.592   2.733
 2460TIP3    H1 7337   7.658   6.605   2.748
 2460TIP3    H2 7338   7.547   6.503   2.763
 2461TIP3   OH2 7339   2.966   1.724   5.474
 2461TIP3    H1 7340   2.966   1.671   5.394
 2461TIP3    H2 7341   2.970   1.814   5.443
 2462TIP3   OH2 7342   6.675   1.321   3.613
 2462TIP3    H1 7343   6.720   1.265   3.676
 2462TIP3    H2 7344   6.746   1.358   3.560
 2463TIP3   OH2 7345   5.560   5.436   0.180
 2463TIP3    H1 7346   5.556   5.501   0.251
 2463TIP3    H2 7347   5.580   5.488   0.102
 2464TIP3   OH2 7348   5.905   1.282   2.618
 2464TIP3    H1 7349   5.946   1.330   2.689
 2464TIP3    H2 7350   5.885   1.348   2.552
 2465TIP3   OH2 7351   6.044   1.686   0.757
 2465TIP3    H1 7352   6.092   1.668   0.838
 2465TIP3    H2 7353   6.112   1.692   0.690
 2466TIP3   OH2 7354   3.683   3.080   4.587
 2466TIP3    H1 7355   3.733   3.159   4.567
 2466TIP3    H2 7356   3.670   3.038   4.502
 2467TIP3   OH2 7357   1.796   6.602   5.366
 2467TIP3    H1 7358   1.782   6.582   5.458
 2467TIP3    H2 7359   1.864   6.669   5.366
 2468TIP3   OH2 7360   1.012   5.157   1.193
 2468TIP3    H1 7361   1.038   5.204   1.114
 2468TIP3    H2 7362   0.979   5.073   1.162
 2469TIP3   OH2 7363   0.307   4.882   4.992
 2469TIP3    H1 7364   0.339   4.880   4.902
 2469TIP3    H2 7365   0.305   4.790   5.019
 2470TIP3   OH2 7366   2.922   7.273   5.179
 2470TIP3    H1 7367   2.888   7.362   5.182
 2470TIP3    H2 7368   2.903   7.242   5.091
 2471TIP3   OH2 7369   5.026   0.496   0.636
 2471TIP3    H1 7370   5.067   0.449   0.708
 2471TIP3    H2 7371   5.055   0.449   0.557
 2472TIP3   OH2 7372   6.406   2.167   1.744
 2472TIP3    H1 7373   6.406   2.076   1.715
 2472TIP3    H2 7374   6.426   2.218   1.665
 2473TIP3   OH2 7375   5.913   6.727   1.655
 2473TIP3    H1 7376   5.847   6.763   1.596
 2473TIP3    H2 7377   5.996   6.739   1.609
 2474TIP3   OH2 7378   2.159   2.516   0.527
 2474TIP3    H1 7379   2.141   2.556   0.442
 2474TIP3    H2 7380   2.083   2.538   0.581
 2475TIP3   OH2 7381   7.502   5.872   0.077
 2475TIP3    H1 7382   7.575   5.875   0.139
 2475TIP3    H2 7383   7.441   5.807   0.114
 2476TIP3   OH2 7384   1.897   5.131   3.274
 2476TIP3    H1 7385   1.899   5.225   3.256
 2476TIP3    H2 7386   1.978   5.098   3.234
 2477TIP3   OH2 7387   6.219   7.410   1.704
 2477TIP3    H1 7388   6.189   7.374   1.620
 2477TIP3    H2 7389   6.208   7.505   1.695
 2478TIP3   OH2 7390   4.841   0.760   4.281
 2478TIP3    H1 7391   4.850   0.786   4.373
 2478TIP3    H2 7392   4.775   0.820   4.246
 2479TIP3   OH2 7393   3.069   6.946   5.952
 2479TIP3    H1 7394   3.128   6.875   5.978
 2479TIP3    H2 7395   3.064   6.939   5.856
 2480TIP3   OH2 7396   7.737   0.741   4.795
 2480TIP3    H1 7397   7.754   0.652   4.765
 2480TIP3    H2 7398   7.660   0.769   4.745
 2481TIP3   OH2 7399   0.926   6.327   6.105
 2481TIP3    H1 7400   0.889   6.332   6.193
 2481TIP3    H2 7401   0.850   6.341   6.047
 2482TIP3   OH2 7402   2.317   5.107   4.585
 2482TIP3    H1 7403   2.372   5.171   4.631
 2482TIP3    H2 7404   2.377   5.066   4.523
 2483TIP3   OH2 7405   5.326   7.496   3.057
 2483TIP3    H1 7406   5.408   7.484   3.104
 2483TIP3    H2 7407   5.335   7.442   2.978
 2484TIP3   OH2 7408   0.843   2.778   2.702
 2484TIP3    H1 7409   0.917   2.730   2.664
 2484TIP3    H2 7410   0.807   2.828   2.629
 2485TIP3   OH2 7411   5.511   4.749   6.670
 2485TIP3    H1 7412   5.513   4.666   6.620
 2485TIP3    H2 7413   5.418   4.769   6.680
 2486TIP3   OH2 7414   5.062   0.257   6.017
 2486TIP3    H1 7415   5.031   0.209   6.094
 2486TIP3    H2 7416   5.039   0.348   6.034
 2487TIP3   OH2 7417   1.380   7.297   0.567
 2487TIP3    H1 7418   1.434   7.310   0.490
 2487TIP3    H2 7419   1.290   7.308   0.536
 2488TIP3   OH2 7420   1.727   6.115   2.459
 2488TIP3    H1 7421   1.745   6.067   2.540
 2488TIP3    H2 7422   1.763   6.060   2.389
 2489TIP3   OH2 7423   5.673   7.604   6.428
 2489TIP3    H1 7424   5.704   7.691   6.449
 2489TIP3    H2 7425   5.615   7.580   6.500
 2490TIP3   OH2 7426   5.076   3.903   1.149
 2490TIP3    H1 7427   4.981   3.902   1.159
 2490TIP3    H2 7428   5.105   3.821   1.190
 2491TIP3   OH2 7429   1.175   0.670   5.563
 2491TIP3    H1 7430   1.177   0.575   5.551
 2491TIP3    H2 7431   1.191   0.682   5.657
 2492TIP3   OH2 7432   2.606   1.605   0.650
 2492TIP3    H1 7433   2.660   1.675   0.614
 2492TIP3    H2 7434   2.668   1.549   0.697
 2493TIP3   OH2 7435   5.443   0.958   0.925
 2493TIP3    H1 7436   5.510   1.021   0.951
 2493TIP3    H2 7437   5.419   0.982   0.835
 2494TIP3   OH2 7438   0.763   1.775   5.721
 2494TIP3    H1 7439   0.857   1.796   5.723
 2494TIP3    H2 7440   0.760   1.682   5.744
 2495TIP3   OH2 7441   5.431   5.137   1.955
 2495TIP3    H1 7442   5.485   5.060   1.974
 2495TIP3    H2 7443   5.494   5.205   1.932
 2496TIP3   OH2 7444   3.437   6.536   0.874
 2496TIP3    H1 7445   3.492   6.612   0.855
 2496TIP3    H2 7446   3.357   6.550   0.823
 2497TIP3   OH2 7447   1.983   7.601   5.796
 2497TIP3    H1 7448   1.932   7.552   5.861
 2497TIP3    H2 7449   1.949   7.572   5.712
 2498TIP3   OH2 7450   3.574   7.753   4.475
 2498TIP3    H1 7451   3.644   7.740   4.540
 2498TIP3    H2 7452   3.601   7.700   4.400
 2499TIP3   OH2 7453   4.306   0.569   0.248
 2499TIP3    H1 7454   4.295   0.664   0.251
 2499TIP3    H2 7455   4.249   0.536   0.316
 2500TIP3   OH2 7456   3.742   1.538   5.324
 2500TIP3    H1 7457   3.771   1.510   5.237
 2500TIP3    H2 7458   3.653   1.569   5.310
 2501TIP3   OH2 7459   6.844   1.823   4.213
 2501TIP3    H1 7460   6.835   1.902   4.267
 2501TIP3    H2 7461   6.755   1.802   4.186
 2502TIP3   OH2 7462   7.574   7.179   6.616
 2502TIP3    H1 7463   7.502   7.116   6.607
 2502TIP3    H2 7464   7.653   7.127   6.603
 2503TIP3   OH2 7465   7.123   5.677   6.712
 2503TIP3    H1 7466   7.141   5.649   6.623
 2503TIP3    H2 7467   7.064   5.610   6.747
 2504TIP3   OH2 7468   8.056   4.122   6.235
 2504TIP3    H1 7469   8.117   4.051   6.217
 2504TIP3    H2 7470   8.105   4.202   6.217
 2505TIP3   OH2 7471   3.033   0.634   0.596
 2505TIP3    H1 7472   2.988   0.623   0.680
 2505TIP3    H2 7473   3.120   0.595   0.609
 2506TIP3   OH2 7474   0.360   6.465   2.132
 2506TIP3    H1 7475   0.301   6.540   2.135
 2506TIP3    H2 7476   0.418   6.477   2.207
 2507TIP3   OH2 7477   2.376   0.118   0.471
 2507TIP3    H1 7478   2.372   0.211   0.452
 2507TIP3    H2 7479   2.375   0.114   0.567
 2508TIP3   OH2 7480   0.527   1.811   5.873
 2508TIP3    H1 7481   0.598   1.774   5.821
 2508TIP3    H2 7482   0.558   1.897   5.900
 2509TIP3   OH2 7483   6.424   0.944   4.832
 2509TIP3    H1 7484   6.371   0.882   4.882
 2509TIP3    H2 7485   6.497   0.965   4.890
 2510TIP3   OH2 7486   4.920   7.718   5.108
 2510TIP3    H1 7487   4.856   7.661   5.064
 2510TIP3    H2 7488   4.874   7.800   5.121
 2511TIP3   OH2 7489   4.140   0.347   2.798
 2511TIP3    H1 7490   4.084   0.272   2.818
 2511TIP3    H2 7491   4.120   0.369   2.707
 2512TIP3   OH2 7492   4.460   1.500   4.598
 2512TIP3    H1 7493   4.510   1.537   4.526
 2512TIP3    H2 7494   4.489   1.408   4.603
 2513TIP3   OH2 7495   6.017   3.915   5.908
 2513TIP3    H1 7496   5.977   3.888   5.991
 2513TIP3    H2 7497   6.063   3.997   5.929
 2514TIP3   OH2 7498   0.849   1.987   4.066
 2514TIP3    H1 7499   0.833   1.945   3.981
 2514TIP3    H2 7500   0.893   1.919   4.118
 2515TIP3   OH2 7501   1.195   7.317   2.252
 2515TIP3    H1 7502   1.114   7.287   2.295
 2515TIP3    H2 7503   1.264   7.266   2.293
 2516TIP3   OH2 7504   2.500   2.453   4.137
 2516TIP3    H1 7505   2.570   2.390   4.153
 2516TIP3    H2 7506   2.450   2.455   4.218
 2517TIP3   OH2 7507   1.044   7.090   5.005
 2517TIP3    H1 7508   1.032   7.171   4.956
 2517TIP3    H2 7509   0.958   7.073   5.044
 2518TIP3   OH2 7510   2.703   7.053   6.024
 2518TIP3    H1 7511   2.655   6.989   6.077
 2518TIP3    H2 7512   2.635   7.107   5.983
 2519TIP3   OH2 7513   6.766   3.235   6.723
 2519TIP3    H1 7514   6.829   3.285   6.775
 2519TIP3    H2 7515   6.739   3.164   6.781
 2520TIP3   OH2 7516   6.673   0.726   1.970
 2520TIP3    H1 7517   6.629   0.663   2.027
 2520TIP3    H2 7518   6.659   0.692   1.882
 2521TIP3   OH2 7519   2.178   6.719   3.864
 2521TIP3    H1 7520   2.145   6.704   3.776
 2521TIP3    H2 7521   2.233   6.797   3.857
 2522TIP3   OH2 7522   1.853   3.488   1.141
 2522TIP3    H1 7523   1.906   3.413   1.170
 2522TIP3    H2 7524   1.773   3.448   1.105
 2523TIP3   OH2 7525   7.272   1.004   2.888
 2523TIP3    H1 7526   7.242   0.959   2.809
 2523TIP3    H2 7527   7.363   0.978   2.898
 2524TIP3   OH2 7528   6.288   5.892   6.388
 2524TIP3    H1 7529   6.271   5.802   6.419
 2524TIP3    H2 7530   6.372   5.886   6.343
 2525TIP3   OH2 7531   7.280   1.032   2.412
 2525TIP3    H1 7532   7.373   1.035   2.390
 2525TIP3    H2 7533   7.243   1.109   2.368
 2526TIP3   OH2 7534   6.515   5.300   3.859
 2526TIP3    H1 7535   6.580   5.318   3.927
 2526TIP3    H2 7536   6.517   5.205   3.847
 2527TIP3   OH2 7537   3.841   0.913   1.269
 2527TIP3    H1 7538   3.798   0.997   1.254
 2527TIP3    H2 7539   3.877   0.889   1.184
 2528TIP3   OH2 7540   5.285   0.765   0.505
 2528TIP3    H1 7541   5.215   0.773   0.571
 2528TIP3    H2 7542   5.264   0.684   0.458
 2529TIP3   OH2 7543   5.990   7.000   1.319
 2529TIP3    H1 7544   6.008   7.035   1.406
 2529TIP3    H2 7545   6.077   6.990   1.279
 2530TIP3   OH2 7546   1.054   0.174   5.161
 2530TIP3    H1 7547   0.973   0.211   5.125
 2530TIP3    H2 7548   1.027   0.130   5.241
 2531TIP3   OH2 7549   8.300   1.722   3.906
 2531TIP3    H1 7550   8.311   1.808   3.947
 2531TIP3    H2 7551   8.206   1.706   3.909
 2532TIP3   OH2 7552   4.375   2.986   2.183
 2532TIP3    H1 7553   4.286   2.949   2.179
 2532TIP3    H2 7554   4.420   2.948   2.107
 2533TIP3   OH2 7555   3.280   2.411   2.650
 2533TIP3    H1 7556   3.270   2.344   2.582
 2533TIP3    H2 7557   3.330   2.369   2.719
 2534TIP3   OH2 7558   7.863   7.616   6.717
 2534TIP3    H1 7559   7.860   7.554   6.645
 2534TIP3    H2 7560   7.888   7.563   6.793
 2535TIP3   OH2 7561   1.313   0.223   3.538
 2535TIP3    H1 7562   1.248   0.158   3.566
 2535TIP3    H2 7563   1.381   0.173   3.494
 2536TIP3   OH2 7564   1.325   0.116   2.251
 2536TIP3    H1 7565   1.346   0.206   2.226
 2536TIP3    H2 7566   1.362   0.106   2.339
 2537TIP3   OH2 7567   5.824   2.198   5.280
 2537TIP3    H1 7568   5.818   2.131   5.349
 2537TIP3    H2 7569   5.853   2.277   5.326
 2538TIP3   OH2 7570   7.960   4.208   0.870
 2538TIP3    H1 7571   8.018   4.208   0.946
 2538TIP3    H2 7572   7.943   4.116   0.853
 2539TIP3   OH2 7573   1.325   4.536   5.656
 2539TIP3    H1 7574   1.413   4.570   5.641
 2539TIP3    H2 7575   1.324   4.511   5.749
 2540TIP3   OH2 7576   7.892   0.559   2.928
 2540TIP3    H1 7577   7.886   0.641   2.878
 2540TIP3    H2 7578   7.919   0.494   2.864
 2541TIP3   OH2 7579   4.438   5.137   4.945
 2541TIP3    H1 7580   4.350   5.161   4.915
 2541TIP3    H2 7581   4.425   5.058   4.997
 2542TIP3   OH2 7582   1.795   0.649   2.854
 2542TIP3    H1 7583   1.737   0.620   2.784
 2542TIP3    H2 7584   1.883   0.644   2.815
 2543TIP3   OH2 7585   3.218   7.252   6.194
 2543TIP3    H1 7586   3.274   7.204   6.133
 2543TIP3    H2 7587   3.131   7.215   6.182
 2544TIP3   OH2 7588   2.418   7.746   0.811
 2544TIP3    H1 7589   2.496   7.757   0.866
 2544TIP3    H2 7590   2.350   7.795   0.856
 2545TIP3   OH2 7591   7.994   7.560   2.925
 2545TIP3    H1 7592   7.973   7.651   2.946
 2545TIP3    H2 7593   7.990   7.556   2.830
 2546TIP3   OH2 7594   1.087   3.615   2.461
 2546TIP3    H1 7595   1.042   3.603   2.545
 2546TIP3    H2 7596   1.130   3.701   2.469
 2547TIP3   OH2 7597   5.334   3.230   2.469
 2547TIP3    H1 7598   5.305   3.139   2.466
 2547TIP3    H2 7599   5.254   3.281   2.475
 2548TIP3   OH2 7600   0.029   1.733   1.476
 2548TIP3    H1 7601  -0.024   1.712   1.399
 2548TIP3    H2 7602   0.013   1.661   1.537
 2549TIP3   OH2 7603   1.839   3.999   4.866
 2549TIP3    H1 7604   1.893   3.960   4.934
 2549TIP3    H2 7605   1.791   4.068   4.911
 2550TIP3   OH2 7606   6.267   3.655   3.924
 2550TIP3    H1 7607   6.256   3.650   4.019
 2550TIP3    H2 7608   6.291   3.747   3.908
 2551TIP3   OH2 7609   7.758   2.749   0.657
 2551TIP3    H1 7610   7.851   2.741   0.636
 2551TIP3    H2 7611   7.752   2.729   0.750
 2552TIP3   OH2 7612   1.574   2.965   1.258
 2552TIP3    H1 7613   1.642   2.942   1.195
 2552TIP3    H2 7614   1.529   3.040   1.219
 2553TIP3   OH2 7615   4.325   1.285   3.356
 2553TIP3    H1 7616   4.350   1.256   3.443
 2553TIP3    H2 7617   4.364   1.219   3.297
 2554TIP3   OH2 7618   1.551   6.908   5.046
 2554TIP3    H1 7619   1.602   6.887   5.124
 2554TIP3    H2 7620   1.482   6.842   5.043
 2555TIP3   OH2 7621   5.859   3.033   4.855
 2555TIP3    H1 7622   5.819   2.949   4.830
 2555TIP3    H2 7623   5.790   3.079   4.903
 2556TIP3   OH2 7624   2.353   1.629   0.118
 2556TIP3    H1 7625   2.420   1.580   0.166
 2556TIP3    H2 7626   2.400   1.664   0.042
 2557TIP3   OH2 7627   5.842   4.431   3.478
 2557TIP3    H1 7628   5.869   4.399   3.392
 2557TIP3    H2 7629   5.924   4.441   3.526
 2558TIP3   OH2 7630   1.638   1.485   1.798
 2558TIP3    H1 7631   1.609   1.555   1.856
 2558TIP3    H2 7632   1.639   1.526   1.711
 2559TIP3   OH2 7633   7.369   3.411   5.108
 2559TIP3    H1 7634   7.346   3.504   5.106
 2559TIP3    H2 7635   7.339   3.378   5.023
 2560TIP3   OH2 7636   3.549   3.671   2.417
 2560TIP3    H1 7637   3.562   3.639   2.328
 2560TIP3    H2 7638   3.518   3.761   2.405
 2561TIP3   OH2 7639   0.675   4.913   4.878
 2561TIP3    H1 7640   0.714   4.882   4.960
 2561TIP3    H2 7641   0.749   4.941   4.826
 2562TIP3   OH2 7642   4.704   2.241   6.415
 2562TIP3    H1 7643   4.738   2.305   6.353
 2562TIP3    H2 7644   4.614   2.226   6.387
 2563TIP3   OH2 7645   6.100   2.179   2.029
 2563TIP3    H1 7646   6.191   2.154   2.042
 2563TIP3    H2 7647   6.071   2.127   1.954
 2564TIP3   OH2 7648   0.111   2.684   6.496
 2564TIP3    H1 7649   0.033   2.739   6.501
 2564TIP3    H2 7650   0.184   2.747   6.496
 2565TIP3   OH2 7651   3.155   3.494   3.033
 2565TIP3    H1 7652   3.107   3.459   2.958
 2565TIP3    H2 7653   3.099   3.564   3.067
 2566TIP3   OH2 7654   4.246   1.693   2.904
 2566TIP3    H1 7655   4.206   1.618   2.949
 2566TIP3    H2 7656   4.333   1.662   2.878
 2567TIP3   OH2 7657   3.784   2.847   0.507
 2567TIP3    H1 7658   3.776   2.887   0.420
 2567TIP3    H2 7659   3.873   2.869   0.535
 2568TIP3   OH2 7660   4.379   5.476   5.555
 2568TIP3    H1 7661   4.321   5.411   5.514
 2568TIP3    H2 7662   4.467   5.448   5.530
 2569TIP3   OH2 7663   3.102   4.942   5.322
 2569TIP3    H1 7664   3.164   4.870   5.317
 2569TIP3    H2 7665   3.118   4.992   5.242
 2570TIP3   OH2 7666   3.333   5.587   0.863
 2570TIP3    H1 7667   3.253   5.640   0.870
 2570TIP3    H2 7668   3.339   5.565   0.770
 2571TIP3   OH2 7669   0.559   4.402   2.267
 2571TIP3    H1 7670   0.531   4.385   2.357
 2571TIP3    H2 7671   0.574   4.315   2.230
 2572TIP3   OH2 7672   0.952   1.728   3.418
 2572TIP3    H1 7673   0.966   1.803   3.360
 2572TIP3    H2 7674   0.936   1.766   3.504
 2573TIP3   OH2 7675   5.480   6.599   4.911
 2573TIP3    H1 7676   5.554   6.541   4.931
 2573TIP3    H2 7677   5.519   6.674   4.866
 2574TIP3   OH2 7678   7.508   0.185   6.667
 2574TIP3    H1 7679   7.511   0.118   6.736
 2574TIP3    H2 7680   7.504   0.268   6.714
 2575TIP3   OH2 7681   2.729   1.348   2.339
 2575TIP3    H1 7682   2.664   1.404   2.382
 2575TIP3    H2 7683   2.695   1.337   2.250
 2576TIP3   OH2 7684   1.096   2.721   4.364
 2576TIP3    H1 7685   1.131   2.769   4.288
 2576TIP3    H2 7686   1.165   2.728   4.430
 2577TIP3   OH2 7687   1.960   7.741   1.747
 2577TIP3    H1 7688   1.898   7.791   1.692
 2577TIP3    H2 7689   1.904   7.692   1.807
 2578TIP3   OH2 7690   6.544   4.376   5.350
 2578TIP3    H1 7691   6.573   4.406   5.437
 2578TIP3    H2 7692   6.450   4.364   5.360
 2579TIP3   OH2 7693   1.314   1.836   4.607
 2579TIP3    H1 7694   1.233   1.886   4.598
 2579TIP3    H2 7695   1.288   1.745   4.589
 2580TIP3   OH2 7696   0.697   5.207   4.232
 2580TIP3    H1 7697   0.636   5.201   4.158
 2580TIP3    H2 7698   0.694   5.299   4.259
 2581TIP3   OH2 7699   0.208   7.397   6.447
 2581TIP3    H1 7700   0.238   7.487   6.438
 2581TIP3    H2 7701   0.131   7.403   6.503
 2582TIP3   OH2 7702   1.920   4.892   6.608
 2582TIP3    H1 7703   1.950   4.963   6.552
 2582TIP3    H2 7704   1.859   4.933   6.669
 2583TIP3   OH2 7705   0.379   0.297   4.593
 2583TIP3    H1 7706   0.461   0.344   4.609
 2583TIP3    H2 7707   0.355   0.320   4.504
 2584TIP3   OH2 7708   0.918   4.318   6.208
 2584TIP3    H1 7709   0.971   4.378   6.259
 2584TIP3    H2 7710   0.841   4.302   6.262
 2585TIP3   OH2 7711   6.780   2.880   6.523
 2585TIP3    H1 7712   6.830   2.961   6.534
 2585TIP3    H2 7713   6.776   2.867   6.428
 2586TIP3   OH2 7714   6.774   4.696   5.229
 2586TIP3    H1 7715   6.809   4.721   5.315
 2586TIP3    H2 7716   6.716   4.768   5.206
 2587TIP3   OH2 7717   7.000   7.240   2.301
 2587TIP3    H1 7718   7.079   7.255   2.354
 2587TIP3    H2 7719   6.956   7.167   2.344
 2588TIP3   OH2 7720   2.840   5.905   6.573
 2588TIP3    H1 7721   2.865   5.888   6.483
 2588TIP3    H2 7722   2.832   5.818   6.613
 2589TIP3   OH2 7723   7.293   4.434   3.351
 2589TIP3    H1 7724   7.326   4.349   3.320
 2589TIP3    H2 7725   7.355   4.498   3.316
 2590TIP3   OH2 7726   2.962   2.452   5.663
 2590TIP3    H1 7727   3.034   2.467   5.602
 2590TIP3    H2 7728   2.953   2.357   5.667
 2591TIP3   OH2 7729   6.649   4.928   5.177
 2591TIP3    H1 7730   6.608   4.975   5.104
 2591TIP3    H2 7731   6.729   4.976   5.194
 2592TIP3   OH2 7732   4.281   1.778   6.757
 2592TIP3    H1 7733   4.186   1.789   6.759
 2592TIP3    H2 7734   4.295   1.688   6.787
 2593TIP3   OH2 7735   2.707   1.211   3.233
 2593TIP3    H1 7736   2.663   1.128   3.211
 2593TIP3    H2 7737   2.719   1.206   3.328
 2594TIP3   OH2 7738   3.235   7.652   3.449
 2594TIP3    H1 7739   3.282   7.673   3.368
 2594TIP3    H2 7740   3.201   7.564   3.435
 2595TIP3   OH2 7741   3.907   6.659   2.983
 2595TIP3    H1 7742   3.906   6.669   2.887
 2595TIP3    H2 7743   3.823   6.694   3.012
 2596TIP3   OH2 7744   7.652   6.128   4.651
 2596TIP3    H1 7745   7.668   6.058   4.714
 2596TIP3    H2 7746   7.648   6.208   4.704
 2597TIP3   OH2 7747   5.754   3.673   2.945
 2597TIP3    H1 7748   5.714   3.586   2.943
 2597TIP3    H2 7749   5.744   3.706   2.856
 2598TIP3   OH2 7750   3.571   2.425   3.164
 2598TIP3    H1 7751   3.548   2.401   3.253
 2598TIP3    H2 7752   3.490   2.415   3.114
 2599TIP3   OH2 7753   1.785   5.541   6.074
 2599TIP3    H1 7754   1.809   5.449   6.083
 2599TIP3    H2 7755   1.864   5.584   6.041
 2600TIP3   OH2 7756   7.059   4.390   3.524
 2600TIP3    H1 7757   6.998   4.321   3.498
 2600TIP3    H2 7758   7.130   4.385   3.460
 2601TIP3   OH2 7759   0.734   6.924   0.887
 2601TIP3    H1 7760   0.806   6.907   0.827
 2601TIP3    H2 7761   0.746   7.015   0.915
 2602TIP3   OH2 7762   4.830   5.455   5.749
 2602TIP3    H1 7763   4.769   5.384   5.769
 2602TIP3    H2 7764   4.892   5.416   5.686
 2603TIP3   OH2 7765   6.133   2.874   2.871
 2603TIP3    H1 7766   6.052   2.918   2.845
 2603TIP3    H2 7767   6.111   2.781   2.872
 2604TIP3   OH2 7768   6.600   1.238   0.311
 2604TIP3    H1 7769   6.520   1.289   0.298
 2604TIP3    H2 7770   6.599   1.173   0.240
 2605TIP3   OH2 7771   6.353   2.301   4.143
 2605TIP3    H1 7772   6.441   2.328   4.169
 2605TIP3    H2 7773   6.339   2.344   4.059
 2606TIP3   OH2 7774   5.439   6.976   4.828
 2606TIP3    H1 7775   5.520   6.939   4.863
 2606TIP3    H2 7776   5.380   6.901   4.821
 2607TIP3   OH2 7777   3.967   6.185   0.601
 2607TIP3    H1 7778   3.917   6.115   0.561
 2607TIP3    H2 7779   3.907   6.260   0.604
 2608TIP3   OH2 7780   1.312   4.922   4.508
 2608TIP3    H1 7781   1.229   4.945   4.550
 2608TIP3    H2 7782   1.297   4.940   4.415
 2609TIP3   OH2 7783   7.164   4.077   3.537
 2609TIP3    H1 7784   7.237   4.016   3.523
 2609TIP3    H2 7785   7.206   4.164   3.540
 2610TIP3   OH2 7786   5.674   3.391   5.466
 2610TIP3    H1 7787   5.656   3.326   5.398
 2610TIP3    H2 7788   5.742   3.447   5.428
 2611TIP3   OH2 7789   3.618   1.489   1.171
 2611TIP3    H1 7790   3.703   1.534   1.163
 2611TIP3    H2 7791   3.617   1.457   1.261
 2612TIP3   OH2 7792   6.732   5.178   2.236
 2612TIP3    H1 7793   6.743   5.182   2.331
 2612TIP3    H2 7794   6.781   5.253   2.203
 2613TIP3   OH2 7795   5.802   1.863   3.368
 2613TIP3    H1 7796   5.734   1.841   3.431
 2613TIP3    H2 7797   5.797   1.794   3.302
 2614TIP3   OH2 7798   1.721   4.009   3.016
 2614TIP3    H1 7799   1.775   3.931   3.014
 2614TIP3    H2 7800   1.783   4.082   3.016
 2615TIP3   OH2 7801   4.400   4.979   5.247
 2615TIP3    H1 7802   4.323   4.957   5.300
 2615TIP3    H2 7803   4.454   5.034   5.305
 2616TIP3   OH2 7804   2.233   6.846   4.776
 2616TIP3    H1 7805   2.313   6.878   4.819
 2616TIP3    H2 7806   2.243   6.873   4.685
 2617TIP3   OH2 7807   4.953   1.513   6.763
 2617TIP3    H1 7808   4.895   1.450   6.720
 2617TIP3    H2 7809   4.978   1.574   6.694
 2618TIP3   OH2 7810   7.306   4.641   1.601
 2618TIP3    H1 7811   7.387   4.645   1.550
 2618TIP3    H2 7812   7.237   4.645   1.535
 2619TIP3   OH2 7813   4.613   6.296   3.465
 2619TIP3    H1 7814   4.593   6.293   3.559
 2619TIP3    H2 7815   4.535   6.336   3.425
 2620TIP3   OH2 7816   7.600   1.711   1.019
 2620TIP3    H1 7817   7.689   1.677   1.016
 2620TIP3    H2 7818   7.599   1.772   1.092
 2621TIP3   OH2 7819   8.295   7.772   6.453
 2621TIP3    H1 7820   8.356   7.842   6.434
 2621TIP3    H2 7821   8.345   7.710   6.507
 2622TIP3   OH2 7822   6.022   6.377   4.685
 2622TIP3    H1 7823   6.102   6.411   4.724
 2622TIP3    H2 7824   5.981   6.326   4.756
 2623TIP3   OH2 7825   6.331   5.892   5.118
 2623TIP3    H1 7826   6.282   5.864   5.195
 2623TIP3    H2 7827   6.266   5.897   5.048
 2624TIP3   OH2 7828   8.123   7.466   5.635
 2624TIP3    H1 7829   8.051   7.406   5.652
 2624TIP3    H2 7830   8.192   7.440   5.697
 2625TIP3   OH2 7831   6.563   1.855   5.362
 2625TIP3    H1 7832   6.648   1.849   5.317
 2625TIP3    H2 7833   6.554   1.947   5.385
 2626TIP3   OH2 7834   0.357   1.767   2.178
 2626TIP3    H1 7835   0.401   1.822   2.113
 2626TIP3    H2 7836   0.392   1.797   2.262
 2627TIP3   OH2 7837   5.565   2.249   2.493
 2627TIP3    H1 7838   5.516   2.245   2.575
 2627TIP3    H2 7839   5.603   2.162   2.483
 2628TIP3   OH2 7840   0.292   5.462   4.230
 2628TIP3    H1 7841   0.240   5.479   4.309
 2628TIP3    H2 7842   0.303   5.367   4.228
 2629TIP3   OH2 7843   5.797   3.981   5.720
 2629TIP3    H1 7844   5.845   4.062   5.706
 2629TIP3    H2 7845   5.856   3.927   5.775
 2630TIP3   OH2 7846   1.996   2.652   1.437
 2630TIP3    H1 7847   2.082   2.645   1.395
 2630TIP3    H2 7848   1.963   2.738   1.413
 2631TIP3   OH2 7849   3.891   4.714   5.381
 2631TIP3    H1 7850   3.831   4.756   5.442
 2631TIP3    H2 7851   3.903   4.778   5.311
 2632TIP3   OH2 7852   3.600   7.258   0.496
 2632TIP3    H1 7853   3.536   7.310   0.448
 2632TIP3    H2 7854   3.650   7.213   0.428
 2633TIP3   OH2 7855   0.515   1.521   2.147
 2633TIP3    H1 7856   0.525   1.469   2.227
 2633TIP3    H2 7857   0.491   1.608   2.177
 2634TIP3   OH2 7858   2.231   5.738   5.904
 2634TIP3    H1 7859   2.258   5.743   5.813
 2634TIP3    H2 7860   2.295   5.793   5.951
 2635TIP3   OH2 7861   3.691   6.541   6.047
 2635TIP3    H1 7862   3.647   6.594   5.981
 2635TIP3    H2 7863   3.674   6.450   6.021
 2636TIP3   OH2 7864   6.957   1.256   5.242
 2636TIP3    H1 7865   6.968   1.249   5.337
 2636TIP3    H2 7866   7.046   1.259   5.208
 2637TIP3   OH2 7867   3.218   0.689   4.493
 2637TIP3    H1 7868   3.125   0.670   4.480
 2637TIP3    H2 7869   3.220   0.756   4.561
 2638TIP3   OH2 7870   1.211   2.464   2.685
 2638TIP3    H1 7871   1.272   2.481   2.613
 2638TIP3    H2 7872   1.263   2.478   2.765
 2639TIP3   OH2 7873   0.083   4.916   3.440
 2639TIP3    H1 7874   0.025   4.925   3.516
 2639TIP3    H2 7875   0.080   4.822   3.419
 2640TIP3   OH2 7876   4.247   6.178   0.662
 2640TIP3    H1 7877   4.257   6.272   0.680
 2640TIP3    H2 7878   4.153   6.163   0.667
 2641TIP3   OH2 7879   2.209   2.001   3.305
 2641TIP3    H1 7880   2.192   2.077   3.250
 2641TIP3    H2 7881   2.220   1.928   3.244
 2642TIP3   OH2 7882   4.831   2.453   4.727
 2642TIP3    H1 7883   4.741   2.486   4.727
 2642TIP3    H2 7884   4.885   2.530   4.746
 2643TIP3   OH2 7885   5.120   0.235   5.760
 2643TIP3    H1 7886   5.091   0.251   5.850
 2643TIP3    H2 7887   5.054   0.175   5.724
 2644TIP3   OH2 7888   2.717   7.121   0.364
 2644TIP3    H1 7889   2.694   7.150   0.452
 2644TIP3    H2 7890   2.739   7.202   0.318
 2645TIP3   OH2 7891   1.001   5.427   4.663
 2645TIP3    H1 7892   0.980   5.458   4.751
 2645TIP3    H2 7893   1.029   5.506   4.616
 2646TIP3   OH2 7894   2.326   4.573   0.444
 2646TIP3    H1 7895   2.311   4.480   0.463
 2646TIP3    H2 7896   2.243   4.603   0.406
 2647TIP3   OH2 7897   0.890   1.768   6.063
 2647TIP3    H1 7898   0.856   1.685   6.095
 2647TIP3    H2 7899   0.896   1.823   6.141
 2648TIP3   OH2 7900   4.060   6.051   6.011
 2648TIP3    H1 7901   4.140   6.006   6.037
 2648TIP3    H2 7902   4.029   6.001   5.935
 2649TIP3   OH2 7903   5.049   7.509   6.315
 2649TIP3    H1 7904   4.961   7.505   6.352
 2649TIP3    H2 7905   5.042   7.464   6.231
 2650TIP3   OH2 7906   1.825   7.088   3.240
 2650TIP3    H1 7907   1.909   7.131   3.223
 2650TIP3    H2 7908   1.798   7.054   3.155
 2651TIP3   OH2 7909   3.030   0.926   5.450
 2651TIP3    H1 7910   3.004   0.836   5.466
 2651TIP3    H2 7911   3.009   0.942   5.358
 2652TIP3   OH2 7912   3.220   6.645   0.713
 2652TIP3    H1 7913   3.158   6.640   0.786
 2652TIP3    H2 7914   3.202   6.730   0.672
 2653TIP3   OH2 7915   5.280   1.095   3.959
 2653TIP3    H1 7916   5.192   1.059   3.947
 2653TIP3    H2 7917   5.289   1.104   4.054
 2654TIP3   OH2 7918   3.699   5.544   2.004
 2654TIP3    H1 7919   3.741   5.458   2.011
 2654TIP3    H2 7920   3.609   5.528   2.032
 2655TIP3   OH2 7921   6.644   1.583   5.746
 2655TIP3    H1 7922   6.567   1.587   5.802
 2655TIP3    H2 7923   6.712   1.631   5.794
 2656TIP3   OH2 7924   0.066   4.305   4.581
 2656TIP3    H1 7925   0.116   4.354   4.646
 2656TIP3    H2 7926   0.078   4.213   4.604
 2657TIP3   OH2 7927   5.728   4.643  -0.029
 2657TIP3    H1 7928   5.644   4.685  -0.013
 2657TIP3    H2 7929   5.786   4.678   0.039
 2658TIP3   OH2 7930   3.585   7.588   2.575
 2658TIP3    H1 7931   3.628   7.529   2.514
 2658TIP3    H2 7932   3.606   7.554   2.662
 2659TIP3   OH2 7933   6.772   0.988   0.347
 2659TIP3    H1 7934   6.712   0.976   0.272
 2659TIP3    H2 7935   6.857   1.004   0.307
 2660TIP3   OH2 7936   4.739   2.635   2.261
 2660TIP3    H1 7937   4.771   2.688   2.188
 2660TIP3    H2 7938   4.656   2.599   2.231
 2661TIP3   OH2 7939   7.284   3.040   3.658
 2661TIP3    H1 7940   7.233   3.116   3.629
 2661TIP3    H2 7941   7.276   3.041   3.753
 2662TIP3   OH2 7942   0.500   5.556   5.219
 2662TIP3    H1 7943   0.444   5.633   5.213
 2662TIP3    H2 7944   0.468   5.497   5.151
 2663TIP3   OH2 7945   4.777   1.969   0.000
 2663TIP3    H1 7946   4.870   1.949   0.012
 2663TIP3    H2 7947   4.737   1.885  -0.023
 2664TIP3   OH2 7948   0.022   1.566   2.875
 2664TIP3    H1 7949  -0.045   1.604   2.931
 2664TIP3    H2 7950   0.038   1.479   2.913
 2665TIP3   OH2 7951   6.989   7.164   0.764
 2665TIP3    H1 7952   6.922   7.182   0.830
 2665TIP3    H2 7953   7.019   7.076   0.783
 2666TIP3   OH2 7954   0.836   7.419   0.162
 2666TIP3    H1 7955   0.878   7.333   0.170
 2666TIP3    H2 7956   0.817   7.427   0.068
 2667TIP3   OH2 7957   4.444   2.050   0.062
 2667TIP3    H1 7958   4.458   1.956   0.053
 2667TIP3    H2 7959   4.441   2.083  -0.028
 2668TIP3   OH2 7960   3.096   3.611   4.669
 2668TIP3    H1 7961   3.105   3.520   4.639
 2668TIP3    H2 7962   3.012   3.639   4.635
 2669TIP3   OH2 7963   4.749   0.915   5.779
 2669TIP3    H1 7964   4.716   0.990   5.729
 2669TIP3    H2 7965   4.758   0.845   5.715
 2670TIP3   OH2 7966   5.856   0.366   4.899
 2670TIP3    H1 7967   5.892   0.347   4.812
 2670TIP3    H2 7968   5.840   0.280   4.938
 2671TIP3   OH2 7969   0.857   2.419   0.732
 2671TIP3    H1 7970   0.856   2.358   0.806
 2671TIP3    H2 7971   0.938   2.400   0.686
 2672TIP3   OH2 7972   2.973   5.541   3.368
 2672TIP3    H1 7973   2.930   5.464   3.332
 2672TIP3    H2 7974   2.901   5.601   3.388
 2673TIP3   OH2 7975   5.279   4.994   1.440
 2673TIP3    H1 7976   5.245   5.084   1.436
 2673TIP3    H2 7977   5.371   5.002   1.416
 2674TIP3   OH2 7978   3.764   2.158   3.881
 2674TIP3    H1 7979   3.774   2.091   3.814
 2674TIP3    H2 7980   3.847   2.206   3.879
 2675TIP3   OH2 7981   3.626   6.281   0.357
 2675TIP3    H1 7982   3.537   6.303   0.386
 2675TIP3    H2 7983   3.638   6.190   0.384
 2676TIP3   OH2 7984   4.938   0.372   3.294
 2676TIP3    H1 7985   4.891   0.434   3.350
 2676TIP3    H2 7986   4.922   0.286   3.334
 2677TIP3   OH2 7987   4.249   7.617   6.710
 2677TIP3    H1 7988   4.268   7.620   6.616
 2677TIP3    H2 7989   4.226   7.707   6.734
 2678TIP3   OH2 7990   5.652   1.720   2.290
 2678TIP3    H1 7991   5.587   1.659   2.255
 2678TIP3    H2 7992   5.655   1.700   2.384
 2679TIP3   OH2 7993   6.695   2.375   6.692
 2679TIP3    H1 7994   6.739   2.317   6.753
 2679TIP3    H2 7995   6.757   2.446   6.677
 2680TIP3   OH2 7996   4.784   5.129   1.044
 2680TIP3    H1 7997   4.803   5.223   1.042
 2680TIP3    H2 7998   4.867   5.088   1.065
 2681TIP3   OH2 7999   5.140   0.473   2.480
 2681TIP3    H1 8000   5.197   0.535   2.434
 2681TIP3    H2 8001   5.154   0.390   2.433
 2682TIP3   OH2 8002   2.985   7.880   5.895
 2682TIP3    H1 8003   3.031   7.948   5.844
 2682TIP3    H2 8004   3.045   7.859   5.966
 2683TIP3   OH2 8005   5.312   0.665   4.510
 2683TIP3    H1 8006   5.245   0.681   4.443
 2683TIP3    H2 8007   5.384   0.723   4.486
 2684TIP3   OH2 8008   6.485   4.956   1.426
 2684TIP3    H1 8009   6.470   4.876   1.376
 2684TIP3    H2 8010   6.430   5.021   1.383
 2685TIP3   OH2 8011   2.848   0.472   1.170
 2685TIP3    H1 8012   2.808   0.439   1.250
 2685TIP3    H2 8013   2.889   0.555   1.195
 2686TIP3   OH2 8014   5.850   6.247   6.135
 2686TIP3    H1 8015   5.897   6.235   6.218
 2686TIP3    H2 8016   5.771   6.296   6.158
 2687TIP3   OH2 8017   5.796   2.615   4.407
 2687TIP3    H1 8018   5.757   2.630   4.493
 2687TIP3    H2 8019   5.774   2.525   4.386
 2688TIP3   OH2 8020   2.337   5.122   3.352
 2688TIP3    H1 8021   2.254   5.122   3.306
 2688TIP3    H2 8022   2.358   5.029   3.365
 2689TIP3   OH2 8023   7.846   0.998   4.599
 2689TIP3    H1 8024   7.933   0.971   4.629
 2689TIP3    H2 8025   7.809   0.919   4.561
 2690TIP3   OH2 8026   6.346   2.924   2.192
 2690TIP3    H1 8027   6.335   2.972   2.110
 2690TIP3    H2 8028   6.319   2.986   2.260
 2691TIP3   OH2 8029   7.318   4.046   1.463
 2691TIP3    H1 8030   7.314   4.137   1.490
 2691TIP3    H2 8031   7.300   4.048   1.369
 2692TIP3   OH2 8032   0.116   4.609   2.737
 2692TIP3    H1 8033   0.186   4.644   2.791
 2692TIP3    H2 8034   0.126   4.653   2.652
 2693TIP3   OH2 8035   0.323   3.252   0.857
 2693TIP3    H1 8036   0.369   3.175   0.891
 2693TIP3    H2 8037   0.230   3.230   0.864
 2694TIP3   OH2 8038   1.940   1.231   6.332
 2694TIP3    H1 8039   2.004   1.291   6.370
 2694TIP3    H2 8040   1.990   1.153   6.308
 2695TIP3   OH2 8041   3.291   6.296   3.005
 2695TIP3    H1 8042   3.206   6.279   3.046
 2695TIP3    H2 8043   3.318   6.211   2.969
 2696TIP3   OH2 8044   1.398   3.618   6.757
 2696TIP3    H1 8045   1.388   3.603   6.663
 2696TIP3    H2 8046   1.358   3.541   6.797
 2697TIP3   OH2 8047   4.407   1.411   0.394
 2697TIP3    H1 8048   4.416   1.505   0.378
 2697TIP3    H2 8049   4.476   1.371   0.341
 2698TIP3   OH2 8050   2.212   6.082   2.833
 2698TIP3    H1 8051   2.156   6.102   2.758
 2698TIP3    H2 8052   2.221   6.166   2.878
 2699TIP3   OH2 8053   1.042   6.946   5.937
 2699TIP3    H1 8054   0.972   6.880   5.946
 2699TIP3    H2 8055   0.997   7.025   5.909
 2700TIP3   OH2 8056   7.589   7.232   3.594
 2700TIP3    H1 8057   7.521   7.220   3.660
 2700TIP3    H2 8058   7.649   7.296   3.632
 2701TIP3   OH2 8059   4.648   7.516   0.829
 2701TIP3    H1 8060   4.691   7.540   0.911
 2701TIP3    H2 8061   4.571   7.465   0.856
 2702TIP3   OH2 8062   3.401   0.301   0.198
 2702TIP3    H1 8063   3.461   0.250   0.144
 2702TIP3    H2 8064   3.458   0.361   0.246
 2703TIP3   OH2 8065   6.548   0.335   2.307
 2703TIP3    H1 8066   6.486   0.368   2.373
 2703TIP3    H2 8067   6.498   0.269   2.259
 2704TIP3   OH2 8068   4.817   1.726   1.544
 2704TIP3    H1 8069   4.825   1.634   1.521
 2704TIP3    H2 8070   4.746   1.759   1.489
 2705TIP3   OH2 8071   6.153   4.219   3.687
 2705TIP3    H1 8072   6.245   4.192   3.685
 2705TIP3    H2 8073   6.105   4.137   3.699
 2706TIP3   OH2 8074   1.423   3.426   1.593
 2706TIP3    H1 8075   1.375   3.453   1.671
 2706TIP3    H2 8076   1.356   3.413   1.526
 2707TIP3   OH2 8077   2.855   7.770   6.479
 2707TIP3    H1 8078   2.911   7.798   6.552
 2707TIP3    H2 8079   2.868   7.837   6.412
 2708TIP3   OH2 8080   1.399   5.481   6.708
 2708TIP3    H1 8081   1.341   5.520   6.774
 2708TIP3    H2 8082   1.485   5.519   6.726
 2709TIP3   OH2 8083   4.517   5.170   1.695
 2709TIP3    H1 8084   4.502   5.077   1.678
 2709TIP3    H2 8085   4.599   5.173   1.745
 2710TIP3   OH2 8086   4.550   4.119   6.018
 2710TIP3    H1 8087   4.481   4.143   5.956
 2710TIP3    H2 8088   4.514   4.140   6.104
 2711TIP3   OH2 8089   6.847   5.212   3.694
 2711TIP3    H1 8090   6.896   5.200   3.613
 2711TIP3    H2 8091   6.830   5.123   3.726
 2712TIP3   OH2 8092   1.637   6.539   0.214
 2712TIP3    H1 8093   1.655   6.445   0.220
 2712TIP3    H2 8094   1.618   6.554   0.121
 2713TIP3   OH2 8095   3.520   5.942   6.038
 2713TIP3    H1 8096   3.426   5.937   6.055
 2713TIP3    H2 8097   3.538   5.868   5.980
 2714TIP3   OH2 8098   6.411   2.767   2.562
 2714TIP3    H1 8099   6.428   2.696   2.501
 2714TIP3    H2 8100   6.451   2.738   2.644
 2715TIP3   OH2 8101   2.943   5.491   3.665
 2715TIP3    H1 8102   2.916   5.582   3.681
 2715TIP3    H2 8103   3.034   5.487   3.694
 2716TIP3   OH2 8104   2.180   6.370   3.516
 2716TIP3    H1 8105   2.229   6.326   3.447
 2716TIP3    H2 8106   2.228   6.351   3.596
 2717TIP3   OH2 8107   3.138   4.667   5.820
 2717TIP3    H1 8108   3.044   4.679   5.832
 2717TIP3    H2 8109   3.145   4.584   5.773
 2718TIP3   OH2 8110   3.305   7.198   0.141
 2718TIP3    H1 8111   3.399   7.180   0.140
 2718TIP3    H2 8112   3.300   7.294   0.150
 2719TIP3   OH2 8113   2.423   0.760   3.758
 2719TIP3    H1 8114   2.398   0.706   3.834
 2719TIP3    H2 8115   2.369   0.839   3.767
 2720TIP3   OH2 8116   2.250   1.590   4.831
 2720TIP3    H1 8117   2.247   1.555   4.742
 2720TIP3    H2 8118   2.160   1.581   4.864
 2721TIP3   OH2 8119   0.935   5.825   6.755
 2721TIP3    H1 8120   1.025   5.839   6.725
 2721TIP3    H2 8121   0.888   5.903   6.726
 2722TIP3   OH2 8122   5.594   2.529   1.586
 2722TIP3    H1 8123   5.549   2.530   1.502
 2722TIP3    H2 8124   5.567   2.611   1.629
 2723TIP3   OH2 8125   4.008   0.312   0.820
 2723TIP3    H1 8126   3.950   0.293   0.747
 2723TIP3    H2 8127   3.971   0.391   0.860
 2724TIP3   OH2 8128   5.145   0.274   6.483
 2724TIP3    H1 8129   5.233   0.237   6.483
 2724TIP3    H2 8130   5.149   0.345   6.418
 2725TIP3   OH2 8131   3.235   5.556   6.016
 2725TIP3    H1 8132   3.289   5.569   6.094
 2725TIP3    H2 8133   3.297   5.548   5.944
 2726TIP3   OH2 8134   4.167   6.284   0.257
 2726TIP3    H1 8135   4.124   6.199   0.250
 2726TIP3    H2 8136   4.165   6.319   0.169
 2727TIP3   OH2 8137   0.116   0.423   5.545
 2727TIP3    H1 8138   0.041   0.456   5.596
 2727TIP3    H2 8139   0.076   0.374   5.473
 2728TIP3   OH2 8140   4.206   5.021   0.809
 2728TIP3    H1 8141   4.241   4.944   0.854
 2728TIP3    H2 8142   4.237   5.095   0.861
 2729TIP3   OH2 8143   8.203   1.674   2.225
 2729TIP3    H1 8144   8.258   1.667   2.303
 2729TIP3    H2 8145   8.263   1.701   2.155
 2730TIP3   OH2 8146   6.091   5.755   1.769
 2730TIP3    H1 8147   6.071   5.681   1.826
 2730TIP3    H2 8148   6.024   5.751   1.700
 2731TIP3   OH2 8149   0.670   5.750   4.302
 2731TIP3    H1 8150   0.653   5.779   4.213
 2731TIP3    H2 8151   0.608   5.801   4.356
 2732TIP3   OH2 8152   7.115   5.135   3.410
 2732TIP3    H1 8153   7.154   5.211   3.368
 2732TIP3    H2 8154   7.184   5.068   3.408
 2733TIP3   OH2 8155   2.556   1.933   6.273
 2733TIP3    H1 8156   2.497   2.000   6.308
 2733TIP3    H2 8157   2.640   1.950   6.315
 2734TIP3   OH2 8158   7.425   2.710   1.376
 2734TIP3    H1 8159   7.368   2.633   1.378
 2734TIP3    H2 8160   7.507   2.680   1.416
 2735TIP3   OH2 8161   3.502   0.154   6.604
 2735TIP3    H1 8162   3.453   0.145   6.686
 2735TIP3    H2 8163   3.464   0.088   6.547
 2736TIP3   OH2 8164   2.724   5.512   2.382
 2736TIP3    H1 8165   2.724   5.582   2.317
 2736TIP3    H2 8166   2.807   5.522   2.428
 2737TIP3   OH2 8167   5.804   6.179   3.665
 2737TIP3    H1 8168   5.781   6.141   3.750
 2737TIP3    H2 8169   5.736   6.146   3.606
 2738TIP3   OH2 8170   7.467   7.170   0.746
 2738TIP3    H1 8171   7.426   7.129   0.670
 2738TIP3    H2 8172   7.534   7.228   0.708
 2739TIP3   OH2 8173   2.533   7.629   5.793
 2739TIP3    H1 8174   2.510   7.705   5.847
 2739TIP3    H2 8175   2.611   7.656   5.746
 2740TIP3   OH2 8176   1.014   6.696   0.994
 2740TIP3    H1 8177   1.045   6.774   1.040
 2740TIP3    H2 8178   1.074   6.686   0.920
 2741TIP3   OH2 8179   1.006   4.984   2.077
 2741TIP3    H1 8180   1.098   5.010   2.067
 2741TIP3    H2 8181   1.009   4.888   2.080
 2742TIP3   OH2 8182   2.767   5.494   5.359
 2742TIP3    H1 8183   2.701   5.438   5.399
 2742TIP3    H2 8184   2.850   5.466   5.398
 2743TIP3   OH2 8185   4.791   4.338   0.711
 2743TIP3    H1 8186   4.742   4.313   0.633
 2743TIP3    H2 8187   4.828   4.256   0.744
 2744TIP3   OH2 8188   4.983   5.958   1.396
 2744TIP3    H1 8189   4.906   6.002   1.362
 2744TIP3    H2 8190   4.956   5.922   1.480
 2745TIP3   OH2 8191   5.232   5.368   2.458
 2745TIP3    H1 8192   5.252   5.303   2.525
 2745TIP3    H2 8193   5.151   5.410   2.488
 2746TIP3   OH2 8194   7.976   7.439   0.448
 2746TIP3    H1 8195   8.067   7.432   0.418
 2746TIP3    H2 8196   7.980   7.498   0.524
 2747TIP3   OH2 8197   8.298   4.324   6.602
 2747TIP3    H1 8198   8.382   4.370   6.602
 2747TIP3    H2 8199   8.304   4.264   6.675
 2748TIP3   OH2 8200   6.129   6.710   4.956
 2748TIP3    H1 8201   6.115   6.800   4.986
 2748TIP3    H2 8202   6.201   6.678   5.011
 2749TIP3   OH2 8203   1.458   6.923   3.673
 2749TIP3    H1 8204   1.534   6.890   3.625
 2749TIP3    H2 8205   1.496   6.975   3.745
 2750TIP3   OH2 8206   8.301   1.297   3.398
 2750TIP3    H1 8207   8.379   1.348   3.419
 2750TIP3    H2 8208   8.287   1.242   3.475
 2751TIP3   OH2 8209   3.208   0.126   2.951
 2751TIP3    H1 8210   3.250   0.174   2.881
 2751TIP3    H2 8211   3.179   0.044   2.910
 2752TIP3   OH2 8212   7.574   3.181   3.585
 2752TIP3    H1 8213   7.499   3.237   3.564
 2752TIP3    H2 8214   7.557   3.100   3.537
 2753TIP3   OH2 8215   3.211   6.097   4.644
 2753TIP3    H1 8216   3.193   6.184   4.609
 2753TIP3    H2 8217   3.173   6.036   4.580
 2754TIP3   OH2 8218   7.110   2.168   5.743
 2754TIP3    H1 8219   7.153   2.230   5.684
 2754TIP3    H2 8220   7.065   2.223   5.807
 2755TIP3   OH2 8221   4.228   6.951   4.334
 2755TIP3    H1 8222   4.148   7.003   4.328
 2755TIP3    H2 8223   4.234   6.927   4.427
 2756TIP3   OH2 8224   7.572   3.702   3.031
 2756TIP3    H1 8225   7.652   3.697   2.979
 2756TIP3    H2 8226   7.505   3.659   2.978
 2757TIP3   OH2 8227   6.156   2.460   2.509
 2757TIP3    H1 8228   6.123   2.545   2.482
 2757TIP3    H2 8229   6.138   2.403   2.434
 2758TIP3   OH2 8230   5.283   5.472   1.020
 2758TIP3    H1 8231   5.343   5.534   0.980
 2758TIP3    H2 8232   5.340   5.407   1.062
 2759TIP3   OH2 8233   1.381   4.640   6.100
 2759TIP3    H1 8234   1.470   4.622   6.130
 2759TIP3    H2 8235   1.371   4.735   6.108
 2760TIP3   OH2 8236   4.769   3.767   0.647
 2760TIP3    H1 8237   4.846   3.740   0.696
 2760TIP3    H2 8238   4.698   3.712   0.681
 2761TIP3   OH2 8239   1.553   5.024   3.000
 2761TIP3    H1 8240   1.582   5.089   3.065
 2761TIP3    H2 8241   1.507   5.075   2.934
 2762TIP3   OH2 8242   6.102   1.133   5.823
 2762TIP3    H1 8243   6.155   1.206   5.791
 2762TIP3    H2 8244   6.012   1.159   5.803
 2763TIP3   OH2 8245   2.580   7.303   0.543
 2763TIP3    H1 8246   2.591   7.379   0.600
 2763TIP3    H2 8247   2.527   7.242   0.594
 2764TIP3   OH2 8248   0.096   0.579   2.413
 2764TIP3    H1 8249   0.192   0.581   2.410
 2764TIP3    H2 8250   0.071   0.669   2.435
 2765TIP3   OH2 8251   7.631   6.105   6.140
 2765TIP3    H1 8252   7.687   6.088   6.064
 2765TIP3    H2 8253   7.577   6.026   6.148
 2766TIP3   OH2 8254   2.132   3.927   3.016
 2766TIP3    H1 8255   2.051   3.903   3.061
 2766TIP3    H2 8256   2.155   3.850   2.964
 2767TIP3   OH2 8257   0.306   1.985   0.900
 2767TIP3    H1 8258   0.336   2.001   0.989
 2767TIP3    H2 8259   0.232   1.925   0.909
 2768TIP3   OH2 8260   5.589   1.605   4.035
 2768TIP3    H1 8261   5.548   1.668   3.977
 2768TIP3    H2 8262   5.675   1.644   4.054
 2769TIP3   OH2 8263   3.351   6.182   4.327
 2769TIP3    H1 8264   3.412   6.247   4.361
 2769TIP3    H2 8265   3.393   6.148   4.248
 2770TIP3   OH2 8266   0.307   3.043   3.098
 2770TIP3    H1 8267   0.367   3.016   3.168
 2770TIP3    H2 8268   0.350   3.015   3.017
 2771TIP3   OH2 8269   4.708   4.655   0.761
 2771TIP3    H1 8270   4.792   4.698   0.781
 2771TIP3    H2 8271   4.729   4.562   0.755
 2772TIP3   OH2 8272   7.630   5.527   1.441
 2772TIP3    H1 8273   7.646   5.542   1.534
 2772TIP3    H2 8274   7.587   5.441   1.438
 2773TIP3   OH2 8275   5.583   1.020   5.561
 2773TIP3    H1 8276   5.510   1.061   5.515
 2773TIP3    H2 8277   5.543   0.980   5.638
 2774TIP3   OH2 8278   1.012   5.277   2.418
 2774TIP3    H1 8279   1.033   5.306   2.329
 2774TIP3    H2 8280   0.957   5.200   2.406
 2775TIP3   OH2 8281   6.348   1.912   6.637
 2775TIP3    H1 8282   6.434   1.950   6.618
 2775TIP3    H2 8283   6.337   1.844   6.571
 2776TIP3   OH2 8284   5.198   4.543   6.471
 2776TIP3    H1 8285   5.157   4.620   6.512
 2776TIP3    H2 8286   5.145   4.526   6.393
 2777TIP3   OH2 8287   5.359   3.420   2.089
 2777TIP3    H1 8288   5.411   3.423   2.009
 2777TIP3    H2 8289   5.336   3.511   2.106
 2778TIP3   OH2 8290   4.070   3.462   0.099
 2778TIP3    H1 8291   4.102   3.517   0.027
 2778TIP3    H2 8292   4.010   3.519   0.148
 2779TIP3   OH2 8293   0.510   4.036   5.679
 2779TIP3    H1 8294   0.444   4.010   5.742
 2779TIP3    H2 8295   0.559   3.955   5.661
 2780TIP3   OH2 8296   3.011   4.663   1.900
 2780TIP3    H1 8297   2.924   4.624   1.888
 2780TIP3    H2 8298   3.058   4.642   1.819
 2781TIP3   OH2 8299   8.148   6.718   5.246
 2781TIP3    H1 8300   8.104   6.671   5.317
 2781TIP3    H2 8301   8.184   6.796   5.289
 2782TIP3   OH2 8302   4.255   0.358   5.803
 2782TIP3    H1 8303   4.211   0.274   5.791
 2782TIP3    H2 8304   4.238   0.406   5.722
 2783TIP3   OH2 8305   2.469   0.222   5.109
 2783TIP3    H1 8306   2.443   0.164   5.037
 2783TIP3    H2 8307   2.512   0.164   5.172
 2784TIP3   OH2 8308   8.000   7.025   4.628
 2784TIP3    H1 8309   7.960   7.080   4.561
 2784TIP3    H2 8310   8.077   6.987   4.586
 2785TIP3   OH2 8311   1.832   7.060   5.022
 2785TIP3    H1 8312   1.760   7.095   4.970
 2785TIP3    H2 8313   1.795   6.984   5.067
 2786TIP3   OH2 8314   3.816   4.800   5.109
 2786TIP3    H1 8315   3.770   4.749   5.043
 2786TIP3    H2 8316   3.895   4.831   5.065
 2787TIP3   OH2 8317   4.841   1.163   3.677
 2787TIP3    H1 8318   4.787   1.212   3.615
 2787TIP3    H2 8319   4.930   1.168   3.642
 2788TIP3   OH2 8320   4.652   5.793   4.700
 2788TIP3    H1 8321   4.658   5.706   4.659
 2788TIP3    H2 8322   4.722   5.793   4.765
 2789TIP3   OH2 8323   0.458   1.662   4.493
 2789TIP3    H1 8324   0.381   1.605   4.498
 2789TIP3    H2 8325   0.422   1.750   4.487
 2790TIP3   OH2 8326   5.718   5.717   1.988
 2790TIP3    H1 8327   5.665   5.789   1.954
 2790TIP3    H2 8328   5.658   5.642   1.988
 2791TIP3   OH2 8329   0.674   4.551   1.574
 2791TIP3    H1 8330   0.683   4.615   1.645
 2791TIP3    H2 8331   0.760   4.512   1.566
 2792TIP3   OH2 8332   3.621   0.464   3.134
 2792TIP3    H1 8333   3.641   0.531   3.200
 2792TIP3    H2 8334   3.546   0.499   3.087
 2793TIP3   OH2 8335   6.297   6.037   3.581
 2793TIP3    H1 8336   6.384   6.075   3.590
 2793TIP3    H2 8337   6.311   5.953   3.538
 2794TIP3   OH2 8338   2.237   4.045   6.627
 2794TIP3    H1 8339   2.227   4.012   6.537
 2794TIP3    H2 8340   2.306   3.991   6.665
 2795TIP3   OH2 8341   5.738   0.170   0.388
 2795TIP3    H1 8342   5.766   0.090   0.344
 2795TIP3    H2 8343   5.643   0.159   0.400
 2796TIP3   OH2 8344   2.663   0.906   0.416
 2796TIP3    H1 8345   2.702   0.865   0.339
 2796TIP3    H2 8346   2.576   0.934   0.387
 2797TIP3   OH2 8347   3.034   2.959   4.988
 2797TIP3    H1 8348   2.972   2.941   4.917
 2797TIP3    H2 8349   3.026   3.053   5.004
 2798TIP3   OH2 8350   4.032   1.436   4.608
 2798TIP3    H1 8351   4.057   1.529   4.610
 2798TIP3    H2 8352   4.066   1.404   4.525
 2799TIP3   OH2 8353   6.323   1.888   1.065
 2799TIP3    H1 8354   6.329   1.958   1.130
 2799TIP3    H2 8355   6.247   1.912   1.012
 2800TIP3   OH2 8356   3.500   3.552   5.159
 2800TIP3    H1 8357   3.548   3.604   5.094
 2800TIP3    H2 8358   3.462   3.480   5.109
 2801TIP3   OH2 8359   7.794   7.409   1.045
 2801TIP3    H1 8360   7.771   7.317   1.032
 2801TIP3    H2 8361   7.870   7.423   0.988
 2802TIP3   OH2 8362   6.711   3.068   0.309
 2802TIP3    H1 8363   6.744   2.979   0.322
 2802TIP3    H2 8364   6.741   3.116   0.386
 2803TIP3   OH2 8365   1.614   2.838   3.091
 2803TIP3    H1 8366   1.706   2.822   3.109
 2803TIP3    H2 8367   1.610   2.848   2.996
 2804TIP3   OH2 8368   6.620   2.163   3.175
 2804TIP3    H1 8369   6.605   2.248   3.216
 2804TIP3    H2 8370   6.544   2.110   3.200
 2805TIP3   OH2 8371   1.131   4.098   1.599
 2805TIP3    H1 8372   1.188   4.158   1.648
 2805TIP3    H2 8373   1.175   4.013   1.607
 2806TIP3   OH2 8374   1.602   6.058   6.156
 2806TIP3    H1 8375   1.566   6.079   6.242
 2806TIP3    H2 8376   1.694   6.038   6.172
 2807TIP3   OH2 8377   4.007   6.945   1.649
 2807TIP3    H1 8378   4.016   7.002   1.725
 2807TIP3    H2 8379   4.081   6.966   1.593
 2808TIP3   OH2 8380   2.107   6.420   2.888
 2808TIP3    H1 8381   2.045   6.492   2.880
 2808TIP3    H2 8382   2.092   6.367   2.810
 2809TIP3   OH2 8383   1.977   7.438   6.352
 2809TIP3    H1 8384   1.965   7.441   6.257
 2809TIP3    H2 8385   2.041   7.507   6.370
 2810TIP3   OH2 8386   5.514   6.963   5.616
 2810TIP3    H1 8387   5.477   6.916   5.541
 2810TIP3    H2 8388   5.473   7.049   5.614
 2811TIP3   OH2 8389   7.336   6.184   5.590
 2811TIP3    H1 8390   7.377   6.259   5.549
 2811TIP3    H2 8391   7.251   6.176   5.547
 2812TIP3   OH2 8392   1.381   5.407   2.127
 2812TIP3    H1 8393   1.309   5.470   2.126
 2812TIP3    H2 8394   1.369   5.359   2.210
 2813TIP3   OH2 8395   1.455   6.271   3.196
 2813TIP3    H1 8396   1.374   6.231   3.227
 2813TIP3    H2 8397   1.525   6.213   3.229
 2814TIP3   OH2 8398   7.875   3.823   5.577
 2814TIP3    H1 8399   7.893   3.728   5.578
 2814TIP3    H2 8400   7.895   3.850   5.488
 2815TIP3   OH2 8401   3.098   6.816   4.585
 2815TIP3    H1 8402   3.132   6.827   4.496
 2815TIP3    H2 8403   3.047   6.895   4.601
 2816TIP3   OH2 8404   3.685   4.043   4.812
 2816TIP3    H1 8405   3.610   4.102   4.808
 2816TIP3    H2 8406   3.655   3.964   4.768
 2817TIP3   OH2 8407   6.818   7.722   1.593
 2817TIP3    H1 8408   6.793   7.729   1.685
 2817TIP3    H2 8409   6.902   7.676   1.594
 2818TIP3   OH2 8410   4.302   4.470   5.458
 2818TIP3    H1 8411   4.338   4.527   5.390
 2818TIP3    H2 8412   4.238   4.524   5.503
 2819TIP3   OH2 8413   6.755   2.213   3.412
 2819TIP3    H1 8414   6.777   2.296   3.369
 2819TIP3    H2 8415   6.721   2.158   3.342
 2820TIP3   OH2 8416   3.363   6.258   6.177
 2820TIP3    H1 8417   3.398   6.270   6.266
 2820TIP3    H2 8418   3.318   6.340   6.158
 2821TIP3   OH2 8419   2.127   4.142   3.819
 2821TIP3    H1 8420   2.200   4.149   3.756
 2821TIP3    H2 8421   2.096   4.232   3.829
 2822TIP3   OH2 8422   2.574   5.373   4.483
 2822TIP3    H1 8423   2.541   5.379   4.572
 2822TIP3    H2 8424   2.495   5.368   4.428
 2823TIP3   OH2 8425   6.713   6.588   1.385
 2823TIP3    H1 8426   6.788   6.625   1.338
 2823TIP3    H2 8427   6.719   6.625   1.473
 2824TIP3   OH2 8428   5.683   1.317   1.707
 2824TIP3    H1 8429   5.598   1.338   1.746
 2824TIP3    H2 8430   5.746   1.366   1.761
 2825TIP3   OH2 8431   4.120   4.796   6.179
 2825TIP3    H1 8432   4.181   4.793   6.253
 2825TIP3    H2 8433   4.056   4.728   6.199
 2826TIP3   OH2 8434   2.128   1.356   0.500
 2826TIP3    H1 8435   2.207   1.408   0.509
 2826TIP3    H2 8436   2.110   1.355   0.406
 2827TIP3   OH2 8437   6.869   4.877   3.899
 2827TIP3    H1 8438   6.802   4.834   3.952
 2827TIP3    H2 8439   6.838   4.867   3.809
 2828TIP3   OH2 8440   3.881   2.185   3.336
 2828TIP3    H1 8441   3.941   2.256   3.359
 2828TIP3    H2 8442   3.856   2.146   3.420
 2829TIP3   OH2 8443   1.247   6.652   0.502
 2829TIP3    H1 8444   1.301   6.577   0.525
 2829TIP3    H2 8445   1.194   6.622   0.428
 2830TIP3   OH2 8446   7.752   6.017   6.696
 2830TIP3    H1 8447   7.749   5.949   6.628
 2830TIP3    H2 8448   7.660   6.034   6.718
 2831TIP3   OH2 8449   1.281   4.707   1.966
 2831TIP3    H1 8450   1.248   4.769   1.901
 2831TIP3    H2 8451   1.371   4.733   1.982
 2832TIP3   OH2 8452   0.920   7.024   4.709
 2832TIP3    H1 8453   0.909   6.955   4.774
 2832TIP3    H2 8454   0.839   7.023   4.658
 2833TIP3   OH2 8455   2.493   5.748   1.179
 2833TIP3    H1 8456   2.552   5.676   1.159
 2833TIP3    H2 8457   2.438   5.715   1.249
 2834TIP3   OH2 8458   6.120   7.310   5.309
 2834TIP3    H1 8459   6.033   7.341   5.333
 2834TIP3    H2 8460   6.178   7.349   5.374
 2835TIP3   OH2 8461   4.514   0.084   6.656
 2835TIP3    H1 8462   4.518   0.124   6.569
 2835TIP3    H2 8463   4.424   0.052   6.664
 2836TIP3   OH2 8464   2.546   1.734   3.117
 2836TIP3    H1 8465   2.568   1.827   3.121
 2836TIP3    H2 8466   2.603   1.693   3.182
 2837TIP3   OH2 8467   0.451   4.604   4.579
 2837TIP3    H1 8468   0.486   4.516   4.568
 2837TIP3    H2 8469   0.513   4.661   4.533
 2838TIP3   OH2 8470   6.419   0.663   3.474
 2838TIP3    H1 8471   6.403   0.706   3.558
 2838TIP3    H2 8472   6.509   0.688   3.451
 2839TIP3   OH2 8473   1.156   1.986   4.977
 2839TIP3    H1 8474   1.160   2.076   4.944
 2839TIP3    H2 8475   1.100   1.940   4.914
 2840TIP3   OH2 8476   5.137   2.116   3.946
 2840TIP3    H1 8477   5.195   2.173   3.895
 2840TIP3    H2 8478   5.157   2.135   4.037
 2841TIP3   OH2 8479   2.690   6.908   2.521
 2841TIP3    H1 8480   2.669   6.820   2.553
 2841TIP3    H2 8481   2.678   6.965   2.597
 2842TIP3   OH2 8482   2.842   4.002   1.191
 2842TIP3    H1 8483   2.895   4.042   1.122
 2842TIP3    H2 8484   2.872   4.045   1.272
 2843TIP3   OH2 8485   0.076   7.421   3.789
 2843TIP3    H1 8486   0.014   7.461   3.850
 2843TIP3    H2 8487   0.159   7.421   3.836
 2844TIP3   OH2 8488   2.170   0.737   5.174
 2844TIP3    H1 8489   2.082   0.756   5.207
 2844TIP3    H2 8490   2.170   0.773   5.085
 2845TIP3   OH2 8491   1.131   4.416   0.809
 2845TIP3    H1 8492   1.187   4.434   0.884
 2845TIP3    H2 8493   1.045   4.397   0.847
 2846TIP3   OH2 8494   6.341   6.717   6.579
 2846TIP3    H1 8495   6.363   6.797   6.627
 2846TIP3    H2 8496   6.417   6.700   6.525
 2847TIP3   OH2 8497   5.085   5.389   5.625
 2847TIP3    H1 8498   5.095   5.302   5.587
 2847TIP3    H2 8499   5.154   5.395   5.690
 2848TIP3   OH2 8500   7.122   6.232   4.432
 2848TIP3    H1 8501   7.061   6.174   4.386
 2848TIP3    H2 8502   7.187   6.172   4.469
 2849TIP3   OH2 8503   3.436   2.977   0.310
 2849TIP3    H1 8504   3.462   2.894   0.270
 2849TIP3    H2 8505   3.493   3.042   0.267
 2850TIP3   OH2 8506   2.738   5.446   4.123
 2850TIP3    H1 8507   2.771   5.411   4.041
 2850TIP3    H2 8508   2.763   5.538   4.123
 2851TIP3   OH2 8509   4.040   1.747   6.514
 2851TIP3    H1 8510   4.104   1.768   6.445
 2851TIP3    H2 8511   3.960   1.791   6.487
 2852TIP3   OH2 8512   7.726   6.706   1.259
 2852TIP3    H1 8513   7.711   6.697   1.353
 2852TIP3    H2 8514   7.770   6.625   1.234
 2853TIP3   OH2 8515   0.663   3.850   5.526
 2853TIP3    H1 8516   0.586   3.816   5.480
 2853TIP3    H2 8517   0.736   3.826   5.470
 2854TIP3   OH2 8518   0.024   4.562   3.691
 2854TIP3    H1 8519   0.083   4.600   3.757
 2854TIP3    H2 8520   0.057   4.473   3.679
 2855TIP3   OH2 8521   6.515   1.090   1.772
 2855TIP3    H1 8522   6.553   1.104   1.685
 2855TIP3    H2 8523   6.421   1.097   1.758
 2856TIP3   OH2 8524   0.714   6.689   2.893
 2856TIP3    H1 8525   0.763   6.673   2.812
 2856TIP3    H2 8526   0.769   6.650   2.961
 2857TIP3   OH2 8527   3.474   3.919   1.285
 2857TIP3    H1 8528   3.442   3.890   1.200
 2857TIP3    H2 8529   3.431   3.861   1.348
 2858TIP3   OH2 8530   7.242   4.084   3.153
 2858TIP3    H1 8531   7.300   4.160   3.150
 2858TIP3    H2 8532   7.281   4.027   3.219
 2859TIP3   OH2 8533   2.855   0.857   6.131
 2859TIP3    H1 8534   2.793   0.813   6.074
 2859TIP3    H2 8535   2.824   0.947   6.136
 2860TIP3   OH2 8536   4.370   4.030   1.187
 2860TIP3    H1 8537   4.320   4.090   1.132
 2860TIP3    H2 8538   4.371   4.071   1.273
 2861TIP3   OH2 8539   1.506   4.402   6.770
 2861TIP3    H1 8540   1.582   4.429   6.822
 2861TIP3    H2 8541   1.431   4.430   6.821
 2862TIP3   OH2 8542   6.879   2.700   4.363
 2862TIP3    H1 8543   6.856   2.658   4.446
 2862TIP3    H2 8544   6.831   2.650   4.297
 2863TIP3   OH2 8545   1.270   2.655   0.072
 2863TIP3    H1 8546   1.225   2.698   0.000
 2863TIP3    H2 8547   1.246   2.562   0.063
 2864TIP3   OH2 8548   0.432   2.239   4.700
 2864TIP3    H1 8549   0.430   2.176   4.772
 2864TIP3    H2 8550   0.344   2.278   4.700
 2865TIP3   OH2 8551   1.906   5.314   2.189
 2865TIP3    H1 8552   1.984   5.352   2.228
 2865TIP3    H2 8553   1.901   5.353   2.102
 2866TIP3   OH2 8554   3.872   3.685   5.158
 2866TIP3    H1 8555   3.880   3.591   5.173
 2866TIP3    H2 8556   3.949   3.708   5.106
 2867TIP3   OH2 8557   7.917   0.421   1.200
 2867TIP3    H1 8558   7.895   0.380   1.117
 2867TIP3    H2 8559   7.833   0.448   1.236
 2868TIP3   OH2 8560   7.310   6.833   3.330
 2868TIP3    H1 8561   7.330   6.812   3.238
 2868TIP3    H2 8562   7.353   6.764   3.380
 2869TIP3   OH2 8563   5.584   6.825   6.471
 2869TIP3    H1 8564   5.563   6.837   6.564
 2869TIP3    H2 8565   5.680   6.818   6.469
 2870TIP3   OH2 8566   2.678   0.724   5.971
 2870TIP3    H1 8567   2.619   0.648   5.976
 2870TIP3    H2 8568   2.693   0.735   5.877
 2871TIP3   OH2 8569   2.567   4.006   5.787
 2871TIP3    H1 8570   2.510   4.048   5.723
 2871TIP3    H2 8571   2.607   4.079   5.835
 2872TIP3   OH2 8572   3.685   3.162   5.035
 2872TIP3    H1 8573   3.647   3.155   5.123
 2872TIP3    H2 8574   3.678   3.073   4.999
 2873TIP3   OH2 8575   7.620   7.716   6.570
 2873TIP3    H1 8576   7.691   7.698   6.509
 2873TIP3    H2 8577   7.629   7.650   6.639
 2874TIP3   OH2 8578   1.408   4.337   2.765
 2874TIP3    H1 8579   1.396   4.244   2.749
 2874TIP3    H2 8580   1.475   4.342   2.833
 2875TIP3   OH2 8581   3.509   1.468   6.565
 2875TIP3    H1 8582   3.466   1.551   6.581
 2875TIP3    H2 8583   3.599   1.482   6.594
 2876TIP3   OH2 8584   4.975   0.497   0.200
 2876TIP3    H1 8585   5.046   0.529   0.144
 2876TIP3    H2 8586   4.927   0.434   0.146
 2877TIP3   OH2 8587   5.020   2.962   4.914
 2877TIP3    H1 8588   4.970   2.982   4.835
 2877TIP3    H2 8589   5.059   3.046   4.939
 2878TIP3   OH2 8590   7.058   3.350   1.226
 2878TIP3    H1 8591   7.136   3.308   1.191
 2878TIP3    H2 8592   6.990   3.283   1.222
 2879TIP3   OH2 8593   6.641   5.723   1.174
 2879TIP3    H1 8594   6.603   5.636   1.165
 2879TIP3    H2 8595   6.709   5.727   1.107
 2880TIP3   OH2 8596   2.416   3.627   0.245
 2880TIP3    H1 8597   2.391   3.595   0.332
 2880TIP3    H2 8598   2.474   3.701   0.262
 2881TIP3   OH2 8599   2.062   0.409   5.420
 2881TIP3    H1 8600   2.135   0.411   5.483
 2881TIP3    H2 8601   1.993   0.460   5.462
 2882TIP3   OH2 8602   2.198   3.330   1.601
 2882TIP3    H1 8603   2.138   3.293   1.666
 2882TIP3    H2 8604   2.262   3.379   1.652
 2883TIP3   OH2 8605   3.634   4.141   4.544
 2883TIP3    H1 8606   3.682   4.066   4.509
 2883TIP3    H2 8607   3.571   4.163   4.475
 2884TIP3   OH2 8608   8.173   0.265   5.046
 2884TIP3    H1 8609   8.118   0.190   5.023
 2884TIP3    H2 8610   8.255   0.249   4.999
 2885TIP3   OH2 8611   6.580   5.089   4.875
 2885TIP3    H1 8612   6.603   4.998   4.854
 2885TIP3    H2 8613   6.565   5.130   4.789
 2886TIP3   OH2 8614   5.449   3.935   0.141
 2886TIP3    H1 8615   5.509   3.870   0.177
 2886TIP3    H2 8616   5.418   3.896   0.059
 2887TIP3   OH2 8617   4.680   3.594   5.308
 2887TIP3    H1 8618   4.748   3.589   5.375
 2887TIP3    H2 8619   4.624   3.667   5.335
 2888TIP3   OH2 8620   4.000   1.447   5.563
 2888TIP3    H1 8621   3.928   1.386   5.553
 2888TIP3    H2 8622   3.964   1.532   5.538
 2889TIP3   OH2 8623   6.279   4.326   0.933
 2889TIP3    H1 8624   6.329   4.367   1.004
 2889TIP3    H2 8625   6.298   4.232   0.942
 2890TIP3   OH2 8626   6.932   7.458   6.623
 2890TIP3    H1 8627   6.888   7.534   6.583
 2890TIP3    H2 8628   7.012   7.448   6.572
 2891TIP3   OH2 8629   6.249   1.465   2.926
 2891TIP3    H1 8630   6.336   1.432   2.903
 2891TIP3    H2 8631   6.254   1.559   2.908
 2892TIP3   OH2 8632   0.212   4.540   2.345
 2892TIP3    H1 8633   0.170   4.586   2.272
 2892TIP3    H2 8634   0.172   4.453   2.346
 2893TIP3   OH2 8635   6.437   2.958   0.594
 2893TIP3    H1 8636   6.386   2.898   0.539
 2893TIP3    H2 8637   6.526   2.923   0.590
 2894TIP3   OH2 8638   4.047   1.338   0.687
 2894TIP3    H1 8639   4.001   1.272   0.739
 2894TIP3    H2 8640   4.039   1.418   0.739
 2895TIP3   OH2 8641   4.271   6.046   1.356
 2895TIP3    H1 8642   4.278   6.043   1.260
 2895TIP3    H2 8643   4.314   5.966   1.386
 2896TIP3   OH2 8644   4.421   0.544   3.742
 2896TIP3    H1 8645   4.358   0.474   3.731
 2896TIP3    H2 8646   4.443   0.543   3.835
 2897TIP3   OH2 8647   0.775   4.501   0.495
 2897TIP3    H1 8648   0.694   4.504   0.445
 2897TIP3    H2 8649   0.748   4.517   0.586
 2898TIP3   OH2 8650   0.175   2.312   2.453
 2898TIP3    H1 8651   0.171   2.383   2.517
 2898TIP3    H2 8652   0.124   2.344   2.378
 2899TIP3   OH2 8653   1.015   0.440   5.523
 2899TIP3    H1 8654   0.954   0.499   5.479
 2899TIP3    H2 8655   1.074   0.410   5.454
 2900TIP3   OH2 8656   2.148   2.816   6.629
 2900TIP3    H1 8657   2.114   2.731   6.656
 2900TIP3    H2 8658   2.086   2.879   6.667
 2901TIP3   OH2 8659   2.074   3.219   6.263
 2901TIP3    H1 8660   2.131   3.167   6.208
 2901TIP3    H2 8661   1.989   3.176   6.257
 2902TIP3   OH2 8662   3.172   2.578   3.109
 2902TIP3    H1 8663   3.224   2.646   3.152
 2902TIP3    H2 8664   3.127   2.623   3.038
 2903TIP3   OH2 8665   0.025   5.771   5.921
 2903TIP3    H1 8666   0.078   5.836   5.876
 2903TIP3    H2 8667   0.068   5.687   5.903
 2904TIP3   OH2 8668   0.746   2.430   1.635
 2904TIP3    H1 8669   0.694   2.511   1.636
 2904TIP3    H2 8670   0.690   2.366   1.591
 2905TIP3   OH2 8671   1.677   5.895   5.725
 2905TIP3    H1 8672   1.667   5.961   5.657
 2905TIP3    H2 8673   1.765   5.907   5.759
 2906TIP3   OH2 8674   2.439   1.465   3.600
 2906TIP3    H1 8675   2.479   1.379   3.591
 2906TIP3    H2 8676   2.388   1.459   3.681
 2907TIP3   OH2 8677   1.681   2.296   4.578
 2907TIP3    H1 8678   1.663   2.267   4.488
 2907TIP3    H2 8679   1.699   2.215   4.626
 2908TIP3   OH2 8680   3.891   7.045   3.092
 2908TIP3    H1 8681   3.937   7.128   3.105
 2908TIP3    H2 8682   3.960   6.984   3.065
 2909TIP3   OH2 8683   7.398   3.513   3.190
 2909TIP3    H1 8684   7.446   3.590   3.160
 2909TIP3    H2 8685   7.456   3.472   3.254
 2910TIP3   OH2 8686   1.556   7.486   1.931
 2910TIP3    H1 8687   1.473   7.526   1.953
 2910TIP3    H2 8688   1.568   7.418   1.998
 2911TIP3   OH2 8689   6.621   3.107   4.747
 2911TIP3    H1 8690   6.693   3.169   4.733
 2911TIP3    H2 8691   6.569   3.146   4.817
 2912TIP3   OH2 8692   4.854   0.820   6.022
 2912TIP3    H1 8693   4.826   0.901   6.065
 2912TIP3    H2 8694   4.809   0.821   5.938
 2913TIP3   OH2 8695   4.474   1.571   5.615
 2913TIP3    H1 8696   4.397   1.515   5.604
 2913TIP3    H2 8697   4.539   1.513   5.655
 2914TIP3   OH2 8698   7.439   5.402   1.718
 2914TIP3    H1 8699   7.502   5.474   1.712
 2914TIP3    H2 8700   7.460   5.360   1.802
 2915TIP3   OH2 8701   7.634   6.119   5.020
 2915TIP3    H1 8702   7.552   6.163   5.043
 2915TIP3    H2 8703   7.607   6.030   4.998
 2916TIP3   OH2 8704   5.885   2.653   1.480
 2916TIP3    H1 8705   5.888   2.642   1.575
 2916TIP3    H2 8706   5.817   2.719   1.465
 2917TIP3   OH2 8707   6.872   2.411   2.370
 2917TIP3    H1 8708   6.837   2.350   2.436
 2917TIP3    H2 8709   6.837   2.496   2.396
 2918TIP3   OH2 8710   7.196   5.379   3.961
 2918TIP3    H1 8711   7.206   5.439   3.887
 2918TIP3    H2 8712   7.196   5.436   4.038
 2919TIP3   OH2 8713   6.221   2.126   3.058
 2919TIP3    H1 8714   6.224   2.107   2.964
 2919TIP3    H2 8715   6.311   2.109   3.089
 2920TIP3   OH2 8716   0.312   0.243   6.659
 2920TIP3    H1 8717   0.281   0.283   6.577
 2920TIP3    H2 8718   0.332   0.318   6.715
 2921TIP3   OH2 8719   0.793   7.012   5.716
 2921TIP3    H1 8720   0.817   6.920   5.732
 2921TIP3    H2 8721   0.782   7.018   5.621
 2922TIP3   OH2 8722   3.911   4.774   2.011
 2922TIP3    H1 8723   3.986   4.820   1.972
 2922TIP3    H2 8724   3.834   4.821   1.978
 2923TIP3   OH2 8725   4.369   3.204   4.771
 2923TIP3    H1 8726   4.340   3.241   4.688
 2923TIP3    H2 8727   4.313   3.127   4.785
 2924TIP3   OH2 8728   0.929   7.480   4.624
 2924TIP3    H1 8729   1.020   7.451   4.625
 2924TIP3    H2 8730   0.886   7.423   4.689
 2925TIP3   OH2 8731   1.424   7.201   1.652
 2925TIP3    H1 8732   1.337   7.206   1.691
 2925TIP3    H2 8733   1.418   7.254   1.572
 2926TIP3   OH2 8734   3.625   0.895   3.773
 2926TIP3    H1 8735   3.608   0.934   3.859
 2926TIP3    H2 8736   3.540   0.863   3.744
 2927TIP3   OH2 8737   3.020   0.992   1.052
 2927TIP3    H1 8738   2.958   0.990   0.979
 2927TIP3    H2 8739   3.103   0.965   1.015
 2928TIP3   OH2 8740   2.832   1.428   3.666
 2928TIP3    H1 8741   2.875   1.506   3.631
 2928TIP3    H2 8742   2.870   1.415   3.752
 2929TIP3   OH2 8743   0.206   6.518   4.220
 2929TIP3    H1 8744   0.295   6.498   4.249
 2929TIP3    H2 8745   0.194   6.466   4.140
 2930TIP3   OH2 8746   0.475   5.938   5.487
 2930TIP3    H1 8747   0.468   5.982   5.403
 2930TIP3    H2 8748   0.445   5.849   5.470
 2931TIP3   OH2 8749   3.503   2.561   1.290
 2931TIP3    H1 8750   3.585   2.534   1.248
 2931TIP3    H2 8751   3.524   2.561   1.384
 2932TIP3   OH2 8752   1.819   5.089   0.915
 2932TIP3    H1 8753   1.745   5.134   0.874
 2932TIP3    H2 8754   1.875   5.159   0.949
 2933TIP3   OH2 8755   4.302   7.284   3.556
 2933TIP3    H1 8756   4.303   7.275   3.651
 2933TIP3    H2 8757   4.380   7.238   3.526
 2934TIP3   OH2 8758   3.982   2.849   3.672
 2934TIP3    H1 8759   3.960   2.923   3.728
 2934TIP3    H2 8760   3.901   2.830   3.624
 2935TIP3   OH2 8761   3.312   0.437   1.788
 2935TIP3    H1 8762   3.379   0.458   1.854
 2935TIP3    H2 8763   3.322   0.506   1.722
 2936TIP3   OH2 8764   1.100   3.180   3.154
 2936TIP3    H1 8765   1.185   3.163   3.115
 2936TIP3    H2 8766   1.037   3.148   3.090
 2937TIP3   OH2 8767   0.420   2.205   6.412
 2937TIP3    H1 8768   0.488   2.255   6.457
 2937TIP3    H2 8769   0.428   2.116   6.448
 2938TIP3   OH2 8770   6.222   6.123   2.230
 2938TIP3    H1 8771   6.317   6.115   2.236
 2938TIP3    H2 8772   6.206   6.144   2.138
 2939TIP3   OH2 8773   1.000   1.810   5.125
 2939TIP3    H1 8774   1.077   1.854   5.089
 2939TIP3    H2 8775   1.016   1.717   5.109
 2940TIP3   OH2 8776   5.360   5.945   5.431
 2940TIP3    H1 8777   5.417   5.914   5.361
 2940TIP3    H2 8778   5.416   5.947   5.509
 2941TIP3   OH2 8779   4.121   7.204   4.520
 2941TIP3    H1 8780   4.142   7.285   4.474
 2941TIP3    H2 8781   4.204   7.174   4.557
 2942TIP3   OH2 8782   5.465   4.718   3.600
 2942TIP3    H1 8783   5.408   4.681   3.533
 2942TIP3    H2 8784   5.551   4.680   3.582
 2943TIP3   OH2 8785   2.803   0.383   6.605
 2943TIP3    H1 8786   2.821   0.337   6.687
 2943TIP3    H2 8787   2.732   0.444   6.627
 2944TIP3   OH2 8788   1.506   1.010   1.142
 2944TIP3    H1 8789   1.423   1.055   1.129
 2944TIP3    H2 8790   1.517   1.006   1.237
 2945TIP3   OH2 8791   7.779   7.492   0.007
 2945TIP3    H1 8792   7.697   7.456   0.041
 2945TIP3    H2 8793   7.847   7.442   0.050
 2946TIP3   OH2 8794   5.487   0.561   0.514
 2946TIP3    H1 8795   5.471   0.637   0.570
 2946TIP3    H2 8796   5.517   0.598   0.431
 2947TIP3   OH2 8797   7.242   0.987   3.593
 2947TIP3    H1 8798   7.314   0.928   3.612
 2947TIP3    H2 8799   7.168   0.953   3.643
 2948TIP3   OH2 8800   7.120   4.821   3.783
 2948TIP3    H1 8801   7.208   4.784   3.775
 2948TIP3    H2 8802   7.061   4.750   3.759
 2949TIP3   OH2 8803   7.621   7.601   3.175
 2949TIP3    H1 8804   7.676   7.670   3.211
 2949TIP3    H2 8805   7.590   7.553   3.251
 2950TIP3   OH2 8806   0.797   0.241   0.095
 2950TIP3    H1 8807   0.799   0.172   0.162
 2950TIP3    H2 8808   0.770   0.196   0.016
 2951TIP3   OH2 8809   1.703   1.020   4.359
 2951TIP3    H1 8810   1.615   1.047   4.384
 2951TIP3    H2 8811   1.693   0.989   4.269
 2952TIP3   OH2 8812   7.318   7.771   4.232
 2952TIP3    H1 8813   7.310   7.675   4.232
 2952TIP3    H2 8814   7.367   7.790   4.313
 2953TIP3   OH2 8815   4.769   3.902   2.363
 2953TIP3    H1 8816   4.792   3.823   2.412
 2953TIP3    H2 8817   4.737   3.963   2.429
 2954TIP3   OH2 8818   5.474   2.897   0.582
 2954TIP3    H1 8819   5.492   2.837   0.509
 2954TIP3    H2 8820   5.561   2.925   0.612
 2955TIP3   OH2 8821   7.565   5.694   0.395
 2955TIP3    H1 8822   7.505   5.738   0.455
 2955TIP3    H2 8823   7.513   5.678   0.316
 2956TIP3   OH2 8824   7.085   3.461   0.715
 2956TIP3    H1 8825   7.070   3.446   0.622
 2956TIP3    H2 8826   7.154   3.398   0.739
 2957TIP3   OH2 8827   7.458   6.017   2.465
 2957TIP3    H1 8828   7.471   6.101   2.421
 2957TIP3    H2 8829   7.544   5.974   2.461
 2958TIP3   OH2 8830   1.040   6.818   5.314
 2958TIP3    H1 8831   1.135   6.821   5.326
 2958TIP3    H2 8832   1.008   6.772   5.391
 2959TIP3   OH2 8833   0.134   1.405   6.645
 2959TIP3    H1 8834   0.171   1.322   6.674
 2959TIP3    H2 8835   0.086   1.383   6.565
 2960TIP3   OH2 8836   6.053   5.781   1.398
 2960TIP3    H1 8837   6.083   5.737   1.318
 2960TIP3    H2 8838   5.963   5.749   1.410
 2961TIP3   OH2 8839   6.416   2.016   3.249
 2961TIP3    H1 8840   6.363   1.940   3.226
 2961TIP3    H2 8841   6.414   2.019   3.345
 2962TIP3   OH2 8842   3.073   2.326   1.698
 2962TIP3    H1 8843   3.000   2.265   1.693
 2962TIP3    H2 8844   3.040   2.406   1.656
 2963TIP3   OH2 8845   1.978   5.622   3.183
 2963TIP3    H1 8846   2.047   5.654   3.241
 2963TIP3    H2 8847   1.926   5.564   3.238
 2964TIP3   OH2 8848   3.777   1.868   0.692
 2964TIP3    H1 8849   3.784   1.954   0.734
 2964TIP3    H2 8850   3.765   1.889   0.599
 2965TIP3   OH2 8851   3.094   2.795   6.670
 2965TIP3    H1 8852   3.036   2.745   6.614
 2965TIP3    H2 8853   3.179   2.754   6.660
 2966TIP3   OH2 8854   8.084   6.710   1.402
 2966TIP3    H1 8855   8.176   6.697   1.424
 2966TIP3    H2 8856   8.077   6.682   1.310
 2967TIP3   OH2 8857   1.882   0.605   3.661
 2967TIP3    H1 8858   1.817   0.674   3.656
 2967TIP3    H2 8859   1.838   0.527   3.628
 2968TIP3   OH2 8860   2.657   1.691   0.180
 2968TIP3    H1 8861   2.666   1.729   0.092
 2968TIP3    H2 8862   2.643   1.766   0.237
 2969TIP3   OH2 8863   2.906   3.684   5.225
 2969TIP3    H1 8864   2.977   3.737   5.263
 2969TIP3    H2 8865   2.867   3.741   5.158
 2970TIP3   OH2 8866   4.355   0.102   2.848
 2970TIP3    H1 8867   4.379   0.170   2.910
 2970TIP3    H2 8868   4.399   0.126   2.767
 2971TIP3   OH2 8869   4.273   2.568   6.831
 2971TIP3    H1 8870   4.368   2.578   6.839
 2971TIP3    H2 8871   4.261   2.491   6.776
 2972TIP3   OH2 8872   2.690   1.119   0.642
 2972TIP3    H1 8873   2.763   1.105   0.582
 2972TIP3    H2 8874   2.630   1.176   0.595
 2973TIP3   OH2 8875   7.002   5.705   1.479
 2973TIP3    H1 8876   6.946   5.627   1.485
 2973TIP3    H2 8877   7.088   5.674   1.508
 2974TIP3   OH2 8878   1.532   7.073   2.117
 2974TIP3    H1 8879   1.624   7.095   2.107
 2974TIP3    H2 8880   1.506   7.039   2.031
 2975TIP3   OH2 8881   0.333   1.427   0.643
 2975TIP3    H1 8882   0.326   1.333   0.660
 2975TIP3    H2 8883   0.331   1.435   0.548
 2976TIP3   OH2 8884   4.250   0.655   1.468
 2976TIP3    H1 8885   4.212   0.632   1.383
 2976TIP3    H2 8886   4.241   0.750   1.473
 2977TIP3   OH2 8887   5.974   1.881   2.215
 2977TIP3    H1 8888   6.015   1.930   2.287
 2977TIP3    H2 8889   5.896   1.932   2.192
 2978TIP3   OH2 8890   3.194   2.918   0.499
 2978TIP3    H1 8891   3.182   2.823   0.494
 2978TIP3    H2 8892   3.248   2.939   0.423
 2979TIP3   OH2 8893   0.214   0.937   5.225
 2979TIP3    H1 8894   0.177   0.989   5.297
 2979TIP3    H2 8895   0.138   0.903   5.179
 2980TIP3   OH2 8896   5.448   5.439   1.506
 2980TIP3    H1 8897   5.410   5.411   1.589
 2980TIP3    H2 8898   5.374   5.472   1.455
 2981TIP3   OH2 8899   5.608   0.240   0.919
 2981TIP3    H1 8900   5.598   0.329   0.885
 2981TIP3    H2 8901   5.519   0.207   0.925
 2982TIP3   OH2 8902   8.037   0.245   0.007
 2982TIP3    H1 8903   8.063   0.196  -0.071
 2982TIP3    H2 8904   7.989   0.182   0.061
 2983TIP3   OH2 8905   2.176   2.753   6.355
 2983TIP3    H1 8906   2.168   2.794   6.441
 2983TIP3    H2 8907   2.098   2.782   6.307
 2984TIP3   OH2 8908   4.620   5.527   0.601
 2984TIP3    H1 8909   4.566   5.604   0.618
 2984TIP3    H2 8910   4.705   5.548   0.640
 2985TIP3   OH2 8911   1.129   2.667   2.143
 2985TIP3    H1 8912   1.062   2.735   2.153
 2985TIP3    H2 8913   1.112   2.631   2.056
 2986TIP3   OH2 8914   6.766   0.578   6.322
 2986TIP3    H1 8915   6.811   0.662   6.308
 2986TIP3    H2 8916   6.741   0.550   6.234
 2987TIP3   OH2 8917   3.801   0.889   1.541
 2987TIP3    H1 8918   3.832   0.962   1.594
 2987TIP3    H2 8919   3.819   0.916   1.451
 2988TIP3   OH2 8920   7.459   2.724   0.909
 2988TIP3    H1 8921   7.470   2.816   0.884
 2988TIP3    H2 8922   7.485   2.721   1.001
 2989TIP3   OH2 8923   7.771   3.671   4.818
 2989TIP3    H1 8924   7.788   3.711   4.732
 2989TIP3    H2 8925   7.798   3.580   4.807
 2990TIP3   OH2 8926   2.667   5.176   0.997
 2990TIP3    H1 8927   2.649   5.083   0.982
 2990TIP3    H2 8928   2.700   5.208   0.913
 2991TIP3   OH2 8929   0.580   6.933   1.870
 2991TIP3    H1 8930   0.598   6.901   1.959
 2991TIP3    H2 8931   0.666   6.940   1.830
 2992TIP3   OH2 8932   4.253   4.147   3.247
 2992TIP3    H1 8933   4.322   4.100   3.294
 2992TIP3    H2 8934   4.293   4.230   3.222
 2993TIP3   OH2 8935   4.029   0.989   0.457
 2993TIP3    H1 8936   3.995   0.971   0.369
 2993TIP3    H2 8937   4.088   1.062   0.445
 2994TIP3   OH2 8938   2.282   6.757   4.295
 2994TIP3    H1 8939   2.287   6.833   4.353
 2994TIP3    H2 8940   2.195   6.721   4.309
 2995TIP3   OH2 8941   0.727   5.240   4.648
 2995TIP3    H1 8942   0.742   5.147   4.633
 2995TIP3    H2 8943   0.814   5.279   4.650
 2996TIP3   OH2 8944   8.053   4.709   5.486
 2996TIP3    H1 8945   8.093   4.660   5.414
 2996TIP3    H2 8946   8.070   4.655   5.563
 2997TIP3   OH2 8947   3.743   6.355   2.088
 2997TIP3    H1 8948   3.804   6.406   2.141
 2997TIP3    H2 8949   3.667   6.341   2.145
 2998TIP3   OH2 8950   1.297   6.286   6.348
 2998TIP3    H1 8951   1.298   6.347   6.422
 2998TIP3    H2 8952   1.354   6.327   6.283
 2999TIP3   OH2 8953   4.703   1.014   1.401
 2999TIP3    H1 8954   4.715   0.929   1.360
 2999TIP3    H2 8955   4.783   1.028   1.451
 3000TIP3   OH2 8956   7.458   3.410   4.101
 3000TIP3    H1 8957   7.463   3.350   4.027
 3000TIP3    H2 8958   7.527   3.380   4.161
 3001TIP3   OH2 8959   2.730   1.372   1.973
 3001TIP3    H1 8960   2.683   1.302   2.018
 3001TIP3    H2 8961   2.670   1.402   1.905
 3002TIP3   OH2 8962   5.276   3.359   5.509
 3002TIP3    H1 8963   5.199   3.374   5.454
 3002TIP3    H2 8964   5.267   3.268   5.538
 3003TIP3   OH2 8965   5.404   2.846   1.022
 3003TIP3    H1 8966   5.488   2.803   1.001
 3003TIP3    H2 8967   5.402   2.922   0.965
 3004TIP3   OH2 8968   1.718   4.710   3.242
 3004TIP3    H1 8969   1.653   4.696   3.172
 3004TIP3    H2 8970   1.802   4.698   3.198
 3005TIP3   OH2 8971   4.531   5.928   2.723
 3005TIP3    H1 8972   4.452   5.886   2.759
 3005TIP3    H2 8973   4.548   5.879   2.642
 3006TIP3   OH2 8974   3.015   1.537   0.651
 3006TIP3    H1 8975   3.011   1.448   0.686
 3006TIP3    H2 8976   3.063   1.587   0.717
 3007TIP3   OH2 8977   8.059   5.198   3.067
 3007TIP3    H1 8978   8.091   5.114   3.098
 3007TIP3    H2 8979   8.103   5.211   2.982
 3008TIP3   OH2 8980   2.850   5.361   3.885
 3008TIP3    H1 8981   2.922   5.298   3.882
 3008TIP3    H2 8982   2.861   5.414   3.806
 3009TIP3   OH2 8983   4.493   0.644   2.547
 3009TIP3    H1 8984   4.542   0.701   2.607
 3009TIP3    H2 8985   4.539   0.560   2.550
 3010TIP3   OH2 8986   1.804   6.489   3.903
 3010TIP3    H1 8987   1.853   6.516   3.826
 3010TIP3    H2 8988   1.870   6.483   3.972
 3011TIP3   OH2 8989   2.067   6.294   5.922
 3011TIP3    H1 8990   2.122   6.282   6.000
 3011TIP3    H2 8991   2.082   6.215   5.870
 3012TIP3   OH2 8992   5.570   0.519   6.112
 3012TIP3    H1 8993   5.546   0.571   6.189
 3012TIP3    H2 8994   5.664   0.504   6.122
 3013TIP3   OH2 8995   5.765   6.546   1.427
 3013TIP3    H1 8996   5.816   6.484   1.375
 3013TIP3    H2 8997   5.800   6.632   1.403
 3014TIP3   OH2 8998   7.647   0.254   6.404
 3014TIP3    H1 8999   7.608   0.332   6.443
 3014TIP3    H2 9000   7.592   0.182   6.435
 3015TIP3   OH2 9001   6.462   0.988   2.527
 3015TIP3    H1 9002   6.368   0.994   2.540
 3015TIP3    H2 9003   6.472   0.943   2.443
 3016TIP3   OH2 9004   4.231   4.246   2.022
 3016TIP3    H1 9005   4.266   4.165   1.983
 3016TIP3    H2 9006   4.213   4.222   2.113
 3017TIP3   OH2 9007   3.308   3.997   0.890
 3017TIP3    H1 9008   3.266   4.028   0.810
 3017TIP3    H2 9009   3.359   4.072   0.920
 3018TIP3   OH2 9010   0.357   1.582   2.531
 3018TIP3    H1 9011   0.389   1.497   2.499
 3018TIP3    H2 9012   0.263   1.569   2.542
 3019TIP3   OH2 9013   3.535   3.484   6.188
 3019TIP3    H1 9014   3.496   3.536   6.118
 3019TIP3    H2 9015   3.584   3.415   6.142
 3020TIP3   OH2 9016   4.069   2.172   4.450
 3020TIP3    H1 9017   4.104   2.250   4.494
 3020TIP3    H2 9018   4.138   2.106   4.461
 3021TIP3   OH2 9019   5.433   2.108   0.306
 3021TIP3    H1 9020   5.450   2.069   0.391
 3021TIP3    H2 9021   5.380   2.186   0.326
 3022TIP3   OH2 9022   2.778   2.779   0.726
 3022TIP3    H1 9023   2.872   2.763   0.717
 3022TIP3    H2 9024   2.744   2.774   0.637
 3023TIP3   OH2 9025   3.353   3.133   3.536
 3023TIP3    H1 9026   3.268   3.175   3.548
 3023TIP3    H2 9027   3.361   3.122   3.441
 3024TIP3   OH2 9028   1.855   2.357   6.292
 3024TIP3    H1 9029   1.786   2.296   6.266
 3024TIP3    H2 9030   1.842   2.434   6.236
 3025TIP3   OH2 9031   4.937   1.278   5.963
 3025TIP3    H1 9032   4.971   1.192   5.940
 3025TIP3    H2 9033   5.015   1.333   5.972
 3026TIP3   OH2 9034   1.667   3.022   4.370
 3026TIP3    H1 9035   1.753   3.049   4.402
 3026TIP3    H2 9036   1.680   2.934   4.336
 3027TIP3   OH2 9037   0.196   1.506   3.439
 3027TIP3    H1 9038   0.192   1.585   3.385
 3027TIP3    H2 9039   0.214   1.539   3.527
 3028TIP3   OH2 9040   4.179   3.315   5.399
 3028TIP3    H1 9041   4.242   3.262   5.349
 3028TIP3    H2 9042   4.180   3.277   5.487
 3029TIP3   OH2 9043   5.167   4.149   1.120
 3029TIP3    H1 9044   5.131   4.183   1.203
 3029TIP3    H2 9045   5.150   4.055   1.124
 3030TIP3   OH2 9046   3.905   7.213   6.583
 3030TIP3    H1 9047   3.813   7.204   6.557
 3030TIP3    H2 9048   3.951   7.149   6.529
 3031TIP3   OH2 9049   5.489   1.539   6.695
 3031TIP3    H1 9050   5.450   1.516   6.779
 3031TIP3    H2 9051   5.581   1.515   6.703
 3032TIP3   OH2 9052   0.455   5.425   2.609
 3032TIP3    H1 9053   0.361   5.408   2.594
 3032TIP3    H2 9054   0.468   5.514   2.577
 3033TIP3   OH2 9055   3.084   6.544   4.706
 3033TIP3    H1 9056   3.088   6.602   4.630
 3033TIP3    H2 9057   3.140   6.470   4.682
 3034TIP3   OH2 9058   7.717   3.389   1.980
 3034TIP3    H1 9059   7.670   3.323   2.030
 3034TIP3    H2 9060   7.725   3.352   1.892
 3035TIP3   OH2 9061   1.882   6.476   1.265
 3035TIP3    H1 9062   1.796   6.448   1.296
 3035TIP3    H2 9063   1.905   6.550   1.320
 3036TIP3   OH2 9064   8.046   6.325   6.521
 3036TIP3    H1 9065   7.998   6.386   6.464
 3036TIP3    H2 9066   8.111   6.285   6.464
 3037TIP3   OH2 9067   5.947   5.464   4.209
 3037TIP3    H1 9068   5.992   5.404   4.150
 3037TIP3    H2 9069   5.862   5.480   4.166
 3038TIP3   OH2 9070   6.963   6.476   1.221
 3038TIP3    H1 9071   6.980   6.414   1.151
 3038TIP3    H2 9072   6.974   6.426   1.301
 3039TIP3   OH2 9073   3.400   0.109   5.099
 3039TIP3    H1 9074   3.424   0.027   5.142
 3039TIP3    H2 9075   3.310   0.096   5.070
 3040TIP3   OH2 9076   3.151   0.619   4.046
 3040TIP3    H1 9077   3.167   0.524   4.051
 3040TIP3    H2 9078   3.198   0.654   4.121
 3041TIP3   OH2 9079   0.063   1.850   0.962
 3041TIP3    H1 9080   0.036   1.759   0.957
 3041TIP3    H2 9081   0.017   1.885   1.039
 3042TIP3   OH2 9082   0.605   5.848   3.536
 3042TIP3    H1 9083   0.632   5.801   3.616
 3042TIP3    H2 9084   0.587   5.779   3.473
 3043TIP3   OH2 9085   6.437   2.917   4.645
 3043TIP3    H1 9086   6.349   2.956   4.655
 3043TIP3    H2 9087   6.497   2.987   4.673
 3044TIP3   OH2 9088   8.069   2.312   3.199
 3044TIP3    H1 9089   8.017   2.248   3.150
 3044TIP3    H2 9090   8.134   2.260   3.246
 3045TIP3   OH2 9091   7.724   4.248   4.938
 3045TIP3    H1 9092   7.745   4.200   5.018
 3045TIP3    H2 9093   7.654   4.308   4.963
 3046TIP3   OH2 9094   3.372   3.688   1.034
 3046TIP3    H1 9095   3.463   3.711   1.015
 3046TIP3    H2 9096   3.376   3.637   1.115
 3047TIP3   OH2 9097   3.520   1.320   2.744
 3047TIP3    H1 9098   3.558   1.402   2.715
 3047TIP3    H2 9099   3.470   1.288   2.669
 3048TIP3   OH2 9100   1.239   5.237   3.821
 3048TIP3    H1 9101   1.283   5.242   3.906
 3048TIP3    H2 9102   1.237   5.144   3.801
 3049TIP3   OH2 9103   1.311   0.621   1.462
 3049TIP3    H1 9104   1.260   0.635   1.382
 3049TIP3    H2 9105   1.390   0.576   1.433
 3050TIP3   OH2 9106   0.055   6.298   6.147
 3050TIP3    H1 9107   0.076   6.242   6.073
 3050TIP3    H2 9108   0.087   6.250   6.223
 3051TIP3   OH2 9109   5.057   6.308   0.147
 3051TIP3    H1 9110   4.974   6.288   0.191
 3051TIP3    H2 9111   5.123   6.297   0.215
 3052TIP3   OH2 9112   7.124   1.160   0.403
 3052TIP3    H1 9113   7.202   1.214   0.398
 3052TIP3    H2 9114   7.051   1.222   0.402
 3053TIP3   OH2 9115   0.668   5.440   6.208
 3053TIP3    H1 9116   0.663   5.352   6.245
 3053TIP3    H2 9117   0.597   5.443   6.143
 3054TIP3   OH2 9118   6.152   0.008   1.108
 3054TIP3    H1 9119   6.175   0.069   1.178
 3054TIP3    H2 9120   6.214  -0.064   1.117
 3055TIP3   OH2 9121   0.325   3.157   2.392
 3055TIP3    H1 9122   0.251   3.107   2.356
 3055TIP3    H2 9123   0.321   3.241   2.347
 3056TIP3   OH2 9124   7.380   2.766   3.276
 3056TIP3    H1 9125   7.371   2.671   3.285
 3056TIP3    H2 9126   7.295   2.800   3.305
 3057TIP3   OH2 9127   7.347   2.089   5.488
 3057TIP3    H1 9128   7.379   2.016   5.542
 3057TIP3    H2 9129   7.414   2.101   5.421
 3058TIP3   OH2 9130   6.088   7.288   3.714
 3058TIP3    H1 9131   6.058   7.300   3.804
 3058TIP3    H2 9132   6.056   7.202   3.689
 3059TIP3   OH2 9133   6.037   5.220   5.015
 3059TIP3    H1 9134   6.015   5.313   5.010
 3059TIP3    H2 9135   5.996   5.190   5.096
 3060TIP3   OH2 9136   2.795   6.695   3.269
 3060TIP3    H1 9137   2.764   6.668   3.355
 3060TIP3    H2 9138   2.850   6.771   3.286
 3061TIP3   OH2 9139   7.337   1.055   1.718
 3061TIP3    H1 9140   7.422   1.086   1.750
 3061TIP3    H2 9141   7.353   0.964   1.693
 3062TIP3   OH2 9142   3.071   2.037   2.223
 3062TIP3    H1 9143   3.080   1.944   2.242
 3062TIP3    H2 9144   3.150   2.060   2.174
 3063TIP3   OH2 9145   3.896   4.561   3.921
 3063TIP3    H1 9146   3.839   4.551   3.997
 3063TIP3    H2 9147   3.911   4.656   3.914
 3064TIP3   OH2 9148   4.422   5.837   1.462
 3064TIP3    H1 9149   4.450   5.868   1.548
 3064TIP3    H2 9150   4.436   5.743   1.464
 3065TIP3   OH2 9151   7.189   0.102   1.216
 3065TIP3    H1 9152   7.149   0.189   1.229
 3065TIP3    H2 9153   7.118   0.049   1.180
 3066TIP3   OH2 9154   0.889   6.618   2.669
 3066TIP3    H1 9155   0.926   6.532   2.689
 3066TIP3    H2 9156   0.925   6.641   2.583
 3067TIP3   OH2 9157   3.091   0.484   1.933
 3067TIP3    H1 9158   3.180   0.458   1.909
 3067TIP3    H2 9159   3.086   0.465   2.027
 3068TIP3   OH2 9160   8.065   5.449   3.294
 3068TIP3    H1 9161   8.130   5.513   3.322
 3068TIP3    H2 9162   8.040   5.403   3.374
 3069TIP3   OH2 9163   5.961   3.411   1.166
 3069TIP3    H1 9164   5.877   3.418   1.211
 3069TIP3    H2 9165   5.949   3.458   1.084
 3070TIP3   OH2 9166   4.405   3.033   6.339
 3070TIP3    H1 9167   4.473   2.984   6.293
 3070TIP3    H2 9168   4.331   3.033   6.278
 3071TIP3   OH2 9169   6.128   0.371   4.378
 3071TIP3    H1 9170   6.180   0.304   4.421
 3071TIP3    H2 9171   6.170   0.384   4.293
 3072TIP3   OH2 9172   2.254   1.238   5.835
 3072TIP3    H1 9173   2.325   1.223   5.773
 3072TIP3    H2 9174   2.274   1.324   5.872
 3073TIP3   OH2 9175   7.770   5.849   6.482
 3073TIP3    H1 9176   7.822   5.899   6.419
 3073TIP3    H2 9177   7.686   5.835   6.439
 3074TIP3   OH2 9178   8.193   4.164   5.195
 3074TIP3    H1 9179   8.119   4.153   5.136
 3074TIP3    H2 9180   8.155   4.210   5.271
 3075TIP3   OH2 9181   5.526   4.790   3.926
 3075TIP3    H1 9182   5.510   4.817   3.836
 3075TIP3    H2 9183   5.487   4.703   3.934
 3076TIP3   OH2 9184   1.740   7.699   2.115
 3076TIP3    H1 9185   1.777   7.612   2.101
 3076TIP3    H2 9186   1.753   7.744   2.032
 3077TIP3   OH2 9187   5.534   2.355   0.599
 3077TIP3    H1 9188   5.462   2.406   0.637
 3077TIP3    H2 9189   5.613   2.398   0.631
 3078TIP3   OH2 9190   5.002   7.174   2.708
 3078TIP3    H1 9191   5.053   7.105   2.751
 3078TIP3    H2 9192   4.986   7.238   2.777
 3079TIP3   OH2 9193   7.768   6.008   5.937
 3079TIP3    H1 9194   7.849   5.995   5.888
 3079TIP3    H2 9195   7.711   5.936   5.909
 3080TIP3   OH2 9196   0.320   2.995   3.916
 3080TIP3    H1 9197   0.309   2.994   3.821
 3080TIP3    H2 9198   0.254   3.058   3.946
 3081TIP3   OH2 9199   3.704   1.139   2.212
 3081TIP3    H1 9200   3.774   1.156   2.150
 3081TIP3    H2 9201   3.746   1.143   2.298
 3082TIP3   OH2 9202   3.594   3.297   6.497
 3082TIP3    H1 9203   3.515   3.309   6.550
 3082TIP3    H2 9204   3.581   3.353   6.421
 3083TIP3   OH2 9205   7.706   2.267   5.627
 3083TIP3    H1 9206   7.795   2.298   5.610
 3083TIP3    H2 9207   7.708   2.235   5.717
 3084TIP3   OH2 9208   6.519   0.744   4.233
 3084TIP3    H1 9209   6.543   0.831   4.264
 3084TIP3    H2 9210   6.485   0.699   4.310
 3085TIP3   OH2 9211   2.731   2.576   5.542
 3085TIP3    H1 9212   2.779   2.653   5.572
 3085TIP3    H2 9213   2.800   2.512   5.521
 3086TIP3   OH2 9214   7.287   2.469   6.610
 3086TIP3    H1 9215   7.247   2.452   6.525
 3086TIP3    H2 9216   7.306   2.382   6.645
 3087TIP3   OH2 9217   3.323   6.452   5.863
 3087TIP3    H1 9218   3.418   6.457   5.871
 3087TIP3    H2 9219   3.304   6.359   5.853
 3088TIP3   OH2 9220   2.242   3.070   6.124
 3088TIP3    H1 9221   2.247   3.049   6.031
 3088TIP3    H2 9222   2.326   3.040   6.159
 3089TIP3   OH2 9223   2.855   6.588   3.743
 3089TIP3    H1 9224   2.824   6.519   3.685
 3089TIP3    H2 9225   2.799   6.581   3.821
 3090TIP3   OH2 9226   5.651   5.241   1.826
 3090TIP3    H1 9227   5.690   5.163   1.865
 3090TIP3    H2 9228   5.653   5.224   1.732
 3091TIP3   OH2 9229   6.403   4.066   4.570
 3091TIP3    H1 9230   6.440   3.991   4.616
 3091TIP3    H2 9231   6.402   4.136   4.636
 3092TIP3   OH2 9232   0.366   1.864   4.687
 3092TIP3    H1 9233   0.433   1.887   4.623
 3092TIP3    H2 9234   0.286   1.905   4.655
 3093TIP3   OH2 9235   5.671   5.648   0.858
 3093TIP3    H1 9236   5.757   5.622   0.825
 3093TIP3    H2 9237   5.615   5.650   0.780
 3094TIP3   OH2 9238   0.080   2.417   3.460
 3094TIP3    H1 9239   0.114   2.341   3.413
 3094TIP3    H2 9240   0.134   2.422   3.539
 3095TIP3   OH2 9241   5.062   1.634   2.385
 3095TIP3    H1 9242   4.982   1.626   2.333
 3095TIP3    H2 9243   5.114   1.700   2.339
 3096TIP3   OH2 9244   7.650   4.822   3.932
 3096TIP3    H1 9245   7.674   4.895   3.875
 3096TIP3    H2 9246   7.555   4.826   3.938
 3097TIP3   OH2 9247   3.113   7.650   2.862
 3097TIP3    H1 9248   3.032   7.698   2.884
 3097TIP3    H2 9249   3.083   7.562   2.840
 3098TIP3   OH2 9250   8.226   6.459   2.828
 3098TIP3    H1 9251   8.300   6.428   2.776
 3098TIP3    H2 9252   8.150   6.444   2.773
 3099TIP3   OH2 9253   0.125   6.468   1.275
 3099TIP3    H1 9254   0.045   6.417   1.276
 3099TIP3    H2 9255   0.119   6.521   1.195
 3100TIP3   OH2 9256   1.617   4.582   6.241
 3100TIP3    H1 9257   1.567   4.554   6.317
 3100TIP3    H2 9258   1.681   4.513   6.227
 3101TIP3   OH2 9259   3.089   6.091   2.905
 3101TIP3    H1 9260   3.068   6.003   2.935
 3101TIP3    H2 9261   3.055   6.148   2.975
 3102TIP3   OH2 9262   5.135   2.676   0.807
 3102TIP3    H1 9263   5.046   2.711   0.801
 3102TIP3    H2 9264   5.157   2.680   0.900
 3103TIP3   OH2 9265   7.004   5.502   1.212
 3103TIP3    H1 9266   7.085   5.496   1.262
 3103TIP3    H2 9267   7.000   5.421   1.162
 3104TIP3   OH2 9268   6.248   1.166   1.122
 3104TIP3    H1 9269   6.277   1.254   1.099
 3104TIP3    H2 9270   6.252   1.117   1.040
 3105TIP3   OH2 9271   1.627   3.116   1.970
 3105TIP3    H1 9272   1.590   3.061   2.040
 3105TIP3    H2 9273   1.681   3.180   2.017
 3106TIP3   OH2 9274   0.717   7.379   5.833
 3106TIP3    H1 9275   0.707   7.381   5.928
 3106TIP3    H2 9276   0.761   7.462   5.812
 3107TIP3   OH2 9277   2.284   5.344   3.039
 3107TIP3    H1 9278   2.236   5.327   3.120
 3107TIP3    H2 9279   2.332   5.424   3.056
 3108TIP3   OH2 9280   2.002   6.780   4.207
 3108TIP3    H1 9281   2.077   6.770   4.148
 3108TIP3    H2 9282   1.945   6.843   4.163
 3109TIP3   OH2 9283   7.205   7.332   2.995
 3109TIP3    H1 9284   7.256   7.411   3.013
 3109TIP3    H2 9285   7.270   7.262   2.995
 3110TIP3   OH2 9286   6.104   2.401   4.808
 3110TIP3    H1 9287   6.154   2.372   4.732
 3110TIP3    H2 9288   6.077   2.490   4.787
 3111TIP3   OH2 9289   2.288   0.053   3.569
 3111TIP3    H1 9290   2.227   0.071   3.641
 3111TIP3    H2 9291   2.233   0.021   3.498
 3112TIP3   OH2 9292   6.879   0.039   0.688
 3112TIP3    H1 9293   6.932  -0.030   0.648
 3112TIP3    H2 9294   6.875   0.108   0.621
 3113TIP3   OH2 9295   3.737   0.228   3.248
 3113TIP3    H1 9296   3.829   0.255   3.243
 3113TIP3    H2 9297   3.689   0.310   3.259
 3114TIP3   OH2 9298   4.203   3.732   3.646
 3114TIP3    H1 9299   4.134   3.749   3.710
 3114TIP3    H2 9300   4.161   3.745   3.561
 3115TIP3   OH2 9301   4.417   5.350   4.027
 3115TIP3    H1 9302   4.434   5.441   4.051
 3115TIP3    H2 9303   4.499   5.304   4.047
 3116TIP3   OH2 9304   5.354   7.311   0.509
 3116TIP3    H1 9305   5.422   7.374   0.486
 3116TIP3    H2 9306   5.391   7.226   0.483
 3117TIP3   OH2 9307   3.076   2.832   5.531
 3117TIP3    H1 9308   3.114   2.919   5.537
 3117TIP3    H2 9309   2.993   2.838   5.579
 3118TIP3   OH2 9310   1.964   5.960   2.520
 3118TIP3    H1 9311   1.973   5.909   2.439
 3118TIP3    H2 9312   1.967   5.895   2.590
 3119TIP3   OH2 9313   5.626   5.092   0.008
 3119TIP3    H1 9314   5.584   5.017  -0.035
 3119TIP3    H2 9315   5.561   5.124   0.070
 3120TIP3   OH2 9316   3.686   6.822   0.133
 3120TIP3    H1 9317   3.616   6.872   0.174
 3120TIP3    H2 9318   3.643   6.747   0.093
 3121TIP3   OH2 9319   2.260   4.520   2.425
 3121TIP3    H1 9320   2.346   4.506   2.384
 3121TIP3    H2 9321   2.198   4.520   2.352
 3122TIP3   OH2 9322   3.946   6.144   2.772
 3122TIP3    H1 9323   3.948   6.238   2.793
 3122TIP3    H2 9324   3.858   6.116   2.797
 3123TIP3   OH2 9325   0.448   0.840   5.137
 3123TIP3    H1 9326   0.359   0.840   5.172
 3123TIP3    H2 9327   0.458   0.926   5.097
 3124TIP3   OH2 9328   1.715   1.765   2.614
 3124TIP3    H1 9329   1.668   1.780   2.697
 3124TIP3    H2 9330   1.766   1.844   2.600
 3125TIP3   OH2 9331   2.986   4.943   0.495
 3125TIP3    H1 9332   2.926   4.886   0.544
 3125TIP3    H2 9333   3.018   4.887   0.424
 3126TIP3   OH2 9334   3.208   6.317   0.938
 3126TIP3    H1 9335   3.225   6.398   0.986
 3126TIP3    H2 9336   3.126   6.284   0.976
 3127TIP3   OH2 9337   8.021   7.143   0.640
 3127TIP3    H1 9338   8.092   7.079   0.641
 3127TIP3    H2 9339   7.956   7.107   0.700
 3128TIP3   OH2 9340   4.460   3.078   3.411
 3128TIP3    H1 9341   4.439   2.987   3.390
 3128TIP3    H2 9342   4.549   3.074   3.448
 3129TIP3   OH2 9343   5.020   0.987   4.001
 3129TIP3    H1 9344   5.023   0.993   4.096
 3129TIP3    H2 9345   4.934   0.951   3.981
 3130TIP3   OH2 9346   1.300   0.943   0.415
 3130TIP3    H1 9347   1.251   1.021   0.441
 3130TIP3    H2 9348   1.233   0.875   0.407
 3131TIP3   OH2 9349   0.831   0.189   6.664
 3131TIP3    H1 9350   0.915   0.146   6.656
 3131TIP3    H2 9351   0.849   0.269   6.715
 3132TIP3   OH2 9352   4.217   3.090   1.753
 3132TIP3    H1 9353   4.151   3.107   1.820
 3132TIP3    H2 9354   4.299   3.120   1.791
 3133TIP3   OH2 9355   4.213   5.751   5.068
 3133TIP3    H1 9356   4.204   5.838   5.105
 3133TIP3    H2 9357   4.201   5.691   5.142
 3134TIP3   OH2 9358   1.209   6.276   4.250
 3134TIP3    H1 9359   1.224   6.338   4.321
 3134TIP3    H2 9360   1.140   6.316   4.197
 3135TIP3   OH2 9361   1.351   2.158   6.594
 3135TIP3    H1 9362   1.303   2.214   6.534
 3135TIP3    H2 9363   1.404   2.101   6.538
 3136TIP3   OH2 9364   5.596   3.458   3.212
 3136TIP3    H1 9365   5.631   3.456   3.123
 3136TIP3    H2 9366   5.538   3.383   3.218
 3137TIP3   OH2 9367   0.816   2.532   6.664
 3137TIP3    H1 9368   0.811   2.601   6.731
 3137TIP3    H2 9369   0.820   2.451   6.714
 3138TIP3   OH2 9370   5.027   7.320   6.104
 3138TIP3    H1 9371   5.042   7.283   6.018
 3138TIP3    H2 9372   4.956   7.268   6.141
 3139TIP3   OH2 9373   2.450   6.132   3.022
 3139TIP3    H1 9374   2.390   6.116   3.095
 3139TIP3    H2 9375   2.465   6.227   3.024
 3140TIP3   OH2 9376   2.084   4.038   0.676
 3140TIP3    H1 9377   2.145   3.979   0.632
 3140TIP3    H2 9378   2.136   4.116   0.695
 3141TIP3   OH2 9379   0.708   0.300   1.906
 3141TIP3    H1 9380   0.785   0.256   1.870
 3141TIP3    H2 9381   0.717   0.291   2.001
 3142TIP3   OH2 9382   3.987   1.636   6.207
 3142TIP3    H1 9383   3.987   1.583   6.127
 3142TIP3    H2 9384   4.060   1.603   6.259
 3143TIP3   OH2 9385   6.769   7.743   1.875
 3143TIP3    H1 9386   6.679   7.765   1.855
 3143TIP3    H2 9387   6.813   7.827   1.886
 3144TIP3   OH2 9388   4.889   2.758   4.240
 3144TIP3    H1 9389   4.804   2.752   4.283
 3144TIP3    H2 9390   4.902   2.852   4.226
 3145TIP3   OH2 9391   5.057   6.597   1.709
 3145TIP3    H1 9392   5.119   6.544   1.758
 3145TIP3    H2 9393   5.069   6.570   1.618
 3146TIP3   OH2 9394   6.550   0.645   2.983
 3146TIP3    H1 9395   6.644   0.630   2.977
 3146TIP3    H2 9396   6.523   0.599   3.063
 3147TIP3   OH2 9397   4.019   1.831   3.842
 3147TIP3    H1 9398   4.012   1.737   3.863
 3147TIP3    H2 9399   3.929   1.862   3.844
 3148TIP3   OH2 9400   7.611   2.506   0.820
 3148TIP3    H1 9401   7.569   2.440   0.875
 3148TIP3    H2 9402   7.573   2.589   0.850
 3149TIP3   OH2 9403   3.386   4.879   1.079
 3149TIP3    H1 9404   3.296   4.898   1.053
 3149TIP3    H2 9405   3.398   4.926   1.161
 3150TIP3   OH2 9406   2.871   2.890   6.429
 3150TIP3    H1 9407   2.846   2.837   6.504
 3150TIP3    H2 9408   2.799   2.880   6.367
 3151TIP3   OH2 9409   5.367   4.572   0.439
 3151TIP3    H1 9410   5.373   4.485   0.399
 3151TIP3    H2 9411   5.278   4.602   0.420
 3152TIP3   OH2 9412   3.139   7.558   1.681
 3152TIP3    H1 9413   3.137   7.654   1.674
 3152TIP3    H2 9414   3.093   7.528   1.603
 3153TIP3   OH2 9415   1.308   6.983   6.700
 3153TIP3    H1 9416   1.360   7.051   6.745
 3153TIP3    H2 9417   1.217   7.005   6.721
 3154TIP3   OH2 9418   2.597   2.479   0.788
 3154TIP3    H1 9419   2.597   2.390   0.753
 3154TIP3    H2 9420   2.509   2.511   0.772
 3155TIP3   OH2 9421   0.887   6.705   3.114
 3155TIP3    H1 9422   0.963   6.699   3.057
 3155TIP3    H2 9423   0.882   6.798   3.137
 3156TIP3   OH2 9424   2.261   5.178   1.768
 3156TIP3    H1 9425   2.346   5.143   1.793
 3156TIP3    H2 9426   2.200   5.140   1.831
 3157TIP3   OH2 9427   5.390   1.173   1.573
 3157TIP3    H1 9428   5.428   1.117   1.506
 3157TIP3    H2 9429   5.392   1.119   1.653
 3158TIP3   OH2 9430   6.348   5.963   4.402
 3158TIP3    H1 9431   6.367   6.028   4.471
 3158TIP3    H2 9432   6.253   5.968   4.391
 3159TIP3   OH2 9433   6.653   0.217   0.748
 3159TIP3    H1 9434   6.738   0.173   0.751
 3159TIP3    H2 9435   6.589   0.149   0.769
 3160TIP3   OH2 9436   0.653   3.348   1.678
 3160TIP3    H1 9437   0.566   3.316   1.657
 3160TIP3    H2 9438   0.671   3.415   1.611
 3161TIP3   OH2 9439   7.677   5.548   1.700
 3161TIP3    H1 9440   7.736   5.492   1.750
 3161TIP3    H2 9441   7.669   5.627   1.752
 3162TIP3   OH2 9442   2.234   1.713   6.652
 3162TIP3    H1 9443   2.227   1.713   6.556
 3162TIP3    H2 9444   2.327   1.701   6.669
 3163TIP3   OH2 9445   3.377   4.864   5.075
 3163TIP3    H1 9446   3.353   4.943   5.026
 3163TIP3    H2 9447   3.363   4.792   5.014
 3164TIP3   OH2 9448   6.006   7.615   6.654
 3164TIP3    H1 9449   6.028   7.704   6.626
 3164TIP3    H2 9450   6.072   7.594   6.721
 3165TIP3   OH2 9451   4.227   0.518   6.467
 3165TIP3    H1 9452   4.238   0.482   6.378
 3165TIP3    H2 9453   4.261   0.607   6.461
 3166TIP3   OH2 9454   4.771   4.861   0.234
 3166TIP3    H1 9455   4.812   4.941   0.201
 3166TIP3    H2 9456   4.750   4.880   0.325
 3167TIP3   OH2 9457   4.878   2.797   0.747
 3167TIP3    H1 9458   4.848   2.879   0.708
 3167TIP3    H2 9459   4.797   2.750   0.767
 3168TIP3   OH2 9460   7.015   6.171   6.644
 3168TIP3    H1 9461   6.925   6.200   6.654
 3168TIP3    H2 9462   7.057   6.239   6.591
 3169TIP3   OH2 9463   1.212   1.841   6.658
 3169TIP3    H1 9464   1.239   1.836   6.566
 3169TIP3    H2 9465   1.292   1.864   6.705
 3170TIP3   OH2 9466   2.595   3.331   1.017
 3170TIP3    H1 9467   2.656   3.325   0.944
 3170TIP3    H2 9468   2.581   3.240   1.044
 3171TIP3   OH2 9469   0.801   3.133   6.704
 3171TIP3    H1 9470   0.816   3.185   6.625
 3171TIP3    H2 9471   0.853   3.054   6.690
 3172TIP3   OH2 9472   2.707   6.035   0.386
 3172TIP3    H1 9473   2.721   6.114   0.437
 3172TIP3    H2 9474   2.779   6.033   0.323
 3173TIP3   OH2 9475   4.981   1.546   2.674
 3173TIP3    H1 9476   4.961   1.620   2.732
 3173TIP3    H2 9477   5.028   1.585   2.600
 3174TIP3   OH2 9478   8.214   6.329   1.552
 3174TIP3    H1 9479   8.304   6.356   1.571
 3174TIP3    H2 9480   8.206   6.338   1.457
 3175TIP3   OH2 9481   5.497   2.125   0.036
 3175TIP3    H1 9482   5.472   2.113   0.128
 3175TIP3    H2 9483   5.436   2.192   0.004
 3176TIP3   OH2 9484   2.299   7.462   5.898
 3176TIP3    H1 9485   2.394   7.453   5.892
 3176TIP3    H2 9486   2.276   7.424   5.983
 3177TIP3   OH2 9487   1.944   7.286   3.012
 3177TIP3    H1 9488   1.965   7.283   3.106
 3177TIP3    H2 9489   1.860   7.331   3.008
 3178TIP3   OH2 9490   7.015   3.537   4.125
 3178TIP3    H1 9491   7.088   3.506   4.179
 3178TIP3    H2 9492   6.940   3.540   4.185
 3179TIP3   OH2 9493   5.596   5.282   4.833
 3179TIP3    H1 9494   5.593   5.366   4.877
 3179TIP3    H2 9495   5.516   5.279   4.781
 3180TIP3   OH2 9496   7.985   1.905   2.779
 3180TIP3    H1 9497   8.066   1.857   2.760
 3180TIP3    H2 9498   7.917   1.838   2.778
 3181TIP3   OH2 9499   3.998   4.154   5.614
 3181TIP3    H1 9500   3.934   4.100   5.567
 3181TIP3    H2 9501   4.072   4.095   5.630
 3182TIP3   OH2 9502   5.237   7.822   2.684
 3182TIP3    H1 9503   5.144   7.831   2.661
 3182TIP3    H2 9504   5.247   7.729   2.706
 3183TIP3   OH2 9505   2.696   7.093   6.408
 3183TIP3    H1 9506   2.702   7.022   6.344
 3183TIP3    H2 9507   2.653   7.165   6.362
 3184TIP3   OH2 9508   1.276   3.541   2.134
 3184TIP3    H1 9509   1.332   3.580   2.202
 3184TIP3    H2 9510   1.189   3.539   2.174
 3185TIP3   OH2 9511   1.607   5.774   2.030
 3185TIP3    H1 9512   1.546   5.800   2.099
 3185TIP3    H2 9513   1.689   5.818   2.052
 3186TIP3   OH2 9514   7.355   3.087   2.134
 3186TIP3    H1 9515   7.392   3.066   2.048
 3186TIP3    H2 9516   7.260   3.079   2.121
 3187TIP3   OH2 9517   7.011   4.020   6.788
 3187TIP3    H1 9518   7.099   4.046   6.761
 3187TIP3    H2 9519   7.008   3.925   6.774
 3188TIP3   OH2 9520   6.412   3.288   2.155
 3188TIP3    H1 9521   6.494   3.303   2.107
 3188TIP3    H2 9522   6.440   3.261   2.242
 3189TIP3   OH2 9523   7.777   0.221   1.822
 3189TIP3    H1 9524   7.818   0.134   1.828
 3189TIP3    H2 9525   7.785   0.244   1.729
 3190TIP3   OH2 9526   0.048   7.550   6.677
 3190TIP3    H1 9527  -0.031   7.555   6.731
 3190TIP3    H2 9528   0.105   7.618   6.713
 3191TIP3   OH2 9529   0.675   5.196   5.579
 3191TIP3    H1 9530   0.584   5.221   5.564
 3191TIP3    H2 9531   0.723   5.237   5.507
 3192TIP3   OH2 9532   7.043   0.850   5.285
 3192TIP3    H1 9533   7.019   0.898   5.206
 3192TIP3    H2 9534   6.972   0.788   5.299
 3193TIP3   OH2 9535   7.920   1.414  -0.008
 3193TIP3    H1 9536   7.937   1.452  -0.094
 3193TIP3    H2 9537   8.007   1.399   0.029
 3194TIP3   OH2 9538   2.111   4.049   6.142
 3194TIP3    H1 9539   2.082   4.126   6.092
 3194TIP3    H2 9540   2.031   4.004   6.167
 3195TIP3   OH2 9541   7.856   6.949   1.210
 3195TIP3    H1 9542   7.900   6.961   1.294
 3195TIP3    H2 9543   7.816   6.862   1.217
 3196TIP3   OH2 9544   2.868   7.486   6.486
 3196TIP3    H1 9545   2.829   7.573   6.483
 3196TIP3    H2 9546   2.946   7.492   6.431
 3197TIP3   OH2 9547   6.773   3.272   3.221
 3197TIP3    H1 9548   6.745   3.328   3.148
 3197TIP3    H2 9549   6.814   3.332   3.283
 3198TIP3   OH2 9550   2.645   3.347   6.109
 3198TIP3    H1 9551   2.685   3.413   6.166
 3198TIP3    H2 9552   2.573   3.393   6.066
 3199TIP3   OH2 9553   6.648   1.210   6.383
 3199TIP3    H1 9554   6.671   1.218   6.291
 3199TIP3    H2 9555   6.598   1.289   6.402
 3200TIP3   OH2 9556   7.607   0.615   1.886
 3200TIP3    H1 9557   7.653   0.672   1.824
 3200TIP3    H2 9558   7.563   0.676   1.946
 3201TIP3   OH2 9559   1.910   4.743   5.683
 3201TIP3    H1 9560   1.986   4.772   5.733
 3201TIP3    H2 9561   1.938   4.744   5.592
 3202TIP3   OH2 9562   3.095   7.243   4.575
 3202TIP3    H1 9563   3.018   7.286   4.612
 3202TIP3    H2 9564   3.115   7.294   4.496
 3203TIP3   OH2 9565   4.440   2.437   0.401
 3203TIP3    H1 9566   4.429   2.425   0.307
 3203TIP3    H2 9567   4.501   2.510   0.410
 3204TIP3   OH2 9568   7.945   5.360   5.591
 3204TIP3    H1 9569   8.013   5.324   5.648
 3204TIP3    H2 9570   7.923   5.444   5.630
 3205TIP3   OH2 9571   4.548   2.407   3.809
 3205TIP3    H1 9572   4.504   2.461   3.875
 3205TIP3    H2 9573   4.489   2.333   3.794
 3206TIP3   OH2 9574   4.279   2.872   1.357
 3206TIP3    H1 9575   4.276   2.937   1.287
 3206TIP3    H2 9576   4.322   2.797   1.317
 3207TIP3   OH2 9577   6.834   2.021   0.419
 3207TIP3    H1 9578   6.838   2.113   0.444
 3207TIP3    H2 9579   6.858   1.974   0.499
 3208TIP3   OH2 9580   0.546   2.990   1.354
 3208TIP3    H1 9581   0.618   2.928   1.368
 3208TIP3    H2 9582   0.521   2.977   1.263
 3209TIP3   OH2 9583   6.854   3.013   1.693
 3209TIP3    H1 9584   6.896   2.930   1.670
 3209TIP3    H2 9585   6.893   3.038   1.777
 3210TIP3   OH2 9586   8.152   6.518   2.205
 3210TIP3    H1 9587   8.160   6.614   2.209
 3210TIP3    H2 9588   8.081   6.503   2.143
 3211TIP3   OH2 9589   7.295   1.480   3.298
 3211TIP3    H1 9590   7.335   1.560   3.332
 3211TIP3    H2 9591   7.208   1.477   3.337
 3212TIP3   OH2 9592   4.736   3.659   0.924
 3212TIP3    H1 9593   4.672   3.691   0.987
 3212TIP3    H2 9594   4.813   3.714   0.939
 3213TIP3   OH2 9595   1.091   5.211   6.189
 3213TIP3    H1 9596   1.044   5.141   6.144
 3213TIP3    H2 9597   1.063   5.291   6.144
 3214TIP3   OH2 9598   5.912   0.992   0.829
 3214TIP3    H1 9599   5.948   0.914   0.788
 3214TIP3    H2 9600   5.843   1.021   0.768
 3215TIP3   OH2 9601   1.323   6.747   6.305
 3215TIP3    H1 9602   1.292   6.712   6.222
 3215TIP3    H2 9603   1.255   6.724   6.368
 3216TIP3   OH2 9604   6.400   1.598   3.175
 3216TIP3    H1 9605   6.369   1.510   3.155
 3216TIP3    H2 9606   6.326   1.641   3.219
 3217TIP3   OH2 9607   5.674   6.964   3.683
 3217TIP3    H1 9608   5.655   7.039   3.740
 3217TIP3    H2 9609   5.727   6.906   3.736
 3218TIP3   OH2 9610   6.119   7.341   1.039
 3218TIP3    H1 9611   6.064   7.364   0.965
 3218TIP3    H2 9612   6.166   7.422   1.060
 3219TIP3   OH2 9613   5.167   3.499   0.956
 3219TIP3    H1 9614   5.193   3.587   0.928
 3219TIP3    H2 9615   5.217   3.440   0.900
 3220TIP3   OH2 9616   0.483   0.293   2.782
 3220TIP3    H1 9617   0.409   0.235   2.764
 3220TIP3    H2 9618   0.538   0.244   2.842
 3221TIP3   OH2 9619   0.111   7.647   1.841
 3221TIP3    H1 9620   0.019   7.626   1.828
 3221TIP3    H2 9621   0.158   7.578   1.794
 3222TIP3   OH2 9622   4.619   6.839   2.890
 3222TIP3    H1 9623   4.644   6.748   2.873
 3222TIP3    H2 9624   4.530   6.846   2.856
 3223TIP3   OH2 9625   6.317   0.284   5.356
 3223TIP3    H1 9626   6.245   0.270   5.294
 3223TIP3    H2 9627   6.289   0.358   5.409
 3224TIP3   OH2 9628   7.828   0.687   1.031
 3224TIP3    H1 9629   7.774   0.624   0.984
 3224TIP3    H2 9630   7.778   0.769   1.028
 3225TIP3   OH2 9631   1.484   5.911   0.537
 3225TIP3    H1 9632   1.554   5.940   0.596
 3225TIP3    H2 9633   1.418   5.980   0.541
 3226TIP3   OH2 9634   2.260   4.857   2.512
 3226TIP3    H1 9635   2.256   4.773   2.466
 3226TIP3    H2 9636   2.184   4.905   2.480
 3227TIP3   OH2 9637   5.878   7.323   5.738
 3227TIP3    H1 9638   5.928   7.355   5.813
 3227TIP3    H2 9639   5.833   7.245   5.771
 3228TIP3   OH2 9640   1.203   0.835   0.761
 3228TIP3    H1 9641   1.165   0.873   0.681
 3228TIP3    H2 9642   1.263   0.768   0.729
 3229TIP3   OH2 9643   2.694   7.413   4.360
 3229TIP3    H1 9644   2.644   7.477   4.411
 3229TIP3    H2 9645   2.654   7.415   4.273
 3230TIP3   OH2 9646   1.398   6.522   3.029
 3230TIP3    H1 9647   1.356   6.450   3.075
 3230TIP3    H2 9648   1.328   6.586   3.016
 3231TIP3   OH2 9649   7.463   2.202   2.648
 3231TIP3    H1 9650   7.522   2.272   2.677
 3231TIP3    H2 9651   7.406   2.186   2.723
 3232TIP3   OH2 9652   3.786   4.156   2.586
 3232TIP3    H1 9653   3.795   4.108   2.668
 3232TIP3    H2 9654   3.801   4.089   2.518
 3233TIP3   OH2 9655   6.320   1.968   6.096
 3233TIP3    H1 9656   6.230   1.942   6.117
 3233TIP3    H2 9657   6.311   2.021   6.016
 3234TIP3   OH2 9658   0.194   4.621   3.347
 3234TIP3    H1 9659   0.232   4.587   3.266
 3234TIP3    H2 9660   0.260   4.602   3.414
 3235TIP3   OH2 9661   2.259   0.473   6.006
 3235TIP3    H1 9662   2.267   0.566   5.986
 3235TIP3    H2 9663   2.224   0.471   6.095
 3236TIP3   OH2 9664   1.311   7.267   5.941
 3236TIP3    H1 9665   1.300   7.200   6.009
 3236TIP3    H2 9666   1.276   7.347   5.980
 3237TIP3   OH2 9667   1.169   4.636   0.633
 3237TIP3    H1 9668   1.127   4.593   0.558
 3237TIP3    H2 9669   1.196   4.564   0.690
 3238TIP3   OH2 9670   2.334   1.324   1.943
 3238TIP3    H1 9671   2.341   1.329   2.039
 3238TIP3    H2 9672   2.418   1.357   1.912
 3239TIP3   OH2 9673   2.058   5.625   3.672
 3239TIP3    H1 9674   2.003   5.696   3.639
 3239TIP3    H2 9675   2.047   5.555   3.609
 3240TIP3   OH2 9676   5.692   2.933   1.746
 3240TIP3    H1 9677   5.606   2.974   1.744
 3240TIP3    H2 9678   5.708   2.907   1.655
 3241TIP3   OH2 9679   1.641   7.709   3.754
 3241TIP3    H1 9680   1.735   7.700   3.771
 3241TIP3    H2 9681   1.625   7.656   3.676
 3242TIP3   OH2 9682   5.824   4.584   1.442
 3242TIP3    H1 9683   5.790   4.659   1.393
 3242TIP3    H2 9684   5.761   4.571   1.513
 3243TIP3   OH2 9685   0.857   2.243   2.233
 3243TIP3    H1 9686   0.820   2.221   2.148
 3243TIP3    H2 9687   0.888   2.333   2.224
 3244TIP3   OH2 9688   8.039   2.068   5.286
 3244TIP3    H1 9689   8.094   2.056   5.208
 3244TIP3    H2 9690   7.960   2.110   5.253
 3245TIP3   OH2 9691   3.420   1.199   5.918
 3245TIP3    H1 9692   3.413   1.288   5.954
 3245TIP3    H2 9693   3.357   1.198   5.846
 3246TIP3   OH2 9694   1.807   0.786   3.988
 3246TIP3    H1 9695   1.724   0.759   4.029
 3246TIP3    H2 9696   1.812   0.880   4.004
 3247TIP3   OH2 9697   8.253   2.275   5.177
 3247TIP3    H1 9698   8.270   2.213   5.248
 3247TIP3    H2 9699   8.304   2.242   5.103
 3248TIP3   OH2 9700   6.091   6.224   1.104
 3248TIP3    H1 9701   6.067   6.138   1.138
 3248TIP3    H2 9702   6.120   6.207   1.015
 3249TIP3   OH2 9703   4.313   7.220   5.261
 3249TIP3    H1 9704   4.222   7.210   5.288
 3249TIP3    H2 9705   4.346   7.130   5.255
 3250TIP3   OH2 9706   6.614   2.156   1.156
 3250TIP3    H1 9707   6.662   2.076   1.133
 3250TIP3    H2 9708   6.540   2.157   1.096
 3251TIP3   OH2 9709   7.221   1.880   3.100
 3251TIP3    H1 9710   7.159   1.920   3.161
 3251TIP3    H2 9711   7.307   1.906   3.133
 3252TIP3   OH2 9712   5.053   7.629   1.005
 3252TIP3    H1 9713   5.033   7.642   1.098
 3252TIP3    H2 9714   5.132   7.681   0.990
 3253TIP3   OH2 9715   1.511   6.569   3.925
 3253TIP3    H1 9716   1.477   6.536   3.842
 3253TIP3    H2 9717   1.605   6.551   3.920
 3254TIP3   OH2 9718   6.954   3.702   1.255
 3254TIP3    H1 9719   6.879   3.732   1.203
 3254TIP3    H2 9720   6.915   3.644   1.321
 3255TIP3   OH2 9721   6.587   3.798   3.791
 3255TIP3    H1 9722   6.494   3.822   3.789
 3255TIP3    H2 9723   6.588   3.707   3.820
 3256TIP3   OH2 9724   5.329   1.350   3.725
 3256TIP3    H1 9725   5.334   1.429   3.672
 3256TIP3    H2 9726   5.299   1.379   3.811
 3257TIP3   OH2 9727   0.330   4.221   4.473
 3257TIP3    H1 9728   0.292   4.289   4.417
 3257TIP3    H2 9729   0.301   4.243   4.561
 3258TIP3   OH2 9730   0.084   0.404   2.986
 3258TIP3    H1 9731   0.029   0.430   3.060
 3258TIP3    H2 9732   0.106   0.486   2.942
 3259TIP3   OH2 9733   5.478   4.206   2.258
 3259TIP3    H1 9734   5.427   4.156   2.194
 3259TIP3    H2 9735   5.454   4.167   2.342
 3260TIP3   OH2 9736   2.959   2.452   2.675
 3260TIP3    H1 9737   3.038   2.447   2.730
 3260TIP3    H2 9738   2.979   2.397   2.599
 3261TIP3   OH2 9739   6.281   3.357   5.283
 3261TIP3    H1 9740   6.251   3.438   5.243
 3261TIP3    H2 9741   6.291   3.296   5.210
 3262TIP3   OH2 9742   7.866   5.372   6.378
 3262TIP3    H1 9743   7.900   5.393   6.290
 3262TIP3    H2 9744   7.888   5.449   6.431
 3263TIP3   OH2 9745   4.717   6.403   5.153
 3263TIP3    H1 9746   4.644   6.387   5.094
 3263TIP3    H2 9747   4.686   6.473   5.211
 3264TIP3   OH2 9748   4.141   4.900   4.715
 3264TIP3    H1 9749   4.096   4.983   4.703
 3264TIP3    H2 9750   4.234   4.922   4.712
 3265TIP3   OH2 9751   1.236   1.327   2.006
 3265TIP3    H1 9752   1.268   1.368   2.086
 3265TIP3    H2 9753   1.282   1.373   1.936
 3266TIP3   OH2 9754   3.940   6.980   4.191
 3266TIP3    H1 9755   3.902   6.941   4.269
 3266TIP3    H2 9756   3.979   6.906   4.144
 3267TIP3   OH2 9757   0.914   5.454   2.837
 3267TIP3    H1 9758   0.999   5.441   2.795
 3267TIP3    H2 9759   0.858   5.387   2.800
 3268TIP3   OH2 9760   6.766   6.076   4.493
 3268TIP3    H1 9761   6.826   6.104   4.563
 3268TIP3    H2 9762   6.752   6.154   4.440
 3269TIP3   OH2 9763   7.913   0.592   3.873
 3269TIP3    H1 9764   7.960   0.675   3.879
 3269TIP3    H2 9765   7.981   0.527   3.854
 3270TIP3   OH2 9766   2.663   3.525   3.914
 3270TIP3    H1 9767   2.619   3.441   3.898
 3270TIP3    H2 9768   2.704   3.547   3.830
 3271TIP3   OH2 9769   0.562   2.653   2.478
 3271TIP3    H1 9770   0.519   2.650   2.563
 3271TIP3    H2 9771   0.530   2.576   2.432
 3272TIP3   OH2 9772   6.963   1.373   0.359
 3272TIP3    H1 9773   6.911   1.374   0.279
 3272TIP3    H2 9774   7.014   1.453   0.356
 3273TIP3   OH2 9775   2.211   0.959   3.812
 3273TIP3    H1 9776   2.228   1.019   3.885
 3273TIP3    H2 9777   2.189   1.016   3.738
 3274TIP3   OH2 9778   6.926   7.042   0.069
 3274TIP3    H1 9779   6.962   7.007  -0.013
 3274TIP3    H2 9780   6.941   6.972   0.133
 3275TIP3   OH2 9781   1.089   7.033   1.951
 3275TIP3    H1 9782   1.091   7.099   1.881
 3275TIP3    H2 9783   1.148   6.964   1.921
 3276TIP3   OH2 9784   5.981   3.482   5.617
 3276TIP3    H1 9785   5.940   3.402   5.651
 3276TIP3    H2 9786   6.008   3.459   5.528
 3277TIP3   OH2 9787   0.965   1.318   4.245
 3277TIP3    H1 9788   1.041   1.264   4.268
 3277TIP3    H2 9789   1.002   1.403   4.222
 3278TIP3   OH2 9790   6.228   5.544   0.628
 3278TIP3    H1 9791   6.239   5.449   0.631
 3278TIP3    H2 9792   6.218   5.570   0.720
 3279TIP3   OH2 9793   4.004   1.930   4.235
 3279TIP3    H1 9794   3.972   1.954   4.148
 3279TIP3    H2 9795   4.002   2.012   4.284
 3280TIP3   OH2 9796   0.810   4.683   5.339
 3280TIP3    H1 9797   0.867   4.707   5.413
 3280TIP3    H2 9798   0.721   4.697   5.371
 3281TIP3   OH2 9799   8.265   4.931   6.648
 3281TIP3    H1 9800   8.184   4.935   6.699
 3281TIP3    H2 9801   8.326   4.988   6.695
 3282TIP3   OH2 9802   0.237   6.085   2.991
 3282TIP3    H1 9803   0.181   6.061   3.064
 3282TIP3    H2 9804   0.310   6.132   3.031
 3283TIP3   OH2 9805   0.922   0.003   3.527
 3283TIP3    H1 9806   0.857   0.066   3.560
 3283TIP3    H2 9807   0.874  -0.080   3.522
 3284TIP3   OH2 9808   1.359   3.945   0.730
 3284TIP3    H1 9809   1.399   3.930   0.816
 3284TIP3    H2 9810   1.434   3.947   0.670
 3285TIP3   OH2 9811   3.394   6.355   0.487
 3285TIP3    H1 9812   3.353   6.296   0.549
 3285TIP3    H2 9813   3.331   6.363   0.416
 3286TIP3   OH2 9814   5.890   6.814   0.290
 3286TIP3    H1 9815   5.977   6.815   0.251
 3286TIP3    H2 9816   5.863   6.722   0.287
 3287TIP3   OH2 9817   0.257   4.507   6.694
 3287TIP3    H1 9818   0.322   4.527   6.626
 3287TIP3    H2 9819   0.296   4.435   6.743
 3288TIP3   OH2 9820   5.657   3.806   1.712
 3288TIP3    H1 9821   5.750   3.786   1.711
 3288TIP3    H2 9822   5.633   3.807   1.805
 3289TIP3   OH2 9823   3.991   5.440   4.911
 3289TIP3    H1 9824   3.927   5.369   4.909
 3289TIP3    H2 9825   3.947   5.510   4.961
 3290TIP3   OH2 9826   5.013   0.209   2.745
 3290TIP3    H1 9827   4.962   0.128   2.736
 3290TIP3    H2 9828   5.093   0.193   2.695
 3291TIP3   OH2 9829   8.074   5.122   1.223
 3291TIP3    H1 9830   8.111   5.149   1.307
 3291TIP3    H2 9831   7.991   5.169   1.217
 3292TIP3   OH2 9832   6.134   5.325   3.123
 3292TIP3    H1 9833   6.053   5.274   3.132
 3292TIP3    H2 9834   6.115   5.386   3.051
 3293TIP3   OH2 9835   3.505   1.714   4.935
 3293TIP3    H1 9836   3.570   1.766   4.983
 3293TIP3    H2 9837   3.432   1.705   4.996
 3294TIP3   OH2 9838   4.655   7.844   5.913
 3294TIP3    H1 9839   4.700   7.762   5.895
 3294TIP3    H2 9840   4.562   7.823   5.905
 3295TIP3   OH2 9841   6.373   1.444   5.044
 3295TIP3    H1 9842   6.416   1.380   5.100
 3295TIP3    H2 9843   6.412   1.528   5.069
 3296TIP3   OH2 9844   0.143   0.913   6.319
 3296TIP3    H1 9845   0.204   0.976   6.281
 3296TIP3    H2 9846   0.172   0.901   6.409
 3297TIP3   OH2 9847   1.576   3.244   5.452
 3297TIP3    H1 9848   1.550   3.297   5.377
 3297TIP3    H2 9849   1.501   3.186   5.468
 3298TIP3   OH2 9850   6.369   7.265   3.683
 3298TIP3    H1 9851   6.375   7.180   3.726
 3298TIP3    H2 9852   6.282   7.298   3.708
 3299TIP3   OH2 9853   6.755   2.447   1.568
 3299TIP3    H1 9854   6.802   2.401   1.499
 3299TIP3    H2 9855   6.663   2.428   1.552
 3300TIP3   OH2 9856   3.805   4.876   2.391
 3300TIP3    H1 9857   3.845   4.963   2.396
 3300TIP3    H2 9858   3.790   4.852   2.483
 3301TIP3   OH2 9859   3.703   4.781   4.622
 3301TIP3    H1 9860   3.632   4.827   4.578
 3301TIP3    H2 9861   3.745   4.731   4.552
 3302TIP3   OH2 9862   7.205   3.084   6.119
 3302TIP3    H1 9863   7.297   3.110   6.117
 3302TIP3    H2 9864   7.198   3.025   6.194
 3303TIP3   OH2 9865   7.635   3.154   0.757
 3303TIP3    H1 9866   7.608   3.205   0.680
 3303TIP3    H2 9867   7.707   3.099   0.725
 3304TIP3   OH2 9868   2.677   4.464   5.084
 3304TIP3    H1 9869   2.730   4.539   5.055
 3304TIP3    H2 9870   2.734   4.417   5.146
 3305TIP3   OH2 9871   0.267   6.157   4.352
 3305TIP3    H1 9872   0.206   6.158   4.278
 3305TIP3    H2 9873   0.216   6.196   4.424
 3306TIP3   OH2 9874   7.885   2.521   6.791
 3306TIP3    H1 9875   7.899   2.611   6.819
 3306TIP3    H2 9876   7.945   2.470   6.845
 3307TIP3   OH2 9877   3.492   5.753   6.510
 3307TIP3    H1 9878   3.486   5.819   6.441
 3307TIP3    H2 9879   3.554   5.688   6.477
 3308TIP3   OH2 9880   4.722   5.337   2.014
 3308TIP3    H1 9881   4.639   5.334   2.062
 3308TIP3    H2 9882   4.783   5.379   2.075
 3309TIP3   OH2 9883   5.068   1.323   0.649
 3309TIP3    H1 9884   5.031   1.385   0.586
 3309TIP3    H2 9885   5.130   1.374   0.700
 3310TIP3   OH2 9886   5.321   4.044   2.108
 3310TIP3    H1 9887   5.239   3.995   2.093
 3310TIP3    H2 9888   5.320   4.112   2.041
 3311TIP3   OH2 9889   2.408   5.107   5.404
 3311TIP3    H1 9890   2.499   5.087   5.423
 3311TIP3    H2 9891   2.371   5.024   5.373
 3312TIP3   OH2 9892   6.946   5.681   3.976
 3312TIP3    H1 9893   7.012   5.738   3.936
 3312TIP3    H2 9894   6.962   5.595   3.936
 3313TIP3   OH2 9895   5.515   1.310   3.047
 3313TIP3    H1 9896   5.590   1.290   3.103
 3313TIP3    H2 9897   5.443   1.325   3.107
 3314TIP3   OH2 9898   3.000   7.427   6.023
 3314TIP3    H1 9899   2.975   7.343   6.062
 3314TIP3    H2 9900   3.076   7.406   5.968
 3315TIP3   OH2 9901   6.360   5.641   1.960
 3315TIP3    H1 9902   6.378   5.601   1.875
 3315TIP3    H2 9903   6.290   5.589   1.998
 3316TIP3   OH2 9904   5.724   6.796   2.438
 3316TIP3    H1 9905   5.773   6.728   2.486
 3316TIP3    H2 9906   5.734   6.874   2.492
 3317TIP3   OH2 9907   0.356   7.162   2.232
 3317TIP3    H1 9908   0.260   7.164   2.238
 3317TIP3    H2 9909   0.377   7.223   2.162
 3318TIP3   OH2 9910   2.984   5.927   3.940
 3318TIP3    H1 9911   3.063   5.891   3.981
 3318TIP3    H2 9912   3.017   5.981   3.868
 3319TIP3   OH2 9913   0.815   3.289   0.450
 3319TIP3    H1 9914   0.762   3.261   0.524
 3319TIP3    H2 9915   0.890   3.333   0.490
 3320TIP3   OH2 9916   5.992   5.671   6.699
 3320TIP3    H1 9917   5.912   5.620   6.715
 3320TIP3    H2 9918   6.022   5.695   6.786
 3321TIP3   OH2 9919   2.903   0.305   4.769
 3321TIP3    H1 9920   2.876   0.376   4.710
 3321TIP3    H2 9921   2.953   0.245   4.714
 3322TIP3   OH2 9922   8.113   7.723   6.682
 3322TIP3    H1 9923   8.138   7.703   6.592
 3322TIP3    H2 9924   8.022   7.694   6.689
 3323TIP3   OH2 9925   3.459   3.885   3.142
 3323TIP3    H1 9926   3.455   3.963   3.198
 3323TIP3    H2 9927   3.369   3.872   3.113
 3324TIP3   OH2 9928   1.064   2.034   2.253
 3324TIP3    H1 9929   1.017   2.014   2.333
 3324TIP3    H2 9930   1.030   2.119   2.225
 3325TIP3   OH2 9931   0.192   3.206   5.014
 3325TIP3    H1 9932   0.266   3.161   4.973
 3325TIP3    H2 9933   0.192   3.175   5.104
 3326TIP3   OH2 9934   5.655   2.369   5.978
 3326TIP3    H1 9935   5.607   2.399   6.055
 3326TIP3    H2 9936   5.706   2.445   5.950
 3327TIP3   OH2 9937   5.757   4.944   4.149
 3327TIP3    H1 9938   5.725   4.854   4.153
 3327TIP3    H2 9939   5.753   4.967   4.056
 3328TIP3   OH2 9940   8.178   7.283   4.733
 3328TIP3    H1 9941   8.154   7.191   4.723
 3328TIP3    H2 9942   8.101   7.331   4.702
 3329TIP3   OH2 9943   8.188   7.365   0.668
 3329TIP3    H1 9944   8.222   7.416   0.595
 3329TIP3    H2 9945   8.131   7.300   0.629
 3330TIP3   OH2 9946   8.171   7.073   3.157
 3330TIP3    H1 9947   8.168   7.139   3.088
 3330TIP3    H2 9948   8.087   7.081   3.201
 3331TIP3   OH2 9949   3.802   5.277   4.197
 3331TIP3    H1 9950   3.751   5.334   4.255
 3331TIP3    H2 9951   3.872   5.333   4.163
 3332TIP3   OH2 9952   1.370   2.375   5.894
 3332TIP3    H1 9953   1.437   2.437   5.867
 3332TIP3    H2 9954   1.288   2.413   5.864
 3333TIP3   OH2 9955   2.451   4.185   2.234
 3333TIP3    H1 9956   2.395   4.183   2.156
 3333TIP3    H2 9957   2.467   4.278   2.250
 3334TIP3   OH2 9958   2.446   2.138   1.990
 3334TIP3    H1 9959   2.379   2.154   1.923
 3334TIP3    H2 9960   2.434   2.046   2.014
 3335TIP3   OH2 9961   6.066   0.138   1.583
 3335TIP3    H1 9962   6.011   0.085   1.525
 3335TIP3    H2 9963   6.091   0.214   1.530
 3336TIP3   OH2 9964   1.645   1.492   4.496
 3336TIP3    H1 9965   1.696   1.415   4.472
 3336TIP3    H2 9966   1.703   1.566   4.474
 3337TIP3   OH2 9967   3.336   1.192   3.302
 3337TIP3    H1 9968   3.263   1.218   3.359
 3337TIP3    H2 9969   3.378   1.120   3.349
 3338TIP3   OH2 9970   5.121   5.015   1.670
 3338TIP3    H1 9971   5.184   5.016   1.598
 3338TIP3    H2 9972   5.095   4.923   1.677
 3339TIP3   OH2 9973   5.916   2.157   6.733
 3339TIP3    H1 9974   5.955   2.191   6.653
 3339TIP3    H2 9975   5.888   2.235   6.781
 3340TIP3   OH2 9976   4.209   4.193   4.232
 3340TIP3    H1 9977   4.298   4.223   4.212
 3340TIP3    H2 9978   4.211   4.171   4.325
 3341TIP3   OH2 9979   0.948   5.994   0.087
 3341TIP3    H1 9980   0.965   5.917   0.141
 3341TIP3    H2 9981   1.030   6.006   0.038
 3342TIP3   OH2 9982   1.550   1.208   3.465
 3342TIP3    H1 9983   1.476   1.251   3.421
 3342TIP3    H2 9984   1.617   1.276   3.470
 3343TIP3   OH2 9985   5.390   3.804   1.275
 3343TIP3    H1 9986   5.439   3.886   1.265
 3343TIP3    H2 9987   5.324   3.824   1.342
 3344TIP3   OH2 9988   6.220   6.646   4.567
 3344TIP3    H1 9989   6.242   6.611   4.654
 3344TIP3    H2 9990   6.182   6.572   4.520
 3345TIP3   OH2 9991   0.540   1.099   1.605
 3345TIP3    H1 9992   0.632   1.116   1.584
 3345TIP3    H2 9993   0.533   1.003   1.608
 3346TIP3   OH2 9994   0.937   5.425   6.088
 3346TIP3    H1 9995   0.855   5.454   6.128
 3346TIP3    H2 9996   0.925   5.444   5.995
 3347TIP3   OH2 9997   2.126   4.187   2.896
 3347TIP3    H1 9998   2.099   4.099   2.923
 3347TIP3    H2 9999   2.044   4.234   2.885
 3348TIP3   OH210000   0.231   1.219   0.226
 3348TIP3    H110001   0.196   1.153   0.166
 3348TIP3    H210002   0.324   1.195   0.236
 3349TIP3   OH210003   7.779   0.448   0.100
 3349TIP3    H110004   7.806   0.357   0.094
 3349TIP3    H210005   7.784   0.468   0.194
 3350TIP3   OH210006   0.602   2.831   2.117
 3350TIP3    H110007   0.689   2.854   2.084
 3350TIP3    H210008   0.594   2.737   2.101
 3351TIP3   OH210009   3.705   1.065   5.551
 3351TIP3    H110010   3.751   1.092   5.631
 3351TIP3    H210011   3.660   0.985   5.575
 3352TIP3   OH210012   0.676   3.675   3.673
 3352TIP3    H110013   0.659   3.599   3.616
 3352TIP3    H210014   0.679   3.749   3.613
 3353TIP3   OH210015   1.642   6.104   2.729
 3353TIP3    H110016   1.600   6.018   2.741
 3353TIP3    H210017   1.624   6.151   2.810
 3354TIP3   OH210018   5.262   6.981   1.138
 3354TIP3    H110019   5.219   6.920   1.077
 3354TIP3    H210020   5.244   7.068   1.102
 3355TIP3   OH210021   2.539   7.644   5.042
 3355TIP3    H110022   2.492   7.624   5.122
 3355TIP3    H210023   2.598   7.570   5.029
 3356TIP3   OH210024   7.529   3.174   3.180
 3356TIP3    H110025   7.566   3.088   3.159
 3356TIP3    H210026   7.596   3.236   3.153
 3357TIP3   OH210027   6.515   7.220   5.644
 3357TIP3    H110028   6.513   7.132   5.606
 3357TIP3    H210029   6.433   7.227   5.692
 3358TIP3   OH210030   7.857   2.455   0.721
 3358TIP3    H110031   7.870   2.369   0.679
 3358TIP3    H210032   7.765   2.454   0.749
 3359TIP3   OH210033   7.157   5.641   3.637
 3359TIP3    H110034   7.193   5.670   3.553
 3359TIP3    H210035   7.128   5.551   3.621
 3360TIP3   OH210036   3.550   6.761   5.955
 3360TIP3    H110037   3.477   6.805   5.912
 3360TIP3    H210038   3.580   6.823   6.022
 3361TIP3   OH210039   2.273   2.087   1.753
 3361TIP3    H110040   2.221   2.012   1.781
 3361TIP3    H210041   2.229   2.162   1.794
 3362TIP3   OH210042   3.225   1.974   1.102
 3362TIP3    H110043   3.284   2.004   1.172
 3362TIP3    H210044   3.159   1.922   1.148
 3363TIP3   OH210045   8.177   3.014   1.947
 3363TIP3    H110046   8.209   2.965   2.022
 3363TIP3    H210047   8.101   3.062   1.980
 3364TIP3   OH210048   0.401   3.354   3.856
 3364TIP3    H110049   0.490   3.378   3.882
 3364TIP3    H210050   0.363   3.315   3.935
 3365TIP3   OH210051   1.195   1.907   4.052
 3365TIP3    H110052   1.122   1.849   4.078
 3365TIP3    H210053   1.273   1.861   4.082
 3366TIP3   OH210054   6.676   0.489   0.706
 3366TIP3    H110055   6.675   0.399   0.738
 3366TIP3    H210056   6.716   0.540   0.777
 3367TIP3   OH210057   6.998   1.246   5.505
 3367TIP3    H110058   7.019   1.190   5.580
 3367TIP3    H210059   6.997   1.335   5.542
 3368TIP3   OH210060   7.304   2.796   5.827
 3368TIP3    H110061   7.306   2.705   5.856
 3368TIP3    H210062   7.340   2.794   5.739
 3369TIP3   OH210063   0.913   4.515   0.954
 3369TIP3    H110064   0.911   4.533   1.048
 3369TIP3    H210065   0.953   4.593   0.915
 3370TIP3   OH210066   3.086   1.055   4.428
 3370TIP3    H110067   3.133   1.117   4.484
 3370TIP3    H210068   2.999   1.093   4.418
 3371TIP3   OH210069   7.235   4.193   1.932
 3371TIP3    H110070   7.220   4.288   1.934
 3371TIP3    H210071   7.182   4.162   1.858
 3372TIP3   OH210072   3.794   3.757   6.151
 3372TIP3    H110073   3.781   3.710   6.069
 3372TIP3    H210074   3.772   3.848   6.131
 3373TIP3   OH210075   4.444   1.166   0.688
 3373TIP3    H110076   4.366   1.164   0.744
 3373TIP3    H210077   4.480   1.077   0.693
 3374TIP3   OH210078   2.526   6.287   2.447
 3374TIP3    H110079   2.442   6.244   2.431
 3374TIP3    H210080   2.591   6.227   2.410
 3375TIP3   OH210081   1.261   0.300   5.040
 3375TIP3    H110082   1.325   0.231   5.058
 3375TIP3    H210083   1.177   0.264   5.070
 3376TIP3   OH210084   8.065   1.039   4.081
 3376TIP3    H110085   7.973   1.055   4.060
 3376TIP3    H210086   8.105   1.014   3.998
 3377TIP3   OH210087   5.818   2.136   3.442
 3377TIP3    H110088   5.801   2.224   3.410
 3377TIP3    H210089   5.756   2.125   3.514
 3378TIP3   OH210090   6.085   4.920   5.277
 3378TIP3    H110091   6.154   4.853   5.276
 3378TIP3    H210092   6.007   4.874   5.309
 3379TIP3   OH210093   6.590   3.566   2.404
 3379TIP3    H110094   6.580   3.604   2.317
 3379TIP3    H210095   6.614   3.475   2.387
 3380TIP3   OH210096   6.557   1.067   0.520
 3380TIP3    H110097   6.615   1.115   0.461
 3380TIP3    H210098   6.514   1.002   0.464
 3381TIP3   OH210099   0.308   6.202   3.705
 3381TIP3    H110100   0.228   6.166   3.669
 3381TIP3    H210101   0.315   6.289   3.666
 3382TIP3   OH210102   5.510   4.027   0.867
 3382TIP3    H110103   5.592   4.004   0.824
 3382TIP3    H210104   5.449   3.959   0.839
 3383TIP3   OH210105   7.341   1.294   1.564
 3383TIP3    H110106   7.315   1.207   1.594
 3383TIP3    H210107   7.436   1.295   1.572
 3384TIP3   OH210108   4.490   4.438   2.298
 3384TIP3    H110109   4.553   4.490   2.350
 3384TIP3    H210110   4.411   4.435   2.352
 3385TIP3   OH210111   7.494   6.550   5.607
 3385TIP3    H110112   7.574   6.591   5.641
 3385TIP3    H210113   7.428   6.569   5.674
 3386TIP3   OH210114   6.193   7.293   0.297
 3386TIP3    H110115   6.243   7.228   0.246
 3386TIP3    H210116   6.191   7.370   0.241
 3387TIP3   OH210117   2.235   7.204   3.567
 3387TIP3    H110118   2.279   7.125   3.597
 3387TIP3    H210119   2.297   7.275   3.587
 3388TIP3   OH210120   3.530   0.851   1.463
 3388TIP3    H110121   3.617   0.858   1.503
 3388TIP3    H210122   3.479   0.921   1.503
 3389TIP3   OH210123   1.759   3.438   4.766
 3389TIP3    H110124   1.813   3.398   4.698
 3389TIP3    H210125   1.741   3.526   4.735
 3390TIP3   OH210126   1.009   3.543   1.875
 3390TIP3    H110127   1.070   3.471   1.856
 3390TIP3    H210128   0.996   3.538   1.970
 3391TIP3   OH210129   1.036   3.364   0.581
 3391TIP3    H110130   1.044   3.458   0.569
 3391TIP3    H210131   1.012   3.353   0.673
 3392TIP3   OH210132   6.668   1.289   1.304
 3392TIP3    H110133   6.722   1.317   1.377
 3392TIP3    H210134   6.725   1.233   1.252
 3393TIP3   OH210135   3.854   0.834   5.371
 3393TIP3    H110136   3.766   0.825   5.406
 3393TIP3    H210137   3.891   0.910   5.417
 3394TIP3   OH210138   5.539   3.366   2.334
 3394TIP3    H110139   5.512   3.348   2.244
 3394TIP3    H210140   5.474   3.321   2.388
 3395TIP3   OH210141   3.519   7.099   1.673
 3395TIP3    H110142   3.442   7.101   1.616
 3395TIP3    H210143   3.566   7.020   1.647
 3396TIP3   OH210144   2.698   0.260   6.188
 3396TIP3    H110145   2.787   0.294   6.192
 3396TIP3    H210146   2.702   0.187   6.127
 3397TIP3   OH210147   2.388   5.853   0.954
 3397TIP3    H110148   2.459   5.891   0.902
 3397TIP3    H210149   2.430   5.826   1.036
 3398TIP3   OH210150   3.891   3.731   4.771
 3398TIP3    H110151   3.932   3.688   4.846
 3398TIP3    H210152   3.874   3.660   4.709
 3399TIP3   OH210153   4.812   4.627   2.208
 3399TIP3    H110154   4.906   4.641   2.199
 3399TIP3    H210155   4.795   4.549   2.154
 3400TIP3   OH210156   1.203   1.770   1.669
 3400TIP3    H110157   1.242   1.831   1.731
 3400TIP3    H210158   1.115   1.754   1.704
 3401TIP3   OH210159   3.060   5.087   1.499
 3401TIP3    H110160   3.022   5.026   1.562
 3401TIP3    H210161   2.987   5.142   1.472
 3402TIP3   OH210162   6.586   4.057   5.213
 3402TIP3    H110163   6.636   4.001   5.154
 3402TIP3    H210164   6.630   4.142   5.210
 3403TIP3   OH210165   5.594   6.352   6.239
 3403TIP3    H110166   5.526   6.309   6.187
 3403TIP3    H210167   5.579   6.446   6.226
 3404TIP3   OH210168   0.289   1.416   3.034
 3404TIP3    H110169   0.322   1.490   3.086
 3404TIP3    H210170   0.266   1.455   2.949
 3405TIP3   OH210171   4.318   6.886   1.838
 3405TIP3    H110172   4.287   6.896   1.928
 3405TIP3    H210173   4.405   6.847   1.847
 3406TIP3   OH210174   3.492   0.674   5.945
 3406TIP3    H110175   3.429   0.728   5.899
 3406TIP3    H210176   3.470   0.685   6.038
 3407TIP3   OH210177   5.360   6.850   0.247
 3407TIP3    H110178   5.300   6.826   0.318
 3407TIP3    H210179   5.348   6.780   0.182
 3408TIP3   OH210180   2.509   2.639   5.088
 3408TIP3    H110181   2.593   2.680   5.065
 3408TIP3    H210182   2.522   2.609   5.178
 3409TIP3   OH210183   3.749   7.042   4.674
 3409TIP3    H110184   3.681   7.043   4.606
 3409TIP3    H210185   3.830   7.023   4.628
 3410TIP3   OH210186   7.622   6.476   1.800
 3410TIP3    H110187   7.629   6.529   1.880
 3410TIP3    H210188   7.648   6.388   1.827
 3411TIP3   OH210189   2.757   6.081   2.943
 3411TIP3    H110190   2.728   5.989   2.944
 3411TIP3    H210191   2.746   6.108   2.851
 3412TIP3   OH210192   0.111   6.356   6.509
 3412TIP3    H110193   0.057   6.292   6.461
 3412TIP3    H210194   0.114   6.432   6.451
 3413TIP3   OH210195   7.600   2.163   2.970
 3413TIP3    H110196   7.544   2.095   2.935
 3413TIP3    H210197   7.541   2.235   2.991
 3414TIP3   OH210198   4.573   6.412   5.610
 3414TIP3    H110199   4.529   6.424   5.694
 3414TIP3    H210200   4.665   6.404   5.632
 3415TIP3   OH210201   2.385   2.632   3.703
 3415TIP3    H110202   2.342   2.554   3.739
 3415TIP3    H210203   2.446   2.598   3.637
 3416TIP3   OH210204   1.819   5.836   1.121
 3416TIP3    H110205   1.793   5.897   1.190
 3416TIP3    H210206   1.813   5.749   1.161
 3417TIP3   OH210207   4.001   2.218   2.937
 3417TIP3    H110208   3.920   2.195   2.984
 3417TIP3    H210209   4.063   2.150   2.963
 3418TIP3   OH210210   0.295   7.142   5.405
 3418TIP3    H110211   0.367   7.080   5.413
 3418TIP3    H210212   0.314   7.208   5.472
 3419TIP3   OH210213   0.025   4.107   0.783
 3419TIP3    H110214   0.037   4.198   0.754
 3419TIP3    H210215  -0.003   4.115   0.874
 3420TIP3   OH210216   2.505   2.525   4.814
 3420TIP3    H110217   2.507   2.429   4.810
 3420TIP3    H210218   2.476   2.545   4.903
 3421TIP3   OH210219   7.561   3.236   5.473
 3421TIP3    H110220   7.561   3.323   5.434
 3421TIP3    H210221   7.580   3.251   5.566
 3422TIP3   OH210222   4.618   1.592   4.347
 3422TIP3    H110223   4.623   1.688   4.346
 3422TIP3    H210224   4.695   1.565   4.398
 3423TIP3   OH210225   5.684   7.751   3.686
 3423TIP3    H110226   5.710   7.833   3.729
 3423TIP3    H210227   5.651   7.778   3.600
 3424TIP3   OH210228   4.851   3.831   4.613
 3424TIP3    H110229   4.888   3.861   4.697
 3424TIP3    H210230   4.924   3.837   4.552
 3425TIP3   OH210231   5.497   4.145   2.748
 3425TIP3    H110232   5.551   4.218   2.720
 3425TIP3    H210233   5.558   4.072   2.758
 3426TIP3   OH210234   3.861   3.068   3.480
 3426TIP3    H110235   3.928   3.097   3.543
 3426TIP3    H210236   3.802   3.013   3.532
 3427TIP3   OH210237   2.258   1.929   2.989
 3427TIP3    H110238   2.328   1.898   2.931
 3427TIP3    H210239   2.294   2.009   3.028
 3428TIP3   OH210240   1.759   3.670   1.719
 3428TIP3    H110241   1.826   3.603   1.707
 3428TIP3    H210242   1.772   3.730   1.645
 3429TIP3   OH210243   5.028   1.951   5.069
 3429TIP3    H110244   5.086   2.023   5.045
 3429TIP3    H210245   5.013   1.964   5.163
 3430TIP3   OH210246   2.735   1.347   1.061
 3430TIP3    H110247   2.704   1.393   1.139
 3430TIP3    H210248   2.828   1.368   1.056
 3431TIP3   OH210249   6.756   3.521   3.984
 3431TIP3    H110250   6.831   3.462   3.983
 3431TIP3    H210251   6.703   3.492   3.910
 3432TIP3   OH210252   7.717   3.450   6.089
 3432TIP3    H110253   7.734   3.504   6.011
 3432TIP3    H210254   7.627   3.418   6.077
 3433TIP3   OH210255   4.545   2.963   3.979
 3433TIP3    H110256   4.504   3.006   3.904
 3433TIP3    H210257   4.475   2.954   4.044
 3434TIP3   OH210258   4.222   5.825   0.017
 3434TIP3    H110259   4.259   5.740   0.042
 3434TIP3    H210260   4.219   5.874   0.099
 3435TIP3   OH210261   1.048   4.941   0.530
 3435TIP3    H110262   1.034   4.849   0.506
 3435TIP3    H210263   0.984   4.958   0.599
 3436TIP3   OH210264   2.770   1.898   0.014
 3436TIP3    H110265   2.710   1.969  -0.006
 3436TIP3    H210266   2.853   1.941   0.033
 3437TIP3   OH210267   4.829   4.413   3.845
 3437TIP3    H110268   4.851   4.322   3.864
 3437TIP3    H210269   4.912   4.460   3.856
 3438TIP3   OH210270   7.970   1.955   0.728
 3438TIP3    H110271   7.955   1.862   0.712
 3438TIP3    H210272   8.055   1.958   0.773
 3439TIP3   OH210273   7.751   4.653   0.414
 3439TIP3    H110274   7.697   4.717   0.459
 3439TIP3    H210275   7.762   4.690   0.326
 3440TIP3   OH210276   2.344   6.290   0.572
 3440TIP3    H110277   2.424   6.249   0.606
 3440TIP3    H210278   2.341   6.375   0.616
 3441TIP3   OH210279   2.742   0.953   2.145
 3441TIP3    H110280   2.831   0.979   2.120
 3441TIP3    H210281   2.749   0.861   2.168
 3442TIP3   OH210282   1.908   4.555   6.359
 3442TIP3    H110283   1.926   4.584   6.270
 3442TIP3    H210284   1.882   4.464   6.351
 3443TIP3   OH210285   6.169   2.319   0.016
 3443TIP3    H110286   6.081   2.349  -0.005
 3443TIP3    H210287   6.156   2.235   0.060
 3444TIP3   OH210288   1.242   1.625   4.321
 3444TIP3    H110289   1.192   1.626   4.239
 3444TIP3    H210290   1.189   1.677   4.382
 3445TIP3   OH210291   3.368   6.927   5.108
 3445TIP3    H110292   3.350   6.842   5.148
 3445TIP3    H210293   3.443   6.911   5.051
 3446TIP3   OH210294   3.086   4.703   4.955
 3446TIP3    H110295   3.123   4.741   4.875
 3446TIP3    H210296   3.156   4.648   4.990
 3447TIP3   OH210297   4.432   4.674   4.024
 3447TIP3    H110298   4.518   4.660   4.063
 3447TIP3    H210299   4.371   4.667   4.097
 3448TIP3   OH210300   5.499   0.658   0.267
 3448TIP3    H110301   5.594   0.659   0.253
 3448TIP3    H210302   5.463   0.618   0.188
 3449TIP3   OH210303   6.814   6.595   3.141
 3449TIP3    H110304   6.761   6.580   3.063
 3449TIP3    H210305   6.844   6.686   3.133
 3450TIP3   OH210306   4.062   0.497   1.926
 3450TIP3    H110307   4.089   0.505   2.018
 3450TIP3    H210308   4.143   0.510   1.877
 3451TIP3   OH210309   7.767   4.289   5.842
 3451TIP3    H110310   7.672   4.277   5.849
 3451TIP3    H210311   7.793   4.329   5.925
 3452TIP3   OH210312   0.257   0.132   2.764
 3452TIP3    H110313   0.273   0.075   2.689
 3452TIP3    H210314   0.182   0.185   2.738
 3453TIP3   OH210315   7.444   2.543   3.514
 3453TIP3    H110316   7.427   2.516   3.424
 3453TIP3    H210317   7.358   2.568   3.548
 3454TIP3   OH210318   2.538   2.662   5.382
 3454TIP3    H110319   2.453   2.628   5.411
 3454TIP3    H210320   2.600   2.633   5.449
 3455TIP3   OH210321   1.192   4.139   2.615
 3455TIP3    H110322   1.117   4.164   2.669
 3455TIP3    H210323   1.175   4.048   2.592
 3456TIP3   OH210324   1.473   7.617   2.530
 3456TIP3    H110325   1.511   7.610   2.442
 3456TIP3    H210326   1.411   7.690   2.524
 3457TIP3   OH210327   2.761   7.154   5.376
 3457TIP3    H110328   2.699   7.226   5.388
 3457TIP3    H210329   2.824   7.186   5.312
 3458TIP3   OH210330   8.161   0.390   1.348
 3458TIP3    H110331   8.105   0.355   1.278
 3458TIP3    H210332   8.240   0.336   1.344
 3459TIP3   OH210333   5.168   1.297   1.472
 3459TIP3    H110334   5.178   1.239   1.396
 3459TIP3    H210335   5.243   1.275   1.528
 3460TIP3   OH210336   1.315   6.080   5.506
 3460TIP3    H110337   1.320   6.174   5.523
 3460TIP3    H210338   1.351   6.070   5.418
 3461TIP3   OH210339   0.244   0.456   2.106
 3461TIP3    H110340   0.172   0.424   2.160
 3461TIP3    H210341   0.323   0.434   2.156
 3462TIP3   OH210342   1.064   7.228   2.616
 3462TIP3    H110343   1.146   7.268   2.587
 3462TIP3    H210344   1.041   7.278   2.695
 3463TIP3   OH210345   4.891   4.068   2.188
 3463TIP3    H110346   4.985   4.050   2.196
 3463TIP3    H210347   4.852   4.025   2.264
 3464TIP3   OH210348   3.454   2.565   2.177
 3464TIP3    H110349   3.440   2.618   2.256
 3464TIP3    H210350   3.402   2.608   2.110
 3465TIP3   OH210351   6.295   4.851   6.650
 3465TIP3    H110352   6.376   4.802   6.663
 3465TIP3    H210353   6.322   4.934   6.611
 3466TIP3   OH210354   0.913   4.324   5.514
 3466TIP3    H110355   0.942   4.281   5.595
 3466TIP3    H210356   0.823   4.350   5.531
 3467TIP3   OH210357   1.187   3.693   4.223
 3467TIP3    H110358   1.128   3.759   4.187
 3467TIP3    H210359   1.129   3.633   4.270
 3468TIP3   OH210360   8.016   6.422   3.040
 3468TIP3    H110361   8.061   6.426   2.956
 3468TIP3    H210362   8.063   6.356   3.090
 3469TIP3   OH210363   2.083   6.211   0.591
 3469TIP3    H110364   2.085   6.210   0.687
 3469TIP3    H210365   2.171   6.239   0.566
 3470TIP3   OH210366   2.339   5.220   4.135
 3470TIP3    H110367   2.388   5.302   4.147
 3470TIP3    H210368   2.276   5.219   4.208
 3471TIP3   OH210369   5.479   0.748   2.942
 3471TIP3    H110370   5.420   0.817   2.912
 3471TIP3    H210371   5.423   0.672   2.953
 3472TIP3   OH210372   4.080   0.495   4.456
 3472TIP3    H110373   4.073   0.446   4.375
 3472TIP3    H210374   3.991   0.494   4.492
 3473TIP3   OH210375   4.808   2.353   2.519
 3473TIP3    H110376   4.793   2.401   2.438
 3473TIP3    H210377   4.725   2.307   2.536
 3474TIP3   OH210378   5.518   2.386   5.417
 3474TIP3    H110379   5.515   2.303   5.465
 3474TIP3    H210380   5.556   2.448   5.480
 3475TIP3   OH210381   7.970   1.104   1.460
 3475TIP3    H110382   7.902   1.166   1.434
 3475TIP3    H210383   7.994   1.131   1.549
 3476TIP3   OH210384   4.887   2.490   0.778
 3476TIP3    H110385   4.920   2.577   0.759
 3476TIP3    H210386   4.957   2.431   0.749
 3477TIP3   OH210387   1.066   1.418   1.030
 3477TIP3    H110388   1.069   1.374   0.945
 3477TIP3    H210389   1.131   1.488   1.023
 3478TIP3   OH210390   5.722   2.446   4.730
 3478TIP3    H110391   5.667   2.463   4.806
 3478TIP3    H210392   5.793   2.391   4.763
 3479TIP3   OH210393   0.094   0.098   1.627
 3479TIP3    H110394   0.056   0.162   1.687
 3479TIP3    H210395   0.029   0.027   1.623
 3480TIP3   OH210396   2.521   2.257   4.792
 3480TIP3    H110397   2.464   2.185   4.766
 3480TIP3    H210398   2.557   2.230   4.877
 3481TIP3   OH210399   0.056   0.095   4.571
 3481TIP3    H110400   0.144   0.103   4.532
 3481TIP3    H210401   0.021   0.184   4.568
 3482TIP3   OH210402   2.284   6.688   2.381
 3482TIP3    H110403   2.244   6.735   2.454
 3482TIP3    H210404   2.272   6.596   2.402
 3483TIP3   OH210405   3.315   1.731   1.884
 3483TIP3    H110406   3.378   1.710   1.816
 3483TIP3    H210407   3.359   1.797   1.938
 3484TIP3   OH210408   3.409   3.862   5.189
 3484TIP3    H110409   3.432   3.782   5.143
 3484TIP3    H210410   3.468   3.864   5.264
 3485TIP3   OH210411   1.634   3.505   3.975
 3485TIP3    H110412   1.625   3.491   4.069
 3485TIP3    H210413   1.559   3.559   3.951
 3486TIP3   OH210414   3.073   4.991   1.124
 3486TIP3    H110415   2.993   4.986   1.176
 3486TIP3    H210416   3.099   5.083   1.129
 3487TIP3   OH210417   1.725   1.631   0.296
 3487TIP3    H110418   1.813   1.629   0.258
 3487TIP3    H210419   1.668   1.658   0.224
 3488TIP3   OH210420   6.882   1.092   5.944
 3488TIP3    H110421   6.839   1.176   5.930
 3488TIP3    H210422   6.881   1.080   6.039
 3489TIP3   OH210423   5.157   5.102   5.539
 3489TIP3    H110424   5.133   5.030   5.481
 3489TIP3    H210425   5.253   5.100   5.542
 3490TIP3   OH210426   2.221   0.670   4.486
 3490TIP3    H110427   2.213   0.644   4.577
 3490TIP3    H210428   2.240   0.589   4.439
 3491TIP3   OH210429   3.007   1.625   3.569
 3491TIP3    H110430   3.017   1.707   3.521
 3491TIP3    H210431   3.096   1.594   3.582
 3492TIP3   OH210432   7.091   5.436   6.490
 3492TIP3    H110433   7.105   5.342   6.495
 3492TIP3    H210434   7.174   5.472   6.460
 3493TIP3   OH210435   6.991   3.464   1.987
 3493TIP3    H110436   7.016   3.394   2.047
 3493TIP3    H210437   7.066   3.471   1.927
 3494TIP3   OH210438   5.727   6.977   2.955
 3494TIP3    H110439   5.642   7.018   2.937
 3494TIP3    H210440   5.789   7.050   2.954
 3495TIP3   OH210441   6.319   7.242   1.280
 3495TIP3    H110442   6.263   7.294   1.222
 3495TIP3    H210443   6.275   7.158   1.287
 3496TIP3   OH210444   1.883   0.741   2.506
 3496TIP3    H110445   1.935   0.745   2.426
 3496TIP3    H210446   1.938   0.693   2.568
 3497TIP3   OH210447   0.580   5.253   3.975
 3497TIP3    H110448   0.631   5.334   3.982
 3497TIP3    H210449   0.498   5.280   3.934
 3498TIP3   OH210450   4.645   4.680   0.054
 3498TIP3    H110451   4.667   4.679   0.147
 3498TIP3    H210452   4.693   4.606   0.018
 3499TIP3   OH210453   6.128   3.673   0.874
 3499TIP3    H110454   6.105   3.610   0.805
 3499TIP3    H210455   6.222   3.662   0.887
 3500TIP3   OH210456   0.956   6.605   4.755
 3500TIP3    H110457   0.953   6.668   4.683
 3500TIP3    H210458   0.870   6.563   4.753
 3501TIP3   OH210459   7.685   1.746   4.799
 3501TIP3    H110460   7.743   1.774   4.869
 3501TIP3    H210461   7.732   1.768   4.719
 3502TIP3   OH210462   0.120   5.653   1.296
 3502TIP3    H110463   0.132   5.733   1.244
 3502TIP3    H210464   0.027   5.633   1.285
 3503TIP3   OH210465  -0.026   5.569   3.423
 3503TIP3    H110466  -0.034   5.505   3.494
 3503TIP3    H210467   0.068   5.588   3.418
 3504TIP3   OH210468   1.425   6.929   5.669
 3504TIP3    H110469   1.358   6.864   5.689
 3504TIP3    H210470   1.494   6.879   5.624
 3505TIP3   OH210471   3.004   2.970   3.181
 3505TIP3    H110472   3.089   2.933   3.204
 3505TIP3    H210473   3.004   3.057   3.221
 3506TIP3   OH210474   2.482   6.118   1.906
 3506TIP3    H110475   2.506   6.186   1.843
 3506TIP3    H210476   2.394   6.090   1.880
 3507TIP3   OH210477   3.353   2.538   3.363
 3507TIP3    H110478   3.299   2.483   3.307
 3507TIP3    H210479   3.345   2.500   3.450
 3508TIP3   OH210480   4.155   2.724   4.711
 3508TIP3    H110481   4.153   2.689   4.800
 3508TIP3    H210482   4.181   2.816   4.722
 3509TIP3   OH210483   7.102   7.118   0.443
 3509TIP3    H110484   7.007   7.117   0.456
 3509TIP3    H210485   7.118   7.045   0.384
 3510TIP3   OH210486   4.759   5.708   5.869
 3510TIP3    H110487   4.665   5.694   5.880
 3510TIP3    H210488   4.787   5.742   5.954
 3511TIP3   OH210489   3.388   1.177   2.203
 3511TIP3    H110490   3.408   1.267   2.176
 3511TIP3    H210491   3.415   1.123   2.129
 3512TIP3   OH210492   7.567   6.358   6.018
 3512TIP3    H110493   7.495   6.327   5.964
 3512TIP3    H210494   7.607   6.278   6.054
 3513TIP3   OH210495   6.570   2.474   4.629
 3513TIP3    H110496   6.523   2.541   4.679
 3513TIP3    H210497   6.595   2.409   4.695
 3514TIP3   OH210498   4.892   2.765   5.855
 3514TIP3    H110499   4.980   2.779   5.890
 3514TIP3    H210500   4.883   2.829   5.785
 3515TIP3   OH210501   0.176   2.298   6.325
 3515TIP3    H110502   0.249   2.260   6.373
 3515TIP3    H210503   0.106   2.233   6.330
 3516TIP3   OH210504   7.165   4.525   5.509
 3516TIP3    H110505   7.204   4.439   5.493
 3516TIP3    H210506   7.193   4.547   5.598
 3517TIP3   OH210507   8.118   0.473   4.194
 3517TIP3    H110508   8.104   0.528   4.271
 3517TIP3    H210509   8.103   0.383   4.226
 3518TIP3   OH210510   3.988   0.697   0.207
 3518TIP3    H110511   3.979   0.673   0.299
 3518TIP3    H210512   4.073   0.741   0.203
 3519TIP3   OH210513   4.197   1.055   0.133
 3519TIP3    H110514   4.285   1.092   0.126
 3519TIP3    H210515   4.145   1.124   0.174
 3520TIP3   OH210516   1.019   6.263   2.713
 3520TIP3    H110517   0.926   6.260   2.688
 3520TIP3    H210518   1.051   6.174   2.699
 3521TIP3   OH210519   7.063   1.115   5.743
 3521TIP3    H110520   7.010   1.123   5.822
 3521TIP3    H210521   7.054   1.024   5.717
 3522TIP3   OH210522   1.587   4.151   1.028
 3522TIP3    H110523   1.504   4.137   1.074
 3522TIP3    H210524   1.654   4.124   1.091
 3523TIP3   OH210525   6.091   2.058   2.426
 3523TIP3    H110526   6.166   2.075   2.482
 3523TIP3    H210527   6.075   2.141   2.380
 3524TIP3   OH210528   7.753   7.668   4.959
 3524TIP3    H110529   7.799   7.748   4.933
 3524TIP3    H210530   7.799   7.638   5.037
 3525TIP3   OH210531   5.905   1.332   6.295
 3525TIP3    H110532   5.827   1.387   6.300
 3525TIP3    H210533   5.883   1.254   6.346
 3526TIP3   OH210534   2.607   1.904   0.792
 3526TIP3    H110535   2.611   1.817   0.831
 3526TIP3    H210536   2.540   1.897   0.725
 3527TIP3   OH210537   1.168   1.252   6.515
 3527TIP3    H110538   1.240   1.269   6.455
 3527TIP3    H210539   1.206   1.265   6.602
 3528TIP3   OH210540   7.996   4.797   6.584
 3528TIP3    H110541   7.934   4.828   6.649
 3528TIP3    H210542   8.079   4.788   6.632
 3529TIP3   OH210543   4.521   7.162   0.313
 3529TIP3    H110544   4.542   7.185   0.223
 3529TIP3    H210545   4.528   7.245   0.361
 3530TIP3   OH210546   0.377   6.672   6.141
 3530TIP3    H110547   0.402   6.759   6.174
 3530TIP3    H210548   0.287   6.684   6.109
 3531TIP3   OH210549   7.177   3.718   2.319
 3531TIP3    H110550   7.192   3.734   2.226
 3531TIP3    H210551   7.265   3.713   2.357
 3532TIP3   OH210552   4.555   6.459   4.614
 3532TIP3    H110553   4.639   6.416   4.594
 3532TIP3    H210554   4.502   6.390   4.654
 3533TIP3   OH210555   3.589   4.885   5.259
 3533TIP3    H110556   3.665   4.835   5.230
 3533TIP3    H210557   3.526   4.878   5.188
 3534TIP3   OH210558   6.506   3.487   0.938
 3534TIP3    H110559   6.571   3.424   0.908
 3534TIP3    H210560   6.421   3.449   0.915
 3535TIP3   OH210561   6.291   1.904   1.725
 3535TIP3    H110562   6.311   1.877   1.635
 3535TIP3    H210563   6.355   1.857   1.778
 3536TIP3   OH210564   4.293   5.793   2.546
 3536TIP3    H110565   4.363   5.814   2.484
 3536TIP3    H210566   4.227   5.748   2.492
 3537TIP3   OH210567   7.464   1.842   0.368
 3537TIP3    H110568   7.440   1.922   0.321
 3537TIP3    H210569   7.509   1.872   0.446
 3538TIP3   OH210570   6.376   1.976   3.512
 3538TIP3    H110571   6.349   1.980   3.604
 3538TIP3    H210572   6.444   1.909   3.510
 3539TIP3   OH210573   4.782   3.325   0.475
 3539TIP3    H110574   4.735   3.368   0.546
 3539TIP3    H210575   4.723   3.332   0.400
 3540TIP3   OH210576   5.299   1.442   5.679
 3540TIP3    H110577   5.293   1.507   5.609
 3540TIP3    H210578   5.278   1.358   5.636
 3541TIP3   OH210579   8.093   3.336   1.894
 3541TIP3    H110580   8.096   3.328   1.799
 3541TIP3    H210581   8.030   3.269   1.922
 3542TIP3   OH210582   8.090   4.227   0.352
 3542TIP3    H110583   8.108   4.135   0.374
 3542TIP3    H210584   8.159   4.276   0.396
 3543TIP3   OH210585   0.199   3.915   5.947
 3543TIP3    H110586   0.207   3.969   5.868
 3543TIP3    H210587   0.279   3.863   5.949
 3544TIP3   OH210588   5.459   0.428   1.873
 3544TIP3    H110589   5.495   0.508   1.912
 3544TIP3    H210590   5.519   0.358   1.901
 3545TIP3   OH210591   8.274   2.478   0.528
 3545TIP3    H110592   8.207   2.547   0.532
 3545TIP3    H210593   8.296   2.461   0.620
 3546TIP3   OH210594   5.771   5.302   5.314
 3546TIP3    H110595   5.768   5.395   5.290
 3546TIP3    H210596   5.682   5.271   5.301
 3547TIP3   OH210597   6.116   6.299   2.778
 3547TIP3    H110598   6.076   6.310   2.691
 3547TIP3    H210599   6.093   6.378   2.826
 3548TIP3   OH210600   4.731   5.863   2.892
 3548TIP3    H110601   4.722   5.768   2.889
 3548TIP3    H210602   4.670   5.895   2.826
 3549TIP3   OH210603   5.408   1.249   1.269
 3549TIP3    H110604   5.324   1.225   1.230
 3549TIP3    H210605   5.465   1.267   1.194
 3550TIP3   OH210606   3.255   7.257   4.021
 3550TIP3    H110607   3.162   7.236   4.011
 3550TIP3    H210608   3.278   7.227   4.109
 3551TIP3   OH210609   3.623   7.335   1.765
 3551TIP3    H110610   3.573   7.369   1.838
 3551TIP3    H210611   3.574   7.258   1.736
 3552TIP3   OH210612   6.724   7.177   0.876
 3552TIP3    H110613   6.787   7.147   0.941
 3552TIP3    H210614   6.641   7.137   0.902
 3553TIP3   OH210615   7.137   6.122   3.819
 3553TIP3    H110616   7.064   6.115   3.757
 3553TIP3    H210617   7.168   6.032   3.830
 3554TIP3   OH210618   4.546   3.216   5.175
 3554TIP3    H110619   4.594   3.136   5.155
 3554TIP3    H210620   4.468   3.211   5.121
 3555TIP3   OH210621   2.144   2.820   2.072
 3555TIP3    H110622   2.155   2.828   1.978
 3555TIP3    H210623   2.177   2.903   2.107
 3556TIP3   OH210624   4.398   6.831   3.150
 3556TIP3    H110625   4.424   6.892   3.081
 3556TIP3    H210626   4.476   6.821   3.205
 3557TIP3   OH210627   5.188   0.721   5.880
 3557TIP3    H110628   5.256   0.671   5.834
 3557TIP3    H210629   5.110   0.709   5.826
 3558TIP3   OH210630   7.714   0.491   5.390
 3558TIP3    H110631   7.771   0.538   5.330
 3558TIP3    H210632   7.670   0.426   5.335
 3559TIP3   OH210633   4.178   2.056   1.003
 3559TIP3    H110634   4.180   2.067   0.908
 3559TIP3    H210635   4.092   2.018   1.021
 3560TIP3   OH210636   4.637   2.321   0.806
 3560TIP3    H110637   4.631   2.274   0.723
 3560TIP3    H210638   4.691   2.398   0.787
 3561TIP3   OH210639   1.831   5.806   5.014
 3561TIP3    H110640   1.860   5.855   4.937
 3561TIP3    H210641   1.860   5.858   5.089
 3562TIP3   OH210642   6.904   4.619   2.615
 3562TIP3    H110643   6.864   4.535   2.635
 3562TIP3    H210644   6.890   4.672   2.693
 3563TIP3   OH210645   7.944   5.409   1.439
 3563TIP3    H110646   7.860   5.368   1.416
 3563TIP3    H210647   7.925   5.502   1.444
 3564TIP3   OH210648   3.536   4.084   5.756
 3564TIP3    H110649   3.452   4.128   5.771
 3564TIP3    H210650   3.522   3.995   5.786
 3565TIP3   OH210651   3.900   2.498   2.810
 3565TIP3    H110652   3.832   2.433   2.793
 3565TIP3    H210653   3.913   2.494   2.904
 3566TIP3   OH210654   5.218   7.779   6.346
 3566TIP3    H110655   5.171   7.841   6.289
 3566TIP3    H210656   5.216   7.697   6.297
 3567TIP3   OH210657   5.916   0.001   6.130
 3567TIP3    H110658   5.990   0.052   6.161
 3567TIP3    H210659   5.954  -0.082   6.101
 3568TIP3   OH210660   1.670   6.445   5.584
 3568TIP3    H110661   1.759   6.437   5.621
 3568TIP3    H210662   1.623   6.370   5.620
 3569TIP3   OH210663   5.064   0.328   0.423
 3569TIP3    H110664   5.024   0.341   0.337
 3569TIP3    H210665   5.143   0.278   0.405
 3570TIP3   OH210666   4.052   1.586   5.014
 3570TIP3    H110667   4.070   1.605   5.106
 3570TIP3    H210668   4.110   1.645   4.966
 3571TIP3   OH210669   4.045   0.317   5.385
 3571TIP3    H110670   4.066   0.239   5.333
 3571TIP3    H210671   4.126   0.367   5.388
 3572TIP3   OH210672   0.801   0.339   3.056
 3572TIP3    H110673   0.744   0.276   3.013
 3572TIP3    H210674   0.790   0.420   3.005
 3573TIP3   OH210675   7.335   4.610   0.608
 3573TIP3    H110676   7.404   4.652   0.660
 3573TIP3    H210677   7.280   4.683   0.579
 3574TIP3   OH210678   7.016   1.059   3.053
 3574TIP3    H110679   6.962   1.118   2.999
 3574TIP3    H210680   7.095   1.044   3.001
 3575TIP3   OH210681   1.608   0.757   4.464
 3575TIP3    H110682   1.649   0.736   4.547
 3575TIP3    H210683   1.681   0.779   4.406
 3576TIP3   OH210684   4.403   2.905   5.547
 3576TIP3    H110685   4.363   2.835   5.494
 3576TIP3    H210686   4.487   2.922   5.504
 3577TIP3   OH210687   2.510   2.745   1.540
 3577TIP3    H110688   2.436   2.803   1.522
 3577TIP3    H210689   2.473   2.657   1.533
 3578TIP3   OH210690   2.472   3.919   1.593
 3578TIP3    H110691   2.492   3.955   1.679
 3578TIP3    H210692   2.555   3.883   1.562
 3579TIP3   OH210693   1.018   5.087   1.701
 3579TIP3    H110694   0.958   5.158   1.680
 3579TIP3    H210695   1.066   5.071   1.620
 3580TIP3   OH210696   4.204   3.550   5.966
 3580TIP3    H110697   4.287   3.519   6.002
 3580TIP3    H210698   4.213   3.646   5.965
 3581TIP3   OH210699   0.049   3.371   0.744
 3581TIP3    H110700   0.098   3.309   0.690
 3581TIP3    H210701   0.081   3.457   0.717
 3582TIP3   OH210702   6.092   4.531   3.259
 3582TIP3    H110703   6.100   4.532   3.355
 3582TIP3    H210704   6.016   4.586   3.241
 3583TIP3   OH210705   3.586   0.069   1.495
 3583TIP3    H110706   3.671   0.029   1.512
 3583TIP3    H210707   3.606   0.147   1.444
 3584TIP3   OH210708   2.098   7.151   4.362
 3584TIP3    H110709   2.107   7.242   4.332
 3584TIP3    H210710   2.060   7.105   4.287
 3585TIP3   OH210711   1.165   7.092   3.886
 3585TIP3    H110712   1.167   6.998   3.906
 3585TIP3    H210713   1.251   7.110   3.847
 3586TIP3   OH210714   0.418   1.945   6.517
 3586TIP3    H110715   0.469   1.873   6.480
 3586TIP3    H210716   0.354   1.902   6.574
 3587TIP3   OH210717   7.226   4.759   3.112
 3587TIP3    H110718   7.204   4.758   3.205
 3587TIP3    H210719   7.318   4.731   3.109
 3588TIP3   OH210720   5.881   2.274   4.021
 3588TIP3    H110721   5.923   2.189   4.030
 3588TIP3    H210722   5.857   2.299   4.110
 3589TIP3   OH210723   1.007   2.504   1.553
 3589TIP3    H110724   0.916   2.525   1.572
 3589TIP3    H210725   1.006   2.411   1.531
 3590TIP3   OH210726   7.843   1.267   3.701
 3590TIP3    H110727   7.916   1.269   3.639
 3590TIP3    H210728   7.809   1.356   3.699
 3591TIP3   OH210729   3.613   2.584   1.537
 3591TIP3    H110730   3.672   2.658   1.525
 3591TIP3    H210731   3.546   2.616   1.598
 3592TIP3   OH210732   5.022   5.313   0.155
 3592TIP3    H110733   5.086   5.279   0.217
 3592TIP3    H210734   4.961   5.364   0.209
 3593TIP3   OH210735   1.985   5.243   3.977
 3593TIP3    H110736   2.062   5.189   3.957
 3593TIP3    H210737   1.911   5.194   3.942
 3594TIP3   OH210738   4.618   6.326   3.014
 3594TIP3    H110739   4.533   6.318   3.056
 3594TIP3    H210740   4.664   6.245   3.036
 3595TIP3   OH210741   2.738   7.428   5.013
 3595TIP3    H110742   2.806   7.489   5.042
 3595TIP3    H210743   2.741   7.432   4.917
 3596TIP3   OH210744   7.979   3.192   5.463
 3596TIP3    H110745   7.973   3.286   5.447
 3596TIP3    H210746   8.073   3.173   5.459
 3597TIP3   OH210747   0.903   0.926   4.102
 3597TIP3    H110748   0.809   0.941   4.092
 3597TIP3    H210749   0.909   0.852   4.162
 3598TIP3   OH210750   3.467   0.766   1.194
 3598TIP3    H110751   3.373   0.760   1.211
 3598TIP3    H210752   3.498   0.829   1.259
 3599TIP3   OH210753   5.914   2.417   5.381
 3599TIP3    H110754   5.961   2.497   5.357
 3599TIP3    H210755   5.874   2.438   5.465
 3600TIP3   OH210756   3.951   0.929   2.076
 3600TIP3    H110757   4.016   0.900   2.012
 3600TIP3    H210758   3.987   1.009   2.113
 3601TIP3   OH210759   7.843   4.966   4.428
 3601TIP3    H110760   7.816   5.055   4.450
 3601TIP3    H210761   7.763   4.922   4.399
 3602TIP3   OH210762   3.254   2.309   5.882
 3602TIP3    H110763   3.346   2.298   5.908
 3602TIP3    H210764   3.257   2.320   5.787
 3603TIP3   OH210765   6.848   2.595   4.609
 3603TIP3    H110766   6.759   2.560   4.603
 3603TIP3    H210767   6.904   2.518   4.613
 3604TIP3   OH210768   6.188   0.668   5.948
 3604TIP3    H110769   6.114   0.607   5.954
 3604TIP3    H210770   6.167   0.737   6.011
 3605TIP3   OH210771   6.131   7.822   6.040
 3605TIP3    H110772   6.107   7.837   6.132
 3605TIP3    H210773   6.196   7.890   6.021
 3606TIP3   OH210774   0.636   0.970   2.173
 3606TIP3    H110775   0.573   0.999   2.107
 3606TIP3    H210776   0.622   1.028   2.247
 3607TIP3   OH210777   4.947   2.486   1.390
 3607TIP3    H110778   4.940   2.476   1.295
 3607TIP3    H210779   4.939   2.397   1.424
 3608TIP3   OH210780   2.926   4.550   4.816
 3608TIP3    H110781   2.955   4.459   4.814
 3608TIP3    H210782   2.988   4.594   4.874
 3609TIP3   OH210783   7.665   0.994   1.441
 3609TIP3    H110784   7.726   0.924   1.417
 3609TIP3    H210785   7.720   1.058   1.486
 3610TIP3   OH210786   0.869   4.511   1.285
 3610TIP3    H110787   0.960   4.537   1.270
 3610TIP3    H210788   0.865   4.493   1.379
 3611TIP3   OH210789   0.776   6.220   4.312
 3611TIP3    H110790   0.690   6.226   4.272
 3611TIP3    H210791   0.826   6.163   4.254
 3612TIP3   OH210792   6.893   3.030   4.070
 3612TIP3    H110793   6.819   2.970   4.058
 3612TIP3    H210794   6.970   2.977   4.047
 3613TIP3   OH210795   3.559   4.158   0.236
 3613TIP3    H110796   3.591   4.204   0.159
 3613TIP3    H210797   3.580   4.216   0.309
 3614TIP3   OH210798   2.694   5.371   0.116
 3614TIP3    H110799   2.759   5.371   0.046
 3614TIP3    H210800   2.631   5.304   0.091
 3615TIP3   OH210801   5.548   6.392   5.848
 3615TIP3    H110802   5.488   6.328   5.810
 3615TIP3    H210803   5.511   6.413   5.934
 3616TIP3   OH210804   1.711   2.214   1.146
 3616TIP3    H110805   1.759   2.132   1.142
 3616TIP3    H210806   1.653   2.212   1.070
 3617TIP3   OH210807   6.087   1.765   2.950
 3617TIP3    H110808   6.132   1.846   2.927
 3617TIP3    H210809   6.122   1.742   3.036
 3618TIP3   OH210810   2.441   5.391   5.202
 3618TIP3    H110811   2.510   5.349   5.253
 3618TIP3    H210812   2.388   5.437   5.268
 3619TIP3   OH210813   4.698   3.219   4.012
 3619TIP3    H110814   4.759   3.242   4.082
 3619TIP3    H210815   4.663   3.133   4.037
 3620TIP3   OH210816   1.273   3.509   4.875
 3620TIP3    H110817   1.181   3.486   4.865
 3620TIP3    H210818   1.299   3.546   4.791
 3621TIP3   OH210819   5.813   2.623   1.210
 3621TIP3    H110820   5.782   2.536   1.183
 3621TIP3    H210821   5.847   2.610   1.298
 3622TIP3   OH210822   7.270   2.244   1.325
 3622TIP3    H110823   7.271   2.339   1.312
 3622TIP3    H210824   7.220   2.210   1.250
 3623TIP3   OH210825   3.930   2.582   2.536
 3623TIP3    H110826   3.911   2.673   2.516
 3623TIP3    H210827   3.905   2.572   2.628
 3624TIP3   OH210828   2.244   5.719   3.320
 3624TIP3    H110829   2.235   5.786   3.252
 3624TIP3    H210830   2.299   5.651   3.280
 3625TIP3   OH210831   2.809   4.268   2.926
 3625TIP3    H110832   2.821   4.335   2.994
 3625TIP3    H210833   2.802   4.318   2.845
 3626TIP3   OH210834   6.092   7.237   4.284
 3626TIP3    H110835   6.107   7.256   4.377
 3626TIP3    H210836   6.031   7.163   4.284
 3627TIP3   OH210837   1.746   5.694   0.112
 3627TIP3    H110838   1.655   5.722   0.119
 3627TIP3    H210839   1.776   5.687   0.202
 3628TIP3   OH210840   1.813   0.722   6.238
 3628TIP3    H110841   1.846   0.811   6.252
 3628TIP3    H210842   1.733   0.734   6.186
 3629TIP3   OH210843   5.185   5.228   0.358
 3629TIP3    H110844   5.150   5.146   0.393
 3629TIP3    H210845   5.252   5.254   0.421
 3630TIP3   OH210846   1.547   5.465   1.911
 3630TIP3    H110847   1.481   5.472   1.843
 3630TIP3    H210848   1.498   5.445   1.991
 3631TIP3   OH210849   3.207   4.955   6.655
 3631TIP3    H110850   3.230   4.885   6.716
 3631TIP3    H210851   3.236   4.923   6.570
 3632TIP3   OH210852   2.290   1.729   5.253
 3632TIP3    H110853   2.201   1.702   5.271
 3632TIP3    H210854   2.345   1.666   5.299
 3633TIP3   OH210855   4.355   5.156   4.276
 3633TIP3    H110856   4.297   5.223   4.311
 3633TIP3    H210857   4.322   5.140   4.187
 3634TIP3   OH210858   8.162   3.720   6.679
 3634TIP3    H110859   8.253   3.691   6.670
 3634TIP3    H210860   8.112   3.639   6.687
 3635TIP3   OH210861   2.021   2.966   5.551
 3635TIP3    H110862   1.965   3.031   5.509
 3635TIP3    H210863   2.040   3.002   5.638
 3636TIP3   OH210864   0.368   7.574   4.165
 3636TIP3    H110865   0.389   7.665   4.144
 3636TIP3    H210866   0.453   7.533   4.182
 3637TIP3   OH210867   6.527   7.466   3.382
 3637TIP3    H110868   6.458   7.425   3.330
 3637TIP3    H210869   6.525   7.558   3.356
 3638TIP3   OH210870   2.115   5.098   3.579
 3638TIP3    H110871   2.186   5.094   3.515
 3638TIP3    H210872   2.154   5.067   3.661
 3639TIP3   OH210873   3.505   2.063   1.548
 3639TIP3    H110874   3.453   2.132   1.591
 3639TIP3    H210875   3.595   2.080   1.576
 3640TIP3   OH210876   5.459   6.120   5.014
 3640TIP3    H110877   5.515   6.162   4.949
 3640TIP3    H210878   5.428   6.192   5.068
 3641TIP3   OH210879   1.877   6.404   6.535
 3641TIP3    H110880   1.971   6.413   6.548
 3641TIP3    H210881   1.850   6.334   6.594
 3642TIP3   OH210882   5.795   1.782   5.293
 3642TIP3    H110883   5.823   1.690   5.294
 3642TIP3    H210884   5.766   1.797   5.203
 3643TIP3   OH210885   0.370   6.896   4.198
 3643TIP3    H110886   0.438   6.854   4.251
 3643TIP3    H210887   0.376   6.989   4.220
 3644TIP3   OH210888   2.397   1.291   2.231
 3644TIP3    H110889   2.401   1.377   2.272
 3644TIP3    H210890   2.359   1.234   2.298
 3645TIP3   OH210891   4.400   4.394   3.234
 3645TIP3    H110892   4.471   4.385   3.298
 3645TIP3    H210893   4.374   4.486   3.240
 3646TIP3   OH210894   4.135   6.696   0.269
 3646TIP3    H110895   4.065   6.743   0.314
 3646TIP3    H210896   4.095   6.613   0.244
 3647TIP3   OH210897   5.738   6.270   2.729
 3647TIP3    H110898   5.665   6.296   2.673
 3647TIP3    H210899   5.813   6.264   2.670
 3648TIP3   OH210900   4.981   6.231   3.577
 3648TIP3    H110901   4.910   6.208   3.637
 3648TIP3    H210902   5.017   6.147   3.549
 3649TIP3   OH210903   6.651   1.650   3.282
 3649TIP3    H110904   6.614   1.701   3.354
 3649TIP3    H210905   6.576   1.614   3.236
 3650TIP3   OH210906   2.139   4.621   4.172
 3650TIP3    H110907   2.116   4.710   4.196
 3650TIP3    H210908   2.198   4.592   4.242
 3651TIP3   OH210909   7.610   1.930   0.855
 3651TIP3    H110910   7.661   2.009   0.839
 3651TIP3    H210911   7.631   1.906   0.946
 3652TIP3   OH210912   2.424   2.727   4.103
 3652TIP3    H110913   2.349   2.686   4.059
 3652TIP3    H210914   2.472   2.653   4.142
 3653TIP3   OH210915   3.226   5.781   3.877
 3653TIP3    H110916   3.283   5.744   3.945
 3653TIP3    H210917   3.214   5.709   3.815
 3654TIP3   OH210918   1.396   4.492   1.736
 3654TIP3    H110919   1.323   4.438   1.766
 3654TIP3    H210920   1.474   4.449   1.773
 3655TIP3   OH210921   4.143   6.139   1.850
 3655TIP3    H110922   4.225   6.169   1.809
 3655TIP3    H210923   4.091   6.105   1.777
 3656TIP3   OH210924   7.234   0.778   0.103
 3656TIP3    H110925   7.181   0.751   0.028
 3656TIP3    H210926   7.267   0.865   0.079
 3657TIP3   OH210927   4.948   2.428   6.268
 3657TIP3    H110928   4.892   2.485   6.214
 3657TIP3    H210929   4.927   2.340   6.238
 3658TIP3   OH210930   7.311   6.132   6.645
 3658TIP3    H110931   7.294   6.220   6.612
 3658TIP3    H210932   7.381   6.142   6.709
 3659TIP3   OH210933   8.149   7.461   4.229
 3659TIP3    H110934   8.243   7.479   4.221
 3659TIP3    H210935   8.145   7.368   4.253
 3660TIP3   OH210936   1.034   6.852   0.524
 3660TIP3    H110937   1.121   6.813   0.523
 3660TIP3    H210938   0.977   6.787   0.484
 3661TIP3   OH210939   3.313   1.800   5.314
 3661TIP3    H110940   3.408   1.799   5.320
 3661TIP3    H210941   3.295   1.860   5.241
 3662TIP3   OH210942   3.385   0.653   0.483
 3662TIP3    H110943   3.396   0.619   0.395
 3662TIP3    H210944   3.335   0.586   0.529
 3663TIP3   OH210945   5.444   6.127   1.082
 3663TIP3    H110946   5.427   6.082   1.165
 3663TIP3    H210947   5.521   6.181   1.099
 3664TIP3   OH210948   0.869   2.792   2.265
 3664TIP3    H110949   0.878   2.837   2.182
 3664TIP3    H210950   0.830   2.857   2.324
 3665TIP3   OH210951   5.852   2.238   4.830
 3665TIP3    H110952   5.828   2.146   4.840
 3665TIP3    H210953   5.941   2.236   4.795
 3666TIP3   OH210954   7.669   3.994   5.581
 3666TIP3    H110955   7.751   3.952   5.605
 3666TIP3    H210956   7.627   3.932   5.521
 3667TIP3   OH210957   5.221   4.332   6.646
 3667TIP3    H110958   5.218   4.406   6.585
 3667TIP3    H210959   5.176   4.262   6.600
 3668TIP3   OH210960   3.547   6.490   4.569
 3668TIP3    H110961   3.504   6.449   4.644
 3668TIP3    H210962   3.569   6.418   4.511
 3669TIP3   OH210963   7.967   5.277   2.250
 3669TIP3    H110964   7.956   5.340   2.179
 3669TIP3    H210965   8.036   5.218   2.219
 3670TIP3   OH210966   2.396   3.651   6.563
 3670TIP3    H110967   2.419   3.743   6.576
 3670TIP3    H210968   2.477   3.603   6.584
 3671TIP3   OH210969   7.341   4.120   0.494
 3671TIP3    H110970   7.364   4.211   0.514
 3671TIP3    H210971   7.422   4.083   0.457
 3672TIP3   OH210972   1.337   3.546   3.125
 3672TIP3    H110973   1.275   3.614   3.150
 3672TIP3    H210974   1.421   3.573   3.163
 3673TIP3   OH210975   3.515   2.470   0.627
 3673TIP3    H110976   3.567   2.419   0.565
 3673TIP3    H210977   3.538   2.561   0.608
 3674TIP3   OH210978   5.676   0.702   4.097
 3674TIP3    H110979   5.749   0.642   4.078
 3674TIP3    H210980   5.600   0.645   4.106
 3675TIP3   OH210981   0.627   7.726   1.045
 3675TIP3    H110982   0.704   7.691   1.089
 3675TIP3    H210983   0.567   7.749   1.115
 3676TIP3   OH210984   7.734   0.806   2.469
 3676TIP3    H110985   7.771   0.757   2.395
 3676TIP3    H210986   7.686   0.740   2.520
 3677TIP3   OH210987   5.369   3.815   0.759
 3677TIP3    H110988   5.361   3.778   0.847
 3677TIP3    H210989   5.435   3.759   0.716
 3678TIP3   OH210990   0.554   1.743   5.032
 3678TIP3    H110991   0.519   1.700   4.954
 3678TIP3    H210992   0.483   1.738   5.096
 3679TIP3   OH210993   4.999   2.855   5.167
 3679TIP3    H110994   4.990   2.880   5.075
 3679TIP3    H210995   5.048   2.773   5.165
 3680TIP3   OH210996   0.455   3.534   2.932
 3680TIP3    H110997   0.395   3.480   2.984
 3680TIP3    H210998   0.423   3.623   2.944
 3681TIP3   OH210999   6.216   3.967   4.008
 3681TIP3    H111000   6.260   3.959   3.923
 3681TIP3    H211001   6.284   3.949   4.072
 3682TIP3   OH211002   5.488   6.252   3.102
 3682TIP3    H111003   5.553   6.321   3.113
 3682TIP3    H211004   5.538   6.170   3.104
 3683TIP3   OH211005   6.578   3.072   0.017
 3683TIP3    H111006   6.599   3.058   0.110
 3683TIP3    H211007   6.525   3.151   0.016
 3684TIP3   OH211008   2.128   6.459   2.158
 3684TIP3    H111009   2.160   6.381   2.113
 3684TIP3    H211010   2.148   6.444   2.251
 3685TIP3   OH211011   0.553   3.637   5.219
 3685TIP3    H111012   0.495   3.561   5.214
 3685TIP3    H211013   0.591   3.645   5.131
 3686TIP3   OH211014   2.905   3.948   1.641
 3686TIP3    H111015   2.974   3.909   1.695
 3686TIP3    H211016   2.847   3.875   1.619
 3687TIP3   OH211017   3.218   1.358   5.304
 3687TIP3    H111018   3.255   1.375   5.217
 3687TIP3    H211019   3.267   1.416   5.362
 3688TIP3   OH211020   1.324   0.824   4.350
 3688TIP3    H111021   1.292   0.782   4.270
 3688TIP3    H211022   1.419   0.808   4.349
 3689TIP3   OH211023   2.321   0.144   6.484
 3689TIP3    H111024   2.414   0.157   6.466
 3689TIP3    H211025   2.303   0.055   6.454
 3690TIP3   OH211026   4.789   2.485   4.063
 3690TIP3    H111027   4.699   2.473   4.094
 3690TIP3    H211028   4.784   2.561   4.005
 3691TIP3   OH211029   7.735   5.310   2.602
 3691TIP3    H111030   7.824   5.339   2.583
 3691TIP3    H211031   7.679   5.375   2.559
 3692TIP3   OH211032   0.963   7.391   1.413
 3692TIP3    H111033   0.947   7.484   1.432
 3692TIP3    H211034   1.004   7.391   1.327
 3693TIP3   OH211035   1.056   3.363   5.133
 3693TIP3    H111036   0.981   3.418   5.108
 3693TIP3    H211037   1.073   3.388   5.224
 3694TIP3   OH211038   0.566   0.821   3.518
 3694TIP3    H111039   0.615   0.826   3.435
 3694TIP3    H211040   0.483   0.779   3.494
 3695TIP3   OH211041   7.587   2.734   1.151
 3695TIP3    H111042   7.554   2.714   1.238
 3695TIP3    H211043   7.674   2.694   1.149
 3696TIP3   OH211044   7.979   6.688   0.920
 3696TIP3    H111045   8.043   6.632   0.877
 3696TIP3    H211046   7.904   6.691   0.860
 3697TIP3   OH211047   6.810   3.857   4.581
 3697TIP3    H111048   6.814   3.773   4.626
 3697TIP3    H211049   6.901   3.883   4.570
 3698TIP3   OH211050   1.002   0.675   6.547
 3698TIP3    H111051   1.043   0.683   6.461
 3698TIP3    H211052   1.076   0.665   6.608
 3699TIP3   OH211053   2.758   1.168   1.512
 3699TIP3    H111054   2.748   1.074   1.498
 3699TIP3    H211055   2.800   1.176   1.597
 3700TIP3   OH211056   2.436   6.042   3.579
 3700TIP3    H111057   2.373   5.971   3.586
 3700TIP3    H211058   2.476   6.031   3.493
 3701TIP3   OH211059   0.350   1.328   4.122
 3701TIP3    H111060   0.394   1.250   4.157
 3701TIP3    H211061   0.401   1.402   4.155
 3702TIP3   OH211062   7.157   3.304   5.293
 3702TIP3    H111063   7.144   3.395   5.320
 3702TIP3    H211064   7.234   3.308   5.236
 3703TIP3   OH211065   3.575   6.519   2.447
 3703TIP3    H111066   3.626   6.596   2.422
 3703TIP3    H211067   3.505   6.554   2.503
 3704TIP3   OH211068   4.416   0.060   0.564
 3704TIP3    H111069   4.358   0.010   0.506
 3704TIP3    H211070   4.358   0.122   0.609
 3705TIP3   OH211071   2.599   2.343   4.523
 3705TIP3    H111072   2.589   2.326   4.616
 3705TIP3    H211073   2.682   2.301   4.500
 3706TIP3   OH211074   1.400   6.021   1.458
 3706TIP3    H111075   1.338   5.949   1.466
 3706TIP3    H211076   1.486   5.979   1.455
 3707TIP3   OH211077   7.217   6.250   2.471
 3707TIP3    H111078   7.252   6.307   2.403
 3707TIP3    H211079   7.177   6.177   2.424
 3708TIP3   OH211080   3.437   7.383   0.301
 3708TIP3    H111081   3.409   7.474   0.309
 3708TIP3    H211082   3.498   7.383   0.228
 3709TIP3   OH211083   3.864   2.237   5.163
 3709TIP3    H111084   3.863   2.256   5.257
 3709TIP3    H211085   3.797   2.295   5.126
 3710TIP3   OH211086   0.679   1.899   0.588
 3710TIP3    H111087   0.635   1.946   0.659
 3710TIP3    H211088   0.613   1.837   0.557
 3711TIP3   OH211089   5.142   4.621   5.017
 3711TIP3    H111090   5.139   4.544   5.073
 3711TIP3    H211091   5.070   4.610   4.955
 3712TIP3   OH211092   2.675   4.338   4.094
 3712TIP3    H111093   2.734   4.397   4.141
 3712TIP3    H211094   2.692   4.357   4.001
 3713TIP3   OH211095   4.978   4.988   6.491
 3713TIP3    H111096   4.882   4.979   6.497
 3713TIP3    H211097   4.991   5.075   6.454
 3714TIP3   OH211098   4.369   7.609   2.305
 3714TIP3    H111099   4.392   7.647   2.220
 3714TIP3    H211100   4.392   7.676   2.369
 3715TIP3   OH211101   7.980   5.030   0.931
 3715TIP3    H111102   7.976   5.121   0.901
 3715TIP3    H211103   8.041   5.031   1.004
 3716TIP3   OH211104   8.038   2.085   5.785
 3716TIP3    H111105   7.948   2.084   5.816
 3716TIP3    H211106   8.033   2.060   5.693
 3717TIP3   OH211107   1.383   1.899   5.989
 3717TIP3    H111108   1.376   1.950   5.908
 3717TIP3    H211109   1.314   1.833   5.981
 3718TIP3   OH211110   7.628   0.856   0.912
 3718TIP3    H111111   7.557   0.917   0.895
 3718TIP3    H211112   7.672   0.891   0.989
 3719TIP3   OH211113   7.582   2.241   5.175
 3719TIP3    H111114   7.502   2.235   5.123
 3719TIP3    H211115   7.653   2.221   5.114
 3720TIP3   OH211116   1.567   7.173   0.730
 3720TIP3    H111117   1.548   7.080   0.718
 3720TIP3    H211118   1.498   7.217   0.680
 3721TIP3   OH211119   1.970   2.739   4.729
 3721TIP3    H111120   1.998   2.708   4.815
 3721TIP3    H211121   1.976   2.662   4.672
 3722TIP3   OH211122   5.794   3.609   4.084
 3722TIP3    H111123   5.776   3.621   4.178
 3722TIP3    H211124   5.885   3.638   4.074
 3723TIP3   OH211125   0.242   6.764   2.401
 3723TIP3    H111126   0.184   6.780   2.475
 3723TIP3    H211127   0.194   6.702   2.346
 3724TIP3   OH211128   7.711   1.603   6.686
 3724TIP3    H111129   7.618   1.607   6.710
 3724TIP3    H211130   7.729   1.510   6.673
 3725TIP3   OH211131   8.082   2.440   0.079
 3725TIP3    H111132   8.027   2.507   0.120
 3725TIP3    H211133   8.158   2.433   0.137
 3726TIP3   OH211134   0.221   4.322   6.248
 3726TIP3    H111135   0.180   4.321   6.162
 3726TIP3    H211136   0.315   4.316   6.230
 3727TIP3   OH211137   7.985   2.898   6.292
 3727TIP3    H111138   7.933   2.823   6.264
 3727TIP3    H211139   8.048   2.911   6.220
 3728TIP3   OH211140   2.756   3.982   2.962
 3728TIP3    H111141   2.739   4.002   3.054
 3728TIP3    H211142   2.779   4.066   2.922
 3729TIP3   OH211143   7.748   1.332   3.319
 3729TIP3    H111144   7.662   1.315   3.357
 3729TIP3    H211145   7.809   1.287   3.378
 3730TIP3   OH211146   7.658   6.050   3.352
 3730TIP3    H111147   7.592   6.030   3.419
 3730TIP3    H211148   7.723   6.103   3.397
 3731TIP3   OH211149   6.513   7.726   4.646
 3731TIP3    H111150   6.493   7.663   4.716
 3731TIP3    H211151   6.573   7.678   4.588
 3732TIP3   OH211152   2.768   4.136   3.815
 3732TIP3    H111153   2.715   4.122   3.737
 3732TIP3    H211154   2.759   4.230   3.833
 3733TIP3   OH211155   3.264   4.729   5.305
 3733TIP3    H111156   3.296   4.777   5.229
 3733TIP3    H211157   3.328   4.659   5.317
 3734TIP3   OH211158   3.850   7.335   4.598
 3734TIP3    H111159   3.882   7.424   4.612
 3734TIP3    H211160   3.927   7.279   4.608
 3735TIP3   OH211161   5.882   6.453   3.610
 3735TIP3    H111162   5.882   6.358   3.623
 3735TIP3    H211163   5.947   6.468   3.541
 3736TIP3   OH211164   1.362   5.422   5.591
 3736TIP3    H111165   1.404   5.495   5.545
 3736TIP3    H211166   1.406   5.419   5.676
 3737TIP3   OH211167   0.604   5.254   5.881
 3737TIP3    H111168   0.637   5.274   5.793
 3737TIP3    H211169   0.660   5.182   5.911
 3738TIP3   OH211170   8.228   6.820   4.515
 3738TIP3    H111171   8.273   6.771   4.584
 3738TIP3    H211172   8.280   6.802   4.436
 3739TIP3   OH211173   5.270   0.273   3.079
 3739TIP3    H111174   5.207   0.208   3.109
 3739TIP3    H211175   5.275   0.336   3.151
 3740TIP3   OH211176   7.094   1.488   3.506
 3740TIP3    H111177   7.020   1.462   3.452
 3740TIP3    H211178   7.119   1.407   3.552
 3741TIP3   OH211179   3.978   5.393   4.552
 3741TIP3    H111180   4.002   5.463   4.612
 3741TIP3    H211181   3.884   5.405   4.538
 3742TIP3   OH211182   1.083   0.782   1.044
 3742TIP3    H111183   1.068   0.872   1.073
 3742TIP3    H211184   1.113   0.791   0.954
 3743TIP3   OH211185   2.512   0.654   0.196
 3743TIP3    H111186   2.591   0.692   0.236
 3743TIP3    H211187   2.541   0.569   0.163
 3744TIP3   OH211188   0.270   2.546   2.200
 3744TIP3    H111189   0.276   2.577   2.110
 3744TIP3    H211190   0.179   2.516   2.210
 3745TIP3   OH211191   5.363   6.450   1.099
 3745TIP3    H111192   5.363   6.394   1.022
 3745TIP3    H211193   5.447   6.496   1.095
 3746TIP3   OH211194   3.782   4.815   3.174
 3746TIP3    H111195   3.788   4.736   3.227
 3746TIP3    H211196   3.728   4.875   3.225
 3747TIP3   OH211197   1.948   2.998   4.196
 3747TIP3    H111198   1.999   3.077   4.214
 3747TIP3    H211199   1.998   2.927   4.236
 3748TIP3   OH211200   7.359   3.751   6.388
 3748TIP3    H111201   7.362   3.655   6.394
 3748TIP3    H211202   7.271   3.774   6.416
 3749TIP3   OH211203   0.589   3.110   0.639
 3749TIP3    H111204   0.575   3.044   0.571
 3749TIP3    H211205   0.645   3.067   0.703
 3750TIP3   OH211206   8.181   7.175   0.231
 3750TIP3    H111207   8.202   7.127   0.311
 3750TIP3    H211208   8.221   7.261   0.243
 3751TIP3   OH211209   8.052   2.873   1.719
 3751TIP3    H111210   8.024   2.820   1.793
 3751TIP3    H211211   8.100   2.946   1.758
 3752TIP3   OH211212   5.488   5.573   2.962
 3752TIP3    H111213   5.443   5.656   2.946
 3752TIP3    H211214   5.472   5.522   2.882
 3753TIP3   OH211215   5.959   7.179   0.888
 3753TIP3    H111216   5.922   7.139   0.967
 3753TIP3    H211217   5.940   7.273   0.898
 3754TIP3   OH211218   0.632   4.326   2.663
 3754TIP3    H111219   0.686   4.403   2.682
 3754TIP3    H211220   0.670   4.290   2.582
 3755TIP3   OH211221   2.187   7.500   2.489
 3755TIP3    H111222   2.108   7.476   2.440
 3755TIP3    H211223   2.196   7.594   2.474
 3756TIP3   OH211224   2.106   4.640   1.329
 3756TIP3    H111225   2.027   4.588   1.312
 3756TIP3    H211226   2.149   4.647   1.244
 3757TIP3   OH211227   7.353   3.002   6.359
 3757TIP3    H111228   7.384   2.912   6.371
 3757TIP3    H211229   7.386   3.049   6.436
 3758TIP3   OH211230   0.400   4.913   1.283
 3758TIP3    H111231   0.470   4.938   1.223
 3758TIP3    H211232   0.437   4.929   1.370
 3759TIP3   OH211233   0.414   6.359   6.416
 3759TIP3    H111234   0.458   6.365   6.332
 3759TIP3    H211235   0.342   6.422   6.411
 3760TIP3   OH211236   7.998   5.969   4.174
 3760TIP3    H111237   8.064   5.946   4.239
 3760TIP3    H211238   8.032   6.048   4.131
 3761TIP3   OH211239   4.793   2.628   1.839
 3761TIP3    H111240   4.699   2.634   1.860
 3761TIP3    H211241   4.796   2.630   1.744
 3762TIP3   OH211242   0.402   1.094   4.744
 3762TIP3    H111243   0.315   1.130   4.755
 3762TIP3    H211244   0.451   1.123   4.821
 3763TIP3   OH211245   8.199   2.974   6.121
 3763TIP3    H111246   8.284   2.995   6.159
 3763TIP3    H211247   8.172   3.054   6.075
 3764TIP3   OH211248   6.945   1.537   1.649
 3764TIP3    H111249   6.979   1.566   1.564
 3764TIP3    H211250   6.919   1.618   1.693
 3765TIP3   OH211251   3.206   7.038   3.799
 3765TIP3    H111252   3.287   6.991   3.819
 3765TIP3    H211253   3.155   7.033   3.880
 3766TIP3   OH211254   7.393   2.679   2.781
 3766TIP3    H111255   7.396   2.745   2.712
 3766TIP3    H211256   7.308   2.693   2.824
 3767TIP3   OH211257   7.766   0.878   3.996
 3767TIP3    H111258   7.753   0.893   4.090
 3767TIP3    H211259   7.786   0.965   3.961
 3768TIP3   OH211260   4.589   0.495   0.205
 3768TIP3    H111261   4.503   0.535   0.220
 3768TIP3    H211262   4.637   0.509   0.287
 3769TIP3   OH211263   7.622   0.532   5.018
 3769TIP3    H111264   7.658   0.564   4.935
 3769TIP3    H211265   7.533   0.567   5.021
 3770TIP3   OH211266   2.078   2.025   4.153
 3770TIP3    H111267   2.079   1.950   4.212
 3770TIP3    H211268   2.168   2.055   4.150
 3771TIP3   OH211269   6.494   0.520   3.218
 3771TIP3    H111270   6.471   0.581   3.289
 3771TIP3    H211271   6.559   0.461   3.258
 3772TIP3   OH211272   1.721   0.979   5.018
 3772TIP3    H111273   1.751   1.070   5.016
 3772TIP3    H211274   1.651   0.978   5.084
 3773TIP3   OH211275   0.888   5.019   4.761
 3773TIP3    H111276   0.935   5.054   4.685
 3773TIP3    H211277   0.948   4.955   4.799
 3774TIP3   OH211278   0.826   6.310   4.580
 3774TIP3    H111279   0.917   6.327   4.606
 3774TIP3    H211280   0.834   6.253   4.503
 3775TIP3   OH211281   0.404   4.454   1.635
 3775TIP3    H111282   0.329   4.511   1.651
 3775TIP3    H211283   0.477   4.514   1.622
 3776TIP3   OH211284   1.270   7.621   6.303
 3776TIP3    H111285   1.316   7.540   6.324
 3776TIP3    H211286   1.303   7.684   6.367
 3777TIP3   OH211287   6.100   6.184   0.820
 3777TIP3    H111288   6.011   6.195   0.787
 3777TIP3    H211289   6.127   6.097   0.788
 3778TIP3   OH211290   5.499   7.621   0.883
 3778TIP3    H111291   5.574   7.619   0.823
 3778TIP3    H211292   5.510   7.542   0.937
 3779TIP3   OH211293   4.543   7.451   1.589
 3779TIP3    H111294   4.470   7.394   1.613
 3779TIP3    H211295   4.529   7.470   1.496
 3780TIP3   OH211296   3.106   4.817   0.925
 3780TIP3    H111297   3.108   4.872   1.003
 3780TIP3    H211298   3.099   4.728   0.958
 3781TIP3   OH211299   0.941   3.983   2.357
 3781TIP3    H111300   0.973   3.947   2.440
 3781TIP3    H211301   1.001   3.950   2.291
 3782TIP3   OH211302   5.135   0.525   4.220
 3782TIP3    H111303   5.158   0.590   4.285
 3782TIP3    H211304   5.144   0.570   4.136
 3783TIP3   OH211305   3.122   5.906   1.001
 3783TIP3    H111306   3.210   5.943   1.007
 3783TIP3    H211307   3.121   5.858   0.918
 3784TIP3   OH211308   6.940   1.933   5.960
 3784TIP3    H111309   6.925   1.977   6.044
 3784TIP3    H211310   6.889   1.983   5.897
 3785TIP3   OH211311   5.929   3.588   0.003
 3785TIP3    H111312   5.857   3.651   0.005
 3785TIP3    H211313   5.905   3.522   0.068
 3786TIP3   OH211314   3.412   5.296   0.196
 3786TIP3    H111315   3.420   5.201   0.194
 3786TIP3    H211316   3.488   5.327   0.147
 3787TIP3   OH211317   1.865   3.110   6.606
 3787TIP3    H111318   1.882   3.019   6.580
 3787TIP3    H211319   1.780   3.131   6.568
 3788TIP3   OH211320   7.558   3.732   6.029
 3788TIP3    H111321   7.516   3.653   6.063
 3788TIP3    H211322   7.495   3.768   5.966
 3789TIP3   OH211323   1.245   4.810   3.419
 3789TIP3    H111324   1.299   4.853   3.353
 3789TIP3    H211325   1.192   4.747   3.370
 3790TIP3   OH211326   8.226   5.992   5.548
 3790TIP3    H111327   8.238   6.057   5.479
 3790TIP3    H211328   8.289   5.923   5.527
 3791TIP3   OH211329   7.277   0.877   2.629
 3791TIP3    H111330   7.297   0.949   2.569
 3791TIP3    H211331   7.186   0.855   2.610
 3792TIP3   OH211332   1.461   6.837   2.501
 3792TIP3    H111333   1.525   6.803   2.564
 3792TIP3    H211334   1.408   6.761   2.477
 3793TIP3   OH211335   2.004   5.575   4.918
 3793TIP3    H111336   1.968   5.624   4.844
 3793TIP3    H211337   2.074   5.631   4.951
 3794TIP3   OH211338   3.142   4.149   4.343
 3794TIP3    H111339   3.153   4.244   4.340
 3794TIP3    H211340   3.134   4.123   4.251
 3795TIP3   OH211341   5.416   1.478   2.807
 3795TIP3    H111342   5.382   1.431   2.731
 3795TIP3    H211343   5.511   1.468   2.801
 3796TIP3   OH211344   2.046   7.040   0.258
 3796TIP3    H111345   2.105   7.108   0.226
 3796TIP3    H211346   2.039   7.057   0.352
 3797TIP3   OH211347   6.874   5.049   0.896
 3797TIP3    H111348   6.825   5.015   0.972
 3797TIP3    H211349   6.861   4.983   0.828
 3798TIP3   OH211350   6.217   5.687   1.172
 3798TIP3    H111351   6.217   5.661   1.080
 3798TIP3    H211352   6.265   5.769   1.174
 3799TIP3   OH211353   4.776   3.608   0.163
 3799TIP3    H111354   4.737   3.537   0.216
 3799TIP3    H211355   4.725   3.686   0.187
 3800TIP3   OH211356   4.768   7.657   3.641
 3800TIP3    H111357   4.741   7.567   3.657
 3800TIP3    H211358   4.749   7.703   3.723
 3801TIP3   OH211359   7.951   6.385   0.230
 3801TIP3    H111360   7.988   6.430   0.154
 3801TIP3    H211361   7.994   6.299   0.230
 3802TIP3   OH211362   2.909   4.857   3.116
 3802TIP3    H111363   2.816   4.833   3.114
 3802TIP3    H211364   2.955   4.773   3.113
 3803TIP3   OH211365   6.043   3.325   5.409
 3803TIP3    H111366   6.119   3.346   5.355
 3803TIP3    H211367   6.005   3.247   5.369
 3804TIP3   OH211368   6.366   3.838   1.697
 3804TIP3    H111369   6.272   3.842   1.713
 3804TIP3    H211370   6.388   3.745   1.706
 3805TIP3   OH211371   6.168   5.441   1.474
 3805TIP3    H111372   6.087   5.478   1.507
 3805TIP3    H211373   6.145   5.407   1.387
 3806TIP3   OH211374   7.332   6.682   0.955
 3806TIP3    H111375   7.372   6.729   0.882
 3806TIP3    H211376   7.240   6.708   0.953
 3807TIP3   OH211377   2.466   3.521   4.611
 3807TIP3    H111378   2.474   3.497   4.703
 3807TIP3    H211379   2.407   3.597   4.612
 3808TIP3   OH211380   3.440   7.393   1.005
 3808TIP3    H111381   3.468   7.440   1.083
 3808TIP3    H211382   3.374   7.331   1.036
 3809TIP3   OH211383   7.407   5.600   5.340
 3809TIP3    H111384   7.333   5.654   5.370
 3809TIP3    H211385   7.384   5.511   5.365
 3810TIP3   OH211386   2.214   1.499   2.477
 3810TIP3    H111387   2.120   1.484   2.466
 3810TIP3    H211388   2.227   1.591   2.454
 3811TIP3   OH211389   5.444   3.944   6.469
 3811TIP3    H111390   5.369   3.886   6.485
 3811TIP3    H211391   5.506   3.923   6.539
 3812TIP3   OH211392   6.526   6.763   3.480
 3812TIP3    H111393   6.591   6.693   3.486
 3812TIP3    H211394   6.446   6.720   3.454
 3813TIP3   OH211395   2.719   6.539   5.308
 3813TIP3    H111396   2.750   6.519   5.396
 3813TIP3    H211397   2.783   6.498   5.250
 3814TIP3   OH211398   6.314   7.027   2.464
 3814TIP3    H111399   6.325   7.116   2.431
 3814TIP3    H211400   6.219   7.014   2.466
 3815TIP3   OH211401   2.505   3.551   3.629
 3815TIP3    H111402   2.575   3.616   3.640
 3815TIP3    H211403   2.522   3.512   3.544
 3816TIP3   OH211404   0.387   2.863   2.272
 3816TIP3    H111405   0.461   2.849   2.213
 3816TIP3    H211406   0.398   2.798   2.341
 3817TIP3   OH211407   4.474   0.351   0.636
 3817TIP3    H111408   4.473   0.447   0.631
 3817TIP3    H211409   4.563   0.327   0.613
 3818TIP3   OH211410   7.356   2.534   5.943
 3818TIP3    H111411   7.437   2.495   5.910
 3818TIP3    H211412   7.301   2.458   5.964
 3819TIP3   OH211413   2.282   3.011   3.385
 3819TIP3    H111414   2.255   2.991   3.295
 3819TIP3    H211415   2.225   2.956   3.439
 3820TIP3   OH211416   0.391   5.898   1.494
 3820TIP3    H111417   0.357   5.873   1.580
 3820TIP3    H211418   0.360   5.988   1.481
 3821TIP3   OH211419   1.424   6.293   1.646
 3821TIP3    H111420   1.412   6.229   1.717
 3821TIP3    H211421   1.358   6.268   1.581
 3822TIP3   OH211422   7.302   0.391   0.567
 3822TIP3    H111423   7.209   0.407   0.582
 3822TIP3    H211424   7.307   0.368   0.474
 3823TIP3   OH211425   4.791   4.200   1.691
 3823TIP3    H111426   4.721   4.266   1.691
 3823TIP3    H211427   4.752   4.125   1.645
 3824TIP3   OH211428   6.278   1.428   3.609
 3824TIP3    H111429   6.219   1.377   3.666
 3824TIP3    H211430   6.363   1.385   3.619
 3825TIP3   OH211431   0.386   3.285   1.613
 3825TIP3    H111432   0.361   3.377   1.612
 3825TIP3    H211433   0.304   3.237   1.607
 3826TIP3   OH211434   2.404   3.975   2.924
 3826TIP3    H111435   2.320   3.978   2.969
 3826TIP3    H211436   2.382   3.950   2.834
 3827TIP3   OH211437   2.389   7.371   3.133
 3827TIP3    H111438   2.399   7.363   3.228
 3827TIP3    H211439   2.296   7.391   3.121
 3828TIP3   OH211440   6.262   5.470   6.697
 3828TIP3    H111441   6.267   5.389   6.646
 3828TIP3    H211442   6.327   5.528   6.656
 3829TIP3   OH211443   6.855   3.755   6.211
 3829TIP3    H111444   6.864   3.802   6.127
 3829TIP3    H211445   6.821   3.669   6.186
 3830TIP3   OH211446   2.131   5.590   5.618
 3830TIP3    H111447   2.077   5.646   5.562
 3830TIP3    H211448   2.189   5.544   5.557
 3831TIP3   OH211449   2.244   2.546   2.784
 3831TIP3    H111450   2.286   2.573   2.866
 3831TIP3    H211451   2.178   2.612   2.768
 3832TIP3   OH211452   0.215   2.087   5.958
 3832TIP3    H111453   0.152   2.040   6.012
 3832TIP3    H211454   0.211   2.044   5.873
 3833TIP3   OH211455   5.195   5.266   1.366
 3833TIP3    H111456   5.147   5.350   1.366
 3833TIP3    H211457   5.246   5.267   1.285
 3834TIP3   OH211458   2.307   2.920   5.521
 3834TIP3    H111459   2.223   2.965   5.513
 3834TIP3    H211460   2.372   2.991   5.525
 3835TIP3   OH211461   0.422   0.621   4.544
 3835TIP3    H111462   0.390   0.687   4.483
 3835TIP3    H211463   0.514   0.611   4.522
 3836TIP3   OH211464   7.864   6.644   3.152
 3836TIP3    H111465   7.917   6.568   3.130
 3836TIP3    H211466   7.922   6.700   3.205
 3837TIP3   OH211467   6.665   6.384   5.083
 3837TIP3    H111468   6.638   6.475   5.072
 3837TIP3    H211469   6.668   6.371   5.177
 3838TIP3   OH211470   7.967   7.337   3.422
 3838TIP3    H111471   7.910   7.409   3.448
 3838TIP3    H211472   8.048   7.351   3.472
 3839TIP3   OH211473   5.464   3.509   1.861
 3839TIP3    H111474   5.546   3.514   1.812
 3839TIP3    H211475   5.396   3.536   1.799
 3840TIP3   OH211476   2.128   6.792   2.662
 3840TIP3    H111477   2.176   6.718   2.699
 3840TIP3    H211478   2.036   6.772   2.678
 3841TIP3   OH211479   0.504   6.260   4.706
 3841TIP3    H111480   0.503   6.231   4.797
 3841TIP3    H211481   0.560   6.196   4.661
 3842TIP3   OH211482   3.283   6.067   4.902
 3842TIP3    H111483   3.193   6.100   4.892
 3842TIP3    H211484   3.314   6.054   4.813
 3843TIP3   OH211485   5.748   0.654   2.798
 3843TIP3    H111486   5.710   0.721   2.742
 3843TIP3    H211487   5.681   0.638   2.865
 3844TIP3   OH211488   2.248   1.489   1.623
 3844TIP3    H111489   2.162   1.447   1.630
 3844TIP3    H211490   2.232   1.579   1.652
 3845TIP3   OH211491   5.681   5.470   0.493
 3845TIP3    H111492   5.697   5.521   0.414
 3845TIP3    H211493   5.605   5.511   0.534
 3846TIP3   OH211494   6.131   4.229   5.991
 3846TIP3    H111495   6.065   4.298   5.987
 3846TIP3    H211496   6.116   4.187   6.076
 3847TIP3   OH211497   6.026   6.630   1.883
 3847TIP3    H111498   5.986   6.660   1.801
 3847TIP3    H211499   6.114   6.602   1.856
 3848TIP3   OH211500   1.171   1.027   1.465
 3848TIP3    H111501   1.121   1.105   1.440
 3848TIP3    H211502   1.109   0.973   1.514
 3849TIP3   OH211503   2.801   0.701   6.504
 3849TIP3    H111504   2.864   0.685   6.574
 3849TIP3    H211505   2.847   0.760   6.444
 3850TIP3   OH211506   5.392   2.067   5.331
 3850TIP3    H111507   5.410   2.075   5.425
 3850TIP3    H211508   5.329   2.138   5.313
 3851TIP3   OH211509   7.919   5.014   5.790
 3851TIP3    H111510   7.968   4.967   5.858
 3851TIP3    H211511   7.913   5.103   5.822
 3852TIP3   OH211512   4.296   5.124   3.372
 3852TIP3    H111513   4.322   5.064   3.441
 3852TIP3    H211514   4.345   5.204   3.389
 3853TIP3   OH211515   5.819   0.855   1.097
 3853TIP3    H111516   5.802   0.912   1.022
 3853TIP3    H211517   5.842   0.770   1.059
 3854TIP3   OH211518   2.321   1.572   3.380
 3854TIP3    H111519   2.379   1.518   3.434
 3854TIP3    H211520   2.325   1.659   3.420
 3855TIP3   OH211521   2.401   2.496   4.397
 3855TIP3    H111522   2.491   2.480   4.424
 3855TIP3    H211523   2.356   2.522   4.477
 3856TIP3   OH211524   5.719   4.036   3.484
 3856TIP3    H111525   5.787   4.008   3.423
 3856TIP3    H211526   5.703   3.958   3.538
 3857TIP3   OH211527   6.227   7.253   2.132
 3857TIP3    H111528   6.285   7.179   2.148
 3857TIP3    H211529   6.268   7.301   2.060
 3858TIP3   OH211530   4.801   6.054   3.457
 3858TIP3    H111531   4.736   6.124   3.462
 3858TIP3    H211532   4.808   6.036   3.363
 3859TIP3   OH211533   4.466   4.224   1.412
 3859TIP3    H111534   4.485   4.317   1.405
 3859TIP3    H211535   4.550   4.181   1.392
 3860TIP3   OH211536   5.983   0.660   2.287
 3860TIP3    H111537   6.010   0.584   2.339
 3860TIP3    H211538   6.062   0.689   2.242
 3861TIP3   OH211539   7.183   3.998   5.318
 3861TIP3    H111540   7.235   3.999   5.399
 3861TIP3    H211541   7.104   3.949   5.341
 3862TIP3   OH211542   6.818   5.482   2.892
 3862TIP3    H111543   6.737   5.452   2.933
 3862TIP3    H211544   6.801   5.572   2.866
 3863TIP3   OH211545   7.469   4.170   2.762
 3863TIP3    H111546   7.463   4.076   2.745
 3863TIP3    H211547   7.528   4.203   2.694
 3864TIP3   OH211548   2.719   3.930   4.410
 3864TIP3    H111549   2.785   3.871   4.374
 3864TIP3    H211550   2.637   3.903   4.368
 3865TIP3   OH211551   4.792   1.516   0.786
 3865TIP3    H111552   4.792   1.449   0.717
 3865TIP3    H211553   4.881   1.512   0.823
 3866TIP3   OH211554   1.234   2.788   6.682
 3866TIP3    H111555   1.246   2.813   6.590
 3866TIP3    H211556   1.214   2.695   6.679
 3867TIP3   OH211557   4.457   6.628   2.024
 3867TIP3    H111558   4.519   6.688   1.983
 3867TIP3    H211559   4.467   6.644   2.118
 3868TIP3   OH211560   0.111   1.697   2.047
 3868TIP3    H111561   0.144   1.641   1.977
 3868TIP3    H211562   0.189   1.721   2.097
 3869TIP3   OH211563   5.850   3.174   1.570
 3869TIP3    H111564   5.859   3.079   1.576
 3869TIP3    H211565   5.880   3.207   1.655
 3870TIP3   OH211566   7.558   1.192   2.920
 3870TIP3    H111567   7.504   1.229   2.989
 3870TIP3    H211568   7.574   1.266   2.860
 3871TIP3   OH211569   3.353   1.869   2.219
 3871TIP3    H111570   3.442   1.904   2.223
 3871TIP3    H211571   3.310   1.918   2.149
 3872TIP3   OH211572   0.769   6.528   2.124
 3872TIP3    H111573   0.839   6.587   2.153
 3872TIP3    H211574   0.736   6.568   2.044
 3873TIP3   OH211575   7.300   4.086   5.106
 3873TIP3    H111576   7.358   4.023   5.064
 3873TIP3    H211577   7.280   4.046   5.191
 3874TIP3   OH211578   3.044   6.667   0.917
 3874TIP3    H111579   3.023   6.585   0.962
 3874TIP3    H211580   2.965   6.686   0.866
 3875TIP3   OH211581   0.809   3.839   5.208
 3875TIP3    H111582   0.794   3.858   5.116
 3875TIP3    H211583   0.820   3.925   5.249
 3876TIP3   OH211584   7.819   3.845   0.599
 3876TIP3    H111585   7.770   3.907   0.653
 3876TIP3    H211586   7.904   3.837   0.643
 3877TIP3   OH211587   3.424   5.009   1.825
 3877TIP3    H111588   3.426   5.093   1.780
 3877TIP3    H211589   3.380   4.949   1.764
 3878TIP3   OH211590   3.455   0.182   3.777
 3878TIP3    H111591   3.365   0.215   3.776
 3878TIP3    H211592   3.457   0.116   3.709
 3879TIP3   OH211593   3.645   6.852   6.542
 3879TIP3    H111594   3.645   6.798   6.463
 3879TIP3    H211595   3.640   6.942   6.509
 3880TIP3   OH211596   8.057   3.933   3.303
 3880TIP3    H111597   8.049   3.913   3.397
 3880TIP3    H211598   7.978   3.897   3.264
 3881TIP3   OH211599   6.966   2.013   3.294
 3881TIP3    H111600   6.977   1.918   3.291
 3881TIP3    H211601   6.900   2.028   3.362
 3882TIP3   OH211602   8.073   6.768   2.708
 3882TIP3    H111603   8.098   6.775   2.800
 3882TIP3    H211604   8.124   6.836   2.664
 3883TIP3   OH211605   7.728   5.000   2.107
 3883TIP3    H111606   7.699   5.086   2.137
 3883TIP3    H211607   7.697   4.939   2.174
 3884TIP3   OH211608   5.093   3.914   2.045
 3884TIP3    H111609   5.048   3.973   1.984
 3884TIP3    H211610   5.045   3.832   2.039
 3885TIP3   OH211611   5.531   1.762   5.435
 3885TIP3    H111612   5.611   1.742   5.387
 3885TIP3    H211613   5.507   1.850   5.406
 3886TIP3   OH211614   0.570   1.616   5.549
 3886TIP3    H111615   0.608   1.536   5.586
 3886TIP3    H211616   0.578   1.605   5.454
 3887TIP3   OH211617   3.014   0.771   6.338
 3887TIP3    H111618   2.957   0.825   6.282
 3887TIP3    H211619   3.091   0.755   6.285
 3888TIP3   OH211620   6.676   2.354   5.616
 3888TIP3    H111621   6.587   2.372   5.648
 3888TIP3    H211622   6.719   2.439   5.616
 3889TIP3   OH211623   0.829   1.506   1.175
 3889TIP3    H111624   0.777   1.512   1.094
 3889TIP3    H211625   0.915   1.474   1.146
 3890TIP3   OH211626   0.802   6.990   2.790
 3890TIP3    H111627   0.769   7.076   2.817
 3890TIP3    H211628   0.732   6.929   2.813
 3891TIP3   OH211629   1.714   7.658   4.282
 3891TIP3    H111630   1.782   7.725   4.293
 3891TIP3    H211631   1.674   7.678   4.198
 3892TIP3   OH211632   2.849   3.591   3.709
 3892TIP3    H111633   2.928   3.645   3.702
 3892TIP3    H211634   2.857   3.528   3.637
 3893TIP3   OH211635   7.681   0.166   1.308
 3893TIP3    H111636   7.737   0.126   1.242
 3893TIP3    H211637   7.592   0.141   1.283
 3894TIP3   OH211638   1.394   7.262   3.755
 3894TIP3    H111639   1.300   7.272   3.741
 3894TIP3    H211640   1.424   7.349   3.782
 3895TIP3   OH211641   8.196   3.663   2.241
 3895TIP3    H111642   8.236   3.601   2.180
 3895TIP3    H211643   8.207   3.748   2.199
 3896TIP3   OH211644   7.857   7.030   3.473
 3896TIP3    H111645   7.869   7.124   3.485
 3896TIP3    H211646   7.822   6.999   3.556
 3897TIP3   OH211647   1.875   3.089   6.118
 3897TIP3    H111648   1.810   3.144   6.075
 3897TIP3    H211649   1.937   3.065   6.049
 3898TIP3   OH211650   5.400   5.471   3.591
 3898TIP3    H111651   5.321   5.514   3.557
 3898TIP3    H211652   5.390   5.477   3.686
 3899TIP3   OH211653   8.322   3.988   3.806
 3899TIP3    H111654   8.392   4.024   3.860
 3899TIP3    H211655   8.242   4.009   3.854
 3900TIP3   OH211656   5.963   0.905   2.975
 3900TIP3    H111657   5.895   0.912   3.042
 3900TIP3    H211658   6.001   0.818   2.989
 3901TIP3   OH211659   3.633   5.398   0.051
 3901TIP3    H111660   3.660   5.483   0.084
 3901TIP3    H211661   3.574   5.417  -0.022
 3902TIP3   OH211662   7.900   1.167   1.039
 3902TIP3    H111663   7.904   1.159   0.944
 3902TIP3    H211664   7.975   1.115   1.070
 3903TIP3   OH211665   7.144   2.535   4.760
 3903TIP3    H111666   7.061   2.577   4.781
 3903TIP3    H211667   7.152   2.542   4.665
 3904TIP3   OH211668   8.183   2.758   1.074
 3904TIP3    H111669   8.177   2.825   1.142
 3904TIP3    H211670   8.207   2.678   1.121
 3905TIP3   OH211671   0.127   0.223   5.866
 3905TIP3    H111672   0.166   0.293   5.813
 3905TIP3    H211673   0.202   0.173   5.898
 3906TIP3   OH211674   0.782   7.060   0.324
 3906TIP3    H111675   0.734   6.978   0.312
 3906TIP3    H211676   0.789   7.070   0.419
 3907TIP3   OH211677   5.559   5.977   0.649
 3907TIP3    H111678   5.585   6.069   0.644
 3907TIP3    H211679   5.637   5.928   0.622
 3908TIP3   OH211680   3.871   3.779   1.232
 3908TIP3    H111681   3.890   3.689   1.206
 3908TIP3    H211682   3.800   3.771   1.296
 3909TIP3   OH211683   4.295   5.206   5.732
 3909TIP3    H111684   4.336   5.291   5.748
 3909TIP3    H211685   4.353   5.144   5.776
 3910TIP3   OH211686   1.208   0.826   4.908
 3910TIP3    H111687   1.187   0.732   4.913
 3910TIP3    H211688   1.256   0.835   4.826
 3911TIP3   OH211689   5.296   3.770   3.961
 3911TIP3    H111690   5.241   3.825   3.906
 3911TIP3    H211691   5.361   3.830   3.998
 3912TIP3   OH211692   5.262   0.718   0.854
 3912TIP3    H111693   5.250   0.763   0.938
 3912TIP3    H211694   5.205   0.765   0.793
 3913TIP3   OH211695   6.173   5.875   2.373
 3913TIP3    H111696   6.261   5.843   2.395
 3913TIP3    H211697   6.188   5.940   2.305
 3914TIP3   OH211698   7.877   2.684   6.129
 3914TIP3    H111699   7.794   2.642   6.104
 3914TIP3    H211700   7.943   2.615   6.119
 3915TIP3   OH211701   1.398   2.376   3.579
 3915TIP3    H111702   1.371   2.456   3.623
 3915TIP3    H211703   1.425   2.317   3.650
 3916TIP3   OH211704   5.223   6.528   5.038
 3916TIP3    H111705   5.199   6.436   5.053
 3916TIP3    H211706   5.318   6.526   5.025
 3917TIP3   OH211707   6.093   6.062   6.037
 3917TIP3    H111708   6.019   6.061   6.098
 3917TIP3    H211709   6.089   6.149   5.997
 3918TIP3   OH211710   0.811   0.582   2.954
 3918TIP3    H111711   0.884   0.643   2.939
 3918TIP3    H211712   0.737   0.623   2.910
 3919TIP3   OH211713   2.927   3.116   2.901
 3919TIP3    H111714   2.888   3.029   2.903
 3919TIP3    H211715   2.852   3.176   2.907
 3920TIP3   OH211716   7.304   3.768   1.063
 3920TIP3    H111717   7.226   3.755   1.009
 3920TIP3    H211718   7.374   3.784   0.999
 3921TIP3   OH211719   3.053   3.277   5.384
 3921TIP3    H111720   3.106   3.250   5.309
 3921TIP3    H211721   3.069   3.209   5.450
 3922TIP3   OH211722   7.795   0.411   4.298
 3922TIP3    H111723   7.809   0.504   4.313
 3922TIP3    H211724   7.807   0.400   4.204
 3923TIP3   OH211725   4.194   4.805   2.192
 3923TIP3    H111726   4.115   4.755   2.213
 3923TIP3    H211727   4.261   4.770   2.252
 3924TIP3   OH211728   7.919   6.624   5.840
 3924TIP3    H111729   7.827   6.601   5.827
 3924TIP3    H211730   7.941   6.587   5.925
 3925TIP3   OH211731   2.827   4.819   1.007
 3925TIP3    H111732   2.748   4.824   0.953
 3925TIP3    H211733   2.899   4.828   0.944
 3926TIP3   OH211734   4.046   0.035   5.267
 3926TIP3    H111735   4.032  -0.046   5.217
 3926TIP3    H211736   4.087   0.005   5.349
 3927TIP3   OH211737   2.718   2.178   5.689
 3927TIP3    H111738   2.637   2.191   5.639
 3927TIP3    H211739   2.722   2.252   5.749
 3928TIP3   OH211740   5.263   2.296   5.291
 3928TIP3    H111741   5.346   2.300   5.340
 3928TIP3    H211742   5.201   2.343   5.346
 3929TIP3   OH211743   1.158   0.080   5.736
 3929TIP3    H111744   1.097   0.034   5.678
 3929TIP3    H211745   1.242   0.078   5.689
 3930TIP3   OH211746   3.016   3.720   3.202
 3930TIP3    H111747   2.922   3.742   3.199
 3930TIP3    H211748   3.027   3.675   3.285
 3931TIP3   OH211749   5.122   5.638   1.171
 3931TIP3    H111750   5.155   5.564   1.120
 3931TIP3    H211751   5.129   5.713   1.111
 3932TIP3   OH211752   5.258   5.220   2.701
 3932TIP3    H111753   5.192   5.235   2.769
 3932TIP3    H211754   5.276   5.126   2.705
 3933TIP3   OH211755   1.020   3.550   3.920
 3933TIP3    H111756   1.077   3.476   3.898
 3933TIP3    H211757   0.940   3.509   3.954
 3934TIP3   OH211758   6.776   7.316   6.042
 3934TIP3    H111759   6.870   7.299   6.046
 3934TIP3    H211760   6.737   7.232   6.018
 3935TIP3   OH211761   7.394   3.096   5.758
 3935TIP3    H111762   7.331   3.058   5.697
 3935TIP3    H211763   7.364   3.185   5.771
 3936TIP3   OH211764   1.449   7.206   5.710
 3936TIP3    H111765   1.444   7.112   5.725
 3936TIP3    H211766   1.380   7.243   5.766
 3937TIP3   OH211767   4.503   7.589   6.537
 3937TIP3    H111768   4.454   7.507   6.538
 3937TIP3    H211769   4.586   7.568   6.579
 3938TIP3   OH211770   1.869   1.990   2.614
 3938TIP3    H111771   1.946   2.035   2.646
 3938TIP3    H211772   1.816   2.058   2.573
 3939TIP3   OH211773   4.954   7.676   5.410
 3939TIP3    H111774   4.942   7.694   5.317
 3939TIP3    H211775   5.006   7.749   5.442
 3940TIP3   OH211776   4.009   3.983   1.086
 3940TIP3    H111777   3.946   3.917   1.115
 3940TIP3    H211778   4.054   3.942   1.012
 3941TIP3   OH211779   5.796   7.034   0.429
 3941TIP3    H111780   5.840   6.963   0.382
 3941TIP3    H211781   5.864   7.099   0.444
 3942TIP3   OH211782   4.880   3.822   5.482
 3942TIP3    H111783   4.844   3.756   5.542
 3942TIP3    H211784   4.931   3.880   5.539
 3943TIP3   OH211785   6.555   2.507   2.525
 3943TIP3    H111786   6.628   2.547   2.477
 3943TIP3    H211787   6.556   2.415   2.499
 3944TIP3   OH211788   3.750   4.042   6.153
 3944TIP3    H111789   3.831   4.056   6.202
 3944TIP3    H211790   3.762   4.093   6.073
 3945TIP3   OH211791   1.691   0.468   5.661
 3945TIP3    H111792   1.663   0.422   5.581
 3945TIP3    H211793   1.615   0.521   5.685
 3946TIP3   OH211794   2.847   5.336   3.040
 3946TIP3    H111795   2.903   5.411   3.058
 3946TIP3    H211796   2.907   5.265   3.017
 3947TIP3   OH211797   5.872   0.170   0.047
 3947TIP3    H111798   5.902   0.115   0.120
 3947TIP3    H211799   5.781   0.189   0.068
 3948TIP3   OH211800   2.323   4.285   1.567
 3948TIP3    H111801   2.369   4.281   1.651
 3948TIP3    H211802   2.250   4.345   1.584
 3949TIP3   OH211803   3.452   4.518   3.946
 3949TIP3    H111804   3.502   4.547   3.869
 3949TIP3    H211805   3.393   4.451   3.912
 3950TIP3   OH211806   2.912   7.204   6.508
 3950TIP3    H111807   2.832   7.156   6.486
 3950TIP3    H211808   2.892   7.295   6.487
 3951TIP3   OH211809   4.250   4.800   6.425
 3951TIP3    H111810   4.183   4.803   6.492
 3951TIP3    H211811   4.275   4.707   6.420
 3952TIP3   OH211812   5.091   3.623   6.533
 3952TIP3    H111813   5.066   3.623   6.625
 3952TIP3    H211814   5.026   3.678   6.490
 3953TIP3   OH211815   8.241   0.152   6.792
 3953TIP3    H111816   8.187   0.221   6.831
 3953TIP3    H211817   8.223   0.157   6.698
 3954TIP3   OH211818   4.779   3.938   6.329
 3954TIP3    H111819   4.776   3.999   6.403
 3954TIP3    H211820   4.816   3.858   6.366
 3955TIP3   OH211821   5.213   2.007   2.558
 3955TIP3    H111822   5.164   1.925   2.559
 3955TIP3    H211823   5.300   1.983   2.589
 3956TIP3   OH211824   2.584   1.158   3.950
 3956TIP3    H111825   2.501   1.141   3.995
 3956TIP3    H211826   2.644   1.093   3.986
 3957TIP3   OH211827   4.553   7.409   0.409
 3957TIP3    H111828   4.525   7.462   0.333
 3957TIP3    H211829   4.553   7.471   0.482
 3958TIP3   OH211830   0.459   5.363   0.354
 3958TIP3    H111831   0.531   5.383   0.295
 3958TIP3    H211832   0.397   5.435   0.343
 3959TIP3   OH211833   8.379   4.672   6.566
 3959TIP3    H111834   8.441   4.608   6.600
 3959TIP3    H211835   8.394   4.751   6.618
 3960TIP3   OH211836   6.609   5.763   5.412
 3960TIP3    H111837   6.518   5.735   5.418
 3960TIP3    H211838   6.608   5.855   5.438
 3961TIP3   OH211839   0.479   4.378   4.078
 3961TIP3    H111840   0.436   4.463   4.082
 3961TIP3    H211841   0.514   4.373   3.989
 3962TIP3   OH211842   7.120   6.797   2.071
 3962TIP3    H111843   7.207   6.763   2.049
 3962TIP3    H211844   7.137   6.888   2.097
 3963TIP3   OH211845   2.061   6.837   0.588
 3963TIP3    H111846   2.055   6.742   0.587
 3963TIP3    H211847   1.970   6.867   0.595
 3964TIP3   OH211848   7.732   6.080   5.343
 3964TIP3    H111849   7.764   6.048   5.427
 3964TIP3    H211850   7.642   6.046   5.337
 3965TIP3   OH211851   5.969   7.659   6.265
 3965TIP3    H111852   5.954   7.719   6.338
 3965TIP3    H211853   5.927   7.702   6.190
 3966TIP3   OH211854   5.815   6.993   4.555
 3966TIP3    H111855   5.780   7.071   4.510
 3966TIP3    H211856   5.756   6.981   4.629
 3967TIP3   OH211857   6.534   3.631   4.393
 3967TIP3    H111858   6.623   3.600   4.378
 3967TIP3    H211859   6.494   3.633   4.307
 3968TIP3   OH211860   1.812   1.250   3.164
 3968TIP3    H111861   1.820   1.280   3.073
 3968TIP3    H211862   1.825   1.330   3.216
 3969TIP3   OH211863   7.754   4.800   3.614
 3969TIP3    H111864   7.745   4.866   3.682
 3969TIP3    H211865   7.844   4.811   3.582
 3970TIP3   OH211866   3.764   4.170   5.039
 3970TIP3    H111867   3.686   4.210   5.076
 3970TIP3    H211868   3.731   4.110   4.972
 3971TIP3   OH211869   4.020   1.185   2.288
 3971TIP3    H111870   4.023   1.266   2.338
 3971TIP3    H211871   4.096   1.189   2.231
 3972TIP3   OH211872   2.274   0.452   5.223
 3972TIP3    H111873   2.259   0.543   5.197
 3972TIP3    H211874   2.205   0.434   5.287
 3973TIP3   OH211875   0.738   1.845   4.316
 3973TIP3    H111876   0.689   1.850   4.234
 3973TIP3    H211877   0.765   1.754   4.323
 3974TIP3   OH211878   7.151   7.499   5.799
 3974TIP3    H111879   7.203   7.569   5.760
 3974TIP3    H211880   7.128   7.531   5.886
 3975TIP3   OH211881   5.396   7.582   3.832
 3975TIP3    H111882   5.426   7.673   3.822
 3975TIP3    H211883   5.373   7.574   3.924
 3976TIP3   OH211884   4.150   4.638   4.923
 3976TIP3    H111885   4.172   4.725   4.956
 3976TIP3    H211886   4.162   4.580   4.998
 3977TIP3   OH211887   7.919   3.044   0.091
 3977TIP3    H111888   7.947   2.953   0.074
 3977TIP3    H211889   7.983   3.098   0.046
 3978TIP3   OH211890   4.015   2.219   2.178
 3978TIP3    H111891   4.076   2.270   2.231
 3978TIP3    H211892   4.026   2.129   2.208
 3979TIP3   OH211893   6.564   0.802   1.680
 3979TIP3    H111894   6.563   0.887   1.724
 3979TIP3    H211895   6.595   0.822   1.591
 3980TIP3   OH211896   2.819   2.717   1.272
 3980TIP3    H111897   2.790   2.641   1.321
 3980TIP3    H211898   2.846   2.682   1.187
 3981TIP3   OH211899   1.272   3.438   1.837
 3981TIP3    H111900   1.283   3.487   1.919
 3981TIP3    H211901   1.256   3.348   1.865
 3982TIP3   OH211902   3.070   1.183   3.134
 3982TIP3    H111903   3.158   1.205   3.102
 3982TIP3    H211904   3.036   1.121   3.069
 3983TIP3   OH211905   5.266   3.187   0.521
 3983TIP3    H111906   5.205   3.202   0.594
 3983TIP3    H211907   5.305   3.102   0.540
 3984TIP3   OH211908   5.101   3.309   5.000
 3984TIP3    H111909   5.088   3.394   4.956
 3984TIP3    H211910   5.179   3.272   4.957
 3985TIP3   OH211911   0.189   1.484   0.098
 3985TIP3    H111912   0.131   1.475   0.022
 3985TIP3    H211913   0.230   1.398   0.107
 3986TIP3   OH211914   4.391   6.382   0.463
 3986TIP3    H111915   4.317   6.371   0.404
 3986TIP3    H211916   4.350   6.401   0.548
 3987TIP3   OH211917   5.050   1.390   4.220
 3987TIP3    H111918   5.100   1.368   4.299
 3987TIP3    H211919   5.094   1.341   4.151
 3988TIP3   OH211920   5.820   2.769   3.490
 3988TIP3    H111921   5.740   2.731   3.454
 3988TIP3    H211922   5.788   2.831   3.556
 3989TIP3   OH211923   6.457   6.553   2.396
 3989TIP3    H111924   6.532   6.553   2.336
 3989TIP3    H211925   6.453   6.463   2.429
 3990TIP3   OH211926   6.370   0.281   0.663
 3990TIP3    H111927   6.441   0.248   0.719
 3990TIP3    H211928   6.370   0.224   0.587
 3991TIP3   OH211929   7.425   6.139   5.227
 3991TIP3    H111930   7.409   6.216   5.282
 3991TIP3    H211931   7.366   6.072   5.261
 3992TIP3   OH211932   5.655   4.930   4.753
 3992TIP3    H111933   5.671   4.877   4.831
 3992TIP3    H211934   5.742   4.957   4.723
 3993TIP3   OH211935   0.107   5.035   0.812
 3993TIP3    H111936   0.112   5.061   0.904
 3993TIP3    H211937   0.023   4.989   0.805
 3994TIP3   OH211938   3.945   2.229   1.112
 3994TIP3    H111939   4.027   2.276   1.096
 3994TIP3    H211940   3.877   2.287   1.078
 3995TIP3   OH211941   2.455   7.756   3.478
 3995TIP3    H111942   2.424   7.844   3.499
 3995TIP3    H211943   2.514   7.769   3.404
 3996TIP3   OH211944   1.945   2.326   3.374
 3996TIP3    H111945   1.879   2.376   3.422
 3996TIP3    H211946   1.897   2.283   3.304
 3997TIP3   OH211947   5.859   5.053   6.167
 3997TIP3    H111948   5.775   5.081   6.203
 3997TIP3    H211949   5.906   5.015   6.241
 3998TIP3   OH211950   4.494   1.546   6.214
 3998TIP3    H111951   4.431   1.489   6.170
 3998TIP3    H211952   4.542   1.488   6.274
 3999TIP3   OH211953   1.645   4.857   5.609
 3999TIP3    H111954   1.578   4.796   5.580
 3999TIP3    H211955   1.715   4.800   5.642
 4000TIP3   OH211956   5.977   3.418   6.523
 4000TIP3    H111957   6.008   3.434   6.434
 4000TIP3    H211958   6.057   3.402   6.574
 4001TIP3   OH211959   3.968   4.208   1.235
 4001TIP3    H111960   4.005   4.270   1.172
 4001TIP3    H211961   3.978   4.122   1.193
 4002TIP3   OH211962   5.189   3.110   5.290
 4002TIP3    H111963   5.254   3.173   5.257
 4002TIP3    H211964   5.106   3.157   5.285
 4003TIP3   OH211965   3.730   7.826   0.762
 4003TIP3    H111966   3.718   7.751   0.821
 4003TIP3    H211967   3.703   7.793   0.676
 4004TIP3   OH211968   5.976   3.741   5.554
 4004TIP3    H111969   5.945   3.728   5.465
 4004TIP3    H211970   5.993   3.652   5.586
 4005TIP3   OH211971   3.510   1.413   2.134
 4005TIP3    H111972   3.448   1.478   2.167
 4005TIP3    H211973   3.596   1.448   2.157
 4006TIP3   OH211974   2.888   4.746   2.226
 4006TIP3    H111975   2.979   4.777   2.233
 4006TIP3    H211976   2.855   4.787   2.146
 4007TIP3   OH211977   7.935   0.488   1.530
 4007TIP3    H111978   8.008   0.445   1.486
 4007TIP3    H211979   7.973   0.525   1.610
 4008TIP3   OH211980   8.285   6.448   3.756
 4008TIP3    H111981   8.190   6.454   3.764
 4008TIP3    H211982   8.304   6.479   3.668
 4009TIP3   OH211983   3.795   7.196   5.634
 4009TIP3    H111984   3.723   7.233   5.583
 4009TIP3    H211985   3.762   7.195   5.724
 4010TIP3   OH211986   3.865   2.648   0.264
 4010TIP3    H111987   3.932   2.639   0.331
 4010TIP3    H211988   3.812   2.722   0.293
 4011TIP3   OH211989   2.448   5.389   1.030
 4011TIP3    H111990   2.513   5.327   0.997
 4011TIP3    H211991   2.441   5.455   0.962
 4012TIP3   OH211992   4.315   2.916   5.209
 4012TIP3    H111993   4.220   2.925   5.213
 4012TIP3    H211994   4.334   2.844   5.269
 4013TIP3   OH211995   2.620   2.102   6.067
 4013TIP3    H111996   2.653   2.063   5.986
 4013TIP3    H211997   2.590   2.028   6.119
 4014TIP3   OH211998   3.916   5.677   4.346
 4014TIP3    H111999   3.969   5.627   4.284
 4014TIP3    H212000   3.950   5.653   4.432
 4015TIP3   OH212001   7.199   1.281   3.614
 4015TIP3    H112002   7.265   1.305   3.679
 4015TIP3    H212003   7.221   1.191   3.590
 4016TIP3   OH212004   2.988   7.556   6.727
 4016TIP3    H112005   3.079   7.557   6.699
 4016TIP3    H212006   2.941   7.511   6.656
 4017TIP3   OH212007   5.051   2.725   0.527
 4017TIP3    H112008   5.088   2.726   0.615
 4017TIP3    H212009   4.960   2.699   0.540
 4018TIP3   OH212010   5.707   5.458   6.058
 4018TIP3    H112011   5.672   5.521   5.995
 4018TIP3    H212012   5.790   5.430   6.020
 4019TIP3   OH212013   3.867   2.824   0.824
 4019TIP3    H112014   3.898   2.816   0.734
 4019TIP3    H212015   3.945   2.810   0.878
 4020TIP3   OH212016   3.159   1.194   3.519
 4020TIP3    H112017   3.132   1.206   3.611
 4020TIP3    H212018   3.149   1.100   3.503
 4021TIP3   OH212019   4.189   5.638   0.356
 4021TIP3    H112020   4.261   5.613   0.414
 4021TIP3    H212021   4.212   5.599   0.271
 4022TIP3   OH212022   3.448   7.112   5.281
 4022TIP3    H112023   3.427   7.041   5.220
 4022TIP3    H212024   3.379   7.177   5.266
 4023TIP3   OH212025   3.933   2.370   1.420
 4023TIP3    H112026   4.006   2.421   1.455
 4023TIP3    H212027   3.914   2.304   1.487
 4024TIP3   OH212028   6.741   3.576   3.394
 4024TIP3    H112029   6.788   3.592   3.312
 4024TIP3    H212030   6.759   3.654   3.447
 4025TIP3   OH212031   2.616   7.771   3.245
 4025TIP3    H112032   2.643   7.690   3.200
 4025TIP3    H212033   2.694   7.800   3.292
 4026TIP3   OH212034   1.231   3.950   5.666
 4026TIP3    H112035   1.252   3.924   5.755
 4026TIP3    H212036   1.272   4.036   5.656
 4027TIP3   OH212037   1.107   1.170   3.692
 4027TIP3    H112038   1.124   1.168   3.786
 4027TIP3    H212039   1.183   1.215   3.655
 4028TIP3   OH212040   8.002   1.705   2.500
 4028TIP3    H112041   8.031   1.745   2.418
 4028TIP3    H212042   8.070   1.726   2.564
 4029TIP3   OH212043   6.522   0.033   3.916
 4029TIP3    H112044   6.433   0.052   3.887
 4029TIP3    H212045   6.574   0.030   3.836
 4030TIP3   OH212046   0.170   7.798   3.431
 4030TIP3    H112047   0.230   7.850   3.485
 4030TIP3    H212048   0.170   7.711   3.472
 4031TIP3   OH212049   0.445   6.103   5.272
 4031TIP3    H112050   0.425   6.185   5.226
 4031TIP3    H212051   0.527   6.074   5.233
 4032TIP3   OH212052   2.331   6.525   0.743
 4032TIP3    H112053   2.331   6.506   0.836
 4032TIP3    H212054   2.337   6.620   0.738
 4033TIP3   OH212055   2.803   4.347   5.686
 4033TIP3    H112056   2.791   4.381   5.597
 4033TIP3    H212057   2.772   4.257   5.681
 4034TIP3   OH212058   6.599   4.663   2.498
 4034TIP3    H112059   6.507   4.646   2.518
 4034TIP3    H212060   6.646   4.591   2.540
 4035TIP3   OH212061   4.860   6.368   1.874
 4035TIP3    H112062   4.807   6.392   1.797
 4035TIP3    H212063   4.936   6.425   1.869
 4036TIP3   OH212064   5.962   5.227   1.422
 4036TIP3    H112065   6.046   5.202   1.461
 4036TIP3    H212066   5.939   5.309   1.465
 4037TIP3   OH212067   1.667   7.350   2.422
 4037TIP3    H112068   1.642   7.260   2.443
 4037TIP3    H212069   1.716   7.379   2.499
 4038TIP3   OH212070   6.103   3.354   3.463
 4038TIP3    H112071   6.086   3.421   3.396
 4038TIP3    H212072   6.019   3.309   3.473
 4039TIP3   OH212073   6.893   6.453   1.695
 4039TIP3    H112074   6.859   6.531   1.738
 4039TIP3    H212075   6.848   6.380   1.738
 4040TIP3   OH212076   5.344   3.887   4.452
 4040TIP3    H112077   5.363   3.911   4.543
 4040TIP3    H212078   5.299   3.803   4.459
 4041TIP3   OH212079   3.060   2.045   6.597
 4041TIP3    H112080   3.020   1.964   6.568
 4041TIP3    H212081   3.002   2.077   6.666
 4042TIP3   OH212082   7.243   0.097   4.792
 4042TIP3    H112083   7.232   0.129   4.882
 4042TIP3    H212084   7.202   0.011   4.792
 4043TIP3   OH212085   4.242   2.459   0.695
 4043TIP3    H112086   4.282   2.538   0.732
 4043TIP3    H212087   4.316   2.401   0.678
 4044TIP3   OH212088   0.700   3.559   1.104
 4044TIP3    H112089   0.731   3.648   1.082
 4044TIP3    H212090   0.620   3.573   1.153
 4045TIP3   OH212091   1.669   3.568   0.274
 4045TIP3    H112092   1.762   3.577   0.291
 4045TIP3    H212093   1.663   3.526   0.189
 4046TIP3   OH212094   2.954   0.789   4.387
 4046TIP3    H112095   2.903   0.814   4.464
 4046TIP3    H212096   3.016   0.861   4.376
 4047TIP3   OH212097   4.569   6.685   5.509
 4047TIP3    H112098   4.474   6.685   5.497
 4047TIP3    H212099   4.589   6.595   5.535
 4048TIP3   OH212100   0.096   0.853   4.007
 4048TIP3    H112101   0.045   0.775   3.985
 4048TIP3    H212102   0.139   0.832   4.089
 4049TIP3   OH212103   4.968   1.558   5.801
 4049TIP3    H112104   4.888   1.550   5.750
 4049TIP3    H212105   5.031   1.500   5.758
 4050TIP3   OH212106   0.708   6.651   3.522
 4050TIP3    H112107   0.745   6.657   3.610
 4050TIP3    H212108   0.784   6.654   3.463
 4051TIP3   OH212109   1.186   1.204   2.294
 4051TIP3    H112110   1.200   1.298   2.309
 4051TIP3    H212111   1.264   1.162   2.329
 4052TIP3   OH212112   3.513   2.261   5.944
 4052TIP3    H112113   3.581   2.213   5.897
 4052TIP3    H212114   3.539   2.257   6.036
 4053TIP3   OH212115   2.651   3.503   6.618
 4053TIP3    H112116   2.743   3.529   6.627
 4053TIP3    H212117   2.617   3.502   6.708
 4054TIP3   OH212118   6.808   4.004   0.791
 4054TIP3    H112119   6.725   3.959   0.778
 4054TIP3    H212120   6.829   3.991   0.884
 4055TIP3   OH212121   5.938   2.711   5.996
 4055TIP3    H112122   5.967   2.656   6.068
 4055TIP3    H212123   5.882   2.654   5.944
 4056TIP3   OH212124   3.150   5.488   2.835
 4056TIP3    H112125   3.213   5.494   2.907
 4056TIP3    H212126   3.075   5.443   2.873
 4057TIP3   OH212127   6.057   2.082   3.736
 4057TIP3    H112128   6.130   2.108   3.792
 4057TIP3    H212129   6.021   2.005   3.778
 4058TIP3   OH212130   0.533   2.841   5.822
 4058TIP3    H112131   0.470   2.779   5.786
 4058TIP3    H212132   0.618   2.797   5.812
 4059TIP3   OH212133   1.130   4.510   5.444
 4059TIP3    H112134   1.210   4.519   5.497
 4059TIP3    H212135   1.086   4.433   5.480
 4060TIP3   OH212136   0.328   7.429   3.915
 4060TIP3    H112137   0.406   7.376   3.899
 4060TIP3    H212138   0.355   7.491   3.982
 4061TIP3   OH212139   4.918   5.245   6.639
 4061TIP3    H112140   4.914   5.339   6.655
 4061TIP3    H212141   4.942   5.237   6.547
 4062TIP3   OH212142   5.308   5.086   5.167
 4062TIP3    H112143   5.329   5.070   5.075
 4062TIP3    H212144   5.247   5.015   5.190
 4063TIP3   OH212145   0.597   2.122   2.849
 4063TIP3    H112146   0.520   2.162   2.889
 4063TIP3    H212147   0.641   2.077   2.922
 4064TIP3   OH212148   2.972   7.292   4.105
 4064TIP3    H112149   2.910   7.345   4.053
 4064TIP3    H212150   2.993   7.347   4.180
 4065TIP3   OH212151   6.785   1.270   4.117
 4065TIP3    H112152   6.785   1.329   4.193
 4065TIP3    H212153   6.706   1.217   4.128
 4066TIP3   OH212154   3.358   5.439   2.456
 4066TIP3    H112155   3.298   5.457   2.384
 4066TIP3    H212156   3.440   5.413   2.413
 4067TIP3   OH212157   4.856   5.591   1.195
 4067TIP3    H112158   4.950   5.592   1.211
 4067TIP3    H212159   4.843   5.516   1.137
 4068TIP3   OH212160   4.871   5.088   0.135
 4068TIP3    H112161   4.798   5.114   0.191
 4068TIP3    H212162   4.927   5.165   0.131
 4069TIP3   OH212163   3.265   5.279   4.405
 4069TIP3    H112164   3.213   5.353   4.373
 4069TIP3    H212165   3.354   5.297   4.373
 4070TIP3   OH212166   1.983   0.607   6.645
 4070TIP3    H112167   1.902   0.620   6.597
 4070TIP3    H212168   2.019   0.525   6.610
 4071TIP3   OH212169   3.693   3.997   0.588
 4071TIP3    H112170   3.762   4.021   0.650
 4071TIP3    H212171   3.678   3.903   0.604
 4072TIP3   OH212172   5.443   0.991   1.765
 4072TIP3    H112173   5.532   1.018   1.786
 4072TIP3    H212174   5.452   0.902   1.731
 4073TIP3   OH212175   5.362   5.539   6.299
 4073TIP3    H112176   5.397   5.592   6.371
 4073TIP3    H212177   5.392   5.584   6.220
 4074TIP3   OH212178   5.762   1.297   3.205
 4074TIP3    H112179   5.773   1.243   3.282
 4074TIP3    H212180   5.837   1.276   3.149
 4075TIP3   OH212181   7.624   4.988   1.217
 4075TIP3    H112182   7.597   5.021   1.132
 4075TIP3    H212183   7.550   4.936   1.247
 4076TIP3   OH212184   7.905   7.205   3.203
 4076TIP3    H112185   7.927   7.233   3.291
 4076TIP3    H212186   7.864   7.281   3.163
 4077TIP3   OH212187   4.489   3.739   6.477
 4077TIP3    H112188   4.415   3.705   6.427
 4077TIP3    H212189   4.565   3.721   6.422
 4078TIP3   OH212190   4.008   1.232   0.211
 4078TIP3    H112191   3.913   1.239   0.201
 4078TIP3    H212192   4.036   1.318   0.242
 4079TIP3   OH212193   7.231   1.018   1.972
 4079TIP3    H112194   7.155   1.075   1.982
 4079TIP3    H212195   7.244   1.011   1.878
 4080TIP3   OH212196   4.598   4.518   5.528
 4080TIP3    H112197   4.591   4.597   5.582
 4080TIP3    H212198   4.528   4.527   5.463
 4081TIP3   OH212199   6.732   6.516   4.693
 4081TIP3    H112200   6.671   6.494   4.622
 4081TIP3    H212201   6.803   6.452   4.684
 4082TIP3   OH212202   5.068   5.335   0.601
 4082TIP3    H112203   4.984   5.289   0.610
 4082TIP3    H212204   5.105   5.334   0.689
 4083TIP3   OH212205   5.045   7.348   0.861
 4083TIP3    H112206   5.015   7.410   0.928
 4083TIP3    H212207   5.093   7.402   0.798
 4084TIP3   OH212208   0.697   1.927   5.494
 4084TIP3    H112209   0.740   1.871   5.430
 4084TIP3    H212210   0.711   1.883   5.578
 4085TIP3   OH212211   1.969   1.580   3.877
 4085TIP3    H112212   1.972   1.610   3.786
 4085TIP3    H212213   1.989   1.486   3.872
 4086TIP3   OH212214   5.961   0.577   5.472
 4086TIP3    H112215   6.048   0.569   5.511
 4086TIP3    H212216   5.902   0.540   5.537
 4087TIP3   OH212217   3.512   4.059   4.312
 4087TIP3    H112218   3.574   4.023   4.249
 4087TIP3    H212219   3.427   4.021   4.287
 4088TIP3   OH212220   8.042   6.965   1.489
 4088TIP3    H112221   8.106   7.018   1.440
 4088TIP3    H212222   8.022   6.892   1.430
 4089TIP3   OH212223   3.378   6.474   1.126
 4089TIP3    H112224   3.424   6.390   1.123
 4089TIP3    H212225   3.412   6.523   1.051
 4090TIP3   OH212226   7.279   0.793   5.557
 4090TIP3    H112227   7.260   0.848   5.633
 4090TIP3    H212228   7.249   0.706   5.582
 4091TIP3   OH212229   2.531   1.916   5.851
 4091TIP3    H112230   2.625   1.911   5.832
 4091TIP3    H212231   2.502   1.824   5.854
 4092TIP3   OH212232   7.675   6.827   0.160
 4092TIP3    H112233   7.635   6.878   0.090
 4092TIP3    H212234   7.657   6.736   0.137
 4093TIP3   OH212235   5.930   4.659   0.700
 4093TIP3    H112236   5.898   4.583   0.749
 4093TIP3    H212237   6.023   4.640   0.685
 4094TIP3   OH212238   2.706   5.091   2.592
 4094TIP3    H112239   2.781   5.064   2.539
 4094TIP3    H212240   2.630   5.057   2.545
 4095TIP3   OH212241   0.264   2.615   1.006
 4095TIP3    H112242   0.267   2.667   0.926
 4095TIP3    H212243   0.243   2.679   1.075
 4096TIP3   OH212244   6.212   1.805   5.392
 4096TIP3    H112245   6.204   1.733   5.330
 4096TIP3    H212246   6.275   1.773   5.457
 4097TIP3   OH212247   4.487   3.345   1.073
 4097TIP3    H112248   4.522   3.277   1.014
 4097TIP3    H212249   4.514   3.317   1.160
 4098TIP3   OH212250   2.298   4.186   1.990
 4098TIP3    H112251   2.305   4.114   1.927
 4098TIP3    H212252   2.354   4.255   1.955
 4099TIP3   OH212253   4.813   5.430   2.843
 4099TIP3    H112254   4.809   5.335   2.855
 4099TIP3    H212255   4.878   5.460   2.906
 4100TIP3   OH212256   1.149   3.331   4.468
 4100TIP3    H112257   1.081   3.266   4.451
 4100TIP3    H212258   1.141   3.352   4.561
 4101TIP3   OH212259   1.426   0.882   1.809
 4101TIP3    H112260   1.504   0.896   1.863
 4101TIP3    H212261   1.353   0.902   1.868
 4102TIP3   OH212262   4.129   4.961   3.928
 4102TIP3    H112263   4.116   4.936   3.837
 4102TIP3    H212264   4.157   5.053   3.923
 4103TIP3   OH212265   0.052   3.619   0.946
 4103TIP3    H112266   0.141   3.655   0.940
 4103TIP3    H212267   0.055   3.542   0.889
 4104TIP3   OH212268   4.119   5.461   1.581
 4104TIP3    H112269   4.214   5.467   1.566
 4104TIP3    H212270   4.086   5.410   1.507
 4105TIP3   OH212271   6.094   5.098   0.227
 4105TIP3    H112272   6.027   5.056   0.173
 4105TIP3    H212273   6.068   5.080   0.317
 4106TIP3   OH212274   1.145   4.949   0.263
 4106TIP3    H112275   1.138   4.964   0.357
 4106TIP3    H212276   1.078   4.884   0.244
 4107TIP3   OH212277   6.322   2.088   5.646
 4107TIP3    H112278   6.227   2.076   5.637
 4107TIP3    H212279   6.338   2.176   5.610
 4108TIP3   OH212280   4.133   5.535   1.871
 4108TIP3    H112281   4.221   5.516   1.904
 4108TIP3    H212282   4.108   5.617   1.914
 4109TIP3   OH212283   6.001   2.642   2.177
 4109TIP3    H112284   6.059   2.677   2.245
 4109TIP3    H212285   6.059   2.590   2.122
 4110TIP3   OH212286   6.808   5.808   0.515
 4110TIP3    H112287   6.817   5.900   0.490
 4110TIP3    H212288   6.723   5.804   0.560
 4111TIP3   OH212289   4.632   6.876   5.211
 4111TIP3    H112290   4.663   6.904   5.297
 4111TIP3    H212291   4.697   6.910   5.150
 4112TIP3   OH212292   2.141   4.670   6.438
 4112TIP3    H112293   2.189   4.587   6.437
 4112TIP3    H212294   2.049   4.645   6.430
 4113TIP3   OH212295   4.482   4.015   0.723
 4113TIP3    H112296   4.433   4.038   0.644
 4113TIP3    H212297   4.466   3.922   0.734
 4114TIP3   OH212298   1.544   7.588   1.680
 4114TIP3    H112299   1.450   7.600   1.693
 4114TIP3    H212300   1.571   7.529   1.750
 4115TIP3   OH212301   1.069   3.821   2.890
 4115TIP3    H112302   1.141   3.808   2.828
 4115TIP3    H212303   1.104   3.789   2.973
 4116TIP3   OH212304   5.443   0.569   6.613
 4116TIP3    H112305   5.499   0.526   6.548
 4116TIP3    H212306   5.379   0.617   6.560
 4117TIP3   OH212307   0.753   1.902   2.050
 4117TIP3    H112308   0.741   1.807   2.039
 4117TIP3    H212309   0.734   1.917   2.143
 4118TIP3   OH212310   0.281   1.723   5.547
 4118TIP3    H112311   0.208   1.686   5.597
 4118TIP3    H212312   0.359   1.691   5.591
 4119TIP3   OH212313   7.855   4.867   1.330
 4119TIP3    H112314   7.871   4.945   1.382
 4119TIP3    H212315   7.784   4.892   1.270
 4120TIP3   OH212316   4.158   3.981   2.996
 4120TIP3    H112317   4.117   3.917   3.055
 4120TIP3    H212318   4.144   3.945   2.909
 4121TIP3   OH212319   0.450   0.861   6.308
 4121TIP3    H112320   0.486   0.949   6.314
 4121TIP3    H212321   0.513   0.813   6.254
 4122TIP3   OH212322   6.491   3.631   1.952
 4122TIP3    H112323   6.541   3.630   1.870
 4122TIP3    H212324   6.554   3.606   2.019
 4123TIP3   OH212325   0.889   1.680   3.072
 4123TIP3    H112326   0.898   1.590   3.043
 4123TIP3    H212327   0.976   1.702   3.108
 4124TIP3   OH212328   3.920   2.239   4.187
 4124TIP3    H112329   3.850   2.175   4.200
 4124TIP3    H212330   3.957   2.251   4.275
 4125TIP3   OH212331   4.563   1.932   5.310
 4125TIP3    H112332   4.580   1.861   5.248
 4125TIP3    H212333   4.589   2.011   5.262
 4126TIP3   OH212334   1.912   3.409   1.929
 4126TIP3    H112335   1.819   3.401   1.949
 4126TIP3    H212336   1.955   3.411   2.014
 4127TIP3   OH212337   4.465   5.568   6.660
 4127TIP3    H112338   4.437   5.560   6.569
 4127TIP3    H212339   4.471   5.478   6.692
 4128TIP3   OH212340   4.968   5.978   0.829
 4128TIP3    H112341   4.942   6.010   0.915
 4128TIP3    H212342   4.886   5.946   0.790
 4129TIP3   OH212343   1.385   3.262   2.741
 4129TIP3    H112344   1.480   3.274   2.741
 4129TIP3    H212345   1.352   3.329   2.801
 4130TIP3   OH212346   4.294   1.047   4.220
 4130TIP3    H112347   4.338   1.125   4.186
 4130TIP3    H212348   4.361   1.001   4.271
 4131TIP3   OH212349   1.234   5.051   6.535
 4131TIP3    H112350   1.138   5.050   6.532
 4131TIP3    H212351   1.255   4.994   6.609
 4132TIP3   OH212352   4.461   2.565   2.155
 4132TIP3    H112353   4.435   2.572   2.247
 4132TIP3    H212354   4.384   2.594   2.106
 4133TIP3   OH212355   8.009   4.860   4.797
 4133TIP3    H112356   8.006   4.856   4.701
 4133TIP3    H212357   8.084   4.805   4.821
 4134TIP3   OH212358   1.820   0.937   0.120
 4134TIP3    H112359   1.750   0.904   0.176
 4134TIP3    H212360   1.866   0.859   0.090
 4135TIP3   OH212361   7.049   2.017   0.229
 4135TIP3    H112362   6.976   2.006   0.290
 4135TIP3    H212363   7.007   2.026   0.143
 4136TIP3   OH212364   3.711   2.884   0.230
 4136TIP3    H112365   3.702   2.975   0.203
 4136TIP3    H212366   3.693   2.833   0.151
 4137TIP3   OH212367   2.286   2.856   0.376
 4137TIP3    H112368   2.377   2.839   0.351
 4137TIP3    H212369   2.234   2.802   0.317
 4138TIP3   OH212370   7.623   0.357   2.322
 4138TIP3    H112371   7.654   0.386   2.237
 4138TIP3    H212372   7.637   0.262   2.322
 4139TIP3   OH212373   4.260   4.193   1.005
 4139TIP3    H112374   4.343   4.208   0.959
 4139TIP3    H212375   4.228   4.281   1.025
 4140TIP3   OH212376   5.991   6.876   0.835
 4140TIP3    H112377   5.964   6.965   0.860
 4140TIP3    H212378   6.017   6.884   0.743
 4141TIP3   OH212379   0.652   0.274   3.884
 4141TIP3    H112380   0.612   0.328   3.953
 4141TIP3    H212381   0.745   0.272   3.907
 4142TIP3   OH212382   7.929   7.744   6.103
 4142TIP3    H112383   8.014   7.766   6.142
 4142TIP3    H212384   7.947   7.667   6.049
 4143TIP3   OH212385   2.111   7.283   0.183
 4143TIP3    H112386   2.194   7.276   0.136
 4143TIP3    H212387   2.097   7.377   0.195
 4144TIP3   OH212388   0.156   2.102   3.669
 4144TIP3    H112389   0.062   2.102   3.682
 4144TIP3    H212390   0.192   2.106   3.758
 4145TIP3   OH212391   0.389   1.980   4.242
 4145TIP3    H112392   0.465   1.922   4.236
 4145TIP3    H212393   0.314   1.923   4.229
 4146TIP3   OH212394   8.285   2.977   0.928
 4146TIP3    H112395   8.242   2.910   0.980
 4146TIP3    H212396   8.224   2.994   0.855
 4147TIP3   OH212397   6.580   0.536   3.995
 4147TIP3    H112398   6.556   0.520   4.086
 4147TIP3    H212399   6.659   0.484   3.982
 4148TIP3   OH212400   2.787   5.831   5.896
 4148TIP3    H112401   2.726   5.904   5.896
 4148TIP3    H212402   2.829   5.834   5.982
 4149TIP3   OH212403   7.838   3.364   1.451
 4149TIP3    H112404   7.902   3.410   1.396
 4149TIP3    H212405   7.783   3.316   1.389
 4150TIP3   OH212406   6.617   1.884   5.679
 4150TIP3    H112407   6.688   1.879   5.743
 4150TIP3    H212408   6.578   1.797   5.680
 4151TIP3   OH212409   6.023   1.340   0.587
 4151TIP3    H112410   6.017   1.405   0.517
 4151TIP3    H212411   6.042   1.258   0.542
 4152TIP3   OH212412   0.088   7.297   4.429
 4152TIP3    H112413   0.093   7.377   4.377
 4152TIP3    H212414   0.001   7.261   4.408
 4153TIP3   OH212415   8.000   1.138   0.734
 4153TIP3    H112416   8.093   1.136   0.714
 4153TIP3    H212417   7.973   1.046   0.734
 4154TIP3   OH212418   5.223   6.342   3.041
 4154TIP3    H112419   5.165   6.288   3.095
 4154TIP3    H212420   5.310   6.304   3.055
 4155TIP3   OH212421   3.772   3.626   0.851
 4155TIP3    H112422   3.736   3.540   0.834
 4155TIP3    H212423   3.780   3.667   0.764
 4156TIP3   OH212424   1.787   2.947   3.707
 4156TIP3    H112425   1.853   2.909   3.650
 4156TIP3    H212426   1.829   2.954   3.793
 4157TIP3   OH212427   4.451   5.730   0.674
 4157TIP3    H112428   4.357   5.721   0.665
 4157TIP3    H212429   4.466   5.825   0.679
 4158TIP3   OH212430   1.025   0.962   1.810
 4158TIP3    H112431   0.999   0.885   1.861
 4158TIP3    H212432   1.103   0.996   1.855
 4159TIP3   OH212433   5.419   0.483   3.588
 4159TIP3    H112434   5.484   0.415   3.568
 4159TIP3    H212435   5.405   0.527   3.505
 4160TIP3   OH212436   3.355   7.632   6.185
 4160TIP3    H112437   3.435   7.684   6.192
 4160TIP3    H212438   3.361   7.591   6.099
 4161TIP3   OH212439   0.903   4.012   2.939
 4161TIP3    H112440   0.888   4.048   2.852
 4161TIP3    H212441   0.940   3.925   2.923
 4162TIP3   OH212442   2.071   4.189   5.274
 4162TIP3    H112443   1.979   4.216   5.268
 4162TIP3    H212444   2.104   4.234   5.352
 4163TIP3   OH212445   3.492   4.172   3.792
 4163TIP3    H112446   3.475   4.084   3.757
 4163TIP3    H212447   3.586   4.173   3.808
 4164TIP3   OH212448   0.185   3.422   4.807
 4164TIP3    H112449   0.168   3.514   4.830
 4164TIP3    H212450   0.198   3.378   4.891
 4165TIP3   OH212451   5.910   2.541   3.867
 4165TIP3    H112452   5.896   2.487   3.789
 4165TIP3    H212453   5.915   2.479   3.939
 4166TIP3   OH212454   2.669   5.448   1.582
 4166TIP3    H112455   2.752   5.486   1.610
 4166TIP3    H212456   2.603   5.488   1.639
 4167TIP3   OH212457   7.768   3.745   4.006
 4167TIP3    H112458   7.790   3.826   4.053
 4167TIP3    H212459   7.824   3.679   4.047
 4168TIP3   OH212460   5.989   2.871   0.566
 4168TIP3    H112461   6.081   2.867   0.541
 4168TIP3    H212462   5.989   2.882   0.661
 4169TIP3   OH212463   4.603   4.869   0.888
 4169TIP3    H112464   4.639   4.793   0.843
 4169TIP3    H212465   4.679   4.922   0.910
 4170TIP3   OH212466   0.599   0.010   6.538
 4170TIP3    H112467   0.557   0.043   6.459
 4170TIP3    H212468   0.647   0.084   6.573
 4171TIP3   OH212469   6.101   4.007   6.195
 4171TIP3    H112470   6.035   3.939   6.186
 4171TIP3    H212471   6.125   4.006   6.287
 4172TIP3   OH212472   4.456   7.160   3.055
 4172TIP3    H112473   4.447   7.215   3.132
 4172TIP3    H212474   4.546   7.127   3.058
 4173TIP3   OH212475   4.446   6.605   3.895
 4173TIP3    H112476   4.501   6.605   3.973
 4173TIP3    H212477   4.501   6.646   3.827
 4174TIP3   OH212478   2.459   3.866   5.260
 4174TIP3    H112479   2.397   3.865   5.333
 4174TIP3    H212480   2.440   3.948   5.214
 4175TIP3   OH212481   0.479   1.661   3.850
 4175TIP3    H112482   0.510   1.748   3.825
 4175TIP3    H212483   0.413   1.677   3.918
 4176TIP3   OH212484   5.518   6.344   0.438
 4176TIP3    H112485   5.593   6.396   0.411
 4176TIP3    H212486   5.443   6.386   0.395
 4177TIP3   OH212487   2.726   6.058   2.365
 4177TIP3    H112488   2.790   5.986   2.361
 4177TIP3    H212489   2.744   6.110   2.287
 4178TIP3   OH212490   7.843   1.909   2.255
 4178TIP3    H112491   7.907   1.906   2.327
 4178TIP3    H212492   7.884   1.966   2.190
 4179TIP3   OH212493   1.737   3.681   4.635
 4179TIP3    H112494   1.713   3.648   4.548
 4179TIP3    H212495   1.812   3.738   4.618
 4180TIP3   OH212496   4.763   7.150   5.538
 4180TIP3    H112497   4.747   7.059   5.562
 4180TIP3    H212498   4.695   7.199   5.585
 4181TIP3   OH212499   1.969   4.798   0.559
 4181TIP3    H112500   1.972   4.830   0.649
 4181TIP3    H212501   1.930   4.869   0.508
 4182TIP3   OH212502   6.978   3.734   0.109
 4182TIP3    H112503   7.070   3.732   0.135
 4182TIP3    H212504   6.956   3.642   0.092
 4183TIP3   OH212505   6.034   7.407   4.544
 4183TIP3    H112506   6.085   7.459   4.607
 4183TIP3    H212507   6.016   7.468   4.472
 4184TIP3   OH212508   6.041   0.265   5.828
 4184TIP3    H112509   5.959   0.278   5.874
 4184TIP3    H212510   6.017   0.220   5.747
 4185TIP3   OH212511   2.440   5.453   1.748
 4185TIP3    H112512   2.413   5.362   1.745
 4185TIP3    H212513   2.490   5.462   1.829
 4186TIP3   OH212514   4.140   7.340   2.624
 4186TIP3    H112515   4.047   7.361   2.615
 4186TIP3    H212516   4.169   7.320   2.535
 4187TIP3   OH212517   0.171   6.208   6.720
 4187TIP3    H112518   0.100   6.157   6.758
 4187TIP3    H212519   0.128   6.277   6.670
 4188TIP3   OH212520   2.157   0.750   0.876
 4188TIP3    H112521   2.166   0.845   0.886
 4188TIP3    H212522   2.121   0.738   0.788
 4189TIP3   OH212523   5.647   2.722   0.457
 4189TIP3    H112524   5.580   2.677   0.406
 4189TIP3    H212525   5.672   2.797   0.402
 4190TIP3   OH212526   6.717   3.736   1.465
 4190TIP3    H112527   6.701   3.820   1.422
 4190TIP3    H212528   6.731   3.758   1.557
 4191TIP3   OH212529   0.749   1.213   0.042
 4191TIP3    H112530   0.754   1.127   0.085
 4191TIP3    H212531   0.840   1.236   0.023
 4192TIP3   OH212532   3.531   4.230   1.272
 4192TIP3    H112533   3.507   4.148   1.229
 4192TIP3    H212534   3.570   4.283   1.202
 4193TIP3   OH212535   6.593   2.169   4.905
 4193TIP3    H112536   6.501   2.179   4.882
 4193TIP3    H212537   6.623   2.258   4.921
 4194TIP3   OH212538   5.232   4.222   2.574
 4194TIP3    H112539   5.216   4.273   2.494
 4194TIP3    H212540   5.321   4.187   2.562
 4195TIP3   OH212541   8.041   1.719   3.994
 4195TIP3    H112542   7.984   1.642   3.993
 4195TIP3    H212543   7.982   1.792   4.015
 4196TIP3   OH212544   4.010   3.229   1.945
 4196TIP3    H112545   3.941   3.230   1.879
 4196TIP3    H212546   3.965   3.243   2.028
 4197TIP3   OH212547   0.116   7.761   4.426
 4197TIP3    H112548   0.188   7.785   4.484
 4197TIP3    H212549   0.037   7.772   4.479
 4198TIP3   OH212550   1.483   4.505   6.468
 4198TIP3    H112551   1.388   4.499   6.466
 4198TIP3    H212552   1.513   4.414   6.481
 4199TIP3   OH212553   6.679   5.272   5.517
 4199TIP3    H112554   6.766   5.236   5.534
 4199TIP3    H212555   6.622   5.195   5.514
 4200TIP3   OH212556   8.201   4.816   6.320
 4200TIP3    H112557   8.147   4.887   6.354
 4200TIP3    H212558   8.250   4.785   6.397
 4201TIP3   OH212559   4.530   6.295   6.461
 4201TIP3    H112560   4.530   6.203   6.434
 4201TIP3    H212561   4.446   6.329   6.432
 4202TIP3   OH212562   3.286   7.308   6.722
 4202TIP3    H112563   3.216   7.296   6.786
 4202TIP3    H212564   3.351   7.241   6.745
 4203TIP3   OH212565   7.532   0.743   6.722
 4203TIP3    H112566   7.621   0.706   6.728
 4203TIP3    H212567   7.532   0.815   6.785
 4204TIP3   OH212568   6.206   0.645   6.615
 4204TIP3    H112569   6.204   0.570   6.674
 4204TIP3    H212570   6.208   0.721   6.673
 4205TIP3   OH212571   1.816   3.047   1.761
 4205TIP3    H112572   1.772   2.964   1.741
 4205TIP3    H212573   1.781   3.073   1.846
 4206TIP3   OH212574   6.634   5.304   5.809
 4206TIP3    H112575   6.640   5.258   5.725
 4206TIP3    H212576   6.632   5.397   5.785
 4207TIP3   OH212577   6.119   4.027   0.062
 4207TIP3    H112578   6.174   4.000   0.135
 4207TIP3    H212579   6.035   3.983   0.077
 4208TIP3   OH212580   1.030   0.664   3.918
 4208TIP3    H112581   0.948   0.682   3.963
 4208TIP3    H212582   1.022   0.709   3.834
 4209TIP3   OH212583   5.307   7.354   2.799
 4209TIP3    H112584   5.274   7.264   2.805
 4209TIP3    H212585   5.326   7.366   2.706
 4210TIP3   OH212586   4.186   2.040   3.054
 4210TIP3    H112587   4.158   1.975   2.989
 4210TIP3    H212588   4.246   1.993   3.111
 4211TIP3   OH212589   8.231   5.491   6.447
 4211TIP3    H112590   8.322   5.511   6.469
 4211TIP3    H212591   8.189   5.473   6.531
 4212TIP3   OH212592   3.327   3.368   1.981
 4212TIP3    H112593   3.352   3.308   2.051
 4212TIP3    H212594   3.236   3.391   2.000
 4213TIP3   OH212595   5.947   7.058   3.643
 4213TIP3    H112596   5.965   7.002   3.568
 4213TIP3    H212597   5.865   7.103   3.621
 4214TIP3   OH212598   5.486   5.254   6.109
 4214TIP3    H112599   5.537   5.335   6.116
 4214TIP3    H212600   5.514   5.202   6.184
 4215TIP3   OH212601   1.066   4.736   0.860
 4215TIP3    H112602   1.096   4.698   0.777
 4215TIP3    H212603   1.114   4.819   0.866
 4216TIP3   OH212604   7.878   1.056   6.368
 4216TIP3    H112605   7.896   1.119   6.298
 4216TIP3    H212606   7.853   0.976   6.322
 4217TIP3   OH212607   6.655   1.858   2.411
 4217TIP3    H112608   6.582   1.805   2.378
 4217TIP3    H212609   6.727   1.841   2.351
 4218TIP3   OH212610   7.062   3.081   4.579
 4218TIP3    H112611   7.148   3.041   4.592
 4218TIP3    H212612   7.081   3.171   4.555
 4219TIP3   OH212613   6.531   3.842   2.842
 4219TIP3    H112614   6.504   3.893   2.765
 4219TIP3    H212615   6.620   3.872   2.860
 4220TIP3   OH212616   3.106   7.292   1.722
 4220TIP3    H112617   3.174   7.359   1.710
 4220TIP3    H212618   3.150   7.224   1.774
 4221TIP3   OH212619   6.121   6.949   0.598
 4221TIP3    H112620   6.198   6.929   0.544
 4221TIP3    H212621   6.090   7.034   0.565
 4222TIP3   OH212622   7.147   6.241   2.032
 4222TIP3    H112623   7.175   6.152   2.051
 4222TIP3    H212624   7.151   6.287   2.116
 4223TIP3   OH212625   3.542   6.333   1.633
 4223TIP3    H112626   3.523   6.258   1.690
 4223TIP3    H212627   3.623   6.309   1.588
 4224TIP3   OH212628   7.215   7.670   4.561
 4224TIP3    H112629   7.186   7.757   4.587
 4224TIP3    H212630   7.144   7.612   4.589
 4225TIP3   OH212631   1.379   6.844   0.174
 4225TIP3    H112632   1.420   6.872   0.256
 4225TIP3    H212633   1.444   6.864   0.107
 4226TIP3   OH212634   2.093   6.527   5.162
 4226TIP3    H112635   2.111   6.590   5.232
 4226TIP3    H212636   2.071   6.581   5.086
 4227TIP3   OH212637   5.916   3.495   0.902
 4227TIP3    H112638   5.881   3.412   0.869
 4227TIP3    H212639   5.845   3.558   0.889
 4228TIP3   OH212640   6.333   6.367   6.585
 4228TIP3    H112641   6.320   6.275   6.562
 4228TIP3    H212642   6.313   6.415   6.505
 4229TIP3   OH212643   5.445   2.895   2.092
 4229TIP3    H112644   5.411   2.815   2.052
 4229TIP3    H212645   5.385   2.964   2.063
 4230TIP3   OH212646   8.111   1.608   3.379
 4230TIP3    H112647   8.170   1.664   3.329
 4230TIP3    H212648   8.070   1.552   3.313
 4231TIP3   OH212649   6.607   7.056   3.205
 4231TIP3    H112650   6.602   7.136   3.152
 4231TIP3    H212651   6.659   6.996   3.151
 4232TIP3   OH212652   7.428   5.615   4.368
 4232TIP3    H112653   7.502   5.665   4.401
 4232TIP3    H212654   7.467   5.539   4.325
 4233TIP3   OH212655   4.382   7.341   6.561
 4233TIP3    H112656   4.433   7.260   6.561
 4233TIP3    H212657   4.295   7.315   6.532
 4234TIP3   OH212658   7.383   6.285   3.754
 4234TIP3    H112659   7.475   6.259   3.759
 4234TIP3    H212660   7.342   6.243   3.830
 4235TIP3   OH212661   1.830   5.545   1.112
 4235TIP3    H112662   1.886   5.467   1.103
 4235TIP3    H212663   1.744   5.510   1.134
 4236TIP3   OH212664   6.490   6.168   2.283
 4236TIP3    H112665   6.556   6.104   2.308
 4236TIP3    H212666   6.467   6.213   2.364
 4237TIP3   OH212667   5.729   5.652  -0.004
 4237TIP3    H112668   5.699   5.584  -0.064
 4237TIP3    H212669   5.673   5.727  -0.023
 4238TIP3   OH212670   4.046   6.643   2.445
 4238TIP3    H112671   4.062   6.674   2.356
 4238TIP3    H212672   4.133   6.619   2.478
 4239TIP3   OH212673   7.015   1.516   3.210
 4239TIP3    H112674   7.047   1.522   3.120
 4239TIP3    H212675   6.945   1.451   3.206
 4240TIP3   OH212676   7.093   5.852   3.788
 4240TIP3    H112677   7.084   5.770   3.739
 4240TIP3    H212678   7.188   5.867   3.791
 4241TIP3   OH212679   2.008   0.502   6.217
 4241TIP3    H112680   1.940   0.509   6.150
 4241TIP3    H212681   1.997   0.580   6.271
 4242TIP3   OH212682   1.146   2.388   0.061
 4242TIP3    H112683   1.196   2.307   0.055
 4242TIP3    H212684   1.114   2.391   0.151
 4243TIP3   OH212685   5.325   0.768   5.342
 4243TIP3    H112686   5.236   0.770   5.377
 4243TIP3    H212687   5.336   0.852   5.298
 4244TIP3   OH212688   3.442   1.707   0.929
 4244TIP3    H112689   3.403   1.727   1.014
 4244TIP3    H212690   3.437   1.790   0.880
 4245TIP3   OH212691   0.823   1.156   4.765
 4245TIP3    H112692   0.811   1.215   4.839
 4245TIP3    H212693   0.852   1.074   4.805
 4246TIP3   OH212694   3.484   4.485   2.590
 4246TIP3    H112695   3.485   4.499   2.684
 4246TIP3    H212696   3.401   4.525   2.561
 4247TIP3   OH212697   6.345   2.544   1.252
 4247TIP3    H112698   6.269   2.602   1.265
 4247TIP3    H212699   6.367   2.513   1.340
 4248TIP3   OH212700   7.151   1.285   1.212
 4248TIP3    H112701   7.223   1.347   1.210
 4248TIP3    H212702   7.101   1.304   1.132
 4249TIP3   OH212703   4.401   3.721   0.746
 4249TIP3    H112704   4.368   3.775   0.818
 4249TIP3    H212705   4.408   3.633   0.783
 4250TIP3   OH212706   7.679   3.180   5.985
 4250TIP3    H112707   7.735   3.201   6.060
 4250TIP3    H212708   7.633   3.100   6.011
 4251TIP3   OH212709   6.531   6.824   4.884
 4251TIP3    H112710   6.602   6.835   4.820
 4251TIP3    H212711   6.466   6.890   4.859
 4252TIP3   OH212712   7.896   2.419   5.865
 4252TIP3    H112713   7.906   2.406   5.771
 4252TIP3    H212714   7.984   2.407   5.900
 4253TIP3   OH212715   5.299   7.639   0.337
 4253TIP3    H112716   5.355   7.651   0.414
 4253TIP3    H212717   5.212   7.665   0.367
 4254TIP3   OH212718   7.568   7.093   0.487
 4254TIP3    H112719   7.517   7.174   0.483
 4254TIP3    H212720   7.643   7.110   0.430
 4255TIP3   OH212721   4.768   5.150   5.492
 4255TIP3    H112722   4.754   5.059   5.467
 4255TIP3    H212723   4.817   5.188   5.420
 4256TIP3   OH212724   4.192   0.662   5.146
 4256TIP3    H112725   4.146   0.594   5.097
 4256TIP3    H212726   4.138   0.740   5.136
 4257TIP3   OH212727   4.618   4.090   1.070
 4257TIP3    H112728   4.622   4.150   1.145
 4257TIP3    H212729   4.529   4.054   1.074
 4258TIP3   OH212730   5.730   4.063   4.667
 4258TIP3    H112731   5.749   3.974   4.638
 4258TIP3    H212732   5.742   4.061   4.762
 4259TIP3   OH212733   1.220   7.781   2.056
 4259TIP3    H112734   1.251   7.693   2.076
 4259TIP3    H212735   1.126   7.779   2.077
 4260TIP3   OH212736   7.344   4.457   1.820
 4260TIP3    H112737   7.438   4.453   1.833
 4260TIP3    H212738   7.332   4.516   1.745
 4261TIP3   OH212739   0.080   4.279   5.731
 4261TIP3    H112740   0.174   4.270   5.721
 4261TIP3    H212741   0.064   4.373   5.721
 4262TIP3   OH212742   0.740   4.121   3.320
 4262TIP3    H112743   0.723   4.071   3.399
 4262TIP3    H212744   0.828   4.158   3.334
 4263TIP3   OH212745   7.914   3.975   5.351
 4263TIP3    H112746   7.959   4.012   5.427
 4263TIP3    H212747   7.887   4.052   5.300
 4264TIP3   OH212748   0.518   7.098   5.724
 4264TIP3    H112749   0.608   7.065   5.720
 4264TIP3    H212750   0.473   7.040   5.786
 4265TIP3   OH212751   7.326   7.677   5.359
 4265TIP3    H112752   7.422   7.679   5.355
 4265TIP3    H212753   7.301   7.607   5.299
 4266TIP3   OH212754   7.223   5.790   0.807
 4266TIP3    H112755   7.272   5.707   0.812
 4266TIP3    H212756   7.291   5.857   0.801
 4267TIP3   OH212757   6.822   6.602   3.964
 4267TIP3    H112758   6.778   6.584   4.048
 4267TIP3    H212759   6.750   6.606   3.901
 4268TIP3   OH212760   5.342   3.522   3.919
 4268TIP3    H112761   5.336   3.617   3.928
 4268TIP3    H212762   5.263   3.489   3.963
 4269TIP3   OH212763   7.162   2.400   2.771
 4269TIP3    H112764   7.134   2.314   2.802
 4269TIP3    H212765   7.186   2.387   2.680
 4270TIP3   OH212766   2.121   2.535   3.720
 4270TIP3    H112767   2.158   2.526   3.808
 4270TIP3    H212768   2.102   2.629   3.712
 4271TIP3   OH212769   5.039   6.672   0.764
 4271TIP3    H112770   5.061   6.579   0.755
 4271TIP3    H212771   4.957   6.682   0.716
 4272TIP3   OH212772   3.613   6.730   1.159
 4272TIP3    H112773   3.526   6.770   1.161
 4272TIP3    H212774   3.666   6.789   1.105
 4273TIP3   OH212775   4.220   2.692   3.617
 4273TIP3    H112776   4.297   2.747   3.631
 4273TIP3    H212777   4.149   2.754   3.598
 4274TIP3   OH212778   6.543   3.466   0.504
 4274TIP3    H112779   6.502   3.553   0.498
 4274TIP3    H212780   6.628   3.482   0.545
 4275TIP3   OH212781   6.708   4.017   6.235
 4275TIP3    H112782   6.678   4.107   6.245
 4275TIP3    H212783   6.633   3.964   6.261
 4276TIP3   OH212784   0.789   0.600   5.767
 4276TIP3    H112785   0.765   0.654   5.692
 4276TIP3    H212786   0.731   0.524   5.761
 4277TIP3   OH212787   4.668   0.493   3.288
 4277TIP3    H112788   4.584   0.480   3.245
 4277TIP3    H212789   4.647   0.540   3.369
 4278TIP3   OH212790   3.402   1.618   2.392
 4278TIP3    H112791   3.480   1.563   2.386
 4278TIP3    H212792   3.433   1.706   2.373
 4279TIP3   OH212793   4.581   4.376   2.872
 4279TIP3    H112794   4.497   4.337   2.894
 4279TIP3    H212795   4.610   4.417   2.953
 4280TIP3   OH212796   3.693   1.811   5.881
 4280TIP3    H112797   3.732   1.786   5.797
 4280TIP3    H212798   3.667   1.728   5.921
 4281TIP3   OH212799   7.439   3.764   3.571
 4281TIP3    H112800   7.373   3.786   3.637
 4281TIP3    H212801   7.417   3.675   3.545
 4282TIP3   OH212802   2.909   1.604   6.555
 4282TIP3    H112803   2.937   1.662   6.484
 4282TIP3    H212804   2.915   1.516   6.517
 4283TIP3   OH212805   8.110   1.164   2.839
 4283TIP3    H112806   8.197   1.180   2.805
 4283TIP3    H212807   8.110   1.204   2.926
 4284TIP3   OH212808   2.808   3.031   3.442
 4284TIP3    H112809   2.764   3.052   3.360
 4284TIP3    H212810   2.773   3.095   3.505
 4285TIP3   OH212811   0.922   4.687   5.837
 4285TIP3    H112812   0.841   4.640   5.819
 4285TIP3    H212813   0.981   4.621   5.872
 4286TIP3   OH212814   2.987   6.171   0.990
 4286TIP3    H112815   2.892   6.187   0.989
 4286TIP3    H212816   3.010   6.172   1.083
 4287TIP3   OH212817   0.301   1.799   1.505
 4287TIP3    H112818   0.208   1.781   1.519
 4287TIP3    H212819   0.304   1.840   1.418
 4288TIP3   OH212820   0.379   0.574   1.643
 4288TIP3    H112821   0.308   0.517   1.673
 4288TIP3    H212822   0.340   0.628   1.575
 4289TIP3   OH212823   1.584   1.918   4.581
 4289TIP3    H112824   1.605   1.923   4.674
 4289TIP3    H212825   1.496   1.879   4.579
 4290TIP3   OH212826   3.425   5.591   6.723
 4290TIP3    H112827   3.388   5.640   6.649
 4290TIP3    H212828   3.468   5.657   6.777
 4291TIP3   OH212829   6.021   3.726   3.032
 4291TIP3    H112830   5.933   3.692   3.013
 4291TIP3    H212831   6.052   3.674   3.106
 4292TIP3   OH212832   4.829   7.661   1.491
 4292TIP3    H112833   4.733   7.667   1.484
 4292TIP3    H212834   4.852   7.724   1.558
 4293TIP3   OH212835   1.253   6.344   5.368
 4293TIP3    H112836   1.301   6.427   5.371
 4293TIP3    H212837   1.243   6.326   5.274
 4294TIP3   OH212838   0.744   6.234   2.624
 4294TIP3    H112839   0.658   6.275   2.623
 4294TIP3    H212840   0.767   6.224   2.532
 4295TIP3   OH212841   6.002   4.144   1.248
 4295TIP3    H112842   5.960   4.191   1.320
 4295TIP3    H212843   6.052   4.210   1.201
 4296TIP3   OH212844   7.759   7.672   2.629
 4296TIP3    H112845   7.749   7.643   2.720
 4296TIP3    H212846   7.686   7.629   2.583
 4297TIP3   OH212847   8.069   3.478   1.342
 4297TIP3    H112848   8.101   3.523   1.420
 4297TIP3    H212849   8.118   3.517   1.270
 4298TIP3   OH212850   2.430   5.559   5.554
 4298TIP3    H112851   2.503   5.621   5.552
 4298TIP3    H212852   2.463   5.481   5.510
 4299TIP3   OH212853   2.227   0.044   5.813
 4299TIP3    H112854   2.156   0.015   5.870
 4299TIP3    H212855   2.291   0.084   5.872
 4300TIP3   OH212856   6.754   6.172   1.106
 4300TIP3    H112857   6.815   6.182   1.033
 4300TIP3    H212858   6.714   6.259   1.116
 4301TIP3   OH212859   7.737   3.323   3.994
 4301TIP3    H112860   7.672   3.280   3.938
 4301TIP3    H212861   7.804   3.355   3.933
 4302TIP3   OH212862  -0.003   0.834   4.948
 4302TIP3    H112863   0.020   0.771   5.017
 4302TIP3    H212864  -0.041   0.908   4.995
 4303TIP3   OH212865   7.242   7.096   0.141
 4303TIP3    H112866   7.235   7.037   0.216
 4303TIP3    H212867   7.210   7.045   0.067
 4304TIP3   OH212868   5.520   1.451   4.662
 4304TIP3    H112869   5.603   1.447   4.711
 4304TIP3    H212870   5.519   1.538   4.623
 4305TIP3   OH212871   6.991   3.309   6.031
 4305TIP3    H112872   6.925   3.316   6.100
 4305TIP3    H212873   7.032   3.224   6.045
 4306TIP3   OH212874   7.042   2.162   2.837
 4306TIP3    H112875   6.975   2.156   2.905
 4306TIP3    H212876   7.061   2.070   2.816
 4307TIP3   OH212877   2.136   0.518   0.054
 4307TIP3    H112878   2.200   0.542   0.120
 4307TIP3    H212879   2.103   0.601   0.021
 4308TIP3   OH212880   7.697   5.523   0.576
 4308TIP3    H112881   7.715   5.452   0.515
 4308TIP3    H212882   7.643   5.585   0.527
 4309TIP3   OH212883   1.058   2.917   0.950
 4309TIP3    H112884   1.075   2.960   0.866
 4309TIP3    H212885   1.144   2.915   0.994
 4310TIP3   OH212886   5.344   7.164   5.083
 4310TIP3    H112887   5.373   7.242   5.131
 4310TIP3    H212888   5.404   7.159   5.008
 4311TIP3   OH212889   6.310   0.275   4.836
 4311TIP3    H112890   6.296   0.194   4.883
 4311TIP3    H212891   6.292   0.344   4.900
 4312TIP3   OH212892   0.971   4.359   4.927
 4312TIP3    H112893   0.907   4.420   4.889
 4312TIP3    H212894   0.971   4.380   5.020
 4313TIP3   OH212895   4.472   3.192   1.864
 4313TIP3    H112896   4.497   3.282   1.842
 4313TIP3    H212897   4.523   3.138   1.805
 4314TIP3   OH212898   3.682   7.355   2.439
 4314TIP3    H112899   3.607   7.324   2.390
 4314TIP3    H212900   3.754   7.357   2.376
 4315TIP3   OH212901   6.803   6.409   0.432
 4315TIP3    H112902   6.866   6.360   0.379
 4315TIP3    H212903   6.729   6.424   0.373
 4316TIP3   OH212904   7.248   2.902   1.672
 4316TIP3    H112905   7.253   2.905   1.576
 4316TIP3    H212906   7.177   2.840   1.689
 4317TIP3   OH212907   7.059   1.740   5.020
 4317TIP3    H112908   6.964   1.732   5.032
 4317TIP3    H212909   7.087   1.802   5.086
 4318TIP3   OH212910   2.137   5.734   1.906
 4318TIP3    H112911   2.130   5.681   1.827
 4318TIP3    H212912   2.164   5.673   1.974
 4319TIP3   OH212913   7.771   2.186   4.299
 4319TIP3    H112914   7.697   2.132   4.326
 4319TIP3    H212915   7.764   2.189   4.203
 4320TIP3   OH212916   0.486   1.722   0.461
 4320TIP3    H112917   0.497   1.689   0.372
 4320TIP3    H212918   0.416   1.787   0.455
 4321TIP3   OH212919   6.570   5.472   1.051
 4321TIP3    H112920   6.632   5.485   0.979
 4321TIP3    H212921   6.596   5.388   1.089
 4322TIP3   OH212922   8.234   3.131   0.168
 4322TIP3    H112923   8.165   3.092   0.221
 4322TIP3    H212924   8.199   3.132   0.079
 4323TIP3   OH212925   6.070   7.144   1.961
 4323TIP3    H112926   6.132   7.123   1.892
 4323TIP3    H212927   6.119   7.201   2.021
 4324TIP3   OH212928   4.164   5.352   0.399
 4324TIP3    H112929   4.112   5.287   0.446
 4324TIP3    H212930   4.190   5.415   0.467
 4325TIP3   OH212931   1.752   4.312   0.821
 4325TIP3    H112932   1.808   4.247   0.778
 4325TIP3    H212933   1.690   4.259   0.872
 4326TIP3   OH212934   4.637   5.654   2.282
 4326TIP3    H112935   4.602   5.734   2.242
 4326TIP3    H212936   4.568   5.589   2.267
 4327TIP3   OH212937   0.208   2.771   4.111
 4327TIP3    H112938   0.237   2.857   4.081
 4327TIP3    H212939   0.234   2.710   4.042
 4328TIP3   OH212940   4.389   1.043   4.606
 4328TIP3    H112941   4.312   0.986   4.596
 4328TIP3    H212942   4.442   1.025   4.529
 4329TIP3   OH212943   7.599   6.145   6.412
 4329TIP3    H112944   7.506   6.122   6.412
 4329TIP3    H212945   7.626   6.137   6.321
 4330TIP3   OH212946   6.328   3.864   0.708
 4330TIP3    H112947   6.390   3.822   0.767
 4330TIP3    H212948   6.242   3.841   0.744
 4331TIP3   OH212949   2.956   5.804   1.863
 4331TIP3    H112950   2.969   5.827   1.771
 4331TIP3    H212951   2.862   5.802   1.875
 4332TIP3   OH212952   6.668   0.735   6.692
 4332TIP3    H112953   6.715   0.808   6.651
 4332TIP3    H212954   6.600   0.712   6.629
 4333TIP3   OH212955   3.753   7.600   6.017
 4333TIP3    H112956   3.774   7.677   5.965
 4333TIP3    H212957   3.803   7.611   6.098
 4334TIP3   OH212958   4.440   0.474   3.134
 4334TIP3    H112959   4.347   0.449   3.130
 4334TIP3    H212960   4.472   0.457   3.045
 4335TIP3   OH212961   4.100   4.659   2.736
 4335TIP3    H112962   4.112   4.702   2.820
 4335TIP3    H212963   4.085   4.567   2.758
 4336TIP3   OH212964   5.040   3.839   2.523
 4336TIP3    H112965   5.041   3.914   2.583
 4336TIP3    H212966   5.086   3.870   2.445
 4337TIP3   OH212967   6.463   6.102   0.023
 4337TIP3    H112968   6.537   6.097   0.084
 4337TIP3    H212969   6.402   6.036   0.056
 4338TIP3   OH212970   2.646   1.090   6.334
 4338TIP3    H112971   2.645   1.151   6.408
 4338TIP3    H212972   2.618   1.143   6.260
 4339TIP3   OH212973   3.839   5.361   1.632
 4339TIP3    H112974   3.859   5.269   1.615
 4339TIP3    H212975   3.745   5.368   1.616
 4340TIP3   OH212976   1.527   3.549   3.708
 4340TIP3    H112977   1.621   3.561   3.719
 4340TIP3    H212978   1.507   3.470   3.758
 4341TIP3   OH212979   7.785   2.988   5.536
 4341TIP3    H112980   7.706   3.031   5.503
 4341TIP3    H212981   7.856   3.048   5.511
 4342TIP3   OH212982   6.740   0.262   6.525
 4342TIP3    H112983   6.794   0.331   6.564
 4342TIP3    H212984   6.799   0.188   6.514
 4343TIP3   OH212985   1.624   4.025   5.864
 4343TIP3    H112986   1.688   3.981   5.921
 4343TIP3    H212987   1.658   4.013   5.776
 4344TIP3   OH212988   7.942   3.475   5.433
 4344TIP3    H112989   8.018   3.529   5.457
 4344TIP3    H212990   7.878   3.492   5.502
 4345TIP3   OH212991   2.465   2.445   0.467
 4345TIP3    H112992   2.498   2.380   0.529
 4345TIP3    H212993   2.379   2.412   0.442
 4346TIP3   OH212994   2.001   1.818   2.397
 4346TIP3    H112995   1.910   1.805   2.370
 4346TIP3    H212996   1.994   1.872   2.476
 4347TIP3   OH212997   4.065   2.582   0.501
 4347TIP3    H112998   4.122   2.560   0.575
 4347TIP3    H212999   4.064   2.503   0.447
 4348TIP3   OH213000   0.635   0.180   3.284
 4348TIP3    H113001   0.692   0.219   3.350
 4348TIP3    H213002   0.688   0.112   3.243
 4349TIP3   OH213003   2.098   6.783   5.928
 4349TIP3    H113004   2.150   6.860   5.907
 4349TIP3    H213005   2.062   6.800   6.015
 4350TIP3   OH213006   7.005   6.236   4.029
 4350TIP3    H113007   7.034   6.327   4.039
 4350TIP3    H213008   7.065   6.199   3.964
 4351TIP3   OH213009   6.498   1.880   4.623
 4351TIP3    H113010   6.476   1.790   4.602
 4351TIP3    H213011   6.563   1.873   4.694
 4352TIP3   OH213012   0.266   5.499   0.126
 4352TIP3    H113013   0.296   5.548   0.049
 4352TIP3    H213014   0.245   5.412   0.092
 4353TIP3   OH213015   4.588   0.063   5.778
 4353TIP3    H113016   4.680   0.052   5.753
 4353TIP3    H213017   4.551  -0.025   5.772
 4354TIP3   OH213018   3.177   5.390   1.727
 4354TIP3    H113019   3.160   5.450   1.799
 4354TIP3    H213020   3.134   5.308   1.753
 4355TIP3   OH213021   1.144   3.624   6.231
 4355TIP3    H113022   1.186   3.705   6.203
 4355TIP3    H213023   1.081   3.603   6.162
 4356TIP3   OH213024   3.626   4.321   4.204
 4356TIP3    H113025   3.566   4.377   4.155
 4356TIP3    H213026   3.570   4.263   4.254
 4357TIP3   OH213027   1.060   5.946   0.799
 4357TIP3    H113028   1.067   6.030   0.754
 4357TIP3    H213029   1.032   5.969   0.888
 4358TIP3   OH213030   6.090   6.326   4.423
 4358TIP3    H113031   6.049   6.354   4.505
 4358TIP3    H213032   6.026   6.349   4.355
 4359TIP3   OH213033   6.965   1.033   0.556
 4359TIP3    H113034   6.888   1.029   0.498
 4359TIP3    H213035   7.036   1.065   0.500
 4360TIP3   OH213036   5.513   5.650   0.615
 4360TIP3    H113037   5.516   5.669   0.522
 4360TIP3    H213038   5.428   5.683   0.644
 4361TIP3   OH213039   2.523   5.204   4.715
 4361TIP3    H113040   2.501   5.252   4.795
 4361TIP3    H213041   2.581   5.134   4.744
 4362TIP3   OH213042   7.340   6.649   1.224
 4362TIP3    H113043   7.331   6.554   1.225
 4362TIP3    H213044   7.344   6.672   1.132
 4363TIP3   OH213045   4.561   0.346   2.936
 4363TIP3    H113046   4.580   0.265   2.888
 4363TIP3    H213047   4.644   0.369   2.978
 4364TIP3   OH213048   2.200   2.190   4.550
 4364TIP3    H113049   2.145   2.128   4.598
 4364TIP3    H213050   2.148   2.271   4.546
 4365TIP3   OH213051   3.910   4.001   2.270
 4365TIP3    H113052   3.937   3.917   2.307
 4365TIP3    H213053   3.817   4.007   2.288
 4366TIP3   OH213054   6.976   6.343   5.854
 4366TIP3    H113055   6.995   6.367   5.764
 4366TIP3    H213056   6.881   6.350   5.861
 4367TIP3   OH213057   1.362   5.254   2.382
 4367TIP3    H113058   1.322   5.168   2.393
 4367TIP3    H213059   1.390   5.279   2.470
 4368TIP3   OH213060   7.501   4.570   2.345
 4368TIP3    H113061   7.503   4.580   2.441
 4368TIP3    H213062   7.476   4.479   2.331
 4369TIP3   OH213063   6.504   6.506   4.844
 4369TIP3    H113064   6.517   6.575   4.909
 4369TIP3    H213065   6.590   6.494   4.804
 4370TIP3   OH213066   2.339   5.409   2.745
 4370TIP3    H113067   2.421   5.381   2.703
 4370TIP3    H213068   2.349   5.383   2.836
 4371TIP3   OH213069   0.456   0.552   1.190
 4371TIP3    H113070   0.490   0.569   1.102
 4371TIP3    H213071   0.503   0.474   1.219
 4372TIP3   OH213072   5.901   6.631   3.346
 4372TIP3    H113073   5.961   6.562   3.372
 4372TIP3    H213074   5.936   6.711   3.386
 4373TIP3   OH213075   4.181   3.091   6.535
 4373TIP3    H113076   4.169   3.140   6.453
 4373TIP3    H213077   4.169   3.000   6.511
 4374TIP3   OH213078   2.677   2.620   5.955
 4374TIP3    H113079   2.582   2.632   5.947
 4374TIP3    H213080   2.712   2.709   5.964
 4375TIP3   OH213081   3.373   2.153   5.271
 4375TIP3    H113082   3.349   2.110   5.189
 4375TIP3    H213083   3.299   2.138   5.329
 4376TIP3   OH213084   0.695   6.943   4.596
 4376TIP3    H113085   0.724   6.902   4.515
 4376TIP3    H213086   0.609   6.905   4.614
 4377TIP3   OH213087   5.594   4.906   5.433
 4377TIP3    H113088   5.623   4.918   5.342
 4377TIP3    H213089   5.503   4.875   5.425
 4378TIP3   OH213090   8.186   0.925   5.366
 4378TIP3    H113091   8.229   0.950   5.284
 4378TIP3    H213092   8.157   0.835   5.351
 4379TIP3   OH213093   3.252   0.975   0.915
 4379TIP3    H113094   3.302   0.896   0.896
 4379TIP3    H213095   3.248   1.022   0.832
 4380TIP3   OH213096   7.553   6.486   0.696
 4380TIP3    H113097   7.476   6.505   0.642
 4380TIP3    H213098   7.535   6.399   0.732
 4381TIP3   OH213099   7.670   7.124   1.112
 4381TIP3    H113100   7.646   7.079   1.031
 4381TIP3    H213101   7.746   7.076   1.145
 4382TIP3   OH213102   6.310   4.779   4.919
 4382TIP3    H113103   6.392   4.758   4.964
 4382TIP3    H213104   6.299   4.873   4.933
 4383TIP3   OH213105   6.889   7.744   2.874
 4383TIP3    H113106   6.899   7.649   2.866
 4383TIP3    H213107   6.808   7.764   2.825
 4384TIP3   OH213108   5.366   1.722   3.139
 4384TIP3    H113109   5.327   1.762   3.061
 4384TIP3    H213110   5.450   1.687   3.108
 4385TIP3   OH213111   6.874   2.229   5.479
 4385TIP3    H113112   6.918   2.304   5.440
 4385TIP3    H213113   6.790   2.262   5.508
 4386TIP3   OH213114   1.436   2.144   3.750
 4386TIP3    H113115   1.513   2.107   3.792
 4386TIP3    H213116   1.365   2.082   3.771
 4387TIP3   OH213117   2.198   2.469   3.988
 4387TIP3    H113118   2.263   2.400   3.972
 4387TIP3    H213119   2.129   2.427   4.039
 4388TIP3   OH213120   7.480   1.154   4.593
 4388TIP3    H113121   7.411   1.100   4.555
 4388TIP3    H213122   7.435   1.228   4.633
 4389TIP3   OH213123   3.144   2.119   4.155
 4389TIP3    H113124   3.183   2.151   4.075
 4389TIP3    H213125   3.216   2.077   4.202
 4390TIP3   OH213126   3.792   2.885   4.116
 4390TIP3    H113127   3.800   2.957   4.053
 4390TIP3    H213128   3.803   2.927   4.201
 4391TIP3   OH213129   1.439   4.734   1.605
 4391TIP3    H113130   1.411   4.644   1.619
 4391TIP3    H213131   1.469   4.764   1.691
 4392TIP3   OH213132   2.671   4.634   2.999
 4392TIP3    H113133   2.713   4.604   2.918
 4392TIP3    H213134   2.578   4.638   2.978
 4393TIP3   OH213135   0.860   4.440   2.229
 4393TIP3    H113136   0.883   4.419   2.320
 4393TIP3    H213137   0.767   4.462   2.232
 4394TIP3   OH213138   3.522   6.104   3.572
 4394TIP3    H113139   3.477   6.029   3.609
 4394TIP3    H213140   3.587   6.128   3.638
 4395TIP3   OH213141   4.284   7.132   4.909
 4395TIP3    H113142   4.320   7.072   4.974
 4395TIP3    H213143   4.314   7.219   4.937
 4396TIP3   OH213144   4.612   1.332   5.432
 4396TIP3    H113145   4.578   1.328   5.342
 4396TIP3    H213146   4.687   1.390   5.427
 4397TIP3   OH213147   2.903   3.302   2.278
 4397TIP3    H113148   2.860   3.218   2.292
 4397TIP3    H213149   2.989   3.293   2.318
 4398TIP3   OH213150   4.419   1.385   0.049
 4398TIP3    H113151   4.334   1.427   0.034
 4398TIP3    H213152   4.483   1.448   0.017
 4399TIP3   OH213153   6.440   1.311   3.138
 4399TIP3    H113154   6.375   1.302   3.208
 4399TIP3    H213155   6.473   1.223   3.124
 4400TIP3   OH213156   2.409   4.793   4.032
 4400TIP3    H113157   2.492   4.839   4.033
 4400TIP3    H213158   2.432   4.701   4.023
 4401TIP3   OH213159   7.674   3.003   2.710
 4401TIP3    H113160   7.665   2.947   2.633
 4401TIP3    H213161   7.600   3.063   2.706
 4402TIP3   OH213162   2.568   7.655   6.731
 4402TIP3    H113163   2.476   7.669   6.708
 4402TIP3    H213164   2.606   7.743   6.732
 4403TIP3   OH213165   5.392   0.918   4.264
 4403TIP3    H113166   5.308   0.884   4.296
 4403TIP3    H213167   5.406   0.875   4.180
 4404TIP3   OH213168   5.099   1.952   0.304
 4404TIP3    H113169   5.084   2.011   0.378
 4404TIP3    H213170   5.034   1.883   0.315
 4405TIP3   OH213171   2.362   5.088   2.888
 4405TIP3    H113172   2.268   5.079   2.873
 4405TIP3    H213173   2.370   5.164   2.946
 4406TIP3   OH213174   3.933   2.748   0.026
 4406TIP3    H113175   3.897   2.711   0.107
 4406TIP3    H213176   4.014   2.699   0.011
 4407TIP3   OH213177   0.550   1.741   1.760
 4407TIP3    H113178   0.490   1.690   1.705
 4407TIP3    H213179   0.494   1.809   1.799
 4408TIP3   OH213180   4.205   1.516   6.350
 4408TIP3    H113181   4.219   1.539   6.442
 4408TIP3    H213182   4.262   1.440   6.335
 4409TIP3   OH213183   7.803   5.367   3.103
 4409TIP3    H113184   7.741   5.434   3.074
 4409TIP3    H213185   7.790   5.295   3.041
 4410TIP3   OH213186   2.783   3.037   2.196
 4410TIP3    H113187   2.782   3.094   2.119
 4410TIP3    H213188   2.701   3.056   2.241
 4411TIP3   OH213189   0.882   4.643   4.879
 4411TIP3    H113190   0.962   4.634   4.827
 4411TIP3    H213191   0.908   4.695   4.955
 4412TIP3   OH213192   2.915   2.289   4.858
 4412TIP3    H113193   2.903   2.360   4.795
 4412TIP3    H213194   2.987   2.237   4.823
 4413TIP3   OH213195   4.984   0.151   6.250
 4413TIP3    H113196   4.926   0.081   6.280
 4413TIP3    H213197   5.063   0.142   6.304
 4414TIP3   OH213198   2.019   7.180   5.200
 4414TIP3    H113199   1.929   7.155   5.180
 4414TIP3    H213200   2.046   7.121   5.270
 4415TIP3   OH213201   0.048   5.391   4.874
 4415TIP3    H113202   0.009   5.461   4.822
 4415TIP3    H213203   0.131   5.373   4.830
 4416TIP3   OH213204   5.762   6.131   1.789
 4416TIP3    H113205   5.675   6.093   1.803
 4416TIP3    H213206   5.745   6.220   1.759
 4417TIP3   OH213207   3.136   3.468   3.777
 4417TIP3    H113208   3.123   3.563   3.766
 4417TIP3    H213209   3.088   3.446   3.857
 4418TIP3   OH213210   1.839   2.937   2.043
 4418TIP3    H113211   1.876   2.876   1.981
 4418TIP3    H213212   1.746   2.939   2.022
 4419TIP3   OH213213   2.171   0.202   0.888
 4419TIP3    H113214   2.147   0.287   0.925
 4419TIP3    H213215   2.172   0.143   0.964
 4420TIP3   OH213216   2.689   5.503   5.992
 4420TIP3    H113217   2.681   5.564   5.919
 4420TIP3    H213218   2.690   5.559   6.070
 4421TIP3   OH213219   3.023   0.632   0.143
 4421TIP3    H113220   3.104   0.581   0.142
 4421TIP3    H213221   2.955   0.569   0.164
 4422TIP3   OH213222   5.602   0.235   4.740
 4422TIP3    H113223   5.613   0.285   4.820
 4422TIP3    H213224   5.507   0.223   4.731
 4423TIP3   OH213225   5.992   1.485   0.320
 4423TIP3    H113226   5.988   1.455   0.229
 4423TIP3    H213227   5.920   1.548   0.327
 4424TIP3   OH213228   0.819   1.136   0.860
 4424TIP3    H113229   0.789   1.215   0.814
 4424TIP3    H213230   0.765   1.066   0.823
 4425TIP3   OH213231   4.503   6.858   5.873
 4425TIP3    H113232   4.438   6.788   5.875
 4425TIP3    H213233   4.461   6.931   5.920
 4426TIP3   OH213234   3.820   2.589   5.556
 4426TIP3    H113235   3.814   2.567   5.650
 4426TIP3    H213236   3.889   2.654   5.551
 4427TIP3   OH213237   5.024   5.147   2.129
 4427TIP3    H113238   5.068   5.225   2.095
 4427TIP3    H213239   4.953   5.181   2.183
 4428TIP3   OH213240   5.221   3.670   2.203
 4428TIP3    H113241   5.160   3.743   2.194
 4428TIP3    H213242   5.171   3.603   2.250
 4429TIP3   OH213243   0.967   1.493   6.100
 4429TIP3    H113244   1.057   1.472   6.073
 4429TIP3    H213245   0.912   1.442   6.041
 4430TIP3   OH213246   4.569   2.794   5.785
 4430TIP3    H113247   4.594   2.705   5.760
 4430TIP3    H213248   4.511   2.823   5.714
 4431TIP3   OH213249   0.753   0.673   1.305
 4431TIP3    H113250   0.790   0.640   1.223
 4431TIP3    H213251   0.664   0.639   1.307
 4432TIP3   OH213252   4.478   3.727   5.496
 4432TIP3    H113253   4.561   3.719   5.543
 4432TIP3    H213254   4.420   3.773   5.557
 4433TIP3   OH213255   1.308   6.810   4.387
 4433TIP3    H113256   1.391   6.816   4.434
 4433TIP3    H213257   1.258   6.886   4.417
 4434TIP3   OH213258   2.466   1.181   5.544
 4434TIP3    H113259   2.558   1.159   5.551
 4434TIP3    H213260   2.464   1.274   5.519
 4435TIP3   OH213261   1.025   0.338   3.217
 4435TIP3    H113262   0.963   0.358   3.147
 4435TIP3    H213263   1.084   0.273   3.178
 4436TIP3   OH213264   5.960   0.845   1.843
 4436TIP3    H113265   5.961   0.884   1.755
 4436TIP3    H213266   5.932   0.755   1.829
 4437TIP3   OH213267   7.163   7.220   5.627
 4437TIP3    H113268   7.191   7.216   5.719
 4437TIP3    H213269   7.199   7.303   5.595
 4438TIP3   OH213270   5.604   1.639   3.023
 4438TIP3    H113271   5.679   1.670   2.971
 4438TIP3    H213272   5.594   1.547   2.998
 4439TIP3   OH213273   7.496   3.670   4.008
 4439TIP3    H113274   7.523   3.582   3.980
 4439TIP3    H213275   7.576   3.723   4.000
 4440TIP3   OH213276   0.675   6.037   3.772
 4440TIP3    H113277   0.590   5.994   3.763
 4440TIP3    H213278   0.736   5.967   3.795
 4441TIP3   OH213279   5.636   5.007   5.171
 4441TIP3    H113280   5.723   5.005   5.131
 4441TIP3    H213281   5.590   5.077   5.123
 4442TIP3   OH213282   4.178   6.791   4.895
 4442TIP3    H113283   4.251   6.734   4.919
 4442TIP3    H213284   4.197   6.875   4.939
 4443TIP3   OH213285   2.203   0.117   1.132
 4443TIP3    H113286   2.299   0.120   1.141
 4443TIP3    H213287   2.173   0.088   1.218
 4444TIP3   OH213288   6.902   5.066   4.482
 4444TIP3    H113289   6.830   5.085   4.542
 4444TIP3    H213290   6.896   5.133   4.415
 4445TIP3   OH213291   6.592   3.023   5.637
 4445TIP3    H113292   6.544   2.963   5.694
 4445TIP3    H213293   6.681   2.988   5.635
 4446TIP3   OH213294   5.780   1.198   0.421
 4446TIP3    H113295   5.756   1.278   0.375
 4446TIP3    H213296   5.797   1.226   0.511
 4447TIP3   OH213297   6.654   6.588   3.735
 4447TIP3    H113298   6.671   6.545   3.651
 4447TIP3    H213299   6.562   6.572   3.751
 4448TIP3   OH213300   5.169   3.705   2.790
 4448TIP3    H113301   5.171   3.642   2.718
 4448TIP3    H213302   5.212   3.783   2.754
 4449TIP3   OH213303   3.578   0.807   5.605
 4449TIP3    H113304   3.577   0.850   5.690
 4449TIP3    H213305   3.538   0.722   5.620
 4450TIP3   OH213306   7.787   2.031   2.502
 4450TIP3    H113307   7.777   2.052   2.409
 4450TIP3    H213308   7.741   1.947   2.513
 4451TIP3   OH213309   7.679   4.644   2.055
 4451TIP3    H113310   7.586   4.666   2.052
 4451TIP3    H213311   7.715   4.702   2.122
 4452TIP3   OH213312   2.651   4.730   6.425
 4452TIP3    H113313   2.735   4.761   6.457
 4452TIP3    H213314   2.587   4.765   6.487
 4453TIP3   OH213315   1.589   7.507   3.581
 4453TIP3    H113316   1.495   7.513   3.564
 4453TIP3    H213317   1.621   7.441   3.520
 4454TIP3   OH213318   0.827   3.869   4.549
 4454TIP3    H113319   0.896   3.884   4.613
 4454TIP3    H213320   0.821   3.951   4.500
 4455TIP3   OH213321   7.349   1.570   0.983
 4455TIP3    H113322   7.349   1.523   1.067
 4455TIP3    H213323   7.418   1.636   0.993
 4456TIP3   OH213324   0.459   3.645   0.478
 4456TIP3    H113325   0.388   3.580   0.481
 4456TIP3    H213326   0.521   3.615   0.544
 4457TIP3   OH213327   4.300   0.091   5.369
 4457TIP3    H113328   4.332   0.039   5.296
 4457TIP3    H213329   4.377   0.107   5.423
 4458TIP3   OH213330   7.486   4.908   2.509
 4458TIP3    H113331   7.565   4.939   2.554
 4458TIP3    H213332   7.430   4.874   2.578
 4459TIP3   OH213333   6.047   7.509   3.189
 4459TIP3    H113334   6.110   7.561   3.139
 4459TIP3    H213335   5.987   7.573   3.226
 4460TIP3   OH213336   4.809   6.769   5.928
 4460TIP3    H113337   4.728   6.820   5.929
 4460TIP3    H213338   4.798   6.708   5.855
 4461TIP3   OH213339   2.887   7.784   2.950
 4461TIP3    H113340   2.848   7.709   2.995
 4461TIP3    H213341   2.838   7.860   2.984
 4462TIP3   OH213342   1.633   5.683   2.813
 4462TIP3    H113343   1.710   5.666   2.866
 4462TIP3    H213344   1.648   5.633   2.732
 4463TIP3   OH213345   0.336   1.384   5.565
 4463TIP3    H113346   0.368   1.298   5.539
 4463TIP3    H213347   0.388   1.407   5.642
 4464TIP3   OH213348   2.498   4.948   4.441
 4464TIP3    H113349   2.567   4.971   4.503
 4464TIP3    H213350   2.544   4.916   4.364
 4465TIP3   OH213351   0.687   4.704   3.634
 4465TIP3    H113352   0.776   4.667   3.631
 4465TIP3    H213353   0.669   4.713   3.728
 4466TIP3   OH213354   4.526   0.227   4.168
 4466TIP3    H113355   4.531   0.309   4.217
 4466TIP3    H213356   4.434   0.218   4.145
 4467TIP3   OH213357   5.898   0.184   4.343
 4467TIP3    H113358   5.934   0.262   4.384
 4467TIP3    H213359   5.948   0.112   4.382
 4468TIP3   OH213360   3.299   2.699   0.182
 4468TIP3    H113361   3.300   2.610   0.145
 4468TIP3    H213362   3.253   2.752   0.117
 4469TIP3   OH213363   7.722   0.032   3.141
 4469TIP3    H113364   7.742   0.016   3.049
 4469TIP3    H213365   7.648   0.092   3.141
 4470TIP3   OH213366   8.313   4.527   5.738
 4470TIP3    H113367   8.349   4.591   5.676
 4470TIP3    H213368   8.220   4.547   5.741
 4471TIP3   OH213369   3.388   5.290   3.359
 4471TIP3    H113370   3.360   5.382   3.365
 4471TIP3    H213371   3.408   5.266   3.449
 4472TIP3   OH213372   2.850   1.436   0.459
 4472TIP3    H113373   2.870   1.343   0.452
 4472TIP3    H213374   2.882   1.462   0.545
 4473TIP3   OH213375   1.987   4.944   5.118
 4473TIP3    H113376   1.895   4.960   5.139
 4473TIP3    H213377   2.028   5.031   5.126
 4474TIP3   OH213378   1.942   6.040   6.424
 4474TIP3    H113379   1.906   6.098   6.358
 4474TIP3    H213380   2.031   6.071   6.439
 4475TIP3   OH213381   2.477   2.946   2.494
 4475TIP3    H113382   2.493   2.902   2.411
 4475TIP3    H213383   2.470   2.875   2.558
 4476TIP3   OH213384   5.531   5.487   1.902
 4476TIP3    H113385   5.450   5.460   1.858
 4476TIP3    H213386   5.590   5.413   1.890
 4477TIP3   OH213387   0.541   5.589   1.770
 4477TIP3    H113388   0.454   5.583   1.808
 4477TIP3    H213389   0.551   5.508   1.719
 4478TIP3   OH213390   6.209   2.485   6.698
 4478TIP3    H113391   6.171   2.471   6.785
 4478TIP3    H213392   6.140   2.463   6.637
 4479TIP3   OH213393   6.207   0.307   3.651
 4479TIP3    H113394   6.193   0.231   3.707
 4479TIP3    H213395   6.257   0.368   3.706
 4480TIP3   OH213396   6.399   4.727   1.040
 4480TIP3    H113397   6.323   4.780   1.015
 4480TIP3    H213398   6.392   4.649   0.985
 4481TIP3   OH213399   5.273   2.216   6.355
 4481TIP3    H113400   5.213   2.278   6.396
 4481TIP3    H213401   5.216   2.155   6.308
 4482TIP3   OH213402   0.773   7.069   6.536
 4482TIP3    H113403   0.825   7.126   6.592
 4482TIP3    H213404   0.722   7.129   6.481
 4483TIP3   OH213405   1.814   7.473   3.258
 4483TIP3    H113406   1.753   7.402   3.278
 4483TIP3    H213407   1.860   7.489   3.340
 4484TIP3   OH213408   4.805   6.853   1.130
 4484TIP3    H113409   4.772   6.798   1.059
 4484TIP3    H213410   4.858   6.920   1.086
 4485TIP3   OH213411   4.418   2.088   5.102
 4485TIP3    H113412   4.354   2.025   5.133
 4485TIP3    H213413   4.366   2.167   5.082
 4486TIP3   OH213414   7.387   6.988   2.668
 4486TIP3    H113415   7.411   6.935   2.744
 4486TIP3    H213416   7.469   6.997   2.619
 4487TIP3   OH213417   1.524   0.160   2.871
 4487TIP3    H113418   1.456   0.218   2.837
 4487TIP3    H213419   1.486   0.072   2.863
 4488TIP3   OH213420   1.933   0.347   0.149
 4488TIP3    H113421   1.992   0.281   0.187
 4488TIP3    H213422   1.992   0.412   0.111
 4489TIP3   OH213423   4.680   4.455   3.111
 4489TIP3    H113424   4.639   4.432   3.194
 4489TIP3    H213425   4.774   4.453   3.129
 4490TIP3   OH213426   4.160   6.862   4.052
 4490TIP3    H113427   4.191   6.952   4.061
 4490TIP3    H213428   4.206   6.814   4.120
 4491TIP3   OH213429   6.862   0.563   1.546
 4491TIP3    H113430   6.841   0.656   1.553
 4491TIP3    H213431   6.919   0.544   1.620
 4492TIP3   OH213432   2.338   5.778   3.875
 4492TIP3    H113433   2.416   5.786   3.821
 4492TIP3    H213434   2.336   5.685   3.899
 4493TIP3   OH213435   2.516   2.804   6.423
 4493TIP3    H113436   2.477   2.868   6.482
 4493TIP3    H213437   2.546   2.856   6.348
 4494TIP3   OH213438   4.699   2.769   4.855
 4494TIP3    H113439   4.782   2.768   4.806
 4494TIP3    H213440   4.646   2.836   4.812
 4495TIP3   OH213441   2.167   3.216   5.401
 4495TIP3    H113442   2.085   3.264   5.391
 4495TIP3    H213443   2.151   3.133   5.356
 4496TIP3   OH213444   1.519   1.483   3.055
 4496TIP3    H113445   1.609   1.465   3.030
 4496TIP3    H213446   1.526   1.548   3.125
 4497TIP3   OH213447   1.204   6.795   3.905
 4497TIP3    H113448   1.219   6.700   3.907
 4497TIP3    H213449   1.243   6.827   3.985
 4498TIP3   OH213450   3.321   5.842   2.255
 4498TIP3    H113451   3.274   5.924   2.270
 4498TIP3    H213452   3.323   5.831   2.160
 4499TIP3   OH213453   3.552   2.761   3.993
 4499TIP3    H113454   3.494   2.831   3.965
 4499TIP3    H213455   3.621   2.804   4.043
 4500TIP3   OH213456   1.439   6.335   1.125
 4500TIP3    H113457   1.514   6.349   1.183
 4500TIP3    H213458   1.397   6.421   1.119
 4501TIP3   OH213459   0.490   7.035   1.128
 4501TIP3    H113460   0.408   7.046   1.080
 4501TIP3    H213461   0.514   6.943   1.114
 4502TIP3   OH213462   8.286   4.843   1.774
 4502TIP3    H113463   8.266   4.751   1.754
 4502TIP3    H213464   8.263   4.890   1.694
 4503TIP3   OH213465   5.983   4.128   4.142
 4503TIP3    H113466   6.031   4.191   4.087
 4503TIP3    H213467   6.012   4.043   4.110
 4504TIP3   OH213468   2.511   2.682   2.025
 4504TIP3    H113469   2.440   2.719   1.973
 4504TIP3    H213470   2.585   2.679   1.965
 4505TIP3   OH213471   4.145   4.652   1.769
 4505TIP3    H113472   4.181   4.598   1.840
 4505TIP3    H213473   4.071   4.601   1.737
 4506TIP3   OH213474   5.554   5.846   4.940
 4506TIP3    H113475   5.549   5.822   4.847
 4506TIP3    H213476   5.482   5.908   4.952
 4507TIP3   OH213477   4.620   7.585   3.127
 4507TIP3    H113478   4.668   7.591   3.209
 4507TIP3    H213479   4.552   7.652   3.133
 4508TIP3   OH213480   4.960   7.349   2.917
 4508TIP3    H113481   4.929   7.438   2.934
 4508TIP3    H213482   5.043   7.343   2.965
 4509TIP3   OH213483   5.436   0.156   1.532
 4509TIP3    H113484   5.485   0.229   1.493
 4509TIP3    H213485   5.444   0.169   1.626
 4510TIP3   OH213486   2.200   5.134   5.084
 4510TIP3    H113487   2.236   5.209   5.036
 4510TIP3    H213488   2.204   5.160   5.176
 4511TIP3   OH213489   3.924   1.939   5.429
 4511TIP3    H113490   3.972   1.930   5.511
 4511TIP3    H213491   3.840   1.978   5.454
 4512TIP3   OH213492   3.223   6.075   2.310
 4512TIP3    H113493   3.177   6.159   2.301
 4512TIP3    H213494   3.255   6.075   2.401
 4513TIP3   OH213495   4.224   0.199   1.401
 4513TIP3    H113496   4.172   0.251   1.463
 4513TIP3    H213497   4.183   0.216   1.316
 4514TIP3   OH213498   8.081   3.285   0.540
 4514TIP3    H113499   8.056   3.368   0.499
 4514TIP3    H213500   8.151   3.308   0.600
 4515TIP3   OH213501   2.032   0.198   6.635
 4515TIP3    H113502   1.994   0.137   6.572
 4515TIP3    H213503   2.059   0.274   6.582
 4516TIP3   OH213504   2.498   2.774   2.943
 4516TIP3    H113505   2.487   2.762   2.849
 4516TIP3    H213506   2.435   2.713   2.982
 4517TIP3   OH213507   6.833   7.521   3.990
 4517TIP3    H113508   6.855   7.452   3.927
 4517TIP3    H213509   6.741   7.507   4.010
 4518TIP3   OH213510   2.424   6.324   1.722
 4518TIP3    H113511   2.448   6.269   1.648
 4518TIP3    H213512   2.341   6.364   1.696
 4519TIP3   OH213513   3.830   1.070   4.938
 4519TIP3    H113514   3.818   1.005   5.008
 4519TIP3    H213515   3.744   1.109   4.927
 4520TIP3   OH213516   2.554   3.163   0.301
 4520TIP3    H113517   2.463   3.191   0.302
 4520TIP3    H213518   2.593   3.213   0.229
 4521TIP3   OH213519   3.881   4.695   0.582
 4521TIP3    H113520   3.787   4.715   0.586
 4521TIP3    H213521   3.924   4.779   0.597
 4522TIP3   OH213522   3.308   3.243   3.921
 4522TIP3    H113523   3.216   3.246   3.894
 4522TIP3    H213524   3.306   3.205   4.009
 4523TIP3   OH213525   0.297   6.166   1.516
 4523TIP3    H113526   0.318   6.182   1.424
 4523TIP3    H213527   0.215   6.214   1.531
 4524TIP3   OH213528   0.320   7.726   2.764
 4524TIP3    H113529   0.329   7.631   2.775
 4524TIP3    H213530   0.304   7.738   2.670
 4525TIP3   OH213531   7.449   5.955   5.524
 4525TIP3    H113532   7.447   6.035   5.576
 4525TIP3    H213533   7.375   5.963   5.464
 4526TIP3   OH213534   5.209   1.315   6.321
 4526TIP3    H113535   5.249   1.321   6.408
 4526TIP3    H213536   5.260   1.375   6.267
 4527TIP3   OH213537   6.629   7.202   2.926
 4527TIP3    H113538   6.612   7.271   2.991
 4527TIP3    H213539   6.636   7.248   2.843
 4528TIP3   OH213540   2.254   0.333   3.870
 4528TIP3    H113541   2.173   0.351   3.822
 4528TIP3    H213542   2.321   0.328   3.803
 4529TIP3   OH213543   1.558   4.166   4.764
 4529TIP3    H113544   1.608   4.244   4.789
 4529TIP3    H213545   1.498   4.152   4.838
 4530TIP3   OH213546   3.981   7.750   6.332
 4530TIP3    H113547   3.915   7.786   6.273
 4530TIP3    H213548   3.938   7.747   6.417
 4531TIP3   OH213549   1.617   3.680   0.642
 4531TIP3    H113550   1.548   3.633   0.595
 4531TIP3    H213551   1.651   3.616   0.706
 4532TIP3   OH213552   1.433   1.010   2.218
 4532TIP3    H113553   1.490   0.989   2.144
 4532TIP3    H213554   1.478   0.975   2.295
 4533TIP3   OH213555   2.876   6.545   0.271
 4533TIP3    H113556   2.969   6.535   0.252
 4533TIP3    H213557   2.839   6.458   0.261
 4534TIP3   OH213558   2.648   3.929   4.016
 4534TIP3    H113559   2.707   3.856   3.997
 4534TIP3    H213560   2.665   3.993   3.947
 4535TIP3   OH213561   5.326   3.980   1.709
 4535TIP3    H113562   5.419   3.980   1.733
 4535TIP3    H213563   5.295   4.067   1.735
 4536TIP3   OH213564   0.158   1.772   5.819
 4536TIP3    H113565   0.065   1.749   5.812
 4536TIP3    H213566   0.181   1.753   5.910
 4537TIP3   OH213567   7.102   2.827   3.326
 4537TIP3    H113568   7.083   2.921   3.326
 4537TIP3    H213569   7.018   2.786   3.304
 4538TIP3   OH213570   6.279   5.714   1.569
 4538TIP3    H113571   6.249   5.649   1.506
 4538TIP3    H213572   6.198   5.750   1.606
 4539TIP3   OH213573   6.677   1.211   2.658
 4539TIP3    H113574   6.689   1.256   2.574
 4539TIP3    H213575   6.589   1.236   2.686
 4540TIP3   OH213576   7.807   6.409   1.015
 4540TIP3    H113577   7.806   6.380   0.924
 4540TIP3    H213578   7.729   6.463   1.024
 4541TIP3   OH213579   7.342   1.629   5.480
 4541TIP3    H113580   7.294   1.570   5.421
 4541TIP3    H213581   7.274   1.674   5.530
 4542TIP3   OH213582   7.514   5.593   4.763
 4542TIP3    H113583   7.424   5.619   4.745
 4542TIP3    H213584   7.509   5.498   4.775
 4543TIP3   OH213585   3.950   3.190   0.753
 4543TIP3    H113586   3.870   3.138   0.755
 4543TIP3    H213587   3.949   3.231   0.666
 4544TIP3   OH213588   4.902   1.811   5.519
 4544TIP3    H113589   4.927   1.720   5.506
 4544TIP3    H213590   4.808   1.808   5.537
 4545TIP3   OH213591   4.143   3.161   6.286
 4545TIP3    H113592   4.137   3.071   6.254
 4545TIP3    H213593   4.106   3.214   6.216
 4546TIP3   OH213594   3.841   2.761   3.178
 4546TIP3    H113595   3.801   2.845   3.200
 4546TIP3    H213596   3.865   2.769   3.085
 4547TIP3   OH213597   3.108   6.127   3.763
 4547TIP3    H113598   3.020   6.143   3.730
 4547TIP3    H213599   3.159   6.104   3.685
 4548TIP3   OH213600   2.825   0.615   3.038
 4548TIP3    H113601   2.774   0.538   3.014
 4548TIP3    H213602   2.824   0.616   3.133
 4549TIP3   OH213603   5.508   3.415   1.415
 4549TIP3    H113604   5.475   3.491   1.462
 4549TIP3    H213605   5.486   3.340   1.471
 4550TIP3   OH213606   5.842   7.416   5.377
 4550TIP3    H113607   5.752   7.424   5.409
 4550TIP3    H213608   5.847   7.479   5.305
 4551TIP3   OH213609   8.020   6.482   6.075
 4551TIP3    H113610   8.102   6.526   6.055
 4551TIP3    H213611   8.046   6.393   6.099
 4552TIP3   OH213612   1.567   2.654   1.778
 4552TIP3    H113613   1.521   2.600   1.714
 4552TIP3    H213614   1.656   2.661   1.745
 4553TIP3   OH213615   7.760   4.809   6.753
 4553TIP3    H113616   7.719   4.732   6.793
 4553TIP3    H213617   7.725   4.883   6.802
 4554TIP3   OH213618   4.390   4.224   5.449
 4554TIP3    H113619   4.363   4.314   5.471
 4554TIP3    H213620   4.341   4.203   5.370
 4555TIP3   OH213621   0.288   5.765   5.206
 4555TIP3    H113622   0.239   5.846   5.222
 4555TIP3    H213623   0.225   5.709   5.161
 4556TIP3   OH213624   0.528   2.100   0.737
 4556TIP3    H113625   0.446   2.052   0.733
 4556TIP3    H213626   0.546   2.109   0.831
 4557TIP3   OH213627   1.475   4.776   4.661
 4557TIP3    H113628   1.480   4.863   4.700
 4557TIP3    H213629   1.398   4.780   4.603
 4558TIP3   OH213630   3.164   2.883   2.269
 4558TIP3    H113631   3.110   2.909   2.194
 4558TIP3    H213632   3.102   2.841   2.329
 4559TIP3   OH213633   1.874   2.321   2.770
 4559TIP3    H113634   1.934   2.335   2.696
 4559TIP3    H213635   1.846   2.410   2.794
 4560TIP3   OH213636   4.185   0.824   1.957
 4560TIP3    H113637   4.230   0.740   1.947
 4560TIP3    H213638   4.247   0.879   2.006
 4561TIP3   OH213639   3.964   4.792   6.596
 4561TIP3    H113640   3.883   4.759   6.556
 4561TIP3    H213641   3.958   4.887   6.587
 4562TIP3   OH213642   1.441   5.128   0.585
 4562TIP3    H113643   1.450   5.059   0.651
 4562TIP3    H213644   1.511   5.109   0.522
 4563TIP3   OH213645   7.165   4.076   6.300
 4563TIP3    H113646   7.121   4.014   6.358
 4563TIP3    H213647   7.114   4.156   6.307
 4564TIP3   OH213648   0.227   0.368   1.767
 4564TIP3    H113649   0.259   0.279   1.752
 4564TIP3    H213650   0.159   0.359   1.833
 4565TIP3   OH213651   3.875   3.000   6.708
 4565TIP3    H113652   3.874   3.093   6.731
 4565TIP3    H213653   3.967   2.975   6.713
 4566TIP3   OH213654   5.777   6.177   2.253
 4566TIP3    H113655   5.814   6.116   2.317
 4566TIP3    H213656   5.718   6.232   2.303
 4567TIP3   OH213657   0.326   4.321   5.587
 4567TIP3    H113658   0.323   4.391   5.522
 4567TIP3    H213659   0.327   4.241   5.536
 4568TIP3   OH213660   1.381   5.787   2.539
 4568TIP3    H113661   1.417   5.819   2.621
 4568TIP3    H213662   1.286   5.794   2.550
 4569TIP3   OH213663   1.076   2.629   3.005
 4569TIP3    H113664   1.083   2.580   3.087
 4569TIP3    H213665   0.982   2.627   2.984
 4570TIP3   OH213666   7.022   0.846   5.690
 4570TIP3    H113667   7.036   0.808   5.777
 4570TIP3    H213668   7.002   0.771   5.634
 4571TIP3   OH213669   3.400   3.490   2.550
 4571TIP3    H113670   3.441   3.502   2.636
 4571TIP3    H213671   3.440   3.557   2.495
 4572TIP3   OH213672   4.643   2.944   6.005
 4572TIP3    H113673   4.639   2.877   5.936
 4572TIP3    H213674   4.661   2.895   6.085
 4573TIP3   OH213675   5.509   4.838   1.647
 4573TIP3    H113676   5.530   4.846   1.554
 4573TIP3    H213677   5.550   4.756   1.674
 4574TIP3   OH213678   1.235   6.309   3.388
 4574TIP3    H113679   1.238   6.389   3.336
 4574TIP3    H213680   1.149   6.310   3.430
 4575TIP3   OH213681   3.296   5.256   3.057
 4575TIP3    H113682   3.211   5.218   3.077
 4575TIP3    H213683   3.297   5.340   3.104
 4576TIP3   OH213684   6.979   3.411   3.405
 4576TIP3    H113685   7.003   3.439   3.317
 4576TIP3    H213686   6.958   3.493   3.451
 4577TIP3   OH213687   2.502   1.410   2.560
 4577TIP3    H113688   2.415   1.450   2.571
 4577TIP3    H213689   2.484   1.320   2.534
 4578TIP3   OH213690   4.758   0.109   4.608
 4578TIP3    H113691   4.707   0.179   4.648
 4578TIP3    H213692   4.693   0.052   4.567
 4579TIP3   OH213693   1.504   7.118   0.036
 4579TIP3    H113694   1.575   7.179   0.014
 4579TIP3    H213695   1.520   7.094   0.127
 4580TIP3   OH213696   3.947   6.761   3.885
 4580TIP3    H113697   4.013   6.795   3.945
 4580TIP3    H213698   3.991   6.757   3.800
 4581TIP3   OH213699   1.539   0.761   2.746
 4581TIP3    H113700   1.573   0.676   2.717
 4581TIP3    H213701   1.609   0.823   2.726
 4582TIP3   OH213702   5.268   4.481   2.150
 4582TIP3    H113703   5.253   4.421   2.077
 4582TIP3    H213704   5.256   4.568   2.113
 4583TIP3   OH213705   2.050   4.321   4.910
 4583TIP3    H113706   1.971   4.291   4.955
 4583TIP3    H213707   2.068   4.407   4.948
 4584TIP3   OH213708   2.739   2.974   0.891
 4584TIP3    H113709   2.733   2.901   0.831
 4584TIP3    H213710   2.726   3.052   0.836
 4585TIP3   OH213711   2.502   4.765   1.070
 4585TIP3    H113712   2.523   4.820   0.995
 4585TIP3    H213713   2.411   4.738   1.056
 4586TIP3   OH213714   7.269   4.349   2.856
 4586TIP3    H113715   7.316   4.275   2.817
 4586TIP3    H213716   7.312   4.362   2.941
 4587TIP3   OH213717   1.399   7.795   6.494
 4587TIP3    H113718   1.335   7.861   6.469
 4587TIP3    H213719   1.445   7.832   6.570
 4588TIP3   OH213720   0.265   4.557   0.956
 4588TIP3    H113721   0.199   4.586   0.893
 4588TIP3    H213722   0.300   4.637   0.993
 4589TIP3   OH213723   4.665   6.554   2.867
 4589TIP3    H113724   4.591   6.541   2.807
 4589TIP3    H213725   4.655   6.485   2.932
 4590TIP3   OH213726   6.293   4.977   6.180
 4590TIP3    H113727   6.360   5.026   6.228
 4590TIP3    H213728   6.247   5.044   6.129
 4591TIP3   OH213729   4.482   3.679   2.561
 4591TIP3    H113730   4.549   3.618   2.592
 4591TIP3    H213731   4.439   3.711   2.641
 4592TIP3   OH213732   3.459   3.787   5.587
 4592TIP3    H113733   3.485   3.719   5.525
 4592TIP3    H213734   3.478   3.869   5.541
 4593TIP3   OH213735   6.005   6.406   6.550
 4593TIP3    H113736   6.032   6.411   6.642
 4593TIP3    H213737   6.086   6.417   6.500
 4594TIP3   OH213738   7.635   5.370   0.845
 4594TIP3    H113739   7.661   5.441   0.903
 4594TIP3    H213740   7.611   5.413   0.763
 4595TIP3   OH213741   0.471   4.804   4.065
 4595TIP3    H113742   0.405   4.756   4.015
 4595TIP3    H213743   0.472   4.761   4.150
 4596TIP3   OH213744   2.142   7.712   6.393
 4596TIP3    H113745   2.139   7.682   6.302
 4596TIP3    H213746   2.057   7.754   6.406
 4597TIP3   OH213747   1.858   5.268   2.978
 4597TIP3    H113748   1.920   5.320   2.926
 4597TIP3    H213749   1.877   5.178   2.954
 4598TIP3   OH213750   2.850   4.987   1.663
 4598TIP3    H113751   2.769   5.015   1.621
 4598TIP3    H213752   2.835   4.895   1.686
 4599TIP3   OH213753   6.047   3.694   1.147
 4599TIP3    H113754   6.071   3.674   1.056
 4599TIP3    H213755   5.958   3.727   1.142
 4600TIP3   OH213756   4.569   2.990   2.398
 4600TIP3    H113757   4.505   2.992   2.327
 4600TIP3    H213758   4.575   2.898   2.422
 4601TIP3   OH213759   6.526   1.765   3.521
 4601TIP3    H113760   6.501   1.692   3.578
 4601TIP3    H213761   6.613   1.790   3.552
 4602TIP3   OH213762   8.264   6.581   5.506
 4602TIP3    H113763   8.234   6.658   5.555
 4602TIP3    H213764   8.226   6.506   5.552
 4603TIP3   OH213765   3.494   1.157   4.279
 4603TIP3    H113766   3.515   1.238   4.326
 4603TIP3    H213767   3.525   1.088   4.337
 4604TIP3   OH213768   7.315   6.648   3.071
 4604TIP3    H113769   7.265   6.720   3.033
 4604TIP3    H213770   7.407   6.676   3.064
 4605TIP3   OH213771   6.607   5.750   3.554
 4605TIP3    H113772   6.566   5.783   3.634
 4605TIP3    H213773   6.555   5.789   3.484
 4606TIP3   OH213774   6.404   4.426   2.620
 4606TIP3    H113775   6.316   4.406   2.654
 4606TIP3    H213776   6.446   4.475   2.690
 4607TIP3   OH213777   6.533   1.234   1.059
 4607TIP3    H113778   6.613   1.285   1.074
 4607TIP3    H213779   6.468   1.299   1.031
 4608TIP3   OH213780   3.991   3.456   3.742
 4608TIP3    H113781   3.897   3.448   3.725
 4608TIP3    H213782   3.998   3.474   3.836
 4609TIP3   OH213783   3.836   2.220   5.644
 4609TIP3    H113784   3.870   2.214   5.733
 4609TIP3    H213785   3.753   2.172   5.646
 4610TIP3   OH213786   6.033   7.118   5.627
 4610TIP3    H113787   6.091   7.138   5.553
 4610TIP3    H213788   5.987   7.200   5.644
 4611TIP3   OH213789   4.883   0.968   0.413
 4611TIP3    H113790   4.959   1.008   0.371
 4611TIP3    H213791   4.856   0.899   0.352
 4612TIP3   OH213792   0.625   6.582   6.259
 4612TIP3    H113793   0.621   6.662   6.310
 4612TIP3    H213794   0.558   6.593   6.192
 4613TIP3   OH213795   7.853   4.153   1.504
 4613TIP3    H113796   7.864   4.235   1.552
 4613TIP3    H213797   7.778   4.111   1.547
 4614TIP3   OH213798   1.043   1.756   2.620
 4614TIP3    H113799   1.013   1.826   2.562
 4614TIP3    H213800   1.017   1.784   2.708
 4615TIP3   OH213801   5.349   3.272   4.909
 4615TIP3    H113802   5.377   3.360   4.883
 4615TIP3    H213803   5.391   3.258   4.994
 4616TIP3   OH213804   7.663   1.421   5.960
 4616TIP3    H113805   7.752   1.399   5.989
 4616TIP3    H213806   7.655   1.515   5.977
 4617TIP3   OH213807   0.884   5.514   0.186
 4617TIP3    H113808   0.966   5.518   0.236
 4617TIP3    H213809   0.816   5.540   0.247
 4618TIP3   OH213810   8.166   0.891   6.362
 4618TIP3    H113811   8.256   0.885   6.330
 4618TIP3    H213812   8.122   0.815   6.323
 4619TIP3   OH213813   2.862   7.089   2.346
 4619TIP3    H113814   2.796   7.056   2.407
 4619TIP3    H213815   2.875   7.180   2.371
 4620TIP3   OH213816   7.921   4.417   1.600
 4620TIP3    H113817   7.866   4.461   1.535
 4620TIP3    H213818   7.916   4.472   1.677
 4621TIP3   OH213819   8.250   5.566   2.225
 4621TIP3    H113820   8.199   5.564   2.144
 4621TIP3    H213821   8.336   5.599   2.198
 4622TIP3   OH213822   4.430   7.578   4.885
 4622TIP3    H113823   4.365   7.600   4.818
 4622TIP3    H213824   4.472   7.499   4.852
 4623TIP3   OH213825   5.778   5.520   2.369
 4623TIP3    H113826   5.753   5.517   2.462
 4623TIP3    H213827   5.842   5.592   2.364
 4624TIP3   OH213828   0.592   0.510   2.629
 4624TIP3    H113829   0.536   0.454   2.683
 4624TIP3    H213830   0.679   0.470   2.636
 4625TIP3   OH213831   0.102   5.294   1.658
 4625TIP3    H113832   0.163   5.368   1.654
 4625TIP3    H213833   0.157   5.217   1.641
 4626TIP3   OH213834   1.907   0.532   0.784
 4626TIP3    H113835   1.979   0.524   0.847
 4626TIP3    H213836   1.882   0.442   0.764
 4627TIP3   OH213837   5.702   7.132   5.872
 4627TIP3    H113838   5.656   7.050   5.857
 4627TIP3    H213839   5.636   7.192   5.906
 4628TIP3   OH213840   6.825   1.289   3.161
 4628TIP3    H113841   6.748   1.244   3.126
 4628TIP3    H213842   6.888   1.289   3.088
 4629TIP3   OH213843   2.704   0.583   2.651
 4629TIP3    H113844   2.716   0.511   2.589
 4629TIP3    H213845   2.662   0.541   2.727
 4630TIP3   OH213846   7.979   1.678   6.288
 4630TIP3    H113847   8.062   1.677   6.241
 4630TIP3    H213848   7.980   1.598   6.340
 4631TIP3   OH213849   7.476   4.610   2.605
 4631TIP3    H113850   7.530   4.648   2.674
 4631TIP3    H213851   7.386   4.632   2.630
 4632TIP3   OH213852   1.734   4.185   3.786
 4632TIP3    H113853   1.749   4.240   3.863
 4632TIP3    H213854   1.798   4.216   3.721
 4633TIP3   OH213855   8.053   4.077   3.881
 4633TIP3    H113856   7.977   4.125   3.848
 4633TIP3    H213857   8.071   4.116   3.966
 4634TIP3   OH213858   4.525   1.473   3.795
 4634TIP3    H113859   4.557   1.536   3.860
 4634TIP3    H213860   4.550   1.511   3.711
 4635TIP3   OH213861   3.724   6.943   2.804
 4635TIP3    H113862   3.755   6.950   2.713
 4635TIP3    H213863   3.785   6.997   2.854
 4636TIP3   OH213864   0.145   4.369   1.511
 4636TIP3    H113865   0.216   4.321   1.554
 4636TIP3    H213866   0.116   4.312   1.440
 4637TIP3   OH213867   4.141   2.465   5.383
 4637TIP3    H113868   4.052   2.430   5.378
 4637TIP3    H213869   4.197   2.390   5.361
 4638TIP3   OH213870   4.536   0.173   5.518
 4638TIP3    H113871   4.546   0.221   5.600
 4638TIP3    H213872   4.617   0.122   5.511
 4639TIP3   OH213873   0.944   1.470   3.846
 4639TIP3    H113874   0.883   1.454   3.774
 4639TIP3    H213875   0.935   1.394   3.903
 4640TIP3   OH213876   2.904   4.663   4.024
 4640TIP3    H113877   2.951   4.598   4.077
 4640TIP3    H213878   2.885   4.734   4.085
 4641TIP3   OH213879   8.252   5.408   3.642
 4641TIP3    H113880   8.243   5.456   3.724
 4641TIP3    H213881   8.345   5.385   3.638
 4642TIP3   OH213882   5.491   1.872   2.612
 4642TIP3    H113883   5.539   1.925   2.548
 4642TIP3    H213884   5.547   1.796   2.626
 4643TIP3   OH213885   5.098   1.488   1.065
 4643TIP3    H113886   5.125   1.570   1.107
 4643TIP3    H213887   5.047   1.443   1.133
 4644TIP3   OH213888   7.270   4.388   3.694
 4644TIP3    H113889   7.242   4.360   3.781
 4644TIP3    H213890   7.189   4.395   3.644
 4645TIP3   OH213891   5.964   1.401   4.351
 4645TIP3    H113892   5.934   1.476   4.402
 4645TIP3    H213893   5.998   1.340   4.417
 4646TIP3   OH213894   3.707   1.056   2.815
 4646TIP3    H113895   3.749   1.126   2.765
 4646TIP3    H213896   3.618   1.052   2.780
 4647TIP3   OH213897   2.681   2.037   2.399
 4647TIP3    H113898   2.763   2.084   2.408
 4647TIP3    H213899   2.697   1.951   2.437
 4648TIP3   OH213900   7.989   5.857   0.018
 4648TIP3    H113901   8.004   5.786   0.080
 4648TIP3    H213902   7.984   5.815  -0.068
 4649TIP3   OH213903   3.258   0.022   0.023
 4649TIP3    H113904   3.309  -0.050   0.059
 4649TIP3    H213905   3.204   0.053   0.095
 4650TIP3   OH213906   6.186   5.350   4.087
 4650TIP3    H113907   6.258   5.407   4.116
 4650TIP3    H213908   6.174   5.373   3.995
 4651TIP3   OH213909   7.574   5.902   1.494
 4651TIP3    H113910   7.563   5.996   1.507
 4651TIP3    H213911   7.486   5.866   1.508
 4652TIP3   OH213912   1.627   4.399   1.820
 4652TIP3    H113913   1.705   4.405   1.875
 4652TIP3    H213914   1.656   4.426   1.733
 4653TIP3   OH213915   4.471   2.157   1.619
 4653TIP3    H113916   4.478   2.249   1.644
 4653TIP3    H213917   4.381   2.149   1.587
 4654TIP3   OH213918   7.599   0.506   3.435
 4654TIP3    H113919   7.510   0.475   3.454
 4654TIP3    H213920   7.617   0.472   3.348
 4655TIP3   OH213921   0.434   1.602   4.819
 4655TIP3    H113922   0.400   1.517   4.793
 4655TIP3    H213923   0.409   1.661   4.748
 4656TIP3   OH213924   2.954   0.373   5.341
 4656TIP3    H113925   2.908   0.423   5.274
 4656TIP3    H213926   2.933   0.281   5.322
 4657TIP3   OH213927   2.361   4.024   1.000
 4657TIP3    H113928   2.409   4.059   0.925
 4657TIP3    H213929   2.424   4.030   1.073
 4658TIP3   OH213930   2.247   4.721   0.910
 4658TIP3    H113931   2.177   4.710   0.846
 4658TIP3    H213932   2.221   4.799   0.959
 4659TIP3   OH213933   3.114   0.677   5.969
 4659TIP3    H113934   3.048   0.713   6.028
 4659TIP3    H213935   3.068   0.608   5.921
 4660TIP3   OH213936   0.465   2.796   6.121
 4660TIP3    H113937   0.390   2.819   6.066
 4660TIP3    H213938   0.445   2.709   6.153
 4661TIP3   OH213939   2.730   7.666   4.170
 4661TIP3    H113940   2.758   7.694   4.258
 4661TIP3    H213941   2.635   7.659   4.176
 4662TIP3   OH213942   8.191   5.823   0.312
 4662TIP3    H113943   8.151   5.760   0.252
 4662TIP3    H213944   8.282   5.795   0.319
 4663TIP3   OH213945   1.508   1.363   5.770
 4663TIP3    H113946   1.577   1.399   5.713
 4663TIP3    H213947   1.504   1.424   5.844
 4664TIP3   OH213948   6.532   7.549   2.460
 4664TIP3    H113949   6.582   7.619   2.418
 4664TIP3    H213950   6.571   7.468   2.428
 4665TIP3   OH213951   1.765   2.419   6.597
 4665TIP3    H113952   1.689   2.427   6.539
 4665TIP3    H213953   1.759   2.495   6.655
 4666TIP3   OH213954   5.035   2.950   3.856
 4666TIP3    H113955   4.946   2.953   3.893
 4666TIP3    H213956   5.032   2.880   3.792
 4667TIP3   OH213957   1.127   2.527   3.599
 4667TIP3    H113958   1.144   2.449   3.652
 4667TIP3    H213959   1.068   2.580   3.652
 4668TIP3   OH213960   7.333   6.384   1.245
 4668TIP3    H113961   7.286   6.340   1.316
 4668TIP3    H213962   7.400   6.321   1.219
 4669TIP3   OH213963   3.987   4.583   2.496
 4669TIP3    H113964   3.991   4.662   2.549
 4669TIP3    H213965   3.935   4.607   2.420
 4670TIP3   OH213966   3.545   4.898   4.419
 4670TIP3    H113967   3.491   4.948   4.481
 4670TIP3    H213968   3.571   4.962   4.353
 4671TIP3   OH213969   1.775   0.690   1.899
 4671TIP3    H113970   1.812   0.768   1.940
 4671TIP3    H213971   1.730   0.722   1.821
 4672TIP3   OH213972   7.424   2.335   0.543
 4672TIP3    H113973   7.462   2.365   0.461
 4672TIP3    H213974   7.333   2.316   0.521
 4673TIP3   OH213975   4.032   3.669   0.908
 4673TIP3    H113976   3.942   3.639   0.891
 4673TIP3    H213977   4.068   3.686   0.821
 4674TIP3   OH213978   2.057   4.711   3.649
 4674TIP3    H113979   1.987   4.758   3.603
 4674TIP3    H213980   2.035   4.722   3.741
 4675TIP3   OH213981   1.832   5.688   0.837
 4675TIP3    H113982   1.893   5.728   0.899
 4675TIP3    H213983   1.814   5.601   0.873
 4676TIP3   OH213984   5.975   3.888   2.212
 4676TIP3    H113985   6.063   3.858   2.190
 4676TIP3    H213986   5.934   3.908   2.128
 4677TIP3   OH213987   4.905   4.718   4.830
 4677TIP3    H113988   4.912   4.709   4.735
 4677TIP3    H213989   4.915   4.811   4.847
 4678TIP3   OH213990   5.988   5.006   0.477
 4678TIP3    H113991   5.968   5.082   0.531
 4678TIP3    H213992   5.903   4.978   0.442
 4679TIP3   OH213993   8.146   2.950   1.262
 4679TIP3    H113994   8.168   3.033   1.304
 4679TIP3    H213995   8.078   2.912   1.318
 4680TIP3   OH213996   0.095   4.113   6.381
 4680TIP3    H113997   0.053   4.131   6.465
 4680TIP3    H213998   0.129   4.197   6.352
 4681TIP3   OH213999   1.536   7.198   5.050
 4681TIP3    H114000   1.459   7.242   5.015
 4681TIP3    H214001   1.522   7.105   5.030
 4682TIP3   OH214002   2.270   3.275   6.463
 4682TIP3    H114003   2.291   3.367   6.451
 4682TIP3    H214004   2.205   3.256   6.396
 4683TIP3   OH214005   0.221   2.425   3.696
 4683TIP3    H114006   0.310   2.391   3.704
 4683TIP3    H214007   0.228   2.518   3.718
 4684TIP3   OH214008   7.378   2.372   0.279
 4684TIP3    H114009   7.321   2.449   0.281
 4684TIP3    H214010   7.445   2.394   0.214
 4685TIP3   OH214011   3.497   7.550   5.935
 4685TIP3    H114012   3.593   7.549   5.940
 4685TIP3    H214013   3.478   7.604   5.858
 4686TIP3   OH214014   7.872   2.840   2.828
 4686TIP3    H114015   7.798   2.884   2.786
 4686TIP3    H214016   7.861   2.747   2.806
 4687TIP3   OH214017   7.972   4.579   0.026
 4687TIP3    H114018   7.903   4.553   0.087
 4687TIP3    H214019   7.926   4.597  -0.056
 4688TIP3   OH214020   1.914   1.717   1.880
 4688TIP3    H114021   1.903   1.690   1.971
 4688TIP3    H214022   1.983   1.784   1.883
 4689TIP3   OH214023   1.223   6.819   1.844
 4689TIP3    H114024   1.268   6.820   1.759
 4689TIP3    H214025   1.168   6.741   1.841
 4690TIP3   OH214026   4.367   4.311   5.787
 4690TIP3    H114027   4.316   4.236   5.820
 4690TIP3    H214028   4.386   4.288   5.696
 4691TIP3   OH214029   4.834   2.853   6.491
 4691TIP3    H114030   4.899   2.785   6.512
 4691TIP3    H214031   4.869   2.932   6.532
 4692TIP3   OH214032   0.001   0.385   6.499
 4692TIP3    H114033  -0.029   0.303   6.538
 4692TIP3    H214034   0.066   0.359   6.433
 4693TIP3   OH214035   0.641   0.492   6.655
 4693TIP3    H114036   0.646   0.534   6.569
 4693TIP3    H214037   0.696   0.546   6.711
 4694TIP3   OH214038   6.280   1.948   2.828
 4694TIP3    H114039   6.255   1.861   2.795
 4694TIP3    H214040   6.363   1.934   2.873
 4695TIP3   OH214041   4.220   0.977   5.313
 4695TIP3    H114042   4.252   1.066   5.296
 4695TIP3    H214043   4.146   0.990   5.373
 4696TIP3   OH214044   4.762   6.070   3.087
 4696TIP3    H114045   4.762   6.016   3.008
 4696TIP3    H214046   4.719   6.016   3.153
 4697TIP3   OH214047   0.265   4.985   6.695
 4697TIP3    H114048   0.349   4.950   6.727
 4697TIP3    H214049   0.259   4.953   6.605
 4698TIP3   OH214050   0.815   5.512   1.521
 4698TIP3    H114051   0.747   5.530   1.456
 4698TIP3    H214052   0.846   5.424   1.499
 4699TIP3   OH214053   0.398   6.610   5.292
 4699TIP3    H114054   0.353   6.694   5.304
 4699TIP3    H214055   0.365   6.577   5.209
 4700TIP3   OH214056   1.771   3.539   6.484
 4700TIP3    H114057   1.811   3.495   6.559
 4700TIP3    H214058   1.837   3.532   6.415
 4701TIP3   OH214059   6.259   6.972   1.225
 4701TIP3    H114060   6.283   6.883   1.249
 4701TIP3    H214061   6.256   6.972   1.130
 4702TIP3   OH214062   5.117   7.323   1.726
 4702TIP3    H114063   5.097   7.295   1.815
 4702TIP3    H214064   5.034   7.315   1.679
 4703TIP3   OH214065   4.069   2.887   5.631
 4703TIP3    H114066   4.045   2.978   5.647
 4703TIP3    H214067   4.092   2.852   5.716
 4704TIP3   OH214068   0.460   7.475   6.024
 4704TIP3    H114069   0.529   7.538   6.046
 4704TIP3    H214070   0.502   7.389   6.034
 4705TIP3   OH214071   8.050   2.978   2.392
 4705TIP3    H114072   8.139   3.009   2.407
 4705TIP3    H214073   7.997   3.023   2.458
 4706TIP3   OH214074   6.282   1.610   4.056
 4706TIP3    H114075   6.372   1.633   4.032
 4706TIP3    H214076   6.270   1.521   4.024
 4707TIP3   OH214077   0.114   0.425   6.092
 4707TIP3    H114078   0.065   0.349   6.124
 4707TIP3    H214079   0.051   0.475   6.041
 4708TIP3   OH214080   0.445   6.152   0.550
 4708TIP3    H114081   0.373   6.172   0.490
 4708TIP3    H214082   0.524   6.163   0.497
 4709TIP3   OH214083   7.147   6.786   2.859
 4709TIP3    H114084   7.125   6.826   2.775
 4709TIP3    H214085   7.102   6.702   2.858
 4710TIP3   OH214086   3.426   4.508   1.036
 4710TIP3    H114087   3.499   4.481   1.092
 4710TIP3    H214088   3.354   4.523   1.096
 4711TIP3   OH214089   5.752   7.277   3.648
 4711TIP3    H114090   5.748   7.358   3.598
 4711TIP3    H214091   5.671   7.277   3.700
 4712TIP3   OH214092   7.518   4.896   5.129
 4712TIP3    H114093   7.593   4.924   5.181
 4712TIP3    H214094   7.557   4.859   5.050
 4713TIP3   OH214095   7.995   6.814   3.329
 4713TIP3    H114096   7.936   6.874   3.374
 4713TIP3    H214097   8.076   6.816   3.380
 4714TIP3   OH214098   1.237   2.792   4.111
 4714TIP3    H114099   1.252   2.731   4.038
 4714TIP3    H214100   1.325   2.806   4.147
 4715TIP3   OH214101   3.981   5.067   3.419
 4715TIP3    H114102   4.029   5.148   3.434
 4715TIP3    H214103   4.003   5.041   3.330
 4716TIP3   OH214104   1.203   5.161   0.464
 4716TIP3    H114105   1.293   5.149   0.492
 4716TIP3    H214106   1.158   5.081   0.491
 4717TIP3   OH214107   6.354   2.964   0.230
 4717TIP3    H114108   6.333   2.968   0.137
 4717TIP3    H214109   6.429   2.905   0.236
 4718TIP3   OH214110   6.038   7.023   1.599
 4718TIP3    H114111   6.107   7.016   1.664
 4718TIP3    H214112   5.956   7.017   1.649
 4719TIP3   OH214113   7.910   0.097   0.228
 4719TIP3    H114114   7.879   0.011   0.256
 4719TIP3    H214115   7.921   0.146   0.310
 4720TIP3   OH214116   1.534   7.216   2.698
 4720TIP3    H114117   1.442   7.241   2.712
 4720TIP3    H214118   1.584   7.289   2.734
 4721TIP3   OH214119   6.906   1.646   2.739
 4721TIP3    H114120   6.980   1.648   2.800
 4721TIP3    H214121   6.833   1.681   2.789
 4722TIP3   OH214122   0.531   3.352   3.214
 4722TIP3    H114123   0.488   3.322   3.134
 4722TIP3    H214124   0.481   3.429   3.241
 4723TIP3   OH214125   6.516   4.654   5.108
 4723TIP3    H114126   6.491   4.586   5.046
 4723TIP3    H214127   6.607   4.634   5.131
 4724TIP3   OH214128   5.590   4.560   3.376
 4724TIP3    H114129   5.596   4.556   3.281
 4724TIP3    H214130   5.648   4.491   3.408
 4725TIP3   OH214131   7.600   1.330   1.659
 4725TIP3    H114132   7.643   1.388   1.723
 4725TIP3    H214133   7.658   1.254   1.653
 4726TIP3   OH214134   3.766   5.282   1.987
 4726TIP3    H114135   3.733   5.201   2.026
 4726TIP3    H214136   3.829   5.253   1.922
 4727TIP3   OH214137   0.097   6.511   3.504
 4727TIP3    H114138   0.182   6.505   3.548
 4727TIP3    H214139   0.114   6.566   3.427
 4728TIP3   OH214140   2.515   6.682   4.156
 4728TIP3    H114141   2.451   6.704   4.223
 4728TIP3    H214142   2.548   6.767   4.124
 4729TIP3   OH214143   0.976   2.276   4.070
 4729TIP3    H114144   0.979   2.371   4.060
 4729TIP3    H214145   1.067   2.248   4.061
 4730TIP3   OH214146   5.131   7.563   2.698
 4730TIP3    H114147   5.065   7.518   2.644
 4730TIP3    H214148   5.196   7.495   2.717
 4731TIP3   OH214149   2.890   6.869   4.835
 4731TIP3    H114150   2.896   6.957   4.872
 4731TIP3    H214151   2.836   6.821   4.898
 4732TIP3   OH214152   6.740   7.399   2.352
 4732TIP3    H114153   6.830   7.430   2.351
 4732TIP3    H214154   6.747   7.304   2.361
 4733TIP3   OH214155   5.890   2.635   6.457
 4733TIP3    H114156   5.895   2.602   6.368
 4733TIP3    H214157   5.860   2.725   6.448
 4734TIP3   OH214158   7.355   3.266   2.974
 4734TIP3    H114159   7.416   3.248   3.046
 4734TIP3    H214160   7.343   3.361   2.977
 4735TIP3   OH214161   3.880   4.610   6.052
 4735TIP3    H114162   3.861   4.604   5.958
 4735TIP3    H214163   3.831   4.538   6.091
 4736TIP3   OH214164   5.100   6.234   0.457
 4736TIP3    H114165   5.165   6.178   0.414
 4736TIP3    H214166   5.086   6.194   0.543
 4737TIP3   OH214167   0.327   1.818   5.244
 4737TIP3    H114168   0.298   1.793   5.331
 4737TIP3    H214169   0.381   1.896   5.258
 4738TIP3   OH214170   0.724   4.169   2.436
 4738TIP3    H114171   0.798   4.108   2.445
 4738TIP3    H214172   0.708   4.174   2.342
 4739TIP3   OH214173   4.457   2.189   4.059
 4739TIP3    H114174   4.553   2.185   4.055
 4739TIP3    H214175   4.431   2.106   4.099
 4740TIP3   OH214176   4.552   6.137   4.957
 4740TIP3    H114177   4.529   6.226   4.934
 4740TIP3    H214178   4.469   6.096   4.982
 4741TIP3   OH214179   7.215   7.724   1.737
 4741TIP3    H114180   7.138   7.725   1.679
 4741TIP3    H214181   7.260   7.642   1.716
 4742TIP3   OH214182   0.896   1.482   3.345
 4742TIP3    H114183   0.847   1.477   3.262
 4742TIP3    H214184   0.909   1.575   3.360
 4743TIP3   OH214185   0.774   1.202   2.353
 4743TIP3    H114186   0.832   1.217   2.428
 4743TIP3    H214187   0.815   1.130   2.305
 4744TIP3   OH214188   5.638   3.630   2.684
 4744TIP3    H114189   5.561   3.587   2.646
 4744TIP3    H214190   5.710   3.570   2.665
 4745TIP3   OH214191   3.128   2.126   6.048
 4745TIP3    H114192   3.157   2.213   6.020
 4745TIP3    H214193   3.106   2.138   6.140
 4746TIP3   OH214194   5.195   5.371   5.319
 4746TIP3    H114195   5.267   5.410   5.369
 4746TIP3    H214196   5.217   5.278   5.313
 4747TIP3   OH214197   4.561   0.430   4.351
 4747TIP3    H114198   4.595   0.482   4.278
 4747TIP3    H214199   4.626   0.439   4.420
 4748TIP3   OH214200   3.943   0.716   6.551
 4748TIP3    H114201   3.979   0.717   6.463
 4748TIP3    H214202   3.901   0.630   6.559
 4749TIP3   OH214203   0.599   6.453   3.108
 4749TIP3    H114204   0.586   6.381   3.047
 4749TIP3    H214205   0.517   6.501   3.107
 4750TIP3   OH214206   2.003   3.005   5.845
 4750TIP3    H114207   2.088   2.964   5.862
 4750TIP3    H214208   1.939   2.937   5.866
 4751TIP3   OH214209   7.009   3.497   4.675
 4751TIP3    H114210   7.073   3.539   4.733
 4751TIP3    H214211   7.059   3.427   4.632
 4752TIP3   OH214212   2.295   0.274   1.889
 4752TIP3    H114213   2.344   0.356   1.890
 4752TIP3    H214214   2.351   0.213   1.840
 4753TIP3   OH214215   2.077   7.687   0.525
 4753TIP3    H114216   2.141   7.709   0.593
 4753TIP3    H214217   2.009   7.754   0.533
 4754TIP3   OH214218   7.335   2.077   3.492
 4754TIP3    H114219   7.284   2.006   3.454
 4754TIP3    H214220   7.370   2.124   3.416
 4755TIP3   OH214221   3.909   1.642   2.669
 4755TIP3    H114222   3.814   1.635   2.674
 4755TIP3    H214223   3.941   1.570   2.723
 4756TIP3   OH214224   3.536   3.868   1.755
 4756TIP3    H114225   3.548   3.951   1.710
 4756TIP3    H214226   3.598   3.808   1.712
 4757TIP3   OH214227   0.608   3.831   4.738
 4757TIP3    H114228   0.683   3.863   4.688
 4757TIP3    H214229   0.537   3.891   4.717
 4758TIP3   OH214230   1.152   4.183   6.192
 4758TIP3    H114231   1.058   4.184   6.172
 4758TIP3    H214232   1.173   4.274   6.211
 4759TIP3   OH214233   0.034   2.965   5.669
 4759TIP3    H114234   0.076   2.882   5.647
 4759TIP3    H214235  -0.041   2.941   5.723
 4760TIP3   OH214236   7.113   3.482   2.808
 4760TIP3    H114237   7.131   3.516   2.720
 4760TIP3    H214238   7.042   3.536   2.841
 4761TIP3   OH214239   5.767   3.267   0.804
 4761TIP3    H114240   5.686   3.310   0.775
 4761TIP3    H214241   5.796   3.218   0.727
 4762TIP3   OH214242   4.900   7.035   5.929
 4762TIP3    H114243   4.910   7.010   6.020
 4762TIP3    H214244   4.901   6.952   5.881
 4763TIP3   OH214245   6.761   0.957   0.750
 4763TIP3    H114246   6.822   0.992   0.685
 4763TIP3    H214247   6.728   1.034   0.796
 4764TIP3   OH214248   1.577   1.807   3.452
 4764TIP3    H114249   1.625   1.844   3.526
 4764TIP3    H214250   1.486   1.802   3.481
 4765TIP3   OH214251   1.331   4.634   3.624
 4765TIP3    H114252   1.297   4.693   3.556
 4765TIP3    H214253   1.426   4.641   3.616
 4766TIP3   OH214254   5.062   2.591   5.142
 4766TIP3    H114255   5.023   2.581   5.229
 4766TIP3    H214256   4.988   2.602   5.083
 4767TIP3   OH214257   0.360   5.694   5.885
 4767TIP3    H114258   0.379   5.650   5.967
 4767TIP3    H214259   0.291   5.642   5.844
 4768TIP3   OH214260   5.579   4.252   5.934
 4768TIP3    H114261   5.548   4.279   6.020
 4768TIP3    H214262   5.575   4.332   5.881
 4769TIP3   OH214263   7.174   2.578   3.908
 4769TIP3    H114264   7.144   2.512   3.970
 4769TIP3    H214265   7.170   2.534   3.823
 4770TIP3   OH214266   1.527   0.479   1.690
 4770TIP3    H114267   1.446   0.442   1.656
 4770TIP3    H214268   1.568   0.407   1.738
 4771TIP3   OH214269   2.081   4.275   2.120
 4771TIP3    H114270   2.156   4.242   2.072
 4771TIP3    H214271   2.109   4.276   2.211
 4772TIP3   OH214272   0.675   6.818   4.293
 4772TIP3    H114273   0.677   6.723   4.292
 4772TIP3    H214274   0.745   6.845   4.234
 4773TIP3   OH214275   2.251   3.864   0.512
 4773TIP3    H114276   2.296   3.869   0.427
 4773TIP3    H214277   2.160   3.847   0.489
 4774TIP3   OH214278   4.569   4.670   2.736
 4774TIP3    H114279   4.637   4.615   2.773
 4774TIP3    H214280   4.498   4.609   2.714
 4775TIP3   OH214281   0.647   2.504   0.143
 4775TIP3    H114282   0.554   2.483   0.154
 4775TIP3    H214283   0.670   2.466   0.059
 4776TIP3   OH214284   5.066   3.092   4.532
 4776TIP3    H114285   4.994   3.075   4.593
 4776TIP3    H214286   5.136   3.128   4.587
 4777TIP3   OH214287   4.304   7.564   2.759
 4777TIP3    H114288   4.249   7.494   2.724
 4777TIP3    H214289   4.382   7.520   2.792
 4778TIP3   OH214290   1.224   5.722   2.927
 4778TIP3    H114291   1.281   5.646   2.917
 4778TIP3    H214292   1.277   5.786   2.974
 4779TIP3   OH214293   1.650   1.013   5.275
 4779TIP3    H114294   1.575   0.956   5.294
 4779TIP3    H214295   1.618   1.101   5.293
 4780TIP3   OH214296   3.046   1.987   5.849
 4780TIP3    H114297   3.082   2.045   5.916
 4780TIP3    H214298   3.120   1.933   5.822
 4781TIP3   OH214299   2.849   2.339   5.217
 4781TIP3    H114300   2.812   2.424   5.240
 4781TIP3    H214301   2.779   2.295   5.168
 4782TIP3   OH214302   3.243   4.043   6.737
 4782TIP3    H114303   3.330   4.013   6.711
 4782TIP3    H214304   3.192   4.045   6.656
 4783TIP3   OH214305   0.301   0.854   3.792
 4783TIP3    H114306   0.262   0.792   3.731
 4783TIP3    H214307   0.231   0.873   3.855
 4784TIP3   OH214308   1.970   3.646   0.911
 4784TIP3    H114309   2.062   3.666   0.929
 4784TIP3    H214310   1.929   3.641   0.998
 4785TIP3   OH214311   2.415   0.878   1.528
 4785TIP3    H114312   2.504   0.864   1.496
 4785TIP3    H214313   2.420   0.961   1.576
 4786TIP3   OH214314   6.383   2.084   2.026
 4786TIP3    H114315   6.472   2.115   2.046
 4786TIP3    H214316   6.376   2.092   1.931
 4787TIP3   OH214317   5.161   0.783   4.321
 4787TIP3    H114318   5.141   0.847   4.390
 4787TIP3    H214319   5.075   0.756   4.288
 4788TIP3   OH214320   7.938   3.813   0.342
 4788TIP3    H114321   7.887   3.820   0.422
 4788TIP3    H214322   8.023   3.780   0.370
 4789TIP3   OH214323   2.146   0.145   1.412
 4789TIP3    H114324   2.215   0.211   1.415
 4789TIP3    H214325   2.148   0.105   1.499
 4790TIP3   OH214326   4.367   4.946   1.968
 4790TIP3    H114327   4.322   4.876   2.016
 4790TIP3    H214328   4.380   4.910   1.880
 4791TIP3   OH214329   4.426   6.823   1.449
 4791TIP3    H114330   4.491   6.764   1.488
 4791TIP3    H214331   4.466   6.852   1.367
 4792TIP3   OH214332   1.305   6.987   1.097
 4792TIP3    H114333   1.311   6.980   1.001
 4792TIP3    H214334   1.221   7.030   1.112
 4793TIP3   OH214335   7.776   2.990   1.045
 4793TIP3    H114336   7.709   2.945   1.097
 4793TIP3    H214337   7.807   2.923   0.984
 4794TIP3   OH214338   5.892   1.856   0.395
 4794TIP3    H114339   5.900   1.838   0.488
 4794TIP3    H214340   5.849   1.941   0.391
 4795TIP3   OH214341   3.249   7.022   0.353
 4795TIP3    H114342   3.246   7.103   0.302
 4795TIP3    H214343   3.298   7.044   0.432
 4796TIP3   OH214344   1.957   3.115   2.207
 4796TIP3    H114345   1.916   3.059   2.141
 4796TIP3    H214346   1.896   3.116   2.280
 4797TIP3   OH214347   6.025   5.746   2.750
 4797TIP3    H114348   5.933   5.734   2.728
 4797TIP3    H214349   6.033   5.837   2.777
 4798TIP3   OH214350   0.524   7.086   1.432
 4798TIP3    H114351   0.588   7.155   1.413
 4798TIP3    H214352   0.577   7.007   1.442
 4799TIP3   OH214353   3.887   4.936   6.300
 4799TIP3    H114354   3.897   5.006   6.235
 4799TIP3    H214355   3.942   4.963   6.373
 4800TIP3   OH214356   6.669   6.685   2.669
 4800TIP3    H114357   6.689   6.633   2.592
 4800TIP3    H214358   6.574   6.685   2.674
 4801TIP3   OH214359   2.080   2.559   6.006
 4801TIP3    H114360   2.173   2.539   6.013
 4801TIP3    H214361   2.045   2.494   5.946
 4802TIP3   OH214362   6.407   4.129   3.005
 4802TIP3    H114363   6.449   4.186   2.940
 4802TIP3    H214364   6.429   4.041   2.977
 4803TIP3   OH214365   5.834   7.431   6.037
 4803TIP3    H114366   5.834   7.396   6.126
 4803TIP3    H214367   5.746   7.466   6.024
 4804TIP3   OH214368   4.711   5.695   1.796
 4804TIP3    H114369   4.647   5.630   1.766
 4804TIP3    H214370   4.789   5.643   1.814
 4805TIP3   OH214371   8.288   5.453   5.474
 4805TIP3    H114372   8.334   5.441   5.558
 4805TIP3    H214373   8.238   5.373   5.462
 4806TIP3   OH214374   7.852   5.788   3.956
 4806TIP3    H114375   7.771   5.784   4.007
 4806TIP3    H214376   7.842   5.865   3.901
 4807TIP3   OH214377   3.906   2.718   5.953
 4807TIP3    H114378   3.857   2.785   6.002
 4807TIP3    H214379   3.982   2.765   5.919
 4808TIP3   OH214380   3.807   5.843   4.562
 4808TIP3    H114381   3.812   5.815   4.470
 4808TIP3    H214382   3.715   5.834   4.585
 4809TIP3   OH214383   3.766   3.707   5.454
 4809TIP3    H114384   3.683   3.660   5.443
 4809TIP3    H214385   3.807   3.703   5.368
 4810TIP3   OH214386   1.323   2.743   4.540
 4810TIP3    H114387   1.273   2.715   4.617
 4810TIP3    H214388   1.405   2.693   4.545
 4811TIP3   OH214389   3.002   2.866   4.062
 4811TIP3    H114390   2.926   2.902   4.015
 4811TIP3    H214391   3.057   2.828   3.993
 4812TIP3   OH214392   2.109   3.632   2.384
 4812TIP3    H114393   2.037   3.629   2.447
 4812TIP3    H214394   2.077   3.585   2.308
 4813TIP3   OH214395   6.868   6.537   2.495
 4813TIP3    H114396   6.903   6.457   2.534
 4813TIP3    H214397   6.929   6.606   2.523
 4814TIP3   OH214398   5.656   1.339   0.186
 4814TIP3    H114399   5.710   1.416   0.168
 4814TIP3    H214400   5.679   1.276   0.117
 4815TIP3   OH214401   6.330   1.859   3.765
 4815TIP3    H114402   6.370   1.854   3.852
 4815TIP3    H214403   6.259   1.795   3.767
 4816TIP3   OH214404   2.077   7.150   3.303
 4816TIP3    H114405   2.106   7.238   3.326
 4816TIP3    H214406   2.111   7.094   3.373
 4817TIP3   OH214407   1.355   1.791   2.487
 4817TIP3    H114408   1.385   1.785   2.396
 4817TIP3    H214409   1.343   1.885   2.502
 4818TIP3   OH214410   0.956   1.545   0.730
 4818TIP3    H114411   0.935   1.610   0.663
 4818TIP3    H214412   0.917   1.580   0.810
 4819TIP3   OH214413   5.623   4.596   5.492
 4819TIP3    H114414   5.539   4.560   5.521
 4819TIP3    H214415   5.608   4.690   5.486
 4820TIP3   OH214416   7.227   7.614   2.834
 4820TIP3    H114417   7.235   7.526   2.799
 4820TIP3    H214418   7.283   7.614   2.913
 4821TIP3   OH214419   7.899   6.527   4.273
 4821TIP3    H114420   7.823   6.556   4.222
 4821TIP3    H214421   7.878   6.555   4.363
 4822TIP3   OH214422   5.072   2.558   4.191
 4822TIP3    H114423   5.038   2.640   4.225
 4822TIP3    H214424   4.995   2.504   4.174
 4823TIP3   OH214425   5.808   3.052   5.896
 4823TIP3    H114426   5.765   3.102   5.826
 4823TIP3    H214427   5.897   3.038   5.863
 4824TIP3   OH214428   0.111   1.716   5.055
 4824TIP3    H114429   0.190   1.762   5.085
 4824TIP3    H214430   0.133   1.685   4.967
 4825TIP3   OH214431   3.794   5.989   3.349
 4825TIP3    H114432   3.723   5.954   3.294
 4825TIP3    H214433   3.826   6.065   3.301
 4826TIP3   OH214434   7.323   7.264   2.651
 4826TIP3    H114435   7.400   7.319   2.665
 4826TIP3    H214436   7.350   7.177   2.681
 4827TIP3   OH214437   7.071   1.846   6.349
 4827TIP3    H114438   7.077   1.918   6.286
 4827TIP3    H214439   6.984   1.809   6.335
 4828TIP3   OH214440   0.175   6.678   2.098
 4828TIP3    H114441   0.240   6.742   2.071
 4828TIP3    H214442   0.091   6.725   2.096
 4829TIP3   OH214443   7.914   6.148   4.510
 4829TIP3    H114444   7.986   6.086   4.521
 4829TIP3    H214445   7.838   6.105   4.551
 4830TIP3   OH214446   5.515   6.887   3.151
 4830TIP3    H114447   5.587   6.858   3.208
 4830TIP3    H214448   5.471   6.806   3.126
 4831TIP3   OH214449   5.292   1.522   5.352
 4831TIP3    H114450   5.266   1.548   5.263
 4831TIP3    H214451   5.386   1.507   5.345
 4832TIP3   OH214452   3.767   2.367   6.192
 4832TIP3    H114453   3.819   2.342   6.115
 4832TIP3    H214454   3.761   2.463   6.185
 4833TIP3   OH214455   2.404   0.153   0.738
 4833TIP3    H114456   2.333   0.166   0.801
 4833TIP3    H214457   2.484   0.168   0.789
 4834TIP3   OH214458   4.038   6.636   1.952
 4834TIP3    H114459   3.986   6.560   1.923
 4834TIP3    H214460   4.095   6.600   2.020
 4835TIP3   OH214461   1.685   6.977   3.825
 4835TIP3    H114462   1.725   7.021   3.751
 4835TIP3    H214463   1.758   6.957   3.884
 4836TIP3   OH214464   4.941   6.562   2.185
 4836TIP3    H114465   4.856   6.523   2.162
 4836TIP3    H214466   4.921   6.654   2.203
 4837TIP3   OH214467   5.033   2.147   0.942
 4837TIP3    H114468   5.070   2.222   0.896
 4837TIP3    H214469   5.098   2.125   1.009
 4838TIP3   OH214470   8.113   5.329   2.787
 4838TIP3    H114471   8.104   5.301   2.696
 4838TIP3    H214472   8.118   5.424   2.784
 4839TIP3   OH214473   2.662   0.185   3.781
 4839TIP3    H114474   2.627   0.233   3.856
 4839TIP3    H214475   2.618   0.100   3.784
 4840TIP3   OH214476   5.624   2.283   3.940
 4840TIP3    H114477   5.638   2.335   3.861
 4840TIP3    H214478   5.710   2.281   3.983
 4841TIP3   OH214479   5.204   6.074   2.889
 4841TIP3    H114480   5.186   6.167   2.899
 4841TIP3    H214481   5.121   6.035   2.863
 4842TIP3   OH214482   0.081   5.988   6.180
 4842TIP3    H114483   0.079   5.906   6.228
 4842TIP3    H214484   0.031   5.971   6.101
 4843TIP3   OH214485   0.608   2.472   0.600
 4843TIP3    H114486   0.553   2.478   0.678
 4843TIP3    H214487   0.688   2.428   0.629
 4844TIP3   OH214488   0.096   7.688   5.335
 4844TIP3    H114489   0.146   7.661   5.258
 4844TIP3    H214490   0.016   7.636   5.331
 4845TIP3   OH214491   5.980   7.610   5.163
 4845TIP3    H114492   6.019   7.635   5.246
 4845TIP3    H214493   6.054   7.583   5.108
 4846TIP3   OH214494   2.769   2.953   3.971
 4846TIP3    H114495   2.750   2.913   3.886
 4846TIP3    H214496   2.707   2.912   4.031
 4847TIP3   OH214497   5.932   7.577   4.335
 4847TIP3    H114498   6.000   7.644   4.335
 4847TIP3    H214499   5.856   7.619   4.377
 4848TIP3   OH214500   5.101   5.904   0.096
 4848TIP3    H114501   5.131   5.917   0.006
 4848TIP3    H214502   5.007   5.923   0.093
 4849TIP3   OH214503   3.071   5.842   3.035
 4849TIP3    H114504   3.139   5.812   3.094
 4849TIP3    H214505   3.083   5.790   2.955
 4850TIP3   OH214506   5.295   4.121   4.752
 4850TIP3    H114507   5.206   4.087   4.749
 4850TIP3    H214508   5.290   4.198   4.808
 4851TIP3   OH214509   7.526   2.090   1.959
 4851TIP3    H114510   7.575   2.016   1.993
 4851TIP3    H214511   7.559   2.103   1.870
 4852TIP3   OH214512   4.406   7.686   5.577
 4852TIP3    H114513   4.391   7.600   5.538
 4852TIP3    H214514   4.493   7.680   5.616
 4853TIP3   OH214515   5.994   1.793   5.002
 4853TIP3    H114516   5.955   1.860   4.946
 4853TIP3    H214517   6.088   1.803   4.991
 4854TIP3   OH214518   6.279   6.436   3.185
 4854TIP3    H114519   6.240   6.480   3.110
 4854TIP3    H214520   6.223   6.361   3.202
 4855TIP3   OH214521   4.484   5.545   3.704
 4855TIP3    H114522   4.418   5.487   3.665
 4855TIP3    H214523   4.462   5.632   3.669
 4856TIP3   OH214524   3.936   3.414   5.265
 4856TIP3    H114525   4.010   3.381   5.316
 4856TIP3    H214526   3.860   3.371   5.304
 4857TIP3   OH214527   0.408   5.273   0.020
 4857TIP3    H114528   0.365   5.234   0.097
 4857TIP3    H214529   0.468   5.337   0.057
 4858TIP3   OH214530   5.324   2.213   1.437
 4858TIP3    H114531   5.340   2.299   1.397
 4858TIP3    H214532   5.359   2.221   1.526
 4859TIP3   OH214533   1.465   5.041   1.834
 4859TIP3    H114534   1.502   4.963   1.794
 4859TIP3    H214535   1.463   5.106   1.764
 4860TIP3   OH214536   5.757   7.241   2.533
 4860TIP3    H114537   5.826   7.279   2.478
 4860TIP3    H214538   5.733   7.311   2.594
 4861TIP3   OH214539   0.354   2.078   4.902
 4861TIP3    H114540   0.378   1.998   4.856
 4861TIP3    H214541   0.420   2.087   4.971
 4862TIP3   OH214542   1.209   3.103   1.368
 4862TIP3    H114543   1.248   3.173   1.420
 4862TIP3    H214544   1.117   3.128   1.360
 4863TIP3   OH214545   5.270   7.255   3.892
 4863TIP3    H114546   5.201   7.211   3.842
 4863TIP3    H214547   5.284   7.198   3.968
 4864TIP3   OH214548   6.599   4.494   3.057
 4864TIP3    H114549   6.594   4.570   3.115
 4864TIP3    H214550   6.508   4.478   3.030
 4865TIP3   OH214551   0.615   4.560   4.877
 4865TIP3    H114552   0.627   4.481   4.824
 4865TIP3    H214553   0.689   4.616   4.852
 4866TIP3   OH214554   7.195   4.162   0.731
 4866TIP3    H114555   7.131   4.094   0.712
 4866TIP3    H214556   7.240   4.177   0.648
 4867TIP3   OH214557   5.921   2.645   0.381
 4867TIP3    H114558   5.827   2.651   0.367
 4867TIP3    H214559   5.938   2.702   0.456
 4868TIP3   OH214560   3.287   6.371   2.558
 4868TIP3    H114561   3.343   6.296   2.577
 4868TIP3    H214562   3.329   6.415   2.485
 4869TIP3   OH214563   4.614   1.083   5.192
 4869TIP3    H114564   4.587   1.173   5.169
 4869TIP3    H214565   4.549   1.027   5.149
 4870TIP3   OH214566   6.020   2.216   5.983
 4870TIP3    H114567   5.998   2.263   5.903
 4870TIP3    H214568   6.107   2.180   5.966
 4871TIP3   OH214569   5.884   4.471   0.460
 4871TIP3    H114570   5.977   4.491   0.474
 4871TIP3    H214571   5.842   4.493   0.543
 4872TIP3   OH214572   6.823   3.293   4.774
 4872TIP3    H114573   6.875   3.259   4.846
 4872TIP3    H214574   6.871   3.370   4.744
 4873TIP3   OH214575   1.640  -0.014   1.072
 4873TIP3    H114576   1.659  -0.102   1.041
 4873TIP3    H214577   1.651   0.042   0.995
 4874TIP3   OH214578   3.691   7.001   0.344
 4874TIP3    H114579   3.784   7.005   0.367
 4874TIP3    H214580   3.655   6.937   0.406
 4875TIP3   OH214581   8.093   5.207   5.409
 4875TIP3    H114582   8.122   5.119   5.432
 4875TIP3    H214583   8.033   5.232   5.480
 4876TIP3   OH214584   7.250   4.622   2.230
 4876TIP3    H114585   7.344   4.632   2.245
 4876TIP3    H214586   7.242   4.537   2.187
 4877TIP3   OH214587   5.233   3.185   2.058
 4877TIP3    H114588   5.299   3.252   2.078
 4877TIP3    H214589   5.188   3.169   2.141
 4878TIP3   OH214590   1.877   7.808   6.064
 4878TIP3    H114591   1.808   7.803   5.998
 4878TIP3    H214592   1.927   7.886   6.040
 4879TIP3   OH214593   7.913   2.748   0.917
 4879TIP3    H114594   8.007   2.766   0.924
 4879TIP3    H214595   7.904   2.656   0.943
 4880TIP3   OH214596   0.739   1.548   6.321
 4880TIP3    H114597   0.827   1.536   6.287
 4880TIP3    H214598   0.727   1.477   6.383
 4881TIP3   OH214599   0.952   5.754   3.391
 4881TIP3    H114600   0.969   5.825   3.329
 4881TIP3    H214601   0.860   5.733   3.378
 4882TIP3   OH214602   7.692   6.286   1.460
 4882TIP3    H114603   7.762   6.282   1.525
 4882TIP3    H214604   7.617   6.244   1.502
 4883TIP3   OH214605   5.788   5.023   6.676
 4883TIP3    H114606   5.796   4.959   6.605
 4883TIP3    H214607   5.700   5.010   6.712
 4884TIP3   OH214608   6.756   3.333   2.812
 4884TIP3    H114609   6.846   3.306   2.797
 4884TIP3    H214610   6.763   3.409   2.869
 4885TIP3   OH214611   7.130   0.381   4.904
 4885TIP3    H114612   7.072   0.316   4.942
 4885TIP3    H214613   7.218   0.354   4.931
 4886TIP3   OH214614   3.696   7.175   1.432
 4886TIP3    H114615   3.696   7.091   1.477
 4886TIP3    H214616   3.739   7.235   1.493
 4887TIP3   OH214617   2.374   0.532   1.991
 4887TIP3    H114618   2.287   0.565   1.969
 4887TIP3    H214619   2.377   0.534   2.086
 4888TIP3   OH214620   0.695   0.316   6.402
 4888TIP3    H114621   0.608   0.283   6.378
 4888TIP3    H214622   0.695   0.315   6.498
 4889TIP3   OH214623   6.412   1.961   5.055
 4889TIP3    H114624   6.386   2.040   5.103
 4889TIP3    H214625   6.486   1.989   5.000
 4890TIP3   OH214626   6.697   0.175   3.121
 4890TIP3    H114627   6.699   0.097   3.065
 4890TIP3    H214628   6.763   0.233   3.084
 4891TIP3   OH214629   8.034   1.829   6.526
 4891TIP3    H114630   8.094   1.893   6.564
 4891TIP3    H214631   8.083   1.790   6.454
 4892TIP3   OH214632   3.866   7.563   3.629
 4892TIP3    H114633   3.862   7.497   3.561
 4892TIP3    H214634   3.776   7.575   3.658
 4893TIP3   OH214635   1.072   5.168   4.572
 4893TIP3    H114636   1.140   5.156   4.638
 4893TIP3    H214637   1.039   5.256   4.587
 4894TIP3   OH214638   2.415   2.127   6.428
 4894TIP3    H114639   2.345   2.109   6.491
 4894TIP3    H214640   2.426   2.223   6.432
 4895TIP3   OH214641   7.299   0.215   5.057
 4895TIP3    H114642   7.205   0.224   5.069
 4895TIP3    H214643   7.333   0.204   5.146
 4896TIP3   OH214644   2.859   7.760   1.542
 4896TIP3    H114645   2.898   7.809   1.615
 4896TIP3    H214646   2.775   7.802   1.527
 4897TIP3   OH214647   6.047   0.519   6.273
 4897TIP3    H114648   5.982   0.491   6.338
 4897TIP3    H214649   6.129   0.481   6.305
 4898TIP3   OH214650   1.267   7.535   2.990
 4898TIP3    H114651   1.312   7.607   2.946
 4898TIP3    H214652   1.332   7.498   3.049
 4899TIP3   OH214653   1.079   5.942   2.857
 4899TIP3    H114654   0.994   5.978   2.884
 4899TIP3    H214655   1.102   5.881   2.928
 4900TIP3   OH214656   0.751   2.603   1.305
 4900TIP3    H114657   0.847   2.606   1.308
 4900TIP3    H214658   0.731   2.509   1.298
 4901TIP3   OH214659   3.233   0.878   6.195
 4901TIP3    H114660   3.278   0.794   6.200
 4901TIP3    H214661   3.299   0.942   6.220
 4902TIP3   OH214662   5.421   4.028   6.192
 4902TIP3    H114663   5.357   4.013   6.262
 4902TIP3    H214664   5.390   3.974   6.120
 4903TIP3   OH214665   3.236   2.866   3.239
 4903TIP3    H114666   3.314   2.917   3.219
 4903TIP3    H214667   3.244   2.846   3.333
 4904TIP3   OH214668   5.199   0.424   1.468
 4904TIP3    H114669   5.149   0.405   1.389
 4904TIP3    H214670   5.287   0.391   1.450
 4905TIP3   OH214671   7.108   5.386   1.793
 4905TIP3    H114672   7.025   5.432   1.806
 4905TIP3    H214673   7.132   5.405   1.702
 4906TIP3   OH214674   0.347   6.845   5.591
 4906TIP3    H114675   0.410   6.896   5.540
 4906TIP3    H214676   0.291   6.803   5.526
 4907TIP3   OH214677   3.076   4.923   1.961
 4907TIP3    H114678   3.047   4.833   1.950
 4907TIP3    H214679   3.109   4.927   2.051
 4908TIP3   OH214680   0.149   0.773   4.256
 4908TIP3    H114681   0.074   0.759   4.313
 4908TIP3    H214682   0.190   0.852   4.290
 4909TIP3   OH214683   8.173   1.145   6.707
 4909TIP3    H114684   8.254   1.167   6.754
 4909TIP3    H214685   8.147   1.060   6.744
 4910TIP3   OH214686   3.903   4.835   3.985
 4910TIP3    H114687   3.982   4.887   3.971
 4910TIP3    H214688   3.869   4.865   4.069
 4911TIP3   OH214689   2.096   4.402   3.810
 4911TIP3    H114690   2.009   4.443   3.810
 4911TIP3    H214691   2.155   4.472   3.837
 4912TIP3   OH214692   6.123   0.639   3.456
 4912TIP3    H114693   6.184   0.712   3.467
 4912TIP3    H214694   6.167   0.565   3.500
 4913TIP3   OH214695   3.905   6.070   5.399
 4913TIP3    H114696   3.885   6.111   5.315
 4913TIP3    H214697   3.927   5.979   5.377
 4914TIP3   OH214698   5.730   6.441   3.223
 4914TIP3    H114699   5.781   6.518   3.249
 4914TIP3    H214700   5.680   6.418   3.301
 4915TIP3   OH214701   5.289   0.082   4.167
 4915TIP3    H114702   5.224   0.027   4.123
 4915TIP3    H214703   5.352   0.105   4.100
 4916TIP3   OH214704   3.590   6.672   2.801
 4916TIP3    H114705   3.516   6.685   2.742
 4916TIP3    H214706   3.632   6.758   2.806
 4917TIP3   OH214707   6.244   7.495   5.758
 4917TIP3    H114708   6.169   7.543   5.792
 4917TIP3    H214709   6.283   7.454   5.835
 4918TIP3   OH214710   8.113   5.733   4.021
 4918TIP3    H114711   8.126   5.684   4.102
 4918TIP3    H214712   8.018   5.747   4.016
 4919TIP3   OH214713   1.894   6.941   3.997
 4919TIP3    H114714   1.955   7.011   4.022
 4919TIP3    H214715   1.947   6.880   3.946
 4920TIP3   OH214716   6.173   5.681   6.505
 4920TIP3    H114717   6.099   5.679   6.565
 4920TIP3    H214718   6.249   5.690   6.562
 4921TIP3   OH214719   0.459   5.176   0.955
 4921TIP3    H114720   0.489   5.150   0.868
 4921TIP3    H214721   0.365   5.156   0.955
 4922TIP3   OH214722   5.396   3.531   2.603
 4922TIP3    H114723   5.417   3.582   2.525
 4922TIP3    H214724   5.317   3.481   2.578
 4923TIP3   OH214725   3.426   7.529   5.561
 4923TIP3    H114726   3.492   7.499   5.499
 4923TIP3    H214727   3.448   7.620   5.578
 4924TIP3   OH214728   0.477   5.334   4.467
 4924TIP3    H114729   0.509   5.269   4.529
 4924TIP3    H214730   0.413   5.287   4.413
 4925TIP3   OH214731   5.345   6.028   4.563
 4925TIP3    H114732   5.314   6.000   4.649
 4925TIP3    H214733   5.293   6.106   4.543
 4926TIP3   OH214734   2.077   3.669   5.913
 4926TIP3    H114735   2.145   3.728   5.946
 4926TIP3    H214736   2.089   3.588   5.964
 4927TIP3   OH214737   1.655   2.512   2.825
 4927TIP3    H114738   1.567   2.493   2.858
 4927TIP3    H214739   1.645   2.594   2.776
 4928TIP3   OH214740   7.696   5.544   3.450
 4928TIP3    H114741   7.607   5.580   3.446
 4928TIP3    H214742   7.747   5.602   3.394
 4929TIP3   OH214743   2.748   5.060   5.937
 4929TIP3    H114744   2.791   4.975   5.923
 4929TIP3    H214745   2.697   5.074   5.857
 4930TIP3   OH214746   3.696   6.746   6.264
 4930TIP3    H114747   3.681   6.829   6.218
 4930TIP3    H214748   3.710   6.682   6.195
 4931TIP3   OH214749   5.432   7.198   5.420
 4931TIP3    H114750   5.406   7.259   5.350
 4931TIP3    H214751   5.525   7.215   5.433
 4932TIP3   OH214752   4.819   5.092   3.495
 4932TIP3    H114753   4.813   5.097   3.590
 4932TIP3    H214754   4.888   5.028   3.479
 4933TIP3   OH214755   5.334   6.000   2.597
 4933TIP3    H114756   5.422   6.011   2.561
 4933TIP3    H214757   5.340   6.037   2.685
 4934TIP3   OH214758   2.006   7.068   4.807
 4934TIP3    H114759   2.085   7.014   4.816
 4934TIP3    H214760   1.963   7.062   4.892
 4935TIP3   OH214761   1.148   1.701   5.568
 4935TIP3    H114762   1.227   1.648   5.560
 4935TIP3    H214763   1.076   1.637   5.568
 4936TIP3   OH214764   0.157   1.804   2.590
 4936TIP3    H114765   0.192   1.887   2.622
 4936TIP3    H214766   0.224   1.740   2.614
 4937TIP3   OH214767   4.592   0.286   4.759
 4937TIP3    H114768   4.534   0.259   4.830
 4937TIP3    H214769   4.542   0.353   4.712
 4938TIP3   OH214770   7.632   0.776   3.431
 4938TIP3    H114771   7.615   0.682   3.437
 4938TIP3    H214772   7.724   0.782   3.407
 4939TIP3   OH214773   3.391   3.618   0.114
 4939TIP3    H114774   3.381   3.698   0.167
 4939TIP3    H214775   3.475   3.630   0.070
 4940TIP3   OH214776   5.026   6.001   1.717
 4940TIP3    H114777   5.040   6.077   1.662
 4940TIP3    H214778   4.931   5.996   1.728
 4941TIP3   OH214779   0.366   5.997   6.168
 4941TIP3    H114780   0.274   5.974   6.153
 4941TIP3    H214781   0.394   5.936   6.237
 4942TIP3   OH214782   8.000   7.220   3.755
 4942TIP3    H114783   8.010   7.125   3.762
 4942TIP3    H214784   8.058   7.245   3.683
 4943TIP3   OH214785   4.258   2.597   2.678
 4943TIP3    H114786   4.200   2.524   2.699
 4943TIP3    H214787   4.306   2.569   2.600
 4944TIP3   OH214788   1.385   4.796   5.319
 4944TIP3    H114789   1.334   4.715   5.318
 4944TIP3    H214790   1.366   4.836   5.404
 4945TIP3   OH214791   7.528   6.539   4.488
 4945TIP3    H114792   7.458   6.538   4.422
 4945TIP3    H214793   7.580   6.461   4.469
 4946TIP3   OH214794   7.050   5.915   2.563
 4946TIP3    H114795   7.058   5.958   2.478
 4946TIP3    H214796   7.053   5.822   2.543
 4947TIP3   OH214797   5.545   5.392   0.888
 4947TIP3    H114798   5.585   5.471   0.924
 4947TIP3    H214799   5.610   5.358   0.828
 4948TIP3   OH214800   6.434   0.729   0.816
 4948TIP3    H114801   6.518   0.774   0.804
 4948TIP3    H214802   6.417   0.688   0.732
 4949TIP3   OH214803   5.356   4.745   0.813
 4949TIP3    H114804   5.277   4.748   0.760
 4949TIP3    H214805   5.427   4.727   0.751
 4950TIP3   OH214806   6.095   5.420   4.677
 4950TIP3    H114807   6.025   5.387   4.734
 4950TIP3    H214808   6.171   5.427   4.734
 4951TIP3   OH214809   6.173   4.851   0.984
 4951TIP3    H114810   6.123   4.876   0.906
 4951TIP3    H214811   6.130   4.898   1.055
 4952TIP3   OH214812   1.451   5.097   2.744
 4952TIP3    H114813   1.438   5.147   2.664
 4952TIP3    H214814   1.363   5.076   2.775
 4953TIP3   OH214815   5.634   3.378   4.097
 4953TIP3    H114816   5.584   3.363   4.017
 4953TIP3    H214817   5.692   3.452   4.076
 4954TIP3   OH214818   6.702   1.474   2.899
 4954TIP3    H114819   6.611   1.446   2.907
 4954TIP3    H214820   6.752   1.399   2.932
 4955TIP3   OH214821   3.241   0.180   1.385
 4955TIP3    H114822   3.256   0.175   1.480
 4955TIP3    H214823   3.260   0.272   1.363
 4956TIP3   OH214824   3.395   7.231   2.752
 4956TIP3    H114825   3.303   7.206   2.750
 4956TIP3    H214826   3.437   7.173   2.689
 4957TIP3   OH214827   3.072   5.181   3.879
 4957TIP3    H114828   3.126   5.230   3.942
 4957TIP3    H214829   3.076   5.091   3.909
 4958TIP3   OH214830   7.252   3.726   0.102
 4958TIP3    H114831   7.340   3.692   0.117
 4958TIP3    H214832   7.260   3.820   0.121
 4959TIP3   OH214833   3.379   5.311   6.653
 4959TIP3    H114834   3.392   5.396   6.694
 4959TIP3    H214835   3.411   5.248   6.718
 4960TIP3   OH214836   7.272   2.257   3.932
 4960TIP3    H114837   7.319   2.312   3.870
 4960TIP3    H214838   7.341   2.215   3.983
 4961TIP3   OH214839   6.979   5.910   5.356
 4961TIP3    H114840   6.962   5.917   5.450
 4961TIP3    H214841   6.972   5.817   5.338
 4962TIP3   OH214842   3.984   4.621   4.714
 4962TIP3    H114843   3.939   4.560   4.774
 4962TIP3    H214844   4.053   4.660   4.767
 4963TIP3   OH214845   5.879   4.436   1.785
 4963TIP3    H114846   5.964   4.450   1.825
 4963TIP3    H214847   5.838   4.369   1.839
 4964TIP3   OH214848   5.942   6.357   1.280
 4964TIP3    H114849   6.005   6.321   1.217
 4964TIP3    H214850   5.925   6.284   1.341
 4965TIP3   OH214851   3.666   6.675   1.417
 4965TIP3    H114852   3.744   6.619   1.409
 4965TIP3    H214853   3.652   6.709   1.329
 4966TIP3   OH214854   2.864   7.279   3.055
 4966TIP3    H114855   2.936   7.299   3.114
 4966TIP3    H214856   2.804   7.225   3.106
 4967TIP3   OH214857  -0.024   1.233   1.838
 4967TIP3    H114858   0.026   1.305   1.798
 4967TIP3    H214859   0.042   1.165   1.854
 4968TIP3   OH214860   3.718   6.471   1.154
 4968TIP3    H114861   3.768   6.454   1.234
 4968TIP3    H214862   3.666   6.549   1.174
 4969TIP3   OH214863   4.663   6.466   4.126
 4969TIP3    H114864   4.620   6.408   4.063
 4969TIP3    H214865   4.756   6.443   4.120
 4970TIP3   OH214866   8.185   1.084   4.309
 4970TIP3    H114867   8.267   1.108   4.266
 4970TIP3    H214868   8.123   1.073   4.238
 4971TIP3   OH214869   6.772   5.962   3.814
 4971TIP3    H114870   6.813   5.930   3.895
 4971TIP3    H214871   6.838   6.018   3.774
 4972TIP3   OH214872   8.062   3.404   3.222
 4972TIP3    H114873   8.135   3.459   3.192
 4972TIP3    H214874   8.017   3.458   3.286
 4973TIP3   OH214875   4.291   4.362   0.067
 4973TIP3    H114876   4.351   4.295   0.034
 4973TIP3    H214877   4.206   4.319   0.070
 4974TIP3   OH214878   2.565   4.013   1.215
 4974TIP3    H114879   2.562   3.946   1.283
 4974TIP3    H214880   2.655   4.013   1.185
 4975TIP3   OH214881   5.334   2.560   4.172
 4975TIP3    H114882   5.238   2.567   4.168
 4975TIP3    H214883   5.365   2.636   4.123
 4976TIP3   OH214884   7.288   6.482   3.596
 4976TIP3    H114885   7.300   6.408   3.655
 4976TIP3    H214886   7.329   6.455   3.514
 4977TIP3   OH214887   2.433   4.140   5.583
 4977TIP3    H114888   2.355   4.190   5.609
 4977TIP3    H214889   2.481   4.200   5.526
 4978TIP3   OH214890   4.425   1.956   1.812
 4978TIP3    H114891   4.426   2.031   1.753
 4978TIP3    H214892   4.334   1.930   1.816
 4979TIP3   OH214893   0.794   7.001   5.083
 4979TIP3    H114894   0.845   6.919   5.088
 4979TIP3    H214895   0.706   6.976   5.112
 4980TIP3   OH214896   0.000   7.365   5.837
 4980TIP3    H114897   0.085   7.320   5.837
 4980TIP3    H214898   0.002   7.419   5.916
 4981TIP3   OH214899   0.917   4.042   0.355
 4981TIP3    H114900   0.880   4.049   0.443
 4981TIP3    H214901   0.928   4.133   0.327
 4982TIP3   OH214902   5.723   4.036   1.533
 4982TIP3    H114903   5.691   3.958   1.579
 4982TIP3    H214904   5.786   4.003   1.469
 4983TIP3   OH214905   1.304   5.490   4.471
 4983TIP3    H114906   1.363   5.542   4.526
 4983TIP3    H214907   1.220   5.534   4.478
 4984TIP3   OH214908   7.756   4.631   4.348
 4984TIP3    H114909   7.807   4.626   4.267
 4984TIP3    H214910   7.692   4.701   4.333
 4985TIP3   OH214911   5.806   0.684   4.408
 4985TIP3    H114912   5.808   0.676   4.313
 4985TIP3    H214913   5.783   0.597   4.439
 4986TIP3   OH214914   1.287   3.054   2.120
 4986TIP3    H114915   1.236   3.053   2.200
 4986TIP3    H214916   1.288   2.964   2.090
 4987TIP3   OH214917   0.906   2.938   6.072
 4987TIP3    H114918   0.960   2.889   6.010
 4987TIP3    H214919   0.832   2.879   6.090
 4988TIP3   OH214920   0.177   1.951   3.425
 4988TIP3    H114921   0.106   1.890   3.446
 4988TIP3    H214922   0.191   2.001   3.506
 4989TIP3   OH214923   4.757   0.631   5.077
 4989TIP3    H114924   4.789   0.547   5.109
 4989TIP3    H214925   4.703   0.665   5.148
 4990TIP3   OH214926   0.195   3.873   1.926
 4990TIP3    H114927   0.151   3.830   1.853
 4990TIP3    H214928   0.259   3.809   1.956
 4991TIP3   OH214929   8.071   4.986   4.555
 4991TIP3    H114930   8.094   5.069   4.512
 4991TIP3    H214931   7.986   4.962   4.518
 4992TIP3   OH214932   3.768   3.681   2.571
 4992TIP3    H114933   3.689   3.681   2.516
 4992TIP3    H214934   3.737   3.710   2.657
 4993TIP3   OH214935   4.212   6.276   5.927
 4993TIP3    H114936   4.165   6.220   5.989
 4993TIP3    H214937   4.156   6.277   5.849
 4994TIP3   OH214938   3.924   5.701   5.168
 4994TIP3    H114939   3.889   5.688   5.080
 4994TIP3    H214940   3.951   5.614   5.196
 4995TIP3   OH214941   2.657   3.530   3.073
 4995TIP3    H114942   2.720   3.482   3.127
 4995TIP3    H214943   2.671   3.622   3.098
 4996TIP3   OH214944   2.573   0.989   3.204
 4996TIP3    H114945   2.550   0.952   3.290
 4996TIP3    H214946   2.514   0.945   3.143
 4997TIP3   OH214947   2.083   2.907   2.482
 4997TIP3    H114948   2.119   2.821   2.504
 4997TIP3    H214949   2.159   2.957   2.452
 4998TIP3   OH214950   1.328   4.346   3.618
 4998TIP3    H114951   1.240   4.358   3.582
 4998TIP3    H214952   1.341   4.422   3.675
 4999TIP3   OH214953   5.253   6.246   0.917
 4999TIP3    H114954   5.339   6.223   0.951
 4999TIP3    H214955   5.194   6.239   0.992
 5000TIP3   OH214956   3.886   6.763   5.978
 5000TIP3    H114957   3.826   6.822   5.932
 5000TIP3    H214958   3.850   6.676   5.965
 5001TIP3   OH214959   5.488   1.018   4.496
 5001TIP3    H114960   5.452   0.974   4.419
 5001TIP3    H214961   5.468   1.111   4.481
 5002TIP3   OH214962   3.467   3.110   4.753
 5002TIP3    H114963   3.426   3.023   4.757
 5002TIP3    H214964   3.536   3.101   4.687
 5003TIP3   OH214965   3.849   3.173   1.745
 5003TIP3    H114966   3.777   3.114   1.723
 5003TIP3    H214967   3.889   3.195   1.661
 5004TIP3   OH214968   2.445   6.042   5.719
 5004TIP3    H114969   2.515   6.087   5.673
 5004TIP3    H214970   2.449   5.952   5.689
 5005TIP3   OH214971   8.041   1.416   6.414
 5005TIP3    H114972   8.076   1.329   6.395
 5005TIP3    H214973   7.990   1.403   6.495
 5006TIP3   OH214974   8.167   6.452   0.094
 5006TIP3    H114975   8.235   6.499   0.143
 5006TIP3    H214976   8.216   6.390   0.040
 5007TIP3   OH214977   0.858   6.481   1.305
 5007TIP3    H114978   0.950   6.466   1.284
 5007TIP3    H214979   0.820   6.394   1.313
 5008TIP3   OH214980   1.283   6.275   1.394
 5008TIP3    H114981   1.327   6.190   1.395
 5008TIP3    H214982   1.202   6.259   1.443
 5009TIP3   OH214983   6.821   3.231   4.253
 5009TIP3    H114984   6.786   3.192   4.333
 5009TIP3    H214985   6.851   3.157   4.201
 5010TIP3   OH214986  -0.044   1.192   6.141
 5010TIP3    H114987  -0.030   1.099   6.160
 5010TIP3    H214988   0.005   1.238   6.209
 5011TIP3   OH214989   4.569   4.841   4.643
 5011TIP3    H114990   4.589   4.758   4.601
 5011TIP3    H214991   4.528   4.893   4.574
 5012TIP3   OH214992   6.283   5.935   2.892
 5012TIP3    H114993   6.335   5.973   2.962
 5012TIP3    H214994   6.321   5.848   2.878
 5013TIP3   OH214995   2.189   0.034   4.742
 5013TIP3    H114996   2.228  -0.008   4.666
 5013TIP3    H214997   2.095   0.023   4.730
 5014TIP3   OH214998   7.744   0.154   4.777
 5014TIP3    H114999   7.665   0.111   4.746
 5014TIP3    H215000   7.815   0.112   4.730
 5015TIP3   OH215001   1.737   1.967   5.209
 5015TIP3    H115002   1.646   1.938   5.206
 5015TIP3    H215003   1.759   1.966   5.302
 5016TIP3   OH215004   1.627   1.419   0.459
 5016TIP3    H115005   1.660   1.504   0.430
 5016TIP3    H215006   1.705   1.365   0.467
 5017TIP3   OH215007   0.350   7.322   1.390
 5017TIP3    H115008   0.387   7.251   1.442
 5017TIP3    H215009   0.354   7.290   1.300
 5018TIP3   OH215010   1.985   3.436   5.103
 5018TIP3    H115011   2.024   3.366   5.050
 5018TIP3    H215012   2.052   3.505   5.103
 5019TIP3   OH215013   1.309   2.593   5.454
 5019TIP3    H115014   1.279   2.503   5.468
 5019TIP3    H215015   1.383   2.584   5.394
 5020TIP3   OH215016   5.521   2.702   5.526
 5020TIP3    H115017   5.428   2.696   5.502
 5020TIP3    H215018   5.521   2.695   5.622
 5021TIP3   OH215019   6.845   5.068   5.626
 5021TIP3    H115020   6.759   5.031   5.644
 5021TIP3    H215021   6.886   5.078   5.712
 5022TIP3   OH215022   3.999   3.905   0.189
 5022TIP3    H115023   3.955   3.956   0.257
 5022TIP3    H215024   4.036   3.970   0.130
 5023TIP3   OH215025   2.889   3.366   4.710
 5023TIP3    H115026   2.963   3.306   4.721
 5023TIP3    H215027   2.814   3.320   4.748
 5024TIP3   OH215028   2.982   1.481   2.067
 5024TIP3    H115029   2.905   1.444   2.022
 5024TIP3    H215030   2.951   1.567   2.098
 5025TIP3   OH215031   1.226   4.989   2.448
 5025TIP3    H115032   1.156   4.928   2.426
 5025TIP3    H215033   1.272   4.947   2.521
 5026TIP3   OH215034   7.030   7.664   6.015
 5026TIP3    H115035   6.935   7.665   6.001
 5026TIP3    H215036   7.059   7.751   5.988
 5027TIP3   OH215037   2.304   7.633   4.307
 5027TIP3    H115038   2.309   7.657   4.215
 5027TIP3    H215039   2.246   7.698   4.346
 5028TIP3   OH215040   5.179   7.074   5.384
 5028TIP3    H115041   5.266   7.088   5.421
 5028TIP3    H215042   5.195   7.029   5.301
 5029TIP3   OH215043   0.147   6.029   2.416
 5029TIP3    H115044   0.238   6.047   2.391
 5029TIP3    H215045   0.150   5.945   2.461
 5030TIP3   OH215046   3.203   1.346   3.744
 5030TIP3    H115047   3.196   1.440   3.759
 5030TIP3    H215048   3.289   1.335   3.702
 5031TIP3   OH215049   2.291   0.422   5.568
 5031TIP3    H115050   2.384   0.398   5.563
 5031TIP3    H215051   2.291   0.513   5.598
 5032TIP3   OH215052   3.497   0.473   4.352
 5032TIP3    H115053   3.572   0.532   4.362
 5032TIP3    H215054   3.421   0.531   4.358
 5033TIP3   OH215055   4.193   7.079   0.156
 5033TIP3    H115056   4.266   7.040   0.109
 5033TIP3    H215057   4.122   7.016   0.145
 5034TIP3   OH215058   6.258   3.041   3.073
 5034TIP3    H115059   6.170   3.005   3.063
 5034TIP3    H215060   6.302   3.019   2.992
 5035TIP3   OH215061   3.956   7.654   1.832
 5035TIP3    H115062   3.987   7.739   1.801
 5035TIP3    H215063   4.023   7.626   1.894
 5036TIP3   OH215064   0.504   3.137   5.751
 5036TIP3    H115065   0.465   3.051   5.765
 5036TIP3    H215066   0.596   3.127   5.772
 5037TIP3   OH215067   0.906   1.268   6.619
 5037TIP3    H115068   0.967   1.232   6.555
 5037TIP3    H215069   0.947   1.350   6.648
 5038TIP3   OH215070   2.347   0.801   2.123
 5038TIP3    H115071   2.296   0.856   2.182
 5038TIP3    H215072   2.357   0.718   2.170
 5039TIP3   OH215073   2.918   5.774   3.677
 5039TIP3    H115074   2.906   5.825   3.757
 5039TIP3    H215075   2.911   5.837   3.606
 5040TIP3   OH215076   3.749   5.332   5.538
 5040TIP3    H115077   3.798   5.314   5.458
 5040TIP3    H215078   3.731   5.246   5.576
 5041TIP3   OH215079   1.548   2.099   2.404
 5041TIP3    H115080   1.461   2.138   2.409
 5041TIP3    H215081   1.552   2.060   2.317
 5042TIP3   OH215082   5.297   6.282   1.342
 5042TIP3    H115083   5.361   6.351   1.321
 5042TIP3    H215084   5.255   6.262   1.259
 5043TIP3   OH215085   3.094   6.247   0.456
 5043TIP3    H115086   3.050   6.329   0.477
 5043TIP3    H215087   3.144   6.225   0.534
 5044TIP3   OH215088   3.860   0.216   0.165
 5044TIP3    H115089   3.916   0.294   0.170
 5044TIP3    H215090   3.886   0.173   0.084
 5045TIP3   OH215091   7.327   6.742   2.454
 5045TIP3    H115092   7.377   6.738   2.373
 5045TIP3    H215093   7.389   6.713   2.521
 5046TIP3   OH215094   7.839   1.842   6.720
 5046TIP3    H115095   7.789   1.760   6.720
 5046TIP3    H215096   7.913   1.825   6.662
 5047TIP3   OH215097   0.988   7.444   5.611
 5047TIP3    H115098   0.978   7.373   5.675
 5047TIP3    H215099   0.933   7.419   5.538
 5048TIP3   OH215100   3.800   2.444   2.344
 5048TIP3    H115101   3.858   2.488   2.406
 5048TIP3    H215102   3.847   2.448   2.260
 5049TIP3   OH215103   1.127   5.838   5.556
 5049TIP3    H115104   1.156   5.763   5.504
 5049TIP3    H215105   1.195   5.904   5.542
 5050TIP3   OH215106   7.211   2.832   4.777
 5050TIP3    H115107   7.224   2.903   4.714
 5050TIP3    H215108   7.274   2.765   4.752
 5051TIP3   OH215109   3.548   5.828   4.599
 5051TIP3    H115110   3.487   5.810   4.527
 5051TIP3    H215111   3.539   5.753   4.657
 5052TIP3   OH215112   7.190   4.594   2.700
 5052TIP3    H115113   7.209   4.510   2.742
 5052TIP3    H215114   7.095   4.592   2.687
 5053TIP3   OH215115   4.749   6.016   6.753
 5053TIP3    H115116   4.703   6.054   6.678
 5053TIP3    H215117   4.827   5.976   6.715
 5054TIP3   OH215118   0.014   0.367   4.460
 5054TIP3    H115119   0.003   0.432   4.392
 5054TIP3    H215120   0.052   0.415   4.534
 5055TIP3   OH215121   1.136   5.693   6.500
 5055TIP3    H115122   1.069   5.657   6.559
 5055TIP3    H215123   1.190   5.748   6.556
 5056TIP3   OH215124   7.105   1.669   2.956
 5056TIP3    H115125   7.153   1.734   3.007
 5056TIP3    H215126   7.159   1.590   2.963
 5057TIP3   OH215127   8.163   5.824   2.420
 5057TIP3    H115128   8.244   5.834   2.470
 5057TIP3    H215129   8.159   5.731   2.398
 5058TIP3   OH215130   3.900   4.988   5.333
 5058TIP3    H115131   3.958   5.051   5.290
 5058TIP3    H215132   3.822   4.985   5.277
 5059TIP3   OH215133   2.553   0.918   1.840
 5059TIP3    H115134   2.512   1.005   1.834
 5059TIP3    H215135   2.647   0.936   1.846
 5060TIP3   OH215136  -0.005   2.402   0.237
 5060TIP3    H115137   0.067   2.339   0.230
 5060TIP3    H215138  -0.007   2.425   0.330
 5061TIP3   OH215139   6.077   7.448   2.738
 5061TIP3    H115140   6.136   7.509   2.693
 5061TIP3    H215141   6.079   7.369   2.685
 5062TIP3   OH215142   0.707   1.064   3.113
 5062TIP3    H115143   0.660   0.990   3.151
 5062TIP3    H215144   0.638   1.123   3.083
 5063TIP3   OH215145   3.802   1.386   3.913
 5063TIP3    H115146   3.823   1.461   3.969
 5063TIP3    H215147   3.839   1.409   3.828
 5064TIP3   OH215148   6.010   2.799   4.463
 5064TIP3    H115149   6.095   2.787   4.421
 5064TIP3    H215150   5.947   2.764   4.399
 5065TIP3   OH215151   3.798   1.594   6.614
 5065TIP3    H115152   3.877   1.623   6.570
 5065TIP3    H215153   3.756   1.674   6.645
 5066TIP3   OH215154   8.189   5.412   1.727
 5066TIP3    H115155   8.132   5.352   1.776
 5066TIP3    H215156   8.274   5.368   1.725
 5067TIP3   OH215157   1.932   3.907   5.343
 5067TIP3    H115158   1.895   3.899   5.255
 5067TIP3    H215159   1.896   3.989   5.376
 5068TIP3   OH215160   0.096   5.416   3.126
 5068TIP3    H115161   0.163   5.350   3.107
 5068TIP3    H215162   0.138   5.474   3.189
 5069TIP3   OH215163   1.207   6.876   1.539
 5069TIP3    H115164   1.134   6.846   1.485
 5069TIP3    H215165   1.210   6.971   1.525
 5070TIP3   OH215166   5.842   1.750   4.031
 5070TIP3    H115167   5.888   1.707   3.959
 5070TIP3    H215168   5.911   1.775   4.092
 5071TIP3   OH215169   2.797   1.209   2.940
 5071TIP3    H115170   2.872   1.258   2.906
 5071TIP3    H215171   2.794   1.233   3.033
 5072TIP3   OH215172   1.561   0.740   5.743
 5072TIP3    H115173   1.513   0.822   5.731
 5072TIP3    H215174   1.647   0.768   5.775
 5073TIP3   OH215175   6.500   5.701   5.023
 5073TIP3    H115176   6.450   5.769   5.067
 5073TIP3    H215177   6.589   5.709   5.059
 5074TIP3   OH215178   5.762   5.847   1.320
 5074TIP3    H115179   5.724   5.873   1.403
 5074TIP3    H215180   5.706   5.889   1.254
 5075TIP3   OH215181   2.720   2.028   6.477
 5075TIP3    H115182   2.638   2.070   6.502
 5075TIP3    H215183   2.767   2.095   6.427
 5076TIP3   OH215184   2.080   5.776   5.363
 5076TIP3    H115185   2.161   5.755   5.317
 5076TIP3    H215186   2.022   5.701   5.345
 5077TIP3   OH215187   3.248   1.513   2.112
 5077TIP3    H115188   3.157   1.492   2.090
 5077TIP3    H215189   3.275   1.574   2.043
 5078TIP3   OH215190   2.519   5.576   3.380
 5078TIP3    H115191   2.590   5.519   3.409
 5078TIP3    H215192   2.548   5.664   3.402
 5079TIP3   OH215193   0.146   0.207   0.424
 5079TIP3    H115194   0.194   0.217   0.343
 5079TIP3    H215195   0.180   0.126   0.463
 5080TIP3   OH215196   4.094   7.445   6.537
 5080TIP3    H115197   4.072   7.352   6.542
 5080TIP3    H215198   4.117   7.469   6.627
 5081TIP3   OH215199   6.942   6.023   5.610
 5081TIP3    H115200   6.860   6.069   5.625
 5081TIP3    H215201   6.995   6.042   5.687
 5082TIP3   OH215202   2.917   3.493   4.448
 5082TIP3    H115203   2.841   3.443   4.419
 5082TIP3    H215204   2.923   3.475   4.542
 5083TIP3   OH215205   2.314   7.297   2.331
 5083TIP3    H115206   2.344   7.207   2.339
 5083TIP3    H215207   2.240   7.303   2.391
 5084TIP3   OH215208   5.228   1.986   3.157
 5084TIP3    H115209   5.137   1.959   3.155
 5084TIP3    H215210   5.266   1.939   3.231
 5085TIP3   OH215211   2.507   4.352   1.954
 5085TIP3    H115212   2.562   4.414   2.003
 5085TIP3    H215213   2.530   4.367   1.862
 5086TIP3   OH215214   0.629   2.523   2.175
 5086TIP3    H115215   0.710   2.515   2.224
 5086TIP3    H215216   0.567   2.468   2.224
 5087TIP3   OH215217   7.173   4.795   6.430
 5087TIP3    H115218   7.090   4.814   6.474
 5087TIP3    H215219   7.215   4.731   6.488
 5088TIP3   OH215220   3.286   2.184   2.454
 5088TIP3    H115221   3.235   2.103   2.460
 5088TIP3    H215222   3.260   2.223   2.370
 5089TIP3   OH215223   5.069   0.628   3.163
 5089TIP3    H115224   5.006   0.636   3.235
 5089TIP3    H215225   5.119   0.550   3.183
 5090TIP3   OH215226   2.782   6.506   6.035
 5090TIP3    H115227   2.791   6.413   6.054
 5090TIP3    H215228   2.753   6.545   6.117
 5091TIP3   OH215229   0.294   3.327   3.066
 5091TIP3    H115230   0.274   3.235   3.085
 5091TIP3    H215231   0.212   3.373   3.082
 5092TIP3   OH215232   7.249   4.759  -0.032
 5092TIP3    H115233   7.302   4.838  -0.044
 5092TIP3    H215234   7.165   4.780  -0.074
 5093TIP3   OH215235   6.040   3.874   0.633
 5093TIP3    H115236   6.082   3.812   0.574
 5093TIP3    H215237   5.959   3.832   0.660
 5094TIP3   OH215238   3.161   6.338   4.515
 5094TIP3    H115239   3.206   6.300   4.439
 5094TIP3    H215240   3.072   6.357   4.483
 5095TIP3   OH215241  -0.018   2.389   3.818
 5095TIP3    H115242   0.050   2.399   3.750
 5095TIP3    H215243  -0.095   2.431   3.780
 5096TIP3   OH215244   5.664   3.278   1.069
 5096TIP3    H115245   5.709   3.290   0.985
 5096TIP3    H215246   5.679   3.186   1.090
 5097TIP3   OH215247   1.393   4.495   2.530
 5097TIP3    H115248   1.396   4.455   2.617
 5097TIP3    H215249   1.408   4.422   2.469
 5098TIP3   OH215250   4.267   0.997   6.671
 5098TIP3    H115251   4.230   0.943   6.741
 5098TIP3    H215252   4.191   1.021   6.618
 5099TIP3   OH215253   4.911   2.090   1.274
 5099TIP3    H115254   4.878   2.173   1.306
 5099TIP3    H215255   4.994   2.077   1.321
 5100TIP3   OH215256   2.433   5.775   0.462
 5100TIP3    H115257   2.380   5.696   0.476
 5100TIP3    H215258   2.386   5.822   0.393
 5101TIP3   OH215259   2.499   7.519   1.906
 5101TIP3    H115260   2.556   7.442   1.898
 5101TIP3    H215261   2.543   7.576   1.968
 5102TIP3   OH215262   1.367   7.420   3.472
 5102TIP3    H115263   1.385   7.327   3.481
 5102TIP3    H215264   1.272   7.427   3.473
 5103TIP3   OH215265   2.239   0.763   5.454
 5103TIP3    H115266   2.235   0.728   5.365
 5103TIP3    H215267   2.206   0.853   5.446
 5104TIP3   OH215268   5.079   4.976   0.436
 5104TIP3    H115269   5.122   4.962   0.352
 5104TIP3    H215270   5.010   4.910   0.439
 5105TIP3   OH215271   7.373   1.481   5.152
 5105TIP3    H115272   7.431   1.442   5.218
 5105TIP3    H215273   7.433   1.528   5.093
 5106TIP3   OH215274   4.928   1.334   5.626
 5106TIP3    H115275   4.963   1.329   5.537
 5106TIP3    H215276   4.939   1.245   5.660
 5107TIP3   OH215277   8.195   1.811   5.893
 5107TIP3    H115278   8.190   1.853   5.807
 5107TIP3    H215279   8.214   1.883   5.954
 5108TIP3   OH215280   7.699   1.620   3.208
 5108TIP3    H115281   7.790   1.589   3.201
 5108TIP3    H215282   7.657   1.588   3.128
 5109TIP3   OH215283   2.437   3.116   5.202
 5109TIP3    H115284   2.405   3.205   5.186
 5109TIP3    H215285   2.363   3.059   5.182
 5110TIP3   OH215286   3.774   6.740   2.392
 5110TIP3    H115287   3.822   6.673   2.440
 5110TIP3    H215288   3.817   6.744   2.307
 5111TIP3   OH215289   7.117   0.292   1.480
 5111TIP3    H115290   7.040   0.258   1.436
 5111TIP3    H215291   7.121   0.244   1.563
 5112TIP3   OH215292   2.916   0.118   5.257
 5112TIP3    H115293   2.861   0.132   5.180
 5112TIP3    H215294   2.904   0.025   5.279
 5113TIP3   OH215295   7.005   3.430   0.460
 5113TIP3    H115296   7.027   3.502   0.401
 5113TIP3    H215297   7.006   3.352   0.406
 5114TIP3   OH215298   5.844   5.183   3.689
 5114TIP3    H115299   5.923   5.130   3.692
 5114TIP3    H215300   5.786   5.137   3.629
 5115TIP3   OH215301   4.879   2.729   2.686
 5115TIP3    H115302   4.859   2.797   2.750
 5115TIP3    H215303   4.811   2.663   2.700
 5116TIP3   OH215304   2.190   5.488   1.101
 5116TIP3    H115305   2.133   5.536   1.161
 5116TIP3    H215306   2.277   5.496   1.140
 5117TIP3   OH215307   4.829   7.511   0.300
 5117TIP3    H115308   4.787   7.438   0.255
 5117TIP3    H215309   4.772   7.529   0.375
 5118TIP3   OH215310   5.559   4.191   0.395
 5118TIP3    H115311   5.482   4.246   0.404
 5118TIP3    H215312   5.527   4.102   0.415
 5119TIP3   OH215313   6.879   3.656   1.667
 5119TIP3    H115314   6.960   3.694   1.702
 5119TIP3    H215315   6.905   3.614   1.586
 5120TIP3   OH215316   1.124   6.452   1.242
 5120TIP3    H115317   1.199   6.413   1.287
 5120TIP3    H215318   1.155   6.539   1.216
 5121TIP3   OH215319   3.291   1.595   1.539
 5121TIP3    H115320   3.377   1.608   1.579
 5121TIP3    H215321   3.296   1.642   1.456
 5122TIP3   OH215322   0.013   0.321   5.320
 5122TIP3    H115323  -0.036   0.356   5.246
 5122TIP3    H215324   0.097   0.292   5.282
 5123TIP3   OH215325   2.705   1.522   5.266
 5123TIP3    H115326   2.797   1.527   5.241
 5123TIP3    H215327   2.661   1.579   5.204
 5124TIP3   OH215328   4.685   7.289   3.252
 5124TIP3    H115329   4.601   7.333   3.239
 5124TIP3    H215330   4.714   7.317   3.339
 5125TIP3   OH215331   6.562   6.576   0.578
 5125TIP3    H115332   6.578   6.584   0.484
 5125TIP3    H215333   6.577   6.483   0.597
 5126TIP3   OH215334   5.561   7.527   4.372
 5126TIP3    H115335   5.620   7.586   4.418
 5126TIP3    H215336   5.479   7.576   4.364
 5127TIP3   OH215337   7.769   0.640   2.239
 5127TIP3    H115338   7.680   0.622   2.208
 5127TIP3    H215339   7.809   0.690   2.168
 5128TIP3   OH215340   0.220   2.927   6.550
 5128TIP3    H115341   0.193   2.946   6.640
 5128TIP3    H215342   0.307   2.965   6.542
 5129TIP3   OH215343   5.185   6.459   6.310
 5129TIP3    H115344   5.264   6.508   6.331
 5129TIP3    H215345   5.127   6.523   6.268
 5130TIP3   OH215346   3.701   5.437   4.398
 5130TIP3    H115347   3.611   5.467   4.384
 5130TIP3    H215348   3.722   5.465   4.487
 5131TIP3   OH215349   0.136   2.959   1.811
 5131TIP3    H115350   0.206   2.986   1.870
 5131TIP3    H215351   0.055   2.981   1.857
 5132TIP3   OH215352   7.102   5.954   0.473
 5132TIP3    H115353   7.018   5.987   0.503
 5132TIP3    H215354   7.091   5.941   0.379
 5133TIP3   OH215355   5.020   5.023   4.091
 5133TIP3    H115356   4.929   5.032   4.120
 5133TIP3    H215357   5.033   4.928   4.084
 5134TIP3   OH215358   4.627   1.690   0.944
 5134TIP3    H115359   4.547   1.715   0.897
 5134TIP3    H215360   4.688   1.663   0.875
 5135TIP3   OH215361   1.905   2.115   0.241
 5135TIP3    H115362   1.937   2.096   0.153
 5135TIP3    H215363   1.912   2.032   0.288
 5136TIP3   OH215364   0.349   2.341   2.761
 5136TIP3    H115365   0.428   2.378   2.799
 5136TIP3    H215366   0.290   2.415   2.750
 5137TIP3   OH215367   8.221   4.392   3.080
 5137TIP3    H115368   8.161   4.321   3.056
 5137TIP3    H215369   8.300   4.347   3.109
 5138TIP3   OH215370   6.599   7.466   5.544
 5138TIP3    H115371   6.574   7.379   5.577
 5138TIP3    H215372   6.601   7.521   5.622
 5139TIP3   OH215373   6.591   6.659   5.100
 5139TIP3    H115374   6.573   6.729   5.038
 5139TIP3    H215375   6.611   6.703   5.182
 5140TIP3   OH215376   1.363   1.192   4.107
 5140TIP3    H115377   1.434   1.256   4.098
 5140TIP3    H215378   1.302   1.233   4.169
 5141TIP3   OH215379   5.308   4.182   5.673
 5141TIP3    H115380   5.274   4.111   5.618
 5141TIP3    H215381   5.370   4.139   5.732
 5142TIP3   OH215382   4.012   0.384   3.318
 5142TIP3    H115383   4.075   0.413   3.252
 5142TIP3    H215384   3.954   0.460   3.331
 5143TIP3   OH215385   4.917   7.726   0.803
 5143TIP3    H115386   4.954   7.664   0.740
 5143TIP3    H215387   4.962   7.707   0.885
 5144TIP3   OH215388   7.815   7.568   2.208
 5144TIP3    H115389   7.761   7.637   2.170
 5144TIP3    H215390   7.903   7.607   2.213
 5145TIP3   OH215391   5.050   3.516   4.824
 5145TIP3    H115392   5.102   3.596   4.825
 5145TIP3    H215393   5.062   3.480   4.737
 5146TIP3   OH215394   3.703   3.694   0.591
 5146TIP3    H115395   3.729   3.641   0.515
 5146TIP3    H215396   3.608   3.691   0.591
 5147TIP3   OH215397   4.288   5.716   4.655
 5147TIP3    H115398   4.352   5.785   4.674
 5147TIP3    H215399   4.324   5.671   4.579
 5148TIP3   OH215400   1.563   4.739   3.021
 5148TIP3    H115401   1.573   4.832   3.001
 5148TIP3    H215402   1.490   4.710   2.967
 5149TIP3   OH215403   6.208   5.026   2.751
 5149TIP3    H115404   6.141   5.016   2.818
 5149TIP3    H215405   6.228   5.120   2.750
 5150TIP3   OH215406   3.043   6.051  -0.025
 5150TIP3    H115407   2.992   6.082   0.050
 5150TIP3    H215408   3.081   6.130  -0.062
 5151TIP3   OH215409   3.895   7.390   3.310
 5151TIP3    H115410   3.936   7.347   3.235
 5151TIP3    H215411   3.909   7.329   3.383
 5152TIP3   OH215412   7.342   5.553   0.764
 5152TIP3    H115413   7.428   5.582   0.734
 5152TIP3    H215414   7.326   5.471   0.718
 5153TIP3   OH215415   2.645   4.730   3.239
 5153TIP3    H115416   2.604   4.807   3.200
 5153TIP3    H215417   2.667   4.674   3.165
 5154TIP3   OH215418   2.580   1.596   1.242
 5154TIP3    H115419   2.593   1.506   1.270
 5154TIP3    H215420   2.486   1.611   1.253
 5155TIP3   OH215421   4.024   5.136   5.572
 5155TIP3    H115422   4.096   5.145   5.633
 5155TIP3    H215423   3.986   5.050   5.593
 5156TIP3   OH215424   0.492   7.841   3.255
 5156TIP3    H115425   0.550   7.907   3.218
 5156TIP3    H215426   0.551   7.771   3.284
 5157TIP3   OH215427   6.151   4.563   4.035
 5157TIP3    H115428   6.177   4.558   4.126
 5157TIP3    H215429   6.158   4.473   4.003
 5158TIP3   OH215430   5.963   2.604   5.079
 5158TIP3    H115431   6.040   2.547   5.090
 5158TIP3    H215432   5.889   2.544   5.082
 5159TIP3   OH215433   5.553   1.657   5.035
 5159TIP3    H115434   5.624   1.630   4.977
 5159TIP3    H215435   5.578   1.744   5.064
 5160TIP3   OH215436   7.912   1.076   0.249
 5160TIP3    H115437   7.886   1.114   0.165
 5160TIP3    H215438   7.853   1.002   0.260
 5161TIP3   OH215439   2.178   5.922   1.141
 5161TIP3    H115440   2.243   5.885   1.081
 5161TIP3    H215441   2.130   5.986   1.088
 5162TIP3   OH215442   2.190   4.534   1.102
 5162TIP3    H115443   2.264   4.525   1.162
 5162TIP3    H215444   2.225   4.586   1.029
 5163TIP3   OH215445   3.755   6.887   0.983
 5163TIP3    H115446   3.760   6.955   1.049
 5163TIP3    H215447   3.843   6.848   0.982
 5164TIP3   OH215448   3.308   7.532   2.483
 5164TIP3    H115449   3.302   7.436   2.489
 5164TIP3    H215450   3.384   7.554   2.537
 5165TIP3   OH215451   3.788   7.631   0.966
 5165TIP3    H115452   3.824   7.543   0.957
 5165TIP3    H215453   3.762   7.638   1.058
 5166TIP3   OH215454   0.804   7.512   4.390
 5166TIP3    H115455   0.843   7.581   4.336
 5166TIP3    H215456   0.837   7.529   4.478
 5167TIP3   OH215457   2.671   7.010   2.174
 5167TIP3    H115458   2.611   6.966   2.235
 5167TIP3    H215459   2.746   7.034   2.228
 5168TIP3   OH215460   1.489   7.086   3.999
 5168TIP3    H115461   1.459   7.002   4.034
 5168TIP3    H215462   1.552   7.063   3.931
 5169TIP3   OH215463   2.749   1.945   6.727
 5169TIP3    H115464   2.776   2.032   6.759
 5169TIP3    H215465   2.742   1.956   6.632
 5170TIP3   OH215466   3.695   1.270   5.827
 5170TIP3    H115467   3.645   1.336   5.874
 5170TIP3    H215468   3.651   1.262   5.742
 5171TIP3   OH215469   7.122   2.299   3.333
 5171TIP3    H115470   7.062   2.364   3.297
 5171TIP3    H215471   7.067   2.224   3.356
 5172TIP3   OH215472   0.695   7.468   2.471
 5172TIP3    H115473   0.705   7.373   2.472
 5172TIP3    H215474   0.616   7.485   2.522
 5173TIP3   OH215475   1.732   7.136   6.240
 5173TIP3    H115476   1.677   7.138   6.161
 5173TIP3    H215477   1.703   7.212   6.291
 5174TIP3   OH215478   5.890   7.600   5.635
 5174TIP3    H115479   5.926   7.623   5.721
 5174TIP3    H215480   5.883   7.504   5.637
 5175TIP3   OH215481   8.322   4.895   3.808
 5175TIP3    H115482   8.264   4.820   3.795
 5175TIP3    H215483   8.401   4.874   3.759
 5176TIP3   OH215484   7.536   3.177   5.043
 5176TIP3    H115485   7.492   3.106   5.090
 5176TIP3    H215486   7.475   3.250   5.047
 5177TIP3   OH215487   1.294   2.777   4.921
 5177TIP3    H115488   1.336   2.863   4.922
 5177TIP3    H215489   1.207   2.793   4.884
 5178TIP3   OH215490   2.870   7.040   4.078
 5178TIP3    H115491   2.901   7.124   4.113
 5178TIP3    H215492   2.786   7.026   4.122
 5179TIP3   OH215493   1.913   5.826   3.976
 5179TIP3    H115494   1.984   5.775   3.937
 5179TIP3    H215495   1.948   5.855   4.061
 5180TIP3   OH215496   0.656   1.775   2.930
 5180TIP3    H115497   0.738   1.741   2.965
 5180TIP3    H215498   0.630   1.845   2.990
 5181TIP3   OH215499   3.729   3.907   5.197
 5181TIP3    H115500   3.792   3.836   5.186
 5181TIP3    H215501   3.695   3.923   5.109
 5182TIP3   OH215502   6.766   3.785   3.579
 5182TIP3    H115503   6.703   3.808   3.648
 5182TIP3    H215504   6.790   3.869   3.540
 5183TIP3   OH215505   4.018   7.723   6.002
 5183TIP3    H115506   4.056   7.744   6.088
 5183TIP3    H215507   4.046   7.633   5.985
 5184TIP3   OH215508   0.581   2.032   6.744
 5184TIP3    H115509   0.546   1.994   6.664
 5184TIP3    H215510   0.515   2.097   6.771
 5185TIP3   OH215511   6.468   4.546   6.091
 5185TIP3    H115512   6.376   4.549   6.066
 5185TIP3    H215513   6.514   4.593   6.021
 5186TIP3   OH215514   3.560   3.680   3.475
 5186TIP3    H115515   3.575   3.774   3.477
 5186TIP3    H215516   3.475   3.667   3.518
 5187TIP3   OH215517   6.770   7.707   0.201
 5187TIP3    H115518   6.852   7.751   0.224
 5187TIP3    H215519   6.785   7.615   0.224
 5188TIP3   OH215520   8.137   5.504   5.845
 5188TIP3    H115521   8.103   5.593   5.850
 5188TIP3    H215522   8.219   5.512   5.796
 5189TIP3   OH215523   6.983   2.229   3.614
 5189TIP3    H115524   6.914   2.231   3.548
 5189TIP3    H215525   6.986   2.138   3.642
 5190TIP3   OH215526   7.778   4.642   5.709
 5190TIP3    H115527   7.767   4.706   5.639
 5190TIP3    H215528   7.705   4.658   5.768
 5191TIP3   OH215529   2.161   1.747   3.992
 5191TIP3    H115530   2.111   1.794   4.059
 5191TIP3    H215531   2.095   1.695   3.946
 5192TIP3   OH215532   6.909   7.075   1.823
 5192TIP3    H115533   6.961   7.148   1.789
 5192TIP3    H215534   6.828   7.117   1.854
 5193TIP3   OH215535   1.276   6.678   2.375
 5193TIP3    H115536   1.204   6.712   2.428
 5193TIP3    H215537   1.264   6.720   2.289
 5194TIP3   OH215538   7.808   2.523   4.640
 5194TIP3    H115539   7.827   2.436   4.604
 5194TIP3    H215540   7.839   2.584   4.572
 5195TIP3   OH215541   2.824   0.699   2.093
 5195TIP3    H115542   2.850   0.727   2.005
 5195TIP3    H215543   2.754   0.634   2.078
 5196TIP3   OH215544   4.343   7.088   4.638
 5196TIP3    H115545   4.434   7.113   4.618
 5196TIP3    H215546   4.330   7.116   4.728
 5197TIP3   OH215547   7.914   5.992   0.636
 5197TIP3    H115548   7.940   5.997   0.544
 5197TIP3    H215549   7.913   5.898   0.656
 5198TIP3   OH215550   0.441   4.719   1.090
 5198TIP3    H115551   0.495   4.654   1.135
 5198TIP3    H215552   0.405   4.773   1.160
 5199TIP3   OH215553   4.511   1.364   1.512
 5199TIP3    H115554   4.513   1.431   1.579
 5199TIP3    H215555   4.435   1.386   1.458
 5200TIP3   OH215556   3.225   6.481   1.518
 5200TIP3    H115557   3.270   6.525   1.446
 5200TIP3    H215558   3.283   6.492   1.593
 5201TIP3   OH215559   6.465   0.793   1.383
 5201TIP3    H115560   6.469   0.868   1.324
 5201TIP3    H215561   6.504   0.722   1.334
 5202TIP3   OH215562   5.902   2.859   6.239
 5202TIP3    H115563   5.886   2.799   6.167
 5202TIP3    H215564   5.990   2.893   6.223
 5203TIP3   OH215565   4.152   0.331   6.144
 5203TIP3    H115566   4.237   0.348   6.186
 5203TIP3    H215567   4.173   0.270   6.073
 5204TIP3   OH215568   2.179   2.842   3.149
 5204TIP3    H115569   2.217   2.764   3.109
 5204TIP3    H215570   2.166   2.818   3.241
 5205TIP3   OH215571   7.871   4.775   3.026
 5205TIP3    H115572   7.916   4.723   3.093
 5205TIP3    H215573   7.792   4.725   3.006
 5206TIP3   OH215574   7.883   3.514   4.158
 5206TIP3    H115575   7.819   3.460   4.112
 5206TIP3    H215576   7.949   3.452   4.188
 5207TIP3   OH215577   8.313   0.042   2.586
 5207TIP3    H115578   8.239  -0.016   2.604
 5207TIP3    H215579   8.308   0.109   2.655
 5208TIP3   OH215580   2.663   2.666   4.365
 5208TIP3    H115581   2.692   2.645   4.454
 5208TIP3    H215582   2.675   2.761   4.358
 5209TIP3   OH215583   6.661   3.213   0.536
 5209TIP3    H115584   6.576   3.244   0.505
 5209TIP3    H215585   6.714   3.292   0.544
 5210TIP3   OH215586   7.942   4.917   1.722
 5210TIP3    H115587   7.872   4.886   1.780
 5210TIP3    H215588   7.970   4.839   1.675
 5211TIP3   OH215589   4.962   7.519   1.275
 5211TIP3    H115590   4.926   7.562   1.352
 5211TIP3    H215591   5.056   7.534   1.280
 5212TIP3   OH215592   5.520   4.498   2.280
 5212TIP3    H115593   5.534   4.404   2.291
 5212TIP3    H215594   5.442   4.504   2.225
 5213TIP3   OH215595   1.812   5.956   2.235
 5213TIP3    H115596   1.850   6.013   2.168
 5213TIP3    H215597   1.879   5.891   2.253
 5214TIP3   OH215598   7.845   6.298   6.705
 5214TIP3    H115599   7.907   6.313   6.633
 5214TIP3    H215600   7.812   6.209   6.690
 5215TIP3   OH215601   3.625   4.496   5.824
 5215TIP3    H115602   3.560   4.474   5.890
 5215TIP3    H215603   3.606   4.438   5.750
 5216TIP3   OH215604   8.096   2.941   2.720
 5216TIP3    H115605   8.005   2.921   2.741
 5216TIP3    H215606   8.109   3.030   2.752
 5217TIP3   OH215607   1.172   4.049   1.333
 5217TIP3    H115608   1.130   4.063   1.418
 5217TIP3    H215609   1.242   3.986   1.351
 5218TIP3   OH215610   2.704   5.026   4.880
 5218TIP3    H115611   2.640   4.961   4.907
 5218TIP3    H215612   2.694   5.097   4.943
 5219TIP3   OH215613   0.360   0.866   5.613
 5219TIP3    H115614   0.392   0.795   5.557
 5219TIP3    H215615   0.284   0.900   5.567
 5220TIP3   OH215616   4.004   0.715   2.993
 5220TIP3    H115617   3.987   0.623   3.015
 5220TIP3    H215618   3.926   0.744   2.946
 5221TIP3   OH215619   4.597   1.916   5.846
 5221TIP3    H115620   4.524   1.940   5.789
 5221TIP3    H215621   4.666   1.889   5.786
 5222TIP3   OH215622   3.967   3.931   1.920
 5222TIP3    H115623   3.939   4.004   1.975
 5222TIP3    H215624   3.953   3.961   1.831
 5223TIP3   OH215625   4.463   2.381   2.838
 5223TIP3    H115626   4.421   2.335   2.764
 5223TIP3    H215627   4.391   2.401   2.898
 5224TIP3   OH215628   7.891   6.266   6.260
 5224TIP3    H115629   7.831   6.193   6.246
 5224TIP3    H215630   7.968   6.244   6.207
 5225TIP3   OH215631   5.133   4.065   2.330
 5225TIP3    H115632   5.213   4.060   2.276
 5225TIP3    H215633   5.121   4.159   2.346
 5226TIP3   OH215634   6.648   7.455   1.075
 5226TIP3    H115635   6.692   7.408   1.146
 5226TIP3    H215636   6.568   7.490   1.116
 5227TIP3   OH215637   2.516   0.794   4.534
 5227TIP3    H115638   2.483   0.875   4.495
 5227TIP3    H215639   2.438   0.749   4.566
 5228TIP3   OH215640   6.286   2.465   3.930
 5228TIP3    H115641   6.294   2.501   3.842
 5228TIP3    H215642   6.301   2.539   3.989
 5229TIP3   OH215643   1.616   3.007   3.307
 5229TIP3    H115644   1.688   3.067   3.325
 5229TIP3    H215645   1.635   2.971   3.221
 5230TIP3   OH215646   3.574   7.731   6.348
 5230TIP3    H115647   3.560   7.784   6.427
 5230TIP3    H215648   3.569   7.640   6.379
 5231TIP3   OH215649   6.275   0.277   1.705
 5231TIP3    H115650   6.206   0.230   1.659
 5231TIP3    H215651   6.232   0.355   1.740
 5232TIP3   OH215652   1.306   1.372   3.726
 5232TIP3    H115653   1.376   1.344   3.668
 5232TIP3    H215654   1.294   1.465   3.706
 5233TIP3   OH215655   3.574   6.669   1.969
 5233TIP3    H115656   3.565   6.603   2.039
 5233TIP3    H215657   3.577   6.617   1.888
 5234TIP3   OH215658   4.590   2.571   1.364
 5234TIP3    H115659   4.593   2.564   1.459
 5234TIP3    H215660   4.631   2.656   1.345
 5235TIP3   OH215661   6.771   6.939   2.613
 5235TIP3    H115662   6.827   6.942   2.690
 5235TIP3    H215663   6.738   6.849   2.611
 5236TIP3   OH215664   3.319   7.020   2.270
 5236TIP3    H115665   3.245   6.996   2.214
 5236TIP3    H215666   3.396   6.984   2.225
 5237TIP3   OH215667   6.204   6.789   0.100
 5237TIP3    H115668   6.193   6.711   0.154
 5237TIP3    H215669   6.292   6.781   0.065
 5238TIP3   OH215670   5.218   5.486   3.806
 5238TIP3    H115671   5.261   5.496   3.891
 5238TIP3    H215672   5.155   5.415   3.819
 5239TIP3   OH215673   3.648   2.386   0.410
 5239TIP3    H115674   3.661   2.371   0.317
 5239TIP3    H215675   3.706   2.324   0.453
 5240TIP3   OH215676   7.862   4.344   6.342
 5240TIP3    H115677   7.907   4.427   6.357
 5240TIP3    H215678   7.888   4.289   6.416
 5241TIP3   OH215679   5.426   1.212   0.139
 5241TIP3    H115680   5.456   1.143   0.197
 5241TIP3    H215681   5.498   1.276   0.139
 5242TIP3   OH215682   7.104   0.119   1.681
 5242TIP3    H115683   7.180   0.107   1.737
 5242TIP3    H215684   7.036   0.151   1.740
 5243TIP3   OH215685   4.578   7.184   2.598
 5243TIP3    H115686   4.654   7.150   2.551
 5243TIP3    H215687   4.610   7.201   2.686
 5244TIP3   OH215688   3.319   5.080   4.882
 5244TIP3    H115689   3.304   5.030   4.802
 5244TIP3    H215690   3.311   5.171   4.856
 5245TIP3   OH215691   1.869   4.493   1.903
 5245TIP3    H115692   1.878   4.573   1.851
 5245TIP3    H215693   1.849   4.524   1.991
 5246TIP3   OH215694   6.776   1.380   5.100
 5246TIP3    H115695   6.693   1.355   5.142
 5246TIP3    H215696   6.843   1.353   5.162
 5247TIP3   OH215697   4.779   6.903   4.526
 5247TIP3    H115698   4.805   6.847   4.454
 5247TIP3    H215699   4.835   6.876   4.599
 5248TIP3   OH215700   1.939   2.485   4.577
 5248TIP3    H115701   1.963   2.510   4.488
 5248TIP3    H215702   1.857   2.436   4.568
 5249TIP3   OH215703   2.483   4.360   2.631
 5249TIP3    H115704   2.502   4.313   2.712
 5249TIP3    H215705   2.417   4.306   2.586
 5250TIP3   OH215706   0.928   2.996   4.659
 5250TIP3    H115707   0.886   2.921   4.617
 5250TIP3    H215708   1.017   2.996   4.624
 5251TIP3   OH215709   7.389   1.742   2.839
 5251TIP3    H115710   7.316   1.794   2.874
 5251TIP3    H215711   7.462   1.804   2.836
 5252TIP3   OH215712   3.664   5.124   2.640
 5252TIP3    H115713   3.741   5.068   2.654
 5252TIP3    H215714   3.610   5.110   2.718
 5253TIP3   OH215715   2.755   5.419   6.661
 5253TIP3    H115716   2.813   5.382   6.594
 5253TIP3    H215717   2.695   5.348   6.682
 5254TIP3   OH215718   7.576   4.675   5.903
 5254TIP3    H115719   7.534   4.755   5.936
 5254TIP3    H215720   7.549   4.607   5.965
 5255TIP3   OH215721   5.735   2.591   2.177
 5255TIP3    H115722   5.696   2.653   2.238
 5255TIP3    H215723   5.829   2.607   2.183
 5256TIP3   OH215724   2.464   6.506   3.740
 5256TIP3    H115725   2.480   6.535   3.650
 5256TIP3    H215726   2.535   6.546   3.791
 5257TIP3   OH215727   1.034   1.725   1.173
 5257TIP3    H115728   1.064   1.672   1.247
 5257TIP3    H215729   1.100   1.711   1.105
 5258TIP3   OH215730   0.318   0.531   5.178
 5258TIP3    H115731   0.326   0.436   5.181
 5258TIP3    H215732   0.381   0.559   5.112
 5259TIP3   OH215733   2.882   0.178   6.393
 5259TIP3    H115734   2.831   0.230   6.454
 5259TIP3    H215735   2.966   0.224   6.386
 5260TIP3   OH215736   3.658   7.197   2.959
 5260TIP3    H115737   3.681   7.198   2.866
 5260TIP3    H215738   3.740   7.175   3.004
 5261TIP3   OH215739   5.001   5.295   3.571
 5261TIP3    H115740   4.994   5.318   3.663
 5261TIP3    H215741   4.920   5.249   3.551
 5262TIP3   OH215742   2.901   4.745   6.548
 5262TIP3    H115743   2.992   4.724   6.526
 5262TIP3    H215744   2.865   4.663   6.581
 5263TIP3   OH215745   6.687   0.099   1.660
 5263TIP3    H115746   6.742   0.078   1.584
 5263TIP3    H215747   6.599   0.104   1.624
 5264TIP3   OH215748   4.404   2.363   5.326
 5264TIP3    H115749   4.376   2.300   5.259
 5264TIP3    H215750   4.479   2.321   5.368
 5265TIP3   OH215751   1.777   1.898   5.923
 5265TIP3    H115752   1.738   1.979   5.890
 5265TIP3    H215753   1.792   1.914   6.016
 5266TIP3   OH215754   5.805   7.088   1.767
 5266TIP3    H115755   5.775   7.105   1.678
 5266TIP3    H215756   5.753   7.013   1.796
 5267TIP3   OH215757   5.401   2.268   4.447
 5267TIP3    H115758   5.468   2.334   4.427
 5267TIP3    H215759   5.436   2.220   4.522
 5268TIP3   OH215760   4.077   1.296   4.975
 5268TIP3    H115761   4.068   1.391   4.967
 5268TIP3    H215762   4.156   1.284   5.028
 5269TIP3   OH215763   3.919   6.083   5.713
 5269TIP3    H115764   3.957   6.170   5.707
 5269TIP3    H215765   3.824   6.098   5.704
 5270TIP3   OH215766  -0.038   3.964   6.178
 5270TIP3    H115767   0.035   3.948   6.119
 5270TIP3    H215768   0.002   3.986   6.262
 5271TIP3   OH215769   7.473   5.802   3.120
 5271TIP3    H115770   7.522   5.849   3.187
 5271TIP3    H215771   7.471   5.862   3.045
 5272TIP3   OH215772   5.856   2.162   2.728
 5272TIP3    H115773   5.878   2.144   2.636
 5272TIP3    H215774   5.780   2.108   2.746
 5273TIP3   OH215775   1.396   7.036   6.433
 5273TIP3    H115776   1.343   6.982   6.492
 5273TIP3    H215777   1.394   6.989   6.349
 5274TIP3   OH215778   6.703   6.357   0.683
 5274TIP3    H115779   6.752   6.386   0.607
 5274TIP3    H215780   6.767   6.312   0.738
 5275TIP3   OH215781   7.593   6.997   3.329
 5275TIP3    H115782   7.565   7.086   3.307
 5275TIP3    H215783   7.673   7.008   3.380
 5276TIP3   OH215784   8.281   1.432   4.593
 5276TIP3    H115785   8.254   1.340   4.595
 5276TIP3    H215786   8.200   1.480   4.577
 5277TIP3   OH215787   6.835   1.256   1.047
 5277TIP3    H115788   6.857   1.349   1.035
 5277TIP3    H215789   6.814   1.226   0.959
 5278TIP3   OH215790   2.243   3.714   3.220
 5278TIP3    H115791   2.291   3.738   3.299
 5278TIP3    H215792   2.202   3.796   3.191
 5279TIP3   OH215793   4.773   0.157   3.000
 5279TIP3    H115794   4.839   0.105   2.954
 5279TIP3    H215795   4.823   0.225   3.046
 5280TIP3   OH215796   4.171   4.884   5.375
 5280TIP3    H115797   4.085   4.912   5.405
 5280TIP3    H215798   4.229   4.898   5.450
 5281TIP3   OH215799   4.819   1.658   6.407
 5281TIP3    H115800   4.825   1.751   6.430
 5281TIP3    H215801   4.821   1.657   6.311
 5282TIP3   OH215802   1.084   7.247   6.544
 5282TIP3    H115803   1.172   7.223   6.573
 5282TIP3    H215804   1.034   7.258   6.625
 5283TIP3   OH215805   5.103   5.267   4.014
 5283TIP3    H115806   5.086   5.176   4.038
 5283TIP3    H215807   5.017   5.308   4.010
 5284TIP3   OH215808   6.481   7.715   0.964
 5284TIP3    H115809   6.528   7.799   0.971
 5284TIP3    H215810   6.549   7.652   0.941
 5285TIP3   OH215811   5.550   2.457   3.733
 5285TIP3    H115812   5.558   2.552   3.731
 5285TIP3    H215813   5.479   2.437   3.672
 5286TIP3   OH215814   5.235   2.480   2.257
 5286TIP3    H115815   5.185   2.439   2.328
 5286TIP3    H215816   5.275   2.406   2.211
 5287TIP3   OH215817   2.370   5.181   2.276
 5287TIP3    H115818   2.419   5.262   2.262
 5287TIP3    H215819   2.430   5.124   2.324
 5288TIP3   OH215820   3.405   4.907   5.571
 5288TIP3    H115821   3.425   4.821   5.534
 5288TIP3    H215822   3.422   4.897   5.665
 5289TIP3   OH215823   2.547   6.951   5.424
 5289TIP3    H115824   2.622   7.007   5.405
 5289TIP3    H215825   2.564   6.871   5.374
 5290TIP3   OH215826   5.676   4.819   3.406
 5290TIP3    H115827   5.680   4.868   3.323
 5290TIP3    H215828   5.651   4.730   3.380
 5291TIP3   OH215829   4.314   1.934   0.553
 5291TIP3    H115830   4.391   1.937   0.496
 5291TIP3    H215831   4.257   1.868   0.512
 5292TIP3   OH215832   1.472   4.227   0.475
 5292TIP3    H115833   1.547   4.176   0.503
 5292TIP3    H215834   1.423   4.245   0.555
 5293TIP3   OH215835   3.898   4.601   0.169
 5293TIP3    H115836   3.966   4.651   0.213
 5293TIP3    H215837   3.830   4.665   0.150
 5294TIP3   OH215838   0.954   1.045   5.153
 5294TIP3    H115839   0.869   1.026   5.115
 5294TIP3    H215840   0.963   0.984   5.226
 5295TIP3   OH215841   7.535   1.977   5.935
 5295TIP3    H115842   7.550   1.915   6.007
 5295TIP3    H215843   7.461   2.029   5.964
 5296TIP3   OH215844   5.562   5.495   2.195
 5296TIP3    H115845   5.570   5.454   2.109
 5296TIP3    H215846   5.651   5.495   2.230
 5297TIP3   OH215847   1.595   7.623   6.374
 5297TIP3    H115848   1.510   7.663   6.393
 5297TIP3    H215849   1.641   7.624   6.458
 5298TIP3   OH215850   3.403   6.660   0.475
 5298TIP3    H115851   3.331   6.655   0.538
 5298TIP3    H215852   3.425   6.569   0.456
 5299TIP3   OH215853   8.315   5.362   3.996
 5299TIP3    H115854   8.380   5.416   3.952
 5299TIP3    H215855   8.302   5.287   3.938
 5300TIP3   OH215856   5.686   3.768   5.341
 5300TIP3    H115857   5.752   3.813   5.288
 5300TIP3    H215858   5.604   3.813   5.320
 5301TIP3   OH215859   1.151   3.632   0.230
 5301TIP3    H115860   1.079   3.675   0.185
 5301TIP3    H215861   1.168   3.687   0.306
 5302TIP3   OH215862   1.443   2.296   4.395
 5302TIP3    H115863   1.395   2.281   4.477
 5302TIP3    H215864   1.444   2.210   4.353
 5303TIP3   OH215865   6.231   4.163   4.960
 5303TIP3    H115866   6.215   4.072   4.933
 5303TIP3    H215867   6.238   4.159   5.055
 5304TIP3   OH215868   1.333   0.179   1.918
 5304TIP3    H115869   1.258   0.191   1.977
 5304TIP3    H215870   1.312   0.235   1.843
 5305TIP3   OH215871   5.891   2.140   0.062
 5305TIP3    H115872   5.820   2.186   0.017
 5305TIP3    H215873   5.846   2.078   0.120
 5306TIP3   OH215874   1.180   3.270   6.234
 5306TIP3    H115875   1.217   3.181   6.240
 5306TIP3    H215876   1.256   3.325   6.214
 5307TIP3   OH215877   4.029   7.119   1.850
 5307TIP3    H115878   4.086   7.185   1.810
 5307TIP3    H215879   3.985   7.165   1.922
 5308TIP3   OH215880   7.341   5.908   6.503
 5308TIP3    H115881   7.265   5.935   6.452
 5308TIP3    H215882   7.352   5.977   6.568
 5309TIP3   OH215883   1.341   2.901   0.990
 5309TIP3    H115884   1.388   2.823   1.019
 5309TIP3    H215885   1.349   2.901   0.894
 5310TIP3   OH215886   5.873   3.140   0.601
 5310TIP3    H115887   5.953   3.167   0.556
 5310TIP3    H215888   5.881   3.045   0.609
 5311TIP3   OH215889   8.331   6.689   2.548
 5311TIP3    H115890   8.254   6.733   2.513
 5311TIP3    H215891   8.356   6.626   2.480
 5312TIP3   OH215892   3.105   2.715   1.682
 5312TIP3    H115893   3.158   2.782   1.640
 5312TIP3    H215894   3.054   2.676   1.612
 5313TIP3   OH215895   2.576   4.829   1.365
 5313TIP3    H115896   2.567   4.809   1.271
 5313TIP3    H215897   2.491   4.805   1.402
 5314TIP3   OH215898   1.782   1.063   3.991
 5314TIP3    H115899   1.710   1.046   4.051
 5314TIP3    H215900   1.739   1.099   3.913
 5315TIP3   OH215901   1.649   3.321   0.540
 5315TIP3    H115902   1.729   3.351   0.583
 5315TIP3    H215903   1.590   3.397   0.543
 5316TIP3   OH215904   5.705   0.344   2.888
 5316TIP3    H115905   5.761   0.402   2.938
 5316TIP3    H215906   5.765   0.301   2.826
 5317TIP3   OH215907   2.900   3.252  -0.007
 5317TIP3    H115908   2.945   3.331  -0.037
 5317TIP3    H215909   2.927   3.243   0.084
 5318TIP3   OH215910   2.215   5.575   0.833
 5318TIP3    H115911   2.309   5.581   0.814
 5318TIP3    H215912   2.211   5.541   0.922
 5319TIP3   OH215913   7.822   5.770   2.950
 5319TIP3    H115914   7.769   5.781   2.871
 5319TIP3    H215915   7.810   5.852   2.998
 5320TIP3   OH215916   1.316   2.982   0.127
 5320TIP3    H115917   1.291   2.896   0.095
 5320TIP3    H215918   1.377   2.965   0.199
 5321TIP3   OH215919   4.534   7.073   6.432
 5321TIP3    H115920   4.592   7.014   6.384
 5321TIP3    H215921   4.587   7.103   6.507
 5322TIP3   OH215922   7.118   2.169   1.569
 5322TIP3    H115923   7.170   2.192   1.492
 5322TIP3    H215924   7.103   2.253   1.614
 5323TIP3   OH215925   6.358   3.069   1.981
 5323TIP3    H115926   6.374   3.146   2.035
 5323TIP3    H215927   6.338   3.105   1.894
 5324TIP3   OH215928   2.678   2.795   3.774
 5324TIP3    H115929   2.657   2.705   3.798
 5324TIP3    H215930   2.609   2.821   3.712
 5325TIP3   OH215931   1.149   6.402   5.985
 5325TIP3    H115932   1.144   6.364   5.898
 5325TIP3    H215933   1.067   6.375   6.028
 5326TIP3   OH215934   2.523   0.801   2.994
 5326TIP3    H115935   2.512   0.715   3.035
 5326TIP3    H215936   2.599   0.791   2.937
 5327TIP3   OH215937   0.908   2.020   0.139
 5327TIP3    H115938   0.925   2.076   0.214
 5327TIP3    H215939   0.845   2.069   0.086
 5328TIP3   OH215940   3.791   7.709   1.298
 5328TIP3    H115941   3.825   7.668   1.377
 5328TIP3    H215942   3.809   7.802   1.309
 5329TIP3   OH215943   7.729   1.260   1.372
 5329TIP3    H115944   7.728   1.355   1.370
 5329TIP3    H215945   7.637   1.235   1.368
 5330TIP3   OH215946   2.455   7.326   3.730
 5330TIP3    H115947   2.491   7.399   3.680
 5330TIP3    H215948   2.532   7.277   3.759
 5331TIP3   OH215949   7.299   7.843   6.616
 5331TIP3    H115950   7.373   7.850   6.556
 5331TIP3    H215951   7.232   7.796   6.565
 5332TIP3   OH215952   2.982   6.157   4.152
 5332TIP3    H115953   2.975   6.076   4.101
 5332TIP3    H215954   2.912   6.150   4.218
 5333TIP3   OH215955   5.568   3.715   0.246
 5333TIP3    H115956   5.545   3.624   0.230
 5333TIP3    H215957   5.663   3.715   0.256
 5334TIP3   OH215958   7.205   4.254   0.281
 5334TIP3    H115959   7.266   4.327   0.275
 5334TIP3    H215960   7.223   4.215   0.367
 5335TIP3   OH215961   7.888   0.644   5.181
 5335TIP3    H115962   7.946   0.601   5.117
 5335TIP3    H215963   7.800   0.630   5.147
 5336TIP3   OH215964   7.481   3.532   1.904
 5336TIP3    H115965   7.570   3.500   1.920
 5336TIP3    H215966   7.492   3.604   1.842
 5337TIP3   OH215967   0.215   5.718   3.396
 5337TIP3    H115968   0.204   5.806   3.433
 5337TIP3    H215969   0.276   5.674   3.455
 5338TIP3   OH215970   7.147   4.651   6.212
 5338TIP3    H115971   7.149   4.711   6.138
 5338TIP3    H215972   7.177   4.703   6.286
 5339TIP3   OH215973   7.790   1.086   2.487
 5339TIP3    H115974   7.772   1.023   2.417
 5339TIP3    H215975   7.707   1.096   2.533
 5340TIP3   OH215976   4.142   4.753   0.355
 5340TIP3    H115977   4.063   4.803   0.338
 5340TIP3    H215978   4.172   4.725   0.269
 5341TIP3   OH215979   3.612   0.440   1.605
 5341TIP3    H115980   3.614   0.461   1.511
 5341TIP3    H215981   3.605   0.526   1.647
 5342TIP3   OH215982   7.760   1.571   0.507
 5342TIP3    H115983   7.743   1.603   0.595
 5342TIP3    H215984   7.803   1.486   0.520
 5343TIP3   OH215985   6.112   4.414   1.189
 5343TIP3    H115986   6.116   4.502   1.225
 5343TIP3    H215987   6.201   4.397   1.156
 5344TIP3   OH215988   3.142   6.280   1.740
 5344TIP3    H115989   3.047   6.286   1.751
 5344TIP3    H215990   3.156   6.298   1.647
 5345TIP3   OH215991   0.426   0.072   0.241
 5345TIP3    H115992   0.392   0.096   0.155
 5345TIP3    H215993   0.515   0.042   0.225
 5346TIP3   OH215994   5.342   1.818   0.558
 5346TIP3    H115995   5.418   1.870   0.533
 5346TIP3    H215996   5.286   1.878   0.606
 5347TIP3   OH215997   6.041   6.929   3.866
 5347TIP3    H115998   5.992   6.848   3.851
 5347TIP3    H215999   6.009   6.989   3.799
 5348TIP3   OH216000   2.553   5.198   3.218
 5348TIP3    H116001   2.590   5.111   3.204
 5348TIP3    H216002   2.465   5.182   3.251
 5349TIP3   OH216003   5.850   5.820   5.291
 5349TIP3    H116004   5.937   5.826   5.328
 5349TIP3    H216005   5.860   5.850   5.201
 5350TIP3   OH216006   0.686   0.259   6.064
 5350TIP3    H116007   0.780   0.266   6.084
 5350TIP3    H216008   0.649   0.215   6.140
 5351TIP3   OH216009   3.650   6.037   1.637
 5351TIP3    H116010   3.728   6.090   1.624
 5351TIP3    H216011   3.647   6.020   1.731
 5352TIP3   OH216012   2.663   2.652   0.068
 5352TIP3    H116013   2.633   2.581   0.012
 5352TIP3    H216014   2.750   2.624   0.098
 5353TIP3   OH216015   5.086   7.711   4.055
 5353TIP3    H116016   5.131   7.780   4.007
 5353TIP3    H216017   5.154   7.670   4.108
 5354TIP3   OH216018   3.267   7.546   4.827
 5354TIP3    H116019   3.287   7.616   4.764
 5354TIP3    H216020   3.309   7.574   4.908
 5355TIP3   OH216021   1.684   0.326   0.314
 5355TIP3    H116022   1.747   0.355   0.247
 5355TIP3    H216023   1.663   0.406   0.362
 5356TIP3   OH216024   0.055   5.877   6.592
 5356TIP3    H116025   0.059   5.947   6.657
 5356TIP3    H216026  -0.028   5.832   6.609
 5357TIP3   OH216027   2.640   3.401   2.591
 5357TIP3    H116028   2.651   3.490   2.556
 5357TIP3    H216029   2.549   3.380   2.573
 5358TIP3   OH216030   4.624   2.767   0.076
 5358TIP3    H116031   4.547   2.813   0.109
 5358TIP3    H216032   4.689   2.837   0.065
 5359TIP3   OH216033   1.474   1.955   3.031
 5359TIP3    H116034   1.516   2.033   2.995
 5359TIP3    H216035   1.393   1.946   2.981
 5360TIP3   OH216036   1.074   0.973   4.381
 5360TIP3    H116037   1.156   0.926   4.365
 5360TIP3    H216038   1.006   0.906   4.372
 5361TIP3   OH216039   1.072   1.621   6.543
 5361TIP3    H116040   1.122   1.685   6.593
 5361TIP3    H216041   1.131   1.546   6.536
 5362TIP3   OH216042   6.393   0.626   1.080
 5362TIP3    H116043   6.487   0.634   1.099
 5362TIP3    H216044   6.386   0.652   0.988
 5363TIP3   OH216045   3.971   0.392   4.220
 5363TIP3    H116046   3.935   0.327   4.160
 5363TIP3    H216047   3.994   0.466   4.165
 5364TIP3   OH216048   6.766   1.360   1.549
 5364TIP3    H116049   6.818   1.435   1.579
 5364TIP3    H216050   6.820   1.283   1.570
 5365TIP3   OH216051   6.564   5.286   3.194
 5365TIP3    H116052   6.574   5.198   3.232
 5365TIP3    H216053   6.652   5.322   3.195
 5366TIP3   OH216054   2.546   5.614   4.801
 5366TIP3    H116055   2.510   5.699   4.776
 5366TIP3    H216056   2.640   5.621   4.783
 5367TIP3   OH216057   5.131   3.382   4.089
 5367TIP3    H116058   5.060   3.319   4.072
 5367TIP3    H216059   5.211   3.332   4.075
 5368TIP3   OH216060   4.093   0.017   5.892
 5368TIP3    H116061   4.116   0.032   5.800
 5368TIP3    H216062   4.013   0.067   5.905
 5369TIP3   OH216063   7.978   7.719   1.995
 5369TIP3    H116064   8.006   7.787   2.056
 5369TIP3    H216065   8.000   7.752   1.908
 5370TIP3   OH216066   5.709   7.055   3.410
 5370TIP3    H116067   5.692   7.027   3.501
 5370TIP3    H216068   5.646   7.125   3.395
 5371TIP3   OH216069   8.120   6.828   2.984
 5371TIP3    H116070   8.210   6.802   3.002
 5371TIP3    H216071   8.099   6.891   3.052
 5372TIP3   OH216072   1.197   2.487   0.796
 5372TIP3    H116073   1.142   2.412   0.818
 5372TIP3    H216074   1.192   2.544   0.872
 5373TIP3   OH216075   0.747   4.638   2.382
 5373TIP3    H116076   0.697   4.679   2.311
 5373TIP3    H216077   0.763   4.710   2.444
 5374TIP3   OH216078   5.684   2.833   4.013
 5374TIP3    H116079   5.751   2.878   3.962
 5374TIP3    H216080   5.700   2.862   4.103
 5375TIP3   OH216081   3.402   2.092   5.615
 5375TIP3    H116082   3.321   2.041   5.608
 5375TIP3    H216083   3.373   2.184   5.616
 5376TIP3   OH216084   0.521   1.136   4.210
 5376TIP3    H116085   0.593   1.155   4.270
 5376TIP3    H216086   0.544   1.052   4.171
 5377TIP3   OH216087   3.837   2.831   2.624
 5377TIP3    H116088   3.743   2.821   2.637
 5377TIP3    H216089   3.848   2.924   2.602
 5378TIP3   OH216090   0.881   4.275   6.585
 5378TIP3    H116091   0.833   4.347   6.543
 5378TIP3    H216092   0.820   4.201   6.583
 5379TIP3   OH216093   6.850   2.487   3.005
 5379TIP3    H116094   6.915   2.523   2.945
 5379TIP3    H216095   6.855   2.392   2.991
 5380TIP3   OH216096   7.402   4.895   4.063
 5380TIP3    H116097   7.333   4.888   4.129
 5380TIP3    H216098   7.463   4.959   4.099
 5381TIP3   OH216099   3.669   7.426   0.093
 5381TIP3    H116100   3.724   7.447   0.017
 5381TIP3    H216101   3.667   7.331   0.095
 5382TIP3   OH216102   2.857   6.421   3.524
 5382TIP3    H116103   2.916   6.370   3.469
 5382TIP3    H216104   2.909   6.496   3.552
 5383TIP3   OH216105   6.567   6.387   0.256
 5383TIP3    H116106   6.590   6.296   0.237
 5383TIP3    H216107   6.574   6.431   0.171
 5384TIP3   OH216108   7.911   7.557   4.293
 5384TIP3    H116109   7.991   7.516   4.259
 5384TIP3    H216110   7.851   7.484   4.306
 5385TIP3   OH216111   2.659   3.800   5.917
 5385TIP3    H116112   2.633   3.882   5.874
 5385TIP3    H216113   2.705   3.751   5.848
 5386TIP3   OH216114   8.092   0.657   0.978
 5386TIP3    H116115   8.008   0.675   1.020
 5386TIP3    H216116   8.137   0.598   1.038
 5387TIP3   OH216117   0.588   2.362   1.249
 5387TIP3    H116118   0.633   2.351   1.165
 5387TIP3    H216119   0.496   2.373   1.225
 5388TIP3   OH216120   2.006   5.854   1.544
 5388TIP3    H116121   1.968   5.852   1.632
 5388TIP3    H216122   1.946   5.802   1.491
 5389TIP3   OH216123   1.670   1.896   3.695
 5389TIP3    H116124   1.638   1.860   3.778
 5389TIP3    H216125   1.683   1.989   3.713
 5390TIP3   OH216126   0.144   5.134   4.519
 5390TIP3    H116127   0.142   5.039   4.511
 5390TIP3    H216128   0.193   5.150   4.600
 5391TIP3   OH216129   0.708   6.263   1.755
 5391TIP3    H116130   0.613   6.264   1.767
 5391TIP3    H216131   0.733   6.171   1.768
 5392TIP3   OH216132   0.577   0.379   1.671
 5392TIP3    H116133   0.651   0.375   1.732
 5392TIP3    H216134   0.568   0.471   1.649
 5393TIP3   OH216135   0.884   0.253   1.544
 5393TIP3    H116136   0.927   0.279   1.626
 5393TIP3    H216137   0.953   0.210   1.493
 5394TIP3   OH216138   7.934   2.608   6.532
 5394TIP3    H116139   7.856   2.631   6.482
 5394TIP3    H216140   7.901   2.564   6.610
 5395TIP3   OH216141   2.163   6.079   5.739
 5395TIP3    H116142   2.172   6.141   5.666
 5395TIP3    H216143   2.246   6.031   5.740
 5396TIP3   OH216144   4.731   0.763   1.216
 5396TIP3    H116145   4.812   0.780   1.264
 5396TIP3    H216146   4.756   0.702   1.148
 5397TIP3   OH216147   1.145   4.571   1.307
 5397TIP3    H116148   1.183   4.493   1.348
 5397TIP3    H216149   1.220   4.627   1.287
 5398TIP3   OH216150   5.410   7.375   1.289
 5398TIP3    H116151   5.399   7.371   1.384
 5398TIP3    H216152   5.352   7.307   1.255
 5399TIP3   OH216153   5.382   1.222   5.031
 5399TIP3    H116154   5.338   1.260   4.955
 5399TIP3    H216155   5.348   1.132   5.035
 5400TIP3   OH216156   6.880   4.284   0.857
 5400TIP3    H116157   6.821   4.350   0.820
 5400TIP3    H216158   6.846   4.201   0.826
 5401TIP3   OH216159   2.166   3.908   4.836
 5401TIP3    H116160   2.158   3.995   4.798
 5401TIP3    H216161   2.109   3.911   4.913
 5402TIP3   OH216162   5.675   2.297   0.297
 5402TIP3    H116163   5.602   2.245   0.329
 5402TIP3    H216164   5.653   2.387   0.320
 5403TIP3   OH216165   8.224   5.758   3.084
 5403TIP3    H116166   8.229   5.828   3.019
 5403TIP3    H216167   8.316   5.737   3.104
 5404TIP3   OH216168   7.044   6.733   1.549
 5404TIP3    H116169   7.077   6.643   1.558
 5404TIP3    H216170   7.073   6.777   1.628
 5405TIP3   OH216171   1.811   3.143   1.218
 5405TIP3    H116172   1.863   3.194   1.156
 5405TIP3    H216173   1.758   3.208   1.264
 5406TIP3   OH216174   2.959   3.840   6.532
 5406TIP3    H116175   2.997   3.928   6.535
 5406TIP3    H216176   3.010   3.794   6.466
 5407TIP3   OH216177   4.824   2.785   4.582
 5407TIP3    H116178   4.776   2.715   4.537
 5407TIP3    H216179   4.916   2.763   4.569
 5408TIP3   OH216180   7.572   2.844   1.730
 5408TIP3    H116181   7.567   2.875   1.640
 5408TIP3    H216182   7.499   2.888   1.774
 5409TIP3   OH216183   5.987   0.946   3.640
 5409TIP3    H116184   5.939   0.873   3.601
 5409TIP3    H216185   6.074   0.942   3.600
 5410TIP3   OH216186   1.775   2.732   4.223
 5410TIP3    H116187   1.739   2.693   4.303
 5410TIP3    H216188   1.868   2.745   4.242
 5411TIP3   OH216189   0.429   3.928   0.474
 5411TIP3    H116190   0.501   3.988   0.452
 5411TIP3    H216191   0.471   3.856   0.520
 5412TIP3   OH216192   4.793   1.348   4.302
 5412TIP3    H116193   4.814   1.268   4.351
 5412TIP3    H216194   4.875   1.373   4.261
 5413TIP3   OH216195   0.303   4.607   3.977
 5413TIP3    H116196   0.237   4.551   4.017
 5413TIP3    H216197   0.317   4.569   3.890
 5414TIP3   OH216198   3.657   6.100   4.647
 5414TIP3    H116199   3.693   6.102   4.558
 5414TIP3    H216200   3.606   6.018   4.650
 5415TIP3   OH216201   4.211   6.639   1.411
 5415TIP3    H116202   4.264   6.718   1.408
 5415TIP3    H216203   4.184   6.631   1.503
 5416TIP3   OH216204   4.327   2.724   2.963
 5416TIP3    H116205   4.315   2.639   2.920
 5416TIP3    H216206   4.261   2.780   2.921
 5417TIP3   OH216207   0.843   7.576   0.470
 5417TIP3    H116208   0.763   7.582   0.523
 5417TIP3    H216209   0.814   7.592   0.381
 5418TIP3   OH216210   6.106   1.803   4.124
 5418TIP3    H116211   6.154   1.732   4.082
 5418TIP3    H216212   6.160   1.881   4.109
 5419TIP3   OH216213   3.638   0.074   1.135
 5419TIP3    H116214   3.638  -0.021   1.140
 5419TIP3    H216215   3.730   0.097   1.120
 5420TIP3   OH216216   1.882   0.878   2.054
 5420TIP3    H116217   1.939   0.954   2.045
 5420TIP3    H216218   1.875   0.864   2.149
 5421TIP3   OH216219   6.058   6.025   1.534
 5421TIP3    H116220   6.068   5.942   1.486
 5421TIP3    H216221   6.120   6.085   1.492
 5422TIP3   OH216222   6.649   6.408   1.161
 5422TIP3    H116223   6.703   6.463   1.219
 5422TIP3    H216224   6.640   6.460   1.081
 5423TIP3   OH216225   8.189   0.578   3.130
 5423TIP3    H116226   8.160   0.663   3.098
 5423TIP3    H216227   8.121   0.551   3.192
 5424TIP3   OH216228   7.295   3.216   1.586
 5424TIP3    H116229   7.269   3.157   1.515
 5424TIP3    H216230   7.313   3.299   1.542
 5425TIP3   OH216231   4.585   1.469   2.492
 5425TIP3    H116232   4.541   1.539   2.539
 5425TIP3    H216233   4.551   1.475   2.403
 5426TIP3   OH216234   5.324   7.493   4.068
 5426TIP3    H116235   5.358   7.442   4.142
 5426TIP3    H216236   5.260   7.435   4.027
 5427TIP3   OH216237   6.691   2.460   0.682
 5427TIP3    H116238   6.709   2.437   0.773
 5427TIP3    H216239   6.692   2.556   0.682
 5428TIP3   OH216240   0.415   5.364   5.566
 5428TIP3    H116241   0.359   5.374   5.488
 5428TIP3    H216242   0.368   5.411   5.635
 5429TIP3   OH216243   5.851   2.899   2.877
 5429TIP3    H116244   5.834   2.832   2.811
 5429TIP3    H216245   5.772   2.899   2.932
 5430TIP3   OH216246   3.972   7.827   2.921
 5430TIP3    H116247   4.061   7.802   2.945
 5430TIP3    H216248   3.921   7.747   2.928
 5431TIP3   OH216249   0.732   6.600   5.040
 5431TIP3    H116250   0.808   6.657   5.033
 5431TIP3    H216251   0.730   6.553   4.957
 5432TIP3   OH216252   7.327   2.991   4.606
 5432TIP3    H116253   7.389   2.935   4.559
 5432TIP3    H216254   7.375   3.073   4.619
 5433TIP3   OH216255   7.593   4.822   3.365
 5433TIP3    H116256   7.585   4.750   3.303
 5433TIP3    H216257   7.658   4.793   3.429
 5434TIP3   OH216258   0.532   6.295   3.972
 5434TIP3    H116259   0.522   6.277   4.065
 5434TIP3    H216260   0.488   6.221   3.929
 5435TIP3   OH216261   3.838   4.620   5.738
 5435TIP3    H116262   3.913   4.561   5.739
 5435TIP3    H216263   3.762   4.562   5.747
 5436TIP3   OH216264   4.218   4.508   2.004
 5436TIP3    H116265   4.290   4.546   2.055
 5436TIP3    H216266   4.217   4.415   2.029
 5437TIP3   OH216267   0.189   5.453   2.576
 5437TIP3    H116268   0.149   5.425   2.658
 5437TIP3    H216269   0.119   5.498   2.529
 5438TIP3   OH216270   7.684   5.898   4.801
 5438TIP3    H116271   7.718   5.848   4.726
 5438TIP3    H216272   7.690   5.838   4.875
 5439TIP3   OH216273   0.932   4.248   5.901
 5439TIP3    H116274   0.949   4.195   5.824
 5439TIP3    H216275   0.914   4.183   5.970
 5440TIP3   OH216276   2.615   5.291   2.248
 5440TIP3    H116277   2.664   5.363   2.288
 5440TIP3    H216278   2.674   5.216   2.255
 5441TIP3   OH216279   4.199   7.734   0.138
 5441TIP3    H116280   4.179   7.664   0.076
 5441TIP3    H216281   4.119   7.744   0.190
 5442TIP3   OH216282   5.974   0.442   0.805
 5442TIP3    H116283   5.896   0.441   0.750
 5442TIP3    H216284   6.045   0.420   0.744
 5443TIP3   OH216285   0.102   3.676   4.848
 5443TIP3    H116286   0.126   3.766   4.823
 5443TIP3    H216287   0.044   3.687   4.924
 5444TIP3   OH216288   1.178   5.217   5.090
 5444TIP3    H116289   1.126   5.236   5.168
 5444TIP3    H216290   1.268   5.213   5.121
 5445TIP3   OH216291   1.091   5.300   2.681
 5445TIP3    H116292   1.114   5.332   2.594
 5445TIP3    H216293   1.012   5.247   2.667
 5446TIP3   OH216294   1.216   1.069   0.134
 5446TIP3    H116295   1.257   1.078   0.220
 5446TIP3    H216296   1.171   0.985   0.137
 5447TIP3   OH216297   5.776   4.303   5.646
 5447TIP3    H116298   5.847   4.345   5.599
 5447TIP3    H216299   5.711   4.373   5.659
 5448TIP3   OH216300   1.498   2.968   4.844
 5448TIP3    H116301   1.491   3.054   4.802
 5448TIP3    H216302   1.535   2.986   4.930
 5449TIP3   OH216303   2.883   5.942   6.122
 5449TIP3    H116304   2.874   5.902   6.209
 5449TIP3    H216305   2.939   6.018   6.137
 5450TIP3   OH216306   7.261   3.422   4.839
 5450TIP3    H116307   7.305   3.345   4.802
 5450TIP3    H216308   7.175   3.389   4.866
 5451TIP3   OH216309   6.321   4.701   5.308
 5451TIP3    H116310   6.400   4.683   5.257
 5451TIP3    H216311   6.298   4.617   5.348
 5452TIP3   OH216312   1.753   1.636   4.933
 5452TIP3    H116313   1.667   1.617   4.894
 5452TIP3    H216314   1.735   1.644   5.027
 5453TIP3   OH216315   0.806   0.985   1.651
 5453TIP3    H116316   0.874   0.994   1.718
 5453TIP3    H216317   0.748   0.916   1.685
 5454TIP3   OH216318   6.578   6.719   5.656
 5454TIP3    H116319   6.664   6.733   5.695
 5454TIP3    H216320   6.594   6.659   5.583
 5455TIP3   OH216321   7.491   2.288   3.617
 5455TIP3    H116322   7.469   2.374   3.581
 5455TIP3    H216323   7.417   2.233   3.594
 5456TIP3   OH216324   7.597   2.454   3.872
 5456TIP3    H116325   7.668   2.438   3.810
 5456TIP3    H216326   7.559   2.538   3.844
 5457TIP3   OH216327   0.917   0.541   5.230
 5457TIP3    H116328   0.998   0.590   5.246
 5457TIP3    H216329   0.871   0.592   5.163
 5458TIP3   OH216330   1.856   2.646   0.131
 5458TIP3    H116331   1.762   2.645   0.148
 5458TIP3    H216332   1.873   2.564   0.085
 5459TIP3   OH216333   7.338   4.593   6.538
 5459TIP3    H116334   7.287   4.540   6.599
 5459TIP3    H216335   7.424   4.601   6.579
 5460TIP3   OH216336   2.884   6.536   4.886
 5460TIP3    H116337   2.947   6.565   4.820
 5460TIP3    H216338   2.830   6.614   4.903
 5461TIP3   OH216339   1.930   4.406   1.428
 5461TIP3    H116340   1.941   4.316   1.458
 5461TIP3    H216341   1.926   4.400   1.333
 5462TIP3   OH216342   3.563   4.464   4.590
 5462TIP3    H116343   3.561   4.462   4.686
 5462TIP3    H216344   3.645   4.421   4.567
 5463TIP3   OH216345   5.651   5.265   3.001
 5463TIP3    H116346   5.619   5.326   3.067
 5463TIP3    H216347   5.573   5.223   2.966
 5464TIP3   OH216348   0.148   2.979   2.721
 5464TIP3    H116349   0.116   3.063   2.690
 5464TIP3    H216350   0.243   2.988   2.722
 5465TIP3   OH216351   5.130   7.111   4.118
 5465TIP3    H116352   5.072   7.062   4.176
 5465TIP3    H216353   5.199   7.145   4.176
 5466TIP3   OH216354   7.130   4.978   4.635
 5466TIP3    H116355   7.053   5.023   4.600
 5466TIP3    H216356   7.176   4.945   4.558
 5467TIP3   OH216357   6.729   6.777   2.009
 5467TIP3    H116358   6.684   6.695   1.990
 5467TIP3    H216359   6.813   6.769   1.962
 5468TIP3   OH216360   1.855   0.875   3.040
 5468TIP3    H116361   1.913   0.918   2.977
 5468TIP3    H216362   1.821   0.799   2.994
 5469TIP3   OH216363   4.464   1.850   6.241
 5469TIP3    H116364   4.487   1.757   6.240
 5469TIP3    H216365   4.541   1.894   6.205
 5470TIP3   OH216366   7.548   4.292   2.433
 5470TIP3    H116367   7.605   4.250   2.497
 5470TIP3    H216368   7.599   4.292   2.352
 5471TIP3   OH216369   2.512   1.705   1.540
 5471TIP3    H116370   2.480   1.658   1.463
 5471TIP3    H216371   2.537   1.791   1.507
 5472TIP3   OH216372   4.095   4.419   1.076
 5472TIP3    H116373   4.057   4.506   1.060
 5472TIP3    H216374   4.162   4.434   1.142
 5473TIP3   OH216375   7.910   4.689   6.003
 5473TIP3    H116376   7.902   4.652   5.915
 5473TIP3    H216377   7.964   4.767   5.991
 5474TIP3   OH216378   5.604   0.638   1.980
 5474TIP3    H116379   5.623   0.634   2.074
 5474TIP3    H216380   5.690   0.627   1.938
 5475TIP3   OH216381   4.848   5.112   5.181
 5475TIP3    H116382   4.836   5.126   5.088
 5475TIP3    H216383   4.792   5.037   5.202
 5476TIP3   OH216384   4.624   1.771   4.828
 5476TIP3    H116385   4.543   1.726   4.805
 5476TIP3    H216386   4.598   1.861   4.848
 5477TIP3   OH216387   2.519   6.986   1.955
 5477TIP3    H116388   2.556   7.033   1.880
 5477TIP3    H216389   2.568   7.019   2.030
 5478TIP3   OH216390   6.268   6.727   4.285
 5478TIP3    H116391   6.292   6.651   4.232
 5478TIP3    H216392   6.283   6.699   4.375
 5479TIP3   OH216393   4.169   2.102   0.722
 5479TIP3    H116394   4.237   2.047   0.683
 5479TIP3    H216395   4.185   2.190   0.687
 5480TIP3   OH216396   1.858   3.761   2.010
 5480TIP3    H116397   1.773   3.725   1.984
 5480TIP3    H216398   1.885   3.814   1.935
 5481TIP3   OH216399   1.092   0.807   0.141
 5481TIP3    H116400   1.143   0.740   0.097
 5481TIP3    H216401   1.075   0.771   0.228
 5482TIP3   OH216402   2.697   3.686   5.401
 5482TIP3    H116403   2.643   3.607   5.389
 5482TIP3    H216404   2.750   3.692   5.322
 5483TIP3   OH216405   1.224   7.611   2.346
 5483TIP3    H116406   1.304   7.629   2.296
 5483TIP3    H216407   1.202   7.521   2.325
 5484TIP3   OH216408   4.479   1.158   5.862
 5484TIP3    H116409   4.400   1.186   5.908
 5484TIP3    H216410   4.548   1.214   5.896
 5485TIP3   OH216411   1.361   6.303   5.656
 5485TIP3    H116412   1.408   6.365   5.712
 5485TIP3    H216413   1.285   6.276   5.707
 5486TIP3   OH216414   1.292   3.898   5.929
 5486TIP3    H116415   1.377   3.909   5.972
 5486TIP3    H216416   1.228   3.900   5.999
 5487TIP3   OH216417   2.796   0.843   5.684
 5487TIP3    H116418   2.850   0.892   5.622
 5487TIP3    H216419   2.747   0.781   5.630
 5488TIP3   OH216420   0.693   6.145   6.064
 5488TIP3    H116421   0.680   6.235   6.035
 5488TIP3    H216422   0.644   6.139   6.146
 5489TIP3   OH216423   1.315   7.597   6.011
 5489TIP3    H116424   1.324   7.690   5.989
 5489TIP3    H216425   1.259   7.596   6.088
 5490TIP3   OH216426   0.770   5.232   0.471
 5490TIP3    H116427   0.854   5.254   0.430
 5490TIP3    H216428   0.757   5.140   0.451
 5491TIP3   OH216429   0.351   6.505   0.751
 5491TIP3    H116430   0.330   6.580   0.695
 5491TIP3    H216431   0.435   6.473   0.717
 5492TIP3   OH216432   1.664   1.646   5.184
 5492TIP3    H116433   1.684   1.575   5.245
 5492TIP3    H216434   1.648   1.722   5.240
 5493TIP3   OH216435   7.214   2.462   5.010
 5493TIP3    H116436   7.206   2.501   4.923
 5493TIP3    H216437   7.175   2.526   5.069
 5494TIP3   OH216438   7.876   7.672   1.585
 5494TIP3    H116439   7.919   7.590   1.612
 5494TIP3    H216440   7.927   7.702   1.510
 5495TIP3   OH216441   2.685   5.752   1.711
 5495TIP3    H116442   2.714   5.767   1.621
 5495TIP3    H216443   2.590   5.756   1.706
 5496TIP3   OH216444   7.734   0.966   1.150
 5496TIP3    H116445   7.810   1.015   1.121
 5496TIP3    H216446   7.710   1.006   1.234
 5497TIP3   OH216447   2.351   6.803   6.278
 5497TIP3    H116448   2.280   6.862   6.253
 5497TIP3    H216449   2.365   6.748   6.201
 5498TIP3   OH216450   2.156   6.191   3.941
 5498TIP3    H116451   2.166   6.111   3.890
 5498TIP3    H216452   2.204   6.257   3.891
 5499TIP3   OH216453   7.496   1.192   5.008
 5499TIP3    H116454   7.575   1.154   4.972
 5499TIP3    H216455   7.473   1.263   4.948
 5500TIP3   OH216456   0.425   3.889   5.264
 5500TIP3    H116457   0.480   3.812   5.264
 5500TIP3    H216458   0.339   3.858   5.234
 5501TIP3   OH216459   3.737   6.929   5.793
 5501TIP3    H116460   3.731   6.942   5.698
 5501TIP3    H216461   3.704   7.010   5.831
 5502TIP3   OH216462   3.381   1.963   0.135
 5502TIP3    H116463   3.334   2.022   0.076
 5502TIP3    H216464   3.448   2.017   0.176
 5503TIP3   OH216465   4.456   2.131   6.324
 5503TIP3    H116466   4.364   2.128   6.351
 5503TIP3    H216467   4.479   2.040   6.307
 5504TIP3   OH216468   4.728   6.269   2.354
 5504TIP3    H116469   4.699   6.358   2.374
 5504TIP3    H216470   4.740   6.269   2.259
 5505TIP3   OH216471   1.236   1.105   1.129
 5505TIP3    H116472   1.250   1.083   1.037
 5505TIP3    H216473   1.152   1.152   1.130
 5506TIP3   OH216474   1.605   3.955   2.580
 5506TIP3    H116475   1.547   4.013   2.630
 5506TIP3    H216476   1.676   4.011   2.552
 5507TIP3   OH216477   0.629   0.207   1.458
 5507TIP3    H116478   0.607   0.266   1.529
 5507TIP3    H216479   0.720   0.183   1.474
 5508TIP3   OH216480   7.644   4.881   6.495
 5508TIP3    H116481   7.690   4.887   6.579
 5508TIP3    H216482   7.705   4.836   6.437
 5509TIP3   OH216483   0.424   5.265   1.910
 5509TIP3    H116484   0.477   5.285   1.987
 5509TIP3    H216485   0.470   5.307   1.838
 5510TIP3   OH216486   5.693   6.203   1.143
 5510TIP3    H116487   5.765   6.256   1.109
 5510TIP3    H216488   5.714   6.191   1.236
 5511TIP3   OH216489   7.597   3.333   6.505
 5511TIP3    H116490   7.630   3.254   6.546
 5511TIP3    H216491   7.659   3.402   6.531
 5512TIP3   OH216492   2.555   0.175   4.024
 5512TIP3    H116493   2.470   0.131   4.036
 5512TIP3    H216494   2.615   0.126   4.080
 5513TIP3   OH216495   2.719   6.606   4.000
 5513TIP3    H116496   2.632   6.626   4.035
 5513TIP3    H216497   2.773   6.681   4.025
 5514TIP3   OH216498   2.760   5.341   3.307
 5514TIP3    H116499   2.682   5.286   3.297
 5514TIP3    H216500   2.799   5.344   3.220
 5515TIP3   OH216501   4.652   5.039   2.319
 5515TIP3    H116502   4.636   4.998   2.404
 5515TIP3    H216503   4.698   5.120   2.339
 5516TIP3   OH216504   0.160   0.484   0.430
 5516TIP3    H116505   0.181   0.520   0.516
 5516TIP3    H216506   0.127   0.396   0.448
 5517TIP3   OH216507   4.405   0.409   5.088
 5517TIP3    H116508   4.391   0.322   5.050
 5517TIP3    H216509   4.488   0.403   5.134
 5518TIP3   OH216510   6.352   0.354   1.102
 5518TIP3    H116511   6.432   0.303   1.114
 5518TIP3    H216512   6.382   0.443   1.086
 5519TIP3   OH216513   8.102   4.703   1.092
 5519TIP3    H116514   8.182   4.650   1.103
 5519TIP3    H216515   8.128   4.790   1.121
 5520TIP3   OH216516   0.421   7.354   0.061
 5520TIP3    H116517   0.368   7.276   0.046
 5520TIP3    H216518   0.467   7.336   0.143
 5521TIP3   OH216519   1.710   5.979   1.326
 5521TIP3    H116520   1.673   5.903   1.371
 5521TIP3    H216521   1.703   6.050   1.390
 5522TIP3   OH216522   8.207   1.596   1.234
 5522TIP3    H116523   8.300   1.587   1.213
 5522TIP3    H216524   8.162   1.583   1.151
 5523TIP3   OH216525   0.338   7.136   6.436
 5523TIP3    H116526   0.317   7.229   6.447
 5523TIP3    H216527   0.254   7.091   6.448
 5524TIP3   OH216528   0.376   3.015   4.806
 5524TIP3    H116529   0.427   3.011   4.725
 5524TIP3    H216530   0.403   2.937   4.854
 5525TIP3   OH216531   1.778   0.344   6.425
 5525TIP3    H116532   1.754   0.261   6.384
 5525TIP3    H216533   1.780   0.325   6.518
 5526TIP3   OH216534   0.747   6.590   1.514
 5526TIP3    H116535   0.766   6.517   1.455
 5526TIP3    H216536   0.754   6.553   1.602
 5527TIP3   OH216537   0.769   5.581   5.214
 5527TIP3    H116538   0.793   5.515   5.279
 5527TIP3    H216539   0.675   5.596   5.229
 5528TIP3   OH216540   3.594   4.311   2.410
 5528TIP3    H116541   3.639   4.246   2.464
 5528TIP3    H216542   3.547   4.366   2.472
 5529TIP3   OH216543   2.009   0.314   0.490
 5529TIP3    H116544   2.044   0.306   0.402
 5529TIP3    H216545   1.944   0.244   0.497
 5530TIP3   OH216546   2.334   3.364   5.228
 5530TIP3    H116547   2.296   3.349   5.314
 5530TIP3    H216548   2.296   3.447   5.200
 5531TIP3   OH216549   7.748   3.663   2.523
 5531TIP3    H116550   7.802   3.642   2.447
 5531TIP3    H216551   7.765   3.592   2.586
 5532TIP3   OH216552   4.913   3.884   3.135
 5532TIP3    H116553   4.941   3.903   3.045
 5532TIP3    H216554   4.927   3.790   3.144
 5533TIP3   OH216555   0.386   5.123   2.578
 5533TIP3    H116556   0.389   5.178   2.657
 5533TIP3    H216557   0.299   5.137   2.542
 5534TIP3   OH216558   5.783   0.041   6.682
 5534TIP3    H116559   5.765  -0.028   6.746
 5534TIP3    H216560   5.872   0.024   6.652
 5535TIP3   OH216561   7.112   0.708   1.293
 5535TIP3    H116562   7.180   0.771   1.268
 5535TIP3    H216563   7.156   0.649   1.354
 5536TIP3   OH216564   0.509   6.231   2.342
 5536TIP3    H116565   0.499   6.320   2.374
 5536TIP3    H216566   0.577   6.236   2.275
 5537TIP3   OH216567   3.054   0.452   4.984
 5537TIP3    H116568   3.003   0.487   5.057
 5537TIP3    H216569   2.989   0.424   4.920
 5538TIP3   OH216570   6.848   2.003   5.346
 5538TIP3    H116571   6.940   2.028   5.341
 5538TIP3    H216572   6.807   2.070   5.401
 5539TIP3   OH216573   7.010   2.466   4.091
 5539TIP3    H116574   6.947   2.528   4.129
 5539TIP3    H216575   6.981   2.380   4.124
 5540TIP3   OH216576   1.275   1.674   2.790
 5540TIP3    H116577   1.370   1.683   2.801
 5540TIP3    H216578   1.259   1.702   2.700
 5541TIP3   OH216579   6.355   3.100   6.719
 5541TIP3    H116580   6.317   3.017   6.749
 5541TIP3    H216581   6.441   3.103   6.760
 5542TIP3   OH216582   4.358   6.631   1.102
 5542TIP3    H116583   4.392   6.635   1.191
 5542TIP3    H216584   4.311   6.714   1.091
 5543TIP3   OH216585   6.958   1.020   4.492
 5543TIP3    H116586   6.973   1.025   4.397
 5543TIP3    H216587   6.886   0.958   4.501
 5544TIP3   OH216588   4.836   1.152   0.621
 5544TIP3    H116589   4.823   1.101   0.541
 5544TIP3    H216590   4.918   1.200   0.605
 5545TIP3   OH216591   3.949   3.115   2.582
 5545TIP3    H116592   3.952   3.144   2.673
 5545TIP3    H216593   3.920   3.192   2.533
 5546TIP3   OH216594   0.439   5.262   2.358
 5546TIP3    H116595   0.447   5.202   2.432
 5546TIP3    H216596   0.467   5.347   2.392
 5547TIP3   OH216597   6.655   6.116   0.234
 5547TIP3    H116598   6.636   6.040   0.288
 5547TIP3    H216599   6.744   6.102   0.203
 5548TIP3   OH216600   4.447   7.696   5.975
 5548TIP3    H116601   4.389   7.715   6.049
 5548TIP3    H216602   4.489   7.614   5.999
 5549TIP3   OH216603   4.034   1.149   4.685
 5549TIP3    H116604   4.047   1.080   4.620
 5549TIP3    H216605   4.006   1.225   4.635
 5550TIP3   OH216606   4.006   0.343   1.272
 5550TIP3    H116607   4.002   0.434   1.301
 5550TIP3    H216608   3.945   0.297   1.329
 5551TIP3   OH216609   8.129   4.614   1.669
 5551TIP3    H116610   8.069   4.659   1.729
 5551TIP3    H216611   8.071   4.573   1.605
 5552TIP3   OH216612   5.404   6.047   6.761
 5552TIP3    H116613   5.360   6.042   6.676
 5552TIP3    H216614   5.338   6.084   6.820
 5553TIP3   OH216615   1.367   7.089   2.349
 5553TIP3    H116616   1.378   7.005   2.394
 5553TIP3    H216617   1.415   7.078   2.267
 5554TIP3   OH216618   3.001   1.714   4.855
 5554TIP3    H116619   3.082   1.664   4.847
 5554TIP3    H216620   3.026   1.795   4.899
 5555TIP3   OH216621   2.221   3.929   4.402
 5555TIP3    H116622   2.155   3.968   4.345
 5555TIP3    H216623   2.305   3.952   4.361
 5556TIP3   OH216624   2.937   3.889   0.752
 5556TIP3    H116625   2.977   3.827   0.814
 5556TIP3    H216626   2.902   3.834   0.682
 5557TIP3   OH216627   7.735   0.774   6.499
 5557TIP3    H116628   7.754   0.779   6.405
 5557TIP3    H216629   7.694   0.858   6.519
 5558TIP3   OH216630   6.133   1.329   3.817
 5558TIP3    H116631   6.064   1.320   3.883
 5558TIP3    H216632   6.214   1.328   3.866
 5559TIP3   OH216633   5.864   5.852   6.557
 5559TIP3    H116634   5.920   5.794   6.608
 5559TIP3    H216635   5.847   5.926   6.614
 5560TIP3   OH216636   5.539   4.510   4.642
 5560TIP3    H116637   5.605   4.537   4.578
 5560TIP3    H216638   5.542   4.415   4.641
 5561TIP3   OH216639   2.679   7.715   0.939
 5561TIP3    H116640   2.652   7.659   1.011
 5561TIP3    H216641   2.767   7.744   0.963
 5562TIP3   OH216642   0.452   1.170   3.099
 5562TIP3    H116643   0.424   1.117   3.173
 5562TIP3    H216644   0.388   1.242   3.095
 5563TIP3   OH216645   3.601   7.657   3.552
 5563TIP3    H116646   3.593   7.605   3.472
 5563TIP3    H216647   3.544   7.613   3.615
 5564TIP3   OH216648   2.096   5.338   0.704
 5564TIP3    H116649   2.074   5.353   0.612
 5564TIP3    H216650   2.135   5.421   0.733
 5565TIP3   OH216651   0.532   4.939   2.112
 5565TIP3    H116652   0.497   4.956   2.199
 5565TIP3    H216653   0.461   4.962   2.053
 5566TIP3   OH216654   2.827   5.681   4.702
 5566TIP3    H116655   2.889   5.753   4.700
 5566TIP3    H216656   2.796   5.672   4.611
 5567TIP3   OH216657   7.922   5.426   2.020
 5567TIP3    H116658   7.850   5.489   2.014
 5567TIP3    H216659   8.001   5.478   2.010
 5568TIP3   OH216660   7.990   2.006   4.236
 5568TIP3    H116661   7.927   2.061   4.282
 5568TIP3    H216662   8.076   2.041   4.260
 5569TIP3   OH216663   1.857   0.531   4.079
 5569TIP3    H116664   1.854   0.613   4.031
 5569TIP3    H216665   1.912   0.549   4.155
 5570TIP3   OH216666   4.164   0.733   4.532
 5570TIP3    H116667   4.206   0.704   4.612
 5570TIP3    H216668   4.126   0.653   4.495
 5571TIP3   OH216669   7.092   6.223   6.100
 5571TIP3    H116670   7.015   6.169   6.120
 5571TIP3    H216671   7.066   6.276   6.025
 5572TIP3   OH216672   0.958   4.014   5.361
 5572TIP3    H116673   0.918   4.079   5.419
 5572TIP3    H216674   1.018   4.064   5.307
 5573TIP3   OH216675   4.727   4.851   1.292
 5573TIP3    H116676   4.790   4.923   1.300
 5573TIP3    H216677   4.777   4.780   1.252
 5574TIP3   OH216678   3.554   1.941   3.982
 5574TIP3    H116679   3.496   2.014   3.960
 5574TIP3    H216680   3.504   1.888   4.044
 5575TIP3   OH216681   1.679   5.574   4.943
 5575TIP3    H116682   1.745   5.603   4.880
 5575TIP3    H216683   1.604   5.546   4.889
 5576TIP3   OH216684   2.149   1.845   1.422
 5576TIP3    H116685   2.125   1.838   1.330
 5576TIP3    H216686   2.065   1.856   1.468
 5577TIP3   OH216687   3.616   7.678   0.240
 5577TIP3    H116688   3.666   7.751   0.204
 5577TIP3    H216689   3.647   7.601   0.193
 5578TIP3   OH216690   7.844   3.291   3.400
 5578TIP3    H116691   7.851   3.205   3.441
 5578TIP3    H216692   7.922   3.297   3.345
 5579TIP3   OH216693   4.080   1.940   3.364
 5579TIP3    H116694   4.155   1.985   3.324
 5579TIP3    H216695   4.033   1.902   3.290
 5580TIP3   OH216696   2.010   1.521   4.929
 5580TIP3    H116697   1.935   1.528   4.870
 5580TIP3    H216698   1.985   1.573   5.006
 5581TIP3   OH216699   3.627   2.172   2.015
 5581TIP3    H116700   3.616   2.234   2.087
 5581TIP3    H216701   3.715   2.189   1.982
 5582TIP3   OH216702   6.351   1.009   2.118
 5582TIP3    H116703   6.443   0.982   2.112
 5582TIP3    H216704   6.311   0.975   2.039
 5583TIP3   OH216705   4.493   7.139   6.151
 5583TIP3    H116706   4.416   7.121   6.098
 5583TIP3    H216707   4.463   7.126   6.241
 5584TIP3   OH216708   3.996   0.599   4.036
 5584TIP3    H116709   3.977   0.673   3.978
 5584TIP3    H216710   4.032   0.532   3.978
 5585TIP3   OH216711   3.533   0.900   2.273
 5585TIP3    H116712   3.537   0.846   2.193
 5585TIP3    H216713   3.585   0.977   2.252
 5586TIP3   OH216714   7.695   6.527   0.100
 5586TIP3    H116715   7.775   6.490   0.137
 5586TIP3    H216716   7.633   6.454   0.101
 5587TIP3   OH216717   2.380   7.637   5.259
 5587TIP3    H116718   2.341   7.571   5.316
 5587TIP3    H216719   2.306   7.680   5.216
 5588TIP3   OH216720   8.246   1.143   4.601
 5588TIP3    H116721   8.193   1.089   4.659
 5588TIP3    H216722   8.235   1.104   4.515
 5589TIP3   OH216723   0.805   7.627   5.736
 5589TIP3    H116724   0.878   7.593   5.684
 5589TIP3    H216725   0.756   7.682   5.674
 5590TIP3   OH216726   2.431   1.688   6.141
 5590TIP3    H116727   2.467   1.772   6.171
 5590TIP3    H216728   2.464   1.678   6.052
 5591TIP3   OH216729   5.507   3.905   0.463
 5591TIP3    H116730   5.418   3.878   0.442
 5591TIP3    H216731   5.563   3.850   0.408
 5592TIP3   OH216732   2.915   5.692   0.290
 5592TIP3    H116733   2.853   5.717   0.358
 5592TIP3    H216734   2.908   5.761   0.224
 5593TIP3   OH216735   2.413   7.043   6.049
 5593TIP3    H116736   2.388   7.107   6.116
 5593TIP3    H216737   2.337   7.038   5.992
 5594TIP3   OH216738   6.712   0.830   4.473
 5594TIP3    H116739   6.686   0.876   4.393
 5594TIP3    H216740   6.632   0.788   4.505
 5595TIP3   OH216741   0.457   1.617   0.131
 5595TIP3    H116742   0.506   1.659   0.060
 5595TIP3    H216743   0.368   1.608   0.096
 5596TIP3   OH216744   6.763   5.284   4.382
 5596TIP3    H116745   6.749   5.296   4.288
 5596TIP3    H216746   6.699   5.342   4.423
 5597TIP3   OH216747   2.290   7.699   4.618
 5597TIP3    H116748   2.224   7.630   4.607
 5597TIP3    H216749   2.372   7.652   4.629
 5598TIP3   OH216750   2.445   6.274   5.840
 5598TIP3    H116751   2.434   6.181   5.820
 5598TIP3    H216752   2.448   6.278   5.936
 5599TIP3   OH216753   0.281   6.214   2.612
 5599TIP3    H116754   0.289   6.192   2.519
 5599TIP3    H216755   0.309   6.136   2.658
 5600TIP3   OH216756   3.099   4.686   2.898
 5600TIP3    H116757   3.054   4.674   2.982
 5600TIP3    H216758   3.171   4.623   2.901
 5601TIP3   OH216759   0.569   6.474   0.554
 5601TIP3    H116760   0.641   6.536   0.552
 5601TIP3    H216761   0.609   6.390   0.531
 5602TIP3   OH216762   2.939   1.990   2.666
 5602TIP3    H116763   3.017   1.938   2.650
 5602TIP3    H216764   2.949   2.068   2.612
 5603TIP3   OH216765   4.685   1.623   1.205
 5603TIP3    H116766   4.662   1.632   1.112
 5603TIP3    H216767   4.625   1.681   1.251
 5604TIP3   OH216768   0.972   7.477   6.471
 5604TIP3    H116769   1.009   7.390   6.487
 5604TIP3    H216770   1.035   7.537   6.510
 5605TIP3   OH216771   1.841   6.688   5.784
 5605TIP3    H116772   1.925   6.715   5.820
 5605TIP3    H216773   1.858   6.602   5.745
 5606TIP3   OH216774   5.461   5.402   2.761
 5606TIP3    H116775   5.394   5.336   2.780
 5606TIP3    H216776   5.448   5.422   2.668
 5607TIP3   OH216777   0.151   0.947   0.491
 5607TIP3    H116778   0.116   0.932   0.403
 5607TIP3    H216779   0.207   0.871   0.507
 5608TIP3   OH216780   0.953   5.790   4.326
 5608TIP3    H116781   0.975   5.865   4.272
 5608TIP3    H216782   0.857   5.784   4.321
 5609TIP3   OH216783   7.824   4.225   4.349
 5609TIP3    H116784   7.815   4.262   4.437
 5609TIP3    H216785   7.918   4.216   4.336
 5610TIP3   OH216786   6.132   5.262   2.520
 5610TIP3    H116787   6.057   5.210   2.547
 5610TIP3    H216788   6.097   5.324   2.456
 5611TIP3   OH216789   3.167   6.957   4.366
 5611TIP3    H116790   3.120   7.034   4.399
 5611TIP3    H216791   3.181   6.975   4.273
 5612TIP3   OH216792   1.707   5.375   3.549
 5612TIP3    H116793   1.612   5.373   3.563
 5612TIP3    H216794   1.736   5.286   3.572
 5613TIP3   OH216795   7.488   2.762   5.599
 5613TIP3    H116796   7.582   2.760   5.615
 5613TIP3    H216797   7.473   2.844   5.550
 5614TIP3   OH216798   7.169   0.205   3.350
 5614TIP3    H116799   7.097   0.223   3.290
 5614TIP3    H216800   7.211   0.290   3.363
 5615TIP3   OH216801   8.208   1.384   4.070
 5615TIP3    H116802   8.129   1.437   4.081
 5615TIP3    H216803   8.203   1.351   3.981
 5616TIP3   OH216804   8.145   5.797   3.353
 5616TIP3    H116805   8.214   5.745   3.395
 5616TIP3    H216806   8.161   5.786   3.259
 5617TIP3   OH216807   3.876   6.276   4.764
 5617TIP3    H116808   3.798   6.228   4.738
 5617TIP3    H216809   3.857   6.367   4.744
 5618TIP3   OH216810   6.632   4.207   2.742
 5618TIP3    H116811   6.681   4.207   2.660
 5618TIP3    H216812   6.551   4.160   2.722
 5619TIP3   OH216813   5.464   1.047   2.277
 5619TIP3    H116814   5.396   0.999   2.324
 5619TIP3    H216815   5.546   1.017   2.317
 5620TIP3   OH216816   1.076   7.057   4.279
 5620TIP3    H116817   1.108   7.132   4.230
 5620TIP3    H216818   1.122   7.061   4.362
 5621TIP3   OH216819   2.451   6.024   4.536
 5621TIP3    H116820   2.530   6.003   4.584
 5621TIP3    H216821   2.475   6.012   4.444
 5622TIP3   OH216822   6.451   6.566   6.234
 5622TIP3    H116823   6.386   6.567   6.304
 5622TIP3    H216824   6.514   6.633   6.260
 5623TIP3   OH216825   1.159   0.589   1.223
 5623TIP3    H116826   1.105   0.629   1.155
 5623TIP3    H216827   1.096   0.551   1.285
 5624TIP3   OH216828   0.155   3.108   5.287
 5624TIP3    H116829   0.241   3.137   5.318
 5624TIP3    H216830   0.174   3.036   5.227
 5625TIP3   OH216831   6.237   2.321   2.754
 5625TIP3    H116832   6.192   2.353   2.676
 5625TIP3    H216833   6.173   2.333   2.824
 5626TIP3   OH216834   0.763   3.098   4.435
 5626TIP3    H116835   0.709   3.052   4.499
 5626TIP3    H216836   0.816   3.159   4.488
 5627TIP3   OH216837   7.850   4.985   2.835
 5627TIP3    H116838   7.881   4.947   2.918
 5627TIP3    H216839   7.836   4.909   2.778
 5628TIP3   OH216840   4.918   1.485   1.503
 5628TIP3    H116841   4.888   1.498   1.413
 5628TIP3    H216842   4.982   1.414   1.498
 5629TIP3   OH216843   2.280   6.593   3.291
 5629TIP3    H116844   2.207   6.542   3.256
 5629TIP3    H216845   2.301   6.656   3.222
 5630TIP3   OH216846   2.338   5.799   5.668
 5630TIP3    H116847   2.351   5.705   5.655
 5630TIP3    H216848   2.348   5.836   5.580
 5631TIP3   OH216849   7.888   4.458   6.729
 5631TIP3    H116850   7.931   4.372   6.735
 5631TIP3    H216851   7.842   4.455   6.645
 5632TIP3   OH216852   3.517   1.297   3.574
 5632TIP3    H116853   3.554   1.357   3.509
 5632TIP3    H216854   3.521   1.211   3.533
 5633TIP3   OH216855   1.836   5.122   3.565
 5633TIP3    H116856   1.853   5.117   3.471
 5633TIP3    H216857   1.920   5.102   3.605
 5634TIP3   OH216858   1.998   5.208   5.280
 5634TIP3    H116859   2.077   5.242   5.321
 5634TIP3    H216860   1.995   5.116   5.307
 5635TIP3   OH216861   4.417   3.056   6.688
 5635TIP3    H116862   4.365   3.040   6.609
 5635TIP3    H216863   4.479   2.984   6.691
 5636TIP3   OH216864   4.113   1.701   4.690
 5636TIP3    H116865   4.067   1.742   4.763
 5636TIP3    H216866   4.076   1.740   4.612
 5637TIP3   OH216867   5.540   4.522   5.878
 5637TIP3    H116868   5.583   4.588   5.825
 5637TIP3    H216869   5.446   4.541   5.869
 5638TIP3   OH216870   7.546   2.432   5.783
 5638TIP3    H116871   7.596   2.392   5.711
 5638TIP3    H216872   7.461   2.452   5.745
 5639TIP3   OH216873   1.392   0.658   0.683
 5639TIP3    H116874   1.383   0.600   0.608
 5639TIP3    H216875   1.472   0.707   0.666
 5640TIP3   OH216876   7.954   1.752   4.344
 5640TIP3    H116877   7.967   1.830   4.290
 5640TIP3    H216878   7.916   1.784   4.425
 5641TIP3   OH216879   5.627   5.245   2.386
 5641TIP3    H116880   5.618   5.223   2.479
 5641TIP3    H216881   5.615   5.340   2.383
 5642TIP3   OH216882   0.746   0.619   3.824
 5642TIP3    H116883   0.709   0.707   3.816
 5642TIP3    H216884   0.692   0.565   3.766
 5643TIP3   OH216885   2.490   3.237   4.160
 5643TIP3    H116886   2.478   3.266   4.250
 5643TIP3    H216887   2.512   3.144   4.168
 5644TIP3   OH216888   5.651   2.379   4.484
 5644TIP3    H116889   5.681   2.288   4.481
 5644TIP3    H216890   5.662   2.406   4.575
 5645TIP3   OH216891   0.793   4.951   2.238
 5645TIP3    H116892   0.867   4.964   2.179
 5645TIP3    H216893   0.716   4.968   2.184
 5646TIP3   OH216894   4.303   0.326   3.442
 5646TIP3    H116895   4.275   0.394   3.503
 5646TIP3    H216896   4.225   0.307   3.389
 5647TIP3   OH216897   0.324   2.690   5.702
 5647TIP3    H116898   0.360   2.603   5.682
 5647TIP3    H216899   0.247   2.698   5.646
 5648TIP3   OH216900   4.011   5.858   4.909
 5648TIP3    H116901   4.091   5.839   4.958
 5648TIP3    H216902   3.991   5.776   4.863
 5649TIP3   OH216903   2.737   6.076   1.636
 5649TIP3    H116904   2.802   6.138   1.669
 5649TIP3    H216905   2.771   6.048   1.551
 5650TIP3   OH216906   8.172   6.698   0.604
 5650TIP3    H116907   8.197   6.621   0.551
 5650TIP3    H216908   8.082   6.717   0.578
 5651TIP3   OH216909   2.800   1.830   0.614
 5651TIP3    H116910   2.873   1.837   0.675
 5651TIP3    H216911   2.740   1.900   0.640
 5652TIP3   OH216912   0.157   3.591   3.428
 5652TIP3    H116913   0.068   3.589   3.464
 5652TIP3    H216914   0.214   3.588   3.505
 5653TIP3   OH216915   8.176   1.528   5.095
 5653TIP3    H116916   8.248   1.588   5.077
 5653TIP3    H216917   8.117   1.538   5.020
 5654TIP3   OH216918   1.745   3.186   3.021
 5654TIP3    H116919   1.797   3.180   2.940
 5654TIP3    H216920   1.672   3.127   3.007
 5655TIP3   OH216921   6.064   7.478   1.986
 5655TIP3    H116922   6.130   7.450   2.049
 5655TIP3    H216923   6.115   7.521   1.917
 5656TIP3   OH216924   6.334   2.335   5.542
 5656TIP3    H116925   6.279   2.414   5.545
 5656TIP3    H216926   6.405   2.359   5.482
 5657TIP3   OH216927   7.856   5.143   4.012
 5657TIP3    H116928   7.869   5.231   4.046
 5657TIP3    H216929   7.934   5.095   4.040
 5658TIP3   OH216930   4.258   7.117   0.412
 5658TIP3    H116931   4.206   7.128   0.332
 5658TIP3    H216932   4.349   7.116   0.381
 5659TIP3   OH216933   7.815   1.825   3.034
 5659TIP3    H116934   7.763   1.777   3.099
 5659TIP3    H216935   7.850   1.757   2.976
 5660TIP3   OH216936   1.485   4.897   0.740
 5660TIP3    H116937   1.561   4.858   0.697
 5660TIP3    H216938   1.453   4.829   0.799
 5661TIP3   OH216939   7.291   2.689   2.378
 5661TIP3    H116940   7.358   2.627   2.348
 5661TIP3    H216941   7.209   2.649   2.351
 5662TIP3   OH216942   2.345   2.583   3.068
 5662TIP3    H116943   2.252   2.563   3.073
 5662TIP3    H216944   2.383   2.546   3.148
 5663TIP3   OH216945   4.016   0.279   1.634
 5663TIP3    H116946   4.069   0.354   1.661
 5663TIP3    H216947   3.976   0.247   1.715
 5664TIP3   OH216948   8.291   6.990   5.308
 5664TIP3    H116949   8.308   7.062   5.367
 5664TIP3    H216950   8.300   7.027   5.220
 5665TIP3   OH216951   5.260   0.904   1.349
 5665TIP3    H116952   5.253   0.855   1.431
 5665TIP3    H216953   5.341   0.953   1.357
 5666TIP3   OH216954   4.980   6.238   2.155
 5666TIP3    H116955   5.024   6.216   2.237
 5666TIP3    H216956   5.047   6.223   2.087
 5667TIP3   OH216957   1.208   2.300   3.819
 5667TIP3    H116958   1.256   2.356   3.881
 5667TIP3    H216959   1.241   2.212   3.837
 5668TIP3   OH216960   6.972   7.040   6.673
 5668TIP3    H116961   6.991   7.087   6.592
 5668TIP3    H216962   7.050   7.052   6.726
 5669TIP3   OH216963   7.388   0.799   1.663
 5669TIP3    H116964   7.415   0.801   1.572
 5669TIP3    H216965   7.298   0.767   1.662
 5670TIP3   OH216966   7.754   5.947   3.728
 5670TIP3    H116967   7.702   5.912   3.656
 5670TIP3    H216968   7.844   5.947   3.695
 5671TIP3   OH216969   7.885   4.576   3.800
 5671TIP3    H116970   7.866   4.556   3.892
 5671TIP3    H216971   7.812   4.538   3.751
 5672TIP3   OH216972   5.411   3.309   6.728
 5672TIP3    H116973   5.434   3.228   6.682
 5672TIP3    H216974   5.487   3.328   6.782
 5673TIP3   OH216975   1.921   4.214   4.552
 5673TIP3    H116976   1.962   4.300   4.539
 5673TIP3    H216977   1.851   4.230   4.615
 5674TIP3   OH216978   6.518   3.849   3.134
 5674TIP3    H116979   6.504   3.853   3.039
 5674TIP3    H216980   6.571   3.927   3.153
 5675TIP3   OH216981   4.305   2.039   6.707
 5675TIP3    H116982   4.272   2.079   6.626
 5675TIP3    H216983   4.288   1.946   6.695
 5676TIP3   OH216984   7.761   2.472   0.397
 5676TIP3    H116985   7.742   2.379   0.386
 5676TIP3    H216986   7.680   2.510   0.431
 5677TIP3   OH216987   7.168   0.643   4.599
 5677TIP3    H116988   7.089   0.633   4.652
 5677TIP3    H216989   7.239   0.617   4.658
 5678TIP3   OH216990   3.106   4.439   2.072
 5678TIP3    H116991   3.073   4.510   2.017
 5678TIP3    H216992   3.038   4.371   2.068
 5679TIP3   OH216993   7.105   6.043   6.385
 5679TIP3    H116994   7.069   6.104   6.450
 5679TIP3    H216995   7.049   6.054   6.308
 5680TIP3   OH216996   6.866   2.525   3.843
 5680TIP3    H116997   6.815   2.444   3.850
 5680TIP3    H216998   6.923   2.524   3.920
 5681TIP3   OH216999   5.773   3.254   6.578
 5681TIP3    H117000   5.848   3.305   6.551
 5681TIP3    H217001   5.738   3.300   6.655
 5682TIP3   OH217002   0.862   7.623   6.263
 5682TIP3    H117003   0.896   7.571   6.336
 5682TIP3    H217004   0.864   7.713   6.295
 5683TIP3   OH217005   6.672   6.312   5.903
 5683TIP3    H117006   6.699   6.222   5.921
 5683TIP3    H217007   6.653   6.349   5.990
 5684TIP3   OH217008   2.022   7.752   3.461
 5684TIP3    H117009   1.976   7.836   3.461
 5684TIP3    H217010   1.978   7.701   3.530
 5685TIP3   OH217011   2.213   5.074   0.823
 5685TIP3    H117012   2.185   5.148   0.770
 5685TIP3    H217013   2.262   5.018   0.763
 5686TIP3   OH217014   6.945   0.791   2.343
 5686TIP3    H117015   6.923   0.717   2.287
 5686TIP3    H217016   7.032   0.769   2.379
 5687TIP3   OH217017   7.541   1.103   2.651
 5687TIP3    H117018   7.573   1.123   2.739
 5687TIP3    H217019   7.452   1.138   2.649
 5688TIP3   OH217020   6.953   6.752   1.242
 5688TIP3    H117021   6.962   6.659   1.220
 5688TIP3    H217022   6.950   6.797   1.158
 5689TIP3   OH217023   0.097   3.603   0.616
 5689TIP3    H117024   0.109   3.546   0.540
 5689TIP3    H217025   0.132   3.688   0.588
 5690TIP3   OH217026   3.597   2.096   0.271
 5690TIP3    H117027   3.526   2.083   0.334
 5690TIP3    H217028   3.670   2.045   0.307
 5691TIP3   OH217029   0.742   5.445   3.089
 5691TIP3    H117030   0.824   5.493   3.101
 5691TIP3    H217031   0.715   5.464   2.999
 5692TIP3   OH217032   0.616   1.557   0.975
 5692TIP3    H117033   0.599   1.565   0.881
 5692TIP3    H217034   0.576   1.475   1.001
 5693TIP3   OH217035   6.109   0.817   4.310
 5693TIP3    H117036   6.165   0.893   4.327
 5693TIP3    H217037   6.144   0.748   4.366
 5694TIP3   OH217038   2.990   0.996   2.949
 5694TIP3    H117039   2.916   1.046   2.914
 5694TIP3    H217040   2.950   0.936   3.012
 5695TIP3   OH217041   4.535   4.557   2.052
 5695TIP3    H117042   4.542   4.497   2.126
 5695TIP3    H217043   4.553   4.643   2.089
 5696TIP3   OH217044   7.987   2.772   0.084
 5696TIP3    H117045   7.997   2.710   0.156
 5696TIP3    H217046   8.044   2.738   0.015
 5697TIP3   OH217047   0.197   2.366   4.680
 5697TIP3    H117048   0.217   2.459   4.672
 5697TIP3    H217049   0.153   2.343   4.598
 5698TIP3   OH217050   6.279   7.399   3.267
 5698TIP3    H117051   6.194   7.443   3.274
 5698TIP3    H217052   6.257   7.308   3.247
 5699TIP3   OH217053   5.404   7.738   1.642
 5699TIP3    H117054   5.347   7.813   1.660
 5699TIP3    H217055   5.361   7.664   1.684
 5700TIP3   OH217056   2.674   2.341   3.243
 5700TIP3    H117057   2.617   2.375   3.311
 5700TIP3    H217058   2.616   2.326   3.168
 5701TIP3   OH217059   1.993   4.454   4.499
 5701TIP3    H117060   1.967   4.505   4.423
 5701TIP3    H217061   2.044   4.514   4.553
 5702TIP3   OH217062   2.283   0.369   2.447
 5702TIP3    H117063   2.366   0.322   2.439
 5702TIP3    H217064   2.216   0.300   2.442
 5703TIP3   OH217065   8.226   5.930   4.992
 5703TIP3    H117066   8.203   5.837   4.982
 5703TIP3    H217067   8.297   5.930   5.055
 5704TIP3   OH217068   7.333   6.077   4.057
 5704TIP3    H117069   7.373   6.091   4.143
 5704TIP3    H217070   7.327   6.165   4.019
 5705TIP3   OH217071   7.251   7.084   0.938
 5705TIP3    H117072   7.226   7.028   0.865
 5705TIP3    H217073   7.245   7.173   0.903
 5706TIP3   OH217074   0.867   1.919   6.306
 5706TIP3    H117075   0.784   1.959   6.282
 5706TIP3    H217076   0.854   1.888   6.396
 5707TIP3   OH217077   1.171   6.655   0.217
 5707TIP3    H117078   1.234   6.714   0.175
 5707TIP3    H217079   1.194   6.568   0.184
 5708TIP3   OH217080   2.487   1.127   1.621
 5708TIP3    H117081   2.489   1.215   1.658
 5708TIP3    H217082   2.561   1.125   1.560
 5709TIP3   OH217083   6.909   6.458   3.668
 5709TIP3    H117084   6.970   6.521   3.629
 5709TIP3    H217085   6.852   6.512   3.723
 5710TIP3   OH217086   6.693   6.132   2.788
 5710TIP3    H117087   6.643   6.110   2.866
 5710TIP3    H217088   6.657   6.076   2.719
 5711TIP3   OH217089   4.341   2.964   2.581
 5711TIP3    H117090   4.274   2.973   2.648
 5711TIP3    H217091   4.364   2.871   2.583
 5712TIP3   OH217092   0.652   1.167   6.059
 5712TIP3    H117093   0.584   1.228   6.032
 5712TIP3    H217094   0.674   1.118   5.979
 5713TIP3   OH217095   3.181   3.973   6.449
 5713TIP3    H117096   3.241   3.914   6.404
 5713TIP3    H217097   3.160   4.040   6.383
 5714TIP3   OH217098   2.016   6.425   4.106
 5714TIP3    H117099   2.077   6.462   4.170
 5714TIP3    H217100   2.071   6.377   4.044
 5715TIP3   OH217101   1.929   5.519   0.002
 5715TIP3    H117102   1.852   5.576   0.003
 5715TIP3    H217103   1.957   5.515   0.094
 5716TIP3   OH217104   1.721   4.791   6.090
 5716TIP3    H117105   1.664   4.739   6.147
 5716TIP3    H217106   1.773   4.727   6.042
 5717TIP3   OH217107   4.021   1.460   1.090
 5717TIP3    H117108   4.022   1.370   1.060
 5717TIP3    H217109   3.980   1.509   1.019
 5718TIP3   OH217110   2.261   5.817   3.592
 5718TIP3    H117111   2.230   5.752   3.654
 5718TIP3    H217112   2.233   5.785   3.507
 5719TIP3   OH217113   5.175   3.159   0.946
 5719TIP3    H117114   5.208   3.089   0.889
 5719TIP3    H217115   5.087   3.130   0.969
 5720TIP3   OH217116   0.714   1.382   3.094
 5720TIP3    H117117   0.669   1.305   3.059
 5720TIP3    H217118   0.789   1.395   3.035
 5721TIP3   OH217119   0.711   2.495   4.348
 5721TIP3    H117120   0.710   2.420   4.408
 5721TIP3    H217121   0.619   2.517   4.336
 5722TIP3   OH217122   4.705   5.893   0.800
 5722TIP3    H117123   4.638   5.953   0.767
 5722TIP3    H217124   4.664   5.849   0.874
 5723TIP3   OH217125   6.334   1.352   5.558
 5723TIP3    H117126   6.334   1.261   5.530
 5723TIP3    H217127   6.424   1.382   5.544
 5724TIP3   OH217128   7.656   5.821   4.137
 5724TIP3    H117129   7.637   5.912   4.115
 5724TIP3    H217130   7.643   5.816   4.232
 5725TIP3   OH217131   7.637   2.191   0.700
 5725TIP3    H117132   7.570   2.222   0.639
 5725TIP3    H217133   7.719   2.200   0.651
 5726TIP3   OH217134   0.253   4.136   0.432
 5726TIP3    H117135   0.294   4.052   0.408
 5726TIP3    H217136   0.298   4.201   0.377
 5727TIP3   OH217137   3.049   7.435   4.921
 5727TIP3    H117138   3.002   7.511   4.953
 5727TIP3    H217139   3.122   7.471   4.871
 5728TIP3   OH217140   4.168   3.626   1.180
 5728TIP3    H117141   4.167   3.542   1.227
 5728TIP3    H217142   4.105   3.614   1.109
 5729TIP3   OH217143   2.630   7.084   4.233
 5729TIP3    H117144   2.567   7.153   4.252
 5729TIP3    H217145   2.594   7.039   4.157
 5730TIP3   OH217146   5.492   3.142   4.373
 5730TIP3    H117147   5.565   3.147   4.311
 5730TIP3    H217148   5.533   3.126   4.458
 5731TIP3   OH217149   2.890   4.974   2.427
 5731TIP3    H117150   2.981   4.996   2.444
 5731TIP3    H217151   2.877   4.890   2.472
 5732TIP3   OH217152   5.813   3.510   3.552
 5732TIP3    H117153   5.793   3.557   3.633
 5732TIP3    H217154   5.834   3.421   3.580
 5733TIP3   OH217155   4.789   6.707   1.677
 5733TIP3    H117156   4.788   6.743   1.589
 5733TIP3    H217157   4.880   6.682   1.692
 5734TIP3   OH217158   3.631   7.436   3.320
 5734TIP3    H117159   3.724   7.416   3.314
 5734TIP3    H217160   3.593   7.362   3.368
 5735TIP3   OH217161   2.052   4.256   6.454
 5735TIP3    H117162   1.962   4.238   6.425
 5735TIP3    H217163   2.049   4.247   6.549
 5736TIP3   OH217164   3.455   1.638   5.675
 5736TIP3    H117165   3.541   1.676   5.657
 5736TIP3    H217166   3.466   1.589   5.756
 5737TIP3   OH217167   1.761   7.664   5.385
 5737TIP3    H117168   1.820   7.735   5.360
 5737TIP3    H217169   1.688   7.670   5.324
 5738TIP3   OH217170   2.008   1.775   4.244
 5738TIP3    H117171   2.096   1.748   4.268
 5738TIP3    H217172   1.953   1.749   4.319
 5739TIP3   OH217173   1.291   5.446   3.362
 5739TIP3    H117174   1.345   5.435   3.440
 5739TIP3    H217175   1.302   5.364   3.313
 5740TIP3   OH217176   7.248   5.456   6.207
 5740TIP3    H117177   7.280   5.489   6.123
 5740TIP3    H217178   7.300   5.377   6.223
 5741TIP3   OH217179   3.109   6.659   5.197
 5741TIP3    H117180   3.122   6.662   5.102
 5741TIP3    H217181   3.048   6.587   5.210
 5742TIP3   OH217182   7.789   5.397   5.372
 5742TIP3    H117183   7.704   5.352   5.374
 5742TIP3    H217184   7.834   5.367   5.451
 5743TIP3   OH217185   0.392   5.094   5.471
 5743TIP3    H117186   0.369   5.085   5.378
 5743TIP3    H217187   0.368   5.184   5.493
 5744TIP3   OH217188   2.582   0.569   4.315
 5744TIP3    H117189   2.524   0.600   4.384
 5744TIP3    H217190   2.553   0.615   4.236
 5745TIP3   OH217191   3.395   0.684   1.683
 5745TIP3    H117192   3.413   0.699   1.775
 5745TIP3    H217193   3.473   0.715   1.637
 5746TIP3   OH217194   5.101   2.331   4.635
 5746TIP3    H117195   5.005   2.326   4.641
 5746TIP3    H217196   5.123   2.413   4.680
 5747TIP3   OH217197   2.089   4.830   0.149
 5747TIP3    H117198   2.180   4.857   0.143
 5747TIP3    H217199   2.081   4.791   0.236
 5748TIP3   OH217200   5.230   0.690   1.532
 5748TIP3    H117201   5.199   0.608   1.492
 5748TIP3    H217202   5.324   0.691   1.515
 5749TIP3   OH217203   3.875   5.064   1.821
 5749TIP3    H117204   3.791   5.027   1.848
 5749TIP3    H217205   3.917   4.993   1.771
 5750TIP3   OH217206   5.145   5.006   3.816
 5750TIP3    H117207   5.057   4.975   3.792
 5750TIP3    H217208   5.138   5.030   3.908
 5751TIP3   OH217209   3.554   3.951   3.483
 5751TIP3    H117210   3.592   4.039   3.490
 5751TIP3    H217211   3.501   3.941   3.562
 5752TIP3   OH217212   4.334   2.242   0.558
 5752TIP3    H117213   4.386   2.304   0.507
 5752TIP3    H217214   4.297   2.182   0.493
 5753TIP3   OH217215   0.243   5.390   1.232
 5753TIP3    H117216   0.213   5.473   1.196
 5753TIP3    H217217   0.244   5.404   1.327
 5754TIP3   OH217218   4.254   7.162   2.852
 5754TIP3    H117219   4.269   7.237   2.795
 5754TIP3    H217220   4.310   7.179   2.928
 5755TIP3   OH217221   7.019   2.456   0.425
 5755TIP3    H117222   7.025   2.455   0.330
 5755TIP3    H217223   7.033   2.547   0.449
 5756TIP3   OH217224   7.165   4.640   1.354
 5756TIP3    H117225   7.118   4.721   1.331
 5756TIP3    H217226   7.149   4.583   1.279
 5757TIP3   OH217227   5.618   5.329   4.466
 5757TIP3    H117228   5.666   5.251   4.438
 5757TIP3    H217229   5.583   5.366   4.384
 5758TIP3   OH217230   5.840   5.770   1.637
 5758TIP3    H117231   5.751   5.741   1.620
 5758TIP3    H217232   5.833   5.865   1.645
 5759TIP3   OH217233   2.220   6.008   0.486
 5759TIP3    H117234   2.153   6.065   0.524
 5759TIP3    H217235   2.303   6.049   0.509
 5760TIP3   OH217236   1.481   5.899  -0.006
 5760TIP3    H117237   1.532   5.927   0.071
 5760TIP3    H217238   1.481   5.804  -0.001
 5761TIP3   OH217239   3.594   6.274   1.035
 5761TIP3    H117240   3.643   6.339   1.086
 5761TIP3    H217241   3.608   6.299   0.944
 5762TIP3   OH217242   1.913   2.109   1.973
 5762TIP3    H117243   1.919   2.078   2.064
 5762TIP3    H217244   1.993   2.160   1.960
 5763TIP3   OH217245   1.720   2.194   0.718
 5763TIP3    H117246   1.680   2.129   0.777
 5763TIP3    H217247   1.656   2.204   0.647
 5764TIP3   OH217248   2.490   5.172   3.615
 5764TIP3    H117249   2.539   5.116   3.556
 5764TIP3    H217250   2.443   5.232   3.558
 5765TIP3   OH217251   3.401   7.772   3.253
 5765TIP3    H117252   3.457   7.849   3.261
 5765TIP3    H217253   3.383   7.764   3.159
 5766TIP3   OH217254   7.526   0.786   2.724
 5766TIP3    H117255   7.488   0.846   2.660
 5766TIP3    H217256   7.554   0.842   2.796
 5767TIP3   OH217257   3.027   3.359   2.837
 5767TIP3    H117258   2.976   3.289   2.877
 5767TIP3    H217259   2.992   3.367   2.748
 5768TIP3   OH217260   4.396   4.494   4.383
 5768TIP3    H117261   4.440   4.429   4.329
 5768TIP3    H217262   4.362   4.559   4.321
 5769TIP3   OH217263   5.162   4.710   2.372
 5769TIP3    H117264   5.152   4.805   2.367
 5769TIP3    H217265   5.158   4.681   2.281
 5770TIP3   OH217266   4.397   1.578   1.677
 5770TIP3    H117267   4.382   1.661   1.722
 5770TIP3    H217268   4.389   1.599   1.584
 5771TIP3   OH217269   1.011   0.153   4.271
 5771TIP3    H117270   0.992   0.247   4.263
 5771TIP3    H217271   1.007   0.136   4.365
 5772TIP3   OH217272   2.833   5.623   2.724
 5772TIP3    H117273   2.848   5.529   2.732
 5772TIP3    H217274   2.848   5.641   2.631
 5773TIP3   OH217275   2.034   3.969   2.662
 5773TIP3    H117276   2.017   4.058   2.630
 5773TIP3    H217277   2.129   3.960   2.658
 5774TIP3   OH217278   6.229   1.272   2.584
 5774TIP3    H117279   6.173   1.343   2.615
 5774TIP3    H217280   6.186   1.192   2.614
 5775TIP3   OH217281   8.286   5.019   4.754
 5775TIP3    H117282   8.338   4.983   4.683
 5775TIP3    H217283   8.197   5.026   4.718
 5776TIP3   OH217284   1.821   3.872   1.520
 5776TIP3    H117285   1.812   3.963   1.548
 5776TIP3    H217286   1.895   3.872   1.460
 5777TIP3   OH217287   0.087   3.297   4.293
 5777TIP3    H117288   0.049   3.224   4.342
 5777TIP3    H217289   0.012   3.335   4.247
 5778TIP3   OH217290   2.733   2.591   2.769
 5778TIP3    H117291   2.693   2.619   2.852
 5778TIP3    H217292   2.827   2.605   2.782
 5779TIP3   OH217293   2.765   5.735   4.069
 5779TIP3    H117294   2.779   5.829   4.055
 5779TIP3    H217295   2.852   5.696   4.065
 5780TIP3   OH217296   2.243   5.043   6.779
 5780TIP3    H117297   2.288   5.081   6.703
 5780TIP3    H217298   2.224   4.953   6.752
 5781TIP3   OH217299   2.597   1.892   4.965
 5781TIP3    H117300   2.502   1.879   4.964
 5781TIP3    H217301   2.630   1.829   4.901
 5782TIP3   OH217302   3.195   2.122   5.037
 5782TIP3    H117303   3.238   2.139   4.953
 5782TIP3    H217304   3.145   2.202   5.055
 5783TIP3   OH217305   7.116   7.210   3.254
 5783TIP3    H117306   7.188   7.171   3.304
 5783TIP3    H217307   7.090   7.142   3.193
 5784TIP3   OH217308   0.093   6.404   2.620
 5784TIP3    H117309   0.170   6.350   2.637
 5784TIP3    H217310   0.117   6.456   2.543
 5785TIP3   OH217311   8.044   2.951   0.753
 5785TIP3    H117312   8.011   2.984   0.669
 5785TIP3    H217313   7.967   2.916   0.797
 5786TIP3   OH217314   2.247   7.323   2.060
 5786TIP3    H117315   2.302   7.328   2.138
 5786TIP3    H217316   2.205   7.238   2.065
 5787TIP3   OH217317   1.152   4.178   5.223
 5787TIP3    H117318   1.216   4.213   5.161
 5787TIP3    H217319   1.084   4.246   5.228
 5788TIP3   OH217320   1.351   2.640   0.602
 5788TIP3    H117321   1.272   2.587   0.594
 5788TIP3    H217322   1.330   2.705   0.669
 5789TIP3   OH217323   5.032   7.113   4.792
 5789TIP3    H117324   4.981   7.032   4.796
 5789TIP3    H217325   5.034   7.144   4.882
 5790TIP3   OH217326   4.260   2.315   5.030
 5790TIP3    H117327   4.212   2.287   5.108
 5790TIP3    H217328   4.217   2.270   4.958
 5791TIP3   OH217329   0.057   4.105   5.529
 5791TIP3    H117330   0.033   4.160   5.604
 5791TIP3    H217331   0.108   4.163   5.473
 5792TIP3   OH217332   7.846   2.682   4.994
 5792TIP3    H117333   7.807   2.602   4.958
 5792TIP3    H217334   7.790   2.704   5.068
 5793TIP3   OH217335   7.670   1.496   5.638
 5793TIP3    H117336   7.682   1.425   5.701
 5793TIP3    H217337   7.587   1.477   5.595
 5794TIP3   OH217338   1.126   4.606   3.258
 5794TIP3    H117339   1.053   4.591   3.198
 5794TIP3    H217340   1.202   4.570   3.213
 5795TIP3   OH217341   8.079   1.438   0.791
 5795TIP3    H117342   8.073   1.343   0.783
 5795TIP3    H217343   8.119   1.467   0.709
 5796TIP3   OH217344   8.091   6.699   6.689
 5796TIP3    H117345   8.078   6.735   6.601
 5796TIP3    H217346   8.060   6.768   6.748
 5797TIP3   OH217347   2.455   2.910   3.623
 5797TIP3    H117348   2.457   2.950   3.536
 5797TIP3    H217349   2.369   2.868   3.628
 5798TIP3   OH217350   6.044   6.947   2.821
 5798TIP3    H117351   5.950   6.928   2.814
 5798TIP3    H217352   6.049   7.030   2.868
 5799TIP3   OH217353   2.001   0.595   3.374
 5799TIP3    H117354   2.067   0.647   3.329
 5799TIP3    H217355   2.018   0.610   3.467
 5800TIP3   OH217356   7.766   5.137   0.379
 5800TIP3    H117357   7.793   5.192   0.306
 5800TIP3    H217358   7.776   5.048   0.346
 5801TIP3   OH217359   2.194   3.256   3.478
 5801TIP3    H117360   2.238   3.180   3.440
 5801TIP3    H217361   2.195   3.322   3.409
 5802TIP3   OH217362   3.223   1.314   1.416
 5802TIP3    H117363   3.270   1.312   1.499
 5802TIP3    H217364   3.248   1.397   1.376
 5803TIP3   OH217365   8.212   2.449   4.748
 5803TIP3    H117366   8.214   2.526   4.692
 5803TIP3    H217367   8.163   2.476   4.825
 5804TIP3   OH217368   2.407   0.150   3.320
 5804TIP3    H117369   2.495   0.115   3.305
 5804TIP3    H217370   2.389   0.133   3.412
 5805TIP3   OH217371   0.211   5.132   4.989
 5805TIP3    H117372   0.121   5.150   5.017
 5805TIP3    H217373   0.227   5.042   5.017
 5806TIP3   OH217374   4.926   0.248   6.620
 5806TIP3    H117375   5.016   0.228   6.595
 5806TIP3    H217376   4.897   0.314   6.557
 5807TIP3   OH217377   6.299   7.618   3.486
 5807TIP3    H117378   6.292   7.530   3.448
 5807TIP3    H217379   6.215   7.632   3.529
 5808TIP3   OH217380   2.361   2.616   0.687
 5808TIP3    H117381   2.401   2.703   0.677
 5808TIP3    H217382   2.325   2.595   0.601
 5809TIP3   OH217383   5.322   5.524   5.887
 5809TIP3    H117384   5.412   5.540   5.915
 5809TIP3    H217385   5.326   5.527   5.791
 5810TIP3   OH217386   0.113   7.382   0.814
 5810TIP3    H117387   0.023   7.359   0.792
 5810TIP3    H217388   0.138   7.448   0.749
 5811TIP3   OH217389   6.018   4.596   4.551
 5811TIP3    H117390   6.080   4.593   4.624
 5811TIP3    H217391   6.047   4.670   4.498
 5812TIP3   OH217392   6.952   4.743   3.078
 5812TIP3    H117393   7.045   4.760   3.060
 5812TIP3    H217394   6.943   4.648   3.072
 5813TIP3   OH217395   7.335   0.277   4.304
 5813TIP3    H117396   7.374   0.264   4.218
 5813TIP3    H217397   7.259   0.332   4.288
 5814TIP3   OH217398   2.670   6.149   4.101
 5814TIP3    H117399   2.674   6.119   4.011
 5814TIP3    H217400   2.657   6.244   4.094
 5815TIP3   OH217401   6.151   1.651   0.485
 5815TIP3    H117402   6.232   1.692   0.452
 5815TIP3    H217403   6.123   1.594   0.413
 5816TIP3   OH217404   5.770   6.095   6.674
 5816TIP3    H117405   5.687   6.122   6.714
 5816TIP3    H217406   5.760   6.115   6.581
 5817TIP3   OH217407   0.622   1.325   6.455
 5817TIP3    H117408   0.675   1.307   6.533
 5817TIP3    H217409   0.607   1.239   6.416
 5818TIP3   OH217410   4.199   1.518   6.627
 5818TIP3    H117411   4.142   1.594   6.615
 5818TIP3    H217412   4.152   1.462   6.688
 5819TIP3   OH217413   7.674   2.535   1.391
 5819TIP3    H117414   7.750   2.590   1.373
 5819TIP3    H217415   7.705   2.445   1.376
 5820TIP3   OH217416   3.944   7.315   0.749
 5820TIP3    H117417   4.029   7.316   0.704
 5820TIP3    H217418   3.963   7.347   0.837
 5821TIP3   OH217419   6.722   5.745   4.178
 5821TIP3    H117420   6.715   5.657   4.140
 5821TIP3    H217421   6.795   5.786   4.132
 5822TIP3   OH217422   0.815   0.427   2.373
 5822TIP3    H117423   0.773   0.375   2.441
 5822TIP3    H217424   0.803   0.518   2.400
 5823TIP3   OH217425   1.907   3.982   0.903
 5823TIP3    H117426   1.909   4.043   0.977
 5823TIP3    H217427   1.969   4.019   0.841
 5824TIP3   OH217428   3.138   5.878   0.674
 5824TIP3    H117429   3.106   5.793   0.706
 5824TIP3    H217430   3.229   5.883   0.705
 5825TIP3   OH217431   1.097   5.330   2.178
 5825TIP3    H117432   1.040   5.371   2.113
 5825TIP3    H217433   1.149   5.267   2.128
 5826TIP3   OH217434   7.751   2.118   5.870
 5826TIP3    H117435   7.803   2.088   5.944
 5826TIP3    H217436   7.665   2.079   5.882
 5827TIP3   OH217437   7.750   5.009   6.132
 5827TIP3    H117438   7.789   4.931   6.171
 5827TIP3    H217439   7.825   5.063   6.107
 5828TIP3   OH217440   2.631   7.257   0.839
 5828TIP3    H117441   2.550   7.305   0.858
 5828TIP3    H217442   2.701   7.311   0.876
 5829TIP3   OH217443   4.892   3.291   5.530
 5829TIP3    H117444   4.929   3.378   5.515
 5829TIP3    H217445   4.921   3.240   5.454
 5830TIP3   OH217446   7.950   2.206   1.067
 5830TIP3    H117447   7.864   2.207   1.024
 5830TIP3    H217448   7.933   2.242   1.155
 5831TIP3   OH217449   7.437   6.372   5.404
 5831TIP3    H117450   7.455   6.434   5.475
 5831TIP3    H217451   7.410   6.427   5.330
 5832TIP3   OH217452   4.162   2.806   6.429
 5832TIP3    H117453   4.145   2.802   6.334
 5832TIP3    H217454   4.257   2.799   6.437
 5833TIP3   OH217455   5.639   1.327   1.434
 5833TIP3    H117456   5.626   1.312   1.528
 5833TIP3    H217457   5.560   1.291   1.394
 5834TIP3   OH217458   0.892   6.443   3.037
 5834TIP3    H117459   0.809   6.403   3.013
 5834TIP3    H217460   0.869   6.518   3.090
 5835TIP3   OH217461   4.803   6.666   6.493
 5835TIP3    H117462   4.898   6.660   6.488
 5835TIP3    H217463   4.785   6.686   6.585
 5836TIP3   OH217464   3.237   2.041   2.784
 5836TIP3    H117465   3.278   1.980   2.846
 5836TIP3    H217466   3.277   2.019   2.699
 5837TIP3   OH217467   1.564   6.696   1.838
 5837TIP3    H117468   1.577   6.602   1.839
 5837TIP3    H217469   1.511   6.713   1.760
 5838TIP3   OH217470   0.659   7.591   4.868
 5838TIP3    H117471   0.691   7.669   4.824
 5838TIP3    H217472   0.564   7.604   4.874
 5839TIP3   OH217473   0.109   2.706   1.704
 5839TIP3    H117474   0.137   2.797   1.698
 5839TIP3    H217475   0.015   2.711   1.723
 5840TIP3   OH217476   4.482   6.628   2.283
 5840TIP3    H117477   4.423   6.638   2.357
 5840TIP3    H217478   4.553   6.572   2.315
 5841TIP3   OH217479   5.761   6.476   2.304
 5841TIP3    H117480   5.827   6.414   2.274
 5841TIP3    H217481   5.740   6.528   2.226
 5842TIP3   OH217482   7.381   6.220   5.863
 5842TIP3    H117483   7.354   6.204   5.773
 5842TIP3    H217484   7.321   6.167   5.916
 5843TIP3   OH217485   0.873   5.959   4.741
 5843TIP3    H117486   0.804   5.965   4.807
 5843TIP3    H217487   0.930   6.034   4.759
 5844TIP3   OH217488   0.224   0.979   2.275
 5844TIP3    H117489   0.207   1.027   2.194
 5844TIP3    H217490   0.219   0.887   2.249
 5845TIP3   OH217491   7.750   6.510   2.226
 5845TIP3    H117492   7.766   6.487   2.317
 5845TIP3    H217493   7.669   6.561   2.227
 5846TIP3   OH217494   4.303   6.575   2.517
 5846TIP3    H117495   4.273   6.489   2.487
 5846TIP3    H217496   4.329   6.560   2.608
 5847TIP3   OH217497   1.305   6.151   0.564
 5847TIP3    H117498   1.306   6.193   0.650
 5847TIP3    H217499   1.329   6.221   0.503
 5848TIP3   OH217500   5.674   4.754   4.963
 5848TIP3    H117501   5.708   4.811   5.032
 5848TIP3    H217502   5.734   4.680   4.960
 5849TIP3   OH217503   0.856   2.143   0.853
 5849TIP3    H117504   0.777   2.111   0.895
 5849TIP3    H217505   0.885   2.070   0.798
 5850TIP3   OH217506   1.876   5.951   5.235
 5850TIP3    H117507   1.856   5.884   5.301
 5850TIP3    H217508   1.841   6.032   5.273
 5851TIP3   OH217509   3.720   3.360   4.582
 5851TIP3    H117510   3.627   3.368   4.603
 5851TIP3    H217511   3.736   3.430   4.518
 5852TIP3   OH217512   1.850   1.219   0.150
 5852TIP3    H117513   1.847   1.124   0.136
 5852TIP3    H217514   1.837   1.229   0.245
 5853TIP3   OH217515   7.998   7.548   2.634
 5853TIP3    H117516   7.919   7.592   2.604
 5853TIP3    H217517   8.037   7.512   2.555
 5854TIP3   OH217518   6.227   5.084   4.007
 5854TIP3    H117519   6.235   5.008   4.065
 5854TIP3    H217520   6.172   5.145   4.056
 5855TIP3   OH217521   6.878   1.336   3.426
 5855TIP3    H117522   6.830   1.319   3.345
 5855TIP3    H217523   6.935   1.259   3.437
 5856TIP3   OH217524   5.611   5.047   6.270
 5856TIP3    H117525   5.608   5.010   6.359
 5856TIP3    H217526   5.603   4.971   6.212
 5857TIP3   OH217527   0.964   7.182   0.175
 5857TIP3    H117528   0.883   7.142   0.207
 5857TIP3    H217529   1.029   7.112   0.177
 5858TIP3   OH217530   7.648   5.590   5.210
 5858TIP3    H117531   7.710   5.529   5.250
 5858TIP3    H217532   7.589   5.614   5.281
 5859TIP3   OH217533   7.743   2.298   3.686
 5859TIP3    H117534   7.798   2.284   3.609
 5859TIP3    H217535   7.657   2.317   3.651
 5860TIP3   OH217536   2.798   6.415   4.176
 5860TIP3    H117537   2.839   6.380   4.097
 5860TIP3    H217538   2.747   6.490   4.145
 5861TIP3   OH217539   6.475   5.718   0.579
 5861TIP3    H117540   6.525   5.721   0.661
 5861TIP3    H217541   6.396   5.669   0.600
 5862TIP3   OH217542   5.469   7.653   2.108
 5862TIP3    H117543   5.522   7.627   2.033
 5862TIP3    H217544   5.485   7.747   2.117
 5863TIP3   OH217545   6.720   7.227   2.112
 5863TIP3    H117546   6.775   7.158   2.150
 5863TIP3    H217547   6.776   7.304   2.111
 5864TIP3   OH217548   2.440   5.199   0.193
 5864TIP3    H117549   2.441   5.104   0.182
 5864TIP3    H217550   2.494   5.215   0.271
 5865TIP3   OH217551   2.726   5.729   0.480
 5865TIP3    H117552   2.640   5.771   0.475
 5865TIP3    H217553   2.709   5.637   0.461
 5866TIP3   OH217554   2.014   7.250   4.608
 5866TIP3    H117555   2.044   7.194   4.536
 5866TIP3    H217556   2.007   7.191   4.683
 5867TIP3   OH217557   7.263   5.966   5.309
 5867TIP3    H117558   7.168   5.966   5.325
 5867TIP3    H217559   7.277   5.890   5.251
 5868TIP3   OH217560   1.665   4.092   6.232
 5868TIP3    H117561   1.681   3.999   6.217
 5868TIP3    H217562   1.593   4.095   6.294
 5869TIP3   OH217563   0.597   1.549   0.707
 5869TIP3    H117564   0.511   1.506   0.706
 5869TIP3    H217565   0.612   1.575   0.616
 5870TIP3   OH217566   7.127   5.693   5.175
 5870TIP3    H117567   7.080   5.653   5.102
 5870TIP3    H217568   7.199   5.740   5.134
 5871TIP3   OH217569   6.566   5.167   3.520
 5871TIP3    H117570   6.661   5.177   3.522
 5871TIP3    H217571   6.533   5.254   3.544
 5872TIP3   OH217572   2.386   4.284   4.096
 5872TIP3    H117573   2.447   4.235   4.042
 5872TIP3    H217574   2.401   4.252   4.185
 5873TIP3   OH217575   1.754   4.324   6.336
 5873TIP3    H117576   1.728   4.259   6.270
 5873TIP3    H217577   1.703   4.301   6.414
 5874TIP3   OH217578   6.214   6.778   3.650
 5874TIP3    H117579   6.120   6.777   3.667
 5874TIP3    H217580   6.221   6.804   3.558
 5875TIP3   OH217581   7.181   4.460   4.612
 5875TIP3    H117582   7.098   4.469   4.659
 5875TIP3    H217583   7.187   4.367   4.591
 5876TIP3   OH217584   6.420   2.535   0.317
 5876TIP3    H117585   6.347   2.557   0.258
 5876TIP3    H217586   6.378   2.521   0.402
 5877TIP3   OH217587   1.933   6.448   5.713
 5877TIP3    H117588   2.010   6.412   5.668
 5877TIP3    H217589   1.921   6.391   5.789
 5878TIP3   OH217590   0.076   5.831   2.595
 5878TIP3    H117591   0.106   5.759   2.650
 5878TIP3    H217592   0.098   5.910   2.644
 5879TIP3   OH217593   1.522   2.445   6.409
 5879TIP3    H117594   1.435   2.414   6.434
 5879TIP3    H217595   1.548   2.389   6.336
 5880TIP3   OH217596   7.977   5.716   4.859
 5880TIP3    H117597   7.911   5.653   4.829
 5880TIP3    H217598   8.009   5.680   4.942
 5881TIP3   OH217599   5.202   0.469   1.783
 5881TIP3    H117600   5.296   0.464   1.805
 5881TIP3    H217601   5.198   0.446   1.691
 5882TIP3   OH217602   4.394   1.548   4.187
 5882TIP3    H117603   4.419   1.577   4.099
 5882TIP3    H217604   4.476   1.551   4.237
 5883TIP3   OH217605   5.070   5.895   2.561
 5883TIP3    H117606   5.161   5.919   2.579
 5883TIP3    H217607   5.061   5.908   2.466
 5884TIP3   OH217608   2.920   1.405   3.108
 5884TIP3    H117609   2.982   1.333   3.106
 5884TIP3    H217610   2.897   1.416   3.200
 5885TIP3   OH217611   2.969   7.576   0.065
 5885TIP3    H117612   2.977   7.482   0.047
 5885TIP3    H217613   2.970   7.617  -0.022
 5886TIP3   OH217614   3.412   5.828   4.884
 5886TIP3    H117615   3.428   5.805   4.975
 5886TIP3    H217616   3.354   5.904   4.888
 5887TIP3   OH217617   4.619   3.469   3.974
 5887TIP3    H117618   4.534   3.456   4.015
 5887TIP3    H217619   4.659   3.382   3.972
 5888TIP3   OH217620   4.436   1.252   4.132
 5888TIP3    H117621   4.480   1.286   4.210
 5888TIP3    H217622   4.493   1.276   4.059
 5889TIP3   OH217623   6.569   1.533   2.122
 5889TIP3    H117624   6.543   1.583   2.044
 5889TIP3    H217625   6.577   1.443   2.090
 5890TIP3   OH217626   0.926   4.477   4.064
 5890TIP3    H117627   0.860   4.545   4.073
 5890TIP3    H217628   0.997   4.506   4.122
 5891TIP3   OH217629   3.173   4.856   4.756
 5891TIP3    H117630   3.111   4.928   4.761
 5891TIP3    H217631   3.203   4.856   4.665
 5892TIP3   OH217632   1.445   2.863   4.290
 5892TIP3    H117633   1.476   2.945   4.329
 5892TIP3    H217634   1.409   2.814   4.364
 5893TIP3   OH217635   2.380   5.504   3.959
 5893TIP3    H117636   2.451   5.455   3.918
 5893TIP3    H217637   2.399   5.498   4.053
 5894TIP3   OH217638   3.281   1.733   3.492
 5894TIP3    H117639   3.281   1.637   3.497
 5894TIP3    H217640   3.373   1.756   3.480
 5895TIP3   OH217641   6.074   2.364   5.746
 5895TIP3    H117642   6.126   2.284   5.754
 5895TIP3    H217643   6.004   2.342   5.684
 5896TIP3   OH217644   4.437   6.385   5.845
 5896TIP3    H117645   4.356   6.337   5.864
 5896TIP3    H217646   4.501   6.350   5.908
 5897TIP3   OH217647   4.235   6.190   2.864
 5897TIP3    H117648   4.181   6.215   2.939
 5897TIP3    H217649   4.173   6.173   2.793
 5898TIP3   OH217650   2.325   6.272   3.323
 5898TIP3    H117651   2.383   6.219   3.377
 5898TIP3    H217652   2.380   6.301   3.250
 5899TIP3   OH217653   3.893   7.780   2.623
 5899TIP3    H117654   3.851   7.846   2.679
 5899TIP3    H217655   3.987   7.799   2.632
 5900TIP3   OH217656   6.023   6.328   2.018
 5900TIP3    H117657   5.984   6.242   2.031
 5900TIP3    H217658   5.988   6.357   1.934
 5901TIP3   OH217659   7.721   1.307   6.322
 5901TIP3    H117660   7.730   1.401   6.340
 5901TIP3    H217661   7.811   1.274   6.320
 5902TIP3   OH217662   5.368   1.302   6.573
 5902TIP3    H117663   5.420   1.346   6.641
 5902TIP3    H217664   5.333   1.224   6.616
 5903TIP3   OH217665   7.040   6.475   5.095
 5903TIP3    H117666   7.017   6.516   5.179
 5903TIP3    H217667   7.019   6.541   5.029
 5904TIP3   OH217668   0.122   3.092   3.375
 5904TIP3    H117669   0.210   3.106   3.342
 5904TIP3    H217670   0.067   3.090   3.296
 5905TIP3   OH217671   0.702   4.849   0.258
 5905TIP3    H117672   0.644   4.835   0.333
 5905TIP3    H217673   0.790   4.832   0.292
 5906TIP3   OH217674   4.736   0.208   3.421
 5906TIP3    H117675   4.688   0.282   3.459
 5906TIP3    H217676   4.688   0.187   3.341
 5907TIP3   OH217677   1.192   1.408   0.587
 5907TIP3    H117678   1.214   1.368   0.671
 5907TIP3    H217679   1.120   1.467   0.606
 5908TIP3   OH217680   4.609   0.331   5.258
 5908TIP3    H117681   4.640   0.364   5.342
 5908TIP3    H217682   4.607   0.236   5.269
 5909TIP3   OH217683   6.052   1.325   1.664
 5909TIP3    H117684   6.021   1.404   1.708
 5909TIP3    H217685   6.106   1.357   1.592
 5910TIP3   OH217686   7.745   4.092   4.603
 5910TIP3    H117687   7.671   4.123   4.550
 5910TIP3    H217688   7.734   3.997   4.607
 5911TIP3   OH217689   6.230   3.581   1.896
 5911TIP3    H117690   6.187   3.666   1.883
 5911TIP3    H217691   6.323   3.601   1.892
 5912TIP3   OH217692   4.214   7.528   3.115
 5912TIP3    H117693   4.218   7.587   3.039
 5912TIP3    H217694   4.211   7.587   3.190
 5913TIP3   OH217695   2.108   5.014   2.784
 5913TIP3    H117696   2.019   4.980   2.794
 5913TIP3    H217697   2.105   5.064   2.702
 5914TIP3   OH217698   4.233   6.896   1.105
 5914TIP3    H117699   4.313   6.938   1.138
 5914TIP3    H217700   4.210   6.948   1.027
 5915TIP3   OH217701   5.300   5.892   0.565
 5915TIP3    H117702   5.386   5.920   0.596
 5915TIP3    H217703   5.238   5.936   0.622
 5916TIP3   OH217704   6.991   6.859   0.269
 5916TIP3    H117705   7.011   6.812   0.349
 5916TIP3    H217706   7.067   6.844   0.212
 5917TIP3   OH217707   6.559   3.286   4.165
 5917TIP3    H117708   6.652   3.272   4.182
 5917TIP3    H217709   6.545   3.247   4.079
 5918TIP3   OH217710   0.640   2.549   3.369
 5918TIP3    H117711   0.716   2.497   3.397
 5918TIP3    H217712   0.674   2.638   3.360
 5919TIP3   OH217713   2.513   0.218   3.027
 5919TIP3    H117714   2.589   0.184   2.980
 5919TIP3    H217715   2.525   0.187   3.117
 5920TIP3   OH217716   7.992   3.600   0.553
 5920TIP3    H117717   7.926   3.541   0.591
 5920TIP3    H217718   8.031   3.643   0.629
 5921TIP3   OH217719   4.178   7.240   0.629
 5921TIP3    H117720   4.188   7.191   0.547
 5921TIP3    H217721   4.250   7.209   0.684
 5922TIP3   OH217722   7.579   3.016   6.728
 5922TIP3    H117723   7.611   2.999   6.639
 5922TIP3    H217724   7.659   3.024   6.780
 5923TIP3   OH217725   7.454   3.878   6.638
 5923TIP3    H117726   7.416   3.839   6.716
 5923TIP3    H217727   7.419   3.826   6.565
 5924TIP3   OH217728   2.366   7.185   4.611
 5924TIP3    H117729   2.361   7.247   4.538
 5924TIP3    H217730   2.277   7.153   4.622
 5925TIP3   OH217731   3.569   6.287   3.021
 5925TIP3    H117732   3.484   6.319   2.991
 5925TIP3    H217733   3.579   6.202   2.977
 5926TIP3   OH217734   0.630   5.172   6.265
 5926TIP3    H117735   0.676   5.141   6.187
 5926TIP3    H217736   0.539   5.145   6.251
 5927TIP3   OH217737   1.181   6.566   3.262
 5927TIP3    H117738   1.143   6.599   3.181
 5927TIP3    H217739   1.238   6.636   3.293
 5928TIP3   OH217740   3.101   2.381   3.798
 5928TIP3    H117741   3.118   2.301   3.747
 5928TIP3    H217742   3.013   2.368   3.834
 5929TIP3   OH217743   0.470   4.031   2.480
 5929TIP3    H117744   0.441   3.967   2.546
 5929TIP3    H217745   0.566   4.026   2.482
 5930TIP3   OH217746   3.647   3.274   4.011
 5930TIP3    H117747   3.707   3.348   3.999
 5930TIP3    H217748   3.613   3.285   4.099
 5931TIP3   OH217749   0.087   6.147   4.142
 5931TIP3    H117750   0.074   6.054   4.158
 5931TIP3    H217751  -0.002   6.183   4.140
 5932TIP3   OH217752   5.861   0.012   5.357
 5932TIP3    H117753   5.775   0.055   5.360
 5932TIP3    H217754   5.895   0.019   5.446
 5933TIP3   OH217755   1.383   2.723   2.174
 5933TIP3    H117756   1.294   2.702   2.203
 5933TIP3    H217757   1.436   2.652   2.209
 5934TIP3   OH217758   1.169   2.381   1.926
 5934TIP3    H117759   1.075   2.373   1.911
 5934TIP3    H217760   1.201   2.432   1.852
 5935TIP3   OH217761   3.218   0.162   6.116
 5935TIP3    H117762   3.292   0.202   6.161
 5935TIP3    H217763   3.235   0.177   6.023
 5936TIP3   OH217764   1.196   5.700   5.857
 5936TIP3    H117765   1.276   5.647   5.853
 5936TIP3    H217766   1.224   5.788   5.834
 5937TIP3   OH217767   7.609   5.078   4.175
 5937TIP3    H117768   7.557   5.159   4.172
 5937TIP3    H217769   7.697   5.105   4.149
 5938TIP3   OH217770   6.566   6.140   0.555
 5938TIP3    H117771   6.587   6.195   0.631
 5938TIP3    H217772   6.470   6.141   0.550
 5939TIP3   OH217773   4.849   6.634   3.576
 5939TIP3    H117774   4.939   6.628   3.547
 5939TIP3    H217775   4.797   6.600   3.503
 5940TIP3   OH217776   3.868   5.392   6.311
 5940TIP3    H117777   3.858   5.362   6.401
 5940TIP3    H217778   3.879   5.312   6.260
 5941TIP3   OH217779   5.667   3.977   0.669
 5941TIP3    H117780   5.598   3.967   0.602
 5941TIP3    H217781   5.742   3.930   0.633
 5942TIP3   OH217782   5.402   6.325   2.320
 5942TIP3    H117783   5.379   6.264   2.249
 5942TIP3    H217784   5.320   6.370   2.340
 5943TIP3   OH217785   3.638   1.474   0.183
 5943TIP3    H117786   3.599   1.404   0.131
 5943TIP3    H217787   3.568   1.538   0.195
 5944TIP3   OH217788   2.001   4.873   4.205
 5944TIP3    H117789   1.996   4.925   4.286
 5944TIP3    H217790   2.083   4.901   4.164
 5945TIP3   OH217791   6.603   1.723   1.515
 5945TIP3    H117792   6.610   1.743   1.609
 5945TIP3    H217793   6.510   1.729   1.496
 5946TIP3   OH217794   3.483   3.517   1.806
 5946TIP3    H117795   3.412   3.462   1.840
 5946TIP3    H217796   3.557   3.500   1.864
 5947TIP3   OH217797   0.459   1.954   1.974
 5947TIP3    H117798   0.512   2.009   2.032
 5947TIP3    H217799   0.460   2.000   1.890
 5948TIP3   OH217800   3.916   1.157   5.756
 5948TIP3    H117801   3.832   1.192   5.786
 5948TIP3    H217802   3.981   1.213   5.798
 5949TIP3   OH217803   0.672   6.846   1.481
 5949TIP3    H117804   0.668   6.751   1.490
 5949TIP3    H217805   0.722   6.876   1.558
 5950TIP3   OH217806   6.159   7.165   4.547
 5950TIP3    H117807   6.116   7.245   4.575
 5950TIP3    H217808   6.097   7.095   4.566
 5951TIP3   OH217809   3.811   2.196   2.490
 5951TIP3    H117810   3.717   2.183   2.499
 5951TIP3    H217811   3.821   2.262   2.421
 5952TIP3   OH217812   6.772   3.508   5.427
 5952TIP3    H117813   6.723   3.543   5.353
 5952TIP3    H217814   6.768   3.577   5.493
 5953TIP3   OH217815   0.285   3.007   3.653
 5953TIP3    H117816   0.252   3.097   3.651
 5953TIP3    H217817   0.330   2.996   3.570
 5954TIP3   OH217818   8.196   2.642   5.858
 5954TIP3    H117819   8.233   2.658   5.945
 5954TIP3    H217820   8.152   2.723   5.835
 5955TIP3   OH217821   7.712   5.252   1.651
 5955TIP3    H117822   7.668   5.264   1.735
 5955TIP3    H217823   7.651   5.202   1.598
 5956TIP3   OH217824   2.786   6.520   5.563
 5956TIP3    H117825   2.737   6.526   5.646
 5956TIP3    H217826   2.848   6.449   5.577
 5957TIP3   OH217827   7.312   2.519   1.807
 5957TIP3    H117828   7.403   2.543   1.787
 5957TIP3    H217829   7.264   2.539   1.727
 5958TIP3   OH217830   6.868   5.427   0.553
 5958TIP3    H117831   6.887   5.369   0.627
 5958TIP3    H217832   6.899   5.513   0.582
 5959TIP3   OH217833   7.746   7.686   4.516
 5959TIP3    H117834   7.792   7.646   4.442
 5959TIP3    H217835   7.702   7.613   4.559
 5960TIP3   OH217836   5.741   6.534   1.968
 5960TIP3    H117837   5.711   6.606   2.023
 5960TIP3    H217838   5.834   6.553   1.951
 5961TIP3   OH217839   5.449   0.203   4.349
 5961TIP3    H117840   5.404   0.243   4.423
 5961TIP3    H217841   5.383   0.146   4.309
 5962TIP3   OH217842   3.382   5.919   4.152
 5962TIP3    H117843   3.463   5.913   4.101
 5962TIP3    H217844   3.328   5.982   4.104
 5963TIP3   OH217845   2.738   4.561   0.309
 5963TIP3    H117846   2.824   4.553   0.350
 5963TIP3    H217847   2.754   4.612   0.230
 5964TIP3   OH217848   2.483   6.156   6.676
 5964TIP3    H117849   2.394   6.161   6.712
 5964TIP3    H217850   2.535   6.213   6.733
 5965TIP3   OH217851   5.057   0.821   0.643
 5965TIP3    H117852   4.980   0.865   0.606
 5965TIP3    H217853   5.034   0.728   0.640
 5966TIP3   OH217854   0.887   7.063   3.112
 5966TIP3    H117855   0.878   7.137   3.052
 5966TIP3    H217856   0.813   7.072   3.172
 5967TIP3   OH217857   1.531   7.636   0.003
 5967TIP3    H117858   1.531   7.563   0.064
 5967TIP3    H217859   1.537   7.596  -0.083
 5968TIP3   OH217860   1.775   4.562   2.813
 5968TIP3    H117861   1.855   4.610   2.792
 5968TIP3    H217862   1.720   4.571   2.735
 5969TIP3   OH217863   3.782   1.445   2.142
 5969TIP3    H117864   3.837   1.521   2.125
 5969TIP3    H217865   3.760   1.450   2.235
 5970TIP3   OH217866   4.594   3.818   1.368
 5970TIP3    H117867   4.612   3.749   1.431
 5970TIP3    H217868   4.531   3.779   1.307
 5971TIP3   OH217869   2.045   3.111   3.101
 5971TIP3    H117870   2.063   3.018   3.087
 5971TIP3    H217871   2.106   3.157   3.044
 5972TIP3   OH217872   7.099   0.799   1.695
 5972TIP3    H117873   7.106   0.704   1.683
 5972TIP3    H217874   7.043   0.810   1.771
 5973TIP3   OH217875   6.770   0.821   0.989
 5973TIP3    H117876   6.756   0.884   0.918
 5973TIP3    H217877   6.815   0.872   1.057
 5974TIP3   OH217878   3.524   2.253   3.986
 5974TIP3    H117879   3.515   2.327   3.926
 5974TIP3    H217880   3.611   2.218   3.968
 5975TIP3   OH217881   3.065   0.519   6.637
 5975TIP3    H117882   3.037   0.602   6.676
 5975TIP3    H217883   3.002   0.455   6.670
 5976TIP3   OH217884   5.735   5.092   1.566
 5976TIP3    H117885   5.820   5.095   1.523
 5976TIP3    H217886   5.729   5.004   1.603
 5977TIP3   OH217887   2.241   1.288   3.249
 5977TIP3    H117888   2.212   1.347   3.319
 5977TIP3    H217889   2.323   1.326   3.218
 5978TIP3   OH217890   5.027   6.724   4.105
 5978TIP3    H117891   4.995   6.766   4.025
 5978TIP3    H217892   5.115   6.692   4.082
 5979TIP3   OH217893   3.878   6.436   0.895
 5979TIP3    H117894   3.842   6.492   0.964
 5979TIP3    H217895   3.891   6.351   0.938
 5980TIP3   OH217896   1.801   4.364   4.007
 5980TIP3    H117897   1.720   4.390   4.050
 5980TIP3    H217898   1.857   4.333   4.078
 5981TIP3   OH217899   2.778   6.835   5.817
 5981TIP3    H117900   2.762   6.918   5.861
 5981TIP3    H217901   2.793   6.859   5.725
 5982TIP3   OH217902   3.443   4.785   2.366
 5982TIP3    H117903   3.449   4.691   2.347
 5982TIP3    H217904   3.422   4.788   2.459
 5983TIP3   OH217905   6.506   7.236   4.679
 5983TIP3    H117906   6.591   7.206   4.646
 5983TIP3    H217907   6.468   7.158   4.720
 5984TIP3   OH217908   6.374   0.787   5.291
 5984TIP3    H117909   6.432   0.830   5.354
 5984TIP3    H217910   6.366   0.698   5.324
 5985TIP3   OH217911   3.753   0.622   4.563
 5985TIP3    H117912   3.666   0.645   4.595
 5985TIP3    H217913   3.810   0.633   4.639
 5986TIP3   OH217914   5.623   6.045   6.025
 5986TIP3    H117915   5.566   6.058   6.101
 5986TIP3    H217916   5.678   5.971   6.049
 5987TIP3   OH217917   6.848   2.306   1.309
 5987TIP3    H117918   6.840   2.312   1.214
 5987TIP3    H217919   6.772   2.255   1.337
 5988TIP3   OH217920   8.207   2.808   3.249
 5988TIP3    H117921   8.175   2.728   3.207
 5988TIP3    H217922   8.127   2.853   3.277
 5989TIP3   OH217923   5.667   4.553   1.679
 5989TIP3    H117924   5.746   4.519   1.720
 5989TIP3    H217925   5.598   4.491   1.705
 5990TIP3   OH217926   6.558   2.120   2.437
 5990TIP3    H117927   6.580   2.027   2.432
 5990TIP3    H217928   6.496   2.126   2.509
 5991TIP3   OH217929   1.641   6.172   5.649
 5991TIP3    H117930   1.684   6.161   5.734
 5991TIP3    H217931   1.548   6.160   5.668
 5992TIP3   OH217932   7.726   2.917   0.242
 5992TIP3    H117933   7.758   2.994   0.195
 5992TIP3    H217934   7.794   2.851   0.228
 5993TIP3   OH217935   3.679   1.971   0.957
 5993TIP3    H117936   3.647   2.046   1.007
 5993TIP3    H217937   3.600   1.936   0.915
 5994TIP3   OH217938   3.089   3.319   1.238
 5994TIP3    H117939   3.133   3.296   1.319
 5994TIP3    H217940   3.000   3.287   1.249
 5995TIP3   OH217941   2.426   3.028   4.552
 5995TIP3    H117942   2.387   3.093   4.611
 5995TIP3    H217943   2.426   2.947   4.601
 5996TIP3   OH217944   5.859   4.280   4.349
 5996TIP3    H117945   5.772   4.245   4.328
 5996TIP3    H217946   5.918   4.236   4.288
 5997TIP3   OH217947   2.623   1.651   2.056
 5997TIP3    H117948   2.627   1.731   2.004
 5997TIP3    H217949   2.696   1.659   2.118
 5998TIP3   OH217950   7.435   4.629   4.241
 5998TIP3    H117951   7.434   4.720   4.271
 5998TIP3    H217952   7.357   4.590   4.279
 5999TIP3   OH217953   5.509   6.839   3.896
 5999TIP3    H117954   5.570   6.912   3.904
 5999TIP3    H217955   5.422   6.879   3.896
 6000TIP3   OH217956   3.412   1.997   4.263
 6000TIP3    H117957   3.442   2.016   4.352
 6000TIP3    H217958   3.414   1.901   4.258
 6001TIP3   OH217959   6.528   5.281   1.492
 6001TIP3    H117960   6.498   5.363   1.454
 6001TIP3    H217961   6.474   5.268   1.569
 6002TIP3   OH217962   7.756   2.229  -0.028
 6002TIP3    H117963   7.707   2.153   0.005
 6002TIP3    H217964   7.704   2.304   0.000
 6003TIP3   OH217965   3.417   2.924   0.802
 6003TIP3    H117966   3.468   2.968   0.733
 6003TIP3    H217967   3.326   2.939   0.776
 6004TIP3   OH217968   6.980   3.100   5.350
 6004TIP3    H117969   7.042   3.155   5.303
 6004TIP3    H217970   6.928   3.161   5.402
 6005TIP3   OH217971   7.905   2.748   5.531
 6005TIP3    H117972   7.854   2.696   5.594
 6005TIP3    H217973   7.849   2.824   5.514
 6006TIP3   OH217974   5.368   1.713   4.223
 6006TIP3    H117975   5.395   1.805   4.215
 6006TIP3    H217976   5.369   1.680   4.133
 6007TIP3   OH217977   6.525   7.439   1.760
 6007TIP3    H117978   6.462   7.406   1.695
 6007TIP3    H217979   6.610   7.421   1.721
 6008TIP3   OH217980   7.106   1.834   1.272
 6008TIP3    H117981   7.169   1.898   1.239
 6008TIP3    H217982   7.023   1.880   1.274
 6009TIP3   OH217983   0.162   1.218   4.757
 6009TIP3    H117984   0.096   1.214   4.688
 6009TIP3    H217985   0.120   1.265   4.829
 6010TIP3   OH217986   1.042   2.225   2.841
 6010TIP3    H117987   0.974   2.241   2.775
 6010TIP3    H217988   1.124   2.220   2.791
 6011TIP3   OH217989   6.991   6.795   4.288
 6011TIP3    H117990   7.011   6.844   4.368
 6011TIP3    H217991   6.930   6.851   4.240
 6012TIP3   OH217992   5.512   0.725   1.690
 6012TIP3    H117993   5.590   0.691   1.645
 6012TIP3    H217994   5.501   0.668   1.765
 6013TIP3   OH217995   0.356   0.070   3.836
 6013TIP3    H117996   0.343  -0.022   3.857
 6013TIP3    H217997   0.335   0.117   3.916
 6014TIP3   OH217998   7.257   1.772   3.381
 6014TIP3    H117999   7.167   1.790   3.407
 6014TIP3    H218000   7.298   1.735   3.459
 6015TIP3   OH218001   0.330   0.671   3.450
 6015TIP3    H118002   0.271   0.655   3.523
 6015TIP3    H218003   0.289   0.627   3.376
 6016TIP3   OH218004   7.094   3.555   6.573
 6016TIP3    H118005   7.079   3.533   6.481
 6016TIP3    H218006   7.159   3.491   6.603
 6017TIP3   OH218007   1.254   3.008   6.194
 6017TIP3    H118008   1.293   3.007   6.107
 6017TIP3    H218009   1.206   2.925   6.199
 6018TIP3   OH218010   1.456   6.523   5.776
 6018TIP3    H118011   1.395   6.591   5.747
 6018TIP3    H218012   1.515   6.568   5.837
 6019TIP3   OH218013   7.649   6.664   1.519
 6019TIP3    H118014   7.659   6.581   1.567
 6019TIP3    H218015   7.554   6.680   1.518
 6020TIP3   OH218016   2.077   4.598   2.245
 6020TIP3    H118017   2.034   4.563   2.167
 6020TIP3    H218018   2.005   4.613   2.307
 6021TIP3   OH218019   0.462   2.599   6.376
 6021TIP3    H118020   0.405   2.572   6.304
 6021TIP3    H218021   0.461   2.525   6.436
 6022TIP3   OH218022   4.879   3.410   0.935
 6022TIP3    H118023   4.820   3.476   0.899
 6022TIP3    H218024   4.966   3.447   0.926
 6023TIP3   OH218025   4.631   0.903   6.403
 6023TIP3    H118026   4.651   0.883   6.311
 6023TIP3    H218027   4.557   0.963   6.398
 6024TIP3   OH218028   2.418   1.855   2.063
 6024TIP3    H118029   2.394   1.868   2.155
 6024TIP3    H218030   2.501   1.807   2.066
 6025TIP3   OH218031   8.328   3.464   5.407
 6025TIP3    H118032   8.288   3.524   5.469
 6025TIP3    H218033   8.254   3.424   5.361
 6026TIP3   OH218034   4.241   6.373   1.346
 6026TIP3    H118035   4.235   6.468   1.337
 6026TIP3    H218036   4.160   6.348   1.391
 6027TIP3   OH218037   4.176   3.960   4.109
 6027TIP3    H118038   4.195   3.960   4.015
 6027TIP3    H218039   4.206   4.045   4.140
 6028TIP3   OH218040   6.958   4.097   0.208
 6028TIP3    H118041   6.987   4.184   0.235
 6028TIP3    H218042   7.002   4.037   0.270
 6029TIP3   OH218043   6.034   3.223   1.998
 6029TIP3    H118044   6.066   3.253   1.913
 6029TIP3    H218045   6.032   3.128   1.992
 6030TIP3   OH218046   3.354   7.256   6.425
 6030TIP3    H118047   3.309   7.240   6.507
 6030TIP3    H218048   3.286   7.250   6.358
 6031TIP3   OH218049   4.087   7.309   1.268
 6031TIP3    H118050   4.108   7.396   1.301
 6031TIP3    H218051   4.164   7.256   1.289
 6032TIP3   OH218052   2.734   4.533   2.125
 6032TIP3    H118053   2.806   4.536   2.189
 6032TIP3    H218054   2.727   4.623   2.094
 6033TIP3   OH218055   2.270   0.374   3.217
 6033TIP3    H118056   2.318   0.303   3.260
 6033TIP3    H218057   2.241   0.431   3.289
 6034TIP3   OH218058   5.851   1.223   5.834
 6034TIP3    H118059   5.817   1.184   5.914
 6034TIP3    H218060   5.820   1.314   5.837
 6035TIP3   OH218061   3.193   2.677   4.990
 6035TIP3    H118062   3.136   2.752   5.008
 6035TIP3    H218063   3.255   2.676   5.063
 6036TIP3   OH218064   1.011   6.374   5.512
 6036TIP3    H118065   0.941   6.315   5.485
 6036TIP3    H218066   1.082   6.355   5.451
 6037TIP3   OH218067   5.672   1.890   5.060
 6037TIP3    H118068   5.720   1.912   4.980
 6037TIP3    H218069   5.602   1.956   5.065
 6038TIP3   OH218070   2.736   5.555   1.175
 6038TIP3    H118071   2.732   5.460   1.192
 6038TIP3    H218072   2.779   5.562   1.090
 6039TIP3   OH218073   7.163   3.263   4.040
 6039TIP3    H118074   7.074   3.282   4.011
 6039TIP3    H218075   7.195   3.345   4.077
 6040TIP3   OH218076   4.259   3.178   2.801
 6040TIP3    H118077   4.232   3.103   2.853
 6040TIP3    H218078   4.186   3.194   2.742
 6041TIP3   OH218079   6.431   4.190   2.383
 6041TIP3    H118080   6.431   4.215   2.476
 6041TIP3    H218081   6.505   4.238   2.346
 6042TIP3   OH218082   3.289   6.757   1.788
 6042TIP3    H118083   3.378   6.738   1.756
 6042TIP3    H218084   3.257   6.827   1.730
 6043TIP3   OH218085   7.035   2.046   2.492
 6043TIP3    H118086   6.959   2.010   2.537
 6043TIP3    H218087   7.110   2.022   2.548
 6044TIP3   OH218088   4.564   6.489   0.265
 6044TIP3    H118089   4.573   6.578   0.300
 6044TIP3    H218090   4.496   6.449   0.320
 6045TIP3   OH218091   4.069   4.708   1.035
 6045TIP3    H118092   4.061   4.800   1.011
 6045TIP3    H218093   3.981   4.681   1.059
 6046TIP3   OH218094   2.823   1.726   4.059
 6046TIP3    H118095   2.873   1.645   4.066
 6046TIP3    H218096   2.749   1.714   4.118
 6047TIP3   OH218097   0.550   2.178   2.092
 6047TIP3    H118098   0.623   2.235   2.117
 6047TIP3    H218099   0.492   2.179   2.169
 6048TIP3   OH218100   4.336   4.560   2.627
 6048TIP3    H118101   4.270   4.629   2.619
 6048TIP3    H218102   4.312   4.495   2.561
 6049TIP3   OH218103   3.722   4.602   3.365
 6049TIP3    H118104   3.687   4.569   3.449
 6049TIP3    H218105   3.806   4.642   3.388
 6050TIP3   OH218106   7.646   6.767   5.719
 6050TIP3    H118107   7.738   6.793   5.714
 6050TIP3    H218108   7.626   6.765   5.812
 6051TIP3   OH218109   7.047   7.478   3.274
 6051TIP3    H118110   7.084   7.396   3.242
 6051TIP3    H218111   7.034   7.531   3.195
 6052TIP3   OH218112   1.745   1.365   2.930
 6052TIP3    H118113   1.762   1.436   2.869
 6052TIP3    H218114   1.695   1.300   2.879
 6053TIP3   OH218115   7.616   4.612   2.861
 6053TIP3    H118116   7.697   4.563   2.876
 6053TIP3    H218117   7.563   4.595   2.938
 6054TIP3   OH218118   3.994   7.431   4.288
 6054TIP3    H118119   3.938   7.440   4.366
 6054TIP3    H218120   4.083   7.443   4.321
 6055TIP3   OH218121   4.657   4.315   4.722
 6055TIP3    H118122   4.594   4.369   4.768
 6055TIP3    H218123   4.611   4.285   4.644
 6056TIP3   OH218124   3.677   5.695   3.163
 6056TIP3    H118125   3.746   5.708   3.098
 6056TIP3    H218126   3.721   5.651   3.236
 6057TIP3   OH218127   1.603   2.592   5.564
 6057TIP3    H118128   1.663   2.612   5.492
 6057TIP3    H218129   1.542   2.666   5.565
 6058TIP3   OH218130   1.517   1.308   1.516
 6058TIP3    H118131   1.438   1.259   1.535
 6058TIP3    H218132   1.510   1.387   1.569
 6059TIP3   OH218133   1.807   7.546   1.891
 6059TIP3    H118134   1.839   7.459   1.868
 6059TIP3    H218135   1.714   7.533   1.910
 6060TIP3   OH218136   4.494   6.836   4.493
 6060TIP3    H118137   4.579   6.845   4.536
 6060TIP3    H218138   4.453   6.922   4.502
 6061TIP3   OH218139   2.987   2.963   1.754
 6061TIP3    H118140   3.022   2.884   1.713
 6061TIP3    H218141   2.892   2.947   1.758
 6062TIP3   OH218142   6.188   3.192   6.311
 6062TIP3    H118143   6.277   3.215   6.337
 6062TIP3    H218144   6.155   3.141   6.385
 6063TIP3   OH218145   4.857   3.015   4.697
 6063TIP3    H118146   4.771   3.056   4.695
 6063TIP3    H218147   4.849   2.940   4.638
 6064TIP3   OH218148   0.787   4.698   6.663
 6064TIP3    H118149   0.697   4.728   6.666
 6064TIP3    H218150   0.781   4.604   6.645
 6065TIP3   OH218151   2.599   4.980   3.034
 6065TIP3    H118152   2.674   4.968   2.975
 6065TIP3    H218153   2.524   4.989   2.976
 6066TIP3   OH218154   0.803   4.054   3.765
 6066TIP3    H118155   0.877   4.115   3.763
 6066TIP3    H218156   0.840   3.972   3.795
 6067TIP3   OH218157   2.778   2.748   3.345
 6067TIP3    H118158   2.869   2.717   3.354
 6067TIP3    H218159   2.786   2.839   3.318
 6068TIP3   OH218160   6.539   7.801   2.843
 6068TIP3    H118161   6.468   7.737   2.847
 6068TIP3    H218162   6.611   7.756   2.800
 6069TIP3   OH218163   1.515   2.522   0.417
 6069TIP3    H118164   1.433   2.570   0.423
 6069TIP3    H218165   1.563   2.546   0.497
 6070TIP3   OH218166   8.010   1.273   0.375
 6070TIP3    H118167   7.974   1.197   0.329
 6070TIP3    H218168   8.086   1.299   0.323
 6071TIP3   OH218169   1.877   4.979   1.435
 6071TIP3    H118170   1.822   4.902   1.424
 6071TIP3    H218171   1.822   5.041   1.483
 6072TIP3   OH218172   6.480   1.323   4.471
 6072TIP3    H118173   6.435   1.323   4.556
 6072TIP3    H218174   6.414   1.356   4.410
 6073TIP3   OH218175   5.936   2.922   4.170
 6073TIP3    H118176   5.974   2.994   4.221
 6073TIP3    H218177   5.841   2.932   4.182
 6074TIP3   OH218178   0.291   0.758   0.644
 6074TIP3    H118179   0.217   0.698   0.653
 6074TIP3    H218180   0.360   0.721   0.699
 6075TIP3   OH218181   8.051   7.688   4.719
 6075TIP3    H118182   7.986   7.742   4.764
 6075TIP3    H218183   8.007   7.603   4.707
 6076TIP3   OH218184   0.032   2.399   2.246
 6076TIP3    H118185  -0.062   2.407   2.265
 6076TIP3    H218186   0.036   2.344   2.167
 6077TIP3   OH218187   7.470   2.019   3.972
 6077TIP3    H118188   7.439   1.961   4.042
 6077TIP3    H218189   7.416   1.996   3.896
 6078TIP3   OH218190   5.871   4.991   0.106
 6078TIP3    H118191   5.845   4.916   0.160
 6078TIP3    H218192   5.789   5.023   0.068
 6079TIP3   OH218193   3.654   0.719   0.487
 6079TIP3    H118194   3.567   0.680   0.494
 6079TIP3    H218195   3.638   0.811   0.470
 6080TIP3   OH218196   7.460   7.469   1.838
 6080TIP3    H118197   7.525   7.405   1.867
 6080TIP3    H218198   7.512   7.544   1.807
 6081TIP3   OH218199   2.981   6.363   1.442
 6081TIP3    H118200   2.921   6.438   1.436
 6081TIP3    H218201   3.061   6.399   1.480
 6082TIP3   OH218202   0.059   3.573   2.698
 6082TIP3    H118203   0.051   3.648   2.640
 6082TIP3    H218204   0.138   3.528   2.668
 6083TIP3   OH218205   6.081   2.603   2.816
 6083TIP3    H118206   6.061   2.527   2.870
 6083TIP3    H218207   6.078   2.569   2.726
 6084TIP3   OH218208   6.377   4.080   5.969
 6084TIP3    H118209   6.296   4.120   5.939
 6084TIP3    H218210   6.433   4.154   5.993
 6085TIP3   OH218211   6.502   0.463   6.715
 6085TIP3    H118212   6.559   0.464   6.638
 6085TIP3    H218213   6.548   0.409   6.779
 6086TIP3   OH218214   4.569   5.191   6.072
 6086TIP3    H118215   4.479   5.160   6.076
 6086TIP3    H218216   4.581   5.241   6.153
 6087TIP3   OH218217   5.362   0.034   0.029
 6087TIP3    H118218   5.348  -0.044  -0.025
 6087TIP3    H218219   5.279   0.044   0.077
 6088TIP3   OH218220   6.588   5.538   2.645
 6088TIP3    H118221   6.514   5.509   2.590
 6088TIP3    H218222   6.592   5.472   2.715
 6089TIP3   OH218223   6.689   0.351   1.439
 6089TIP3    H118224   6.731   0.434   1.465
 6089TIP3    H218225   6.761   0.288   1.436
 6090TIP3   OH218226  -0.032   1.966   6.567
 6090TIP3    H118227   0.054   1.923   6.564
 6090TIP3    H218228  -0.012   2.059   6.557
 6091TIP3   OH218229   8.078   5.344   4.857
 6091TIP3    H118230   8.173   5.354   4.859
 6091TIP3    H218231   8.052   5.384   4.774
 6092TIP3   OH218232   3.389   6.865   1.160
 6092TIP3    H118233   3.293   6.857   1.161
 6092TIP3    H218234   3.406   6.957   1.180
 6093TIP3   OH218235   4.956   7.418   2.537
 6093TIP3    H118236   5.013   7.382   2.469
 6093TIP3    H218237   4.900   7.345   2.563
 6094TIP3   OH218238   5.095   4.415   1.332
 6094TIP3    H118239   5.051   4.457   1.405
 6094TIP3    H218240   5.188   4.429   1.349
 6095TIP3   OH218241   6.793   5.060   0.239
 6095TIP3    H118242   6.848   5.090   0.311
 6095TIP3    H218243   6.769   5.139   0.192
 6096TIP3   OH218244   6.937   6.554   6.764
 6096TIP3    H118245   6.968   6.467   6.739
 6096TIP3    H218246   6.979   6.570   6.849
 6097TIP3   OH218247   8.030   0.137   4.711
 6097TIP3    H118248   8.027   0.216   4.657
 6097TIP3    H218249   8.112   0.145   4.760
 6098TIP3   OH218250   0.764   7.362   4.793
 6098TIP3    H118251   0.734   7.449   4.817
 6098TIP3    H218252   0.721   7.345   4.709
 6099TIP3   OH218253   1.704   7.311   3.776
 6099TIP3    H118254   1.734   7.384   3.723
 6099TIP3    H218255   1.614   7.296   3.748
 6100TIP3   OH218256   6.148   0.637   0.048
 6100TIP3    H118257   6.082   0.580   0.008
 6100TIP3    H218258   6.118   0.649   0.138
 6101TIP3   OH218259   3.067   1.740   2.638
 6101TIP3    H118260   3.048   1.657   2.593
 6101TIP3    H218261   3.073   1.716   2.731
 6102TIP3   OH218262   0.354   0.067   2.504
 6102TIP3    H118263   0.436   0.027   2.475
 6102TIP3    H218264   0.340   0.139   2.443
 6103TIP3   OH218265   6.269   5.147   0.807
 6103TIP3    H118266   6.174   5.144   0.821
 6103TIP3    H218267   6.280   5.130   0.714
 6104TIP3   OH218268   2.050   1.120   4.122
 6104TIP3    H118269   1.956   1.120   4.104
 6104TIP3    H218270   2.072   1.028   4.136
 6105TIP3   OH218271   3.566   3.990   5.430
 6105TIP3    H118272   3.622   3.977   5.353
 6105TIP3    H218273   3.516   4.069   5.409
 6106TIP3   OH218274   0.835   3.308   1.080
 6106TIP3    H118275   0.812   3.267   1.163
 6106TIP3    H218276   0.784   3.389   1.079
 6107TIP3   OH218277   5.579   3.726   3.571
 6107TIP3    H118278   5.636   3.670   3.518
 6107TIP3    H218279   5.616   3.719   3.660
 6108TIP3   OH218280   0.481   0.568   3.701
 6108TIP3    H118281   0.471   0.591   3.609
 6108TIP3    H218282   0.458   0.475   3.706
 6109TIP3   OH218283   3.116   7.694   2.421
 6109TIP3    H118284   3.104   7.660   2.332
 6109TIP3    H218285   3.191   7.647   2.455
 6110TIP3   OH218286   3.641   3.400   4.892
 6110TIP3    H118287   3.560   3.408   4.843
 6110TIP3    H218288   3.634   3.317   4.939
 6111TIP3   OH218289   6.413   4.496   1.796
 6111TIP3    H118290   6.336   4.482   1.742
 6111TIP3    H218291   6.483   4.448   1.752
 6112TIP3   OH218292   3.224   6.175   5.940
 6112TIP3    H118293   3.214   6.081   5.948
 6112TIP3    H218294   3.265   6.202   6.022
 6113TIP3   OH218295   0.897   4.097   4.404
 6113TIP3    H118296   0.968   4.154   4.435
 6113TIP3    H218297   0.835   4.157   4.361
 6114TIP3   OH218298   3.974   1.385   2.748
 6114TIP3    H118299   4.050   1.327   2.757
 6114TIP3    H218300   3.914   1.358   2.817
 6115TIP3   OH218301   3.769   4.465   6.747
 6115TIP3    H118302   3.749   4.495   6.836
 6115TIP3    H218303   3.688   4.480   6.698
 6116TIP3   OH218304   4.353   1.349   6.085
 6116TIP3    H118305   4.291   1.285   6.120
 6116TIP3    H218306   4.301   1.403   6.026
 6117TIP3   OH218307   5.444   5.780   1.596
 6117TIP3    H118308   5.430   5.765   1.502
 6117TIP3    H218309   5.364   5.749   1.637
 6118TIP3   OH218310   7.565   0.129   5.037
 6118TIP3    H118311   7.474   0.144   5.012
 6118TIP3    H218312   7.611   0.118   4.953
 6119TIP3   OH218313   5.989   4.251   3.298
 6119TIP3    H118314   6.038   4.316   3.247
 6119TIP3    H218315   6.055   4.186   3.322
 6120TIP3   OH218316   4.965   0.473   5.313
 6120TIP3    H118317   4.908   0.473   5.390
 6120TIP3    H218318   5.029   0.403   5.330
 6121TIP3   OH218319   6.542   3.472   5.664
 6121TIP3    H118320   6.462   3.524   5.662
 6121TIP3    H218321   6.533   3.410   5.592
 6122TIP3   OH218322   7.387   2.390   2.954
 6122TIP3    H118323   7.304   2.346   2.936
 6122TIP3    H218324   7.412   2.429   2.871
 6123TIP3   OH218325   8.194   0.105   6.519
 6123TIP3    H118326   8.139   0.031   6.493
 6123TIP3    H218327   8.260   0.111   6.450
 6124TIP3   OH218328   0.177   4.626   6.295
 6124TIP3    H118329   0.125   4.666   6.364
 6124TIP3    H218330   0.113   4.596   6.230
 6125TIP3   OH218331   4.541   4.019   5.578
 6125TIP3    H118332   4.473   4.065   5.529
 6125TIP3    H218333   4.586   4.088   5.627
 6126TIP3   OH218334   0.820   5.608   6.337
 6126TIP3    H118335   0.759   5.544   6.302
 6126TIP3    H218336   0.906   5.578   6.307
 6127TIP3   OH218337   7.079   0.856   3.789
 6127TIP3    H118338   6.998   0.807   3.772
 6127TIP3    H218339   7.139   0.791   3.826
 6128TIP3   OH218340   3.739   2.820   1.513
 6128TIP3    H118341   3.715   2.901   1.557
 6128TIP3    H218342   3.835   2.821   1.511
 6129TIP3   OH218343   3.547   4.955   1.527
 6129TIP3    H118344   3.470   5.005   1.499
 6129TIP3    H218345   3.521   4.864   1.516
 6130TIP3   OH218346   1.300   0.578   1.853
 6130TIP3    H118347   1.325   0.531   1.773
 6130TIP3    H218348   1.306   0.671   1.829
 6131TIP3   OH218349   6.787   0.901   3.183
 6131TIP3    H118350   6.713   0.953   3.217
 6131TIP3    H218351   6.843   0.966   3.140
 6132TIP3   OH218352   0.573   1.798   4.098
 6132TIP3    H118353   0.575   1.834   4.009
 6132TIP3    H218354   0.623   1.716   4.092
 6133TIP3   OH218355   4.072   1.900   2.819
 6133TIP3    H118356   4.127   1.930   2.747
 6133TIP3    H218357   4.109   1.814   2.843
 6134TIP3   OH218358   1.794   2.917   3.981
 6134TIP3    H118359   1.767   2.832   4.017
 6134TIP3    H218360   1.839   2.960   4.054
 6135TIP3   OH218361   7.925   5.769   4.365
 6135TIP3    H118362   7.875   5.689   4.347
 6135TIP3    H218363   7.913   5.823   4.287
 6136TIP3   OH218364   7.431   6.743   4.885
 6136TIP3    H118365   7.519   6.773   4.908
 6136TIP3    H218366   7.430   6.651   4.911
 6137TIP3   OH218367   0.680   0.019   3.698
 6137TIP3    H118368   0.608   0.069   3.736
 6137TIP3    H218369   0.748   0.021   3.765
 6138TIP3   OH218370   7.002   4.636   1.649
 6138TIP3    H118371   6.953   4.662   1.571
 6138TIP3    H218372   7.073   4.700   1.655
 6139TIP3   OH218373   1.545   3.893   4.710
 6139TIP3    H118374   1.627   3.854   4.740
 6139TIP3    H218375   1.556   3.987   4.722
 6140TIP3   OH218376   0.323   4.465   3.744
 6140TIP3    H118377   0.319   4.504   3.657
 6140TIP3    H218378   0.325   4.371   3.729
 6141TIP3   OH218379   4.527   7.364   5.909
 6141TIP3    H118380   4.486   7.277   5.914
 6141TIP3    H218381   4.576   7.362   5.827
 6142TIP3   OH218382   2.235   6.395   4.334
 6142TIP3    H118383   2.218   6.471   4.390
 6142TIP3    H218384   2.327   6.404   4.309
 6143TIP3   OH218385   4.956   6.935   6.195
 6143TIP3    H118386   4.876   6.927   6.248
 6143TIP3    H218387   5.017   6.981   6.252
 6144TIP3   OH218388   3.196   0.867   1.995
 6144TIP3    H118389   3.226   0.810   2.067
 6144TIP3    H218390   3.260   0.938   1.993
 6145TIP3   OH218391   3.722   0.134   2.606
 6145TIP3    H118392   3.778   0.089   2.543
 6145TIP3    H218393   3.725   0.079   2.685
 6146TIP3   OH218394   6.567   7.100   5.906
 6146TIP3    H118395   6.653   7.075   5.872
 6146TIP3    H218396   6.505   7.072   5.840
 6147TIP3   OH218397   1.380   5.691   4.023
 6147TIP3    H118398   1.331   5.609   4.019
 6147TIP3    H218399   1.391   5.717   3.932
 6148TIP3   OH218400   5.757   1.159   3.750
 6148TIP3    H118401   5.831   1.164   3.811
 6148TIP3    H218402   5.680   1.167   3.805
 6149TIP3   OH218403   5.892   2.825   5.215
 6149TIP3    H118404   5.797   2.815   5.206
 6149TIP3    H218405   5.928   2.742   5.185
 6150TIP3   OH218406   2.048   3.891   1.345
 6150TIP3    H118407   2.118   3.934   1.394
 6150TIP3    H218408   2.082   3.883   1.256
 6151TIP3   OH218409   2.292   0.616   3.996
 6151TIP3    H118410   2.284   0.521   3.998
 6151TIP3    H218411   2.207   0.647   3.967
 6152TIP3   OH218412   0.956   5.934   1.072
 6152TIP3    H118413   1.039   5.924   1.119
 6152TIP3    H218414   0.899   5.868   1.112
 6153TIP3   OH218415   2.673   5.460   3.581
 6153TIP3    H118416   2.764   5.446   3.554
 6153TIP3    H218417   2.677   5.537   3.637
 6154TIP3   OH218418   5.139   1.149   3.684
 6154TIP3    H118419   5.185   1.160   3.767
 6154TIP3    H218420   5.142   1.236   3.644
 6155TIP3   OH218421   6.152   1.182   1.399
 6155TIP3    H118422   6.155   1.114   1.467
 6155TIP3    H218423   6.186   1.261   1.443
 6156TIP3   OH218424   0.195   6.213   0.367
 6156TIP3    H118425   0.128   6.183   0.306
 6156TIP3    H218426   0.194   6.308   0.360
 6157TIP3   OH218427   3.657   7.502   4.287
 6157TIP3    H118428   3.651   7.428   4.228
 6157TIP3    H218429   3.655   7.463   4.375
 6158TIP3   OH218430   8.144   0.694   4.794
 6158TIP3    H118431   8.115   0.627   4.856
 6158TIP3    H218432   8.208   0.747   4.842
 6159TIP3   OH218433   2.782   6.745   4.237
 6159TIP3    H118434   2.803   6.784   4.322
 6159TIP3    H218435   2.733   6.666   4.259
 6160TIP3   OH218436   2.409   3.339   2.245
 6160TIP3    H118437   2.359   3.389   2.181
 6160TIP3    H218438   2.389   3.380   2.329
 6161TIP3   OH218439   0.409   2.221   4.143
 6161TIP3    H118440   0.382   2.137   4.182
 6161TIP3    H218441   0.334   2.279   4.158
 6162TIP3   OH218442   6.080   4.944   1.229
 6162TIP3    H118443   6.158   5.000   1.236
 6162TIP3    H218444   6.047   4.940   1.319
 6163TIP3   OH218445   5.413   2.712   6.028
 6163TIP3    H118446   5.420   2.728   6.122
 6163TIP3    H218447   5.343   2.647   6.020
 6164TIP3   OH218448   6.167   4.068   2.043
 6164TIP3    H118449   6.223   4.002   2.084
 6164TIP3    H218450   6.112   4.101   2.114
 6165TIP3   OH218451   6.359   0.549   5.441
 6165TIP3    H118452   6.290   0.591   5.493
 6165TIP3    H218453   6.433   0.540   5.502
 6166TIP3   OH218454   1.114   6.541   2.138
 6166TIP3    H118455   1.105   6.459   2.186
 6166TIP3    H218456   1.206   6.546   2.114
 6167TIP3   OH218457   7.389   0.084   0.204
 6167TIP3    H118458   7.484   0.095   0.207
 6167TIP3    H218459   7.376  -0.009   0.184
 6168TIP3   OH218460   5.076   3.434   1.900
 6168TIP3    H118461   5.127   3.453   1.821
 6168TIP3    H218462   5.139   3.398   1.962
 6169TIP3   OH218463   8.068   0.843   1.505
 6169TIP3    H118464   8.054   0.935   1.481
 6169TIP3    H218465   8.054   0.795   1.423
 6170TIP3   OH218466   7.478   7.528   5.099
 6170TIP3    H118467   7.494   7.436   5.117
 6170TIP3    H218468   7.560   7.572   5.123
 6171TIP3   OH218469   1.509   6.183   4.620
 6171TIP3    H118470   1.509   6.231   4.537
 6171TIP3    H218471   1.602   6.178   4.644
 6172TIP3   OH218472   2.852   3.528   6.268
 6172TIP3    H118473   2.887   3.477   6.341
 6172TIP3    H218474   2.930   3.562   6.223
 6173TIP3   OH218475   4.693   7.276   0.598
 6173TIP3    H118476   4.640   7.287   0.519
 6173TIP3    H218477   4.783   7.270   0.567
 6174TIP3   OH218478   7.835   0.831   0.235
 6174TIP3    H118479   7.765   0.802   0.176
 6174TIP3    H218480   7.910   0.776   0.211
 6175TIP3   OH218481   6.198   3.598   3.212
 6175TIP3    H118482   6.214   3.512   3.250
 6175TIP3    H218483   6.277   3.648   3.231
 6176TIP3   OH218484   0.282   3.628   4.208
 6176TIP3    H118485   0.316   3.712   4.175
 6176TIP3    H218486   0.347   3.564   4.178
 6177TIP3   OH218487   4.141   6.023   3.238
 6177TIP3    H118488   4.122   6.084   3.166
 6177TIP3    H218489   4.198   5.957   3.199
 6178TIP3   OH218490   2.596   0.331   5.519
 6178TIP3    H118491   2.598   0.384   5.439
 6178TIP3    H218492   2.687   0.306   5.533
 6179TIP3   OH218493   4.177   3.432   1.437
 6179TIP3    H118494   4.239   3.492   1.479
 6179TIP3    H218495   4.212   3.345   1.455
 6180TIP3   OH218496   2.178   2.783   5.879
 6180TIP3    H118497   2.120   2.719   5.919
 6180TIP3    H218498   2.231   2.732   5.817
 6181TIP3   OH218499   1.910   0.087   1.101
 6181TIP3    H118500   1.939   0.017   1.159
 6181TIP3    H218501   1.818   0.067   1.083
 6182TIP3   OH218502   2.182   5.566   1.688
 6182TIP3    H118503   2.251   5.504   1.713
 6182TIP3    H218504   2.101   5.516   1.693
 6183TIP3   OH218505   4.910   4.181   1.000
 6183TIP3    H118506   4.891   4.114   0.935
 6183TIP3    H218507   5.005   4.177   1.012
 6184TIP3   OH218508   2.588   5.365   3.840
 6184TIP3    H118509   2.680   5.346   3.859
 6184TIP3    H218510   2.569   5.316   3.760
 6185TIP3   OH218511   6.815   3.315   6.244
 6185TIP3    H118512   6.741   3.293   6.188
 6185TIP3    H218513   6.802   3.261   6.323
 6186TIP3   OH218514   3.547   1.778   3.511
 6186TIP3    H118515   3.641   1.780   3.492
 6186TIP3    H218516   3.542   1.785   3.606
 6187TIP3   OH218517   7.906   2.260   4.528
 6187TIP3    H118518   7.971   2.306   4.475
 6187TIP3    H218519   7.851   2.215   4.463
 6188TIP3   OH218520   0.929   1.994   1.519
 6188TIP3    H118521   0.936   1.899   1.524
 6188TIP3    H218522   0.882   2.020   1.598
 6189TIP3   OH218523   4.946   6.388   4.075
 6189TIP3    H118524   5.003   6.421   4.144
 6189TIP3    H218525   5.007   6.359   4.006
 6190TIP3   OH218526   4.773   1.230   2.504
 6190TIP3    H118527   4.724   1.311   2.492
 6190TIP3    H218528   4.720   1.163   2.459
 6191TIP3   OH218529   1.926   0.523   3.137
 6191TIP3    H118530   1.990   0.584   3.100
 6191TIP3    H218531   1.920   0.548   3.229
 6192TIP3   OH218532   5.014   5.235   5.974
 6192TIP3    H118533   4.962   5.206   5.899
 6192TIP3    H218534   5.103   5.242   5.939
 6193TIP3   OH218535   2.206   3.686   0.068
 6193TIP3    H118536   2.232   3.675  -0.023
 6193TIP3    H218537   2.275   3.645   0.118
 6194TIP3   OH218538   5.230   3.718   3.062
 6194TIP3    H118539   5.195   3.749   2.978
 6194TIP3    H218540   5.253   3.798   3.109
 6195TIP3   OH218541   5.570   0.694   5.533
 6195TIP3    H118542   5.596   0.757   5.465
 6195TIP3    H218543   5.649   0.642   5.550
 6196TIP3   OH218544   4.220   0.380   2.166
 6196TIP3    H118545   4.153   0.313   2.184
 6196TIP3    H218546   4.196   0.454   2.221
 6197TIP3   OH218547   0.301   1.547   1.929
 6197TIP3    H118548   0.364   1.589   1.988
 6197TIP3    H218549   0.283   1.462   1.971
 6198TIP3   OH218550   6.923   4.153   4.942
 6198TIP3    H118551   7.018   4.167   4.934
 6198TIP3    H218552   6.891   4.231   4.987
 6199TIP3   OH218553   4.802   4.691   5.732
 6199TIP3    H118554   4.792   4.596   5.739
 6199TIP3    H218555   4.839   4.717   5.816
 6200TIP3   OH218556   1.115   7.433   6.149
 6200TIP3    H118557   1.123   7.509   6.207
 6200TIP3    H218558   1.080   7.364   6.205
 6201TIP3   OH218559   5.843   1.138   6.457
 6201TIP3    H118560   5.846   1.121   6.551
 6201TIP3    H218561   5.783   1.072   6.422
 6202TIP3   OH218562   4.154   0.631   0.946
 6202TIP3    H118563   4.186   0.710   0.989
 6202TIP3    H218564   4.161   0.649   0.852
 6203TIP3   OH218565   4.067   2.255   2.640
 6203TIP3    H118566   4.019   2.288   2.716
 6203TIP3    H218567   4.001   2.207   2.589
 6204TIP3   OH218568   1.425   0.227   1.141
 6204TIP3    H118569   1.356   0.289   1.121
 6204TIP3    H218570   1.499   0.253   1.086
 6205TIP3   OH218571   6.480   3.499   3.142
 6205TIP3    H118572   6.442   3.411   3.133
 6205TIP3    H218573   6.568   3.490   3.105
 6206TIP3   OH218574   2.343   3.628   2.553
 6206TIP3    H118575   2.364   3.538   2.581
 6206TIP3    H218576   2.274   3.617   2.487
 6207TIP3   OH218577   6.283   4.153   5.233
 6207TIP3    H118578   6.377   4.156   5.247
 6207TIP3    H218579   6.247   4.119   5.315
 6208TIP3   OH218580   2.367   2.747   3.380
 6208TIP3    H118581   2.312   2.694   3.438
 6208TIP3    H218582   2.456   2.730   3.409
 6209TIP3   OH218583   6.441   3.821   1.215
 6209TIP3    H118584   6.396   3.787   1.292
 6209TIP3    H218585   6.381   3.885   1.178
 6210TIP3   OH218586   7.033   3.846   4.816
 6210TIP3    H118587   7.045   3.865   4.723
 6210TIP3    H218588   6.952   3.795   4.821
 6211TIP3   OH218589   8.175   5.648   2.745
 6211TIP3    H118590   8.231   5.725   2.756
 6211TIP3    H218591   8.208   5.605   2.666
 6212TIP3   OH218592   7.573   3.464   2.798
 6212TIP3    H118593   7.598   3.406   2.870
 6212TIP3    H218594   7.491   3.504   2.827
 6213TIP3   OH218595   1.876   3.211   1.535
 6213TIP3    H118596   1.802   3.263   1.501
 6213TIP3    H218597   1.835   3.147   1.593
 6214TIP3   OH218598   6.272   4.683   2.446
 6214TIP3    H118599   6.311   4.669   2.359
 6214TIP3    H218600   6.197   4.624   2.448
 6215TIP3   OH218601   3.607   6.380   5.864
 6215TIP3    H118602   3.636   6.439   5.794
 6215TIP3    H218603   3.649   6.297   5.844
 6216TIP3   OH218604   2.970   0.388   3.735
 6216TIP3    H118605   2.892   0.349   3.695
 6216TIP3    H218606   2.935   0.455   3.794
 6217TIP3   OH218607   6.504   6.157   5.312
 6217TIP3    H118608   6.433   6.104   5.349
 6217TIP3    H218609   6.463   6.204   5.240
 6218TIP3   OH218610   6.429   6.526   5.962
 6218TIP3    H118611   6.464   6.529   6.051
 6218TIP3    H218612   6.495   6.571   5.909
 6219TIP3   OH218613   0.918   5.243   6.425
 6219TIP3    H118614   0.969   5.285   6.495
 6219TIP3    H218615   0.979   5.238   6.352
 6220TIP3   OH218616   8.184   1.188   0.960
 6220TIP3    H118617   8.244   1.151   1.026
 6220TIP3    H218618   8.222   1.162   0.877
 6221TIP3   OH218619   4.903   3.835   1.741
 6221TIP3    H118620   4.820   3.815   1.784
 6221TIP3    H218621   4.932   3.917   1.781
 6222TIP3   OH218622   4.405   1.170   1.873
 6222TIP3    H118623   4.463   1.113   1.822
 6222TIP3    H218624   4.451   1.254   1.877
 6223TIP3   OH218625   0.134   2.168   1.466
 6223TIP3    H118626   0.107   2.202   1.381
 6223TIP3    H218627   0.211   2.219   1.489
 6224TIP3   OH218628   3.764   3.911   4.195
 6224TIP3    H118629   3.791   3.943   4.282
 6224TIP3    H218630   3.692   3.850   4.214
 6225TIP3   OH218631   3.317   2.616   2.846
 6225TIP3    H118632   3.269   2.579   2.772
 6225TIP3    H218633   3.349   2.540   2.894
 6226TIP3   OH218634   0.646   0.129   2.960
 6226TIP3    H118635   0.576   0.064   2.969
 6226TIP3    H218636   0.727   0.079   2.973
 6227TIP3   OH218637   7.076   4.380   1.033
 6227TIP3    H118638   7.013   4.347   0.969
 6227TIP3    H218639   7.039   4.357   1.118
 6228TIP3   OH218640   3.900   6.741   6.629
 6228TIP3    H118641   3.965   6.808   6.611
 6228TIP3    H218642   3.816   6.785   6.615
 6229TIP3   OH218643   7.256   4.910   0.803
 6229TIP3    H118644   7.188   4.855   0.765
 6229TIP3    H218645   7.281   4.865   0.884
 6230TIP3   OH218646   6.422   5.457   3.372
 6230TIP3    H118647   6.471   5.471   3.453
 6230TIP3    H218648   6.487   5.427   3.309
 6231TIP3   OH218649   2.640   6.478   5.793
 6231TIP3    H118650   2.685   6.490   5.877
 6231TIP3    H218651   2.575   6.410   5.810
 6232TIP3   OH218652   5.968   0.438   0.059
 6232TIP3    H118653   5.950   0.345   0.075
 6232TIP3    H218654   5.998   0.472   0.143
 6233TIP3   OH218655   4.683   0.013   6.332
 6233TIP3    H118656   4.641   0.090   6.370
 6233TIP3    H218657   4.645   0.005   6.244
 6234TIP3   OH218658   7.252   3.054   3.908
 6234TIP3    H118659   7.199   3.113   3.962
 6234TIP3    H218660   7.243   2.968   3.950
 6235TIP3   OH218661   6.965   6.868   0.676
 6235TIP3    H118662   6.911   6.943   0.649
 6235TIP3    H218663   6.909   6.792   0.661
 6236TIP3   OH218664   3.093   3.744   0.423
 6236TIP3    H118665   3.020   3.733   0.483
 6236TIP3    H218666   3.056   3.726   0.336
 6237TIP3   OH218667   6.872   2.854   6.037
 6237TIP3    H118668   6.950   2.873   5.984
 6237TIP3    H218669   6.900   2.871   6.127
 6238TIP3   OH218670   3.985   5.431   3.301
 6238TIP3    H118671   3.924   5.499   3.328
 6238TIP3    H218672   4.013   5.390   3.383
 6239TIP3   OH218673   5.007   7.458   5.569
 6239TIP3    H118674   4.936   7.398   5.548
 6239TIP3    H218675   4.995   7.532   5.510
 6240TIP3   OH218676   6.173   6.071   4.931
 6240TIP3    H118677   6.195   6.042   4.843
 6240TIP3    H218678   6.098   6.129   4.919
 6241TIP3   OH218679   4.670   1.610   6.008
 6241TIP3    H118680   4.610   1.573   6.072
 6241TIP3    H218681   4.653   1.560   5.927
 6242TIP3   OH218682   6.247   2.131   6.380
 6242TIP3    H118683   6.312   2.153   6.447
 6242TIP3    H218684   6.261   2.037   6.364
 6243TIP3   OH218685   7.033   0.202   0.913
 6243TIP3    H118686   6.952   0.161   0.882
 6243TIP3    H218687   7.102   0.157   0.865
 6244TIP3   OH218688   3.943   2.863   4.513
 6244TIP3    H118689   3.929   2.911   4.594
 6244TIP3    H218690   3.928   2.771   4.536
 6245TIP3   OH218691   6.202   6.550   5.606
 6245TIP3    H118692   6.195   6.620   5.671
 6245TIP3    H218693   6.183   6.592   5.522
 6246TIP3   OH218694   3.189   0.912   3.529
 6246TIP3    H118695   3.249   0.898   3.602
 6246TIP3    H218696   3.232   0.870   3.454
 6247TIP3   OH218697   5.942   0.553   4.063
 6247TIP3    H118698   5.984   0.495   4.127
 6247TIP3    H218699   6.009   0.618   4.042
 6248TIP3   OH218700   4.105   3.797   0.659
 6248TIP3    H118701   4.079   3.872   0.606
 6248TIP3    H218702   4.201   3.795   0.653
 6249TIP3   OH218703   3.527   5.256   2.910
 6249TIP3    H118704   3.458   5.290   2.967
 6249TIP3    H218705   3.603   5.248   2.968
 6250TIP3   OH218706   0.424   1.673   2.784
 6250TIP3    H118707   0.409   1.655   2.691
 6250TIP3    H218708   0.515   1.703   2.788
 6251TIP3   OH218709   1.365   1.705   0.293
 6251TIP3    H118710   1.362   1.611   0.311
 6251TIP3    H218711   1.414   1.712   0.211
 6252TIP3   OH218712   7.618   7.011   2.523
 6252TIP3    H118713   7.688   7.010   2.589
 6252TIP3    H218714   7.645   6.945   2.459
 6253TIP3   OH218715   1.334   4.597   2.916
 6253TIP3    H118716   1.393   4.524   2.896
 6253TIP3    H218717   1.274   4.563   2.981
 6254TIP3   OH218718   1.022   4.926   5.829
 6254TIP3    H118719   1.116   4.919   5.840
 6254TIP3    H218720   0.990   4.837   5.839
 6255TIP3   OH218721   0.087   4.668   0.697
 6255TIP3    H118722   0.009   4.708   0.734
 6255TIP3    H218723   0.155   4.735   0.706
 6256TIP3   OH218724   3.048   1.733   1.848
 6256TIP3    H118725   3.138   1.701   1.852
 6256TIP3    H218726   2.996   1.662   1.885
 6257TIP3   OH218727   3.328   0.189   5.521
 6257TIP3    H118728   3.366   0.251   5.584
 6257TIP3    H218729   3.282   0.244   5.458
 6258TIP3   OH218730   1.501   5.502   6.126
 6258TIP3    H118731   1.537   5.419   6.157
 6258TIP3    H218732   1.407   5.486   6.116
 6259TIP3   OH218733   5.395   3.687   6.677
 6259TIP3    H118734   5.355   3.708   6.762
 6259TIP3    H218735   5.329   3.633   6.633
 6260TIP3   OH218736   3.970   6.745   2.709
 6260TIP3    H118737   3.980   6.730   2.615
 6260TIP3    H218738   4.000   6.835   2.722
 6261TIP3   OH218739   3.536   3.479   4.386
 6261TIP3    H118740   3.445   3.498   4.364
 6261TIP3    H218741   3.531   3.424   4.465
 6262TIP3   OH218742   7.092   6.537   4.624
 6262TIP3    H118743   7.167   6.591   4.599
 6262TIP3    H218744   7.087   6.546   4.720
 6263TIP3   OH218745   6.237   0.320   6.441
 6263TIP3    H118746   6.236   0.361   6.528
 6263TIP3    H218747   6.327   0.289   6.431
 6264TIP3   OH218748   6.743   7.650   5.990
 6264TIP3    H118749   6.660   7.694   6.011
 6264TIP3    H218750   6.725   7.604   5.908
 6265TIP3   OH218751   7.675   3.074   2.378
 6265TIP3    H118752   7.742   3.061   2.445
 6265TIP3    H218753   7.683   2.998   2.321
 6266TIP3   OH218754   5.155   4.025   4.094
 6266TIP3    H118755   5.164   4.037   4.000
 6266TIP3    H218756   5.063   4.001   4.107
 6267TIP3   OH218757   7.988   1.312   2.496
 6267TIP3    H118758   7.917   1.254   2.469
 6267TIP3    H218759   8.008   1.364   2.419
 6268TIP3   OH218760   7.607   2.983   0.489
 6268TIP3    H118761   7.655   3.018   0.414
 6268TIP3    H218762   7.674   2.944   0.545
 6269TIP3   OH218763   6.417   2.604   6.547
 6269TIP3    H118764   6.358   2.551   6.600
 6269TIP3    H218765   6.467   2.656   6.611
 6270TIP3   OH218766   6.340   4.751   6.311
 6270TIP3    H118767   6.262   4.695   6.312
 6270TIP3    H218768   6.315   4.826   6.258
 6271TIP3   OH218769   7.344   4.891   0.405
 6271TIP3    H118770   7.428   4.889   0.451
 6271TIP3    H218771   7.368   4.900   0.313
 6272TIP3   OH218772   6.525   0.797   5.069
 6272TIP3    H118773   6.499   0.739   4.998
 6272TIP3    H218774   6.456   0.789   5.134
 6273TIP3   OH218775   4.229   7.340   6.141
 6273TIP3    H118776   4.198   7.376   6.058
 6273TIP3    H218777   4.324   7.347   6.135
 6274TIP3   OH218778   1.148   0.658   5.841
 6274TIP3    H118779   1.153   0.602   5.919
 6274TIP3    H218780   1.059   0.647   5.809
 6275TIP3   OH218781   8.130   5.959   3.811
 6275TIP3    H118782   8.087   5.934   3.729
 6275TIP3    H218783   8.129   5.880   3.865
 6276TIP3   OH218784   6.210   6.511   6.368
 6276TIP3    H118785   6.172   6.599   6.378
 6276TIP3    H218786   6.158   6.470   6.300
 6277TIP3   OH218787   4.145   2.895   2.773
 6277TIP3    H118788   4.115   2.817   2.725
 6277TIP3    H218789   4.087   2.901   2.849
 6278TIP3   OH218790   3.079   3.099   3.855
 6278TIP3    H118791   3.012   3.158   3.888
 6278TIP3    H218792   3.041   3.061   3.776
 6279TIP3   OH218793   6.040   6.016   0.575
 6279TIP3    H118794   6.024   6.085   0.512
 6279TIP3    H218795   5.953   5.980   0.593
 6280TIP3   OH218796   4.669   4.526   1.817
 6280TIP3    H118797   4.601   4.537   1.883
 6280TIP3    H218798   4.747   4.565   1.855
 6281TIP3   OH218799   1.551   2.303   5.606
 6281TIP3    H118800   1.575   2.395   5.617
 6281TIP3    H218801   1.457   2.305   5.588
 6282TIP3   OH218802   7.122   4.081   5.915
 6282TIP3    H118803   7.054   4.099   5.981
 6282TIP3    H218804   7.198   4.052   5.967
 6283TIP3   OH218805   7.939   7.264   2.268
 6283TIP3    H118806   7.940   7.170   2.251
 6283TIP3    H218807   7.864   7.277   2.325
 6284TIP3   OH218808   0.512   1.207   4.959
 6284TIP3    H118809   0.466   1.268   5.017
 6284TIP3    H218810   0.597   1.248   4.943
 6285TIP3   OH218811   3.189   3.901   3.092
 6285TIP3    H118812   3.153   3.989   3.100
 6285TIP3    H218813   3.116   3.843   3.115
 6286TIP3   OH218814   6.791   1.978   2.624
 6286TIP3    H118815   6.745   1.922   2.560
 6286TIP3    H218816   6.768   1.940   2.709
 6287TIP3   OH218817   4.907   2.288   0.275
 6287TIP3    H118818   5.002   2.272   0.275
 6287TIP3    H218819   4.895   2.355   0.343
 6288TIP3   OH218820   6.419   7.012   1.645
 6288TIP3    H118821   6.353   7.011   1.714
 6288TIP3    H218822   6.493   7.060   1.683
 6289TIP3   OH218823   2.854   7.436   1.238
 6289TIP3    H118824   2.867   7.343   1.220
 6289TIP3    H218825   2.761   7.451   1.223
 6290TIP3   OH218826   8.144   2.573   3.447
 6290TIP3    H118827   8.222   2.518   3.437
 6290TIP3    H218828   8.119   2.597   3.357
 6291TIP3   OH218829   5.079   7.370   5.262
 6291TIP3    H118830   5.069   7.465   5.253
 6291TIP3    H218831   5.162   7.359   5.308
 6292TIP3   OH218832   0.431   6.295   5.079
 6292TIP3    H118833   0.366   6.365   5.071
 6292TIP3    H218834   0.410   6.235   5.007
 6293TIP3   OH218835   1.829   5.681   1.396
 6293TIP3    H118836   1.847   5.588   1.401
 6293TIP3    H218837   1.738   5.690   1.424
 6294TIP3   OH218838   3.820   2.849   2.041
 6294TIP3    H118839   3.898   2.897   2.068
 6294TIP3    H218840   3.848   2.799   1.964
 6295TIP3   OH218841   8.277   4.835   3.118
 6295TIP3    H118842   8.224   4.898   3.166
 6295TIP3    H218843   8.236   4.750   3.137
 6296TIP3   OH218844   4.157   7.717   4.987
 6296TIP3    H118845   4.234   7.699   5.040
 6296TIP3    H218846   4.187   7.706   4.897
 6297TIP3   OH218847   0.749   1.325   4.967
 6297TIP3    H118848   0.801   1.316   5.046
 6297TIP3    H218849   0.765   1.414   4.937
 6298TIP3   OH218850   4.199   5.157   1.626
 6298TIP3    H118851   4.203   5.159   1.722
 6298TIP3    H218852   4.289   5.140   1.598
 6299TIP3   OH218853   6.052   2.970   2.315
 6299TIP3    H118854   6.028   2.953   2.224
 6299TIP3    H218855   6.113   3.044   2.311
 6300TIP3   OH218856   6.682   0.985   4.269
 6300TIP3    H118857   6.631   1.063   4.248
 6300TIP3    H218858   6.769   1.004   4.234
 6301TIP3   OH218859   2.168   0.878   0.253
 6301TIP3    H118860   2.117   0.841   0.181
 6301TIP3    H218861   2.145   0.970   0.254
 6302TIP3   OH218862   5.568   3.893   4.039
 6302TIP3    H118863   5.513   3.956   4.087
 6302TIP3    H218864   5.654   3.900   4.080
 6303TIP3   OH218865   0.606   3.486   4.414
 6303TIP3    H118866   0.627   3.577   4.390
 6303TIP3    H218867   0.561   3.493   4.498
 6304TIP3   OH218868   1.844   3.271   0.887
 6304TIP3    H118869   1.932   3.259   0.922
 6304TIP3    H218870   1.806   3.183   0.884
 6305TIP3   OH218871   4.800   0.596   0.844
 6305TIP3    H118872   4.843   0.519   0.807
 6305TIP3    H218873   4.764   0.565   0.928
 6306TIP3   OH218874   7.134   2.552   4.483
 6306TIP3    H118875   7.100   2.629   4.437
 6306TIP3    H218876   7.189   2.508   4.418
 6307TIP3   OH218877   5.969   5.906   4.171
 6307TIP3    H118878   6.042   5.928   4.228
 6307TIP3    H218879   5.942   5.990   4.133
 6308TIP3   OH218880   7.021   7.246   6.157
 6308TIP3    H118881   7.088   7.184   6.129
 6308TIP3    H218882   7.000   7.220   6.247
 6309TIP3   OH218883   1.782   1.465   5.354
 6309TIP3    H118884   1.720   1.403   5.392
 6309TIP3    H218885   1.844   1.411   5.305
 6310TIP3   OH218886   7.920   6.748   0.539
 6310TIP3    H118887   7.839   6.754   0.591
 6310TIP3    H218888   7.902   6.800   0.461
 6311TIP3   OH218889   3.347   4.538   3.628
 6311TIP3    H118890   3.355   4.593   3.550
 6311TIP3    H218891   3.257   4.552   3.658
 6312TIP3   OH218892   4.701   4.060   6.581
 6312TIP3    H118893   4.792   4.081   6.602
 6312TIP3    H218894   4.650   4.095   6.655
 6313TIP3   OH218895   6.037   7.777   5.372
 6313TIP3    H118896   6.063   7.838   5.303
 6313TIP3    H218897   5.960   7.817   5.412
 6314TIP3   OH218898   5.293   4.856   3.250
 6314TIP3    H118899   5.333   4.872   3.165
 6314TIP3    H218900   5.281   4.943   3.288
 6315TIP3   OH218901   2.162   5.012   3.969
 6315TIP3    H118902   2.241   5.041   4.015
 6315TIP3    H218903   2.188   5.011   3.877
 6316TIP3   OH218904   7.413   3.867   5.817
 6316TIP3    H118905   7.365   3.884   5.898
 6316TIP3    H218906   7.454   3.951   5.796
 6317TIP3   OH218907   6.999   4.718   4.627
 6317TIP3    H118908   7.033   4.802   4.655
 6317TIP3    H218909   6.955   4.682   4.705
 6318TIP3   OH218910   5.728   7.220   1.084
 6318TIP3    H118911   5.716   7.236   0.991
 6318TIP3    H218912   5.696   7.131   1.097
 6319TIP3   OH218913   2.475   2.820   5.940
 6319TIP3    H118914   2.444   2.909   5.923
 6319TIP3    H218915   2.401   2.764   5.915
 6320TIP3   OH218916   7.625   3.456   3.325
 6320TIP3    H118917   7.682   3.385   3.356
 6320TIP3    H218918   7.669   3.489   3.246
 6321TIP3   OH218919   3.768   1.054   3.091
 6321TIP3    H118920   3.742   1.066   3.000
 6321TIP3    H218921   3.756   1.140   3.131
 6322TIP3   OH218922   7.807   6.198  -0.015
 6322TIP3    H118923   7.842   6.143   0.055
 6322TIP3    H218924   7.712   6.200   0.001
 6323TIP3   OH218925   5.462   1.611   1.258
 6323TIP3    H118926   5.438   1.563   1.179
 6323TIP3    H218927   5.394   1.588   1.322
 6324TIP3   OH218928   3.276   3.107   5.222
 6324TIP3    H118929   3.271   3.184   5.166
 6324TIP3    H218930   3.304   3.037   5.163
 6325TIP3   OH218931   0.772   2.179   3.782
 6325TIP3    H118932   0.762   2.205   3.874
 6325TIP3    H218933   0.718   2.101   3.774
 6326TIP3   OH218934   0.144   2.706   3.318
 6326TIP3    H118935   0.140   2.659   3.401
 6326TIP3    H218936   0.058   2.747   3.309
 6327TIP3   OH218937   2.949   2.010   1.042
 6327TIP3    H118938   2.993   1.983   0.962
 6327TIP3    H218939   2.902   1.932   1.072
 6328TIP3   OH218940   0.700   4.553   0.743
 6328TIP3    H118941   0.762   4.540   0.815
 6328TIP3    H218942   0.641   4.622   0.775
 6329TIP3   OH218943   2.882   7.799   2.434
 6329TIP3    H118944   2.973   7.771   2.432
 6329TIP3    H218945   2.854   7.785   2.525
 6330TIP3   OH218946   0.692   0.913   5.254
 6330TIP3    H118947   0.666   0.982   5.315
 6330TIP3    H218948   0.611   0.888   5.210
 6331TIP3   OH218949   1.419   0.876   5.362
 6331TIP3    H118950   1.366   0.931   5.304
 6331TIP3    H218951   1.386   0.787   5.347
 6332TIP3   OH218952   2.178   3.432   0.755
 6332TIP3    H118953   2.197   3.483   0.834
 6332TIP3    H218954   2.251   3.370   0.749
 6333TIP3   OH218955   5.737   6.028   3.946
 6333TIP3    H118956   5.649   6.050   3.975
 6333TIP3    H218957   5.791   6.100   3.976
 6334TIP3   OH218958   7.751   0.835   3.168
 6334TIP3    H118959   7.833   0.836   3.120
 6334TIP3    H218960   7.733   0.926   3.188
 6335TIP3   OH218961   2.177   5.501   6.226
 6335TIP3    H118962   2.168   5.406   6.219
 6335TIP3    H218963   2.268   5.514   6.250
 6336TIP3   OH218964   0.071   0.089   4.987
 6336TIP3    H118965   0.028   0.053   4.909
 6336TIP3    H218966   0.157   0.047   4.990
 6337TIP3   OH218967   3.998   6.465   1.615
 6337TIP3    H118968   3.964   6.434   1.699
 6337TIP3    H218969   4.023   6.556   1.632
 6338TIP3   OH218970   3.184   0.771   1.218
 6338TIP3    H118971   3.094   0.749   1.242
 6338TIP3    H218972   3.178   0.860   1.183
 6339TIP3   OH218973   0.665   3.497   3.897
 6339TIP3    H118974   0.666   3.563   3.828
 6339TIP3    H218975   0.633   3.543   3.975
 6340TIP3   OH218976   1.295   1.716   0.716
 6340TIP3    H118977   1.361   1.724   0.647
 6340TIP3    H218978   1.217   1.682   0.671
 6341TIP3   OH218979   1.089   2.253   0.956
 6341TIP3    H118980   1.019   2.195   0.925
 6341TIP3    H218981   1.156   2.195   0.991
 6342TIP3   OH218982   1.830   4.824   2.285
 6342TIP3    H118983   1.745   4.867   2.290
 6342TIP3    H218984   1.877   4.854   2.364
 6343TIP3   OH218985   3.984   1.715   1.620
 6343TIP3    H118986   3.942   1.660   1.685
 6343TIP3    H218987   4.011   1.654   1.551
 6344TIP3   OH218988   4.429   3.300   5.738
 6344TIP3    H118989   4.497   3.311   5.672
 6344TIP3    H218990   4.431   3.382   5.788
 6345TIP3   OH218991   5.661   6.062   5.323
 6345TIP3    H118992   5.700   6.067   5.411
 6345TIP3    H218993   5.687   5.976   5.291
 6346TIP3   OH218994   5.002   6.174   3.174
 6346TIP3    H118995   4.925   6.125   3.147
 6346TIP3    H218996   4.970   6.234   3.241
 6347TIP3   OH218997   1.192   0.371   6.524
 6347TIP3    H118998   1.180   0.458   6.562
 6347TIP3    H218999   1.116   0.360   6.466
 6348TIP3   OH219000   1.809   0.530   2.189
 6348TIP3    H119001   1.838   0.439   2.186
 6348TIP3    H219002   1.889   0.581   2.178
 6349TIP3   OH219003   0.456   2.410   2.343
 6349TIP3    H119004   0.383   2.453   2.299
 6349TIP3    H219005   0.415   2.340   2.394
 6350TIP3   OH219006   4.984   0.835   1.632
 6350TIP3    H119007   4.900   0.789   1.638
 6350TIP3    H219008   5.010   0.825   1.540
 6351TIP3   OH219009   2.864   6.643   4.519
 6351TIP3    H119010   2.775   6.677   4.525
 6351TIP3    H219011   2.920   6.719   4.534
 6352TIP3   OH219012   1.912   3.330   3.176
 6352TIP3    H119013   1.931   3.249   3.225
 6352TIP3    H219014   1.851   3.304   3.108
 6353TIP3   OH219015   7.109   2.111   5.378
 6353TIP3    H119016   7.192   2.129   5.422
 6353TIP3    H219017   7.043   2.154   5.431
 6354TIP3   OH219018   6.404   6.260   5.759
 6354TIP3    H119019   6.424   6.337   5.811
 6354TIP3    H219020   6.422   6.186   5.817
 6355TIP3   OH219021   3.801   7.645   1.576
 6355TIP3    H119022   3.707   7.652   1.591
 6355TIP3    H219023   3.840   7.646   1.663
 6356TIP3   OH219024   3.232   2.825   3.802
 6356TIP3    H119025   3.187   2.910   3.799
 6356TIP3    H219026   3.175   2.766   3.752
 6357TIP3   OH219027   1.812   4.130   0.623
 6357TIP3    H119028   1.894   4.085   0.601
 6357TIP3    H219029   1.744   4.077   0.582
 6358TIP3   OH219030   1.716   0.336   5.424
 6358TIP3    H119031   1.707   0.369   5.334
 6358TIP3    H219032   1.774   0.260   5.416
 6359TIP3   OH219033   5.663   7.023   6.302
 6359TIP3    H119034   5.608   6.958   6.259
 6359TIP3    H219035   5.675   6.988   6.391
 6360TIP3   OH219036   5.446   7.570   6.546
 6360TIP3    H119037   5.384   7.555   6.475
 6360TIP3    H219038   5.405   7.637   6.601
 6361TIP3   OH219039   1.021   7.556   3.934
 6361TIP3    H119040   1.115   7.573   3.923
 6361TIP3    H219041   0.979   7.610   3.867
 6362TIP3   OH219042   1.361   4.427   4.730
 6362TIP3    H119043   1.404   4.370   4.793
 6362TIP3    H219044   1.430   4.450   4.668
 6363TIP3   OH219045   3.296   4.436   5.291
 6363TIP3    H119046   3.277   4.400   5.204
 6363TIP3    H219047   3.212   4.472   5.322
 6364TIP3   OH219048   3.485   4.323   6.574
 6364TIP3    H119049   3.519   4.235   6.591
 6364TIP3    H219050   3.403   4.328   6.624
 6365TIP3   OH219051   8.085   1.521   1.894
 6365TIP3    H119052   8.029   1.591   1.927
 6365TIP3    H219053   8.095   1.461   1.967
 6366TIP3   OH219054   7.381   2.244   5.002
 6366TIP3    H119055   7.337   2.329   5.002
 6366TIP3    H219056   7.313   2.182   5.029
 6367TIP3   OH219057   5.360   2.914   2.536
 6367TIP3    H119058   5.336   2.849   2.471
 6367TIP3    H219059   5.281   2.966   2.548
 6368TIP3   OH219060   5.307   5.348   1.790
 6368TIP3    H119061   5.310   5.259   1.826
 6368TIP3    H219062   5.214   5.365   1.775
 6369TIP3   OH219063   5.367   6.528   2.063
 6369TIP3    H119064   5.429   6.458   2.042
 6369TIP3    H219065   5.400   6.566   2.145
 6370TIP3   OH219066   1.964   6.779   6.492
 6370TIP3    H119067   1.902   6.732   6.548
 6370TIP3    H219068   2.031   6.811   6.551
 6371TIP3   OH219069   1.839   5.254   6.174
 6371TIP3    H119070   1.858   5.242   6.081
 6371TIP3    H219071   1.792   5.175   6.199
 6372TIP3   OH219072   3.260   1.865   3.014
 6372TIP3    H119073   3.278   1.936   3.076
 6372TIP3    H219074   3.200   1.807   3.061
 6373TIP3   OH219075   7.407   3.737   4.270
 6373TIP3    H119076   7.380   3.825   4.247
 6373TIP3    H219077   7.445   3.702   4.190
 6374TIP3   OH219078   3.406  -0.049   4.655
 6374TIP3    H119079   3.464  -0.034   4.580
 6374TIP3    H219080   3.374   0.038   4.677
 6375TIP3   OH219081   3.738   3.936   3.049
 6375TIP3    H119082   3.648   3.934   3.081
 6375TIP3    H219083   3.779   3.859   3.088
 6376TIP3   OH219084   2.816   2.382   0.329
 6376TIP3    H119085   2.816   2.394   0.234
 6376TIP3    H219086   2.751   2.313   0.344
 6377TIP3   OH219087   3.646   6.703   5.241
 6377TIP3    H119088   3.658   6.731   5.150
 6377TIP3    H219089   3.566   6.650   5.239
 6378TIP3   OH219090   0.913   4.347   0.292
 6378TIP3    H119091   0.839   4.295   0.261
 6378TIP3    H219092   0.872   4.419   0.340
 6379TIP3   OH219093   4.670   0.858   2.610
 6379TIP3    H119094   4.725   0.853   2.688
 6379TIP3    H219095   4.729   0.884   2.540
 6380TIP3   OH219096   5.697   1.328   4.270
 6380TIP3    H119097   5.769   1.341   4.332
 6380TIP3    H219098   5.684   1.234   4.267
 6381TIP3   OH219099   0.140   5.150   1.950
 6381TIP3    H119100   0.065   5.113   1.903
 6381TIP3    H219101   0.195   5.187   1.881
 6382TIP3   OH219102   8.372   3.174   3.929
 6382TIP3    H119103   8.349   3.088   3.893
 6382TIP3    H219104   8.324   3.180   4.012
 6383TIP3   OH219105   2.523   2.947   3.246
 6383TIP3    H119106   2.514   2.852   3.257
 6383TIP3    H219107   2.447   2.984   3.290
 6384TIP3   OH219108   7.034   5.163   4.991
 6384TIP3    H119109   7.111   5.124   4.950
 6384TIP3    H219110   6.961   5.111   4.959
 6385TIP3   OH219111   0.273   3.888   0.191
 6385TIP3    H119112   0.311   3.801   0.181
 6385TIP3    H219113   0.185   3.872   0.224
 6386TIP3   OH219114   7.506   5.780   2.179
 6386TIP3    H119115   7.571   5.842   2.146
 6386TIP3    H219116   7.552   5.731   2.247
 6387TIP3   OH219117   3.045   1.895   5.066
 6387TIP3    H119118   3.077   1.980   5.038
 6387TIP3    H219119   3.028   1.905   5.160
 6388TIP3   OH219120   5.137   3.416   4.591
 6388TIP3    H119121   5.188   3.335   4.589
 6388TIP3    H219122   5.194   3.481   4.549
 6389TIP3   OH219123   6.072   7.317   1.491
 6389TIP3    H119124   6.043   7.241   1.542
 6389TIP3    H219125   6.019   7.313   1.411
 6390TIP3   OH219126   7.107   4.688   5.309
 6390TIP3    H119127   7.083   4.768   5.356
 6390TIP3    H219128   7.141   4.630   5.377
 6391TIP3   OH219129   1.753   1.386   2.144
 6391TIP3    H119130   1.794   1.316   2.093
 6391TIP3    H219131   1.818   1.456   2.145
 6392TIP3   OH219132   4.762   6.361   0.387
 6392TIP3    H119133   4.704   6.428   0.350
 6392TIP3    H219134   4.850   6.392   0.365
 6393TIP3   OH219135   3.991   6.419   2.785
 6393TIP3    H119136   3.897   6.428   2.772
 6393TIP3    H219137   4.021   6.508   2.805
 6394TIP3   OH219138   5.048   1.392   3.585
 6394TIP3    H119139   5.085   1.437   3.509
 6394TIP3    H219140   5.002   1.460   3.633
 6395TIP3   OH219141   8.164   0.801   6.628
 6395TIP3    H119142   8.169   0.852   6.547
 6395TIP3    H219143   8.119   0.720   6.603
 6396TIP3   OH219144   5.693   2.087   3.767
 6396TIP3    H119145   5.666   2.147   3.837
 6396TIP3    H219146   5.766   2.130   3.724
 6397TIP3   OH219147   6.358   2.545   2.307
 6397TIP3    H119148   6.280   2.571   2.357
 6397TIP3    H219149   6.378   2.457   2.339
 6398TIP3   OH219150   4.896   3.134   5.272
 6398TIP3    H119151   4.870   3.160   5.184
 6398TIP3    H219152   4.928   3.044   5.262
 6399TIP3   OH219153   3.877   6.418   0.264
 6399TIP3    H119154   3.933   6.342   0.282
 6399TIP3    H219155   3.790   6.391   0.293
 6400TIP3   OH219156   4.349   4.944   0.458
 6400TIP3    H119157   4.347   5.027   0.410
 6400TIP3    H219158   4.394   4.965   0.540
 6401TIP3   OH219159   6.197   5.739   0.834
 6401TIP3    H119160   6.126   5.787   0.877
 6401TIP3    H219161   6.267   5.803   0.825
 6402TIP3   OH219162   5.710   3.774   4.646
 6402TIP3    H119163   5.687   3.681   4.645
 6402TIP3    H219164   5.785   3.781   4.587
 6403TIP3   OH219165   5.756   0.394   1.190
 6403TIP3    H119166   5.665   0.407   1.162
 6403TIP3    H219167   5.802   0.472   1.159
 6404TIP3   OH219168   7.327   5.592   5.988
 6404TIP3    H119169   7.292   5.681   5.996
 6404TIP3    H219170   7.344   5.581   5.895
 6405TIP3   OH219171   4.071   7.050   5.680
 6405TIP3    H119172   4.049   6.987   5.612
 6405TIP3    H219173   3.991   7.101   5.693
 6406TIP3   OH219174   1.774   1.208   5.524
 6406TIP3    H119175   1.711   1.150   5.566
 6406TIP3    H219176   1.721   1.280   5.489
 6407TIP3   OH219177   8.123   7.666   5.458
 6407TIP3    H119178   8.128   7.577   5.493
 6407TIP3    H219179   8.130   7.723   5.534
 6408TIP3   OH219180   2.195   7.598   5.516
 6408TIP3    H119181   2.155   7.571   5.433
 6408TIP3    H219182   2.122   7.603   5.577
 6409TIP3   OH219183   6.835   2.257   4.149
 6409TIP3    H119184   6.796   2.240   4.063
 6409TIP3    H219185   6.911   2.198   4.153
 6410TIP3   OH219186   0.444   4.251   1.401
 6410TIP3    H119187   0.443   4.281   1.310
 6410TIP3    H219188   0.407   4.323   1.451
 6411TIP3   OH219189   3.046   7.086   6.709
 6411TIP3    H119190   2.996   7.125   6.637
 6411TIP3    H219191   3.060   7.158   6.770
 6412TIP3   OH219192   6.154   2.690   1.402
 6412TIP3    H119193   6.063   2.666   1.420
 6412TIP3    H219194   6.188   2.719   1.486
 6413TIP3   OH219195   5.196   1.430   5.955
 6413TIP3    H119196   5.267   1.368   5.967
 6413TIP3    H219197   5.192   1.445   5.861
 6414TIP3   OH219198   3.405   2.367   6.492
 6414TIP3    H119199   3.487   2.374   6.540
 6414TIP3    H219200   3.352   2.306   6.543
 6415TIP3   OH219201   7.262   6.043   4.581
 6415TIP3    H119202   7.180   6.013   4.619
 6415TIP3    H219203   7.294   5.970   4.529
 6416TIP3   OH219204   1.763   6.877   6.317
 6416TIP3    H119205   1.776   6.966   6.285
 6416TIP3    H219206   1.821   6.870   6.393
 6417TIP3   OH219207   2.713   2.911   1.721
 6417TIP3    H119208   2.666   2.873   1.646
 6417TIP3    H219209   2.649   2.969   1.763
 6418TIP3   OH219210   6.546   4.496   1.378
 6418TIP3    H119211   6.562   4.575   1.326
 6418TIP3    H219212   6.456   4.505   1.408
 6419TIP3   OH219213   2.656   6.437   1.851
 6419TIP3    H119214   2.573   6.400   1.879
 6419TIP3    H219215   2.633   6.502   1.784
 6420TIP3   OH219216   5.716   6.714   5.197
 6420TIP3    H119217   5.709   6.654   5.272
 6420TIP3    H219218   5.789   6.679   5.145
 6421TIP3   OH219219   3.292   0.821   5.793
 6421TIP3    H119220   3.258   0.863   5.714
 6421TIP3    H219221   3.217   0.776   5.831
 6422TIP3   OH219222   6.024   4.069   0.443
 6422TIP3    H119223   6.025   4.011   0.519
 6422TIP3    H219224   6.055   4.153   0.477
 6423TIP3   OH219225   4.677   4.255   5.650
 6423TIP3    H119226   4.746   4.307   5.690
 6423TIP3    H219227   4.629   4.317   5.595
 6424TIP3   OH219228   4.026   6.713   0.908
 6424TIP3    H119229   4.071   6.782   0.859
 6424TIP3    H219230   3.959   6.681   0.849
 6425TIP3   OH219231   6.766   7.572   1.379
 6425TIP3    H119232   6.769   7.636   1.451
 6425TIP3    H219233   6.823   7.609   1.311
 6426TIP3   OH219234   4.553   5.850   3.735
 6426TIP3    H119235   4.578   5.857   3.643
 6426TIP3    H219236   4.628   5.884   3.784
 6427TIP3   OH219237   2.265   6.452   3.934
 6427TIP3    H119238   2.228   6.540   3.931
 6427TIP3    H219239   2.307   6.440   3.849
 6428TIP3   OH219240   3.467   0.957   2.669
 6428TIP3    H119241   3.399   0.976   2.734
 6428TIP3    H219242   3.441   1.008   2.592
 6429TIP3   OH219243   2.859   3.064   1.416
 6429TIP3    H119244   2.828   3.099   1.499
 6429TIP3    H219245   2.920   2.995   1.440
 6430TIP3   OH219246   6.302   3.195   5.639
 6430TIP3    H119247   6.239   3.262   5.611
 6430TIP3    H219248   6.373   3.201   5.575
 6431TIP3   OH219249   3.066   5.507   0.159
 6431TIP3    H119250   3.129   5.560   0.110
 6431TIP3    H219251   3.007   5.571   0.199
 6432TIP3   OH219252   0.509   6.220   4.243
 6432TIP3    H119253   0.426   6.203   4.287
 6432TIP3    H219254   0.540   6.133   4.216
 6433TIP3   OH219255   6.407   3.220   6.472
 6433TIP3    H119256   6.420   3.301   6.521
 6433TIP3    H219257   6.394   3.153   6.540
 6434TIP3   OH219258   7.467   5.951   2.865
 6434TIP3    H119259   7.469   6.046   2.852
 6434TIP3    H219260   7.417   5.918   2.791
 6435TIP3   OH219261   5.507   7.237   3.437
 6435TIP3    H119262   5.414   7.257   3.444
 6435TIP3    H219263   5.537   7.290   3.362
 6436TIP3   OH219264   5.066   1.764   1.454
 6436TIP3    H119265   4.974   1.769   1.481
 6436TIP3    H219266   5.082   1.848   1.412
 6437TIP3   OH219267   7.872   0.502   5.639
 6437TIP3    H119268   7.873   0.406   5.643
 6437TIP3    H219269   7.805   0.522   5.574
 6438TIP3   OH219270   2.843   2.146   1.733
 6438TIP3    H119271   2.787   2.200   1.789
 6438TIP3    H219272   2.786   2.075   1.703
 6439TIP3   OH219273   3.600   5.496   5.369
 6439TIP3    H119274   3.654   5.430   5.413
 6439TIP3    H219275   3.520   5.449   5.345
 6440TIP3   OH219276   4.138   3.935   2.513
 6440TIP3    H119277   4.212   3.938   2.452
 6440TIP3    H219278   4.080   3.868   2.477
 6441TIP3   OH219279   5.501   4.659   5.171
 6441TIP3    H119280   5.555   4.592   5.212
 6441TIP3    H219281   5.541   4.671   5.084
 6442TIP3   OH219282   4.623   6.334   6.733
 6442TIP3    H119283   4.718   6.329   6.743
 6442TIP3    H219284   4.606   6.302   6.645
 6443TIP3   OH219285   2.819   4.996   6.560
 6443TIP3    H119286   2.871   4.916   6.553
 6443TIP3    H219287   2.829   5.039   6.475
 6444TIP3   OH219288   0.560   2.981   4.621
 6444TIP3    H119289   0.602   2.896   4.618
 6444TIP3    H219290   0.512   2.988   4.538
 6445TIP3   OH219291   6.610   3.187   6.109
 6445TIP3    H119292   6.519   3.207   6.089
 6445TIP3    H219293   6.645   3.148   6.028
 6446TIP3   OH219294   7.509   6.171   0.032
 6446TIP3    H119295   7.510   6.078   0.052
 6446TIP3    H219296   7.428   6.185  -0.016
 6447TIP3   OH219297   4.097   5.159   4.620
 6447TIP3    H119298   4.060   5.243   4.590
 6447TIP3    H219299   4.118   5.112   4.539
 6448TIP3   OH219300   3.496   0.858   6.448
 6448TIP3    H119301   3.556   0.812   6.390
 6448TIP3    H219302   3.409   0.830   6.421
 6449TIP3   OH219303   1.695   7.526   6.643
 6449TIP3    H119304   1.654   7.473   6.711
 6449TIP3    H219305   1.742   7.595   6.691
 6450TIP3   OH219306   3.173   5.486   3.813
 6450TIP3    H119307   3.252   5.452   3.772
 6450TIP3    H219308   3.164   5.434   3.893
 6451TIP3   OH219309   6.032   6.005   2.814
 6451TIP3    H119310   6.016   6.099   2.810
 6451TIP3    H219311   6.116   5.997   2.858
 6452TIP3   OH219312   4.041   2.998   2.110
 6452TIP3    H119313   4.034   3.076   2.057
 6452TIP3    H219314   4.067   3.030   2.197
 6453TIP3   OH219315   5.211   3.768   5.639
 6453TIP3    H119316   5.288   3.753   5.584
 6453TIP3    H219317   5.186   3.858   5.620
 6454TIP3   OH219318   2.584   5.168   6.619
 6454TIP3    H119319   2.636   5.089   6.604
 6454TIP3    H219320   2.493   5.138   6.618
 6455TIP3   OH219321   7.527   4.013   4.931
 6455TIP3    H119322   7.589   4.065   4.879
 6455TIP3    H219323   7.452   4.001   4.873
 6456TIP3   OH219324   6.715   3.509   2.139
 6456TIP3    H119325   6.704   3.429   2.089
 6456TIP3    H219326   6.793   3.495   2.191
 6457TIP3   OH219327   1.013   5.258   0.939
 6457TIP3    H119328   0.918   5.258   0.929
 6457TIP3    H219329   1.046   5.260   0.849
 6458TIP3   OH219330   6.323   3.157   0.422
 6458TIP3    H119331   6.331   3.113   0.507
 6458TIP3    H219332   6.335   3.087   0.358
 6459TIP3   OH219333   3.561   4.324   1.895
 6459TIP3    H119334   3.483   4.305   1.948
 6459TIP3    H219335   3.631   4.336   1.959
 6460TIP3   OH219336   0.467   6.638   2.659
 6460TIP3    H119337   0.385   6.663   2.700
 6460TIP3    H219338   0.526   6.712   2.677
 6461TIP3   OH219339   2.410   2.482   0.056
 6461TIP3    H119340   2.334   2.537   0.072
 6461TIP3    H219341   2.413   2.473  -0.040
 6462TIP3   OH219342   0.165   5.305   0.569
 6462TIP3    H119343   0.171   5.349   0.653
 6462TIP3    H219344   0.114   5.364   0.514
 6463TIP3   OH219345   6.757   2.055   1.843
 6463TIP3    H119346   6.717   2.033   1.759
 6463TIP3    H219347   6.847   2.080   1.820
 6464TIP3   OH219348   5.405   5.919   5.917
 6464TIP3    H119349   5.475   5.973   5.952
 6464TIP3    H219350   5.432   5.901   5.827
 6465TIP3   OH219351   3.112   3.459   6.576
 6465TIP3    H119352   3.067   3.423   6.652
 6465TIP3    H219353   3.137   3.548   6.602
 6466TIP3   OH219354   3.777   7.870   3.621
 6466TIP3    H119355   3.827   7.847   3.543
 6466TIP3    H219356   3.701   7.812   3.619
 6467TIP3   OH219357   4.004   7.332   5.551
 6467TIP3    H119358   3.950   7.257   5.574
 6467TIP3    H219359   4.027   7.319   5.458
 6468TIP3   OH219360   6.132   2.641   5.770
 6468TIP3    H119361   6.118   2.554   5.735
 6468TIP3    H219362   6.062   2.653   5.834
 6469TIP3   OH219363   3.881   6.038   0.878
 6469TIP3    H119364   3.931   6.097   0.934
 6469TIP3    H219365   3.928   5.956   0.881
 6470TIP3   OH219366   3.762   5.749   5.908
 6470TIP3    H119367   3.822   5.812   5.869
 6470TIP3    H219368   3.763   5.674   5.849
 6471TIP3   OH219369   4.917   5.386   3.824
 6471TIP3    H119370   4.847   5.342   3.872
 6471TIP3    H219371   4.880   5.471   3.801
 6472TIP3   OH219372   2.025   5.157   5.641
 6472TIP3    H119373   2.106   5.207   5.632
 6472TIP3    H219374   1.991   5.181   5.728
 6473TIP3   OH219375   1.529   5.363   0.452
 6473TIP3    H119376   1.473   5.290   0.478
 6473TIP3    H219377   1.607   5.322   0.415
 6474TIP3   OH219378   4.439   6.622   5.257
 6474TIP3    H119379   4.351   6.654   5.235
 6474TIP3    H219380   4.494   6.699   5.254
 6475TIP3   OH219381   3.928   1.886   6.146
 6475TIP3    H119382   3.838   1.915   6.159
 6475TIP3    H219383   3.938   1.811   6.204
 6476TIP3   OH219384   5.319   3.472   3.007
 6476TIP3    H119385   5.231   3.434   3.006
 6476TIP3    H219386   5.311   3.550   3.061
 6477TIP3   OH219387   2.104   0.688   3.006
 6477TIP3    H119388   2.123   0.736   3.086
 6477TIP3    H219389   2.093   0.756   2.939
 6478TIP3   OH219390   5.275   1.332   2.568
 6478TIP3    H119391   5.197   1.288   2.600
 6478TIP3    H219392   5.248   1.370   2.484
 6479TIP3   OH219393   3.883   4.427   4.914
 6479TIP3    H119394   3.972   4.395   4.925
 6479TIP3    H219395   3.828   4.348   4.920
 6480TIP3   OH219396   0.499   5.552   3.903
 6480TIP3    H119397   0.558   5.601   3.845
 6480TIP3    H219398   0.553   5.527   3.977
 6481TIP3   OH219399   3.233   2.672   2.088
 6481TIP3    H119400   3.142   2.655   2.060
 6481TIP3    H219401   3.230   2.760   2.125
 6482TIP3   OH219402   3.252   4.350   6.724
 6482TIP3    H119403   3.244   4.257   6.743
 6482TIP3    H219404   3.232   4.393   6.807
 6483TIP3   OH219405   3.562   0.302   5.200
 6483TIP3    H119406   3.646   0.256   5.192
 6483TIP3    H219407   3.500   0.248   5.150
 6484TIP3   OH219408   0.830   1.609   4.928
 6484TIP3    H119409   0.884   1.573   4.857
 6484TIP3    H219410   0.787   1.686   4.889
 6485TIP3   OH219411   2.263   0.864   1.306
 6485TIP3    H119412   2.252   0.960   1.306
 6485TIP3    H219413   2.316   0.846   1.383
 6486TIP3   OH219414   1.005   1.951   3.311
 6486TIP3    H119415   0.972   1.996   3.233
 6486TIP3    H219416   1.021   2.021   3.374
 6487TIP3   OH219417   2.571   4.549   5.788
 6487TIP3    H119418   2.594   4.457   5.782
 6487TIP3    H219419   2.576   4.569   5.881
 6488TIP3   OH219420   0.102   6.057   1.329
 6488TIP3    H119421   0.156   6.129   1.297
 6488TIP3    H219422   0.085   6.004   1.252
 6489TIP3   OH219423   4.070   5.013   4.396
 6489TIP3    H119424   3.993   5.021   4.340
 6489TIP3    H219425   4.143   4.998   4.336
 6490TIP3   OH219426   1.598   2.365   3.154
 6490TIP3    H119427   1.602   2.342   3.247
 6490TIP3    H219428   1.582   2.459   3.154
 6491TIP3   OH219429   3.629   3.984   0.869
 6491TIP3    H119430   3.647   3.926   0.944
 6491TIP3    H219431   3.549   3.948   0.830
 6492TIP3   OH219432   0.822   3.345   4.978
 6492TIP3    H119433   0.829   3.249   4.978
 6492TIP3    H219434   0.731   3.363   5.001
 6493TIP3   OH219435   1.624   0.442   0.648
 6493TIP3    H119436   1.660   0.485   0.571
 6493TIP3    H219437   1.634   0.506   0.719
 6494TIP3   OH219438   1.594   5.034   0.371
 6494TIP3    H119439   1.526   4.978   0.334
 6494TIP3    H219440   1.675   4.984   0.359
 6495TIP3   OH219441   2.564   2.248   0.651
 6495TIP3    H119442   2.636   2.197   0.688
 6495TIP3    H219443   2.487   2.192   0.661
 6496TIP3   OH219444   0.780   5.731   2.189
 6496TIP3    H119445   0.874   5.735   2.203
 6496TIP3    H219446   0.742   5.763   2.271
 6497TIP3   OH219447   1.819   7.509   0.609
 6497TIP3    H119448   1.909   7.493   0.579
 6497TIP3    H219449   1.767   7.503   0.529
 6498TIP3   OH219450   4.878   5.484   4.505
 6498TIP3    H119451   4.848   5.501   4.416
 6498TIP3    H219452   4.845   5.397   4.525
 6499TIP3   OH219453   1.973   7.459   5.022
 6499TIP3    H119454   2.038   7.522   4.991
 6499TIP3    H219455   1.993   7.379   4.975
 6500TIP3   OH219456   0.213   4.067   2.899
 6500TIP3    H119457   0.240   4.143   2.847
 6500TIP3    H219458   0.127   4.043   2.863
 6501TIP3   OH219459   7.314   6.447   5.187
 6501TIP3    H119460   7.232   6.407   5.159
 6501TIP3    H219461   7.317   6.531   5.143
 6502TIP3   OH219462   5.880   7.149   6.380
 6502TIP3    H119463   5.803   7.106   6.343
 6502TIP3    H219464   5.857   7.242   6.381
 6503TIP3   OH219465   1.173   5.261   5.754
 6503TIP3    H119466   1.219   5.278   5.672
 6503TIP3    H219467   1.087   5.230   5.726
 6504TIP3   OH219468   4.206   6.576   3.642
 6504TIP3    H119469   4.291   6.601   3.605
 6504TIP3    H219470   4.172   6.657   3.680
 6505TIP3   OH219471   0.463   1.437   6.288
 6505TIP3    H119472   0.407   1.479   6.353
 6505TIP3    H219473   0.541   1.410   6.338
 6506TIP3   OH219474   3.577   5.675   1.275
 6506TIP3    H119475   3.488   5.680   1.240
 6506TIP3    H219476   3.586   5.756   1.326
 6507TIP3   OH219477   6.884   7.257   3.414
 6507TIP3    H119478   6.952   7.243   3.348
 6507TIP3    H219479   6.913   7.208   3.490
 6508TIP3   OH219480   6.941   6.217   0.266
 6508TIP3    H119481   6.933   6.210   0.170
 6508TIP3    H219482   7.035   6.217   0.282
 6509TIP3   OH219483   3.282   1.471   3.453
 6509TIP3    H119484   3.257   1.451   3.363
 6509TIP3    H219485   3.318   1.389   3.487
 6510TIP3   OH219486   5.743   3.362   2.519
 6510TIP3    H119487   5.665   3.372   2.464
 6510TIP3    H219488   5.780   3.278   2.491
 6511TIP3   OH219489   5.873   0.454   3.799
 6511TIP3    H119490   5.894   0.483   3.887
 6511TIP3    H219491   5.798   0.508   3.773
 6512TIP3   OH219492   2.659   2.353   5.892
 6512TIP3    H119493   2.639   2.289   5.960
 6512TIP3    H219494   2.679   2.433   5.941
 6513TIP3   OH219495   0.665   4.800   5.854
 6513TIP3    H119496   0.737   4.839   5.905
 6513TIP3    H219497   0.623   4.875   5.812
 6514TIP3   OH219498   4.801   1.944   2.117
 6514TIP3    H119499   4.764   1.911   2.035
 6514TIP3    H219500   4.830   2.033   2.096
 6515TIP3   OH219501   0.296   2.420   0.553
 6515TIP3    H119502   0.218   2.365   0.553
 6515TIP3    H219503   0.364   2.364   0.514
 6516TIP3   OH219504   1.378   7.358   1.419
 6516TIP3    H119505   1.349   7.300   1.348
 6516TIP3    H219506   1.374   7.445   1.380
 6517TIP3   OH219507   2.808   4.160   0.716
 6517TIP3    H119508   2.803   4.113   0.633
 6517TIP3    H219509   2.855   4.101   0.774
 6518TIP3   OH219510   2.226   2.643   1.306
 6518TIP3    H119511   2.268   2.703   1.245
 6518TIP3    H219512   2.243   2.556   1.270
 6519TIP3   OH219513   6.903   3.208   2.530
 6519TIP3    H119514   6.925   3.225   2.622
 6519TIP3    H219515   6.941   3.282   2.483
 6520TIP3   OH219516   0.961   0.495   1.399
 6520TIP3    H119517   0.912   0.422   1.435
 6520TIP3    H219518   0.894   0.556   1.367
 6521TIP3   OH219519   1.986   7.124   1.985
 6521TIP3    H119520   2.057   7.059   1.989
 6521TIP3    H219521   1.929   7.102   2.059
 6522TIP3   OH219522   2.342   4.581   0.091
 6522TIP3    H119523   2.381   4.513   0.146
 6522TIP3    H219524   2.297   4.532   0.022
 6523TIP3   OH219525   7.584   4.744   0.745
 6523TIP3    H119526   7.544   4.761   0.830
 6523TIP3    H219527   7.669   4.788   0.750
 6524TIP3   OH219528   1.269   0.967   3.593
 6524TIP3    H119529   1.219   1.025   3.650
 6524TIP3    H219530   1.256   1.002   3.505
 6525TIP3   OH219531   2.086   3.483   4.027
 6525TIP3    H119532   2.144   3.552   4.059
 6525TIP3    H219533   2.026   3.527   3.967
 6526TIP3   OH219534   2.048   3.021   0.848
 6526TIP3    H119535   2.115   3.090   0.849
 6526TIP3    H219536   2.096   2.941   0.868
 6527TIP3   OH219537   4.694   1.463   5.735
 6527TIP3    H119538   4.768   1.438   5.680
 6527TIP3    H219539   4.690   1.394   5.802
 6528TIP3   OH219540   5.557   0.226   3.575
 6528TIP3    H119541   5.644   0.190   3.594
 6528TIP3    H219542   5.520   0.167   3.509
 6529TIP3   OH219543   2.712   5.652   4.454
 6529TIP3    H119544   2.629   5.605   4.468
 6529TIP3    H219545   2.738   5.627   4.365
 6530TIP3   OH219546   0.146   4.335   2.692
 6530TIP3    H119547   0.094   4.339   2.613
 6530TIP3    H219548   0.121   4.413   2.742
 6531TIP3   OH219549   4.377   7.446   5.448
 6531TIP3    H119550   4.389   7.353   5.432
 6531TIP3    H219551   4.382   7.486   5.361
 6532TIP3   OH219552   0.689   7.679   6.004
 6532TIP3    H119553   0.772   7.696   6.049
 6532TIP3    H219554   0.714   7.676   5.911
 6533TIP3   OH219555   1.682   5.117   1.980
 6533TIP3    H119556   1.600   5.089   1.940
 6533TIP3    H219557   1.714   5.188   1.924
 6534TIP3   OH219558   8.267   2.884   3.787
 6534TIP3    H119559   8.269   2.828   3.864
 6534TIP3    H219560   8.231   2.829   3.718
 6535TIP3   OH219561   0.470   2.951   1.089
 6535TIP3    H119562   0.386   2.949   1.044
 6535TIP3    H219563   0.535   2.960   1.019
 6536TIP3   OH219564   3.604   7.300   5.456
 6536TIP3    H119565   3.537   7.232   5.461
 6536TIP3    H219566   3.597   7.335   5.367
 6537TIP3   OH219567   6.608   4.678   5.904
 6537TIP3    H119568   6.602   4.737   5.829
 6537TIP3    H219569   6.671   4.611   5.878
 6538TIP3   OH219570   8.213   2.140   3.872
 6538TIP3    H119571   8.124   2.164   3.896
 6538TIP3    H219572   8.254   2.222   3.844
 6539TIP3   OH219573   6.500   5.476   4.490
 6539TIP3    H119574   6.581   5.523   4.511
 6539TIP3    H219575   6.433   5.544   4.488
 6540TIP3   OH219576   6.176   3.001   4.633
 6540TIP3    H119577   6.153   3.084   4.676
 6540TIP3    H219578   6.094   2.951   4.633
 6541TIP3   OH219579   4.372   2.394   0.126
 6541TIP3    H119580   4.353   2.318   0.071
 6541TIP3    H219581   4.430   2.449   0.073
 6542TIP3   OH219582   6.935   1.930   3.623
 6542TIP3    H119583   6.860   1.943   3.682
 6542TIP3    H219584   6.984   1.858   3.662
 6543TIP3   OH219585   5.856   2.899   0.832
 6543TIP3    H119586   5.763   2.894   0.853
 6543TIP3    H219587   5.892   2.961   0.895
 6544TIP3   OH219588   5.585   7.434   0.404
 6544TIP3    H119589   5.639   7.360   0.376
 6544TIP3    H219590   5.632   7.472   0.478
 6545TIP3   OH219591   5.725   3.411   1.730
 6545TIP3    H119592   5.756   3.459   1.807
 6545TIP3    H219593   5.777   3.447   1.657
 6546TIP3   OH219594   5.435   4.810   1.069
 6546TIP3    H119595   5.398   4.764   0.994
 6546TIP3    H219596   5.434   4.745   1.140
 6547TIP3   OH219597   5.481   7.778   4.360
 6547TIP3    H119598   5.506   7.826   4.439
 6547TIP3    H219599   5.386   7.774   4.364
 6548TIP3   OH219600   3.502   5.447   4.055
 6548TIP3    H119601   3.485   5.482   4.143
 6548TIP3    H219602   3.576   5.498   4.023
 6549TIP3   OH219603   0.342   0.278   6.042
 6549TIP3    H119604   0.369   0.230   6.121
 6549TIP3    H219605   0.274   0.337   6.072
 6550TIP3   OH219606   7.011   4.049   2.040
 6550TIP3    H119607   6.956   4.023   1.966
 6550TIP3    H219608   7.081   4.100   2.002
 6551TIP3   OH219609   0.701   6.268   3.547
 6551TIP3    H119610   0.697   6.292   3.640
 6551TIP3    H219611   0.641   6.329   3.504
 6552TIP3   OH219612   4.093   5.567   1.154
 6552TIP3    H119613   4.036   5.546   1.080
 6552TIP3    H219614   4.044   5.632   1.205
 6553TIP3   OH219615   8.108   4.420   4.809
 6553TIP3    H119616   8.086   4.412   4.716
 6553TIP3    H219617   8.084   4.335   4.847
 6554TIP3   OH219618   7.999   5.846   3.598
 6554TIP3    H119619   8.007   5.855   3.503
 6554TIP3    H219620   8.005   5.752   3.614
 6555TIP3   OH219621   3.573   5.189   3.189
 6555TIP3    H119622   3.507   5.228   3.247
 6555TIP3    H219623   3.595   5.106   3.230
 6556TIP3   OH219624   0.087   5.087   5.351
 6556TIP3    H119625  -0.003   5.055   5.349
 6556TIP3    H219626   0.088   5.160   5.289
 6557TIP3   OH219627   7.807   1.722   5.694
 6557TIP3    H119628   7.891   1.680   5.677
 6557TIP3    H219629   7.742   1.654   5.676
 6558TIP3   OH219630   1.772   1.638   3.568
 6558TIP3    H119631   1.812   1.718   3.601
 6558TIP3    H219632   1.740   1.661   3.481
 6559TIP3   OH219633   7.034   7.393   3.679
 6559TIP3    H119634   6.968   7.324   3.688
 6559TIP3    H219635   6.993   7.458   3.623
 6560TIP3   OH219636   6.651   2.105   2.084
 6560TIP3    H119637   6.730   2.088   2.135
 6560TIP3    H219638   6.678   2.094   1.993
 6561TIP3   OH219639   7.818   0.261   0.968
 6561TIP3    H119640   7.742   0.301   0.927
 6561TIP3    H219641   7.868   0.223   0.896
 6562TIP3   OH219642   8.082   1.420   5.350
 6562TIP3    H119643   8.037   1.495   5.389
 6562TIP3    H219644   8.072   1.433   5.256
 6563TIP3   OH219645   6.994   0.168   5.035
 6563TIP3    H119646   6.944   0.205   5.108
 6563TIP3    H219647   6.956   0.081   5.022
 6564TIP3   OH219648   8.152   4.028   5.886
 6564TIP3    H119649   8.214   3.955   5.882
 6564TIP3    H219650   8.158   4.060   5.976
 6565TIP3   OH219651   6.800   7.160   5.731
 6565TIP3    H119652   6.712   7.196   5.719
 6565TIP3    H219653   6.858   7.235   5.716
 6566TIP3   OH219654   0.289   1.635   4.056
 6566TIP3    H119655   0.341   1.607   4.132
 6566TIP3    H219656   0.224   1.695   4.092
 6567TIP3   OH219657   2.648   7.227   1.895
 6567TIP3    H119658   2.707   7.226   1.819
 6567TIP3    H219659   2.703   7.254   1.968
 6568TIP3   OH219660   2.017   1.464   4.508
 6568TIP3    H119661   2.021   1.438   4.416
 6568TIP3    H219662   2.108   1.478   4.533
 6569TIP3   OH219663   3.202   1.605   6.734
 6569TIP3    H119664   3.122   1.657   6.741
 6569TIP3    H219665   3.172   1.519   6.705
 6570TIP3   OH219666   6.446   7.754   5.097
 6570TIP3    H119667   6.495   7.834   5.078
 6570TIP3    H219668   6.477   7.727   5.183
 6571TIP3   OH219669   4.872   0.318   0.862
 6571TIP3    H119670   4.808   0.267   0.912
 6571TIP3    H219671   4.952   0.264   0.865
 6572TIP3   OH219672   1.717   2.948   5.328
 6572TIP3    H119673   1.685   3.014   5.266
 6572TIP3    H219674   1.756   2.999   5.399
 6573TIP3   OH219675   8.172   2.094   4.420
 6573TIP3    H119676   8.181   2.133   4.506
 6573TIP3    H219677   8.233   2.020   4.421
 6574TIP3   OH219678   8.186   5.182   4.410
 6574TIP3    H119679   8.185   5.277   4.424
 6574TIP3    H219680   8.274   5.155   4.436
 6575TIP3   OH219681   4.788   0.817   2.060
 6575TIP3    H119682   4.837   0.802   2.141
 6575TIP3    H219683   4.769   0.729   2.027
 6576TIP3   OH219684   6.312   6.138   0.618
 6576TIP3    H119685   6.281   6.228   0.631
 6576TIP3    H219686   6.233   6.089   0.596
 6577TIP3   OH219687   7.048   3.221   1.795
 6577TIP3    H119688   7.109   3.290   1.771
 6577TIP3    H219689   7.102   3.143   1.803
 6578TIP3   OH219690   1.024   0.650   2.619
 6578TIP3    H119691   1.112   0.641   2.657
 6578TIP3    H219692   1.033   0.612   2.531
 6579TIP3   OH219693   5.095   0.070   0.187
 6579TIP3    H119694   5.096  -0.025   0.173
 6579TIP3    H219695   5.041   0.082   0.265
 6580TIP3   OH219696   5.378   3.709   1.017
 6580TIP3    H119697   5.369   3.749   1.103
 6580TIP3    H219698   5.420   3.625   1.033
 6581TIP3   OH219699   6.839   6.327   2.961
 6581TIP3    H119700   6.785   6.267   2.910
 6581TIP3    H219701   6.800   6.413   2.945
 6582TIP3   OH219702   1.887   2.000   3.937
 6582TIP3    H119703   1.933   2.012   3.854
 6582TIP3    H219704   1.954   2.017   4.004
 6583TIP3   OH219705   2.631   1.992   3.095
 6583TIP3    H119706   2.697   1.996   3.025
 6583TIP3    H219707   2.621   2.083   3.123
 6584TIP3   OH219708   3.631   2.164   1.159
 6584TIP3    H119709   3.543   2.200   1.147
 6584TIP3    H219710   3.682   2.236   1.196
 6585TIP3   OH219711   4.221   5.268   5.412
 6585TIP3    H119712   4.250   5.201   5.349
 6585TIP3    H219713   4.152   5.224   5.463
 6586TIP3   OH219714   7.316   7.279   0.497
 6586TIP3    H119715   7.245   7.217   0.483
 6586TIP3    H219716   7.277   7.348   0.551
 6587TIP3   OH219717   2.323   7.807   5.602
 6587TIP3    H119718   2.294   7.797   5.693
 6587TIP3    H219719   2.292   7.728   5.559
 6588TIP3   OH219720   5.175   5.539   1.434
 6588TIP3    H119721   5.203   5.581   1.353
 6588TIP3    H219722   5.087   5.574   1.451
 6589TIP3   OH219723   2.645   4.552   1.486
 6589TIP3    H119724   2.644   4.625   1.424
 6589TIP3    H219725   2.652   4.474   1.431
 6590TIP3   OH219726   2.305   6.943   0.061
 6590TIP3    H119727   2.367   6.938   0.133
 6590TIP3    H219728   2.334   7.019   0.009
 6591TIP3   OH219729   5.112   6.671   3.510
 6591TIP3    H119730   5.158   6.730   3.450
 6591TIP3    H219731   5.155   6.586   3.498
 6592TIP3   OH219732   7.733   3.667   4.340
 6592TIP3    H119733   7.791   3.615   4.285
 6592TIP3    H219734   7.645   3.647   4.308
 6593TIP3   OH219735   2.374   3.054   2.861
 6593TIP3    H119736   2.449   3.059   2.801
 6593TIP3    H219737   2.381   2.968   2.901
 6594TIP3   OH219738   2.252   6.514   1.592
 6594TIP3    H119739   2.324   6.532   1.532
 6594TIP3    H219740   2.199   6.449   1.546
 6595TIP3   OH219741   8.180   6.217   3.217
 6595TIP3    H119742   8.114   6.156   3.184
 6595TIP3    H219743   8.256   6.204   3.161
 6596TIP3   OH219744   4.235   5.495   6.435
 6596TIP3    H119745   4.271   5.542   6.360
 6596TIP3    H219746   4.265   5.405   6.423
 6597TIP3   OH219747   7.645   4.030   0.205
 6597TIP3    H119748   7.615   3.971   0.136
 6597TIP3    H219749   7.741   4.027   0.201
 6598TIP3   OH219750   7.500   3.023   4.287
 6598TIP3    H119751   7.414   3.061   4.303
 6598TIP3    H219752   7.487   2.963   4.214
 6599TIP3   OH219753   7.280   4.000   0.152
 6599TIP3    H119754   7.285   4.027   0.060
 6599TIP3    H219755   7.270   4.082   0.200
 6600TIP3   OH219756   4.820   3.364   6.759
 6600TIP3    H119757   4.779   3.439   6.716
 6600TIP3    H219758   4.902   3.351   6.710
 6601TIP3   OH219759   4.657   6.468   0.685
 6601TIP3    H119760   4.650   6.415   0.764
 6601TIP3    H219761   4.678   6.406   0.616
 6602TIP3   OH219762   4.467   4.994   5.890
 6602TIP3    H119763   4.530   5.063   5.909
 6602TIP3    H219764   4.500   4.953   5.810
 6603TIP3   OH219765   4.618   5.555   4.578
 6603TIP3    H119766   4.701   5.524   4.541
 6603TIP3    H219767   4.553   5.496   4.542
 6604TIP3   OH219768   5.368   0.979   5.177
 6604TIP3    H119769   5.276   0.985   5.151
 6604TIP3    H219770   5.415   0.963   5.096
 6605TIP3   OH219771   4.095   4.707   5.852
 6605TIP3    H119772   4.039   4.683   5.926
 6605TIP3    H219773   4.177   4.660   5.867
 6606TIP3   OH219774   8.340   5.035   2.739
 6606TIP3    H119775   8.289   4.972   2.688
 6606TIP3    H219776   8.369   5.100   2.676
 6607TIP3   OH219777   3.266   0.498   0.693
 6607TIP3    H119778   3.251   0.443   0.616
 6607TIP3    H219779   3.269   0.436   0.766
 6608TIP3   OH219780   6.556   5.294   2.879
 6608TIP3    H119781   6.528   5.266   2.792
 6608TIP3    H219782   6.480   5.338   2.916
 6609TIP3   OH219783   7.418   1.434   5.638
 6609TIP3    H119784   7.365   1.404   5.565
 6609TIP3    H219785   7.418   1.530   5.631
 6610TIP3   OH219786   5.387   0.836   5.680
 6610TIP3    H119787   5.438   0.797   5.751
 6610TIP3    H219788   5.432   0.809   5.601
 6611TIP3   OH219789   7.022   2.376   5.896
 6611TIP3    H119790   7.029   2.349   5.987
 6611TIP3    H219791   6.936   2.417   5.890
 6612TIP3   OH219792   6.383   2.455   1.001
 6612TIP3    H119793   6.364   2.533   0.950
 6612TIP3    H219794   6.374   2.483   1.092
 6613TIP3   OH219795   1.699   5.822   3.199
 6613TIP3    H119796   1.625   5.762   3.209
 6613TIP3    H219797   1.775   5.765   3.186
 6614TIP3   OH219798   5.192   2.571   6.214
 6614TIP3    H119799   5.157   2.655   6.244
 6614TIP3    H219800   5.130   2.506   6.247
 6615TIP3   OH219801   5.490   6.664   1.658
 6615TIP3    H119802   5.460   6.653   1.567
 6615TIP3    H219803   5.410   6.678   1.708
 6616TIP3   OH219804   5.258   5.995   4.851
 6616TIP3    H119805   5.301   6.051   4.916
 6616TIP3    H219806   5.164   6.012   4.864
 6617TIP3   OH219807   4.426   4.631   6.229
 6617TIP3    H119808   4.466   4.639   6.316
 6617TIP3    H219809   4.457   4.708   6.181
 6618TIP3   OH219810   3.119   0.343   6.408
 6618TIP3    H119811   3.076   0.397   6.342
 6618TIP3    H219812   3.125   0.400   6.485
 6619TIP3   OH219813   0.625   4.225   2.937
 6619TIP3    H119814   0.660   4.236   2.848
 6619TIP3    H219815   0.533   4.202   2.923
 6620TIP3   OH219816   7.669   6.618   4.146
 6620TIP3    H119817   7.731   6.686   4.118
 6620TIP3    H219818   7.587   6.665   4.160
 6621TIP3   OH219819   0.789   2.277   1.967
 6621TIP3    H119820   0.701   2.286   1.931
 6621TIP3    H219821   0.843   2.338   1.917
 6622TIP3   OH219822   4.864   4.605   0.496
 6622TIP3    H119823   4.796   4.559   0.447
 6622TIP3    H219824   4.944   4.592   0.445
 6623TIP3   OH219825   0.943   4.390   5.198
 6623TIP3    H119826   0.856   4.412   5.166
 6623TIP3    H219827   0.947   4.428   5.286
 6624TIP3   OH219828   0.175   5.507   6.145
 6624TIP3    H119829   0.103   5.569   6.153
 6624TIP3    H219830   0.228   5.521   6.223
 6625TIP3   OH219831   1.979   5.059   2.276
 6625TIP3    H119832   2.013   5.000   2.210
 6625TIP3    H219833   1.966   5.142   2.230
 6626TIP3   OH219834   2.032   6.028   3.475
 6626TIP3    H119835   2.042   6.049   3.382
 6626TIP3    H219836   1.946   6.064   3.498
 6627TIP3   OH219837   6.230   1.259   5.195
 6627TIP3    H119838   6.170   1.286   5.264
 6627TIP3    H219839   6.260   1.341   5.156
 6628TIP3   OH219840   1.635   6.923   1.020
 6628TIP3    H119841   1.729   6.911   1.009
 6628TIP3    H219842   1.599   6.909   0.933
 6629TIP3   OH219843   0.941   1.338   5.883
 6629TIP3    H119844   1.034   1.347   5.863
 6629TIP3    H219845   0.918   1.251   5.850
 6630TIP3   OH219846   7.964   3.337   4.438
 6630TIP3    H119847   8.035   3.343   4.373
 6630TIP3    H219848   7.989   3.264   4.494
 6631TIP3   OH219849   0.925   4.412   1.832
 6631TIP3    H119850   0.931   4.502   1.799
 6631TIP3    H219851   0.993   4.406   1.898
 6632TIP3   OH219852   3.108   1.827   1.579
 6632TIP3    H119853   3.193   1.783   1.577
 6632TIP3    H219854   3.055   1.776   1.640
 6633TIP3   OH219855   1.953   6.075   0.338
 6633TIP3    H119856   1.993   6.016   0.274
 6633TIP3    H219857   1.999   6.158   0.326
 6634TIP3   OH219858   4.038   6.208   1.050
 6634TIP3    H119859   4.020   6.201   1.144
 6634TIP3    H219860   4.084   6.291   1.040
 6635TIP3   OH219861   3.370   7.677   4.150
 6635TIP3    H119862   3.327   7.761   4.131
 6635TIP3    H219863   3.331   7.649   4.233
 6636TIP3   OH219864   4.310   4.040   5.844
 6636TIP3    H119865   4.215   4.041   5.857
 6636TIP3    H219866   4.323   3.983   5.769
 6637TIP3   OH219867   3.984   7.000   3.636
 6637TIP3    H119868   4.008   7.059   3.564
 6637TIP3    H219869   3.968   6.915   3.593
 6638TIP3   OH219870   1.435   1.529   2.498
 6638TIP3    H119871   1.377   1.463   2.537
 6638TIP3    H219872   1.385   1.611   2.505
 6639TIP3   OH219873   3.427   1.118   6.187
 6639TIP3    H119874   3.492   1.175   6.228
 6639TIP3    H219875   3.447   1.121   6.094
 6640TIP3   OH219876   3.440   6.465   2.118
 6640TIP3    H119877   3.465   6.386   2.165
 6640TIP3    H219878   3.358   6.442   2.074
 6641TIP3   OH219879   1.777   2.760   1.623
 6641TIP3    H119880   1.832   2.737   1.548
 6641TIP3    H219881   1.712   2.820   1.586
 6642TIP3   OH219882   1.830   2.150   6.753
 6642TIP3    H119883   1.738   2.167   6.734
 6642TIP3    H219884   1.860   2.230   6.798
 6643TIP3   OH219885   1.345   6.873   4.108
 6643TIP3    H119886   1.292   6.907   4.181
 6643TIP3    H219887   1.379   6.789   4.140
 6644TIP3   OH219888   3.134   0.073   0.806
 6644TIP3    H119889   3.147   0.027   0.889
 6644TIP3    H219890   3.188   0.152   0.814
 6645TIP3   OH219891   7.001   5.006   5.837
 6645TIP3    H119892   7.008   4.980   5.929
 6645TIP3    H219893   7.091   5.022   5.810
 6646TIP3   OH219894   2.468   7.799   3.782
 6646TIP3    H119895   2.434   7.886   3.760
 6646TIP3    H219896   2.450   7.746   3.705
 6647TIP3   OH219897   4.420   3.149   0.046
 6647TIP3    H119898   4.443   3.237   0.074
 6647TIP3    H219899   4.405   3.101   0.127
 6648TIP3   OH219900   7.002   5.216   1.506
 6648TIP3    H119901   6.964   5.133   1.478
 6648TIP3    H219902   7.090   5.217   1.467
 6649TIP3   OH219903   2.652   2.115   3.880
 6649TIP3    H119904   2.635   2.067   3.798
 6649TIP3    H219905   2.643   2.048   3.948
 6650TIP3   OH219906   3.599   2.326   2.217
 6650TIP3    H119907   3.667   2.361   2.274
 6650TIP3    H219908   3.537   2.398   2.206
 6651TIP3   OH219909   2.794   4.900   3.701
 6651TIP3    H119910   2.768   4.838   3.633
 6651TIP3    H219911   2.890   4.896   3.701
 6652TIP3   OH219912   4.677   7.433   6.149
 6652TIP3    H119913   4.743   7.365   6.164
 6652TIP3    H219914   4.625   7.401   6.075
 6653TIP3   OH219915   0.218   1.271   3.901
 6653TIP3    H119916   0.264   1.299   3.980
 6653TIP3    H219917   0.238   1.338   3.836
 6654TIP3   OH219918   2.218   5.722   4.980
 6654TIP3    H119919   2.184   5.796   5.031
 6654TIP3    H219920   2.310   5.717   5.004
 6655TIP3   OH219921   1.353  -0.056   0.945
 6655TIP3    H119922   1.437  -0.013   0.931
 6655TIP3    H219923   1.291  -0.009   0.889
 6656TIP3   OH219924   1.119   5.844   4.068
 6656TIP3    H119925   1.200   5.794   4.067
 6656TIP3    H219926   1.124   5.897   4.148
 6657TIP3   OH219927   2.764   4.920   3.990
 6657TIP3    H119928   2.782   4.902   3.897
 6657TIP3    H219929   2.708   4.997   3.990
 6658TIP3   OH219930   1.299   1.313   3.391
 6658TIP3    H119931   1.262   1.397   3.363
 6658TIP3    H219932   1.224   1.259   3.415
 6659TIP3   OH219933   4.728   0.555   1.888
 6659TIP3    H119934   4.758   0.600   1.809
 6659TIP3    H219935   4.652   0.504   1.860
 6660TIP3   OH219936   3.794   0.941   6.125
 6660TIP3    H119937   3.887   0.964   6.121
 6660TIP3    H219938   3.750   1.025   6.142
 6661TIP3   OH219939   7.354   2.978   1.390
 6661TIP3    H119940   7.384   2.892   1.360
 6661TIP3    H219941   7.294   3.007   1.321
 6662TIP3   OH219942   6.674   6.536   3.434
 6662TIP3    H119943   6.708   6.448   3.450
 6662TIP3    H219944   6.694   6.554   3.342
 6663TIP3   OH219945   2.110   1.707   1.172
 6663TIP3    H119946   2.117   1.647   1.098
 6663TIP3    H219947   2.016   1.717   1.186
 6664TIP3   OH219948   2.411   0.116   4.455
 6664TIP3    H119949   2.454   0.175   4.393
 6664TIP3    H219950   2.379   0.044   4.401
 6665TIP3   OH219951   7.027   4.931   5.452
 6665TIP3    H119952   6.990   4.848   5.482
 6665TIP3    H219953   7.002   4.994   5.521
 6666TIP3   OH219954   6.896   5.293   1.070
 6666TIP3    H119955   6.892   5.220   1.008
 6666TIP3    H219956   6.825   5.276   1.132
 6667TIP3   OH219957   5.794   0.142   3.168
 6667TIP3    H119958   5.876   0.167   3.126
 6667TIP3    H219959   5.726   0.184   3.116
 6668TIP3   OH219960   7.621   4.345   5.437
 6668TIP3    H119961   7.562   4.371   5.367
 6668TIP3    H219962   7.585   4.387   5.515
 6669TIP3   OH219963   0.976   5.374  -0.026
 6669TIP3    H119964   0.921   5.395  -0.101
 6669TIP3    H219965   0.943   5.430   0.044
 6670TIP3   OH219966   0.397   7.857   5.254
 6670TIP3    H119967   0.372   7.766   5.235
 6670TIP3    H219968   0.317   7.897   5.288
 6671TIP3   OH219969   5.232   2.089   3.493
 6671TIP3    H119970   5.291   2.142   3.546
 6671TIP3    H219971   5.289   2.048   3.427
 6672TIP3   OH219972   6.084   2.756   3.782
 6672TIP3    H119973   6.017   2.689   3.766
 6672TIP3    H219974   6.076   2.815   3.708
 6673TIP3   OH219975   7.309   1.046   0.060
 6673TIP3    H119976   7.379   1.093   0.104
 6673TIP3    H219977   7.252   1.115   0.025
 6674TIP3   OH219978   4.322   1.779   4.406
 6674TIP3    H119979   4.245   1.728   4.430
 6674TIP3    H219980   4.392   1.714   4.398
 6675TIP3   OH219981   7.470   2.941   3.501
 6675TIP3    H119982   7.385   2.970   3.534
 6675TIP3    H219983   7.450   2.892   3.421
 6676TIP3   OH219984   6.951   1.648   4.394
 6676TIP3    H119985   7.009   1.582   4.356
 6676TIP3    H219986   6.947   1.718   4.328
 6677TIP3   OH219987   1.266   4.169   3.996
 6677TIP3    H119988   1.355   4.182   3.961
 6677TIP3    H219989   1.248   4.249   4.045
 6678TIP3   OH219990   0.199   4.427   2.006
 6678TIP3    H119991   0.282   4.465   2.033
 6678TIP3    H219992   0.223   4.354   1.949
 6679TIP3   OH219993   3.238   3.242   1.457
 6679TIP3    H119994   3.300   3.175   1.429
 6679TIP3    H219995   3.292   3.312   1.492
 6680TIP3   OH219996   6.129   4.946   3.353
 6680TIP3    H119997   6.198   4.915   3.294
 6680TIP3    H219998   6.177   4.988   3.425
 6681TIP3   OH219999   6.998   0.988   0.186
 6681TIP3    H120000   7.083   1.016   0.220
 6681TIP3    H220001   6.999   1.016   0.094
 6682TIP3   OH220002   2.447   6.977   4.881
 6682TIP3    H120003   2.524   6.983   4.938
 6682TIP3    H220004   2.381   7.031   4.924
 6683TIP3   OH220005   4.908   7.256   1.556
 6683TIP3    H120006   4.834   7.313   1.536
 6683TIP3    H220007   4.960   7.255   1.476
 6684TIP3   OH220008   0.774   2.814   4.072
 6684TIP3    H120009   0.797   2.892   4.123
 6684TIP3    H220010   0.705   2.844   4.013
 6685TIP3   OH220011   1.948   6.159   1.149
 6685TIP3    H120012   1.905   6.179   1.232
 6685TIP3    H220013   1.891   6.093   1.108
 6686TIP3   OH220014   4.964   1.919   3.119
 6686TIP3    H120015   4.910   1.842   3.103
 6686TIP3    H220016   4.914   1.971   3.182
 6687TIP3   OH220017   1.856   5.543   2.392
 6687TIP3    H120018   1.764   5.533   2.366
 6687TIP3    H220019   1.895   5.594   2.321
 6688TIP3   OH220020   1.701   3.687   2.749
 6688TIP3    H120021   1.672   3.705   2.838
 6688TIP3    H220022   1.640   3.736   2.694
 6689TIP3   OH220023   7.728   6.840   2.308
 6689TIP3    H120024   7.800   6.902   2.297
 6689TIP3    H220025   7.767   6.765   2.353
 6690TIP3   OH220026   5.381   1.267   2.139
 6690TIP3    H120027   5.305   1.289   2.193
 6690TIP3    H220028   5.423   1.195   2.186
 6691TIP3   OH220029   6.293   1.262   2.153
 6691TIP3    H120030   6.309   1.171   2.175
 6691TIP3    H220031   6.355   1.282   2.083
 6692TIP3   OH220032   7.627   3.638   0.501
 6692TIP3    H120033   7.673   3.719   0.525
 6692TIP3    H220034   7.693   3.587   0.455
 6693TIP3   OH220035   5.738   6.623   5.447
 6693TIP3    H120036   5.760   6.646   5.538
 6693TIP3    H220037   5.654   6.579   5.454
 6694TIP3   OH220038   1.817   0.831   5.790
 6694TIP3    H120039   1.826   0.920   5.826
 6694TIP3    H220040   1.903   0.813   5.751
 6695TIP3   OH220041   8.347   4.937   4.079
 6695TIP3    H120042   8.309   5.020   4.109
 6695TIP3    H220043   8.350   4.945   3.984
 6696TIP3   OH220044   4.123   6.944   3.041
 6696TIP3    H120045   4.178   7.009   2.997
 6696TIP3    H220046   4.179   6.908   3.110
 6697TIP3   OH220047   5.147   2.013   1.353
 6697TIP3    H120048   5.179   2.094   1.393
 6697TIP3    H220049   5.227   1.968   1.324
 6698TIP3   OH220050   5.846   2.758   5.533
 6698TIP3    H120051   5.925   2.810   5.529
 6698TIP3    H220052   5.775   2.821   5.518
 6699TIP3   OH220053   4.263   2.445   5.664
 6699TIP3    H120054   4.255   2.464   5.570
 6699TIP3    H220055   4.356   2.454   5.683
 6700TIP3   OH220056   4.564   5.713   6.325
 6700TIP3    H120057   4.546   5.806   6.310
 6700TIP3    H220058   4.650   5.711   6.366
 6701TIP3   OH220059   7.381   6.971   6.624
 6701TIP3    H120060   7.435   6.921   6.685
 6701TIP3    H220061   7.298   6.985   6.670
 6702TIP3   OH220062   0.094   2.309   4.405
 6702TIP3    H120063   0.082   2.342   4.315
 6702TIP3    H220064   0.005   2.285   4.433
 6703TIP3   OH220065   0.064   3.845   3.402
 6703TIP3    H120066   0.111   3.762   3.409
 6703TIP3    H220067  -0.014   3.833   3.455
 6704TIP3   OH220068   1.232   5.150   5.487
 6704TIP3    H120069   1.137   5.137   5.483
 6704TIP3    H220070   1.249   5.217   5.421
 6705TIP3   OH220071   3.199   3.235   0.427
 6705TIP3    H120072   3.187   3.155   0.376
 6705TIP3    H220073   3.217   3.302   0.362
 6706TIP3   OH220074   0.064   5.823   4.106
 6706TIP3    H120075   0.031   5.830   4.195
 6706TIP3    H220076  -0.013   5.798   4.054
 6707TIP3   OH220077   0.468   1.609   3.151
 6707TIP3    H120078   0.513   1.618   3.067
 6707TIP3    H220079   0.537   1.616   3.216
 6708TIP3   OH220080   0.277   4.872   6.426
 6708TIP3    H120081   0.318   4.792   6.393
 6708TIP3    H220082   0.275   4.930   6.350
 6709TIP3   OH220083   6.619   5.023   1.120
 6709TIP3    H120084   6.703   5.003   1.161
 6709TIP3    H220085   6.586   4.938   1.090
 6710TIP3   OH220086   0.419   1.513   5.793
 6710TIP3    H120087   0.411   1.581   5.860
 6710TIP3    H220088   0.453   1.559   5.716
 6711TIP3   OH220089   3.329   2.596   6.657
 6711TIP3    H120090   3.344   2.544   6.578
 6711TIP3    H220091   3.392   2.667   6.651
 6712TIP3   OH220092   2.127   2.968   4.545
 6712TIP3    H120093   2.195   2.909   4.512
 6712TIP3    H220094   2.174   3.027   4.604
 6713TIP3   OH220095   4.547   0.812   2.314
 6713TIP3    H120096   4.609   0.743   2.290
 6713TIP3    H220097   4.498   0.776   2.388
 6714TIP3   OH220098   1.772   2.078   4.752
 6714TIP3    H120099   1.834   2.080   4.824
 6714TIP3    H220100   1.692   2.040   4.790
 6715TIP3   OH220101   2.346   5.438   3.562
 6715TIP3    H120102   2.393   5.441   3.645
 6715TIP3    H220103   2.388   5.506   3.508
 6716TIP3   OH220104   4.912   0.069   4.386
 6716TIP3    H120105   5.007   0.080   4.392
 6716TIP3    H220106   4.883   0.066   4.477
 6717TIP3   OH220107   1.352   5.399   4.947
 6717TIP3    H120108   1.359   5.386   5.041
 6717TIP3    H220109   1.286   5.468   4.937
 6718TIP3   OH220110   2.987   6.614   6.624
 6718TIP3    H120111   2.986   6.561   6.704
 6718TIP3    H220112   2.929   6.688   6.644
 6719TIP3   OH220113   2.123   0.364   2.064
 6719TIP3    H120114   2.169   0.332   1.986
 6719TIP3    H220115   2.153   0.307   2.135
 6720TIP3   OH220116   4.902   0.850   4.530
 6720TIP3    H120117   4.969   0.788   4.556
 6720TIP3    H220118   4.865   0.882   4.613
 6721TIP3   OH220119   7.268   0.044   0.466
 6721TIP3    H120120   7.347   0.095   0.446
 6721TIP3    H220121   7.251  -0.007   0.387
 6722TIP3   OH220122   1.328   0.513   0.457
 6722TIP3    H120123   1.408   0.461   0.446
 6722TIP3    H220124   1.258   0.456   0.427
 6723TIP3   OH220125   3.001   6.151   2.007
 6723TIP3    H120126   3.047   6.215   2.061
 6723TIP3    H220127   2.910   6.181   2.004
 6724TIP3   OH220128   7.130   6.646   4.888
 6724TIP3    H120129   7.205   6.666   4.833
 6724TIP3    H220130   7.115   6.726   4.939
 6725TIP3   OH220131   0.792   3.646   1.744
 6725TIP3    H120132   0.713   3.662   1.795
 6725TIP3    H220133   0.853   3.605   1.805
 6726TIP3   OH220134   1.745   6.217   4.186
 6726TIP3    H120135   1.711   6.194   4.099
 6726TIP3    H220136   1.667   6.243   4.235
 6727TIP3   OH220137   2.048   6.158   3.239
 6727TIP3    H120138   1.973   6.186   3.186
 6727TIP3    H220139   2.098   6.238   3.254
 6728TIP3   OH220140   7.038   5.400   3.551
 6728TIP3    H120141   6.964   5.375   3.606
 6728TIP3    H220142   7.113   5.352   3.588
 6729TIP3   OH220143   2.526   0.539   3.436
 6729TIP3    H120144   2.564   0.467   3.487
 6729TIP3    H220145   2.434   0.541   3.463
 6730TIP3   OH220146   8.021   5.749   5.769
 6730TIP3    H120147   8.021   5.732   5.675
 6730TIP3    H220148   8.056   5.837   5.778
 6731TIP3   OH220149   5.591   4.716   0.377
 6731TIP3    H120150   5.566   4.751   0.292
 6731TIP3    H220151   5.517   4.661   0.403
 6732TIP3   OH220152   2.962   5.917   5.641
 6732TIP3    H120153   3.012   5.859   5.698
 6732TIP3    H220154   2.965   5.875   5.555
 6733TIP3   OH220155   7.775   6.996   6.595
 6733TIP3    H120156   7.859   7.016   6.635
 6733TIP3    H220157   7.760   6.903   6.613
 6734TIP3   OH220158   3.438   5.197   0.929
 6734TIP3    H120159   3.448   5.166   1.019
 6734TIP3    H220160   3.443   5.119   0.875
 6735TIP3   OH220161   8.249   5.927   2.840
 6735TIP3    H120162   8.156   5.941   2.860
 6735TIP3    H220163   8.264   5.976   2.759
 6736TIP3   OH220164   4.710   4.133   1.333
 6736TIP3    H120165   4.751   4.093   1.257
 6736TIP3    H220166   4.755   4.094   1.408
 6737TIP3   OH220167   6.306   5.531   5.088
 6737TIP3    H120168   6.372   5.583   5.042
 6737TIP3    H220169   6.349   5.504   5.169
 6738TIP3   OH220170   2.080   4.544   0.720
 6738TIP3    H120171   2.017   4.559   0.648
 6738TIP3    H220172   2.082   4.449   0.730
 6739TIP3   OH220173   1.263   4.011   3.687
 6739TIP3    H120174   1.260   3.920   3.719
 6739TIP3    H220175   1.316   4.057   3.751
 6740TIP3   OH220176   0.337   5.196   3.806
 6740TIP3    H120177   0.322   5.140   3.882
 6740TIP3    H220178   0.377   5.138   3.742
 6741TIP3   OH220179   2.785   7.451   5.842
 6741TIP3    H120180   2.758   7.542   5.833
 6741TIP3    H220181   2.861   7.453   5.900
 6742TIP3   OH220182   4.098   2.622   1.368
 6742TIP3    H120183   4.181   2.604   1.325
 6742TIP3    H220184   4.033   2.622   1.298
 6743TIP3   OH220185   2.167   4.290   4.250
 6743TIP3    H120186   2.226   4.294   4.174
 6743TIP3    H220187   2.225   4.287   4.326
 6744TIP3   OH220188   7.119   3.545   3.883
 6744TIP3    H120189   7.041   3.561   3.830
 6744TIP3    H220190   7.088   3.551   3.973
 6745TIP3   OH220191   2.601   1.973   1.439
 6745TIP3    H120192   2.686   1.982   1.396
 6745TIP3    H220193   2.540   2.019   1.382
 6746TIP3   OH220194   0.928   3.614   3.330
 6746TIP3    H120195   0.836   3.624   3.304
 6746TIP3    H220196   0.933   3.528   3.371
 6747TIP3   OH220197   6.133   7.159   3.253
 6747TIP3    H120198   6.054   7.194   3.294
 6747TIP3    H220199   6.186   7.128   3.327
 6748TIP3   OH220200   3.903   4.885   0.226
 6748TIP3    H120201   3.920   4.919   0.138
 6748TIP3    H220202   3.863   4.959   0.272
 6749TIP3   OH220203   1.089   2.517   6.340
 6749TIP3    H120204   1.068   2.609   6.326
 6749TIP3    H220205   1.012   2.469   6.308
 6750TIP3   OH220206   3.791   0.136   5.160
 6750TIP3    H120207   3.836   0.142   5.076
 6750TIP3    H220208   3.857   0.099   5.220
 6751TIP3   OH220209   0.226   5.372   3.613
 6751TIP3    H120210   0.279   5.451   3.617
 6751TIP3    H220211   0.265   5.313   3.678
 6752TIP3   OH220212   4.087   5.658   6.614
 6752TIP3    H120213   4.140   5.636   6.538
 6752TIP3    H220214   4.020   5.717   6.580
 6753TIP3   OH220215   0.113   5.145   2.498
 6753TIP3    H120216   0.136   5.215   2.437
 6753TIP3    H220217   0.103   5.067   2.442
 6754TIP3   OH220218   3.959   4.269   6.814
 6754TIP3    H120219   3.894   4.330   6.779
 6754TIP3    H220220   4.038   4.286   6.764
 6755TIP3   OH220221   3.731   6.118   3.779
 6755TIP3    H120222   3.737   6.140   3.872
 6755TIP3    H220223   3.814   6.148   3.742
 6756TIP3   OH220224   2.695   2.945   4.376
 6756TIP3    H120225   2.652   2.964   4.459
 6756TIP3    H220226   2.764   3.011   4.368
 6757TIP3   OH220227   7.178   4.229   4.885
 6757TIP3    H120228   7.250   4.220   4.823
 6757TIP3    H220229   7.216   4.205   4.970
 6758TIP3   OH220230   4.149   1.721   0.163
 6758TIP3    H120231   4.114   1.773   0.090
 6758TIP3    H220232   4.152   1.632   0.129
 6759TIP3   OH220233   2.438   7.355   4.858
 6759TIP3    H120234   2.532   7.340   4.849
 6759TIP3    H220235   2.399   7.308   4.785
 6760TIP3   OH220236   5.406   4.980   4.876
 6760TIP3    H120237   5.348   5.028   4.816
 6760TIP3    H220238   5.492   4.985   4.835
 6761TIP3   OH220239   1.202   2.846   2.896
 6761TIP3    H120240   1.263   2.883   2.960
 6761TIP3    H220241   1.154   2.780   2.945
 6762TIP3   OH220242   1.561   3.306   3.338
 6762TIP3    H120243   1.506   3.358   3.396
 6762TIP3    H220244   1.650   3.322   3.368
 6763TIP3   OH220245   8.120   2.402   2.547
 6763TIP3    H120246   8.122   2.497   2.557
 6763TIP3    H220247   8.037   2.384   2.503
 6764TIP3   OH220248   2.945   3.677   2.314
 6764TIP3    H120249   2.955   3.772   2.309
 6764TIP3    H220250   3.028   3.647   2.350
 6765TIP3   OH220251   0.402   6.007   3.852
 6765TIP3    H120252   0.359   6.065   3.789
 6765TIP3    H220253   0.336   5.940   3.872
 6766TIP3   OH220254   6.764   1.499   6.702
 6766TIP3    H120255   6.795   1.426   6.755
 6766TIP3    H220256   6.673   1.477   6.683
 6767TIP3   OH220257   7.394   1.251   6.203
 6767TIP3    H120258   7.433   1.254   6.116
 6767TIP3    H220259   7.329   1.181   6.197
 6768TIP3   OH220260   0.748   6.550   4.223
 6768TIP3    H120261   0.800   6.473   4.247
 6768TIP3    H220262   0.768   6.564   4.130
 6769TIP3   OH220263   0.548   6.918   0.522
 6769TIP3    H120264   0.540   6.846   0.583
 6769TIP3    H220265   0.591   6.881   0.445
 6770TIP3   OH220266   1.765   5.130   4.822
 6770TIP3    H120267   1.814   5.172   4.752
 6770TIP3    H220268   1.779   5.185   4.899
 6771TIP3   OH220269   4.507   3.176   5.979
 6771TIP3    H120270   4.557   3.096   5.993
 6771TIP3    H220271   4.464   3.163   5.895
 6772TIP3   OH220272   2.960   7.626   1.045
 6772TIP3    H120273   2.940   7.566   1.116
 6772TIP3    H220274   2.972   7.711   1.088
 6773TIP3   OH220275   3.597   4.454   4.862
 6773TIP3    H120276   3.664   4.520   4.882
 6773TIP3    H220277   3.614   4.384   4.925
 6774TIP3   OH220278   1.945   0.757   4.783
 6774TIP3    H120279   2.026   0.713   4.757
 6774TIP3    H220280   1.878   0.688   4.781
 6775TIP3   OH220281   2.652   0.542   2.329
 6775TIP3    H120282   2.696   0.521   2.247
 6775TIP3    H220283   2.712   0.599   2.376
 6776TIP3   OH220284   5.743   1.339   0.671
 6776TIP3    H120285   5.767   1.264   0.725
 6776TIP3    H220286   5.752   1.415   0.729
 6777TIP3   OH220287   2.927   4.651   2.692
 6777TIP3    H120288   2.985   4.701   2.635
 6777TIP3    H220289   2.975   4.645   2.775
 6778TIP3   OH220290   5.093   4.007   2.733
 6778TIP3    H120291   5.158   3.997   2.803
 6778TIP3    H220292   5.116   4.090   2.691
 6779TIP3   OH220293   4.150   2.411   1.012
 6779TIP3    H120294   4.236   2.370   1.010
 6779TIP3    H220295   4.128   2.426   0.920
 6780TIP3   OH220296   4.973   0.674   2.590
 6780TIP3    H120297   4.912   0.637   2.653
 6780TIP3    H220298   5.017   0.597   2.552
 6781TIP3   OH220299   1.707   6.197   5.068
 6781TIP3    H120300   1.801   6.188   5.087
 6781TIP3    H220301   1.683   6.281   5.108
 6782TIP3   OH220302   0.661   2.547   5.261
 6782TIP3    H120303   0.625   2.630   5.293
 6782TIP3    H220304   0.681   2.497   5.341
 6783TIP3   OH220305   0.810   6.066   6.629
 6783TIP3    H120306   0.728   6.083   6.675
 6783TIP3    H220307   0.783   6.024   6.547
 6784TIP3   OH220308   4.884   5.065   1.372
 6784TIP3    H120309   4.835   5.142   1.401
 6784TIP3    H220310   4.924   5.030   1.451
 6785TIP3   OH220311   1.085   2.074   6.295
 6785TIP3    H120312   1.046   2.117   6.371
 6785TIP3    H220313   1.034   1.994   6.283
 6786TIP3   OH220314   0.583   5.300   2.108
 6786TIP3    H120315   0.559   5.315   2.199
 6786TIP3    H220316   0.677   5.283   2.110
 6787TIP3   OH220317   2.051   0.703   2.272
 6787TIP3    H120318   2.065   0.693   2.177
 6787TIP3    H220319   2.112   0.773   2.297
 6788TIP3   OH220320   1.170   5.563   6.119
 6788TIP3    H120321   1.084   5.526   6.103
 6788TIP3    H220322   1.222   5.538   6.043
 6789TIP3   OH220323   6.744   5.439   3.441
 6789TIP3    H120324   6.763   5.346   3.446
 6789TIP3    H220325   6.710   5.462   3.527
 6790TIP3   OH220326   6.906   4.815   4.370
 6790TIP3    H120327   6.905   4.905   4.404
 6790TIP3    H220328   6.980   4.774   4.413
 6791TIP3   OH220329   6.015   3.331   3.846
 6791TIP3    H120330   6.050   3.414   3.813
 6791TIP3    H220331   5.927   3.326   3.809
 6792TIP3   OH220332   7.731   1.380   0.220
 6792TIP3    H120333   7.728   1.475   0.229
 6792TIP3    H220334   7.802   1.364   0.159
 6793TIP3   OH220335   5.246   6.011   0.314
 6793TIP3    H120336   5.255   5.940   0.378
 6793TIP3    H220337   5.201   5.970   0.240
 6794TIP3   OH220338   6.409   5.150   5.451
 6794TIP3    H120339   6.337   5.158   5.389
 6794TIP3    H220340   6.439   5.059   5.441
 6795TIP3   OH220341   8.213   3.784   0.452
 6795TIP3    H120342   8.182   3.754   0.538
 6795TIP3    H220343   8.254   3.869   0.470
 6796TIP3   OH220344   3.134   4.758   2.526
 6796TIP3    H120345   3.195   4.810   2.578
 6796TIP3    H220346   3.159   4.774   2.435
 6797TIP3   OH220347   3.121   2.191   5.367
 6797TIP3    H120348   3.072   2.198   5.449
 6797TIP3    H220349   3.095   2.270   5.318
 6798TIP3   OH220350   7.546   1.578   3.426
 6798TIP3    H120351   7.568   1.663   3.465
 6798TIP3    H220352   7.581   1.582   3.337
 6799TIP3   OH220353   1.467   0.110   0.387
 6799TIP3    H120354   1.430   0.117   0.299
 6799TIP3    H220355   1.555   0.145   0.378
 6800TIP3   OH220356   3.817   4.212   5.916
 6800TIP3    H120357   3.876   4.278   5.879
 6800TIP3    H220358   3.761   4.186   5.843
 6801TIP3   OH220359   5.147   7.757   4.847
 6801TIP3    H120360   5.205   7.681   4.848
 6801TIP3    H220361   5.194   7.823   4.797
 6802TIP3   OH220362   2.139   4.141   4.731
 6802TIP3    H120363   2.101   4.166   4.647
 6802TIP3    H220364   2.106   4.206   4.793
 6803TIP3   OH220365   7.144   2.892   5.060
 6803TIP3    H120366   7.063   2.939   5.044
 6803TIP3    H220367   7.186   2.886   4.974
 6804TIP3   OH220368   1.645   6.727   4.490
 6804TIP3    H120369   1.730   6.772   4.490
 6804TIP3    H220370   1.657   6.656   4.426
 6805TIP3   OH220371   5.176   0.061   1.839
 6805TIP3    H120372   5.149   0.046   1.748
 6805TIP3    H220373   5.097   0.045   1.890
 6806TIP3   OH220374   6.583   2.799   3.324
 6806TIP3    H120375   6.548   2.885   3.347
 6806TIP3    H220376   6.523   2.766   3.257
 6807TIP3   OH220377   0.640   5.880   1.971
 6807TIP3    H120378   0.709   5.926   1.923
 6807TIP3    H220379   0.687   5.818   2.027
 6808TIP3   OH220380   3.894   0.183   4.903
 6808TIP3    H120381   3.835   0.141   4.841
 6808TIP3    H220382   3.867   0.275   4.902
 6809TIP3   OH220383   3.568   0.849   0.950
 6809TIP3    H120384   3.531   0.830   1.037
 6809TIP3    H220385   3.497   0.830   0.889
 6810TIP3   OH220386   7.975   4.703   0.662
 6810TIP3    H120387   7.940   4.749   0.738
 6810TIP3    H220388   7.981   4.612   0.690
 6811TIP3   OH220389   7.632   1.443   5.246
 6811TIP3    H120390   7.695   1.385   5.289
 6811TIP3    H220391   7.645   1.427   5.153
 6812TIP3   OH220392   7.560   7.270   2.444
 6812TIP3    H120393   7.563   7.323   2.524
 6812TIP3    H220394   7.581   7.181   2.473
 6813TIP3   OH220395   6.205   0.885   0.609
 6813TIP3    H120396   6.141   0.821   0.642
 6813TIP3    H220397   6.257   0.836   0.546
 6814TIP3   OH220398   4.647   2.024   4.954
 6814TIP3    H120399   4.715   2.065   5.006
 6814TIP3    H220400   4.568   2.032   5.007
 6815TIP3   OH220401   6.024   6.767   4.174
 6815TIP3    H120402   6.113   6.752   4.209
 6815TIP3    H220403   6.005   6.858   4.197
 6816TIP3   OH220404   3.695   2.831   6.828
 6816TIP3    H120405   3.751   2.899   6.790
 6816TIP3    H220406   3.740   2.749   6.806
 6817TIP3   OH220407   8.041   1.442   1.055
 6817TIP3    H120408   8.013   1.351   1.063
 6817TIP3    H220409   8.036   1.460   0.961
 6818TIP3   OH220410   4.186   0.426   6.717
 6818TIP3    H120411   4.209   0.461   6.631
 6818TIP3    H220412   4.204   0.498   6.778
 6819TIP3   OH220413   1.174   4.444   1.982
 6819TIP3    H120414   1.234   4.518   1.990
 6819TIP3    H220415   1.168   4.409   2.071
 6820TIP3   OH220416   1.581   7.030   0.279
 6820TIP3    H120417   1.637   7.099   0.315
 6820TIP3    H220418   1.638   6.954   0.270
 6821TIP3   OH220419   0.875   1.698   0.948
 6821TIP3    H120420   0.927   1.688   1.028
 6821TIP3    H220421   0.787   1.673   0.972
 6822TIP3   OH220422   7.593   1.749   1.497
 6822TIP3    H120423   7.585   1.725   1.589
 6822TIP3    H220424   7.544   1.831   1.489
 6823TIP3   OH220425   1.816   7.654   4.571
 6823TIP3    H120426   1.741   7.616   4.618
 6823TIP3    H220427   1.776   7.697   4.495
 6824TIP3   OH220428   0.254   0.740   4.811
 6824TIP3    H120429   0.337   0.787   4.803
 6824TIP3    H220430   0.194   0.804   4.848
 6825TIP3   OH220431   4.811   7.620   4.281
 6825TIP3    H120432   4.790   7.709   4.310
 6825TIP3    H220433   4.799   7.622   4.186
 6826TIP3   OH220434   3.857   2.492   3.086
 6826TIP3    H120435   3.874   2.572   3.135
 6826TIP3    H220436   3.788   2.448   3.135
 6827TIP3   OH220437   6.867   2.862   4.670
 6827TIP3    H120438   6.922   2.908   4.607
 6827TIP3    H220439   6.896   2.771   4.665
 6828TIP3   OH220440   7.834   6.984   2.827
 6828TIP3    H120441   7.894   7.048   2.865
 6828TIP3    H220442   7.825   6.917   2.894
 6829TIP3   OH220443   4.563   2.232   2.476
 6829TIP3    H120444   4.603   2.146   2.467
 6829TIP3    H220445   4.505   2.224   2.552
 6830TIP3   OH220446   4.732   1.470   6.602
 6830TIP3    H120447   4.752   1.547   6.549
 6830TIP3    H220448   4.637   1.459   6.595
 6831TIP3   OH220449   5.616   4.958   1.890
 6831TIP3    H120450   5.686   4.892   1.888
 6831TIP3    H220451   5.573   4.949   1.805
 6832TIP3   OH220452   6.765   6.334   3.225
 6832TIP3    H120453   6.825   6.401   3.192
 6832TIP3    H220454   6.722   6.299   3.147
 6833TIP3   OH220455   3.985   3.597   0.539
 6833TIP3    H120456   4.002   3.676   0.590
 6833TIP3    H220457   4.003   3.624   0.448
 6834TIP3   OH220458   6.882   6.091   6.223
 6834TIP3    H120459   6.841   6.176   6.242
 6834TIP3    H220460   6.811   6.036   6.191
 6835TIP3   OH220461   2.535   1.118   5.985
 6835TIP3    H120462   2.626   1.093   5.997
 6835TIP3    H220463   2.508   1.072   5.905
 6836TIP3   OH220464   5.622   5.971   1.518
 6836TIP3    H120465   5.581   6.057   1.530
 6836TIP3    H220466   5.573   5.913   1.577
 6837TIP3   OH220467   6.162   2.907   3.351
 6837TIP3    H120468   6.213   2.986   3.365
 6837TIP3    H220469   6.098   2.931   3.284
 6838TIP3   OH220470   8.237   5.628   4.740
 6838TIP3    H120471   8.150   5.645   4.777
 6838TIP3    H220472   8.234   5.666   4.652
 6839TIP3   OH220473   6.356   0.578   4.771
 6839TIP3    H120474   6.289   0.597   4.705
 6839TIP3    H220475   6.319   0.611   4.853
 6840TIP3   OH220476   0.791   2.523   2.387
 6840TIP3    H120477   0.836   2.603   2.361
 6840TIP3    H220478   0.733   2.550   2.458
 6841TIP3   OH220479   0.204   4.428  -0.008
 6841TIP3    H120480   0.179   4.449   0.082
 6841TIP3    H220481   0.267   4.497  -0.031
 6842TIP3   OH220482   3.370   5.723   1.691
 6842TIP3    H120483   3.288   5.698   1.649
 6842TIP3    H220484   3.365   5.819   1.698
 6843TIP3   OH220485   0.332   2.377   1.173
 6843TIP3    H120486   0.262   2.338   1.120
 6843TIP3    H220487   0.337   2.468   1.142
 6844TIP3   OH220488   7.678   6.311   4.451
 6844TIP3    H120489   7.755   6.257   4.434
 6844TIP3    H220490   7.644   6.279   4.534
 6845TIP3   OH220491   2.748   7.643   0.232
 6845TIP3    H120492   2.671   7.625   0.179
 6845TIP3    H220493   2.821   7.644   0.170
 6846TIP3   OH220494   1.546   3.844   1.380
 6846TIP3    H120495   1.565   3.806   1.295
 6846TIP3    H220496   1.630   3.844   1.426
 6847TIP3   OH220497   5.447   1.358   0.609
 6847TIP3    H120498   5.515   1.306   0.652
 6847TIP3    H220499   5.432   1.432   0.668
 6848TIP3   OH220500   2.812   7.152   3.310
 6848TIP3    H120501   2.854   7.165   3.395
 6848TIP3    H220502   2.855   7.074   3.273
 6849TIP3   OH220503   7.577   3.134   1.478
 6849TIP3    H120504   7.495   3.094   1.446
 6849TIP3    H220505   7.549   3.216   1.518
 6850TIP3   OH220506   7.798   1.704   1.803
 6850TIP3    H120507   7.878   1.710   1.751
 6850TIP3    H220508   7.828   1.686   1.892
 6851TIP3   OH220509   4.413   3.923   5.206
 6851TIP3    H120510   4.414   3.899   5.113
 6851TIP3    H220511   4.503   3.907   5.235
 6852TIP3   OH220512   1.000   5.267   0.320
 6852TIP3    H120513   1.069   5.230   0.374
 6852TIP3    H220514   1.038   5.275   0.232
 6853TIP3   OH220515   2.846   2.754   5.739
 6853TIP3    H120516   2.876   2.699   5.812
 6853TIP3    H220517   2.829   2.839   5.778
 6854TIP3   OH220518   6.070   1.390   0.848
 6854TIP3    H120519   6.094   1.481   0.830
 6854TIP3    H220520   6.048   1.354   0.762
 6855TIP3   OH220521   3.873   0.522   5.018
 6855TIP3    H120522   3.961   0.489   5.000
 6855TIP3    H220523   3.851   0.575   4.941
 6856TIP3   OH220524   6.455   1.201   0.737
 6856TIP3    H120525   6.427   1.286   0.702
 6856TIP3    H220526   6.507   1.163   0.666
 6857TIP3   OH220527   7.648   1.350   4.021
 6857TIP3    H120528   7.664   1.357   4.115
 6857TIP3    H220529   7.563   1.394   4.008
 6858TIP3   OH220530   1.431   2.067   2.080
 6858TIP3    H120531   1.430   2.046   1.986
 6858TIP3    H220532   1.408   2.159   2.084
 6859TIP3   OH220533   6.639   4.477   5.586
 6859TIP3    H120534   6.594   4.401   5.623
 6859TIP3    H220535   6.703   4.502   5.654
 6860TIP3   OH220536   6.358   4.510   5.683
 6860TIP3    H120537   6.391   4.432   5.729
 6860TIP3    H220538   6.294   4.548   5.744
 6861TIP3   OH220539   4.650   1.302   3.962
 6861TIP3    H120540   4.701   1.378   3.986
 6861TIP3    H220541   4.591   1.333   3.892
 6862TIP3   OH220542   4.070   5.922   3.475
 6862TIP3    H120543   3.986   5.876   3.473
 6862TIP3    H220544   4.075   5.966   3.390
 6863TIP3   OH220545   0.110   4.287   3.695
 6863TIP3    H120546   0.035   4.268   3.638
 6863TIP3    H220547   0.185   4.248   3.651
 6864TIP3   OH220548   2.732   7.823   1.252
 6864TIP3    H120549   2.743   7.867   1.336
 6864TIP3    H220550   2.651   7.773   1.261
 6865TIP3   OH220551   1.465   1.116  -0.011
 6865TIP3    H120552   1.475   1.149   0.078
 6865TIP3    H220553   1.373   1.094  -0.018
 6866TIP3   OH220554   5.561   3.048   6.387
 6866TIP3    H120555   5.632   3.068   6.326
 6866TIP3    H220556   5.497   2.999   6.335
 6867TIP3   OH220557   7.263   2.481   2.119
 6867TIP3    H120558   7.280   2.494   2.026
 6867TIP3    H220559   7.298   2.394   2.139
 6868TIP3   OH220560   7.409   4.008   3.909
 6868TIP3    H120561   7.474   4.030   3.842
 6868TIP3    H220562   7.382   3.919   3.888
 6869TIP3   OH220563   2.242   1.447   2.756
 6869TIP3    H120564   2.259   1.515   2.691
 6869TIP3    H220565   2.258   1.490   2.840
 6870TIP3   OH220566   1.149   0.072   0.442
 6870TIP3    H120567   1.124   0.073   0.535
 6870TIP3    H220568   1.242   0.049   0.442
 6871TIP3   OH220569   5.841   4.113   2.340
 6871TIP3    H120570   5.932   4.085   2.347
 6871TIP3    H220571   5.790   4.033   2.349
 6872TIP3   OH220572   3.184   6.282   6.771
 6872TIP3    H120573   3.189   6.297   6.677
 6872TIP3    H220574   3.158   6.190   6.780
 6873TIP3   OH220575   1.742   7.099   3.577
 6873TIP3    H120576   1.715   7.189   3.564
 6873TIP3    H220577   1.817   7.087   3.518
 6874TIP3   OH220578   6.846   5.180   3.404
 6874TIP3    H120579   6.928   5.131   3.399
 6874TIP3    H220580   6.826   5.201   3.313
 6875TIP3   OH220581   5.165   5.394   2.118
 6875TIP3    H120582   5.226   5.356   2.182
 6875TIP3    H220583   5.192   5.485   2.110
 6876TIP3   OH220584   1.046   2.673   1.288
 6876TIP3    H120585   1.078   2.688   1.377
 6876TIP3    H220586   1.126   2.660   1.236
 6877TIP3   OH220587   0.522   4.950   1.524
 6877TIP3    H120588   0.514   4.861   1.559
 6877TIP3    H220589   0.534   5.005   1.601
 6878TIP3   OH220590   7.681   1.949   1.130
 6878TIP3    H120591   7.683   2.037   1.091
 6878TIP3    H220592   7.741   1.955   1.205
 6879TIP3   OH220593   0.252   1.309   2.085
 6879TIP3    H120594   0.237   1.215   2.087
 6879TIP3    H220595   0.340   1.320   2.121
 6880TIP3   OH220596   1.613   7.474   1.086
 6880TIP3    H120597   1.662   7.454   1.006
 6880TIP3    H220598   1.575   7.391   1.112
 6881TIP3   OH220599   3.121   2.275   0.778
 6881TIP3    H120600   3.122   2.245   0.869
 6881TIP3    H220601   3.033   2.311   0.767
 6882TIP3   OH220602   4.683   5.174   0.312
 6882TIP3    H120603   4.718   5.181   0.401
 6882TIP3    H220604   4.589   5.160   0.324
 6883TIP3   OH220605   1.451   3.143   1.080
 6883TIP3    H120606   1.382   3.079   1.061
 6883TIP3    H220607   1.408   3.228   1.070
 6884TIP3   OH220608   3.044   4.337   4.093
 6884TIP3    H120609   3.122   4.336   4.039
 6884TIP3    H220610   3.075   4.366   4.179
 6885TIP3   OH220611   5.032   7.194   1.970
 6885TIP3    H120612   5.112   7.188   2.022
 6885TIP3    H220613   4.989   7.110   1.983
 6886TIP3   OH220614   2.226   5.318   5.662
 6886TIP3    H120615   2.196   5.396   5.709
 6886TIP3    H220616   2.315   5.303   5.695
 6887TIP3   OH220617   1.928   2.868   0.268
 6887TIP3    H120618   1.912   2.950   0.220
 6887TIP3    H220619   1.888   2.801   0.214
 6888TIP3   OH220620   2.898   4.286   4.663
 6888TIP3    H120621   2.888   4.236   4.582
 6888TIP3    H220622   2.808   4.302   4.692
 6889TIP3   OH220623   5.115   1.818   4.693
 6889TIP3    H120624   5.156   1.903   4.707
 6889TIP3    H220625   5.025   1.829   4.723
 6890TIP3   OH220626   6.973   0.133   3.564
 6890TIP3    H120627   6.943   0.042   3.566
 6890TIP3    H220628   7.068   0.126   3.556
 6891TIP3   OH220629   7.107   6.093   3.181
 6891TIP3    H120630   7.096   6.139   3.098
 6891TIP3    H220631   7.177   6.141   3.226
 6892TIP3   OH220632   1.550   4.988   5.997
 6892TIP3    H120633   1.609   4.916   6.019
 6892TIP3    H220634   1.562   5.002   5.903
 6893TIP3   OH220635   2.269   7.551   3.549
 6893TIP3    H120636   2.287   7.547   3.643
 6893TIP3    H220637   2.318   7.627   3.519
 6894TIP3   OH220638   1.725   6.151   4.790
 6894TIP3    H120639   1.816   6.177   4.773
 6894TIP3    H220640   1.710   6.173   4.882
 6895TIP3   OH220641   7.500   3.071   0.223
 6895TIP3    H120642   7.571   3.008   0.213
 6895TIP3    H220643   7.457   3.072   0.137
 6896TIP3   OH220644   3.733   0.851   3.509
 6896TIP3    H120645   3.760   0.813   3.424
 6896TIP3    H220646   3.760   0.785   3.573
 6897TIP3   OH220647   3.610   3.812   4.683
 6897TIP3    H120648   3.680   3.767   4.638
 6897TIP3    H220649   3.530   3.782   4.640
 6898TIP3   OH220650   1.213   1.637   0.992
 6898TIP3    H120651   1.305   1.655   1.011
 6898TIP3    H220652   1.196   1.684   0.910
 6899TIP3   OH220653   1.321   4.393   1.011
 6899TIP3    H120654   1.388   4.457   1.034
 6899TIP3    H220655   1.325   4.327   1.081
 6900TIP3   OH220656   0.571   6.317   0.179
 6900TIP3    H120657   0.606   6.230   0.163
 6900TIP3    H220658   0.476   6.308   0.169
 6901TIP3   OH220659   5.244   5.733   5.044
 6901TIP3    H120660   5.266   5.748   4.952
 6901TIP3    H220661   5.235   5.821   5.082
 6902TIP3   OH220662   3.795   2.056   3.541
 6902TIP3    H120663   3.769   1.988   3.603
 6902TIP3    H220664   3.887   2.073   3.561
 6903TIP3   OH220665   3.774   0.527   1.944
 6903TIP3    H120666   3.863   0.560   1.951
 6903TIP3    H220667   3.742   0.561   1.860
 6904TIP3   OH220668   5.117   4.145   5.341
 6904TIP3    H120669   5.039   4.176   5.294
 6904TIP3    H220670   5.190   4.163   5.283
 6905TIP3   OH220671   1.020   6.654   6.257
 6905TIP3    H120672   1.031   6.574   6.308
 6905TIP3    H220673   1.058   6.633   6.171
 6906TIP3   OH220674   4.189   2.077   6.434
 6906TIP3    H120675   4.194   1.990   6.393
 6906TIP3    H220676   4.096   2.090   6.452
 6907TIP3   OH220677   0.376   2.076   1.560
 6907TIP3    H120678   0.391   1.985   1.538
 6907TIP3    H220679   0.408   2.085   1.650
 6908TIP3   OH220680   5.072   7.256   2.349
 6908TIP3    H120681   5.087   7.170   2.388
 6908TIP3    H220682   5.122   7.255   2.267
 6909TIP3   OH220683   6.309   2.651   0.837
 6909TIP3    H120684   6.310   2.664   0.743
 6909TIP3    H220685   6.238   2.707   0.868
 6910TIP3   OH220686   3.610   6.557   5.637
 6910TIP3    H120687   3.653   6.639   5.612
 6910TIP3    H220688   3.517   6.573   5.621
 6911TIP3   OH220689   7.354   4.640   1.037
 6911TIP3    H120690   7.388   4.551   1.025
 6911TIP3    H220691   7.432   4.696   1.033
 6912TIP3   OH220692   4.114   5.035   1.191
 6912TIP3    H120693   4.172   5.026   1.267
 6912TIP3    H220694   4.038   4.982   1.213
 6913TIP3   OH220695   2.110   5.357   4.780
 6913TIP3    H120696   2.086   5.435   4.830
 6913TIP3    H220697   2.183   5.385   4.725
 6914TIP3   OH220698   3.362   4.866   2.642
 6914TIP3    H120699   3.337   4.950   2.680
 6914TIP3    H220700   3.417   4.826   2.709
 6915TIP3   OH220701   2.950   6.952   0.345
 6915TIP3    H120702   3.027   7.003   0.320
 6915TIP3    H220703   2.878   7.014   0.343
 6916TIP3   OH220704   7.287   3.745   1.553
 6916TIP3    H120705   7.276   3.689   1.476
 6916TIP3    H220706   7.296   3.833   1.518
 6917TIP3   OH220707   5.577   4.575   6.161
 6917TIP3    H120708   5.585   4.571   6.066
 6917TIP3    H220709   5.650   4.523   6.193
 6918TIP3   OH220710   3.607   0.146   0.098
 6918TIP3    H120711   3.606   0.086   0.023
 6918TIP3    H220712   3.700   0.167   0.110
 6919TIP3   OH220713   2.657   1.713   6.485
 6919TIP3    H120714   2.746   1.678   6.492
 6919TIP3    H220715   2.669   1.804   6.456
 6920TIP3   OH220716   1.263   6.588   2.764
 6920TIP3    H120717   1.350   6.600   2.727
 6920TIP3    H220718   1.259   6.494   2.785
 6921TIP3   OH220719   1.041   7.316   4.836
 6921TIP3    H120720   0.963   7.349   4.881
 6921TIP3    H220721   1.008   7.243   4.784
 6922TIP3   OH220722   3.668   5.765   5.286
 6922TIP3    H120723   3.760   5.742   5.275
 6922TIP3    H220724   3.630   5.689   5.331
 6923TIP3   OH220725   6.859   6.262   4.298
 6923TIP3    H120726   6.902   6.338   4.337
 6923TIP3    H220727   6.790   6.299   4.244
 6924TIP3   OH220728   6.451   5.500   6.448
 6924TIP3    H120729   6.505   5.420   6.451
 6924TIP3    H220730   6.375   5.475   6.396
 6925TIP3   OH220731   0.415   5.487   3.034
 6925TIP3    H120732   0.500   5.444   3.025
 6925TIP3    H220733   0.387   5.466   3.123
 6926TIP3   OH220734   2.838   3.434   5.359
 6926TIP3    H120735   2.916   3.380   5.366
 6926TIP3    H220736   2.868   3.515   5.318
 6927TIP3   OH220737   2.199   3.893   5.367
 6927TIP3    H120738   2.226   3.888   5.458
 6927TIP3    H220739   2.106   3.916   5.371
 6928TIP3   OH220740   2.724   1.062   4.707
 6928TIP3    H120741   2.795   1.070   4.771
 6928TIP3    H220742   2.745   0.984   4.657
 6929TIP3   OH220743   6.386   4.789   1.643
 6929TIP3    H120744   6.409   4.866   1.590
 6929TIP3    H220745   6.331   4.736   1.586
 6930TIP3   OH220746   3.154   1.111   0.698
 6930TIP3    H120747   3.212   1.134   0.625
 6930TIP3    H220748   3.075   1.076   0.655
 6931TIP3   OH220749   1.571   6.509   3.270
 6931TIP3    H120750   1.512   6.580   3.294
 6931TIP3    H220751   1.515   6.445   3.227
 6932TIP3   OH220752   5.731   0.485   5.650
 6932TIP3    H120753   5.763   0.457   5.735
 6932TIP3    H220754   5.637   0.468   5.652
 6933TIP3   OH220755   5.748   2.117   3.089
 6933TIP3    H120756   5.770   2.206   3.064
 6933TIP3    H220757   5.701   2.082   3.013
 6934TIP3   OH220758   2.713   3.520   2.308
 6934TIP3    H120759   2.793   3.570   2.322
 6934TIP3    H220760   2.741   3.429   2.310
 6935TIP3   OH220761   4.240   6.512   4.044
 6935TIP3    H120762   4.315   6.556   4.004
 6935TIP3    H220763   4.197   6.468   3.971
 6936TIP3   OH220764   5.425   5.516   4.877
 6936TIP3    H120765   5.413   5.608   4.853
 6936TIP3    H220766   5.347   5.494   4.929
 6937TIP3   OH220767   0.030   3.367   0.230
 6937TIP3    H120768  -0.006   3.280   0.213
 6937TIP3    H220769  -0.040   3.412   0.278
 6938TIP3   OH220770   5.142   0.721   1.823
 6938TIP3    H120771   5.095   0.761   1.750
 6938TIP3    H220772   5.160   0.631   1.794
 6939TIP3   OH220773   7.551   3.237   1.012
 6939TIP3    H120774   7.516   3.322   0.987
 6939TIP3    H220775   7.604   3.209   0.937
 6940TIP3   OH220776   0.890   5.763   1.515
 6940TIP3    H120777   0.885   5.668   1.509
 6940TIP3    H220778   0.814   5.787   1.569
 6941TIP3   OH220779   5.446   0.383   5.686
 6941TIP3    H120780   5.370   0.418   5.639
 6941TIP3    H220781   5.433   0.289   5.684
 6942TIP3   OH220782   2.718   3.346   2.868
 6942TIP3    H120783   2.721   3.376   2.777
 6942TIP3    H220784   2.704   3.426   2.919
 6943TIP3   OH220785   5.631   2.094   1.080
 6943TIP3    H120786   5.564   2.033   1.048
 6943TIP3    H220787   5.603   2.116   1.169
 6944TIP3   OH220788   5.564   6.320   1.996
 6944TIP3    H120789   5.609   6.239   2.021
 6944TIP3    H220790   5.633   6.385   1.990
 6945TIP3   OH220791   5.597   2.378   2.059
 6945TIP3    H120792   5.630   2.457   2.104
 6945TIP3    H220793   5.565   2.410   1.975
 6946TIP3   OH220794   8.202   5.302   0.696
 6946TIP3    H120795   8.125   5.275   0.645
 6946TIP3    H220796   8.248   5.221   0.715
 6947TIP3   OH220797   0.186   6.317   0.866
 6947TIP3    H120798   0.231   6.399   0.845
 6947TIP3    H220799   0.129   6.301   0.791
 6948TIP3   OH220800   5.281   5.228   5.867
 6948TIP3    H120801   5.345   5.219   5.937
 6948TIP3    H220802   5.332   5.217   5.787
 6949TIP3   OH220803   3.231   1.167   4.679
 6949TIP3    H120804   3.161   1.230   4.694
 6949TIP3    H220805   3.304   1.219   4.648
 6950TIP3   OH220806   4.167   5.264   0.997
 6950TIP3    H120807   4.077   5.296   1.007
 6950TIP3    H220808   4.178   5.200   1.068
 6951TIP3   OH220809   1.634   6.889   1.463
 6951TIP3    H120810   1.721   6.876   1.426
 6951TIP3    H220811   1.591   6.950   1.403
 6952TIP3   OH220812   4.495   1.975   0.343
 6952TIP3    H120813   4.476   2.061   0.305
 6952TIP3    H220814   4.590   1.976   0.357
 6953TIP3   OH220815   2.610   7.152   1.389
 6953TIP3    H120816   2.602   7.245   1.411
 6953TIP3    H220817   2.605   7.150   1.294
 6954TIP3   OH220818   6.108   3.709   2.739
 6954TIP3    H120819   6.134   3.710   2.831
 6954TIP3    H220820   6.153   3.633   2.702
 6955TIP3   OH220821   5.039   4.507   0.795
 6955TIP3    H120822   5.009   4.578   0.737
 6955TIP3    H220823   4.963   4.450   0.805
 6956TIP3   OH220824   2.605   3.588   6.347
 6956TIP3    H120825   2.696   3.591   6.317
 6956TIP3    H220826   2.609   3.542   6.431
 6957TIP3   OH220827   3.325   2.027   3.237
 6957TIP3    H120828   3.417   2.024   3.265
 6957TIP3    H220829   3.304   2.120   3.233
 6958TIP3   OH220830   4.013   5.290   1.858
 6958TIP3    H120831   3.974   5.211   1.821
 6958TIP3    H220832   4.096   5.261   1.895
 6959TIP3   OH220833   5.510   6.473   1.365
 6959TIP3    H120834   5.605   6.484   1.367
 6959TIP3    H220835   5.476   6.561   1.347
 6960TIP3   OH220836   6.526   2.425   1.857
 6960TIP3    H120837   6.554   2.334   1.871
 6960TIP3    H220838   6.498   2.428   1.766
 6961TIP3   OH220839   8.001   7.507   6.278
 6961TIP3    H120840   8.082   7.545   6.243
 6961TIP3    H220841   7.960   7.464   6.202
 6962TIP3   OH220842   2.522   2.215   5.475
 6962TIP3    H120843   2.456   2.260   5.423
 6962TIP3    H220844   2.491   2.124   5.481
 6963TIP3   OH220845   7.842   4.705   4.108
 6963TIP3    H120846   7.840   4.612   4.086
 6963TIP3    H220847   7.790   4.747   4.040
 6964TIP3   OH220848   4.282   2.014   4.770
 6964TIP3    H120849   4.296   2.022   4.675
 6964TIP3    H220850   4.357   2.057   4.809
 6965TIP3   OH220851   4.868   3.634   2.637
 6965TIP3    H120852   4.906   3.611   2.722
 6965TIP3    H220853   4.915   3.713   2.611
 6966TIP3   OH220854   4.447   1.149   5.600
 6966TIP3    H120855   4.498   1.216   5.554
 6966TIP3    H220856   4.473   1.158   5.692
 6967TIP3   OH220857   8.002   4.825   0.128
 6967TIP3    H120858   7.986   4.738   0.091
 6967TIP3    H220859   8.046   4.807   0.212
 6968TIP3   OH220860   2.662   7.278   2.681
 6968TIP3    H120861   2.599   7.222   2.636
 6968TIP3    H220862   2.608   7.340   2.731
 6969TIP3   OH220863   0.665   3.619   3.203
 6969TIP3    H120864   0.681   3.712   3.183
 6969TIP3    H220865   0.578   3.618   3.241
 6970TIP3   OH220866   1.115   4.760   3.781
 6970TIP3    H120867   1.185   4.708   3.742
 6970TIP3    H220868   1.134   4.850   3.756
 6971TIP3   OH220869   6.741   3.890   0.080
 6971TIP3    H120870   6.826   3.847   0.089
 6971TIP3    H220871   6.754   3.978   0.116
 6972TIP3   OH220872   5.762   1.189   6.095
 6972TIP3    H120873   5.677   1.215   6.131
 6972TIP3    H220874   5.826   1.227   6.154
 6973TIP3   OH220875   0.383   7.679   4.894
 6973TIP3    H120876   0.343   7.664   4.979
 6973TIP3    H220877   0.356   7.604   4.841
 6974TIP3   OH220878   6.574   3.229   3.005
 6974TIP3    H120879   6.522   3.170   2.951
 6974TIP3    H220880   6.641   3.263   2.945
 6975TIP3   OH220881   6.446   5.893   0.922
 6975TIP3    H120882   6.464   5.885   1.016
 6975TIP3    H220883   6.512   5.836   0.881
 6976TIP3   OH220884   1.484   1.449   2.175
 6976TIP3    H120885   1.529   1.496   2.104
 6976TIP3    H220886   1.555   1.410   2.226
 6977TIP3   OH220887   0.987   3.063   5.251
 6977TIP3    H120888   0.924   3.135   5.253
 6977TIP3    H220889   1.072   3.105   5.261
 6978TIP3   OH220890   1.076   7.404   0.529
 6978TIP3    H120891   1.050   7.319   0.568
 6978TIP3    H220892   0.992   7.449   0.514
 6979TIP3   OH220893   3.275   4.850   1.637
 6979TIP3    H120894   3.337   4.784   1.669
 6979TIP3    H220895   3.197   4.800   1.614
 6980TIP3   OH220896   4.468   1.852   2.895
 6980TIP3    H120897   4.388   1.850   2.946
 6980TIP3    H220898   4.517   1.927   2.929
 6981TIP3   OH220899   1.766   0.391   3.545
 6981TIP3    H120900   1.823   0.345   3.483
 6981TIP3    H220901   1.706   0.442   3.490
 6982TIP3   OH220902   4.200   3.257   3.413
 6982TIP3    H120903   4.263   3.284   3.347
 6982TIP3    H220904   4.127   3.319   3.403
 6983TIP3   OH220905   6.184   1.135   6.409
 6983TIP3    H120906   6.098   1.139   6.367
 6983TIP3    H220907   6.172   1.075   6.483
 6984TIP3   OH220908   0.633   7.526   4.170
 6984TIP3    H120909   0.673   7.446   4.135
 6984TIP3    H220910   0.679   7.542   4.252
 6985TIP3   OH220911   1.010   0.293   5.873
 6985TIP3    H120912   1.077   0.240   5.830
 6985TIP3    H220913   0.933   0.284   5.817
 6986TIP3   OH220914   3.871   5.604   1.804
 6986TIP3    H120915   3.804   5.570   1.863
 6986TIP3    H220916   3.914   5.673   1.853
 6987TIP3   OH220917   3.363   0.171   1.640
 6987TIP3    H120918   3.364   0.250   1.693
 6987TIP3    H220919   3.448   0.170   1.595
 6988TIP3   OH220920   3.383   3.256   4.973
 6988TIP3    H120921   3.343   3.327   4.922
 6988TIP3    H220922   3.427   3.202   4.908
 6989TIP3   OH220923   8.045   1.602   4.835
 6989TIP3    H120924   8.130   1.646   4.831
 6989TIP3    H220925   8.032   1.568   4.746
 6990TIP3   OH220926   1.949   0.578   1.390
 6990TIP3    H120927   2.003   0.594   1.312
 6990TIP3    H220928   1.897   0.501   1.367
 6991TIP3   OH220929   5.063   6.706   6.512
 6991TIP3    H120930   5.152   6.733   6.536
 6991TIP3    H220931   5.071   6.675   6.422
 6992TIP3   OH220932   7.164   1.626   5.764
 6992TIP3    H120933   7.113   1.706   5.782
 6992TIP3    H220934   7.241   1.634   5.820
 6993TIP3   OH220935   7.141   0.420   0.248
 6993TIP3    H120936   7.124   0.341   0.197
 6993TIP3    H220937   7.073   0.420   0.315
 6994TIP3   OH220938   2.988   3.225   0.814
 6994TIP3    H120939   2.902   3.223   0.773
 6994TIP3    H220940   3.019   3.135   0.809
 6995TIP3   OH220941   7.859   0.252   0.458
 6995TIP3    H120942   7.882   0.259   0.550
 6995TIP3    H220943   7.764   0.267   0.456
 6996TIP3   OH220944   2.446   2.424   6.705
 6996TIP3    H120945   2.385   2.406   6.777
 6996TIP3    H220946   2.390   2.442   6.630
 6997TIP3   OH220947   7.272   0.675   3.248
 6997TIP3    H120948   7.339   0.740   3.229
 6997TIP3    H220949   7.289   0.648   3.338
 6998TIP3   OH220950   0.562   3.465   3.518
 6998TIP3    H120951   0.554   3.462   3.422
 6998TIP3    H220952   0.550   3.375   3.546
 6999TIP3   OH220953   7.201   2.509   1.375
 6999TIP3    H120954   7.131   2.498   1.439
 6999TIP3    H220955   7.166   2.571   1.311
 7000TIP3   OH220956   3.401   7.538   1.524
 7000TIP3    H120957   3.463   7.583   1.581
 7000TIP3    H220958   3.316   7.550   1.566
 7001TIP3   OH220959   0.341   7.141   4.746
 7001TIP3    H120960   0.324   7.182   4.831
 7001TIP3    H220961   0.254   7.117   4.714
 7002TIP3   OH220962   0.295   5.537   6.389
 7002TIP3    H120963   0.262   5.474   6.453
 7002TIP3    H220964   0.390   5.527   6.391
 7003TIP3   OH220965   3.313   0.732   4.239
 7003TIP3    H120966   3.296   0.825   4.222
 7003TIP3    H220967   3.294   0.722   4.332
 7004TIP3   OH220968   0.319   5.226   2.831
 7004TIP3    H120969   0.391   5.275   2.871
 7004TIP3    H220970   0.240   5.276   2.853
 7005TIP3   OH220971   3.545   7.088   2.558
 7005TIP3    H120972   3.640   7.088   2.569
 7005TIP3    H220973   3.522   6.995   2.548
 7006TIP3   OH220974   2.383   0.751   5.701
 7006TIP3    H120975   2.347   0.780   5.785
 7006TIP3    H220976   2.313   0.764   5.638
 7007TIP3   OH220977   3.485   3.283   3.729
 7007TIP3    H120978   3.431   3.267   3.806
 7007TIP3    H220979   3.442   3.233   3.659
 7008TIP3   OH220980   3.989   7.386   6.263
 7008TIP3    H120981   4.069   7.364   6.216
 7008TIP3    H220982   4.012   7.461   6.317
 7009TIP3   OH220983   3.561   2.887   3.158
 7009TIP3    H120984   3.606   2.969   3.178
 7009TIP3    H220985   3.583   2.869   3.067
 7010TIP3   OH220986   7.664   3.449   3.600
 7010TIP3    H120987   7.628   3.495   3.524
 7010TIP3    H220988   7.632   3.360   3.592
 7011TIP3   OH220989   6.045   7.715   3.525
 7011TIP3    H120990   6.090   7.778   3.581
 7011TIP3    H220991   5.997   7.769   3.462
 7012TIP3   OH220992   0.088   0.180   3.711
 7012TIP3    H120993   0.040   0.255   3.677
 7012TIP3    H220994   0.021   0.127   3.755
 7013TIP3   OH220995   3.068   7.015   2.154
 7013TIP3    H120996   3.010   7.030   2.229
 7013TIP3    H220997   3.038   7.077   2.088
 7014TIP3   OH220998   1.609   1.175   2.750
 7014TIP3    H120999   1.647   1.092   2.722
 7014TIP3    H221000   1.531   1.150   2.799
 7015TIP3   OH221001   3.826   1.686   3.505
 7015TIP3    H121002   3.915   1.705   3.535
 7015TIP3    H221003   3.779   1.661   3.585
 7016TIP3   OH221004   8.052   5.674   6.273
 7016TIP3    H121005   7.985   5.623   6.229
 7016TIP3    H221006   8.090   5.613   6.338
 7017TIP3   OH221007   3.694   5.756   5.616
 7017TIP3    H121008   3.672   5.663   5.603
 7017TIP3    H221009   3.786   5.756   5.641
 7018TIP3   OH221010   6.691   4.528   0.861
 7018TIP3    H121011   6.724   4.510   0.773
 7018TIP3    H221012   6.596   4.529   0.851
 7019TIP3   OH221013   0.358   4.804   4.363
 7019TIP3    H121014   0.415   4.729   4.346
 7019TIP3    H221015   0.275   4.781   4.323
 7020TIP3   OH221016   8.088   6.179   4.026
 7020TIP3    H121017   8.056   6.264   3.995
 7020TIP3    H221018   8.105   6.130   3.945
 7021TIP3   OH221019   4.729   2.950   0.376
 7021TIP3    H121020   4.679   2.907   0.446
 7021TIP3    H221021   4.679   3.029   0.355
 7022TIP3   OH221022   1.610   3.362   6.192
 7022TIP3    H121023   1.660   3.307   6.131
 7022TIP3    H221024   1.536   3.393   6.140
 7023TIP3   OH221025   4.773   5.233   1.765
 7023TIP3    H121026   4.783   5.287   1.843
 7023TIP3    H221027   4.847   5.257   1.710
 7024TIP3   OH221028   5.057   3.621   0.208
 7024TIP3    H121029   5.093   3.544   0.251
 7024TIP3    H221030   4.966   3.599   0.190
 7025TIP3   OH221031   4.683   7.584   1.802
 7025TIP3    H121032   4.659   7.675   1.784
 7025TIP3    H221033   4.638   7.534   1.734
 7026TIP3   OH221034   5.975   1.360   1.252
 7026TIP3    H121035   5.895   1.405   1.225
 7026TIP3    H221036   5.990   1.390   1.342
 7027TIP3   OH221037   0.206   2.366   5.953
 7027TIP3    H121038   0.153   2.390   5.878
 7027TIP3    H221039   0.205   2.270   5.954
 7028TIP3   OH221040   1.857   6.274   1.717
 7028TIP3    H121041   1.877   6.222   1.795
 7028TIP3    H221042   1.914   6.238   1.649
 7029TIP3   OH221043   0.218   7.365   6.173
 7029TIP3    H121044   0.305   7.389   6.139
 7029TIP3    H221045   0.212   7.411   6.257
 7030TIP3   OH221046   0.170   1.597   4.437
 7030TIP3    H121047   0.161   1.522   4.496
 7030TIP3    H221048   0.145   1.564   4.351
 7031TIP3   OH221049   6.630   3.228   5.825
 7031TIP3    H121050   6.576   3.306   5.837
 7031TIP3    H221051   6.579   3.171   5.767
 7032TIP3   OH221052   1.222   6.597   5.113
 7032TIP3    H121053   1.305   6.550   5.100
 7032TIP3    H221054   1.168   6.571   5.039
 7033TIP3   OH221055   4.742   2.598   3.764
 7033TIP3    H121056   4.774   2.578   3.676
 7033TIP3    H221057   4.686   2.524   3.786
 7034TIP3   OH221058   6.830   3.953   1.881
 7034TIP3    H121059   6.848   3.864   1.914
 7034TIP3    H221060   6.750   3.943   1.828
 7035TIP3   OH221061   5.071   0.788   6.579
 7035TIP3    H121062   5.165   0.779   6.564
 7035TIP3    H221063   5.033   0.796   6.491
 7036TIP3   OH221064   1.859   4.084   1.189
 7036TIP3    H121065   1.921   4.030   1.238
 7036TIP3    H221066   1.778   4.080   1.240
 7037TIP3   OH221067   3.542   7.362   2.093
 7037TIP3    H121068   3.551   7.267   2.095
 7037TIP3    H221069   3.631   7.394   2.075
 7038TIP3   OH221070   6.140   3.016   2.629
 7038TIP3    H121071   6.164   2.976   2.712
 7038TIP3    H221072   6.048   2.991   2.616
 7039TIP3   OH221073   6.712   4.235   4.768
 7039TIP3    H121074   6.799   4.208   4.797
 7039TIP3    H221075   6.653   4.168   4.802
 7040TIP3   OH221076   0.081   0.986   1.551
 7040TIP3    H121077   0.111   0.967   1.640
 7040TIP3    H221078  -0.009   1.017   1.563
 7041TIP3   OH221079   7.591   7.237   4.848
 7041TIP3    H121080   7.596   7.309   4.911
 7041TIP3    H221081   7.665   7.180   4.871
 7042TIP3   OH221082   6.610   1.474   3.980
 7042TIP3    H121083   6.666   1.405   4.015
 7042TIP3    H221084   6.663   1.554   3.987
 7043TIP3   OH221085   3.811   7.371   1.586
 7043TIP3    H121086   3.847   7.460   1.584
 7043TIP3    H221087   3.744   7.375   1.654
 7044TIP3   OH221088   7.134   0.310   4.634
 7044TIP3    H121089   7.166   0.222   4.650
 7044TIP3    H221090   7.141   0.354   4.719
 7045TIP3   OH221091   3.725   2.042   4.199
 7045TIP3    H121092   3.722   1.982   4.274
 7045TIP3    H221093   3.648   2.017   4.146
 7046TIP3   OH221094   2.915   7.362   2.423
 7046TIP3    H121095   2.977   7.393   2.356
 7046TIP3    H221096   2.970   7.316   2.487
 7047TIP3   OH221097   2.435   4.890   2.712
 7047TIP3    H121098   2.363   4.860   2.656
 7047TIP3    H221099   2.397   4.959   2.766
 7048TIP3   OH221100   2.754   7.330   0.194
 7048TIP3    H121101   2.849   7.334   0.182
 7048TIP3    H221102   2.728   7.421   0.210
 7049TIP3   OH221103   0.383   7.007   1.663
 7049TIP3    H121104   0.440   7.017   1.587
 7049TIP3    H221105   0.437   6.964   1.728
 7050TIP3   OH221106   6.203   2.370   1.756
 7050TIP3    H121107   6.240   2.427   1.688
 7050TIP3    H221108   6.271   2.305   1.773
 7051TIP3   OH221109   1.524   0.747   3.026
 7051TIP3    H121110   1.533   0.653   3.012
 7051TIP3    H221111   1.502   0.782   2.940
 7052TIP3   OH221112   3.683   3.566   4.013
 7052TIP3    H121113   3.774   3.575   4.042
 7052TIP3    H221114   3.677   3.623   3.936
 7053TIP3   OH221115   3.428   1.668   0.174
 7053TIP3    H121116   3.433   1.664   0.078
 7053TIP3    H221117   3.418   1.761   0.193
 7054TIP3   OH221118   4.948   7.252   1.175
 7054TIP3    H121119   5.028   7.227   1.221
 7054TIP3    H221120   4.925   7.337   1.214
 7055TIP3   OH221121   1.979   5.302   1.034
 7055TIP3    H121122   1.985   5.221   1.083
 7055TIP3    H221123   2.062   5.347   1.050
 7056TIP3   OH221124   4.702   1.274   3.468
 7056TIP3    H121125   4.731   1.268   3.378
 7056TIP3    H221126   4.702   1.368   3.488
 7057TIP3   OH221127   5.934   6.181   6.392
 7057TIP3    H121128   5.907   6.242   6.461
 7057TIP3    H221129   6.023   6.156   6.416
 7058TIP3   OH221130   5.138   7.138   5.872
 7058TIP3    H121131   5.179   7.085   5.804
 7058TIP3    H221132   5.055   7.095   5.889
 7059TIP3   OH221133   0.476   2.364   5.075
 7059TIP3    H121134   0.503   2.273   5.080
 7059TIP3    H221135   0.425   2.379   5.154
 7060TIP3   OH221136   0.854   6.606   0.488
 7060TIP3    H121137   0.921   6.592   0.556
 7060TIP3    H221138   0.835   6.518   0.455
 7061TIP3   OH221139   7.356   0.276   2.365
 7061TIP3    H121140   7.446   0.287   2.332
 7061TIP3    H221141   7.311   0.231   2.294
 7062TIP3   OH221142   2.357   5.941   2.571
 7062TIP3    H121143   2.322   5.854   2.589
 7062TIP3    H221144   2.452   5.931   2.583
 7063TIP3   OH221145   0.333   4.408   5.210
 7063TIP3    H121146   0.311   4.319   5.236
 7063TIP3    H221147   0.325   4.460   5.291
 7064TIP3   OH221148   7.793   2.393   3.296
 7064TIP3    H121149   7.770   2.461   3.233
 7064TIP3    H221150   7.887   2.381   3.285
 7065TIP3   OH221151   1.437   7.467   0.204
 7065TIP3    H121152   1.365   7.405   0.218
 7065TIP3    H221153   1.433   7.525   0.280
 7066TIP3   OH221154   2.281   1.738   4.296
 7066TIP3    H121155   2.365   1.779   4.315
 7066TIP3    H221156   2.302   1.665   4.238
 7067TIP3   OH221157   1.179   0.565   4.989
 7067TIP3    H121158   1.110   0.523   4.937
 7067TIP3    H221159   1.245   0.497   4.999
 7068TIP3   OH221160   7.103   1.907   2.788
 7068TIP3    H121161   7.021   1.863   2.809
 7068TIP3    H221162   7.154   1.842   2.739
 7069TIP3   OH221163   1.173   5.450   3.683
 7069TIP3    H121164   1.177   5.374   3.741
 7069TIP3    H221165   1.156   5.413   3.596
 7070TIP3   OH221166   8.076   2.235   0.349
 7070TIP3    H121167   8.112   2.285   0.276
 7070TIP3    H221168   8.024   2.166   0.308
 7071TIP3   OH221169   1.120   3.128   0.747
 7071TIP3    H121170   1.177   3.203   0.758
 7071TIP3    H221171   1.136   3.097   0.658
 7072TIP3   OH221172   3.515   5.958   6.346
 7072TIP3    H121173   3.570   6.003   6.410
 7072TIP3    H221174   3.559   5.972   6.262
 7073TIP3   OH221175   7.226   7.445   3.472
 7073TIP3    H121176   7.168   7.462   3.398
 7073TIP3    H221177   7.166   7.433   3.546
 7074TIP3   OH221178   5.175   7.621   5.197
 7074TIP3    H121179   5.100   7.659   5.152
 7074TIP3    H221180   5.245   7.686   5.187
 7075TIP3   OH221181   6.227   0.978   5.182
 7075TIP3    H121182   6.274   1.060   5.172
 7075TIP3    H221183   6.291   0.918   5.221
 7076TIP3   OH221184   1.555   0.977   4.134
 7076TIP3    H121185   1.500   0.901   4.113
 7076TIP3    H221186   1.493   1.049   4.145
 7077TIP3   OH221187   0.341   3.288   4.140
 7077TIP3    H121188   0.268   3.291   4.202
 7077TIP3    H221189   0.419   3.303   4.194
 7078TIP3   OH221190   6.234   3.957   1.404
 7078TIP3    H121191   6.155   3.932   1.452
 7078TIP3    H221192   6.287   3.877   1.402
 7079TIP3   OH221193   7.526   1.950   5.626
 7079TIP3    H121194   7.588   1.877   5.617
 7079TIP3    H221195   7.548   1.989   5.711
 7080TIP3   OH221196   2.436   1.894   0.583
 7080TIP3    H121197   2.456   1.905   0.490
 7080TIP3    H221198   2.352   1.939   0.594
 7081TIP3   OH221199   0.673   5.647   5.782
 7081TIP3    H121200   0.730   5.712   5.742
 7081TIP3    H221201   0.592   5.694   5.800
 7082TIP3   OH221202   4.239   0.492   1.181
 7082TIP3    H121203   4.171   0.441   1.225
 7082TIP3    H221204   4.200   0.516   1.097
 7083TIP3   OH221205   7.529   2.196   1.426
 7083TIP3    H121206   7.445   2.212   1.382
 7083TIP3    H221207   7.515   2.117   1.477
 7084TIP3   OH221208   3.472   0.286   3.442
 7084TIP3    H121209   3.457   0.195   3.470
 7084TIP3    H221210   3.449   0.286   3.349
 7085TIP3   OH221211   0.120   3.364   1.206
 7085TIP3    H121212   0.117   3.320   1.121
 7085TIP3    H221213   0.181   3.312   1.258
 7086TIP3   OH221214   6.653   0.166   1.938
 7086TIP3    H121215   6.559   0.178   1.924
 7086TIP3    H221216   6.687   0.144   1.852
 7087TIP3   OH221217   0.449   2.187   1.825
 7087TIP3    H121218   0.496   2.265   1.796
 7087TIP3    H221219   0.450   2.192   1.920
 7088TIP3   OH221220   2.504   7.653   1.397
 7088TIP3    H121221   2.508   7.662   1.493
 7088TIP3    H221222   2.444   7.722   1.370
 7089TIP3   OH221223   0.486   2.826   5.022
 7089TIP3    H121224   0.577   2.843   5.046
 7089TIP3    H221225   0.488   2.739   4.982
 7090TIP3   OH221226   2.777   0.814   2.834
 7090TIP3    H121227   2.752   0.728   2.801
 7090TIP3    H221228   2.828   0.796   2.913
 7091TIP3   OH221229   0.230   5.401   5.354
 7091TIP3    H121230   0.219   5.363   5.267
 7091TIP3    H221231   0.142   5.431   5.378
 7092TIP3   OH221232   1.901   6.817   0.197
 7092TIP3    H121233   1.974   6.756   0.196
 7092TIP3    H221234   1.942   6.903   0.206
 7093TIP3   OH221235   2.552   7.680   1.664
 7093TIP3    H121236   2.585   7.767   1.687
 7093TIP3    H221237   2.533   7.639   1.748
 7094TIP3   OH221238   5.084   7.864   6.086
 7094TIP3    H121239   5.087   7.890   5.993
 7094TIP3    H221240   5.072   7.769   6.083
 7095TIP3   OH221241   2.437   2.448   1.114
 7095TIP3    H121242   2.491   2.386   1.065
 7095TIP3    H221243   2.383   2.392   1.170
 7096TIP3   OH221244   5.685   3.659   0.946
 7096TIP3    H121245   5.641   3.604   1.010
 7096TIP3    H221246   5.619   3.676   0.879
 7097TIP3   OH221247   3.096   3.137   5.872
 7097TIP3    H121248   3.044   3.145   5.792
 7097TIP3    H221249   3.050   3.190   5.937
 7098TIP3   OH221250   0.445   2.785   3.102
 7098TIP3    H121251   0.455   2.814   3.193
 7098TIP3    H221252   0.401   2.700   3.109
 7099TIP3   OH221253   8.177   7.276   2.545
 7099TIP3    H121254   8.178   7.331   2.466
 7099TIP3    H221255   8.147   7.190   2.514
 7100TIP3   OH221256   0.648   6.803   0.056
 7100TIP3    H121257   0.668   6.726   0.004
 7100TIP3    H221258   0.572   6.842   0.013
 7101TIP3   OH221259   6.426   6.186   1.235
 7101TIP3    H121260   6.452   6.164   1.145
 7101TIP3    H221261   6.503   6.228   1.273
 7102TIP3   OH221262   2.352   1.771   2.635
 7102TIP3    H121263   2.406   1.774   2.714
 7102TIP3    H221264   2.272   1.818   2.660
 7103TIP3   OH221265   0.585   1.990   3.093
 7103TIP3    H121266   0.545   1.939   3.164
 7103TIP3    H221267   0.521   2.060   3.075
 7104TIP3   OH221268   5.257   5.706   0.233
 7104TIP3    H121269   5.193   5.727   0.165
 7104TIP3    H221270   5.227   5.622   0.268
 7105TIP3   OH221271   3.585   4.595   0.809
 7105TIP3    H121272   3.549   4.591   0.897
 7105TIP3    H221273   3.527   4.538   0.757
 7106TIP3   OH221274   1.861   7.290   1.811
 7106TIP3    H121275   1.908   7.240   1.877
 7106TIP3    H221276   1.794   7.231   1.778
 7107TIP3   OH221277   5.758   3.509   1.966
 7107TIP3    H121278   5.740   3.533   2.056
 7107TIP3    H221279   5.764   3.414   1.966
 7108TIP3   OH221280   3.685   2.079   5.875
 7108TIP3    H121281   3.763   2.125   5.905
 7108TIP3    H221282   3.700   1.988   5.900
 7109TIP3   OH221283   3.933   5.301   5.786
 7109TIP3    H121284   4.021   5.337   5.796
 7109TIP3    H221285   3.919   5.299   5.691
 7110TIP3   OH221286   5.332   6.659   4.269
 7110TIP3    H121287   5.311   6.638   4.178
 7110TIP3    H221288   5.284   6.595   4.321
 7111TIP3   OH221289   7.054   2.611   2.242
 7111TIP3    H121290   7.111   2.543   2.205
 7111TIP3    H221291   6.974   2.565   2.265
 7112TIP3   OH221292   3.537   6.587   1.699
 7112TIP3    H121293   3.531   6.493   1.683
 7112TIP3    H221294   3.589   6.621   1.627
 7113TIP3   OH221295   0.626   6.977   6.083
 7113TIP3    H121296   0.716   6.968   6.115
 7113TIP3    H221297   0.631   6.952   5.991
 7114TIP3   OH221298   6.688   1.472   4.338
 7114TIP3    H121299   6.731   1.536   4.394
 7114TIP3    H221300   6.642   1.414   4.398
 7115TIP3   OH221301   7.669   7.335   0.670
 7115TIP3    H121302   7.697   7.386   0.594
 7115TIP3    H221303   7.747   7.287   0.697
 7116TIP3   OH221304   2.871   4.498   5.906
 7116TIP3    H121305   2.825   4.581   5.895
 7116TIP3    H221306   2.851   4.449   5.826
 7117TIP3   OH221307   7.725   1.124   3.130
 7117TIP3    H121308   7.675   1.149   3.052
 7117TIP3    H221309   7.742   1.207   3.175
 7118TIP3   OH221310   6.506   5.433   3.616
 7118TIP3    H121311   6.541   5.396   3.698
 7118TIP3    H221312   6.428   5.481   3.643
 7119TIP3   OH221313   2.747   3.296   5.564
 7119TIP3    H121314   2.773   3.352   5.492
 7119TIP3    H221315   2.662   3.260   5.537
 7120TIP3   OH221316   2.738   6.186   1.149
 7120TIP3    H121317   2.818   6.136   1.169
 7120TIP3    H221318   2.727   6.245   1.224
 7121TIP3   OH221319   0.337   6.870   2.062
 7121TIP3    H121320   0.380   6.942   2.015
 7121TIP3    H221321   0.332   6.900   2.152
 7122TIP3   OH221322   0.082   6.503   1.920
 7122TIP3    H121323   0.068   6.534   2.010
 7122TIP3    H221324   0.026   6.560   1.867
 7123TIP3   OH221325   3.078   5.740   2.773
 7123TIP3    H121326   2.987   5.744   2.745
 7123TIP3    H221327   3.106   5.651   2.751
 7124TIP3   OH221328   6.944   3.752   2.446
 7124TIP3    H121329   7.025   3.754   2.396
 7124TIP3    H221330   6.965   3.795   2.528
 7125TIP3   OH221331   0.129   4.867   4.581
 7125TIP3    H121332   0.181   4.809   4.636
 7125TIP3    H221333   0.104   4.813   4.506
 7126TIP3   OH221334   0.594   4.765   0.854
 7126TIP3    H121335   0.670   4.796   0.903
 7126TIP3    H221336   0.527   4.749   0.920
 7127TIP3   OH221337   1.151   3.341   5.417
 7127TIP3    H121338   1.184   3.426   5.446
 7127TIP3    H221339   1.227   3.297   5.381
 7128TIP3   OH221340   5.882   2.089   0.966
 7128TIP3    H121341   5.880   2.162   0.904
 7128TIP3    H221342   5.791   2.080   0.995
 7129TIP3   OH221343   6.006   4.694   2.197
 7129TIP3    H121344   5.993   4.713   2.290
 7129TIP3    H221345   6.082   4.746   2.172
 7130TIP3   OH221346   1.589   6.669   4.186
 7130TIP3    H121347   1.663   6.615   4.212
 7130TIP3    H221348   1.573   6.645   4.095
 7131TIP3   OH221349   4.885   1.140   4.454
 7131TIP3    H121350   4.975   1.156   4.484
 7131TIP3    H221351   4.878   1.045   4.451
 7132TIP3   OH221352   1.449   0.883   3.816
 7132TIP3    H121353   1.425   0.939   3.890
 7132TIP3    H221354   1.373   0.887   3.757
 7133TIP3   OH221355   5.711   0.916   5.145
 7133TIP3    H121356   5.799   0.951   5.156
 7133TIP3    H221357   5.677   0.907   5.234
 7134TIP3   OH221358   2.060   3.041   3.931
 7134TIP3    H121359   2.104   3.122   3.956
 7134TIP3    H221360   1.967   3.063   3.929
 7135TIP3   OH221361   7.554   0.709   4.018
 7135TIP3    H121362   7.593   0.684   4.102
 7135TIP3    H221363   7.616   0.772   3.981
 7136TIP3   OH221364   3.336   6.822   6.145
 7136TIP3    H121365   3.259   6.775   6.177
 7136TIP3    H221366   3.355   6.782   6.060
 7137TIP3   OH221367   3.324   1.003   4.984
 7137TIP3    H121368   3.324   0.914   4.949
 7137TIP3    H221369   3.415   1.032   4.977
 7138TIP3   OH221370   4.065   3.592   2.712
 7138TIP3    H121371   4.142   3.541   2.685
 7138TIP3    H221372   3.998   3.571   2.647
 7139TIP3   OH221373   5.433   4.385   3.000
 7139TIP3    H121374   5.471   4.472   3.012
 7139TIP3    H221375   5.440   4.369   2.906
 7140TIP3   OH221376   2.060   2.541   5.651
 7140TIP3    H121377   2.100   2.511   5.569
 7140TIP3    H221378   2.004   2.614   5.625
 7141TIP3   OH221379   6.099   1.966   3.486
 7141TIP3    H121380   6.194   1.958   3.483
 7141TIP3    H221381   6.081   2.012   3.568
 7142TIP3   OH221382   4.099   2.415   4.604
 7142TIP3    H121383   4.097   2.410   4.700
 7142TIP3    H221384   4.069   2.504   4.585
 7143TIP3   OH221385   4.462   6.071   5.957
 7143TIP3    H121386   4.372   6.094   5.931
 7143TIP3    H221387   4.451   6.010   6.029
 7144TIP3   OH221388   1.603   3.933   4.396
 7144TIP3    H121389   1.654   3.915   4.474
 7144TIP3    H221390   1.522   3.974   4.429
 7145TIP3   OH221391   6.370   1.648   4.593
 7145TIP3    H121392   6.457   1.610   4.608
 7145TIP3    H221393   6.309   1.576   4.613
 7146TIP3   OH221394   8.004   6.358   4.944
 7146TIP3    H121395   8.055   6.303   5.003
 7146TIP3    H221396   8.026   6.326   4.857
 7147TIP3   OH221397   7.629   2.370   2.790
 7147TIP3    H121398   7.708   2.336   2.746
 7147TIP3    H221399   7.626   2.324   2.873
 7148TIP3   OH221400   0.432   1.144   5.261
 7148TIP3    H121401   0.396   1.226   5.227
 7148TIP3    H221402   0.376   1.076   5.225
 7149TIP3   OH221403   2.027   7.335   0.477
 7149TIP3    H121404   2.064   7.365   0.394
 7149TIP3    H221405   2.054   7.243   0.483
 7150TIP3   OH221406   4.649   7.763   1.214
 7150TIP3    H121407   4.597   7.835   1.177
 7150TIP3    H221408   4.624   7.761   1.306
 7151TIP3   OH221409   7.571   1.092   5.372
 7151TIP3    H121410   7.505   1.151   5.407
 7151TIP3    H221411   7.654   1.139   5.383
 7152TIP3   OH221412   4.368   6.077   3.689
 7152TIP3    H121413   4.382   6.085   3.595
 7152TIP3    H221414   4.413   5.996   3.714
 7153TIP3   OH221415   0.517   1.520   1.528
 7153TIP3    H121416   0.450   1.455   1.552
 7153TIP3    H221417   0.468   1.591   1.488
 7154TIP3   OH221418   3.804   6.444   3.686
 7154TIP3    H121419   3.842   6.360   3.657
 7154TIP3    H221420   3.716   6.421   3.715
 7155TIP3   OH221421   7.594   3.331   0.546
 7155TIP3    H121422   7.517   3.284   0.513
 7155TIP3    H221423   7.582   3.421   0.514
 7156TIP3   OH221424   5.169   1.540   4.606
 7156TIP3    H121425   5.134   1.598   4.538
 7156TIP3    H221426   5.182   1.597   4.682
 7157TIP3   OH221427   4.805   3.290   4.259
 7157TIP3    H121428   4.851   3.364   4.296
 7157TIP3    H221429   4.722   3.287   4.305
 7158TIP3   OH221430   5.120   5.279   0.878
 7158TIP3    H121431   5.174   5.341   0.928
 7158TIP3    H221432   5.046   5.259   0.936
 7159TIP3   OH221433   7.381   7.592   0.471
 7159TIP3    H121434   7.461   7.566   0.425
 7159TIP3    H221435   7.310   7.567   0.413
 7160TIP3   OH221436   4.970   4.211   3.185
 7160TIP3    H121437   4.923   4.216   3.102
 7160TIP3    H221438   4.991   4.118   3.195
 7161TIP3   OH221439   6.625   3.390   5.167
 7161TIP3    H121440   6.638   3.485   5.177
 7161TIP3    H221441   6.587   3.363   5.251
 7162TIP3   OH221442   0.504   5.898   6.501
 7162TIP3    H121443   0.445   5.973   6.505
 7162TIP3    H221444   0.566   5.912   6.573
 7163TIP3   OH221445   2.420   7.343   0.320
 7163TIP3    H121446   2.477   7.297   0.381
 7163TIP3    H221447   2.331   7.316   0.345
 7164TIP3   OH221448   3.732   1.875   2.060
 7164TIP3    H121449   3.810   1.847   2.013
 7164TIP3    H221450   3.752   1.860   2.152
 7165TIP3   OH221451   6.692   1.718   3.028
 7165TIP3    H121452   6.673   1.712   3.121
 7165TIP3    H221453   6.713   1.628   3.002
 7166TIP3   OH221454   6.030   7.004   0.055
 7166TIP3    H121455   6.071   6.921   0.079
 7166TIP3    H221456   5.943   6.980   0.024
 7167TIP3   OH221457   5.975   4.929   2.621
 7167TIP3    H121458   5.935   5.015   2.603
 7167TIP3    H221459   6.065   4.949   2.644
 7168TIP3   OH221460   6.219   7.387   6.066
 7168TIP3    H121461   6.233   7.473   6.107
 7168TIP3    H221462   6.192   7.330   6.138
 7169TIP3   OH221463   7.188   1.666   0.628
 7169TIP3    H121464   7.212   1.746   0.674
 7169TIP3    H221465   7.174   1.693   0.537
 7170TIP3   OH221466   5.606   5.110   5.912
 7170TIP3    H121467   5.701   5.118   5.908
 7170TIP3    H221468   5.580   5.170   5.981
 7171TIP3   OH221469   3.359   2.664   5.209
 7171TIP3    H121470   3.346   2.729   5.278
 7171TIP3    H221471   3.369   2.581   5.255
 7172TIP3   OH221472   5.589   4.197   0.111
 7172TIP3    H121473   5.683   4.208   0.123
 7172TIP3    H221474   5.556   4.170   0.197
 7173TIP3   OH221475   2.872   0.292   3.185
 7173TIP3    H121476   2.801   0.249   3.234
 7173TIP3    H221477   2.939   0.309   3.251
 7174TIP3   OH221478   3.423   0.562   3.473
 7174TIP3    H121479   3.357   0.558   3.541
 7174TIP3    H221480   3.427   0.473   3.438
 7175TIP3   OH221481   6.768   4.910   6.704
 7175TIP3    H121482   6.837   4.946   6.760
 7175TIP3    H221483   6.812   4.892   6.621
 7176TIP3   OH221484   2.330   2.516   5.479
 7176TIP3    H121485   2.388   2.489   5.550
 7176TIP3    H221486   2.278   2.438   5.458
 7177TIP3   OH221487   7.754   0.558   0.354
 7177TIP3    H121488   7.664   0.572   0.383
 7177TIP3    H221489   7.796   0.644   0.361
 7178TIP3   OH221490   3.590   6.045   5.190
 7178TIP3    H121491   3.681   6.064   5.168
 7178TIP3    H221492   3.592   5.956   5.226
 7179TIP3   OH221493   3.249   3.729   5.789
 7179TIP3    H121494   3.175   3.728   5.728
 7179TIP3    H221495   3.320   3.770   5.740
 7180TIP3   OH221496   5.557   1.634   3.714
 7180TIP3    H121497   5.600   1.549   3.721
 7180TIP3    H221498   5.471   1.615   3.676
 7181TIP3   OH221499   0.717   7.101   0.616
 7181TIP3    H121500   0.674   7.186   0.619
 7181TIP3    H221501   0.646   7.038   0.606
 7182TIP3   OH221502   6.001   1.171   3.038
 7182TIP3    H121503   5.985   1.082   3.006
 7182TIP3    H221504   6.092   1.169   3.068
 7183TIP3   OH221505   0.355   2.478   0.241
 7183TIP3    H121506   0.312   2.417   0.301
 7183TIP3    H221507   0.364   2.428   0.160
 7184TIP3   OH221508   5.577   0.815   5.991
 7184TIP3    H121509   5.571   0.721   5.976
 7184TIP3    H221510   5.486   0.843   6.008
 7185TIP3   OH221511   1.823   2.212   2.408
 7185TIP3    H121512   1.886   2.196   2.337
 7185TIP3    H221513   1.743   2.169   2.378
 7186TIP3   OH221514   4.650   6.128   1.540
 7186TIP3    H121515   4.704   6.154   1.466
 7186TIP3    H221516   4.569   6.178   1.528
 7187TIP3   OH221517   4.497   2.189   4.797
 7187TIP3    H121518   4.542   2.153   4.720
 7187TIP3    H221519   4.539   2.147   4.872
 7188TIP3   OH221520   1.164   7.268   1.802
 7188TIP3    H121521   1.111   7.319   1.863
 7188TIP3    H221522   1.218   7.332   1.757
 7189TIP3   OH221523   6.009   4.246   6.300
 7189TIP3    H121524   5.958   4.326   6.316
 7189TIP3    H221525   5.956   4.197   6.237
 7190TIP3   OH221526   3.844   2.488   1.711
 7190TIP3    H121527   3.795   2.518   1.787
 7190TIP3    H221528   3.779   2.481   1.641
 7191TIP3   OH221529   6.081   1.242   4.542
 7191TIP3    H121530   6.162   1.270   4.584
 7191TIP3    H221531   6.028   1.207   4.614
 7192TIP3   OH221532   4.834   0.746   0.193
 7192TIP3    H121533   4.820   0.701   0.109
 7192TIP3    H221534   4.882   0.683   0.246
 7193TIP3   OH221535   5.041   6.808   1.372
 7193TIP3    H121536   4.992   6.822   1.453
 7193TIP3    H221537   4.989   6.854   1.305
 7194TIP3   OH221538   6.198   6.676   6.026
 7194TIP3    H121539   6.278   6.627   6.005
 7194TIP3    H221540   6.143   6.614   6.073
 7195TIP3   OH221541   3.423   6.271   1.369
 7195TIP3    H121542   3.449   6.298   1.457
 7195TIP3    H221543   3.328   6.261   1.373
 7196TIP3   OH221544   0.339  -0.002   4.696
 7196TIP3    H121545   0.420   0.022   4.740
 7196TIP3    H221546   0.280   0.073   4.711
 7197TIP3   OH221547   6.069   3.145   4.314
 7197TIP3    H121548   6.054   3.188   4.229
 7197TIP3    H221549   6.154   3.101   4.304
 7198TIP3   OH221550   7.478   0.611   2.228
 7198TIP3    H121551   7.478   0.515   2.232
 7198TIP3    H221552   7.450   0.639   2.314
 7199TIP3   OH221553   2.909   3.104   5.669
 7199TIP3    H121554   2.864   3.178   5.629
 7199TIP3    H221555   2.839   3.052   5.710
 7200TIP3   OH221556   5.246   3.110   3.762
 7200TIP3    H121557   5.218   3.034   3.812
 7200TIP3    H221558   5.207   3.185   3.807
 7201TIP3   OH221559   1.725   7.202   4.195
 7201TIP3    H121560   1.740   7.114   4.229
 7201TIP3    H221561   1.652   7.193   4.134
 7202TIP3   OH221562   3.028   1.311   0.835
 7202TIP3    H121563   3.072   1.343   0.913
 7202TIP3    H221564   3.058   1.221   0.824
 7203TIP3   OH221565   1.339   0.940   6.240
 7203TIP3    H121566   1.336   0.922   6.146
 7203TIP3    H221567   1.365   1.032   6.246
 7204TIP3   OH221568   8.059   7.688   2.326
 7204TIP3    H121569   8.027   7.736   2.403
 7204TIP3    H221570   8.061   7.753   2.256
 7205TIP3   OH221571   5.988   1.511   6.092
 7205TIP3    H121572   5.960   1.458   6.167
 7205TIP3    H221573   6.075   1.479   6.071
 7206TIP3   OH221574   4.155   3.459   1.947
 7206TIP3    H121575   4.095   3.530   1.924
 7206TIP3    H221576   4.103   3.379   1.938
 7207TIP3   OH221577   6.639   5.947   2.599
 7207TIP3    H121578   6.557   5.908   2.570
 7207TIP3    H221579   6.671   5.995   2.523
 7208TIP3   OH221580   1.884   1.634   2.124
 7208TIP3    H121581   1.965   1.596   2.159
 7208TIP3    H221582   1.844   1.678   2.199
 7209TIP3   OH221583   2.680   3.215   6.537
 7209TIP3    H121584   2.643   3.294   6.578
 7209TIP3    H221585   2.743   3.248   6.473
 7210TIP3   OH221586   1.078   5.700   3.649
 7210TIP3    H121587   1.012   5.692   3.580
 7210TIP3    H221588   1.115   5.611   3.656
 7211TIP3   OH221589   4.881   1.455   1.234
 7211TIP3    H121590   4.815   1.516   1.202
 7211TIP3    H221591   4.834   1.373   1.249
 7212TIP3   OH221592   5.359   3.543   3.328
 7212TIP3    H121593   5.414   3.516   3.255
 7212TIP3    H221594   5.417   3.596   3.384
 7213TIP3   OH221595   2.726   2.630   1.852
 7213TIP3    H121596   2.743   2.702   1.791
 7213TIP3    H221597   2.811   2.609   1.889
 7214TIP3   OH221598   2.191   2.371   3.525
 7214TIP3    H121599   2.114   2.345   3.474
 7214TIP3    H221600   2.156   2.432   3.591
 7215TIP3   OH221601   2.827   7.527   5.245
 7215TIP3    H121602   2.741   7.486   5.241
 7215TIP3    H221603   2.851   7.522   5.338
 7216TIP3   OH221604   2.364   1.510   0.518
 7216TIP3    H121605   2.376   1.569   0.592
 7216TIP3    H221606   2.446   1.514   0.470
 7217TIP3   OH221607   4.879   1.892   2.389
 7217TIP3    H121608   4.825   1.872   2.312
 7217TIP3    H221609   4.910   1.807   2.420
 7218TIP3   OH221610   5.731   5.742   2.697
 7218TIP3    H121611   5.693   5.790   2.623
 7218TIP3    H221612   5.688   5.657   2.695
 7219TIP3   OH221613   4.634   2.778   4.349
 7219TIP3    H121614   4.558   2.779   4.290
 7219TIP3    H221615   4.601   2.818   4.430
 7220TIP3   OH221616   5.869   7.379   6.636
 7220TIP3    H121617   5.907   7.465   6.651
 7220TIP3    H221618   5.839   7.381   6.545
 7221TIP3   OH221619   4.800   6.111   1.028
 7221TIP3    H121620   4.810   6.141   1.118
 7221TIP3    H221621   4.804   6.016   1.033
 7222TIP3   OH221622   7.932   7.572   3.824
 7222TIP3    H121623   7.876   7.630   3.876
 7222TIP3    H221624   7.873   7.504   3.792
 7223TIP3   OH221625   1.437   4.270   4.973
 7223TIP3    H121626   1.407   4.330   5.042
 7223TIP3    H221627   1.532   4.269   4.982
 7224TIP3   OH221628   2.914   6.341   3.899
 7224TIP3    H121629   2.959   6.423   3.877
 7224TIP3    H221630   2.975   6.296   3.958
 7225TIP3   OH221631   1.115   0.151   4.553
 7225TIP3    H121632   1.103   0.094   4.628
 7225TIP3    H221633   1.209   0.147   4.535
 7226TIP3   OH221634   6.618   0.602   4.867
 7226TIP3    H121635   6.536   0.610   4.818
 7226TIP3    H221636   6.666   0.682   4.846
 7227TIP3   OH221637   3.418   1.259   4.049
 7227TIP3    H121638   3.455   1.228   4.131
 7227TIP3    H221639   3.477   1.225   3.981
 7228TIP3   OH221640   4.065   1.769   3.571
 7228TIP3    H121641   4.063   1.804   3.660
 7228TIP3    H221642   4.065   1.846   3.514
 7229TIP3   OH221643   5.557   4.512   0.935
 7229TIP3    H121644   5.580   4.603   0.917
 7229TIP3    H221645   5.638   4.463   0.922
 7230TIP3   OH221646   0.928   3.844   0.175
 7230TIP3    H121647   0.905   3.917   0.234
 7230TIP3    H221648   0.847   3.794   0.168
 7231TIP3   OH221649   1.001   4.204   3.363
 7231TIP3    H121650   1.059   4.141   3.407
 7231TIP3    H221651   1.022   4.288   3.404
 7232TIP3   OH221652   1.397   5.686   0.687
 7232TIP3    H121653   1.471   5.647   0.733
 7232TIP3    H221654   1.433   5.763   0.643
 7233TIP3   OH221655   3.487   6.622   3.436
 7233TIP3    H121656   3.422   6.555   3.458
 7233TIP3    H221657   3.558   6.608   3.499
 7234TIP3   OH221658   6.359   0.032   2.284
 7234TIP3    H121659   6.342  -0.033   2.217
 7234TIP3    H221660   6.417  -0.011   2.346
 7235TIP3   OH221661   4.683   0.092   0.578
 7235TIP3    H121662   4.588   0.080   0.573
 7235TIP3    H221663   4.696   0.186   0.570
 7236TIP3   OH221664   2.714   3.785   3.260
 7236TIP3    H121665   2.726   3.880   3.264
 7236TIP3    H221666   2.630   3.773   3.217
 7237TIP3   OH221667   8.091   4.895   5.946
 7237TIP3    H121668   8.083   4.966   6.009
 7237TIP3    H221669   8.180   4.862   5.958
 7238TIP3   OH221670   1.597   5.397   2.898
 7238TIP3    H121671   1.674   5.348   2.869
 7238TIP3    H221672   1.615   5.488   2.871
 7239TIP3   OH221673   4.804   3.227   1.527
 7239TIP3    H121674   4.746   3.224   1.450
 7239TIP3    H221675   4.832   3.318   1.533
 7240TIP3   OH221676   2.234   2.009   6.600
 7240TIP3    H121677   2.163   2.067   6.630
 7240TIP3    H221678   2.207   1.922   6.628
 7241TIP3   OH221679   6.261   4.358   1.617
 7241TIP3    H121680   6.252   4.288   1.682
 7241TIP3    H221681   6.260   4.313   1.533
 7242TIP3   OH221682   6.106   3.456   2.951
 7242TIP3    H121683   6.155   3.535   2.971
 7242TIP3    H221684   6.078   3.467   2.860
 7243TIP3   OH221685   2.345   3.697   1.522
 7243TIP3    H121686   2.402   3.626   1.555
 7243TIP3    H221687   2.390   3.777   1.550
 7244TIP3   OH221688   0.034   3.020   2.425
 7244TIP3    H121689   0.035   3.060   2.512
 7244TIP3    H221690   0.093   2.945   2.432
 7245TIP3   OH221691   5.451   2.231   2.749
 7245TIP3    H121692   5.383   2.298   2.748
 7245TIP3    H221693   5.422   2.168   2.814
 7246TIP3   OH221694   3.131   3.567   1.630
 7246TIP3    H121695   3.221   3.542   1.613
 7246TIP3    H221696   3.082   3.533   1.556
 7247TIP3   OH221697   4.353   5.592   1.135
 7247TIP3    H121698   4.337   5.678   1.097
 7247TIP3    H221699   4.270   5.568   1.175
 7248TIP3   OH221700   7.998   7.537   5.888
 7248TIP3    H121701   8.033   7.448   5.882
 7248TIP3    H221702   7.957   7.553   5.803
 7249TIP3   OH221703   5.377   5.766   4.501
 7249TIP3    H121704   5.377   5.861   4.509
 7249TIP3    H221705   5.377   5.750   4.406
 7250TIP3   OH221706   7.898   2.232   0.580
 7250TIP3    H121707   7.946   2.244   0.498
 7250TIP3    H221708   7.931   2.149   0.615
 7251TIP3   OH221709   7.219   0.399   1.015
 7251TIP3    H121710   7.167   0.455   0.958
 7251TIP3    H221711   7.164   0.322   1.029
 7252TIP3   OH221712   3.369   7.114   6.018
 7252TIP3    H121713   3.397   7.155   5.937
 7252TIP3    H221714   3.315   7.040   5.991
 7253TIP3   OH221715   3.644   1.585   3.691
 7253TIP3    H121716   3.670   1.493   3.686
 7253TIP3    H221717   3.582   1.589   3.763
 7254TIP3   OH221718   6.058   2.023   5.525
 7254TIP3    H121719   5.972   1.982   5.526
 7254TIP3    H221720   6.113   1.964   5.474
 7255TIP3   OH221721   0.308   7.622   6.323
 7255TIP3    H121722   0.394   7.643   6.287
 7255TIP3    H221723   0.246   7.658   6.259
 7256TIP3   OH221724   0.556   7.336   0.602
 7256TIP3    H121725   0.537   7.428   0.580
 7256TIP3    H221726   0.489   7.312   0.666
 7257TIP3   OH221727   3.051   5.176   6.657
 7257TIP3    H121728   2.990   5.105   6.677
 7257TIP3    H221729   3.134   5.133   6.637
 7258TIP3   OH221730   0.769   6.574   1.065
 7258TIP3    H121731   0.833   6.635   1.028
 7258TIP3    H221732   0.814   6.534   1.139
 7259TIP3   OH221733   7.887   7.029   2.564
 7259TIP3    H121734   7.970   6.988   2.540
 7259TIP3    H221735   7.868   6.998   2.652
 7260TIP3   OH221736   3.265   4.035   1.676
 7260TIP3    H121737   3.265   4.025   1.771
 7260TIP3    H221738   3.348   4.078   1.657
 7261TIP3   OH221739   3.181   3.222   2.362
 7261TIP3    H121740   3.266   3.242   2.401
 7261TIP3    H221741   3.176   3.126   2.365
 7262TIP3   OH221742   2.607   7.122   6.684
 7262TIP3    H121743   2.637   7.098   6.596
 7262TIP3    H221744   2.616   7.217   6.687
 7263TIP3   OH221745   4.888   6.811   3.877
 7263TIP3    H121746   4.843   6.780   3.798
 7263TIP3    H221747   4.835   6.884   3.907
 7264TIP3   OH221748   2.677   2.271   1.929
 7264TIP3    H121749   2.600   2.248   1.982
 7264TIP3    H221750   2.751   2.260   1.989
 7265TIP3   OH221751   0.468   3.773   0.785
 7265TIP3    H121752   0.423   3.786   0.869
 7265TIP3    H221753   0.408   3.810   0.720
 7266TIP3   OH221754   1.849   3.826   5.966
 7266TIP3    H121755   1.777   3.765   5.951
 7266TIP3    H221756   1.926   3.780   5.933
 7267TIP3   OH221757   5.618   3.192   4.626
 7267TIP3    H121758   5.614   3.190   4.721
 7267TIP3    H221759   5.701   3.149   4.604
 7268TIP3   OH221760   6.558   1.705   4.188
 7268TIP3    H121761   6.548   1.772   4.256
 7268TIP3    H221762   6.587   1.627   4.236
 7269TIP3   OH221763   7.519   4.456   5.696
 7269TIP3    H121764   7.482   4.542   5.679
 7269TIP3    H221765   7.546   4.459   5.788
 7270TIP3   OH221766   2.413   6.322   0.293
 7270TIP3    H121767   2.377   6.327   0.381
 7270TIP3    H221768   2.504   6.352   0.302
 7271TIP3   OH221769   1.679   7.328   3.012
 7271TIP3    H121770   1.619   7.400   2.991
 7271TIP3    H221771   1.625   7.266   3.062
 7272TIP3   OH221772   2.457   3.075   6.353
 7272TIP3    H121773   2.526   3.141   6.349
 7272TIP3    H221774   2.381   3.121   6.388
 7273TIP3   OH221775   7.942   0.981   2.693
 7273TIP3    H121776   7.890   1.050   2.652
 7273TIP3    H221777   8.012   1.027   2.739
 7274TIP3   OH221778   4.016   5.807   5.393
 7274TIP3    H121779   4.105   5.771   5.392
 7274TIP3    H221780   3.974   5.769   5.316
 7275TIP3   OH221781   1.677   4.797   1.434
 7275TIP3    H121782   1.610   4.744   1.478
 7275TIP3    H221783   1.627   4.859   1.381
 7276TIP3   OH221784   1.290   1.288   0.820
 7276TIP3    H121785   1.336   1.341   0.885
 7276TIP3    H221786   1.314   1.198   0.842
 7277TIP3   OH221787   6.111   3.234   1.015
 7277TIP3    H121788   6.033   3.183   1.036
 7277TIP3    H221789   6.114   3.302   1.082
 7278TIP3   OH221790   1.500   3.276   4.741
 7278TIP3    H121791   1.404   3.268   4.734
 7278TIP3    H221792   1.514   3.363   4.778
 7279TIP3   OH221793   2.360   2.129   4.133
 7279TIP3    H121794   2.367   2.136   4.229
 7279TIP3    H221795   2.424   2.062   4.110
 7280TIP3   OH221796   0.773   0.897   6.126
 7280TIP3    H121797   0.748   0.988   6.145
 7280TIP3    H221798   0.760   0.888   6.031
 7281TIP3   OH221799   6.799   0.237   2.809
 7281TIP3    H121800   6.714   0.280   2.800
 7281TIP3    H221801   6.779   0.150   2.843
 7282TIP3   OH221802   1.868   3.129   0.180
 7282TIP3    H121803   1.946   3.124   0.236
 7282TIP3    H221804   1.861   3.221   0.156
 7283TIP3   OH221805   4.493   3.498   4.273
 7283TIP3    H121806   4.555   3.571   4.264
 7283TIP3    H221807   4.416   3.538   4.313
 7284TIP3   OH221808   6.811   7.111   0.516
 7284TIP3    H121809   6.726   7.105   0.560
 7284TIP3    H221810   6.790   7.139   0.427
 7285TIP3   OH221811   0.877   7.300   2.934
 7285TIP3    H121812   0.794   7.331   2.897
 7285TIP3    H221813   0.943   7.355   2.893
 7286TIP3   OH221814   3.755   3.943   5.633
 7286TIP3    H121815   3.694   4.013   5.610
 7286TIP3    H221816   3.762   3.890   5.554
 7287TIP3   OH221817   2.357   0.221   5.952
 7287TIP3    H121818   2.337   0.314   5.943
 7287TIP3    H221819   2.380   0.210   6.045
 7288TIP3   OH221820   3.405   7.124   3.075
 7288TIP3    H121821   3.383   7.202   3.127
 7288TIP3    H221822   3.483   7.149   3.026
 7289TIP3   OH221823   8.194   6.162   4.459
 7289TIP3    H121824   8.274   6.168   4.510
 7289TIP3    H221825   8.194   6.240   4.404
 7290TIP3   OH221826   4.621   2.627   0.323
 7290TIP3    H121827   4.600   2.700   0.381
 7290TIP3    H221828   4.609   2.662   0.235
 7291TIP3   OH221829   5.396   0.690   2.638
 7291TIP3    H121830   5.334   0.756   2.669
 7291TIP3    H221831   5.482   0.723   2.665
 7292TIP3   OH221832   6.811   5.543   2.478
 7292TIP3    H121833   6.727   5.550   2.522
 7292TIP3    H221834   6.857   5.472   2.523
 7293TIP3   OH221835   4.008   0.952   4.488
 7293TIP3    H121836   4.065   0.876   4.503
 7293TIP3    H221837   3.967   0.934   4.404
 7294TIP3   OH221838   0.381   6.906   3.924
 7294TIP3    H121839   0.453   6.842   3.921
 7294TIP3    H221840   0.365   6.919   4.018
 7295TIP3   OH221841   6.270   5.246   6.491
 7295TIP3    H121842   6.332   5.185   6.451
 7295TIP3    H221843   6.214   5.191   6.546
 7296TIP3   OH221844   3.907   6.372   1.872
 7296TIP3    H121845   3.964   6.297   1.887
 7296TIP3    H221846   3.829   6.353   1.924
 7297TIP3   OH221847   3.016   3.485   5.048
 7297TIP3    H121848   3.100   3.509   5.011
 7297TIP3    H221849   2.993   3.557   5.107
 7298TIP3   OH221850   6.586   7.185   4.090
 7298TIP3    H121851   6.588   7.280   4.078
 7298TIP3    H221852   6.520   7.171   4.157
 7299TIP3   OH221853   3.295   5.108   2.793
 7299TIP3    H121854   3.266   5.128   2.882
 7299TIP3    H221855   3.369   5.166   2.777
 7300TIP3   OH221856   3.353   2.854   4.761
 7300TIP3    H121857   3.268   2.845   4.719
 7300TIP3    H221858   3.390   2.766   4.758
 7301TIP3   OH221859   1.739   3.281   5.962
 7301TIP3    H121860   1.677   3.289   5.889
 7301TIP3    H221861   1.789   3.363   5.960
 7302TIP3   OH221862   0.348   7.568   3.288
 7302TIP3    H121863   0.296   7.648   3.287
 7302TIP3    H221864   0.438   7.599   3.301
 7303TIP3   OH221865   8.088   4.709   3.653
 7303TIP3    H121866   8.026   4.670   3.714
 7303TIP3    H221867   8.172   4.668   3.673
 7304TIP3   OH221868   7.359   3.604   2.878
 7304TIP3    H121869   7.350   3.696   2.856
 7304TIP3    H221870   7.270   3.569   2.870
 7305TIP3   OH221871   3.015   2.949   3.640
 7305TIP3    H121872   2.975   2.992   3.565
 7305TIP3    H221873   2.958   2.874   3.659
 7306TIP3   OH221874   7.767   5.483   4.960
 7306TIP3    H121875   7.715   5.518   5.033
 7306TIP3    H221876   7.771   5.389   4.976
 7307TIP3   OH221877   2.646   1.390   5.668
 7307TIP3    H121878   2.627   1.482   5.650
 7307TIP3    H221879   2.739   1.379   5.647
 7308TIP3   OH221880   3.748   3.076   3.237
 7308TIP3    H121881   3.784   3.051   3.322
 7308TIP3    H221882   3.804   3.146   3.206
 7309TIP3   OH221883   5.054   4.921   4.587
 7309TIP3    H121884   5.003   4.852   4.543
 7309TIP3    H221885   5.103   4.962   4.516
 7310TIP3   OH221886   0.746   2.713   6.847
 7310TIP3    H121887   0.671   2.674   6.803
 7310TIP3    H221888   0.709   2.782   6.901
 7311TIP3   OH221889  -0.069   7.038   1.294
 7311TIP3    H121890   0.009   6.995   1.330
 7311TIP3    H221891  -0.038   7.083   1.215
 7312TIP3   OH221892   5.831   6.986   6.618
 7312TIP3    H121893   5.780   7.024   6.690
 7312TIP3    H221894   5.883   7.059   6.584
 7313TIP3   OH221895   5.133   2.569   3.388
 7313TIP3    H121896   5.148   2.647   3.334
 7313TIP3    H221897   5.089   2.507   3.329
 7314TIP3   OH221898   3.180   4.457   3.354
 7314TIP3    H121899   3.217   4.460   3.442
 7314TIP3    H221900   3.127   4.377   3.354
 7315TIP3   OH221901   3.803   2.326   6.586
 7315TIP3    H121902   3.762   2.293   6.666
 7315TIP3    H221903   3.752   2.404   6.564
 7316TIP3   OH221904   6.159   5.607   4.313
 7316TIP3    H121905   6.097   5.598   4.241
 7316TIP3    H221906   6.179   5.517   4.339
 7317TIP3   OH221907   1.561   4.760   1.864
 7317TIP3    H121908   1.569   4.683   1.920
 7317TIP3    H221909   1.646   4.804   1.872
 7318TIP3   OH221910   5.839   7.765   1.758
 7318TIP3    H121911   5.912   7.824   1.774
 7318TIP3    H221912   5.770   7.821   1.723
 7319TIP3   OH221913   2.410   0.339   2.746
 7319TIP3    H121914   2.358   0.263   2.720
 7319TIP3    H221915   2.362   0.377   2.820
 7320TIP3   OH221916   5.640   6.738   2.869
 7320TIP3    H121917   5.658   6.817   2.921
 7320TIP3    H221918   5.701   6.673   2.904
 7321TIP3   OH221919   0.329   5.392   5.030
 7321TIP3    H121920   0.297   5.302   5.034
 7321TIP3    H221921   0.397   5.390   4.962
 7322TIP3   OH221922   2.431   2.880   6.730
 7322TIP3    H121923   2.385   2.958   6.760
 7322TIP3    H221924   2.364   2.831   6.682
 7323TIP3   OH221925   3.341   4.269   2.057
 7323TIP3    H121926   3.287   4.343   2.086
 7323TIP3    H221927   3.277   4.204   2.027
 7324TIP3   OH221928   5.638   7.621   3.328
 7324TIP3    H121929   5.616   7.588   3.416
 7324TIP3    H221930   5.614   7.713   3.331
 7325TIP3   OH221931   5.097   0.648   3.973
 7325TIP3    H121932   5.001   0.643   3.972
 7325TIP3    H221933   5.126   0.569   3.928
 7326TIP3   OH221934   0.918   5.817   5.926
 7326TIP3    H121935   0.878   5.780   5.848
 7326TIP3    H221936   1.011   5.800   5.915
 7327TIP3   OH221937   7.538   1.710   5.298
 7327TIP3    H121938   7.466   1.690   5.358
 7327TIP3    H221939   7.572   1.625   5.272
 7328TIP3   OH221940   3.464   5.602   4.745
 7328TIP3    H121941   3.390   5.551   4.713
 7328TIP3    H221942   3.426   5.685   4.773
 7329TIP3   OH221943   4.937   3.081   3.223
 7329TIP3    H121944   4.938   3.174   3.246
 7329TIP3    H221945   5.022   3.066   3.181
 7330TIP3   OH221946   1.854   5.096   5.871
 7330TIP3    H121947   1.819   5.025   5.817
 7330TIP3    H221948   1.823   5.176   5.827
 7331TIP3   OH221949   5.440   0.366   1.335
 7331TIP3    H121950   5.526   0.407   1.341
 7331TIP3    H221951   5.408   0.392   1.249
 7332TIP3   OH221952   4.314   0.783   3.687
 7332TIP3    H121953   4.343   0.696   3.716
 7332TIP3    H221954   4.388   0.817   3.636
 7333TIP3   OH221955   0.222   4.657   4.738
 7333TIP3    H121956   0.237   4.628   4.828
 7333TIP3    H221957   0.286   4.608   4.686
 7334TIP3   OH221958   2.431   3.914   3.773
 7334TIP3    H121959   2.481   3.866   3.839
 7334TIP3    H221960   2.343   3.876   3.776
 7335TIP3   OH221961   1.048   3.569   1.120
 7335TIP3    H121962   0.956   3.541   1.126
 7335TIP3    H221963   1.049   3.631   1.047
 7336TIP3   OH221964   8.071   7.278   1.156
 7336TIP3    H121965   8.087   7.186   1.134
 7336TIP3    H221966   8.026   7.313   1.080
 7337TIP3   OH221967   3.535   7.876   5.002
 7337TIP3    H121968   3.531   7.781   5.016
 7337TIP3    H221969   3.485   7.913   5.075
 7338TIP3   OH221970   5.997   0.104   5.095
 7338TIP3    H121971   6.009   0.039   5.027
 7338TIP3    H221972   5.920   0.073   5.144
 7339TIP3   OH221973   7.486   0.225   5.543
 7339TIP3    H121974   7.392   0.207   5.550
 7339TIP3    H221975   7.500   0.247   5.451
 7340TIP3   OH221976   0.324   5.204   6.517
 7340TIP3    H121977   0.298   5.112   6.515
 7340TIP3    H221978   0.419   5.202   6.524
 7341TIP3   OH221979   2.641   5.931   5.187
 7341TIP3    H121980   2.678   6.001   5.242
 7341TIP3    H221981   2.717   5.894   5.141
 7342TIP3   OH221982   7.621   5.766   0.786
 7342TIP3    H121983   7.583   5.791   0.870
 7342TIP3    H221984   7.666   5.684   0.804
 7343TIP3   OH221985   0.700   1.200   1.265
 7343TIP3    H121986   0.714   1.264   1.334
 7343TIP3    H221987   0.726   1.116   1.303
 7344TIP3   OH221988   1.807   2.448   4.982
 7344TIP3    H121989   1.850   2.395   4.915
 7344TIP3    H221990   1.734   2.394   5.013
 7345TIP3   OH221991   4.113   4.924   3.615
 7345TIP3    H121992   4.075   4.974   3.542
 7345TIP3    H221993   4.196   4.969   3.634
 7346TIP3   OH221994   4.750   7.560   6.636
 7346TIP3    H121995   4.785   7.558   6.547
 7346TIP3    H221996   4.820   7.600   6.688
 7347TIP3   OH221997   3.599   6.846   0.557
 7347TIP3    H121998   3.626   6.828   0.647
 7347TIP3    H221999   3.531   6.782   0.539
 7348TIP3   OH222000   3.090   5.075   4.449
 7348TIP3    H122001   3.146   5.143   4.412
 7348TIP3    H222002   3.094   5.004   4.385
 7349TIP3   OH222003   4.456   4.355   6.637
 7349TIP3    H122004   4.426   4.270   6.669
 7349TIP3    H222005   4.529   4.334   6.579
 7350TIP3   OH222006   2.021   3.743   4.548
 7350TIP3    H122007   2.095   3.755   4.488
 7350TIP3    H222008   1.983   3.831   4.555
 7351TIP3   OH222009   6.024   2.329   4.534
 7351TIP3    H122010   6.111   2.364   4.557
 7351TIP3    H222011   5.983   2.400   4.485
 7352TIP3   OH222012   7.530   5.658   1.220
 7352TIP3    H122013   7.564   5.606   1.293
 7352TIP3    H222014   7.546   5.748   1.246
 7353TIP3   OH222015   1.937   4.679   5.410
 7353TIP3    H122016   1.849   4.649   5.390
 7353TIP3    H222017   1.944   4.765   5.369
 7354TIP3   OH222018   4.727   5.557   5.310
 7354TIP3    H122019   4.699   5.588   5.224
 7354TIP3    H222020   4.804   5.502   5.292
 7355TIP3   OH222021   6.502   2.150   0.753
 7355TIP3    H122022   6.542   2.127   0.668
 7355TIP3    H222023   6.539   2.087   0.814
 7356TIP3   OH222024   2.913   7.011   4.592
 7356TIP3    H122025   2.840   6.968   4.548
 7356TIP3    H222026   2.912   6.975   4.681
 7357TIP3   OH222027   3.130   7.307   0.955
 7357TIP3    H122028   3.132   7.313   1.051
 7357TIP3    H222029   3.167   7.221   0.936
 7358TIP3   OH222030   0.771   6.981   3.352
 7358TIP3    H122031   0.733   6.914   3.295
 7358TIP3    H222032   0.709   6.989   3.424
 7359TIP3   OH222033   3.659   6.039   2.771
 7359TIP3    H122034   3.701   5.960   2.736
 7359TIP3    H222035   3.572   6.009   2.797
 7360TIP3   OH222036   2.030   4.284   5.906
 7360TIP3    H122037   2.030   4.198   5.864
 7360TIP3    H222038   1.983   4.341   5.845
 7361TIP3   OH222039   3.044   6.357   2.463
 7361TIP3    H122040   3.133   6.372   2.494
 7361TIP3    H222041   3.009   6.290   2.522
 7362TIP3   OH222042   1.674   2.309   1.935
 7362TIP3    H122043   1.750   2.261   1.964
 7362TIP3    H222044   1.685   2.316   1.840
 7363TIP3   OH222045   3.753   4.360   2.194
 7363TIP3    H122046   3.776   4.453   2.196
 7363TIP3    H222047   3.725   4.340   2.283
 7364TIP3   OH222048   0.983   1.910   6.774
 7364TIP3    H122049   0.950   1.854   6.704
 7364TIP3    H222050   1.078   1.908   6.763
 7365TIP3   OH222051   1.586   7.741   3.304
 7365TIP3    H122052   1.662   7.766   3.251
 7365TIP3    H222053   1.597   7.789   3.386
 7366TIP3   OH222054   2.187   3.417   3.266
 7366TIP3    H122055   2.165   3.357   3.194
 7366TIP3    H222056   2.170   3.504   3.231
 7367TIP3   OH222057   3.638   3.792   2.791
 7367TIP3    H122058   3.682   3.877   2.778
 7367TIP3    H222059   3.550   3.816   2.819
 7368TIP3   OH222060   7.253   0.247   3.773
 7368TIP3    H122061   7.193   0.213   3.839
 7368TIP3    H222062   7.306   0.312   3.819
 7369TIP3   OH222063   7.000   3.227   2.782
 7369TIP3    H122064   7.070   3.290   2.801
 7369TIP3    H222065   7.024   3.149   2.831
 7370TIP3   OH222066   6.250   0.065   3.864
 7370TIP3    H122067   6.195   0.006   3.813
 7370TIP3    H222068   6.196   0.092   3.937
 7371TIP3   OH222069   7.983   5.962   2.089
 7371TIP3    H122070   7.983   5.881   2.038
 7371TIP3    H222071   8.043   6.020   2.042
 7372TIP3   OH222072   0.705   1.320   0.414
 7372TIP3    H122073   0.714   1.400   0.364
 7372TIP3    H222074   0.744   1.340   0.499
 7373TIP3   OH222075   2.018   1.292   2.807
 7373TIP3    H122076   2.105   1.326   2.785
 7373TIP3    H222077   1.984   1.352   2.873
 7374TIP3   OH222078   6.116   1.670   3.209
 7374TIP3    H122079   6.072   1.589   3.183
 7374TIP3    H222080   6.129   1.661   3.304
 7375TIP3   OH222081   5.953   3.813   5.244
 7375TIP3    H122082   6.026   3.814   5.182
 7375TIP3    H222083   5.922   3.904   5.247
 7376TIP3   OH222084   6.739   7.648   4.331
 7376TIP3    H122085   6.815   7.700   4.306
 7376TIP3    H222086   6.671   7.673   4.268
 7377TIP3   OH222087   8.333   4.806   0.310
 7377TIP3    H122088   8.371   4.893   0.317
 7377TIP3    H222089   8.254   4.809   0.364
 7378TIP3   OH222090   7.792   4.420   6.085
 7378TIP3    H122091   7.802   4.515   6.073
 7378TIP3    H222092   7.848   4.400   6.160
 7379TIP3   OH222093   0.846   5.396   5.801
 7379TIP3    H122094   0.781   5.466   5.799
 7379TIP3    H222095   0.927   5.438   5.774
 7380TIP3   OH222096   0.563   4.799   6.492
 7380TIP3    H122097   0.648   4.839   6.475
 7380TIP3    H222098   0.535   4.766   6.406
 7381TIP3   OH222099   3.981   5.214   0.512
 7381TIP3    H122100   4.014   5.127   0.534
 7381TIP3    H222101   3.898   5.198   0.468
 7382TIP3   OH222102   1.754   7.258   4.730
 7382TIP3    H122103   1.842   7.230   4.703
 7382TIP3    H222104   1.702   7.178   4.726
 7383TIP3   OH222105   4.038   4.010   0.510
 7383TIP3    H122106   4.043   4.093   0.558
 7383TIP3    H222107   3.955   4.016   0.461
 7384TIP3   OH222108   6.842   4.107   4.388
 7384TIP3    H122109   6.767   4.064   4.347
 7384TIP3    H222110   6.831   4.091   4.482
 7385TIP3   OH222111   1.099   4.901   4.916
 7385TIP3    H122112   1.117   4.815   4.878
 7385TIP3    H222113   1.130   4.894   5.006
 7386TIP3   OH222114   7.600   2.418   6.256
 7386TIP3    H122115   7.636   2.381   6.336
 7386TIP3    H222116   7.644   2.371   6.185
 7387TIP3   OH222117   4.861   7.540   4.011
 7387TIP3    H122118   4.953   7.524   3.988
 7387TIP3    H222119   4.836   7.616   3.960
 7388TIP3   OH222120   3.919   1.956   1.063
 7388TIP3    H122121   3.841   1.974   1.010
 7388TIP3    H222122   3.911   2.015   1.138
 7389TIP3   OH222123   0.237   7.329   0.289
 7389TIP3    H122124   0.153   7.370   0.311
 7389TIP3    H222125   0.303   7.389   0.324
 7390TIP3   OH222126   2.871   3.660   0.581
 7390TIP3    H122127   2.802   3.648   0.646
 7390TIP3    H222128   2.893   3.571   0.552
 7391TIP3   OH222129   7.091   1.346   6.558
 7391TIP3    H122130   7.098   1.304   6.644
 7391TIP3    H222131   7.081   1.274   6.496
 7392TIP3   OH222132   0.893   2.379   1.144
 7392TIP3    H122133   0.974   2.354   1.100
 7392TIP3    H222134   0.824   2.357   1.082
 7393TIP3   OH222135   4.595   1.069   2.357
 7393TIP3    H122136   4.585   0.976   2.337
 7393TIP3    H222137   4.506   1.099   2.375
 7394TIP3   OH222138   2.341   0.265   6.227
 7394TIP3    H122139   2.378   0.220   6.302
 7394TIP3    H222140   2.248   0.242   6.228
 7395TIP3   OH222141   7.505   1.335   3.506
 7395TIP3    H122142   7.422   1.307   3.466
 7395TIP3    H222143   7.504   1.431   3.497
 7396TIP3   OH222144   3.967   1.739   0.874
 7396TIP3    H122145   3.931   1.773   0.792
 7396TIP3    H222146   3.949   1.807   0.938
 7397TIP3   OH222147   0.303   7.485   4.696
 7397TIP3    H122148   0.314   7.423   4.624
 7397TIP3    H222149   0.302   7.571   4.654
 7398TIP3   OH222150   7.400   5.117   0.135
 7398TIP3    H122151   7.456   5.042   0.153
 7398TIP3    H222152   7.363   5.099   0.048
 7399TIP3   OH222153   4.322   3.409   3.994
 7399TIP3    H122154   4.296   3.412   3.902
 7399TIP3    H222155   4.330   3.501   4.020
 7400TIP3   OH222156   1.952   0.970   6.180
 7400TIP3    H122157   1.871   0.987   6.132
 7400TIP3    H222158   2.021   1.002   6.122
 7401TIP3   OH222159   4.859   2.327   4.423
 7401TIP3    H122160   4.794   2.265   4.390
 7401TIP3    H222161   4.854   2.402   4.364
 7402TIP3   OH222162   2.710   6.352   4.707
 7402TIP3    H122163   2.638   6.385   4.652
 7402TIP3    H222164   2.736   6.427   4.759
 7403TIP3   OH222165   3.886   0.269   5.916
 7403TIP3    H122166   3.891   0.241   5.825
 7403TIP3    H222167   3.817   0.335   5.917
 7404TIP3   OH222168   3.428   2.503   0.950
 7404TIP3    H122169   3.461   2.590   0.972
 7404TIP3    H222170   3.466   2.484   0.864
 7405TIP3   OH222171   1.649   4.567   2.561
 7405TIP3    H122172   1.653   4.471   2.560
 7405TIP3    H222173   1.562   4.588   2.528
 7406TIP3   OH222174   7.228   0.048   0.736
 7406TIP3    H122175   7.242   0.046   0.641
 7406TIP3    H222176   7.301   0.101   0.769
 7407TIP3   OH222177   6.429   7.033   2.109
 7407TIP3    H122178   6.413   6.962   2.046
 7407TIP3    H222179   6.507   7.004   2.157
 7408TIP3   OH222180   0.671   0.443   0.284
 7408TIP3    H122181   0.704   0.402   0.204
 7408TIP3    H222182   0.576   0.441   0.274
 7409TIP3   OH222183   5.866   6.589   2.542
 7409TIP3    H122184   5.955   6.554   2.540
 7409TIP3    H222185   5.821   6.543   2.472
 7410TIP3   OH222186   6.121   2.753   1.843
 7410TIP3    H122187   6.199   2.738   1.897
 7410TIP3    H222188   6.156   2.780   1.758
 7411TIP3   OH222189   4.891   1.847   1.150
 7411TIP3    H122190   4.903   1.937   1.180
 7411TIP3    H222191   4.796   1.834   1.153
 7412TIP3   OH222192   3.517   3.660   6.667
 7412TIP3    H122193   3.515   3.636   6.574
 7412TIP3    H222194   3.607   3.645   6.694
 7413TIP3   OH222195   2.533   4.414   2.342
 7413TIP3    H122196   2.612   4.467   2.327
 7413TIP3    H222197   2.532   4.399   2.437
 7414TIP3   OH222198   1.643   0.832   0.653
 7414TIP3    H122199   1.645   0.848   0.747
 7414TIP3    H222200   1.734   0.815   0.629
 7415TIP3   OH222201   2.914   5.748   5.400
 7415TIP3    H122202   2.887   5.660   5.430
 7415TIP3    H222203   2.890   5.750   5.308
 7416TIP3   OH222204   5.826   1.614   2.106
 7416TIP3    H122205   5.895   1.679   2.104
 7416TIP3    H222206   5.769   1.641   2.177
 7417TIP3   OH222207   0.682   6.773   6.790
 7417TIP3    H122208   0.654   6.841   6.730
 7417TIP3    H222209   0.746   6.721   6.740
 7418TIP3   OH222210   7.658   0.592   3.082
 7418TIP3    H122211   7.727   0.578   3.017
 7418TIP3    H222212   7.685   0.672   3.128
 7419TIP3   OH222213   4.343   7.032   5.632
 7419TIP3    H122214   4.248   7.034   5.642
 7419TIP3    H222215   4.363   6.941   5.607
 7420TIP3   OH222216   6.788   4.577   6.215
 7420TIP3    H122217   6.705   4.597   6.258
 7420TIP3    H222218   6.805   4.652   6.159
 7421TIP3   OH222219   7.327   5.817   1.451
 7421TIP3    H122220   7.274   5.878   1.501
 7421TIP3    H222221   7.329   5.737   1.504
 7422TIP3   OH222222   0.269   3.410   0.084
 7422TIP3    H122223   0.262   3.506   0.080
 7422TIP3    H222224   0.190   3.382   0.129
 7423TIP3   OH222225   4.128   2.518   4.022
 7423TIP3    H122226   4.088   2.601   4.048
 7423TIP3    H222227   4.185   2.496   4.096
 7424TIP3   OH222228   7.862   6.913   0.332
 7424TIP3    H122229   7.869   7.009   0.340
 7424TIP3    H222230   7.799   6.900   0.261
 7425TIP3   OH222231   6.759   7.547   2.051
 7425TIP3    H122232   6.829   7.485   2.031
 7425TIP3    H222233   6.763   7.612   1.981
 7426TIP3   OH222234   8.051   6.994   1.960
 7426TIP3    H122235   7.959   7.004   1.936
 7426TIP3    H222236   8.092   6.954   1.883
 7427TIP3   OH222237   7.382   0.527   1.712
 7427TIP3    H122238   7.422   0.614   1.712
 7427TIP3    H222239   7.415   0.486   1.793
 7428TIP3   OH222240   2.635   1.707   3.875
 7428TIP3    H122241   2.658   1.714   3.783
 7428TIP3    H222242   2.720   1.700   3.920
 7429TIP3   OH222243   5.724   3.845  -0.020
 7429TIP3    H122244   5.790   3.871   0.043
 7429TIP3    H222245   5.722   3.915  -0.084
 7430TIP3   OH222246   6.221   5.509   0.344
 7430TIP3    H122247   6.268   5.565   0.405
 7430TIP3    H222248   6.199   5.431   0.394
 7431TIP3   OH222249   6.482   3.739   0.486
 7431TIP3    H122250   6.486   3.774   0.575
 7431TIP3    H222251   6.484   3.816   0.430
 7432TIP3   OH222252   6.233   0.942   3.538
 7432TIP3    H122253   6.310   0.988   3.572
 7432TIP3    H222254   6.238   0.954   3.443
 7433TIP3   OH222255   2.037   0.169   3.191
 7433TIP3    H122256   2.011   0.179   3.099
 7433TIP3    H222257   2.116   0.116   3.187
 7434TIP3   OH222258   0.769   0.640   1.597
 7434TIP3    H122259   0.760   0.641   1.502
 7434TIP3    H222260   0.852   0.684   1.614
 7435TIP3   OH222261   8.026   1.454   2.253
 7435TIP3    H122262   8.086   1.528   2.241
 7435TIP3    H222263   8.049   1.393   2.182
 7436TIP3   OH222264   6.010   3.187   1.339
 7436TIP3    H122265   5.947   3.197   1.410
 7436TIP3    H222266   5.966   3.225   1.263
 7437TIP3   OH222267   2.355   2.703   5.680
 7437TIP3    H122268   2.307   2.639   5.629
 7437TIP3    H222269   2.344   2.785   5.633
 7438TIP3   OH222270   1.700   5.117   1.574
 7438TIP3    H122271   1.605   5.108   1.582
 7438TIP3    H222272   1.724   5.182   1.640
 7439TIP3   OH222273   6.569   5.095   6.662
 7439TIP3    H122274   6.592   5.149   6.737
 7439TIP3    H222275   6.634   5.024   6.663
 7440TIP3   OH222276   5.597   7.518   3.568
 7440TIP3    H122277   5.540   7.442   3.582
 7440TIP3    H222278   5.567   7.582   3.632
 7441TIP3   OH222279   0.339   5.834   1.779
 7441TIP3    H122280   0.373   5.757   1.824
 7441TIP3    H222281   0.256   5.852   1.823
 7442TIP3   OH222282   5.568   6.636   1.055
 7442TIP3    H122283   5.563   6.708   1.117
 7442TIP3    H222284   5.654   6.596   1.071
 7443TIP3   OH222285   5.026   7.687   0.431
 7443TIP3    H122286   4.960   7.749   0.464
 7443TIP3    H222287   4.976   7.626   0.377
 7444TIP3   OH222288   2.720   3.698   1.592
 7444TIP3    H122289   2.746   3.679   1.682
 7444TIP3    H222290   2.755   3.624   1.541
 7445TIP3   OH222291   0.900   3.249   1.687
 7445TIP3    H122292   0.807   3.235   1.667
 7445TIP3    H222293   0.913   3.343   1.674
 7446TIP3   OH222294   7.256   2.425   4.261
 7446TIP3    H122295   7.191   2.401   4.195
 7446TIP3    H222296   7.332   2.456   4.211
 7447TIP3   OH222297   7.338   3.474   6.428
 7447TIP3    H122298   7.425   3.436   6.441
 7447TIP3    H222299   7.280   3.398   6.422
 7448TIP3   OH222300   6.679   4.614   0.033
 7448TIP3    H122301   6.761   4.656   0.058
 7448TIP3    H222302   6.667   4.636  -0.059
 7449TIP3   OH222303   2.783   5.211   4.397
 7449TIP3    H122304   2.725   5.282   4.423
 7449TIP3    H222305   2.731   5.132   4.410
 7450TIP3   OH222306   7.796   1.896   4.064
 7450TIP3    H122307   7.712   1.902   4.110
 7450TIP3    H222308   7.858   1.938   4.123
 7451TIP3   OH222309   8.307   0.264   0.655
 7451TIP3    H122310   8.361   0.218   0.590
 7451TIP3    H222311   8.355   0.254   0.738
 7452TIP3   OH222312   8.252   1.717   3.105
 7452TIP3    H122313   8.260   1.797   3.052
 7452TIP3    H222314   8.338   1.708   3.146
 7453TIP3   OH222315   4.529   2.637   1.895
 7453TIP3    H122316   4.518   2.591   1.978
 7453TIP3    H222317   4.461   2.703   1.895
 7454TIP3   OH222318   1.176   7.605   5.787
 7454TIP3    H122319   1.090   7.569   5.807
 7454TIP3    H222320   1.220   7.611   5.871
 7455TIP3   OH222321   1.174   7.729   1.065
 7455TIP3    H122322   1.265   7.704   1.051
 7455TIP3    H222323   1.175   7.825   1.060
 7456TIP3   OH222324   4.563   4.085   3.800
 7456TIP3    H122325   4.641   4.084   3.745
 7456TIP3    H222326   4.498   4.134   3.748
 7457TIP3   OH222327   0.497   4.903   2.420
 7457TIP3    H122328   0.454   4.945   2.494
 7457TIP3    H222329   0.508   4.812   2.447
 7458TIP3   OH222330   1.987   4.327   0.060
 7458TIP3    H122331   2.001   4.405   0.114
 7458TIP3    H222332   1.913   4.350   0.003
 7459TIP3   OH222333   5.323   2.647   6.486
 7459TIP3    H122334   5.236   2.629   6.450
 7459TIP3    H222335   5.306   2.704   6.561
 7460TIP3   OH222336   6.455   1.086   5.841
 7460TIP3    H122337   6.529   1.033   5.811
 7460TIP3    H222338   6.379   1.028   5.830
 7461TIP3   OH222339   4.257   0.236   4.092
 7461TIP3    H122340   4.255   0.310   4.152
 7461TIP3    H222341   4.222   0.163   4.142
 7462TIP3   OH222342   2.433   3.850   6.215
 7462TIP3    H122343   2.521   3.816   6.202
 7462TIP3    H222344   2.445   3.939   6.245
 7463TIP3   OH222345   7.246  -0.022   2.107
 7463TIP3    H122346   7.195   0.052   2.138
 7463TIP3    H222347   7.337   0.006   2.116
 7464TIP3   OH222348   2.989   1.612   4.378
 7464TIP3    H122349   2.899   1.630   4.405
 7464TIP3    H222350   2.999   1.661   4.296
 7465TIP3   OH222351   0.902   4.185   2.730
 7465TIP3    H122352   0.839   4.186   2.658
 7465TIP3    H222353   0.888   4.268   2.775
 7466TIP3   OH222354   5.242   2.293   2.058
 7466TIP3    H122355   5.301   2.233   2.103
 7466TIP3    H222356   5.154   2.266   2.085
 7467TIP3   OH222357   4.584   2.493   6.555
 7467TIP3    H122358   4.584   2.401   6.532
 7467TIP3    H222359   4.560   2.495   6.648
 7468TIP3   OH222360   1.533   5.116   5.696
 7468TIP3    H122361   1.527   5.150   5.607
 7468TIP3    H222362   1.563   5.026   5.686
 7469TIP3   OH222363   0.419   0.264   3.636
 7469TIP3    H122364   0.387   0.214   3.711
 7469TIP3    H222365   0.343   0.273   3.578
 7470TIP3   OH222366   3.646   7.572   5.409
 7470TIP3    H122367   3.717   7.633   5.428
 7470TIP3    H222368   3.680   7.487   5.437
 7471TIP3   OH222369   2.874   1.340   6.456
 7471TIP3    H122370   2.811   1.311   6.522
 7471TIP3    H222371   2.827   1.332   6.373
 7472TIP3   OH222372  -0.004   0.386   1.916
 7472TIP3    H122373  -0.025   0.431   1.997
 7472TIP3    H222374  -0.076   0.324   1.904
 7473TIP3   OH222375   5.687   3.169   5.318
 7473TIP3    H122376   5.635   3.091   5.335
 7473TIP3    H222377   5.774   3.137   5.297
 7474TIP3   OH222378   7.994   5.315   2.506
 7474TIP3    H122379   7.976   5.308   2.413
 7474TIP3    H222380   8.005   5.225   2.536
 7475TIP3   OH222381   0.717   1.483   1.703
 7475TIP3    H122382   0.642   1.485   1.644
 7475TIP3    H222383   0.705   1.559   1.760
 7476TIP3   OH222384   8.150   0.497   0.704
 7476TIP3    H122385   8.192   0.415   0.678
 7476TIP3    H222386   8.154   0.497   0.800
 7477TIP3   OH222387   0.637   0.419   5.507
 7477TIP3    H122388   0.663   0.385   5.592
 7477TIP3    H222389   0.544   0.399   5.500
 7478TIP3   OH222390   5.602   4.202   3.686
 7478TIP3    H122391   5.638   4.136   3.746
 7478TIP3    H222392   5.638   4.178   3.600
 7479TIP3   OH222393   3.325   0.462   4.954
 7479TIP3    H122394   3.230   0.468   4.944
 7479TIP3    H222395   3.338   0.387   5.012
 7480TIP3   OH222396   8.204   7.773   1.260
 7480TIP3    H122397   8.295   7.775   1.292
 7480TIP3    H222398   8.181   7.681   1.260
 7481TIP3   OH222399   5.339   0.301   2.282
 7481TIP3    H122400   5.329   0.286   2.188
 7481TIP3    H222401   5.324   0.215   2.322
 7482TIP3   OH222402   1.138   5.284   0.688
 7482TIP3    H122403   1.204   5.339   0.729
 7482TIP3    H222404   1.179   5.253   0.607
 7483TIP3   OH222405   2.529   6.672   3.074
 7483TIP3    H122406   2.499   6.762   3.066
 7483TIP3    H222407   2.614   6.679   3.118
 7484TIP3   OH222408   6.918   2.145   2.243
 7484TIP3    H122409   6.877   2.231   2.251
 7484TIP3    H222410   6.916   2.109   2.332
 7485TIP3   OH222411   7.412   0.846   4.283
 7485TIP3    H122412   7.507   0.830   4.281
 7485TIP3    H222413   7.373   0.759   4.275
 7486TIP3   OH222414   5.678   7.189   0.230
 7486TIP3    H122415   5.591   7.153   0.215
 7486TIP3    H222416   5.717   7.132   0.296
 7487TIP3   OH222417   2.050   3.990   2.071
 7487TIP3    H122418   2.137   4.025   2.048
 7487TIP3    H222419   2.021   3.947   1.991
 7488TIP3   OH222420   7.560   2.885   4.018
 7488TIP3    H122421   7.578   2.946   3.947
 7488TIP3    H222422   7.529   2.806   3.973
 7489TIP3   OH222423   4.250   1.096   0.859
 7489TIP3    H122424   4.163   1.070   0.828
 7489TIP3    H222425   4.237   1.120   0.950
 7490TIP3   OH222426   5.767   2.775   4.867
 7490TIP3    H122427   5.708   2.788   4.942
 7490TIP3    H222428   5.829   2.709   4.898
 7491TIP3   OH222429   0.099   4.050   4.596
 7491TIP3    H122430   0.123   4.040   4.504
 7491TIP3    H222431   0.037   3.980   4.614
 7492TIP3   OH222432   4.918   3.240   1.803
 7492TIP3    H122433   4.840   3.237   1.749
 7492TIP3    H222434   4.922   3.331   1.834
 7493TIP3   OH222435   3.178   0.036   4.156
 7493TIP3    H122436   3.207   0.062   4.244
 7493TIP3    H222437   3.087   0.067   4.151
 7494TIP3   OH222438   2.053   1.593   6.133
 7494TIP3    H122439   1.989   1.603   6.202
 7494TIP3    H222440   2.003   1.597   6.052
 7495TIP3   OH222441   1.262   6.031   4.650
 7495TIP3    H122442   1.300   5.943   4.651
 7495TIP3    H222443   1.336   6.089   4.631
 7496TIP3   OH222444   3.259   0.098   0.523
 7496TIP3    H122445   3.326   0.063   0.465
 7496TIP3    H222446   3.283   0.065   0.610
 7497TIP3   OH222447   6.807   5.488   0.290
 7497TIP3    H122448   6.775   5.577   0.275
 7497TIP3    H222449   6.815   5.481   0.385
 7498TIP3   OH222450   6.138   1.593   6.615
 7498TIP3    H122451   6.140   1.643   6.697
 7498TIP3    H222452   6.067   1.631   6.565
 7499TIP3   OH222453   2.706   5.392   5.684
 7499TIP3    H122454   2.711   5.487   5.680
 7499TIP3    H222455   2.795   5.363   5.704
 7500TIP3   OH222456   2.617   0.687   5.568
 7500TIP3    H122457   2.537   0.719   5.610
 7500TIP3    H222458   2.586   0.625   5.502
 7501TIP3   OH222459   3.978   5.823   5.713
 7501TIP3    H122460   3.955   5.910   5.681
 7501TIP3    H222461   4.066   5.808   5.679
 7502TIP3   OH222462   0.318   3.178   1.283
 7502TIP3    H122463   0.387   3.149   1.224
 7502TIP3    H222464   0.343   3.142   1.369
 7503TIP3   OH222465   7.235   6.951   4.762
 7503TIP3    H122466   7.273   6.864   4.760
 7503TIP3    H222467   7.308   7.009   4.738
 7504TIP3   OH222468   2.582   7.527   3.577
 7504TIP3    H122469   2.553   7.605   3.530
 7504TIP3    H222470   2.602   7.463   3.509
 7505TIP3   OH222471   1.410   4.203   2.466
 7505TIP3    H122472   1.329   4.188   2.515
 7505TIP3    H222473   1.429   4.119   2.424
 7506TIP3   OH222474   1.605   4.404   2.282
 7506TIP3    H122475   1.520   4.441   2.307
 7506TIP3    H222476   1.637   4.363   2.362
 7507TIP3   OH222477  -0.045   2.772   4.304
 7507TIP3    H122478  -0.078   2.838   4.364
 7507TIP3    H222479   0.046   2.757   4.331
 7508TIP3   OH222480   7.919   3.589   3.440
 7508TIP3    H122481   7.846   3.650   3.431
 7508TIP3    H222482   7.878   3.506   3.465
 7509TIP3   OH222483   4.267   4.531   5.937
 7509TIP3    H122484   4.273   4.525   6.032
 7509TIP3    H222485   4.301   4.448   5.905
 7510TIP3   OH222486   1.076   5.399   3.962
 7510TIP3    H122487   1.123   5.380   4.044
 7510TIP3    H222488   1.093   5.323   3.907
 7511TIP3   OH222489   0.981   3.766   0.930
 7511TIP3    H122490   0.891   3.774   0.897
 7511TIP3    H222491   0.989   3.837   0.993
 7512TIP3   OH222492   2.518   3.137   5.484
 7512TIP3    H122493   2.586   3.075   5.455
 7512TIP3    H222494   2.457   3.141   5.411
 7513TIP3   OH222495   4.378   1.014   6.403
 7513TIP3    H122496   4.342   1.018   6.492
 7513TIP3    H222497   4.306   1.046   6.348
 7514TIP3   OH222498   0.292   4.672   0.290
 7514TIP3    H122499   0.223   4.734   0.315
 7514TIP3    H222500   0.303   4.616   0.367
 7515TIP3   OH222501   3.667   5.752   4.251
 7515TIP3    H122502   3.700   5.796   4.173
 7515TIP3    H222503   3.743   5.707   4.288
 7516TIP3   OH222504   0.595   5.325   1.676
 7516TIP3    H122505   0.601   5.244   1.625
 7516TIP3    H222506   0.675   5.373   1.655
 7517TIP3   OH222507   0.663   6.861   2.152
 7517TIP3    H122508   0.731   6.795   2.168
 7517TIP3    H222509   0.612   6.863   2.233
 7518TIP3   OH222510   3.462   3.379   4.646
 7518TIP3    H122511   3.385   3.425   4.678
 7518TIP3    H222512   3.458   3.293   4.687
 7519TIP3   OH222513   1.957   3.824   6.758
 7519TIP3    H122514   1.998   3.910   6.769
 7519TIP3    H222515   1.992   3.791   6.676
 7520TIP3   OH222516   4.328   3.678   4.050
 7520TIP3    H122517   4.283   3.724   4.120
 7520TIP3    H222518   4.348   3.745   3.985
 7521TIP3   OH222519   3.048   7.150   2.577
 7521TIP3    H122520   3.040   7.061   2.544
 7521TIP3    H222521   3.076   7.140   2.668
 7522TIP3   OH222522   6.288   2.333   4.595
 7522TIP3    H122523   6.353   2.395   4.627
 7522TIP3    H222524   6.339   2.270   4.543
 7523TIP3   OH222525   7.355   3.967   2.011
 7523TIP3    H122526   7.301   4.045   1.995
 7523TIP3    H222527   7.400   3.985   2.093
 7524TIP3   OH222528   1.621   5.683   0.475
 7524TIP3    H122529   1.592   5.606   0.524
 7524TIP3    H222530   1.549   5.745   0.481
 7525TIP3   OH222531   8.124   0.433   2.593
 7525TIP3    H122532   8.077   0.412   2.674
 7525TIP3    H222533   8.190   0.364   2.585
 7526TIP3   OH222534   3.591   7.273   4.130
 7526TIP3    H122535   3.614   7.189   4.169
 7526TIP3    H222536   3.552   7.251   4.045
 7527TIP3   OH222537   4.392   2.854   4.528
 7527TIP3    H122538   4.337   2.918   4.482
 7527TIP3    H222539   4.368   2.770   4.489
 7528TIP3   OH222540   5.792   4.179   6.113
 7528TIP3    H122541   5.739   4.189   6.033
 7528TIP3    H222542   5.766   4.094   6.148
 7529TIP3   OH222543   1.166   3.041   4.525
 7529TIP3    H122544   1.258   3.031   4.550
 7529TIP3    H222545   1.168   3.047   4.429
 7530TIP3   OH222546   3.527   2.102   3.016
 7530TIP3    H122547   3.531   2.006   3.022
 7530TIP3    H222548   3.587   2.124   2.944
 7531TIP3   OH222549   1.891   6.416   3.592
 7531TIP3    H122550   1.969   6.360   3.596
 7531TIP3    H222551   1.924   6.504   3.607
 7532TIP3   OH222552   4.664   3.080   1.705
 7532TIP3    H122553   4.720   3.117   1.637
 7532TIP3    H222554   4.632   2.997   1.667
 7533TIP3   OH222555   6.662   3.788   6.415
 7533TIP3    H122556   6.735   3.805   6.356
 7533TIP3    H222557   6.666   3.694   6.432
 7534TIP3   OH222558   8.156   0.840   2.064
 7534TIP3    H122559   8.247   0.831   2.038
 7534TIP3    H222560   8.159   0.862   2.157
 7535TIP3   OH222561   4.873   4.222   2.941
 7535TIP3    H122562   4.780   4.236   2.923
 7535TIP3    H222563   4.912   4.207   2.855
 7536TIP3   OH222564   0.489   0.598   4.964
 7536TIP3    H122565   0.498   0.630   4.874
 7536TIP3    H222566   0.545   0.656   5.015
 7537TIP3   OH222567   1.732   4.856   4.828
 7537TIP3    H122568   1.723   4.952   4.828
 7537TIP3    H222569   1.688   4.828   4.748
 7538TIP3   OH222570   3.169   5.528   4.673
 7538TIP3    H122571   3.165   5.443   4.629
 7538TIP3    H222572   3.127   5.513   4.758
 7539TIP3   OH222573   7.162   4.677   3.358
 7539TIP3    H122574   7.177   4.582   3.357
 7539TIP3    H222575   7.108   4.692   3.436
 7540TIP3   OH222576   5.115   1.729   1.989
 7540TIP3    H122577   5.159   1.813   2.006
 7540TIP3    H222578   5.022   1.749   1.999
 7541TIP3   OH222579   1.876   6.565   2.795
 7541TIP3    H122580   1.805   6.582   2.857
 7541TIP3    H222581   1.849   6.485   2.749
 7542TIP3   OH222582   1.851   5.101   0.636
 7542TIP3    H122583   1.862   5.090   0.730
 7542TIP3    H222584   1.757   5.115   0.624
 7543TIP3   OH222585   4.051   4.889   3.148
 7543TIP3    H122586   3.960   4.866   3.166
 7543TIP3    H222587   4.102   4.818   3.189
 7544TIP3   OH222588   4.545   4.131   3.091
 7544TIP3    H122589   4.486   4.156   3.162
 7544TIP3    H222590   4.495   4.151   3.011
 7545TIP3   OH222591   1.161   5.236   3.245
 7545TIP3    H122592   1.121   5.305   3.192
 7545TIP3    H222593   1.191   5.171   3.181
 7546TIP3   OH222594   4.906   1.909   4.152
 7546TIP3    H122595   4.924   1.935   4.243
 7546TIP3    H222596   4.873   1.988   4.110
 7547TIP3   OH222597   0.114   2.138   3.092
 7547TIP3    H122598   0.082   2.134   3.182
 7547TIP3    H222599   0.079   2.059   3.051
 7548TIP3   OH222600   3.624   6.117   1.267
 7548TIP3    H122601   3.560   6.169   1.316
 7548TIP3    H222602   3.615   6.148   1.177
 7549TIP3   OH222603   8.116   2.867   5.367
 7549TIP3    H122604   8.171   2.924   5.421
 7549TIP3    H222605   8.054   2.828   5.429
 7550TIP3   OH222606   3.280   1.437   5.971
 7550TIP3    H122607   3.368   1.474   5.980
 7550TIP3    H222608   3.260   1.403   6.058
 7551TIP3   OH222609   4.523   5.227   3.740
 7551TIP3    H122610   4.511   5.289   3.812
 7551TIP3    H222611   4.603   5.179   3.762
 7552TIP3   OH222612   3.399   6.074   2.900
 7552TIP3    H122613   3.360   6.022   2.829
 7552TIP3    H222614   3.416   6.010   2.970
 7553TIP3   OH222615   1.089   3.782   5.504
 7553TIP3    H122616   1.128   3.839   5.571
 7553TIP3    H222617   1.064   3.841   5.433
 7554TIP3   OH222618   2.572   1.006   6.752
 7554TIP3    H122619   2.524   1.088   6.756
 7554TIP3    H222620   2.585   0.990   6.659
 7555TIP3   OH222621   1.797   1.211   0.437
 7555TIP3    H122622   1.841   1.158   0.504
 7555TIP3    H222623   1.706   1.181   0.438
 7556TIP3   OH222624   4.771   3.689   2.182
 7556TIP3    H122625   4.687   3.682   2.136
 7556TIP3    H222626   4.773   3.779   2.215
 7557TIP3   OH222627   3.657   3.392   1.077
 7557TIP3    H122628   3.641   3.416   0.985
 7557TIP3    H222629   3.646   3.297   1.079
 7558TIP3   OH222630   4.944   0.727   6.278
 7558TIP3    H122631   5.031   0.752   6.247
 7558TIP3    H222632   4.890   0.725   6.199
 7559TIP3   OH222633   5.609   2.668   4.620
 7559TIP3    H122634   5.562   2.717   4.688
 7559TIP3    H222635   5.651   2.597   4.668
 7560TIP3   OH222636   4.296   2.161   3.840
 7560TIP3    H122637   4.344   2.152   3.923
 7560TIP3    H222638   4.240   2.237   3.854
 7561TIP3   OH222639   6.291   0.900   4.577
 7561TIP3    H122640   6.340   0.897   4.660
 7561TIP3    H222641   6.199   0.899   4.603
 7562TIP3   OH222642   7.626   6.151   3.860
 7562TIP3    H122643   7.678   6.095   3.802
 7562TIP3    H222644   7.649   6.121   3.948
 7563TIP3   OH222645   4.019   5.642   2.638
 7563TIP3    H122646   3.941   5.587   2.629
 7563TIP3    H222647   4.092   5.585   2.616
 7564TIP3   OH222648   1.809   5.829   6.202
 7564TIP3    H122649   1.885   5.796   6.153
 7564TIP3    H222650   1.846   5.868   6.281
 7565TIP3   OH222651   2.344   2.623   1.809
 7565TIP3    H122652   2.286   2.648   1.738
 7565TIP3    H222653   2.385   2.542   1.780
 7566TIP3   OH222654   0.548   1.717   6.435
 7566TIP3    H122655   0.610   1.662   6.388
 7566TIP3    H222656   0.462   1.684   6.410
 7567TIP3   OH222657   3.817   4.347   4.562
 7567TIP3    H122658   3.885   4.292   4.523
 7567TIP3    H222659   3.750   4.285   4.591
 7568TIP3   OH222660   2.043   0.356   5.879
 7568TIP3    H122661   1.990   0.351   5.958
 7568TIP3    H222662   2.128   0.389   5.908
 7569TIP3   OH222663   7.381   5.639   4.011
 7569TIP3    H122664   7.443   5.702   4.046
 7569TIP3    H222665   7.404   5.631   3.918
 7570TIP3   OH222666   4.801   2.527   5.496
 7570TIP3    H122667   4.791   2.622   5.489
 7570TIP3    H222668   4.837   2.514   5.584
 7571TIP3   OH222669   4.162   5.795   2.291
 7571TIP3    H122670   4.144   5.834   2.205
 7571TIP3    H222671   4.093   5.829   2.347
 7572TIP3   OH222672   6.588   4.730   3.241
 7572TIP3    H122673   6.601   4.802   3.180
 7572TIP3    H222674   6.502   4.747   3.280
 7573TIP3   OH222675   4.921   6.598   2.991
 7573TIP3    H122676   4.997   6.622   2.938
 7573TIP3    H222677   4.846   6.611   2.933
 7574TIP3   OH222678   8.004   4.673   2.291
 7574TIP3    H122679   7.919   4.680   2.334
 7574TIP3    H222680   8.041   4.761   2.296
 7575TIP3   OH222681   7.082   4.539   0.107
 7575TIP3    H122682   7.073   4.593   0.186
 7575TIP3    H222683   7.157   4.576   0.061
 7576TIP3   OH222684   1.580   5.777   1.482
 7576TIP3    H122685   1.618   5.769   1.570
 7576TIP3    H222686   1.491   5.745   1.491
 7577TIP3   OH222687   4.182   0.251   4.586
 7577TIP3    H122688   4.106   0.195   4.598
 7577TIP3    H222689   4.146   0.337   4.564
 7578TIP3   OH222690   4.333   4.111   1.715
 7578TIP3    H122691   4.383   4.188   1.742
 7578TIP3    H222692   4.279   4.141   1.643
 7579TIP3   OH222693   5.544   0.375   5.274
 7579TIP3    H122694   5.470   0.394   5.332
 7579TIP3    H222695   5.563   0.459   5.232
 7580TIP3   OH222696   3.949   0.130   6.427
 7580TIP3    H122697   3.894   0.186   6.481
 7580TIP3    H222698   3.942   0.166   6.339
 7581TIP3   OH222699   6.923   3.294   3.944
 7581TIP3    H122700   6.912   3.267   3.853
 7581TIP3    H222701   6.895   3.219   3.996
 7582TIP3   OH222702   6.873   4.694   1.908
 7582TIP3    H122703   6.918   4.774   1.935
 7582TIP3    H222704   6.873   4.697   1.812
 7583TIP3   OH222705   2.065   3.704   1.632
 7583TIP3    H122706   2.043   3.614   1.605
 7583TIP3    H222707   2.115   3.739   1.558
 7584TIP3   OH222708   1.933   7.358   3.577
 7584TIP3    H122709   2.003   7.358   3.511
 7584TIP3    H222710   1.961   7.292   3.641
 7585TIP3   OH222711   5.190   5.029   1.939
 7585TIP3    H122712   5.182   5.022   1.844
 7585TIP3    H222713   5.268   5.083   1.953
 7586TIP3   OH222714   1.952   5.728   2.692
 7586TIP3    H122715   1.997   5.735   2.776
 7586TIP3    H222716   1.904   5.645   2.698
 7587TIP3   OH222717   0.705   7.089   4.116
 7587TIP3    H122718   0.613   7.093   4.142
 7587TIP3    H222719   0.751   7.064   4.196
 7588TIP3   OH222720   2.375   7.369   4.369
 7588TIP3    H122721   2.439   7.349   4.301
 7588TIP3    H222722   2.335   7.451   4.342
 7589TIP3   OH222723   2.327   1.102   5.082
 7589TIP3    H122724   2.262   1.075   5.146
 7589TIP3    H222725   2.283   1.167   5.028
 7590TIP3   OH222726   7.129   2.158   5.086
 7590TIP3    H122727   7.115   2.104   5.164
 7590TIP3    H222728   7.048   2.207   5.076
 7591TIP3   OH222729   6.443   4.341   3.519
 7591TIP3    H122730   6.460   4.435   3.526
 7591TIP3    H222731   6.463   4.319   3.428
 7592TIP3   OH222732   1.363   5.484   6.450
 7592TIP3    H122733   1.378   5.578   6.448
 7592TIP3    H222734   1.386   5.458   6.540
 7593TIP3   OH222735   6.229   5.152   5.259
 7593TIP3    H122736   6.259   5.145   5.168
 7593TIP3    H222737   6.174   5.075   5.273
 7594TIP3   OH222738   0.567   4.644   4.296
 7594TIP3    H122739   0.639   4.705   4.284
 7594TIP3    H222740   0.609   4.563   4.326
 7595TIP3   OH222741   3.742   1.113   3.597
 7595TIP3    H122742   3.722   1.088   3.687
 7595TIP3    H222743   3.746   1.029   3.550
 7596TIP3   OH222744   4.500   0.630   1.633
 7596TIP3    H122745   4.460   0.696   1.690
 7596TIP3    H222746   4.449   0.636   1.552
 7597TIP3   OH222747   2.215   2.029   0.638
 7597TIP3    H122748   2.167   1.969   0.580
 7597TIP3    H222749   2.178   2.115   0.620
 7598TIP3   OH222750   6.915   7.581   5.572
 7598TIP3    H122751   6.980   7.536   5.627
 7598TIP3    H222752   6.831   7.555   5.610
 7599TIP3   OH222753   7.783   3.991   3.579
 7599TIP3    H122754   7.833   3.914   3.605
 7599TIP3    H222755   7.847   4.062   3.579
 7600TIP3   OH222756   7.094   6.532   3.945
 7600TIP3    H122757   7.000   6.517   3.954
 7600TIP3    H222758   7.111   6.523   3.851
 7601TIP3   OH222759   6.842   1.090   2.831
 7601TIP3    H122760   6.907   1.077   2.762
 7601TIP3    H222761   6.767   1.128   2.786
 7602TIP3   OH222762   6.449   5.751   5.815
 7602TIP3    H122763   6.416   5.807   5.745
 7602TIP3    H222764   6.398   5.777   5.892
 7603TIP3   OH222765   2.888   0.969   3.401
 7603TIP3    H122766   2.872   0.955   3.307
 7603TIP3    H222767   2.919   1.060   3.406
 7604TIP3   OH222768   5.708   6.418   4.948
 7604TIP3    H122769   5.735   6.361   5.019
 7604TIP3    H222770   5.764   6.495   4.956
 7605TIP3   OH222771   4.264   3.474   3.754
 7605TIP3    H122772   4.168   3.479   3.752
 7605TIP3    H222773   4.293   3.564   3.742
 7606TIP3   OH222774   3.126   7.519   1.958
 7606TIP3    H122775   3.092   7.608   1.958
 7606TIP3    H222776   3.159   7.506   1.869
 7607TIP3   OH222777   4.269   2.464   3.762
 7607TIP3    H122778   4.194   2.498   3.810
 7607TIP3    H222779   4.264   2.507   3.677
 7608TIP3   OH222780   7.380   2.727   1.974
 7608TIP3    H122781   7.348   2.678   1.898
 7608TIP3    H222782   7.313   2.794   1.988
 7609TIP3   OH222783   7.487   4.756   3.705
 7609TIP3    H122784   7.576   4.721   3.712
 7609TIP3    H222785   7.436   4.704   3.767
 7610TIP3   OH222786   1.074   6.148   4.788
 7610TIP3    H122787   1.151   6.116   4.741
 7610TIP3    H222788   1.054   6.233   4.748
 7611TIP3   OH222789   6.060   3.579   3.785
 7611TIP3    H122790   6.120   3.610   3.852
 7611TIP3    H222791   6.020   3.659   3.750
 7612TIP3   OH222792   5.294   7.545   1.816
 7612TIP3    H122793   5.385   7.515   1.820
 7612TIP3    H222794   5.245   7.468   1.786
 7613TIP3   OH222795   2.308   5.492   4.677
 7613TIP3    H122796   2.286   5.551   4.605
 7613TIP3    H222797   2.363   5.545   4.735
 7614TIP3   OH222798   1.708   1.469   6.093
 7614TIP3    H122799   1.703   1.379   6.126
 7614TIP3    H222800   1.617   1.497   6.086
 7615TIP3   OH222801   2.235   3.333  -0.084
 7615TIP3    H122802   2.229   3.364   0.006
 7615TIP3    H222803   2.314   3.373  -0.119
 7616TIP3   OH222804   1.593   6.695   4.763
 7616TIP3    H122805   1.602   6.718   4.670
 7616TIP3    H222806   1.679   6.715   4.800
 7617TIP3   OH222807   2.349   2.098   0.195
 7617TIP3    H122808   2.377   2.177   0.242
 7617TIP3    H222809   2.328   2.129   0.107
 7618TIP3   OH222810   0.939   3.781   3.796
 7618TIP3    H122811   0.986   3.721   3.854
 7618TIP3    H222812   0.859   3.735   3.773
 7619TIP3   OH222813   6.867   6.179   3.691
 7619TIP3    H122814   6.875   6.164   3.597
 7619TIP3    H222815   6.884   6.273   3.702
 7620TIP3   OH222816   4.959   5.243   6.369
 7620TIP3    H122817   5.036   5.284   6.330
 7620TIP3    H222818   4.915   5.201   6.295
 7621TIP3   OH222819   0.193   3.718   6.242
 7621TIP3    H122820   0.210   3.678   6.156
 7621TIP3    H222821   0.104   3.691   6.263
 7622TIP3   OH222822   0.312   3.587   1.725
 7622TIP3    H122823   0.336   3.627   1.809
 7622TIP3    H222824   0.242   3.525   1.747
 7623TIP3   OH222825   4.856   6.392   3.398
 7623TIP3    H122826   4.912   6.354   3.466
 7623TIP3    H222827   4.775   6.340   3.402
 7624TIP3   OH222828   5.424   3.978   5.165
 7624TIP3    H122829   5.489   3.960   5.096
 7624TIP3    H222830   5.354   3.915   5.148
 7625TIP3   OH222831   6.407   5.889   3.377
 7625TIP3    H122832   6.425   5.817   3.315
 7625TIP3    H222833   6.395   5.966   3.321
 7626TIP3   OH222834   3.574   6.315   4.357
 7626TIP3    H122835   3.631   6.354   4.291
 7626TIP3    H222836   3.571   6.222   4.333
 7627TIP3   OH222837   7.492   7.759   1.365
 7627TIP3    H122838   7.545   7.688   1.330
 7627TIP3    H222839   7.552   7.833   1.370
 7628TIP3   OH222840   1.208   7.043   6.115
 7628TIP3    H122841   1.158   7.099   6.175
 7628TIP3    H222842   1.142   7.008   6.055
 7629TIP3   OH222843   3.585   4.729   0.546
 7629TIP3    H122844   3.586   4.700   0.637
 7629TIP3    H222845   3.504   4.693   0.511
 7630TIP3   OH222846   6.806   5.343   1.934
 7630TIP3    H122847   6.753   5.422   1.942
 7630TIP3    H222848   6.762   5.292   1.866
 7631TIP3   OH222849   7.242   3.221   0.782
 7631TIP3    H122850   7.171   3.189   0.837
 7631TIP3    H222851   7.302   3.147   0.775
 7632TIP3   OH222852   2.340   2.790   4.398
 7632TIP3    H122853   2.392   2.869   4.384
 7632TIP3    H222854   2.403   2.719   4.390
 7633TIP3   OH222855   4.173   7.183   6.539
 7633TIP3    H122856   4.196   7.102   6.493
 7633TIP3    H222857   4.176   7.160   6.632
 7634TIP3   OH222858   5.862   6.283   0.735
 7634TIP3    H122859   5.860   6.379   0.731
 7634TIP3    H222860   5.770   6.257   0.727
 7635TIP3   OH222861   2.855   7.423   0.878
 7635TIP3    H122862   2.890   7.479   0.947
 7635TIP3    H222863   2.930   7.406   0.821
 7636TIP3   OH222864   1.181   1.574   3.359
 7636TIP3    H122865   1.102   1.583   3.412
 7636TIP3    H222866   1.166   1.631   3.284
 7637TIP3   OH222867   4.775   6.789   2.277
 7637TIP3    H122868   4.717   6.815   2.205
 7637TIP3    H222869   4.827   6.867   2.295
 7638TIP3   OH222870   4.858   4.725   2.589
 7638TIP3    H122871   4.821   4.672   2.661
 7638TIP3    H222872   4.951   4.702   2.589
 7639TIP3   OH222873   6.684   5.245   1.725
 7639TIP3    H122874   6.691   5.281   1.636
 7639TIP3    H222875   6.589   5.234   1.738
 7640TIP3   OH222876   7.108   4.108   1.680
 7640TIP3    H122877   7.145   4.071   1.600
 7640TIP3    H222878   7.076   4.194   1.654
 7641TIP3   OH222879   2.510   4.348   4.367
 7641TIP3    H122880   2.534   4.398   4.445
 7641TIP3    H222881   2.594   4.325   4.327
 7642TIP3   OH222882   0.894   3.592   5.113
 7642TIP3    H122883   0.842   3.662   5.153
 7642TIP3    H222884   0.840   3.561   5.040
 7643TIP3   OH222885   3.639   0.243   4.287
 7643TIP3    H122886   3.586   0.322   4.299
 7643TIP3    H222887   3.611   0.208   4.202
 7644TIP3   OH222888   4.459   0.988   2.703
 7644TIP3    H122889   4.491   1.078   2.707
 7644TIP3    H222890   4.530   0.940   2.660
 7645TIP3   OH222891   5.913   4.306   1.462
 7645TIP3    H122892   5.952   4.374   1.518
 7645TIP3    H222893   5.839   4.273   1.513
 7646TIP3   OH222894   8.153   2.200   5.493
 7646TIP3    H122895   8.093   2.156   5.432
 7646TIP3    H222896   8.223   2.137   5.507
 7647TIP3   OH222897   2.984   4.264   6.620
 7647TIP3    H122898   2.941   4.225   6.545
 7647TIP3    H222899   3.059   4.312   6.583
 7648TIP3   OH222900   1.758   1.610   6.534
 7648TIP3    H122901   1.685   1.667   6.558
 7648TIP3    H222902   1.828   1.635   6.594
 7649TIP3   OH222903   6.774   4.870   3.655
 7649TIP3    H122904   6.678   4.872   3.658
 7649TIP3    H222905   6.795   4.844   3.566
 7650TIP3   OH222906   1.529   3.845   6.114
 7650TIP3    H122907   1.571   3.789   6.180
 7650TIP3    H222908   1.470   3.901   6.164
 7651TIP3   OH222909   2.241   6.139   0.154
 7651TIP3    H122910   2.182   6.187   0.096
 7651TIP3    H222911   2.301   6.206   0.187
 7652TIP3   OH222912   8.201   1.840   5.624
 7652TIP3    H122913   8.270   1.887   5.576
 7652TIP3    H222914   8.133   1.825   5.559
 7653TIP3   OH222915   2.883   2.022   4.145
 7653TIP3    H122916   2.859   1.932   4.123
 7653TIP3    H222917   2.976   2.029   4.123
 7654TIP3   OH222918   6.113   4.506   6.555
 7654TIP3    H122919   6.145   4.423   6.591
 7654TIP3    H222920   6.129   4.500   6.461
 7655TIP3   OH222921   7.334   6.670   1.976
 7655TIP3    H122922   7.310   6.582   1.948
 7655TIP3    H222923   7.342   6.720   1.894
 7656TIP3   OH222924   0.514   2.959   1.643
 7656TIP3    H122925   0.472   3.044   1.629
 7656TIP3    H222926   0.558   2.940   1.561
 7657TIP3   OH222927   7.132   3.849   0.697
 7657TIP3    H122928   7.077   3.813   0.767
 7657TIP3    H222929   7.212   3.797   0.700
 7658TIP3   OH222930   0.648   3.665   4.959
 7658TIP3    H122931   0.648   3.744   4.906
 7658TIP3    H222932   0.644   3.593   4.896
 7659TIP3   OH222933   1.312   4.377   2.221
 7659TIP3    H122934   1.388   4.332   2.185
 7659TIP3    H222935   1.257   4.307   2.257
 7660TIP3   OH222936   5.898   6.104   2.024
 7660TIP3    H122937   5.844   6.083   1.948
 7660TIP3    H222938   5.836   6.111   2.097
 7661TIP3   OH222939   7.747   5.085   3.480
 7661TIP3    H122940   7.718   5.038   3.401
 7661TIP3    H222941   7.802   5.021   3.526
 7662TIP3   OH222942   1.597   6.796   3.472
 7662TIP3    H122943   1.643   6.784   3.389
 7662TIP3    H222944   1.617   6.717   3.522
 7663TIP3   OH222945   5.140   6.966   4.533
 7663TIP3    H122946   5.091   6.967   4.451
 7663TIP3    H222947   5.140   6.874   4.560
 7664TIP3   OH222948   6.635   7.346   4.336
 7664TIP3    H122949   6.612   7.431   4.296
 7664TIP3    H222950   6.551   7.308   4.361
 7665TIP3   OH222951   4.521   5.435   1.325
 7665TIP3    H122952   4.496   5.462   1.237
 7665TIP3    H222953   4.616   5.425   1.322
 7666TIP3   OH222954   2.647   4.207   5.966
 7666TIP3    H122955   2.650   4.289   6.014
 7666TIP3    H222956   2.716   4.153   6.004
 7667TIP3   OH222957   7.128   2.725   6.451
 7667TIP3    H122958   7.207   2.771   6.425
 7667TIP3    H222959   7.139   2.636   6.417
 7668TIP3   OH222960   0.479   5.851   2.185
 7668TIP3    H122961   0.471   5.756   2.186
 7668TIP3    H222962   0.503   5.872   2.094
 7669TIP3   OH222963   6.104   6.371   5.233
 7669TIP3    H122964   6.075   6.440   5.172
 7669TIP3    H222965   6.041   6.376   5.305
 7670TIP3   OH222966   2.707   0.288   1.835
 7670TIP3    H122967   2.772   0.323   1.774
 7670TIP3    H222968   2.624   0.294   1.788
 7671TIP3   OH222969   1.967   7.189   2.590
 7671TIP3    H122970   1.925   7.271   2.616
 7671TIP3    H222971   1.921   7.121   2.639
 7672TIP3   OH222972   1.976   4.614   4.778
 7672TIP3    H122973   1.984   4.706   4.805
 7672TIP3    H222974   2.060   4.593   4.738
 7673TIP3   OH222975   5.104   2.186   4.404
 7673TIP3    H122976   5.155   2.223   4.476
 7673TIP3    H222977   5.019   2.229   4.410
 7674TIP3   OH222978   8.258   0.911   3.363
 7674TIP3    H122979   8.266   0.960   3.282
 7674TIP3    H222980   8.331   0.942   3.417
 7675TIP3   OH222981   7.348   2.056   0.252
 7675TIP3    H122982   7.253   2.042   0.242
 7675TIP3    H222983   7.356   2.149   0.271
 7676TIP3   OH222984   7.174   4.629   4.388
 7676TIP3    H122985   7.172   4.598   4.479
 7676TIP3    H222986   7.211   4.718   4.394
 7677TIP3   OH222987   1.606   4.165   4.204
 7677TIP3    H122988   1.600   4.118   4.288
 7677TIP3    H222989   1.590   4.256   4.227
 7678TIP3   OH222990   5.513   7.421   3.242
 7678TIP3    H122991   5.570   7.397   3.170
 7678TIP3    H222992   5.551   7.501   3.279
 7679TIP3   OH222993   7.205   6.200   0.258
 7679TIP3    H122994   7.247   6.132   0.205
 7679TIP3    H222995   7.275   6.232   0.315
 7680TIP3   OH222996   1.664   3.064   0.921
 7680TIP3    H122997   1.711   3.013   0.987
 7680TIP3    H222998   1.581   3.088   0.963
 7681TIP3   OH222999   2.509   3.176   1.378
 7681TIP3    H123000   2.530   3.177   1.471
 7681TIP3    H223001   2.572   3.114   1.340
 7682TIP3   OH223002   7.976   5.839   5.305
 7682TIP3    H123003   7.991   5.931   5.282
 7682TIP3    H223004   7.973   5.794   5.221
 7683TIP3   OH223005   1.567   0.199   2.066
 7683TIP3    H123006   1.633   0.248   2.017
 7683TIP3    H223007   1.485   0.213   2.018
 7684TIP3   OH223008   5.172   6.517   0.503
 7684TIP3    H123009   5.189   6.488   0.593
 7684TIP3    H223010   5.119   6.448   0.465
 7685TIP3   OH223011   6.493   0.923   3.039
 7685TIP3    H123012   6.472   0.945   2.949
 7685TIP3    H223013   6.511   0.829   3.037
 7686TIP3   OH223014   5.829   6.138   1.425
 7686TIP3    H123015   5.746   6.092   1.437
 7686TIP3    H223016   5.880   6.115   1.503
 7687TIP3   OH223017   6.119   6.263   1.715
 7687TIP3    H123018   6.052   6.195   1.723
 7687TIP3    H223019   6.158   6.248   1.629
 7688TIP3   OH223020   4.686   7.593   4.963
 7688TIP3    H123021   4.593   7.596   4.940
 7688TIP3    H223022   4.730   7.631   4.887
 7689TIP3   OH223023   7.778   5.942   0.182
 7689TIP3    H123024   7.847   5.918   0.120
 7689TIP3    H223025   7.799   5.894   0.261
 7690TIP3   OH223026   7.999   2.582   0.294
 7690TIP3    H123027   8.015   2.605   0.386
 7690TIP3    H223028   7.913   2.538   0.296
 7691TIP3   OH223029   1.275   2.313   6.380
 7691TIP3    H123030   1.228   2.390   6.349
 7691TIP3    H223031   1.229   2.239   6.338
 7692TIP3   OH223032   4.437   1.781   0.748
 7692TIP3    H123033   4.369   1.718   0.769
 7692TIP3    H223034   4.393   1.846   0.693
 7693TIP3   OH223035   3.138   4.085   0.689
 7693TIP3    H123036   3.149   4.104   0.596
 7693TIP3    H223037   3.087   4.005   0.692
 7694TIP3   OH223038   7.105   5.031   2.074
 7694TIP3    H123039   7.102   4.938   2.053
 7694TIP3    H223040   7.025   5.067   2.035
 7695TIP3   OH223041   0.700   0.890   3.753
 7695TIP3    H123042   0.734   0.966   3.706
 7695TIP3    H223043   0.638   0.850   3.693
 7696TIP3   OH223044   7.230   6.002   6.045
 7696TIP3    H123045   7.158   5.944   6.021
 7696TIP3    H223046   7.192   6.090   6.038
 7697TIP3   OH223047   6.966   4.591   2.282
 7697TIP3    H123048   6.955   4.501   2.313
 7697TIP3    H223049   7.057   4.612   2.302
 7698TIP3   OH223050   1.880   6.696   2.110
 7698TIP3    H123051   1.839   6.696   2.196
 7698TIP3    H223052   1.811   6.725   2.050
 7699TIP3   OH223053   6.938   1.728   5.403
 7699TIP3    H123054   7.009   1.753   5.344
 7699TIP3    H223055   6.895   1.810   5.427
 7700TIP3   OH223056   1.173   0.594   2.347
 7700TIP3    H123057   1.260   0.597   2.388
 7700TIP3    H223058   1.190   0.618   2.256
 7701TIP3   OH223059   6.243   7.049   3.999
 7701TIP3    H123060   6.177   6.991   3.962
 7701TIP3    H223061   6.300   7.070   3.925
 7702TIP3   OH223062   0.673   5.677   0.298
 7702TIP3    H123063   0.655   5.759   0.343
 7702TIP3    H223064   0.678   5.612   0.368
 7703TIP3   OH223065   2.267   2.266   0.461
 7703TIP3    H123066   2.236   2.265   0.370
 7703TIP3    H223067   2.216   2.335   0.503
 7704TIP3   OH223068   7.586   1.020   6.373
 7704TIP3    H123069   7.669   1.056   6.404
 7704TIP3    H223070   7.592   1.025   6.278
 7705TIP3   OH223071   2.822   5.227   1.461
 7705TIP3    H123072   2.801   5.258   1.373
 7705TIP3    H223073   2.783   5.291   1.520
 7706TIP3   OH223074   4.708   4.819   3.369
 7706TIP3    H123075   4.737   4.758   3.436
 7706TIP3    H223076   4.701   4.903   3.414
 7707TIP3   OH223077   5.755   0.174   3.928
 7707TIP3    H123078   5.781   0.151   3.839
 7707TIP3    H223079   5.755   0.270   3.929
 7708TIP3   OH223080   6.553   1.349   5.247
 7708TIP3    H123081   6.579   1.361   5.338
 7708TIP3    H223082   6.524   1.258   5.241
 7709TIP3   OH223083   6.275   5.123   4.432
 7709TIP3    H123084   6.336   5.160   4.495
 7709TIP3    H223085   6.196   5.176   4.441
 7710TIP3   OH223086   6.037   3.280   4.660
 7710TIP3    H123087   6.116   3.274   4.606
 7710TIP3    H223088   5.965   3.287   4.597
 7711TIP3   OH223089   1.745   0.930   2.683
 7711TIP3    H123090   1.806   0.961   2.750
 7711TIP3    H223091   1.798   0.871   2.629
 7712TIP3   OH223092   6.863   6.757   5.744
 7712TIP3    H123093   6.879   6.832   5.687
 7712TIP3    H223094   6.914   6.686   5.705
 7713TIP3   OH223095   6.241   0.740   4.952
 7713TIP3    H123096   6.210   0.681   5.020
 7713TIP3    H223097   6.164   0.790   4.926
 7714TIP3   OH223098   7.315   6.483   0.089
 7714TIP3    H123099   7.337   6.564   0.043
 7714TIP3    H223100   7.321   6.507   0.182
 7715TIP3   OH223101   3.819   1.308   3.197
 7715TIP3    H123102   3.776   1.385   3.233
 7715TIP3    H223103   3.891   1.289   3.258
 7716TIP3   OH223104   2.885  -0.021   6.185
 7716TIP3    H123105   2.886   0.028   6.103
 7716TIP3    H223106   2.891   0.046   6.253
 7717TIP3   OH223107   5.258   7.237   1.043
 7717TIP3    H123108   5.312   7.196   0.977
 7717TIP3    H223109   5.222   7.315   1.000
 7718TIP3   OH223110   5.908   2.337   0.555
 7718TIP3    H123111   5.920   2.311   0.463
 7718TIP3    H223112   5.920   2.432   0.555
 7719TIP3   OH223113   5.192   3.382   1.378
 7719TIP3    H123114   5.281   3.348   1.379
 7719TIP3    H223115   5.137   3.307   1.403
 7720TIP3   OH223116   6.463   2.210   0.215
 7720TIP3    H123117   6.441   2.291   0.170
 7720TIP3    H223118   6.379   2.178   0.250
 7721TIP3   OH223119   0.115   5.788   5.479
 7721TIP3    H123120   0.209   5.776   5.464
 7721TIP3    H223121   0.092   5.719   5.542
 7722TIP3   OH223122   5.080   4.487   2.948
 7722TIP3    H123123   5.061   4.495   3.042
 7722TIP3    H223124   5.067   4.394   2.928
 7723TIP3   OH223125   0.329   5.079   6.242
 7723TIP3    H123126   0.313   5.038   6.156
 7723TIP3    H223127   0.304   5.170   6.230
 7724TIP3   OH223128   6.012   5.155   6.576
 7724TIP3    H123129   5.933   5.112   6.607
 7724TIP3    H223130   6.040   5.209   6.649
 7725TIP3   OH223131   2.424   4.773   2.192
 7725TIP3    H123132   2.502   4.734   2.232
 7725TIP3    H223133   2.434   4.755   2.098
 7726TIP3   OH223134   6.395   4.272   4.787
 7726TIP3    H123135   6.457   4.312   4.847
 7726TIP3    H223136   6.321   4.247   4.841
 7727TIP3   OH223137   5.360   6.687   3.031
 7727TIP3    H123138   5.422   6.626   2.991
 7727TIP3    H223139   5.278   6.639   3.037
 7728TIP3   OH223140   2.286   4.923   4.270
 7728TIP3    H123141   2.331   4.868   4.335
 7728TIP3    H223142   2.340   4.917   4.191
 7729TIP3   OH223143   7.145   1.940   1.722
 7729TIP3    H123144   7.139   2.003   1.650
 7729TIP3    H223145   7.107   1.986   1.797
 7730TIP3   OH223146   5.870   7.135   4.026
 7730TIP3    H123147   5.909   7.050   4.046
 7730TIP3    H223148   5.939   7.198   4.050
 7731TIP3   OH223149   3.600   1.345   1.412
 7731TIP3    H123150   3.688   1.316   1.436
 7731TIP3    H223151   3.545   1.320   1.486
 7732TIP3   OH223152   7.376   3.432   1.421
 7732TIP3    H123153   7.448   3.419   1.360
 7732TIP3    H223154   7.321   3.499   1.380
 7733TIP3   OH223155   8.309   1.750   5.334
 7733TIP3    H123156   8.291   1.745   5.240
 7733TIP3    H223157   8.223   1.752   5.375
 7734TIP3   OH223158   5.258   6.009   1.334
 7734TIP3    H123159   5.269   6.095   1.374
 7734TIP3    H223160   5.172   5.980   1.364
 7735TIP3   OH223161   0.419   3.917   1.148
 7735TIP3    H123162   0.433   3.850   1.215
 7735TIP3    H223163   0.504   3.925   1.104
 7736TIP3   OH223164   5.837   5.548   0.237
 7736TIP3    H123165   5.818   5.455   0.218
 7736TIP3    H223166   5.827   5.591   0.152
 7737TIP3   OH223167   0.535   2.099   2.574
 7737TIP3    H123168   0.581   2.175   2.538
 7737TIP3    H223169   0.531   2.116   2.668
 7738TIP3   OH223170   0.135   0.504   4.224
 7738TIP3    H123171   0.141   0.599   4.218
 7738TIP3    H223172   0.082   0.478   4.148
 7739TIP3   OH223173   5.784   2.680   2.707
 7739TIP3    H123174   5.744   2.685   2.620
 7739TIP3    H223175   5.765   2.591   2.737
 7740TIP3   OH223176   2.973   1.610   5.724
 7740TIP3    H123177   3.048   1.648   5.770
 7740TIP3    H223178   2.986   1.637   5.633
 7741TIP3   OH223179   2.821   7.058   1.539
 7741TIP3    H123180   2.799   7.139   1.585
 7741TIP3    H223181   2.765   7.058   1.461
 7742TIP3   OH223182   4.458   2.392   4.598
 7742TIP3    H123183   4.459   2.306   4.639
 7742TIP3    H223184   4.507   2.449   4.658
 7743TIP3   OH223185   7.522   0.856   0.262
 7743TIP3    H123186   7.534   0.948   0.236
 7743TIP3    H223187   7.540   0.806   0.183
 7744TIP3   OH223188   5.551   0.474   0.808
 7744TIP3    H123189   5.576   0.432   0.726
 7744TIP3    H223190   5.559   0.568   0.791
 7745TIP3   OH223191   0.801   5.718   1.113
 7745TIP3    H123192   0.766   5.753   1.031
 7745TIP3    H223193   0.723   5.692   1.162
 7746TIP3   OH223194   4.302   3.453   2.935
 7746TIP3    H123195   4.333   3.389   2.872
 7746TIP3    H223196   4.381   3.503   2.959
 7747TIP3   OH223197   2.173   7.732   1.931
 7747TIP3    H123198   2.099   7.747   1.872
 7747TIP3    H223199   2.194   7.639   1.921
 7748TIP3   OH223200   3.984   5.286   0.005
 7748TIP3    H123201   4.026   5.353  -0.050
 7748TIP3    H223202   3.965   5.331   0.087
 7749TIP3   OH223203   0.458   6.917   6.591
 7749TIP3    H123204   0.520   6.858   6.549
 7749TIP3    H223205   0.449   6.990   6.530
 7750TIP3   OH223206   1.625   0.948   3.443
 7750TIP3    H123207   1.687   0.976   3.376
 7750TIP3    H223208   1.564   1.022   3.452
 7751TIP3   OH223209   2.670   2.154   4.992
 7751TIP3    H123210   2.745   2.169   4.934
 7751TIP3    H223211   2.646   2.062   4.977
 7752TIP3   OH223212   7.235   7.236   1.196
 7752TIP3    H123213   7.301   7.304   1.182
 7752TIP3    H223214   7.240   7.182   1.118
 7753TIP3   OH223215   2.178   7.755   5.035
 7753TIP3    H123216   2.245   7.824   5.038
 7753TIP3    H223217   2.207   7.697   4.964
 7754TIP3   OH223218   7.627   4.124   0.449
 7754TIP3    H123219   7.680   4.203   0.438
 7754TIP3    H223220   7.611   4.093   0.360
 7755TIP3   OH223221   0.157   3.047   0.375
 7755TIP3    H123222   0.086   3.081   0.321
 7755TIP3    H223223   0.185   2.967   0.331
 7756TIP3   OH223224   0.797   2.683   0.786
 7756TIP3    H123225   0.737   2.687   0.711
 7756TIP3    H223226   0.851   2.605   0.768
 7757TIP3   OH223227   0.858   3.144   3.357
 7757TIP3    H123228   0.799   3.094   3.301
 7757TIP3    H223229   0.935   3.160   3.303
 7758TIP3   OH223230   7.062   3.081   3.250
 7758TIP3    H123231   6.971   3.066   3.224
 7758TIP3    H223232   7.061   3.166   3.294
 7759TIP3   OH223233   0.939   4.608   3.631
 7759TIP3    H123234   0.940   4.530   3.687
 7759TIP3    H223235   0.988   4.673   3.680
 7760TIP3   OH223236   6.982   1.454   4.216
 7760TIP3    H123237   7.065   1.449   4.170
 7760TIP3    H223238   6.916   1.444   4.148
 7761TIP3   OH223239   5.016   5.501   4.842
 7761TIP3    H123240   5.020   5.536   4.931
 7761TIP3    H223241   4.931   5.458   4.837
 7762TIP3   OH223242   4.872   4.493   4.984
 7762TIP3    H123243   4.870   4.428   4.914
 7762TIP3    H223244   4.858   4.577   4.939
 7763TIP3   OH223245   4.336   3.464   2.274
 7763TIP3    H123246   4.365   3.392   2.329
 7763TIP3    H223247   4.367   3.441   2.186
 7764TIP3   OH223248   3.083   2.109   4.672
 7764TIP3    H123249   3.164   2.151   4.702
 7764TIP3    H223250   3.113   2.035   4.619
 7765TIP3   OH223251   4.097   7.864   2.052
 7765TIP3    H123252   4.003   7.876   2.042
 7765TIP3    H223253   4.129   7.950   2.080
 7766TIP3   OH223254   5.139   1.667   0.393
 7766TIP3    H123255   5.204   1.598   0.381
 7766TIP3    H223256   5.180   1.729   0.454
 7767TIP3   OH223257   7.200   7.061   5.405
 7767TIP3    H123258   7.183   7.107   5.487
 7767TIP3    H223259   7.244   6.980   5.432
 7768TIP3   OH223260   6.470   3.149   0.793
 7768TIP3    H123261   6.447   3.090   0.721
 7768TIP3    H223262   6.412   3.224   0.782
 7769TIP3   OH223263   2.920   4.824   5.947
 7769TIP3    H123264   2.998   4.879   5.937
 7769TIP3    H223265   2.926   4.790   6.036
 7770TIP3   OH223266   4.594   0.584   6.299
 7770TIP3    H123267   4.665   0.551   6.244
 7770TIP3    H223268   4.638   0.630   6.370
 7771TIP3   OH223269   1.853   0.732   1.064
 7771TIP3    H123270   1.846   0.637   1.059
 7771TIP3    H223271   1.806   0.756   1.143
 7772TIP3   OH223272   6.976   5.664   2.140
 7772TIP3    H123273   7.014   5.666   2.052
 7772TIP3    H223274   7.052   5.659   2.198
 7773TIP3   OH223275   3.637   0.448   5.528
 7773TIP3    H123276   3.581   0.466   5.603
 7773TIP3    H223277   3.721   0.421   5.566
 7774TIP3   OH223278   7.498   3.834   5.402
 7774TIP3    H123279   7.537   3.844   5.315
 7774TIP3    H223280   7.418   3.783   5.387
 7775TIP3   OH223281   5.111   6.578   1.197
 7775TIP3    H123282   5.096   6.658   1.248
 7775TIP3    H223283   5.206   6.568   1.196
 7776TIP3   OH223284   2.820   3.199   4.075
 7776TIP3    H123285   2.750   3.211   4.010
 7776TIP3    H223286   2.840   3.106   4.072
 7777TIP3   OH223287   3.728   4.707   4.885
 7777TIP3    H123288   3.807   4.655   4.865
 7777TIP3    H223289   3.701   4.742   4.801
 7778TIP3   OH223290   5.856   1.882   6.744
 7778TIP3    H123291   5.942   1.840   6.750
 7778TIP3    H223292   5.875   1.974   6.726
 7779TIP3   OH223293   4.161   0.711   2.768
 7779TIP3    H123294   4.240   0.661   2.749
 7779TIP3    H223295   4.153   0.708   2.864
 7780TIP3   OH223296   3.722   2.838   4.764
 7780TIP3    H123297   3.766   2.765   4.721
 7780TIP3    H223298   3.695   2.896   4.693
 7781TIP3   OH223299   8.096   0.375   3.861
 7781TIP3    H123300   8.112   0.295   3.912
 7781TIP3    H223301   8.139   0.358   3.777
 7782TIP3   OH223302   6.904   6.243   0.869
 7782TIP3    H123303   6.976   6.266   0.928
 7782TIP3    H223304   6.935   6.166   0.822
 7783TIP3   OH223305   5.254   3.858   0.395
 7783TIP3    H123306   5.196   3.926   0.361
 7783TIP3    H223307   5.261   3.794   0.324
 7784TIP3   OH223308   6.992   5.959   1.349
 7784TIP3    H123309   7.010   5.868   1.373
 7784TIP3    H223310   6.900   5.959   1.322
 7785TIP3   OH223311   1.552   5.331   5.840
 7785TIP3    H123312   1.521   5.245   5.813
 7785TIP3    H223313   1.642   5.336   5.807
 7786TIP3   OH223314   7.009   0.608   4.833
 7786TIP3    H123315   7.059   0.542   4.882
 7786TIP3    H223316   6.952   0.648   4.898
 7787TIP3   OH223317   7.554   7.407   2.725
 7787TIP3    H123318   7.569   7.452   2.809
 7787TIP3    H223319   7.636   7.361   2.707
 7788TIP3   OH223320   6.712   2.060   0.180
 7788TIP3    H123321   6.626   2.099   0.190
 7788TIP3    H223322   6.730   2.019   0.265
 7789TIP3   OH223323   2.918   2.276   3.566
 7789TIP3    H123324   2.942   2.353   3.514
 7789TIP3    H223325   2.845   2.305   3.620
 7790TIP3   OH223326   8.190   5.103   1.859
 7790TIP3    H123327   8.195   5.018   1.815
 7790TIP3    H223328   8.114   5.146   1.819
 7791TIP3   OH223329   4.253   7.667   6.418
 7791TIP3    H123330   4.346   7.650   6.432
 7791TIP3    H223331   4.215   7.580   6.403
 7792TIP3   OH223332   4.698   7.066   3.031
 7792TIP3    H123333   4.672   6.990   2.979
 7792TIP3    H223334   4.770   7.034   3.085
 7793TIP3   OH223335   2.299   4.547   3.935
 7793TIP3    H123336   2.257   4.596   4.005
 7793TIP3    H223337   2.318   4.461   3.974
 7794TIP3   OH223338   5.907   6.175   4.095
 7794TIP3    H123339   5.961   6.224   4.032
 7794TIP3    H223340   5.902   6.232   4.172
 7795TIP3   OH223341   0.948   1.163   1.138
 7795TIP3    H123342   0.926   1.170   1.045
 7795TIP3    H223343   0.864   1.164   1.183
 7796TIP3   OH223344   0.670   7.369   6.723
 7796TIP3    H123345   0.577   7.387   6.708
 7796TIP3    H223346   0.713   7.454   6.713
 7797TIP3   OH223347   3.735   0.247   1.331
 7797TIP3    H123348   3.702   0.207   1.251
 7797TIP3    H223349   3.688   0.330   1.338
 7798TIP3   OH223350   5.456   0.781   1.154
 7798TIP3    H123351   5.376   0.818   1.191
 7798TIP3    H223352   5.499   0.855   1.112
 7799TIP3   OH223353   7.347   4.818   2.747
 7799TIP3    H123354   7.280   4.757   2.779
 7799TIP3    H223355   7.321   4.903   2.783
 7800TIP3   OH223356   3.436   2.798   1.214
 7800TIP3    H123357   3.487   2.792   1.133
 7800TIP3    H223358   3.460   2.719   1.263
 7801TIP3   OH223359   1.051   5.551   3.221
 7801TIP3    H123360   1.139   5.524   3.246
 7801TIP3    H223361   1.016   5.596   3.298
 7802TIP3   OH223362   3.231   7.825   5.729
 7802TIP3    H123363   3.196   7.742   5.759
 7802TIP3    H223364   3.326   7.813   5.731
 7803TIP3   OH223365   7.667   5.094   0.957
 7803TIP3    H123366   7.670   5.185   0.927
 7803TIP3    H223367   7.755   5.061   0.941
 7804TIP3   OH223368   1.379   5.818   4.919
 7804TIP3    H123369   1.427   5.834   5.001
 7804TIP3    H223370   1.446   5.786   4.858
 7805TIP3   OH223371   1.203   1.201   4.345
 7805TIP3    H123372   1.164   1.120   4.378
 7805TIP3    H223373   1.273   1.221   4.406
 7806TIP3   OH223374   2.520   0.090   5.641
 7806TIP3    H123375   2.539   0.179   5.610
 7806TIP3    H223376   2.538   0.093   5.735
 7807TIP3   OH223377   2.763   4.374   5.412
 7807TIP3    H123378   2.733   4.288   5.384
 7807TIP3    H223379   2.683   4.427   5.419
 7808TIP3   OH223380   4.060   1.316   3.327
 7808TIP3    H123381   4.150   1.286   3.312
 7808TIP3    H223382   4.070   1.390   3.388
 7809TIP3   OH223383   5.461   3.048   6.642
 7809TIP3    H123384   5.384   2.997   6.618
 7809TIP3    H223385   5.515   3.049   6.563
 7810TIP3   OH223386   1.286   4.211   1.881
 7810TIP3    H123387   1.241   4.291   1.908
 7810TIP3    H223388   1.347   4.191   1.952
 7811TIP3   OH223389   6.238   1.655   3.464
 7811TIP3    H123390   6.317   1.700   3.495
 7811TIP3    H223391   6.241   1.570   3.508
 7812TIP3   OH223392   5.442   4.550   4.056
 7812TIP3    H123393   5.417   4.465   4.094
 7812TIP3    H223394   5.490   4.527   3.976
 7813TIP3   OH223395   7.464   7.666   5.938
 7813TIP3    H123396   7.519   7.736   5.974
 7813TIP3    H223397   7.486   7.589   5.990
 7814TIP3   OH223398   5.625   7.062   0.629
 7814TIP3    H123399   5.548   7.056   0.573
 7814TIP3    H223400   5.699   7.047   0.569
 7815TIP3   OH223401   4.069   3.312   1.223
 7815TIP3    H123402   4.085   3.340   1.313
 7815TIP3    H223403   4.146   3.259   1.200
 7816TIP3   OH223404   7.730   7.067   2.031
 7816TIP3    H123405   7.681   7.126   2.088
 7816TIP3    H223406   7.756   7.122   1.957
 7817TIP3   OH223407   6.864   7.749   3.162
 7817TIP3    H123408   6.771   7.773   3.167
 7817TIP3    H223409   6.886   7.760   3.069
 7818TIP3   OH223410   7.086   2.948   5.911
 7818TIP3    H123411   7.140   2.871   5.896
 7818TIP3    H223412   7.145   3.013   5.948
 7819TIP3   OH223413   2.461   6.392   3.098
 7819TIP3    H123414   2.434   6.480   3.121
 7819TIP3    H223415   2.525   6.404   3.027
 7820TIP3   OH223416   4.121   0.442   4.956
 7820TIP3    H123417   4.208   0.429   4.993
 7820TIP3    H223418   4.115   0.379   4.885
 7821TIP3   OH223419   4.665   0.553   4.124
 7821TIP3    H123420   4.735   0.517   4.069
 7821TIP3    H223421   4.703   0.634   4.159
 7822TIP3   OH223422   2.858   5.955   1.412
 7822TIP3    H123423   2.792   5.886   1.412
 7822TIP3    H223424   2.907   5.941   1.331
 7823TIP3   OH223425   7.535   3.497   0.977
 7823TIP3    H123426   7.608   3.551   0.948
 7823TIP3    H223427   7.458   3.552   0.964
 7824TIP3   OH223428   7.212   1.273   5.119
 7824TIP3    H123429   7.251   1.361   5.125
 7824TIP3    H223430   7.284   1.217   5.089
 7825TIP3   OH223431   2.174   7.223   0.772
 7825TIP3    H123432   2.260   7.182   0.779
 7825TIP3    H223433   2.138   7.189   0.690
 7826TIP3   OH223434   0.571   4.385   4.434
 7826TIP3    H123435   0.492   4.332   4.443
 7826TIP3    H223436   0.629   4.332   4.379
 7827TIP3   OH223437   0.032   3.260   2.220
 7827TIP3    H123438   0.071   3.252   2.307
 7827TIP3    H223439   0.010   3.170   2.195
 7828TIP3   OH223440   3.666   2.971   3.647
 7828TIP3    H123441   3.647   2.898   3.588
 7828TIP3    H223442   3.601   2.962   3.717
 7829TIP3   OH223443   2.397   0.964   4.283
 7829TIP3    H123444   2.415   0.873   4.259
 7829TIP3    H223445   2.478   0.995   4.325
 7830TIP3   OH223446   3.588   0.540   1.316
 7830TIP3    H123447   3.620   0.512   1.230
 7830TIP3    H223448   3.526   0.610   1.297
 7831TIP3   OH223449   1.318   0.235   6.283
 7831TIP3    H123450   1.350   0.312   6.330
 7831TIP3    H223451   1.364   0.237   6.200
 7832TIP3   OH223452   5.853   6.737   6.421
 7832TIP3    H123453   5.855   6.734   6.325
 7832TIP3    H223454   5.942   6.762   6.446
 7833TIP3   OH223455   4.351   0.077   4.730
 7833TIP3    H123456   4.310   0.139   4.670
 7833TIP3    H223457   4.366  -0.001   4.676
 7834TIP3   OH223458   2.703   4.787   2.012
 7834TIP3    H123459   2.738   4.871   1.982
 7834TIP3    H223460   2.615   4.783   1.975
 7835TIP3   OH223461   2.103   3.241   6.695
 7835TIP3    H123462   2.032   3.198   6.647
 7835TIP3    H223463   2.178   3.236   6.636
 7836TIP3   OH223464   4.974   1.025   2.393
 7836TIP3    H123465   4.990   1.083   2.318
 7836TIP3    H223466   4.929   1.081   2.457
 7837TIP3   OH223467   2.735   4.740   1.668
 7837TIP3    H123468   2.734   4.681   1.743
 7837TIP3    H223469   2.693   4.691   1.598
 7838TIP3   OH223470   2.787   0.775   2.455
 7838TIP3    H123471   2.752   0.714   2.521
 7838TIP3    H223472   2.854   0.824   2.502
 7839TIP3   OH223473   5.955   6.214   4.887
 7839TIP3    H123474   5.912   6.232   4.970
 7839TIP3    H223475   5.889   6.169   4.834
 7840TIP3   OH223476   3.620   3.237   6.104
 7840TIP3    H123477   3.691   3.216   6.165
 7840TIP3    H223478   3.552   3.173   6.123
 7841TIP3   OH223479   7.685   6.888   4.478
 7841TIP3    H123480   7.690   6.933   4.393
 7841TIP3    H223481   7.748   6.816   4.469
 7842TIP3   OH223482   4.451   6.699   4.945
 7842TIP3    H123483   4.450   6.786   4.984
 7842TIP3    H223484   4.504   6.709   4.866
 7843TIP3   OH223485   7.662   4.304   2.192
 7843TIP3    H123486   7.634   4.271   2.107
 7843TIP3    H223487   7.738   4.359   2.173
 7844TIP3   OH223488   2.816   1.137   6.054
 7844TIP3    H123489   2.833   1.213   6.109
 7844TIP3    H223490   2.883   1.140   5.987
 7845TIP3   OH223491   2.682   0.710   4.847
 7845TIP3    H123492   2.618   0.775   4.876
 7845TIP3    H223493   2.744   0.703   4.920
 7846TIP3   OH223494   1.691   4.415   5.496
 7846TIP3    H123495   1.650   4.354   5.557
 7846TIP3    H223496   1.701   4.365   5.415
 7847TIP3   OH223497   2.269   4.319   5.704
 7847TIP3    H123498   2.263   4.414   5.713
 7847TIP3    H223499   2.290   4.288   5.792
 7848TIP3   OH223500   2.458   2.455   2.178
 7848TIP3    H123501   2.484   2.496   2.096
 7848TIP3    H223502   2.537   2.456   2.232
 7849TIP3   OH223503   6.325   7.452   4.648
 7849TIP3    H123504   6.387   7.379   4.650
 7849TIP3    H223505   6.350   7.502   4.571
 7850TIP3   OH223506   2.614   6.643   6.638
 7850TIP3    H123507   2.576   6.726   6.609
 7850TIP3    H223508   2.678   6.620   6.571
 7851TIP3   OH223509   7.267   5.012   2.943
 7851TIP3    H123510   7.266   4.970   3.029
 7851TIP3    H223511   7.359   5.038   2.930
 7852TIP3   OH223512   7.950   4.404   2.122
 7852TIP3    H123513   8.043   4.382   2.113
 7852TIP3    H223514   7.950   4.496   2.148
 7853TIP3   OH223515   0.427   3.959   2.128
 7853TIP3    H123516   0.491   3.921   2.188
 7853TIP3    H223517   0.430   3.903   2.051
 7854TIP3   OH223518   1.218   3.614   0.586
 7854TIP3    H123519   1.167   3.682   0.542
 7854TIP3    H223520   1.213   3.637   0.679
 7855TIP3   OH223521   1.265   4.664   2.219
 7855TIP3    H123522   1.288   4.572   2.234
 7855TIP3    H223523   1.277   4.676   2.125
 7856TIP3   OH223524   4.341   5.418   0.882
 7856TIP3    H123525   4.272   5.360   0.914
 7856TIP3    H223526   4.347   5.488   0.947
 7857TIP3   OH223527   4.643   6.310   0.923
 7857TIP3    H123528   4.602   6.324   1.008
 7857TIP3    H223529   4.708   6.242   0.938
 7858TIP3   OH223530   2.488   3.370   6.808
 7858TIP3    H123531   2.436   3.441   6.845
 7858TIP3    H223532   2.431   3.293   6.812
 7859TIP3   OH223533   6.416   5.720   6.602
 7859TIP3    H123534   6.491   5.759   6.647
 7859TIP3    H223535   6.451   5.642   6.558
 7860TIP3   OH223536   7.266   5.583   3.037
 7860TIP3    H123537   7.202   5.513   3.049
 7860TIP3    H223538   7.256   5.608   2.945
 7861TIP3   OH223539   5.582   2.691   3.371
 7861TIP3    H123540   5.543   2.732   3.448
 7861TIP3    H223541   5.520   2.708   3.301
 7862TIP3   OH223542   3.123   3.526   2.518
 7862TIP3    H123543   3.192   3.469   2.552
 7862TIP3    H223544   3.042   3.479   2.535
 7863TIP3   OH223545   7.129   3.669   5.910
 7863TIP3    H123546   7.053   3.724   5.927
 7863TIP3    H223547   7.174   3.664   5.995
 7864TIP3   OH223548   6.216   6.961   1.851
 7864TIP3    H123549   6.223   6.923   1.938
 7864TIP3    H223550   6.210   6.885   1.793
 7865TIP3   OH223551   1.304   4.939   5.878
 7865TIP3    H123552   1.380   4.933   5.935
 7865TIP3    H223553   1.269   5.027   5.894
 7866TIP3   OH223554   3.676   6.896   5.468
 7866TIP3    H123555   3.723   6.956   5.411
 7866TIP3    H223556   3.661   6.818   5.414
 7867TIP3   OH223557   0.246   7.776   1.030
 7867TIP3    H123558   0.314   7.799   1.094
 7867TIP3    H223559   0.223   7.686   1.051
 7868TIP3   OH223560   0.324   7.133   2.554
 7868TIP3    H123561   0.257   7.091   2.608
 7868TIP3    H223562   0.277   7.161   2.475
 7869TIP3   OH223563   2.985   6.175   2.658
 7869TIP3    H123564   2.898   6.134   2.662
 7869TIP3    H223565   3.024   6.157   2.744
 7870TIP3   OH223566   1.138   2.590   4.698
 7870TIP3    H123567   1.173   2.555   4.780
 7870TIP3    H223568   1.051   2.552   4.691
 7871TIP3   OH223569   1.674   4.797   0.595
 7871TIP3    H123570   1.611   4.730   0.568
 7871TIP3    H223571   1.760   4.759   0.574
 7872TIP3   OH223572   7.815   1.255   1.841
 7872TIP3    H123573   7.849   1.251   1.931
 7872TIP3    H223574   7.731   1.208   1.846
 7873TIP3   OH223575   2.050   4.641   0.346
 7873TIP3    H123576   1.995   4.563   0.345
 7873TIP3    H223577   2.031   4.683   0.430
 7874TIP3   OH223578   4.390   0.519   5.987
 7874TIP3    H123579   4.383   0.612   5.965
 7874TIP3    H223580   4.326   0.476   5.931
 7875TIP3   OH223581   1.569   3.325   5.742
 7875TIP3    H123582   1.474   3.326   5.756
 7875TIP3    H223583   1.579   3.292   5.653
 7876TIP3   OH223584   7.560   5.426   5.535
 7876TIP3    H123585   7.515   5.364   5.478
 7876TIP3    H223586   7.581   5.501   5.478
 7877TIP3   OH223587   4.569   6.979   4.207
 7877TIP3    H123588   4.555   6.993   4.113
 7877TIP3    H223589   4.546   6.887   4.220
 7878TIP3   OH223590   2.248   0.888   2.887
 7878TIP3    H123591   2.302   0.890   2.808
 7878TIP3    H223592   2.303   0.844   2.952
 7879TIP3   OH223593   4.981   6.565   2.582
 7879TIP3    H123594   5.042   6.567   2.656
 7879TIP3    H223595   4.917   6.497   2.606
 7880TIP3   OH223596   7.112   6.014   5.804
 7880TIP3    H123597   7.090   5.934   5.851
 7880TIP3    H223598   7.177   5.988   5.739
 7881TIP3   OH223599   3.411   3.070   6.125
 7881TIP3    H123600   3.386   3.132   6.193
 7881TIP3    H223601   3.346   3.000   6.131
 7882TIP3   OH223602   5.817   6.513   1.083
 7882TIP3    H123603   5.838   6.489   1.173
 7882TIP3    H223604   5.896   6.555   1.049
 7883TIP3   OH223605   7.480   0.222   2.775
 7883TIP3    H123606   7.445   0.230   2.863
 7883TIP3    H223607   7.408   0.249   2.718
 7884TIP3   OH223608   0.954   1.893   2.917
 7884TIP3    H123609   0.935   1.959   2.984
 7884TIP3    H223610   0.917   1.812   2.951
 7885TIP3   OH223611   0.413   6.919   5.905
 7885TIP3    H123612   0.433   6.844   5.850
 7885TIP3    H223613   0.340   6.890   5.960
 7886TIP3   OH223614   4.599   2.333   1.195
 7886TIP3    H123615   4.609   2.246   1.233
 7886TIP3    H223616   4.579   2.390   1.270
 7887TIP3   OH223617   6.511   6.056   6.541
 7887TIP3    H123618   6.447   5.987   6.527
 7887TIP3    H223619   6.491   6.090   6.628
 7888TIP3   OH223620   7.435   6.737   4.065
 7888TIP3    H123621   7.365   6.687   4.107
 7888TIP3    H223622   7.391   6.785   3.994
 7889TIP3   OH223623   8.136   6.219   1.990
 7889TIP3    H123624   8.177   6.211   2.077
 7889TIP3    H223625   8.071   6.288   2.002
 7890TIP3   OH223626   3.884   5.389   0.719
 7890TIP3    H123627   3.800   5.344   0.719
 7890TIP3    H223628   3.939   5.338   0.659
 7891TIP3   OH223629   2.691   3.096   6.043
 7891TIP3    H123630   2.673   3.189   6.058
 7891TIP3    H223631   2.676   3.083   5.950
 7892TIP3   OH223632   6.215   2.902   1.226
 7892TIP3    H123633   6.201   2.830   1.288
 7892TIP3    H223634   6.304   2.932   1.245
 7893TIP3   OH223635   5.094   2.966   1.234
 7893TIP3    H123636   5.060   3.007   1.154
 7893TIP3    H223637   5.062   3.022   1.305
 7894TIP3   OH223638   5.310   1.871   1.627
 7894TIP3    H123639   5.263   1.928   1.688
 7894TIP3    H223640   5.251   1.798   1.613
 7895TIP3   OH223641   2.563   0.092   6.359
 7895TIP3    H123642   2.619   0.160   6.320
 7895TIP3    H223643   2.623   0.019   6.375
 7896TIP3   OH223644   6.089   3.509   0.627
 7896TIP3    H123645   6.097   3.431   0.573
 7896TIP3    H223646   6.128   3.579   0.575
 7897TIP3   OH223647   3.662   0.901   5.152
 7897TIP3    H123648   3.572   0.884   5.180
 7897TIP3    H223649   3.694   0.967   5.213
 7898TIP3   OH223650   3.813   0.418   5.268
 7898TIP3    H123651   3.903   0.401   5.295
 7898TIP3    H223652   3.820   0.453   5.179
 7899TIP3   OH223653   6.623   5.571   5.714
 7899TIP3    H123654   6.580   5.634   5.772
 7899TIP3    H223655   6.593   5.593   5.626
 7900TIP3   OH223656   6.220   2.640   0.164
 7900TIP3    H123657   6.234   2.729   0.131
 7900TIP3    H223658   6.161   2.599   0.101
 7901TIP3   OH223659   7.479   0.865   5.904
 7901TIP3    H123660   7.439   0.783   5.873
 7901TIP3    H223661   7.445   0.932   5.846
 7902TIP3   OH223662   8.059   0.832   5.859
 7902TIP3    H123663   7.970   0.857   5.882
 7902TIP3    H223664   8.105   0.915   5.845
 7903TIP3   OH223665   7.342   6.297   4.667
 7903TIP3    H123666   7.345   6.203   4.652
 7903TIP3    H223667   7.260   6.325   4.626
 7904TIP3   OH223668   0.817   5.105   3.381
 7904TIP3    H123669   0.758   5.031   3.393
 7904TIP3    H223670   0.863   5.085   3.299
 7905TIP3   OH223671   4.321   1.394   1.074
 7905TIP3    H123672   4.263   1.461   1.038
 7905TIP3    H223673   4.388   1.382   1.007
 7906TIP3   OH223674   4.265   3.811   0.968
 7906TIP3    H123675   4.209   3.748   1.013
 7906TIP3    H223676   4.284   3.877   1.034
 7907TIP3   OH223677   3.511   1.907   1.912
 7907TIP3    H123678   3.483   1.990   1.951
 7907TIP3    H223679   3.590   1.883   1.960
 7908TIP3   OH223680   5.862   3.790   2.649
 7908TIP3    H123681   5.862   3.749   2.563
 7908TIP3    H223682   5.947   3.768   2.687
 7909TIP3   OH223683   8.099   2.495   4.390
 7909TIP3    H123684   8.167   2.529   4.332
 7909TIP3    H223685   8.040   2.570   4.403
 7910TIP3   OH223686   0.963   3.209   6.064
 7910TIP3    H123687   0.931   3.121   6.087
 7910TIP3    H223688   1.037   3.224   6.123
 7911TIP3   OH223689   6.656   0.174   4.845
 7911TIP3    H123690   6.719   0.240   4.816
 7911TIP3    H223691   6.710   0.098   4.867
 7912TIP3   OH223692   8.213   1.655   6.114
 7912TIP3    H123693   8.200   1.717   6.042
 7912TIP3    H223694   8.239   1.573   6.071
 7913TIP3   OH223695   4.884   6.878   4.777
 7913TIP3    H123696   4.932   6.801   4.806
 7913TIP3    H223697   4.829   6.901   4.852
 7914TIP3   OH223698   5.278   5.948   6.537
 7914TIP3    H123699   5.210   5.957   6.471
 7914TIP3    H223700   5.320   5.864   6.518
 7915TIP3   OH223701   7.479   4.401   4.939
 7915TIP3    H123702   7.462   4.354   4.858
 7915TIP3    H223703   7.439   4.486   4.927
 7916TIP3   OH223704   3.908   7.524   2.729
 7916TIP3    H123705   3.865   7.547   2.812
 7916TIP3    H223706   3.893   7.600   2.673
 7917TIP3   OH223707   7.424   1.276   3.142
 7917TIP3    H123708   7.397   1.352   3.194
 7917TIP3    H223709   7.409   1.201   3.200
 7918TIP3   OH223710   5.038   3.047   6.232
 7918TIP3    H123711   4.946   3.072   6.233
 7918TIP3    H223712   5.082   3.119   6.188
 7919TIP3   OH223713   1.709   6.528   1.004
 7919TIP3    H123714   1.801   6.513   0.981
 7919TIP3    H223715   1.705   6.509   1.098
 7920TIP3   OH223716   4.293   2.579   4.510
 7920TIP3    H123717   4.254   2.619   4.589
 7920TIP3    H223718   4.357   2.517   4.544
 7921TIP3   OH223719   3.710   1.195   1.934
 7921TIP3    H123720   3.715   1.290   1.947
 7921TIP3    H223721   3.673   1.162   2.016
 7922TIP3   OH223722   5.469   2.236   4.942
 7922TIP3    H123723   5.379   2.236   4.974
 7922TIP3    H223724   5.520   2.194   5.011
 7923TIP3   OH223725   0.418   1.037   3.625
 7923TIP3    H123726   0.376   0.979   3.689
 7923TIP3    H223727   0.481   0.981   3.580
 7924TIP3   OH223728   8.094   7.700   0.892
 7924TIP3    H123729   8.069   7.793   0.892
 7924TIP3    H223730   8.188   7.700   0.908
 7925TIP3   OH223731   3.812   6.448   0.615
 7925TIP3    H123732   3.861   6.526   0.589
 7925TIP3    H223733   3.833   6.437   0.708
 7926TIP3   OH223734   4.862   2.348   2.779
 7926TIP3    H123735   4.860   2.252   2.785
 7926TIP3    H223736   4.853   2.366   2.685
 7927TIP3   OH223737   1.024   5.577   5.678
 7927TIP3    H123738   1.101   5.607   5.726
 7927TIP3    H223739   0.987   5.657   5.641
 7928TIP3   OH223740   5.591   6.391   2.528
 7928TIP3    H123741   5.514   6.413   2.476
 7928TIP3    H223742   5.665   6.419   2.475
 7929TIP3   OH223743   2.036   5.988   4.864
 7929TIP3    H123744   2.053   6.064   4.809
 7929TIP3    H223745   2.043   5.913   4.805
 7930TIP3   OH223746   5.415   5.203   0.186
 7930TIP3    H123747   5.466   5.284   0.177
 7930TIP3    H223748   5.335   5.231   0.231
 7931TIP3   OH223749   3.063   3.229   1.684
 7931TIP3    H123750   3.098   3.231   1.595
 7931TIP3    H223751   3.045   3.137   1.702
 7932TIP3   OH223752   7.124   1.054   4.726
 7932TIP3    H123753   7.085   1.023   4.644
 7932TIP3    H223754   7.210   1.012   4.729
 7933TIP3   OH223755   4.897   0.384   6.373
 7933TIP3    H123756   4.986   0.419   6.369
 7933TIP3    H223757   4.902   0.304   6.321
 7934TIP3   OH223758   1.221   0.383   1.037
 7934TIP3    H123759   1.217   0.389   0.941
 7934TIP3    H223760   1.223   0.474   1.067
 7935TIP3   OH223761   1.868   1.691   4.469
 7935TIP3    H123762   1.850   1.719   4.559
 7935TIP3    H223763   1.930   1.619   4.479
 7936TIP3   OH223764   3.516   2.730   6.079
 7936TIP3    H123765   3.521   2.692   5.991
 7936TIP3    H223766   3.423   2.733   6.098
 7937TIP3   OH223767   3.136   4.014   4.743
 7937TIP3    H123768   3.143   3.956   4.668
 7937TIP3    H223769   3.220   4.006   4.788
 7938TIP3   OH223770   5.219   6.496   5.511
 7938TIP3    H123771   5.249   6.551   5.439
 7938TIP3    H223772   5.189   6.415   5.469
 7939TIP3   OH223773   4.973   0.847   1.321
 7939TIP3    H123774   4.944   0.909   1.255
 7939TIP3    H223775   5.062   0.824   1.295
 7940TIP3   OH223776   2.148   3.931   1.097
 7940TIP3    H123777   2.230   3.969   1.067
 7940TIP3    H223778   2.083   3.959   1.032
 7941TIP3   OH223779   4.849   5.787   6.115
 7941TIP3    H123780   4.944   5.798   6.112
 7941TIP3    H223781   4.821   5.840   6.189
 7942TIP3   OH223782   3.435   3.985   2.787
 7942TIP3    H123783   3.467   4.055   2.844
 7942TIP3    H223784   3.445   4.020   2.699
 7943TIP3   OH223785   2.857   4.295   0.065
 7943TIP3    H123786   2.775   4.335   0.036
 7943TIP3    H223787   2.862   4.213   0.015
 7944TIP3   OH223788   0.968   0.160   0.644
 7944TIP3    H123789   0.888   0.171   0.696
 7944TIP3    H223790   0.942   0.184   0.555
 7945TIP3   OH223791   0.169   2.786   1.225
 7945TIP3    H123792   0.226   2.757   1.296
 7945TIP3    H223793   0.130   2.868   1.257
 7946TIP3   OH223794   2.694   0.945   3.628
 7946TIP3    H123795   2.763   0.901   3.578
 7946TIP3    H223796   2.722   0.939   3.719
 7947TIP3   OH223797   5.921   1.604   4.512
 7947TIP3    H123798   6.007   1.635   4.538
 7947TIP3    H223799   5.880   1.680   4.471
 7948TIP3   OH223800   5.880   3.042   2.528
 7948TIP3    H123801   5.789   3.014   2.528
 7948TIP3    H223802   5.913   3.019   2.441
 7949TIP3   OH223803   6.041   1.906   4.714
 7949TIP3    H123804   6.034   1.837   4.648
 7949TIP3    H223805   6.113   1.877   4.771
 7950TIP3   OH223806   5.166   3.013   3.078
 7950TIP3    H123807   5.154   2.950   3.007
 7950TIP3    H223808   5.225   3.079   3.041
 7951TIP3   OH223809   3.017   2.653   3.361
 7951TIP3    H123810   3.041   2.621   3.274
 7951TIP3    H223811   3.100   2.681   3.399
 7952TIP3   OH223812   6.501   5.491   0.418
 7952TIP3    H123813   6.477   5.498   0.326
 7952TIP3    H223814   6.517   5.581   0.446
 7953TIP3   OH223815   3.016   3.211   3.302
 7953TIP3    H123816   2.984   3.194   3.391
 7953TIP3    H223817   3.088   3.273   3.314
 7954TIP3   OH223818   7.308   7.091   1.555
 7954TIP3    H123819   7.399   7.112   1.536
 7954TIP3    H223820   7.305   7.076   1.649
 7955TIP3   OH223821   4.554   2.537   4.814
 7955TIP3    H123822   4.503   2.527   4.894
 7955TIP3    H223823   4.613   2.610   4.832
 7956TIP3   OH223824   1.474   1.198   0.256
 7956TIP3    H123825   1.492   1.143   0.333
 7956TIP3    H223826   1.394   1.245   0.279
 7957TIP3   OH223827   0.321   6.074   0.780
 7957TIP3    H123828   0.353   6.083   0.690
 7957TIP3    H223829   0.292   6.162   0.804
 7958TIP3   OH223830   1.087   5.164   3.515
 7958TIP3    H123831   0.999   5.134   3.491
 7958TIP3    H223832   1.132   5.173   3.431
 7959TIP3   OH223833   6.766   0.809   5.871
 7959TIP3    H123834   6.820   0.884   5.846
 7959TIP3    H223835   6.714   0.840   5.945
 7960TIP3   OH223836   8.243   5.186   2.171
 7960TIP3    H123837   8.322   5.229   2.204
 7960TIP3    H223838   8.259   5.176   2.077
 7961TIP3   OH223839   2.855   6.713   0.473
 7961TIP3    H123840   2.857   6.660   0.393
 7961TIP3    H223841   2.892   6.797   0.448
 7962TIP3   OH223842   0.137   5.683   0.577
 7962TIP3    H123843   0.104   5.600   0.544
 7962TIP3    H223844   0.232   5.671   0.583
 7963TIP3   OH223845   1.551   5.567   2.554
 7963TIP3    H123846   1.497   5.645   2.540
 7963TIP3    H223847   1.577   5.540   2.466
 7964TIP3   OH223848   3.974   4.142   3.202
 7964TIP3    H123849   4.062   4.111   3.180
 7964TIP3    H223850   3.923   4.130   3.122
 7965TIP3   OH223851   1.276   1.360   2.701
 7965TIP3    H123852   1.292   1.443   2.745
 7965TIP3    H223853   1.180   1.354   2.695
 7966TIP3   OH223854   1.993   7.226   2.316
 7966TIP3    H123855   1.986   7.217   2.411
 7966TIP3    H223856   1.977   7.138   2.282
 7967TIP3   OH223857   6.113   6.968   5.044
 7967TIP3    H123858   6.177   7.035   5.019
 7967TIP3    H223859   6.108   6.973   5.139
 7968TIP3   OH223860   8.169   5.248   1.488
 7968TIP3    H123861   8.230   5.299   1.543
 7968TIP3    H223862   8.098   5.309   1.470
 7969TIP3   OH223863   4.483   7.525   1.304
 7969TIP3    H123864   4.432   7.510   1.225
 7969TIP3    H223865   4.520   7.613   1.293
 7970TIP3   OH223866   4.637   2.266   5.464
 7970TIP3    H123867   4.657   2.199   5.530
 7970TIP3    H223868   4.681   2.235   5.385
 7971TIP3   OH223869   5.253   5.406   5.065
 7971TIP3    H123870   5.206   5.395   5.147
 7971TIP3    H223871   5.222   5.335   5.009
 7972TIP3   OH223872   3.222   6.732   6.512
 7972TIP3    H123873   3.158   6.717   6.582
 7972TIP3    H223874   3.172   6.722   6.431
 7973TIP3   OH223875   3.471   1.004   3.472
 7973TIP3    H123876   3.542   0.966   3.523
 7973TIP3    H223877   3.456   0.942   3.401
 7974TIP3   OH223878   5.161   7.407   5.775
 7974TIP3    H123879   5.135   7.322   5.809
 7974TIP3    H223880   5.088   7.433   5.718
 7975TIP3   OH223881   1.630   4.126   0.025
 7975TIP3    H123882   1.549   4.075   0.034
 7975TIP3    H223883   1.672   4.091  -0.054
 7976TIP3   OH223884   4.404   6.228   1.489
 7976TIP3    H123885   4.352   6.304   1.462
 7976TIP3    H223886   4.363   6.154   1.444
 7977TIP3   OH223887   7.257   6.235   3.387
 7977TIP3    H123888   7.332   6.292   3.371
 7977TIP3    H223889   7.181   6.290   3.369
 7978TIP3   OH223890   4.068   4.934   0.571
 7978TIP3    H123891   4.111   4.948   0.655
 7978TIP3    H223892   4.132   4.887   0.518
 7979TIP3   OH223893   4.227   3.111   5.906
 7979TIP3    H123894   4.277   3.184   5.942
 7979TIP3    H223895   4.213   3.133   5.814
 7980TIP3   OH223896   6.380   3.318   3.686
 7980TIP3    H123897   6.303   3.340   3.633
 7980TIP3    H223898   6.446   3.290   3.622
 7981TIP3   OH223899  -0.006   6.533   4.416
 7981TIP3    H123900  -0.075   6.470   4.396
 7981TIP3    H223901   0.064   6.512   4.354
 7982TIP3   OH223902   3.628   5.927   0.936
 7982TIP3    H123903   3.674   6.002   0.899
 7982TIP3    H223904   3.690   5.888   0.997
 7983TIP3   OH223905   1.051   6.024   2.306
 7983TIP3    H123906   1.133   6.018   2.355
 7983TIP3    H223907   1.074   5.993   2.218
 7984TIP3   OH223908   5.083   2.224   3.087
 7984TIP3    H123909   5.090   2.133   3.115
 7984TIP3    H223910   5.156   2.268   3.130
 7985TIP3   OH223911   0.398   5.537   0.770
 7985TIP3    H123912   0.454   5.475   0.723
 7985TIP3    H223913   0.319   5.487   0.791
 7986TIP3   OH223914   5.978   1.673   6.408
 7986TIP3    H123915   5.899   1.630   6.375
 7986TIP3    H223916   5.966   1.766   6.386
 7987TIP3   OH223917   2.108   5.685   1.280
 7987TIP3    H123918   2.113   5.776   1.251
 7987TIP3    H223919   2.018   5.675   1.310
 7988TIP3   OH223920   8.085   5.917   6.439
 7988TIP3    H123921   8.082   5.829   6.401
 7988TIP3    H223922   8.072   5.902   6.533
 7989TIP3   OH223923   4.688   0.175   1.001
 7989TIP3    H123924   4.638   0.130   0.933
 7989TIP3    H223925   4.668   0.126   1.082
 7990TIP3   OH223926   8.060   0.823   3.791
 7990TIP3    H123927   7.989   0.856   3.736
 7990TIP3    H223928   8.119   0.897   3.802
 7991TIP3   OH223929   0.220   1.513   5.298
 7991TIP3    H123930   0.261   1.533   5.382
 7991TIP3    H223931   0.192   1.598   5.264
 7992TIP3   OH223932   7.300   6.136   4.986
 7992TIP3    H123933   7.357   6.161   5.059
 7992TIP3    H223934   7.353   6.076   4.933
 7993TIP3   OH223935   1.346   5.477   2.957
 7993TIP3    H123936   1.307   5.392   2.976
 7993TIP3    H223937   1.439   5.459   2.940
 7994TIP3   OH223938   7.836   4.690   1.559
 7994TIP3    H123939   7.763   4.751   1.551
 7994TIP3    H223940   7.835   4.641   1.476
 7995TIP3   OH223941   7.351   6.111   6.296
 7995TIP3    H123942   7.319   6.105   6.206
 7995TIP3    H223943   7.279   6.077   6.349
 7996TIP3   OH223944   0.534   5.630   6.646
 7996TIP3    H123945   0.610   5.594   6.691
 7996TIP3    H223946   0.570   5.687   6.578
 7997TIP3   OH223947   5.358   2.456   1.295
 7997TIP3    H123948   5.390   2.469   1.205
 7997TIP3    H223949   5.315   2.538   1.317
 7998TIP3   OH223950   0.589   6.718   3.866
 7998TIP3    H123951   0.540   6.636   3.866
 7998TIP3    H223952   0.679   6.691   3.884
 7999TIP3   OH223953   5.934   1.261   5.042
 7999TIP3    H123954   5.948   1.353   5.019
 7999TIP3    H223955   5.840   1.252   5.053
 8000TIP3   OH223956   7.820   4.014   6.343
 8000TIP3    H123957   7.809   3.978   6.255
 8000TIP3    H223958   7.734   4.008   6.383
 8001TIP3   OH223959   6.536   5.823   3.800
 8001TIP3    H123960   6.486   5.901   3.824
 8001TIP3    H223961   6.627   5.849   3.806
 8002TIP3   OH223962   7.143   7.564   0.286
 8002TIP3    H123963   7.185   7.483   0.259
 8002TIP3    H223964   7.053   7.540   0.304
 8003TIP3   OH223965   0.116   7.523   4.268
 8003TIP3    H123966   0.207   7.527   4.238
 8003TIP3    H223967   0.104   7.605   4.317
 8004TIP3   OH223968   1.895   1.175   3.698
 8004TIP3    H123969   1.886   1.225   3.616
 8004TIP3    H223970   1.955   1.105   3.676
 8005TIP3   OH223971   6.295   4.783   5.714
 8005TIP3    H123972   6.311   4.878   5.713
 8005TIP3    H223973   6.371   4.746   5.757
 8006TIP3   OH223974   1.115   4.243   0.137
 8006TIP3    H123975   1.173   4.194   0.195
 8006TIP3    H223976   1.037   4.260   0.189
 8007TIP3   OH223977   8.114   3.220   2.803
 8007TIP3    H123978   8.097   3.314   2.794
 8007TIP3    H223979   8.105   3.203   2.897
 8008TIP3   OH223980   6.622   5.280   6.446
 8008TIP3    H123981   6.591   5.227   6.520
 8008TIP3    H223982   6.619   5.220   6.371
 8009TIP3   OH223983   6.804   2.084   5.709
 8009TIP3    H123984   6.872   2.125   5.657
 8009TIP3    H223985   6.733   2.148   5.713
 8010TIP3   OH223986   4.734   3.652   5.941
 8010TIP3    H123987   4.808   3.592   5.945
 8010TIP3    H223988   4.724   3.685   6.030
 8011TIP3   OH223989   2.507   1.424   3.187
 8011TIP3    H123990   2.568   1.356   3.217
 8011TIP3    H223991   2.532   1.502   3.236
 8012TIP3   OH223992   1.321   4.125   1.123
 8012TIP3    H123993   1.286   4.085   1.202
 8012TIP3    H223994   1.259   4.101   1.054
 8013TIP3   OH223995   6.775   3.085   4.472
 8013TIP3    H123996   6.809   3.122   4.554
 8013TIP3    H223997   6.754   2.994   4.494
 8014TIP3   OH223998   6.160   7.665   1.667
 8014TIP3    H123999   6.202   7.724   1.605
 8014TIP3    H224000   6.151   7.716   1.747
 8015TIP3   OH224001   7.293   7.094   3.414
 8015TIP3    H124002   7.291   6.999   3.405
 8015TIP3    H224003   7.384   7.114   3.435
 8016TIP3   OH224004   4.990   3.682   2.016
 8016TIP3    H124005   5.020   3.596   1.988
 8016TIP3    H224006   4.902   3.666   2.052
 8017TIP3   OH224007   1.060   1.066   2.833
 8017TIP3    H124008   1.118   1.063   2.910
 8017TIP3    H224009   1.102   1.008   2.770
 8018TIP3   OH224010   2.485   5.510   0.792
 8018TIP3    H124011   2.495   5.440   0.728
 8018TIP3    H224012   2.574   5.538   0.811
 8019TIP3   OH224013   6.857   5.471   1.426
 8019TIP3    H124014   6.885   5.389   1.466
 8019TIP3    H224015   6.906   5.477   1.345
 8020TIP3   OH224016   2.853   3.440   1.833
 8020TIP3    H124017   2.900   3.432   1.750
 8020TIP3    H224018   2.814   3.527   1.831
 8021TIP3   OH224019   5.269   3.998   2.937
 8021TIP3    H124020   5.298   3.991   3.028
 8021TIP3    H224021   5.346   4.030   2.890
 8022TIP3   OH224022   3.203   2.129   3.660
 8022TIP3    H124023   3.292   2.120   3.627
 8022TIP3    H224024   3.147   2.090   3.592
 8023TIP3   OH224025   5.170   1.284   4.483
 8023TIP3    H124026   5.153   1.368   4.526
 8023TIP3    H224027   5.262   1.289   4.456
 8024TIP3   OH224028   3.341   7.795   4.693
 8024TIP3    H124029   3.343   7.889   4.709
 8024TIP3    H224030   3.431   7.766   4.708
 8025TIP3   OH224031   5.079   2.360   2.473
 8025TIP3    H124032   5.095   2.274   2.436
 8025TIP3    H224033   4.985   2.363   2.489
 8026TIP3   OH224034   2.521   5.964   4.256
 8026TIP3    H124035   2.439   5.936   4.215
 8026TIP3    H224036   2.565   6.016   4.189
 8027TIP3   OH224037   1.183   0.478   0.744
 8027TIP3    H124038   1.101   0.493   0.696
 8027TIP3    H224039   1.241   0.549   0.717
 8028TIP3   OH224040   5.441   6.828   3.606
 8028TIP3    H124041   5.496   6.798   3.534
 8028TIP3    H224042   5.502   6.844   3.678
 8029TIP3   OH224043   8.212   1.792   2.692
 8029TIP3    H124044   8.276   1.853   2.655
 8029TIP3    H224045   8.265   1.720   2.727
 8030TIP3   OH224046   5.407   6.624   2.334
 8030TIP3    H124047   5.438   6.714   2.336
 8030TIP3    H224048   5.384   6.604   2.425
 8031TIP3   OH224049   5.347   4.446   1.430
 8031TIP3    H124050   5.314   4.429   1.518
 8031TIP3    H224051   5.415   4.379   1.417
 8032TIP3   OH224052   7.499   1.630   4.962
 8032TIP3    H124053   7.534   1.648   4.874
 8032TIP3    H224054   7.544   1.692   5.019
 8033TIP3   OH224055   1.473   2.626   3.181
 8033TIP3    H124056   1.523   2.703   3.153
 8033TIP3    H224057   1.418   2.657   3.252
 8034TIP3   OH224058   4.671   0.406   2.588
 8034TIP3    H124059   4.721   0.426   2.668
 8034TIP3    H224060   4.738   0.387   2.523
 8035TIP3   OH224061   1.924   3.457   1.641
 8035TIP3    H124062   1.917   3.381   1.583
 8035TIP3    H224063   1.911   3.421   1.728
 8036TIP3   OH224064   7.594   1.823   2.563
 8036TIP3    H124065   7.637   1.740   2.543
 8036TIP3    H224066   7.601   1.831   2.658
 8037TIP3   OH224067   1.483   2.596   5.006
 8037TIP3    H124068   1.430   2.670   4.975
 8037TIP3    H224069   1.573   2.627   5.000
 8038TIP3   OH224070   0.931   2.268   1.419
 8038TIP3    H124071   0.897   2.179   1.408
 8038TIP3    H224072   0.882   2.320   1.355
 8039TIP3   OH224073   1.383   4.258   3.370
 8039TIP3    H124074   1.344   4.171   3.377
 8039TIP3    H224075   1.359   4.301   3.451
 8040TIP3   OH224076   4.629   6.732   3.721
 8040TIP3    H124077   4.567   6.798   3.689
 8040TIP3    H224078   4.685   6.713   3.646
 8041TIP3   OH224079   7.235   5.034   4.884
 8041TIP3    H124080   7.197   5.005   4.801
 8041TIP3    H224081   7.329   5.035   4.868
 8042TIP3   OH224082   1.986   2.148   1.416
 8042TIP3    H124083   2.081   2.142   1.418
 8042TIP3    H224084   1.966   2.189   1.331
 8043TIP3   OH224085   4.638   5.328   6.307
 8043TIP3    H124086   4.683   5.399   6.261
 8043TIP3    H224087   4.699   5.303   6.376
 8044TIP3   OH224088   6.811   4.948   0.598
 8044TIP3    H124089   6.721   4.964   0.626
 8044TIP3    H224090   6.834   5.027   0.547
 8045TIP3   OH224091   2.020   6.839   2.932
 8045TIP3    H124092   2.088   6.901   2.961
 8045TIP3    H224093   1.956   6.894   2.887
 8046TIP3   OH224094   4.498   6.587   6.633
 8046TIP3    H124095   4.525   6.496   6.617
 8046TIP3    H224096   4.549   6.613   6.711
 8047TIP3   OH224097   4.803   3.775   3.712
 8047TIP3    H124098   4.828   3.806   3.799
 8047TIP3    H224099   4.721   3.728   3.727
 8048TIP3   OH224100   7.072   6.428   6.483
 8048TIP3    H124101   7.166   6.414   6.474
 8048TIP3    H224102   7.064   6.514   6.526
 8049TIP3   OH224103   4.645   2.834   1.588
 8049TIP3    H124104   4.653   2.838   1.493
 8049TIP3    H224105   4.691   2.754   1.613
 8050TIP3   OH224106   1.698   6.829   3.221
 8050TIP3    H124107   1.647   6.872   3.153
 8050TIP3    H224108   1.773   6.886   3.236
 8051TIP3   OH224109   5.774   6.970   5.499
 8051TIP3    H124110   5.688   6.969   5.541
 8051TIP3    H224111   5.832   6.925   5.560
 8052TIP3   OH224112   7.399   6.149   0.447
 8052TIP3    H124113   7.479   6.115   0.487
 8052TIP3    H224114   7.356   6.071   0.411
 8053TIP3   OH224115   0.203   6.595   5.903
 8053TIP3    H124116   0.195   6.513   5.854
 8053TIP3    H224117   0.293   6.624   5.886
 8054TIP3   OH224118   1.569   6.677   6.344
 8054TIP3    H124119   1.486   6.725   6.337
 8054TIP3    H224120   1.637   6.743   6.333
 8055TIP3   OH224121   6.886   2.553   4.910
 8055TIP3    H124122   6.923   2.482   4.961
 8055TIP3    H224123   6.791   2.541   4.916
 8056TIP3   OH224124   2.556   7.092   3.380
 8056TIP3    H124125   2.564   7.096   3.476
 8056TIP3    H224126   2.646   7.093   3.348
 8057TIP3   OH224127   2.257   7.307   6.677
 8057TIP3    H124128   2.321   7.366   6.717
 8057TIP3    H224129   2.185   7.305   6.740
 8058TIP3   OH224130   1.878   1.809   1.293
 8058TIP3    H124131   1.863   1.872   1.222
 8058TIP3    H224132   1.837   1.849   1.370
 8059TIP3   OH224133   2.196   6.132   6.456
 8059TIP3    H124134   2.214   6.218   6.418
 8059TIP3    H224135   2.233   6.138   6.545
 8060TIP3   OH224136   2.124   4.185   2.393
 8060TIP3    H124137   2.097   4.221   2.477
 8060TIP3    H224138   2.072   4.106   2.383
 8061TIP3   OH224139   1.866   4.735   1.783
 8061TIP3    H124140   1.952   4.770   1.762
 8061TIP3    H224141   1.844   4.773   1.867
 8062TIP3   OH224142   5.826   4.744   0.220
 8062TIP3    H124143   5.892   4.676   0.205
 8062TIP3    H224144   5.769   4.707   0.287
 8063TIP3   OH224145   1.543   2.236   6.761
 8063TIP3    H124146   1.497   2.314   6.795
 8063TIP3    H224147   1.477   2.189   6.712
 8064TIP3   OH224148   6.105   3.165   4.899
 8064TIP3    H124149   6.101   3.217   4.818
 8064TIP3    H224150   6.029   3.107   4.894
 8065TIP3   OH224151   4.377   0.424   6.233
 8065TIP3    H124152   4.380   0.459   6.144
 8065TIP3    H224153   4.449   0.469   6.278
 8066TIP3   OH224154   0.385   4.936   2.857
 8066TIP3    H124155   0.343   5.019   2.832
 8066TIP3    H224156   0.314   4.883   2.894
 8067TIP3   OH224157   5.184   4.961   2.766
 8067TIP3    H124158   5.143   4.942   2.850
 8067TIP3    H224159   5.225   4.879   2.740
 8068TIP3   OH224160   7.940   1.456   6.005
 8068TIP3    H124161   7.939   1.551   6.017
 8068TIP3    H224162   8.030   1.436   5.979
 8069TIP3   OH224163   3.607   1.835   3.131
 8069TIP3    H124164   3.678   1.786   3.090
 8069TIP3    H224165   3.551   1.768   3.171
 8070TIP3   OH224166   1.169   0.794   2.127
 8070TIP3    H124167   1.074   0.800   2.125
 8070TIP3    H224168   1.199   0.873   2.082
 8071TIP3   OH224169   4.906   4.807   6.005
 8071TIP3    H124170   4.920   4.834   6.096
 8071TIP3    H224171   4.987   4.834   5.960
 8072TIP3   OH224172   6.871   0.040   3.939
 8072TIP3    H124173   6.812  -0.017   3.890
 8072TIP3    H224174   6.819   0.120   3.954
 8073TIP3   OH224175   6.832   4.662   1.410
 8073TIP3    H124176   6.817   4.635   1.319
 8073TIP3    H224177   6.755   4.632   1.457
 8074TIP3   OH224178   0.573   6.836   5.159
 8074TIP3    H124179   0.610   6.750   5.178
 8074TIP3    H224180   0.489   6.817   5.117
 8075TIP3   OH224181   0.482   4.765   3.146
 8075TIP3    H124182   0.427   4.843   3.137
 8075TIP3    H224183   0.427   4.693   3.116
 8076TIP3   OH224184   4.162   6.439   1.014
 8076TIP3    H124185   4.243   6.471   1.054
 8076TIP3    H224186   4.102   6.513   1.019
 8077TIP3   OH224187   6.825   6.990   4.129
 8077TIP3    H124188   6.736   6.978   4.095
 8077TIP3    H224189   6.882   6.972   4.055
 8078TIP3   OH224190   2.255   3.128   2.403
 8078TIP3    H124191   2.206   3.148   2.483
 8078TIP3    H224192   2.335   3.085   2.433
 8079TIP3   OH224193   4.277   5.798   0.895
 8079TIP3    H124194   4.260   5.782   0.802
 8079TIP3    H224195   4.192   5.786   0.938
 8080TIP3   OH224196   7.631   4.907   1.828
 8080TIP3    H124197   7.549   4.867   1.856
 8080TIP3    H224198   7.649   4.973   1.895
 8081TIP3   OH224199   6.746   3.553   3.040
 8081TIP3    H124200   6.811   3.606   3.086
 8081TIP3    H224201   6.725   3.605   2.962
 8082TIP3   OH224202   2.516   6.715   5.299
 8082TIP3    H124203   2.510   6.720   5.204
 8082TIP3    H224204   2.574   6.641   5.316
 8083TIP3   OH224205   2.286   0.886   6.633
 8083TIP3    H124206   2.359   0.851   6.581
 8083TIP3    H224207   2.263   0.968   6.590
 8084TIP3   OH224208   6.802   2.699   5.411
 8084TIP3    H124209   6.710   2.685   5.386
 8084TIP3    H224210   6.827   2.780   5.367
 8085TIP3   OH224211   6.945   7.152   5.119
 8085TIP3    H124212   6.960   7.195   5.035
 8085TIP3    H224213   7.007   7.193   5.178
 8086TIP3   OH224214   1.800   2.859   5.946
 8086TIP3    H124215   1.784   2.795   5.876
 8086TIP3    H224216   1.744   2.933   5.924
 8087TIP3   OH224217   1.537   2.956   2.167
 8087TIP3    H124218   1.495   2.872   2.180
 8087TIP3    H224219   1.468   3.021   2.182
 8088TIP3   OH224220   8.260   0.407   0.945
 8088TIP3    H124221   8.301   0.321   0.937
 8088TIP3    H224222   8.322   0.459   0.995
 8089TIP3   OH224223   0.440   4.707   5.962
 8089TIP3    H124224   0.504   4.755   5.909
 8089TIP3    H224225   0.359   4.758   5.953
 8090TIP3   OH224226   5.488   7.331   3.758
 8090TIP3    H124227   5.484   7.422   3.787
 8090TIP3    H224228   5.426   7.285   3.814
 8091TIP3   OH224229   3.599   4.380   0.411
 8091TIP3    H124230   3.690   4.407   0.424
 8091TIP3    H224231   3.551   4.422   0.483
 8092TIP3   OH224232   5.480   7.579   2.390
 8092TIP3    H124233   5.571   7.604   2.405
 8092TIP3    H224234   5.472   7.577   2.295
 8093TIP3   OH224235   3.563   7.858   6.599
 8093TIP3    H124236   3.649   7.893   6.620
 8093TIP3    H224237   3.545   7.794   6.667
 8094TIP3   OH224238   8.032   1.462   4.287
 8094TIP3    H124239   8.105   1.518   4.262
 8094TIP3    H224240   8.058   1.375   4.258
 8095TIP3   OH224241   3.583   0.126   4.897
 8095TIP3    H124242   3.626   0.091   4.974
 8095TIP3    H224243   3.489   0.122   4.917
 8096TIP3   OH224244   6.834   0.515   6.594
 8096TIP3    H124245   6.802   0.528   6.504
 8096TIP3    H224246   6.780   0.574   6.647
 8097TIP3   OH224247   4.551   6.201   2.751
 8097TIP3    H124248   4.565   6.107   2.742
 8097TIP3    H224249   4.583   6.222   2.839
 8098TIP3   OH224250   0.394   0.740   0.198
 8098TIP3    H124251   0.466   0.789   0.239
 8098TIP3    H224252   0.418   0.737   0.105
 8099TIP3   OH224253   5.213   0.444   3.883
 8099TIP3    H124254   5.283   0.378   3.880
 8099TIP3    H224255   5.133   0.395   3.870
 8100TIP3   OH224256   1.912   4.932   6.250
 8100TIP3    H124257   1.950   4.949   6.164
 8100TIP3    H224258   1.827   4.894   6.233
 8101TIP3   OH224259   7.802   2.427   1.975
 8101TIP3    H124260   7.738   2.498   1.970
 8101TIP3    H224261   7.829   2.414   1.885
 8102TIP3   OH224262   2.505   6.985   1.588
 8102TIP3    H124263   2.550   7.062   1.554
 8102TIP3    H224264   2.418   7.016   1.612
 8103TIP3   OH224265   4.481   6.957   3.605
 8103TIP3    H124266   4.409   6.921   3.552
 8103TIP3    H224267   4.555   6.961   3.544
 8104TIP3   OH224268   3.604   5.584   0.562
 8104TIP3    H124269   3.588   5.587   0.656
 8104TIP3    H224270   3.580   5.671   0.530
 8105TIP3   OH224271   6.012   2.057   3.207
 8105TIP3    H124272   5.941   2.083   3.148
 8105TIP3    H224273   6.091   2.085   3.162
 8106TIP3   OH224274   0.486   3.076   2.594
 8106TIP3    H124275   0.449   3.126   2.667
 8106TIP3    H224276   0.430   3.097   2.520
 8107TIP3   OH224277   8.267   7.004   4.119
 8107TIP3    H124278   8.307   6.993   4.032
 8107TIP3    H224279   8.322   6.953   4.178
 8108TIP3   OH224280   1.871   5.533   1.670
 8108TIP3    H124281   1.844   5.511   1.581
 8108TIP3    H224282   1.814   5.606   1.695
 8109TIP3   OH224283   6.910   0.619   2.138
 8109TIP3    H124284   6.837   0.558   2.124
 8109TIP3    H224285   6.890   0.694   2.082
 8110TIP3   OH224286   6.329   2.187   1.018
 8110TIP3    H124287   6.269   2.164   0.946
 8110TIP3    H224288   6.354   2.277   1.000
 8111TIP3   OH224289   3.355   1.132   5.313
 8111TIP3    H124290   3.285   1.197   5.305
 8111TIP3    H224291   3.420   1.160   5.248
 8112TIP3   OH224292   3.243   0.342   5.194
 8112TIP3    H124293   3.267   0.251   5.206
 8112TIP3    H224294   3.147   0.341   5.187
 8113TIP3   OH224295   2.787   0.799   4.608
 8113TIP3    H124296   2.698   0.801   4.572
 8113TIP3    H224297   2.778   0.748   4.689
 8114TIP3   OH224298   2.496   2.726   2.665
 8114TIP3    H124299   2.426   2.674   2.625
 8114TIP3    H224300   2.570   2.665   2.672
 8115TIP3   OH224301   2.034   1.534   0.973
 8115TIP3    H124302   2.053   1.461   0.914
 8115TIP3    H224303   2.008   1.606   0.915
 8116TIP3   OH224304   0.554   3.190   3.565
 8116TIP3    H124305   0.624   3.145   3.612
 8116TIP3    H224306   0.522   3.126   3.502
 8117TIP3   OH224307   7.607   4.009   0.690
 8117TIP3    H124308   7.629   4.063   0.614
 8117TIP3    H224309   7.523   4.043   0.720
 8118TIP3   OH224310   7.597   0.850   5.220
 8118TIP3    H124311   7.590   0.788   5.293
 8118TIP3    H224312   7.594   0.936   5.261
 8119TIP3   OH224313   5.590   0.687   6.329
 8119TIP3    H124314   5.613   0.773   6.293
 8119TIP3    H224315   5.647   0.677   6.405
 8120TIP3   OH224316   1.391   3.409   4.362
 8120TIP3    H124317   1.336   3.344   4.406
 8120TIP3    H224318   1.368   3.492   4.404
 8121TIP3   OH224319   4.873   3.693   6.390
 8121TIP3    H124320   4.807   3.647   6.441
 8121TIP3    H224321   4.898   3.630   6.322
 8122TIP3   OH224322   1.469   2.647   3.724
 8122TIP3    H124323   1.558   2.613   3.731
 8122TIP3    H224324   1.475   2.717   3.659
 8123TIP3   OH224325   3.697   3.120   2.404
 8123TIP3    H124326   3.663   3.038   2.440
 8123TIP3    H224327   3.721   3.172   2.481
 8124TIP3   OH224328   1.601   4.124   1.383
 8124TIP3    H124329   1.552   4.166   1.453
 8124TIP3    H224330   1.587   4.030   1.395
 8125TIP3   OH224331   1.813   6.596   2.352
 8125TIP3    H124332   1.830   6.502   2.364
 8125TIP3    H224333   1.719   6.602   2.338
 8126TIP3   OH224334   6.176   1.650   1.950
 8126TIP3    H124335   6.199   1.722   2.009
 8126TIP3    H224336   6.130   1.588   2.007
 8127TIP3   OH224337   4.335   5.597   0.112
 8127TIP3    H124338   4.359   5.526   0.052
 8127TIP3    H224339   4.394   5.587   0.186
 8128TIP3   OH224340   1.134   1.448   1.661
 8128TIP3    H124341   1.148   1.365   1.616
 8128TIP3    H224342   1.154   1.515   1.596
 8129TIP3   OH224343   2.345   4.117   5.211
 8129TIP3    H124344   2.259   4.118   5.254
 8129TIP3    H224345   2.379   4.205   5.226
 8130TIP3   OH224346   6.994   3.108   6.541
 8130TIP3    H124347   6.943   3.162   6.601
 8130TIP3    H224348   7.037   3.043   6.596
 8131TIP3   OH224349   1.934   1.074   0.650
 8131TIP3    H124350   1.986   1.015   0.596
 8131TIP3    H224351   1.880   1.016   0.704
 8132TIP3   OH224352   1.363   1.418   0.368
 8132TIP3    H124353   1.324   1.416   0.456
 8132TIP3    H224354   1.457   1.412   0.384
 8133TIP3   OH224355   8.256   3.695   1.858
 8133TIP3    H124356   8.160   3.697   1.852
 8133TIP3    H224357   8.274   3.621   1.916
 8134TIP3   OH224358   5.109   3.865   0.662
 8134TIP3    H124359   5.196   3.851   0.700
 8134TIP3    H224360   5.123   3.862   0.567
 8135TIP3   OH224361   5.443   3.031   5.995
 8135TIP3    H124362   5.458   3.125   5.989
 8135TIP3    H224363   5.426   3.015   6.088
 8136TIP3   OH224364   4.723   6.142   2.106
 8136TIP3    H124365   4.726   6.079   2.034
 8136TIP3    H224366   4.810   6.180   2.109
 8137TIP3   OH224367   4.304   3.463   2.581
 8137TIP3    H124368   4.354   3.393   2.539
 8137TIP3    H224369   4.351   3.543   2.559
 8138TIP3   OH224370   7.600   5.005   3.037
 8138TIP3    H124371   7.662   5.060   2.989
 8138TIP3    H224372   7.618   4.916   3.007
 8139TIP3   OH224373   3.694   3.929   1.506
 8139TIP3    H124374   3.632   3.956   1.438
 8139TIP3    H224375   3.729   4.011   1.540
 8140TIP3   OH224376   2.768   0.777   5.120
 8140TIP3    H124377   2.804   0.862   5.147
 8140TIP3    H224378   2.676   0.781   5.148
 8141TIP3   OH224379   3.910   1.863   4.868
 8141TIP3    H124380   3.861   1.814   4.934
 8141TIP3    H224381   3.982   1.903   4.916
 8142TIP3   OH224382   3.905   3.431   4.760
 8142TIP3    H124383   3.899   3.400   4.851
 8142TIP3    H224384   3.827   3.394   4.718
 8143TIP3   OH224385   6.153   6.654   2.510
 8143TIP3    H124386   6.136   6.749   2.509
 8143TIP3    H224387   6.216   6.640   2.439
 8144TIP3   OH224388   2.698   4.415   3.825
 8144TIP3    H124389   2.632   4.465   3.777
 8144TIP3    H224390   2.780   4.462   3.810
 8145TIP3   OH224391   1.140   1.970  -0.037
 8145TIP3    H124392   1.055   1.996  -0.002
 8145TIP3    H224393   1.197   1.962   0.040
 8146TIP3   OH224394   5.994   6.306   5.906
 8146TIP3    H124395   5.908   6.264   5.910
 8146TIP3    H224396   6.040   6.260   5.837
 8147TIP3   OH224397   7.861   3.552   1.122
 8147TIP3    H124398   7.871   3.604   1.201
 8147TIP3    H224399   7.900   3.467   1.143
 8148TIP3   OH224400   6.568   7.249   1.363
 8148TIP3    H124401   6.481   7.217   1.340
 8148TIP3    H224402   6.622   7.170   1.374
 8149TIP3   OH224403   5.054   4.097   6.457
 8149TIP3    H124404   5.097   4.017   6.427
 8149TIP3    H224405   5.079   4.105   6.548
 8150TIP3   OH224406   6.419   4.060   5.471
 8150TIP3    H124407   6.492   4.058   5.409
 8150TIP3    H224408   6.426   3.978   5.519
 8151TIP3   OH224409   2.442   5.734   1.608
 8151TIP3    H124410   2.371   5.798   1.599
 8151TIP3    H224411   2.402   5.661   1.656
 8152TIP3   OH224412   6.192   0.374   2.822
 8152TIP3    H124413   6.248   0.326   2.883
 8152TIP3    H224414   6.214   0.466   2.836
 8153TIP3   OH224415   3.713   2.102   1.745
 8153TIP3    H124416   3.775   2.075   1.813
 8153TIP3    H224417   3.630   2.113   1.791
 8154TIP3   OH224418   5.387   4.043   4.215
 8154TIP3    H124419   5.297   4.029   4.185
 8154TIP3    H224420   5.391   4.000   4.300
 8155TIP3   OH224421   4.898   5.860   1.113
 8155TIP3    H124422   4.992   5.846   1.125
 8155TIP3    H224423   4.857   5.812   1.185
 8156TIP3   OH224424   7.520   3.689   0.128
 8156TIP3    H124425   7.560   3.662   0.211
 8156TIP3    H224426   7.560   3.773   0.108
 8157TIP3   OH224427   3.980   4.575   6.308
 8157TIP3    H124428   3.908   4.597   6.368
 8157TIP3    H224429   3.942   4.586   6.221
 8158TIP3   OH224430   6.590   2.643   1.186
 8158TIP3    H124431   6.543   2.696   1.122
 8158TIP3    H224432   6.522   2.605   1.241
 8159TIP3   OH224433   7.246   0.686   5.278
 8159TIP3    H124434   7.203   0.772   5.283
 8159TIP3    H224435   7.282   0.672   5.366
 8160TIP3   OH224436   2.466   2.214   5.195
 8160TIP3    H124437   2.467   2.131   5.242
 8160TIP3    H224438   2.531   2.202   5.126
 8161TIP3   OH224439   1.686   5.203   2.282
 8161TIP3    H124440   1.771   5.226   2.246
 8161TIP3    H224441   1.629   5.197   2.205
 8162TIP3   OH224442   3.349   3.380   5.541
 8162TIP3    H124443   3.368   3.319   5.613
 8162TIP3    H224444   3.261   3.412   5.559
 8163TIP3   OH224445   3.005   1.365   5.890
 8163TIP3    H124446   2.963   1.435   5.840
 8163TIP3    H224447   3.084   1.404   5.926
 8164TIP3   OH224448   2.853   1.066   2.471
 8164TIP3    H124449   2.774   1.055   2.524
 8164TIP3    H224450   2.916   1.005   2.509
 8165TIP3   OH224451   3.156   2.583   4.446
 8165TIP3    H124452   3.157   2.530   4.367
 8165TIP3    H224453   3.230   2.643   4.436
 8166TIP3   OH224454   5.827   5.242   5.836
 8166TIP3    H124455   5.887   5.185   5.788
 8166TIP3    H224456   5.883   5.290   5.898
 8167TIP3   OH224457   6.220   5.856   0.472
 8167TIP3    H124458   6.149   5.915   0.497
 8167TIP3    H224459   6.193   5.771   0.508
 8168TIP3   OH224460   0.629   3.140   6.343
 8168TIP3    H124461   0.595   3.183   6.265
 8168TIP3    H224462   0.651   3.052   6.313
 8169TIP3   OH224463   3.024   7.313   3.525
 8169TIP3    H124464   3.064   7.346   3.606
 8169TIP3    H224465   3.099   7.294   3.468
 8170TIP3   OH224466   2.026   2.745   1.054
 8170TIP3    H124467   2.000   2.662   1.012
 8170TIP3    H224468   2.109   2.767   1.012
 8171TIP3   OH224469   7.354   4.153   2.239
 8171TIP3    H124470   7.341   4.072   2.288
 8171TIP3    H224471   7.419   4.202   2.289
 8172TIP3   OH224472   2.569   4.695   5.212
 8172TIP3    H124473   2.568   4.708   5.117
 8172TIP3    H224474   2.613   4.610   5.224
 8173TIP3   OH224475   7.915   6.516   6.382
 8173TIP3    H124476   7.916   6.439   6.324
 8173TIP3    H224477   7.824   6.522   6.412
 8174TIP3   OH224478   7.021   2.484   1.923
 8174TIP3    H124479   6.941   2.458   1.969
 8174TIP3    H224480   7.086   2.420   1.950
 8175TIP3   OH224481   4.514   3.104   2.846
 8175TIP3    H124482   4.426   3.123   2.815
 8175TIP3    H224483   4.572   3.134   2.776
 8176TIP3   OH224484   7.507   4.634   4.589
 8176TIP3    H124485   7.549   4.559   4.547
 8176TIP3    H224486   7.490   4.695   4.517
 8177TIP3   OH224487   5.355   1.042   6.327
 8177TIP3    H124488   5.302   1.103   6.379
 8177TIP3    H224489   5.312   1.041   6.241
 8178TIP3   OH224490   3.122   2.247   1.032
 8178TIP3    H124491   3.033   2.270   1.059
 8178TIP3    H224492   3.129   2.153   1.049
 8179TIP3   OH224493   3.228   2.804   3.501
 8179TIP3    H124494   3.212   2.872   3.566
 8179TIP3    H224495   3.252   2.727   3.552
 8180TIP3   OH224496   6.219   2.789   0.421
 8180TIP3    H124497   6.188   2.699   0.407
 8180TIP3    H224498   6.264   2.812   0.340
 8181TIP3   OH224499   4.453   0.174   4.966
 8181TIP3    H124500   4.387   0.134   4.910
 8181TIP3    H224501   4.524   0.109   4.969
 8182TIP3   OH224502   0.831   4.844   5.101
 8182TIP3    H124503   0.873   4.925   5.132
 8182TIP3    H224504   0.806   4.798   5.182
 8183TIP3   OH224505   3.322   2.941   2.600
 8183TIP3    H124506   3.361   3.027   2.585
 8183TIP3    H224507   3.335   2.925   2.694
 8184TIP3   OH224508   1.054   4.653   5.199
 8184TIP3    H124509   0.959   4.660   5.190
 8184TIP3    H224510   1.068   4.572   5.249
 8185TIP3   OH224511   7.551   3.597   4.595
 8185TIP3    H124512   7.555   3.634   4.683
 8185TIP3    H224513   7.621   3.642   4.547
 8186TIP3   OH224514   5.021   5.283   1.657
 8186TIP3    H124515   5.030   5.289   1.562
 8186TIP3    H224516   5.041   5.192   1.677
 8187TIP3   OH224517   7.779   5.020   0.663
 8187TIP3    H124518   7.764   5.105   0.704
 8187TIP3    H224519   7.873   5.004   0.672
 8188TIP3   OH224520   1.226   5.994   5.782
 8188TIP3    H124521   1.189   6.076   5.814
 8188TIP3    H224522   1.269   6.017   5.700
 8189TIP3   OH224523   0.080   7.108   4.649
 8189TIP3    H124524   0.027   7.082   4.724
 8189TIP3    H224525   0.036   7.185   4.614
 8190TIP3   OH224526   1.816   3.955   4.583
 8190TIP3    H124527   1.816   3.960   4.679
 8190TIP3    H224528   1.849   4.040   4.555
 8191TIP3   OH224529   7.110   0.786   4.369
 8191TIP3    H124530   7.110   0.872   4.412
 8191TIP3    H224531   7.154   0.728   4.431
 8192TIP3   OH224532   6.825   6.762   4.785
 8192TIP3    H124533   6.911   6.736   4.819
 8192TIP3    H224534   6.788   6.681   4.750
 8193TIP3   OH224535   6.292   1.304   4.723
 8193TIP3    H124536   6.301   1.385   4.774
 8193TIP3    H224537   6.237   1.247   4.778
 8194TIP3   OH224538   5.081   4.030   6.050
 8194TIP3    H124539   5.040   3.984   5.977
 8194TIP3    H224540   5.067   4.122   6.032
 8195TIP3   OH224541   5.008   1.993   5.334
 8195TIP3    H124542   5.069   2.036   5.394
 8195TIP3    H224543   4.964   1.927   5.387
 8196TIP3   OH224544   6.219   0.820   1.943
 8196TIP3    H124545   6.126   0.822   1.920
 8196TIP3    H224546   6.228   0.744   2.000
 8197TIP3   OH224547   4.878   7.642   6.049
 8197TIP3    H124548   4.820   7.583   6.098
 8197TIP3    H224549   4.852   7.630   5.958
 8198TIP3   OH224550   1.214   7.079   3.219
 8198TIP3    H124551   1.140   7.110   3.167
 8198TIP3    H224552   1.183   7.080   3.309
 8199TIP3   OH224553   7.403   3.664   4.835
 8199TIP3    H124554   7.351   3.585   4.848
 8199TIP3    H224555   7.443   3.681   4.920
 8200TIP3   OH224556   5.504   5.988   1.826
 8200TIP3    H124557   5.415   6.021   1.841
 8200TIP3    H224558   5.492   5.894   1.809
 8201TIP3   OH224559   2.414   2.276   6.109
 8201TIP3    H124560   2.460   2.200   6.071
 8201TIP3    H224561   2.448   2.282   6.198
 8202TIP3   OH224562   5.831  -0.010   1.977
 8202TIP3    H124563   5.752  -0.035   2.025
 8202TIP3    H224564   5.877   0.050   2.035
 8203TIP3   OH224565   1.642   3.460   2.631
 8203TIP3    H124566   1.675   3.515   2.701
 8203TIP3    H224567   1.702   3.475   2.558
 8204TIP3   OH224568   5.298   5.093   3.389
 8204TIP3    H124569   5.358   5.154   3.347
 8204TIP3    H224570   5.225   5.148   3.419
 8205TIP3   OH224571   3.187   1.041   5.634
 8205TIP3    H124572   3.119   1.002   5.580
 8205TIP3    H224573   3.257   1.062   5.572
 8206TIP3   OH224574   5.062   7.532   3.112
 8206TIP3    H124575   5.157   7.526   3.101
 8206TIP3    H224576   5.042   7.624   3.094
 8207TIP3   OH224577   1.814   2.964   2.574
 8207TIP3    H124578   1.772   3.009   2.501
 8207TIP3    H224579   1.896   2.932   2.538
 8208TIP3   OH224580   5.128   4.589   2.609
 8208TIP3    H124581   5.213   4.563   2.644
 8208TIP3    H224582   5.149   4.646   2.535
 8209TIP3   OH224583   1.869   5.884   1.869
 8209TIP3    H124584   1.947   5.831   1.882
 8209TIP3    H224585   1.883   5.961   1.924
 8210TIP3   OH224586   3.681   1.369   5.535
 8210TIP3    H124587   3.729   1.423   5.473
 8210TIP3    H224588   3.607   1.335   5.485
 8211TIP3   OH224589   4.360   4.366   6.211
 8211TIP3    H124590   4.398   4.453   6.228
 8211TIP3    H224591   4.428   4.305   6.239
 8212TIP3   OH224592   8.133   0.635   5.363
 8212TIP3    H124593   8.046   0.637   5.324
 8212TIP3    H224594   8.118   0.615   5.455
 8213TIP3   OH224595   3.833   1.929   4.510
 8213TIP3    H124596   3.899   1.929   4.579
 8213TIP3    H224597   3.796   2.017   4.512
 8214TIP3   OH224598   4.040   7.356   0.178
 8214TIP3    H124599   4.088   7.278   0.151
 8214TIP3    H224600   3.959   7.322   0.215
 8215TIP3   OH224601   0.442   5.831   0.764
 8215TIP3    H124602   0.385   5.909   0.765
 8215TIP3    H224603   0.385   5.760   0.795
 8216TIP3   OH224604   2.198   0.747   5.935
 8216TIP3    H124605   2.205   0.829   5.984
 8216TIP3    H224606   2.125   0.761   5.875
 8217TIP3   OH224607   0.622   6.028   4.640
 8217TIP3    H124608   0.583   5.992   4.560
 8217TIP3    H224609   0.716   6.025   4.624
 8218TIP3   OH224610   5.186   4.339   3.978
 8218TIP3    H124611   5.246   4.303   4.043
 8218TIP3    H224612   5.197   4.282   3.901
 8219TIP3   OH224613   4.441   3.257   2.428
 8219TIP3    H124614   4.444   3.166   2.455
 8219TIP3    H224615   4.533   3.282   2.418
 8220TIP3   OH224616   2.120   5.026   3.128
 8220TIP3    H124617   2.140   4.943   3.171
 8220TIP3    H224618   2.071   5.002   3.050
 8221TIP3   OH224619   1.964   5.668   2.177
 8221TIP3    H124620   2.039   5.612   2.157
 8221TIP3    H224621   1.889   5.623   2.139
 8222TIP3   OH224622   7.525   7.470   6.115
 8222TIP3    H124623   7.618   7.454   6.134
 8222TIP3    H224624   7.484   7.384   6.126
 8223TIP3   OH224625   0.853   0.546   3.345
 8223TIP3    H124626   0.873   0.567   3.437
 8223TIP3    H224627   0.775   0.491   3.350
 8224TIP3   OH224628   2.068   0.160   0.266
 8224TIP3    H124629   2.125   0.092   0.231
 8224TIP3    H224630   1.997   0.113   0.310
 8225TIP3   OH224631   1.231   5.913   1.180
 8225TIP3    H124632   1.307   5.970   1.170
 8225TIP3    H224633   1.241   5.875   1.267
 8226TIP3   OH224634   0.519   1.060   4.500
 8226TIP3    H124635   0.507   1.091   4.590
 8226TIP3    H224636   0.585   1.118   4.463
 8227TIP3   OH224637   7.088   6.000   3.522
 8227TIP3    H124638   7.007   5.949   3.520
 8227TIP3    H224639   7.066   6.082   3.479
 8228TIP3   OH224640   1.734   1.121   0.990
 8228TIP3    H124641   1.657   1.104   1.044
 8228TIP3    H224642   1.772   1.202   1.025
 8229TIP3   OH224643   2.057   0.249   1.742
 8229TIP3    H124644   2.015   0.334   1.754
 8229TIP3    H224645   2.148   0.264   1.767
 8230TIP3   OH224646   6.050   4.931   0.741
 8230TIP3    H124647   6.065   4.950   0.648
 8230TIP3    H224648   5.973   4.874   0.742
 8231TIP3   OH224649   6.968   5.775   3.301
 8231TIP3    H124650   6.914   5.773   3.379
 8231TIP3    H224651   7.020   5.695   3.306
 8232TIP3   OH224652   4.656   6.781   1.934
 8232TIP3    H124653   4.678   6.872   1.912
 8232TIP3    H224654   4.709   6.729   1.874
 8233TIP3   OH224655   5.172   2.645   1.388
 8233TIP3    H124656   5.139   2.721   1.341
 8233TIP3    H224657   5.094   2.592   1.406
 8234TIP3   OH224658   6.055   4.731   6.223
 8234TIP3    H124659   6.064   4.807   6.281
 8234TIP3    H224660   6.007   4.765   6.147
 8235TIP3   OH224661   3.852   4.890   1.109
 8235TIP3    H124662   3.830   4.961   1.168
 8235TIP3    H224663   3.861   4.932   1.023
 8236TIP3   OH224664   5.179   1.212   5.556
 8236TIP3    H124665   5.164   1.123   5.588
 8236TIP3    H224666   5.245   1.202   5.488
 8237TIP3   OH224667   2.657   5.538   6.306
 8237TIP3    H124668   2.703   5.454   6.304
 8237TIP3    H224669   2.577   5.521   6.355
 8238TIP3   OH224670   6.223   6.715   3.964
 8238TIP3    H124671   6.149   6.749   4.015
 8238TIP3    H224672   6.190   6.712   3.874
 8239TIP3   OH224673   0.134   2.558   0.061
 8239TIP3    H124674   0.090   2.509   0.130
 8239TIP3    H224675   0.109   2.513  -0.020
 8240TIP3   OH224676   4.700   4.338   2.612
 8240TIP3    H124677   4.645   4.376   2.680
 8240TIP3    H224678   4.790   4.349   2.643
 8241TIP3   OH224679   3.903   6.741   0.619
 8241TIP3    H124680   3.993   6.769   0.604
 8241TIP3    H224681   3.869   6.720   0.532
 8242TIP3   OH224682   1.696   2.667   2.485
 8242TIP3    H124683   1.750   2.712   2.420
 8242TIP3    H224684   1.677   2.734   2.550
 8243TIP3   OH224685   2.957   6.826   2.443
 8243TIP3    H124686   2.930   6.738   2.469
 8243TIP3    H224687   2.875   6.875   2.437
 8244TIP3   OH224688   7.353   7.694   3.524
 8244TIP3    H124689   7.317   7.727   3.442
 8244TIP3    H224690   7.298   7.618   3.544
 8245TIP3   OH224691   7.872   0.138   5.834
 8245TIP3    H124692   7.945   0.155   5.774
 8245TIP3    H224693   7.794   0.147   5.780
 8246TIP3   OH224694   0.238   4.822   1.916
 8246TIP3    H124695   0.243   4.784   2.003
 8246TIP3    H224696   0.154   4.869   1.915
 8247TIP3   OH224697   3.071   2.325   1.305
 8247TIP3    H124698   3.009   2.357   1.239
 8247TIP3    H224699   3.044   2.235   1.323
 8248TIP3   OH224700   0.344   0.437   5.829
 8248TIP3    H124701   0.344   0.382   5.907
 8248TIP3    H224702   0.289   0.512   5.851
 8249TIP3   OH224703   3.244   6.169   3.982
 8249TIP3    H124704   3.168   6.173   4.040
 8249TIP3    H224705   3.206   6.160   3.895
 8250TIP3   OH224706   1.726   0.131   3.034
 8250TIP3    H124707   1.657   0.135   2.969
 8250TIP3    H224708   1.720   0.215   3.080
 8251TIP3   OH224709   1.448   6.485   4.602
 8251TIP3    H124710   1.404   6.537   4.670
 8251TIP3    H224711   1.541   6.497   4.620
 8252TIP3   OH224712   3.222   3.406   0.220
 8252TIP3    H124713   3.246   3.346   0.150
 8252TIP3    H224714   3.270   3.487   0.199
 8253TIP3   OH224715   1.167   0.971   6.709
 8253TIP3    H124716   1.158   1.027   6.632
 8253TIP3    H224717   1.261   0.954   6.715
 8254TIP3   OH224718   1.677   5.113   4.148
 8254TIP3    H124719   1.669   5.122   4.053
 8254TIP3    H224720   1.744   5.176   4.173
 8255TIP3   OH224721   3.894   7.144   2.308
 8255TIP3    H124722   3.932   7.189   2.232
 8255TIP3    H224723   3.970   7.116   2.359
 8256TIP3   OH224724   6.530   4.622   3.714
 8256TIP3    H124725   6.493   4.693   3.662
 8256TIP3    H224726   6.494   4.635   3.802
 8257TIP3   OH224727   3.773   3.728   1.652
 8257TIP3    H124728   3.766   3.801   1.590
 8257TIP3    H224729   3.819   3.660   1.604
 8258TIP3   OH224730   7.640   7.537   1.605
 8258TIP3    H124731   7.701   7.593   1.558
 8258TIP3    H224732   7.673   7.535   1.695
 8259TIP3   OH224733   2.779   1.730   4.547
 8259TIP3    H124734   2.786   1.812   4.498
 8259TIP3    H224735   2.783   1.756   4.639
 8260TIP3   OH224736   6.168   4.541   0.612
 8260TIP3    H124737   6.220   4.567   0.536
 8260TIP3    H224738   6.181   4.447   0.619
 8261TIP3   OH224739   2.539   4.213   3.166
 8261TIP3    H124740   2.444   4.215   3.174
 8261TIP3    H224741   2.568   4.299   3.196
 8262TIP3   OH224742   7.935   3.922   0.870
 8262TIP3    H124743   7.952   3.945   0.961
 8262TIP3    H224744   7.888   3.839   0.874
 8263TIP3   OH224745   0.251   0.202   3.443
 8263TIP3    H124746   0.167   0.185   3.485
 8263TIP3    H224747   0.275   0.120   3.400
 8264TIP3   OH224748   6.544   0.333   5.063
 8264TIP3    H124749   6.536   0.415   5.014
 8264TIP3    H224750   6.552   0.266   4.995
 8265TIP3   OH224751   1.078   0.210   2.133
 8265TIP3    H124752   1.096   0.183   2.223
 8265TIP3    H224753   1.131   0.288   2.120
 8266TIP3   OH224754   8.151   0.690   3.515
 8266TIP3    H124755   8.129   0.729   3.600
 8266TIP3    H224756   8.195   0.760   3.467
 8267TIP3   OH224757   4.839   2.652   1.576
 8267TIP3    H124758   4.917   2.701   1.601
 8267TIP3    H224759   4.868   2.594   1.505
 8268TIP3   OH224760   1.299   1.210   5.844
 8268TIP3    H124761   1.326   1.133   5.894
 8268TIP3    H224762   1.380   1.248   5.811
 8269TIP3   OH224763   0.768   3.963   4.972
 8269TIP3    H124764   0.850   3.926   4.939
 8269TIP3    H224765   0.753   4.040   4.917
 8270TIP3   OH224766   8.078   6.721   3.698
 8270TIP3    H124767   8.066   6.814   3.675
 8270TIP3    H224768   8.158   6.719   3.749
 8271TIP3   OH224769   0.656   5.820   1.642
 8271TIP3    H124770   0.642   5.753   1.709
 8271TIP3    H224771   0.571   5.829   1.600
 8272TIP3   OH224772   1.539   4.702   4.338
 8272TIP3    H124773   1.451   4.726   4.307
 8272TIP3    H224774   1.578   4.785   4.367
 8273TIP3   OH224775   6.277   7.414   5.510
 8273TIP3    H124776   6.372   7.424   5.510
 8273TIP3    H224777   6.250   7.439   5.599
 8274TIP3   OH224778   2.206   0.134   5.194
 8274TIP3    H124779   2.271   0.192   5.155
 8274TIP3    H224780   2.218   0.145   5.288
 8275TIP3   OH224781   0.024   1.919   4.792
 8275TIP3    H124782   0.053   1.872   4.714
 8275TIP3    H224783  -0.008   2.003   4.760
 8276TIP3   OH224784   3.862   3.055   4.325
 8276TIP3    H124785   3.939   3.076   4.271
 8276TIP3    H224786   3.888   2.979   4.376
 8277TIP3   OH224787   4.920   1.562   6.086
 8277TIP3    H124788   4.954   1.552   5.997
 8277TIP3    H224789   4.832   1.599   6.074
 8278TIP3   OH224790   2.941   5.580   2.101
 8278TIP3    H124791   2.896   5.522   2.040
 8278TIP3    H224792   2.873   5.611   2.161
 8279TIP3   OH224793   7.877   6.648   2.462
 8279TIP3    H124794   7.958   6.681   2.501
 8279TIP3    H224795   7.895   6.556   2.443
 8280TIP3   OH224796   1.884   4.487   3.397
 8280TIP3    H124797   1.841   4.556   3.448
 8280TIP3    H224798   1.874   4.515   3.306
 8281TIP3   OH224799   1.785   0.293   2.715
 8281TIP3    H124800   1.861   0.320   2.766
 8281TIP3    H224801   1.747   0.220   2.764
 8282TIP3   OH224802   3.335   4.946   3.488
 8282TIP3    H124803   3.317   4.856   3.517
 8282TIP3    H224804   3.263   4.967   3.429
 8283TIP3   OH224805   1.008   0.069   2.442
 8283TIP3    H124806   0.937   0.132   2.446
 8283TIP3    H224807   1.004   0.034   2.353
 8284TIP3   OH224808   6.479   1.689   5.129
 8284TIP3    H124809   6.493   1.700   5.222
 8284TIP3    H224810   6.455   1.776   5.097
 8285TIP3   OH224811   4.033   6.495   5.010
 8285TIP3    H124812   3.955   6.525   4.963
 8285TIP3    H224813   4.000   6.427   5.068
 8286TIP3   OH224814   0.376   0.965   1.248
 8286TIP3    H124815   0.286   0.934   1.252
 8286TIP3    H224816   0.373   1.054   1.284
 8287TIP3   OH224817   3.053   4.683   1.601
 8287TIP3    H124818   3.050   4.640   1.515
 8287TIP3    H224819   2.961   4.689   1.627
 8288TIP3   OH224820   6.915   6.301   4.688
 8288TIP3    H124821   6.974   6.293   4.763
 8288TIP3    H224822   6.972   6.329   4.616
 8289TIP3   OH224823   1.955   1.436   2.405
 8289TIP3    H124824   1.955   1.349   2.445
 8289TIP3    H224825   1.879   1.479   2.442
 8290TIP3   OH224826   3.743   5.010   3.558
 8290TIP3    H124827   3.719   5.086   3.611
 8290TIP3    H224828   3.830   5.031   3.525
 8291TIP3   OH224829   2.881   6.232   5.960
 8291TIP3    H124830   2.927   6.170   6.017
 8291TIP3    H224831   2.852   6.180   5.885
 8292TIP3   OH224832   7.096   2.309   2.452
 8292TIP3    H124833   7.078   2.216   2.444
 8292TIP3    H224834   7.012   2.352   2.433
 8293TIP3   OH224835   6.982   6.111   2.768
 8293TIP3    H124836   6.888   6.128   2.755
 8293TIP3    H224837   7.004   6.046   2.702
 8294TIP3   OH224838   6.062   5.452   6.361
 8294TIP3    H124839   6.115   5.386   6.404
 8294TIP3    H224840   6.104   5.535   6.383
 8295TIP3   OH224841   3.048   6.030   6.695
 8295TIP3    H124842   2.991   5.975   6.642
 8295TIP3    H224843   3.034   6.000   6.785
 8296TIP3   OH224844   4.699   0.026   5.277
 8296TIP3    H124845   4.697  -0.018   5.192
 8296TIP3    H224846   4.784   0.069   5.281
 8297TIP3   OH224847   7.118   5.917   4.183
 8297TIP3    H124848   7.142   5.982   4.117
 8297TIP3    H224849   7.023   5.911   4.178
 8298TIP3   OH224850   2.154   0.847   6.313
 8298TIP3    H124851   2.210   0.923   6.295
 8298TIP3    H224852   2.067   0.874   6.284
 8299TIP3   OH224853   4.679   1.970   6.100
 8299TIP3    H124854   4.641   1.961   6.013
 8299TIP3    H224855   4.693   2.065   6.110
 8300TIP3   OH224856   7.623   0.260   5.273
 8300TIP3    H124857   7.699   0.202   5.283
 8300TIP3    H224858   7.589   0.240   5.186
 8301TIP3   OH224859   7.837   3.748   6.735
 8301TIP3    H124860   7.830   3.680   6.669
 8301TIP3    H224861   7.896   3.712   6.801
 8302TIP3   OH224862   2.663   6.275   3.211
 8302TIP3    H124863   2.585   6.320   3.179
 8302TIP3    H224864   2.721   6.270   3.135
 8303TIP3   OH224865   5.556   1.625   1.843
 8303TIP3    H124866   5.522   1.677   1.771
 8303TIP3    H224867   5.621   1.681   1.885
 8304TIP3   OH224868   0.117   1.121   5.789
 8304TIP3    H124869   0.099   1.214   5.800
 8304TIP3    H224870   0.035   1.077   5.813
 8305TIP3   OH224871   5.426   1.803   5.698
 8305TIP3    H124872   5.474   1.787   5.617
 8305TIP3    H224873   5.494   1.835   5.759
 8306TIP3   OH224874   5.678   5.892   2.471
 8306TIP3    H124875   5.648   5.983   2.471
 8306TIP3    H224876   5.610   5.844   2.424
 8307TIP3   OH224877   3.788   2.891   5.039
 8307TIP3    H124878   3.764   2.809   5.081
 8307TIP3    H224879   3.772   2.876   4.946
 8308TIP3   OH224880   6.508   1.235   4.209
 8308TIP3    H124881   6.419   1.254   4.178
 8308TIP3    H224882   6.502   1.244   4.304
 8309TIP3   OH224883   4.043   4.594   6.766
 8309TIP3    H124884   4.031   4.665   6.702
 8309TIP3    H224885   4.042   4.514   6.714
 8310TIP3   OH224886   6.266   2.823   1.603
 8310TIP3    H124887   6.266   2.914   1.574
 8310TIP3    H224888   6.359   2.798   1.603
 8311TIP3   OH224889   7.436   6.186   4.299
 8311TIP3    H124890   7.375   6.255   4.325
 8311TIP3    H224891   7.517   6.232   4.276
 8312TIP3   OH224892   3.935   6.466   2.246
 8312TIP3    H124893   3.932   6.418   2.329
 8312TIP3    H224894   4.018   6.515   2.250
 8313TIP3   OH224895   3.546   5.546   1.589
 8313TIP3    H124896   3.482   5.610   1.620
 8313TIP3    H224897   3.622   5.599   1.564
 8314TIP3   OH224898   2.843   0.520   5.151
 8314TIP3    H124899   2.776   0.464   5.111
 8314TIP3    H224900   2.811   0.609   5.137
 8315TIP3   OH224901   4.800   7.300   2.217
 8315TIP3    H124902   4.876   7.312   2.274
 8315TIP3    H224903   4.813   7.363   2.146
 8316TIP3   OH224904   8.015   1.956   3.200
 8316TIP3    H124905   7.926   1.968   3.166
 8316TIP3    H224906   8.038   1.867   3.176
 8317TIP3   OH224907   0.589   6.263   0.745
 8317TIP3    H124908   0.520   6.230   0.688
 8317TIP3    H224909   0.646   6.188   0.762
 8318TIP3   OH224910   3.911   1.181   1.088
 8318TIP3    H124911   3.976   1.121   1.125
 8318TIP3    H224912   3.833   1.167   1.142
 8319TIP3   OH224913   1.454   7.194   3.097
 8319TIP3    H124914   1.415   7.136   3.162
 8319TIP3    H224915   1.441   7.282   3.132
 8320TIP3   OH224916   1.440   3.228   0.038
 8320TIP3    H124917   1.519   3.246   0.088
 8320TIP3    H224918   1.405   3.147   0.077
 8321TIP3   OH224919   0.162   7.353   2.453
 8321TIP3    H124920   0.101   7.361   2.527
 8321TIP3    H224921   0.121   7.291   2.394
 8322TIP3   OH224922   1.885   2.751   0.531
 8322TIP3    H124923   1.837   2.823   0.571
 8322TIP3    H224924   1.910   2.784   0.444
 8323TIP3   OH224925   4.513   1.956   2.177
 8323TIP3    H124926   4.484   2.037   2.218
 8323TIP3    H224927   4.608   1.957   2.188
 8324TIP3   OH224928   5.790   1.260   5.416
 8324TIP3    H124929   5.783   1.199   5.489
 8324TIP3    H224930   5.882   1.285   5.414
 8325TIP3   OH224931   4.946   1.705   0.037
 8325TIP3    H124932   4.934   1.705   0.132
 8325TIP3    H224933   4.942   1.612   0.012
 8326TIP3   OH224934   6.605   0.403   0.070
 8326TIP3    H124935   6.540   0.471   0.089
 8326TIP3    H224936   6.683   0.430   0.119
 8327TIP3   OH224937   5.723   6.480   0.063
 8327TIP3    H124938   5.699   6.477  -0.030
 8327TIP3    H224939   5.694   6.567   0.092
 8328TIP3   OH224940   7.929   3.848   5.836
 8328TIP3    H124941   7.996   3.912   5.862
 8328TIP3    H224942   7.917   3.863   5.742
 8329TIP3   OH224943   2.570   5.128   4.003
 8329TIP3    H124944   2.566   5.213   3.960
 8329TIP3    H224945   2.508   5.135   4.075
 8330TIP3   OH224946   4.758   6.717   1.382
 8330TIP3    H124947   4.728   6.627   1.365
 8330TIP3    H224948   4.772   6.754   1.295
 8331TIP3   OH224949   5.662   5.574   1.456
 8331TIP3    H124950   5.619   5.658   1.439
 8331TIP3    H224951   5.591   5.515   1.482
 8332TIP3   OH224952   1.237   4.065   0.503
 8332TIP3    H124953   1.257   4.032   0.590
 8332TIP3    H224954   1.195   4.150   0.519
 8333TIP3   OH224955   8.031   5.645   5.525
 8333TIP3    H124956   8.011   5.700   5.448
 8333TIP3    H224957   8.033   5.556   5.490
 8334TIP3   OH224958   0.901   1.248   3.977
 8334TIP3    H124959   0.928   1.247   4.069
 8334TIP3    H224960   0.849   1.169   3.967
 8335TIP3   OH224961   7.080   2.902   6.728
 8335TIP3    H124962   7.069   2.810   6.704
 8335TIP3    H224963   7.172   2.921   6.708
 8336TIP3   OH224964   5.741   0.947   4.565
 8336TIP3    H124965   5.748   0.888   4.490
 8336TIP3    H224966   5.648   0.970   4.570
 8337TIP3   OH224967   0.444   0.166   1.769
 8337TIP3    H124968   0.487   0.243   1.733
 8337TIP3    H224969   0.483   0.155   1.856
 8338TIP3   OH224970   5.702   6.825   0.743
 8338TIP3    H124971   5.645   6.901   0.728
 8338TIP3    H224972   5.773   6.858   0.797
 8339TIP3   OH224973   5.500   6.696   0.621
 8339TIP3    H124974   5.531   6.692   0.530
 8339TIP3    H224975   5.576   6.728   0.670
 8340TIP3   OH224976   3.376   6.785   0.243
 8340TIP3    H124977   3.325   6.864   0.263
 8340TIP3    H224978   3.399   6.749   0.328
 8341TIP3   OH224979   1.675   2.368   1.391
 8341TIP3    H124980   1.624   2.291   1.366
 8341TIP3    H224981   1.686   2.417   1.309
 8342TIP3   OH224982   0.268   0.560   6.284
 8342TIP3    H124983   0.354   0.604   6.288
 8342TIP3    H224984   0.249   0.554   6.190
 8343TIP3   OH224985   5.683   5.911   1.066
 8343TIP3    H124986   5.741   5.886   0.994
 8343TIP3    H224987   5.685   6.007   1.065
 8344TIP3   OH224988   1.705   4.245   0.292
 8344TIP3    H124989   1.678   4.196   0.214
 8344TIP3    H224990   1.627   4.249   0.347
 8345TIP3   OH224991   5.958   3.016   1.120
 8345TIP3    H124992   6.016   2.988   1.191
 8345TIP3    H224993   5.870   2.995   1.152
 8346TIP3   OH224994   3.008   1.038   2.115
 8346TIP3    H124995   2.988   1.089   2.036
 8346TIP3    H224996   3.071   0.972   2.086
 8347TIP3   OH224997   4.458   0.805   0.879
 8347TIP3    H124998   4.400   0.870   0.841
 8347TIP3    H224999   4.480   0.839   0.966
 8348TIP3   OH225000   4.646   2.875   6.286
 8348TIP3    H125001   4.588   2.800   6.297
 8348TIP3    H225002   4.704   2.871   6.362
 8349TIP3   OH225003   7.700   3.779   1.999
 8349TIP3    H125004   7.747   3.854   1.962
 8349TIP3    H225005   7.769   3.717   2.022
 8350TIP3   OH225006   6.486   7.024   0.959
 8350TIP3    H125007   6.435   7.044   0.880
 8350TIP3    H225008   6.436   7.064   1.030
 8351TIP3   OH225009   8.158   6.994   3.696
 8351TIP3    H125010   8.190   6.953   3.616
 8351TIP3    H225011   8.237   7.009   3.748
 8352TIP3   OH225012   0.259   7.238   1.746
 8352TIP3    H125013   0.223   7.212   1.831
 8352TIP3    H225014   0.316   7.165   1.721
 8353TIP3   OH225015   4.087   4.386   3.286
 8353TIP3    H125016   4.065   4.302   3.245
 8353TIP3    H225017   4.125   4.437   3.215
 8354TIP3   OH225018   1.536   0.935   2.464
 8354TIP3    H125019   1.572   0.911   2.549
 8354TIP3    H225020   1.496   1.021   2.478
 8355TIP3   OH225021   0.809   0.736   5.061
 8355TIP3    H125022   0.794   0.818   5.108
 8355TIP3    H225023   0.842   0.762   4.975
 8356TIP3   OH225024   3.859   6.001   2.192
 8356TIP3    H125025   3.838   6.014   2.284
 8356TIP3    H225026   3.917   6.074   2.170
 8357TIP3   OH225027   1.030   6.766   2.457
 8357TIP3    H125028   0.997   6.781   2.369
 8357TIP3    H225029   0.985   6.830   2.512
 8358TIP3   OH225030   0.631   4.120   1.024
 8358TIP3    H125031   0.564   4.181   0.992
 8358TIP3    H225032   0.694   4.175   1.071
 8359TIP3   OH225033   0.845   6.808   1.852
 8359TIP3    H125034   0.780   6.740   1.870
 8359TIP3    H225035   0.922   6.759   1.822
 8360TIP3   OH225036   4.673   4.498   0.308
 8360TIP3    H125037   4.580   4.491   0.331
 8360TIP3    H225038   4.693   4.416   0.264
 8361TIP3   OH225039   6.275   1.449   4.286
 8361TIP3    H125040   6.302   1.523   4.232
 8361TIP3    H225041   6.187   1.428   4.256
 8362TIP3   OH225042   2.025   5.797   4.242
 8362TIP3    H125043   1.969   5.868   4.272
 8362TIP3    H225044   2.031   5.738   4.318
 8363TIP3   OH225045   1.291   2.212   0.550
 8363TIP3    H125046   1.386   2.218   0.556
 8363TIP3    H225047   1.270   2.132   0.599
 8364TIP3   OH225048   8.283   4.794   2.086
 8364TIP3    H125049   8.218   4.859   2.113
 8364TIP3    H225050   8.292   4.807   1.992
 8365TIP3   OH225051   1.920   4.977   5.472
 8365TIP3    H125052   1.827   4.995   5.475
 8365TIP3    H225053   1.959   5.032   5.540
 8366TIP3   OH225054   7.497   5.874   6.082
 8366TIP3    H125055   7.407   5.902   6.063
 8366TIP3    H225056   7.537   5.863   5.996
 8367TIP3   OH225057   5.883   4.749   5.410
 8367TIP3    H125058   5.799   4.793   5.421
 8367TIP3    H225059   5.861   4.664   5.372
 8368TIP3   OH225060   6.495   1.145   6.763
 8368TIP3    H125061   6.480   1.227   6.716
 8368TIP3    H225062   6.528   1.084   6.697
 8369TIP3   OH225063   0.192   1.720   3.233
 8369TIP3    H125064   0.204   1.809   3.267
 8369TIP3    H225065   0.276   1.700   3.190
 8370TIP3   OH225066   0.093   5.400   2.841
 8370TIP3    H125067   0.089   5.418   2.935
 8370TIP3    H225068   0.021   5.339   2.825
 8371TIP3   OH225069   5.578   3.647   4.281
 8371TIP3    H125070   5.544   3.558   4.293
 8371TIP3    H225071   5.531   3.681   4.205
 8372TIP3   OH225072   2.249   4.768   6.690
 8372TIP3    H125073   2.219   4.710   6.760
 8372TIP3    H225074   2.201   4.738   6.612
 8373TIP3   OH225075   4.382   7.263   1.731
 8373TIP3    H125076   4.298   7.308   1.732
 8373TIP3    H225077   4.371   7.191   1.793
 8374TIP3   OH225078   4.174   0.538   3.574
 8374TIP3    H125079   4.089   0.499   3.595
 8374TIP3    H225080   4.170   0.626   3.612
 8375TIP3   OH225081   0.403   4.228   2.769
 8375TIP3    H125082   0.480   4.244   2.714
 8375TIP3    H225083   0.368   4.315   2.788
 8376TIP3   OH225084   7.659   2.338   6.709
 8376TIP3    H125085   7.706   2.412   6.746
 8376TIP3    H225086   7.669   2.348   6.615
 8377TIP3   OH225087   0.566   4.782   0.500
 8377TIP3    H125088   0.524   4.861   0.534
 8377TIP3    H225089   0.521   4.710   0.545
 8378TIP3   OH225090   4.539   0.842   6.040
 8378TIP3    H125091   4.451   0.877   6.027
 8378TIP3    H225092   4.594   0.920   6.051
 8379TIP3   OH225093   5.092   5.264   3.004
 8379TIP3    H125094   5.003   5.227   3.000
 8379TIP3    H225095   5.079   5.352   3.039
 8380TIP3   OH225096   6.488   7.300   0.464
 8380TIP3    H125097   6.394   7.295   0.450
 8380TIP3    H225098   6.498   7.330   0.554
 8381TIP3   OH225099   6.518   7.766   0.140
 8381TIP3    H125100   6.535   7.690   0.084
 8381TIP3    H225101   6.598   7.776   0.192
 8382TIP3   OH225102   3.153   3.452   6.151
 8382TIP3    H125103   3.193   3.386   6.208
 8382TIP3    H225104   3.079   3.408   6.111
 8383TIP3   OH225105   3.652   4.474   2.811
 8383TIP3    H125106   3.639   4.399   2.868
 8383TIP3    H225107   3.701   4.440   2.736
 8384TIP3   OH225108   4.478   6.676   4.168
 8384TIP3    H125109   4.420   6.648   4.240
 8384TIP3    H225110   4.554   6.617   4.175
 8385TIP3   OH225111   3.042   5.377   5.180
 8385TIP3    H125112   3.042   5.396   5.274
 8385TIP3    H225113   2.972   5.312   5.169
 8386TIP3   OH225114   1.031   7.419   0.927
 8386TIP3    H125115   1.094   7.360   0.887
 8386TIP3    H225116   1.025   7.493   0.867
 8387TIP3   OH225117   1.732   6.960   6.003
 8387TIP3    H125118   1.644   6.965   6.041
 8387TIP3    H225119   1.790   6.960   6.079
 8388TIP3   OH225120   1.457   6.073   1.117
 8388TIP3    H125121   1.548   6.072   1.085
 8388TIP3    H225122   1.442   6.164   1.142
 8389TIP3   OH225123   6.378   4.846   2.637
 8389TIP3    H125124   6.330   4.785   2.581
 8389TIP3    H225125   6.311   4.909   2.666
 8390TIP3   OH225126   5.459   2.104   0.586
 8390TIP3    H125127   5.368   2.127   0.605
 8390TIP3    H225128   5.506   2.187   0.594
 8391TIP3   OH225129   7.007   5.099   2.956
 8391TIP3    H125130   7.020   5.089   2.862
 8391TIP3    H225131   7.068   5.037   2.996
 8392TIP3   OH225132   3.892   3.621   0.233
 8392TIP3    H125133   3.801   3.602   0.255
 8392TIP3    H225134   3.891   3.712   0.204
 8393TIP3   OH225135   4.739   1.046   6.107
 8393TIP3    H125136   4.718   1.109   6.039
 8393TIP3    H225137   4.703   1.084   6.187
 8394TIP3   OH225138   5.056   0.613   5.097
 8394TIP3    H125139   5.152   0.613   5.103
 8394TIP3    H225140   5.027   0.563   5.173
 8395TIP3   OH225141   5.778   3.256   3.731
 8395TIP3    H125142   5.711   3.271   3.798
 8395TIP3    H225143   5.747   3.181   3.682
 8396TIP3   OH225144   1.652   0.944   6.263
 8396TIP3    H125145   1.561   0.920   6.282
 8396TIP3    H225146   1.690   0.961   6.349
 8397TIP3   OH225147   2.922   0.406   2.224
 8397TIP3    H125148   2.841   0.379   2.181
 8397TIP3    H225149   2.951   0.329   2.273
 8398TIP3   OH225150   3.195   5.778   3.308
 8398TIP3    H125151   3.207   5.693   3.351
 8398TIP3    H225152   3.169   5.837   3.378
 8399TIP3   OH225153   5.335   3.151   1.190
 8399TIP3    H125154   5.296   3.210   1.126
 8399TIP3    H225155   5.281   3.072   1.186
 8400TIP3   OH225156   5.738   6.180   5.823
 8400TIP3    H125157   5.699   6.264   5.846
 8400TIP3    H225158   5.714   6.122   5.896
 8401TIP3   OH225159   7.285   6.515   6.224
 8401TIP3    H125160   7.316   6.457   6.293
 8401TIP3    H225161   7.322   6.479   6.143
 8402TIP3   OH225162   2.915   0.098   1.594
 8402TIP3    H125163   2.929   0.173   1.535
 8402TIP3    H225164   2.986   0.106   1.658
 8403TIP3   OH225165   2.655   0.576   1.585
 8403TIP3    H125166   2.699   0.657   1.557
 8403TIP3    H225167   2.565   0.602   1.603
 8404TIP3   OH225168   6.623   1.269   5.990
 8404TIP3    H125169   6.562   1.197   5.975
 8404TIP3    H225170   6.665   1.283   5.905
 8405TIP3   OH225171   5.782   2.384   5.068
 8405TIP3    H125172   5.810   2.330   5.142
 8405TIP3    H225173   5.795   2.328   4.992
 8406TIP3   OH225174   5.013   1.199   2.140
 8406TIP3    H125175   5.009   1.295   2.135
 8406TIP3    H225176   4.923   1.171   2.125
 8407TIP3   OH225177   1.462   5.632   5.864
 8407TIP3    H125178   1.482   5.552   5.912
 8407TIP3    H225179   1.546   5.660   5.828
 8408TIP3   OH225180   3.278   5.692   0.078
 8408TIP3    H125181   3.309   5.696   0.169
 8408TIP3    H225182   3.283   5.783   0.047
 8409TIP3   OH225183   8.204   7.781   4.136
 8409TIP3    H125184   8.228   7.714   4.072
 8409TIP3    H225185   8.203   7.735   4.220
 8410TIP3   OH225186   2.580   6.679   1.719
 8410TIP3    H125187   2.610   6.770   1.724
 8410TIP3    H225188   2.485   6.685   1.725
 8411TIP3   OH225189   0.667   2.647   3.724
 8411TIP3    H125190   0.603   2.660   3.654
 8411TIP3    H225191   0.658   2.725   3.779
 8412TIP3   OH225192   0.234   4.155   1.890
 8412TIP3    H125193   0.260   4.148   1.799
 8412TIP3    H225194   0.244   4.067   1.925
 8413TIP3   OH225195   1.282   7.497   2.053
 8413TIP3    H125196   1.267   7.412   2.095
 8413TIP3    H225197   1.216   7.502   1.984
 8414TIP3   OH225198   6.498   3.243   4.965
 8414TIP3    H125199   6.554   3.275   5.036
 8414TIP3    H225200   6.427   3.198   5.009
 8415TIP3   OH225201   3.520   3.200   2.957
 8415TIP3    H125202   3.558   3.174   2.874
 8415TIP3    H225203   3.498   3.293   2.945
 8416TIP3   OH225204   7.365   7.113   2.997
 8416TIP3    H125205   7.276   7.077   3.000
 8416TIP3    H225206   7.422   7.036   3.006
 8417TIP3   OH225207   6.530   7.713   3.286
 8417TIP3    H125208   6.525   7.777   3.356
 8417TIP3    H225209   6.511   7.762   3.206
 8418TIP3   OH225210   2.593   4.174   6.464
 8418TIP3    H125211   2.548   4.170   6.380
 8418TIP3    H225212   2.598   4.084   6.494
 8419TIP3   OH225213   2.093   4.194   0.971
 8419TIP3    H125214   2.173   4.162   1.012
 8419TIP3    H225215   2.123   4.251   0.900
 8420TIP3   OH225216   0.756   0.938   1.335
 8420TIP3    H125217   0.756   0.846   1.311
 8420TIP3    H225218   0.782   0.940   1.427
 8421TIP3   OH225219   3.662   0.180   2.951
 8421TIP3    H125220   3.692   0.194   3.041
 8421TIP3    H225221   3.622   0.093   2.952
 8422TIP3   OH225222   6.326   3.945   4.336
 8422TIP3    H125223   6.344   4.013   4.271
 8422TIP3    H225224   6.361   3.980   4.417
 8423TIP3   OH225225   2.647   1.618   4.275
 8423TIP3    H125226   2.587   1.678   4.318
 8423TIP3    H225227   2.659   1.546   4.337
 8424TIP3   OH225228   0.790   7.401   3.818
 8424TIP3    H125229   0.830   7.399   3.904
 8424TIP3    H225230   0.766   7.493   3.804
 8425TIP3   OH225231   1.042   4.799   2.393
 8425TIP3    H125232   1.127   4.760   2.369
 8425TIP3    H225233   0.989   4.793   2.314
 8426TIP3   OH225234   0.679   7.775   1.847
 8426TIP3    H125235   0.653   7.685   1.824
 8426TIP3    H225236   0.663   7.825   1.767
 8427TIP3   OH225237   4.347   6.276   2.542
 8427TIP3    H125238   4.423   6.285   2.600
 8427TIP3    H225239   4.283   6.227   2.593
 8428TIP3   OH225240   5.508   4.532   6.490
 8428TIP3    H125241   5.427   4.482   6.480
 8428TIP3    H225242   5.574   4.466   6.509
 8429TIP3   OH225243   5.437   7.360   2.015
 8429TIP3    H125244   5.525   7.340   2.049
 8429TIP3    H225245   5.417   7.447   2.049
 8430TIP3   OH225246   8.217   5.100   4.998
 8430TIP3    H125247   8.150   5.166   4.978
 8430TIP3    H225248   8.254   5.077   4.913
 8431TIP3   OH225249   6.171   4.488   6.293
 8431TIP3    H125250   6.146   4.400   6.267
 8431TIP3    H225251   6.113   4.545   6.242
 8432TIP3   OH225252   2.928   0.501   6.295
 8432TIP3    H125253   2.942   0.591   6.325
 8432TIP3    H225254   2.836   0.483   6.314
 8433TIP3   OH225255   5.396   5.876   2.130
 8433TIP3    H125256   5.396   5.833   2.045
 8433TIP3    H225257   5.387   5.969   2.110
 8434TIP3   OH225258   6.911   7.211   4.301
 8434TIP3    H125259   6.848   7.283   4.297
 8434TIP3    H225260   6.867   7.139   4.255
 8435TIP3   OH225261   6.985   2.883   2.199
 8435TIP3    H125262   6.891   2.880   2.183
 8435TIP3    H225263   7.012   2.791   2.199
 8436TIP3   OH225264   5.411   1.723   4.515
 8436TIP3    H125265   5.404   1.673   4.433
 8436TIP3    H225266   5.342   1.789   4.508
 8437TIP3   OH225267   6.436   6.849   3.141
 8437TIP3    H125268   6.447   6.944   3.143
 8437TIP3    H225269   6.520   6.816   3.109
 8438TIP3   OH225270   1.243   7.549   5.510
 8438TIP3    H125271   1.184   7.520   5.440
 8438TIP3    H225272   1.192   7.538   5.590
 8439TIP3   OH225273   2.299   3.459   3.786
 8439TIP3    H125274   2.323   3.397   3.854
 8439TIP3    H225275   2.382   3.489   3.750
 8440TIP3   OH225276   5.535   5.910   5.660
 8440TIP3    H125277   5.553   5.824   5.623
 8440TIP3    H225278   5.621   5.952   5.667
 8441TIP3   OH225279   0.124   3.385   1.794
 8441TIP3    H125280   0.169   3.344   1.868
 8441TIP3    H225281   0.039   3.411   1.830
 8442TIP3   OH225282   8.206   6.445   0.401
 8442TIP3    H125283   8.258   6.451   0.320
 8442TIP3    H225284   8.121   6.411   0.373
 8443TIP3   OH225285   3.514   0.140   0.865
 8443TIP3    H125286   3.598   0.095   0.873
 8443TIP3    H225287   3.480   0.144   0.955
 8444TIP3   OH225288   6.986   7.367   2.049
 8444TIP3    H125289   7.006   7.310   2.124
 8444TIP3    H225290   7.069   7.411   2.030
 8445TIP3   OH225291   1.498   5.062   4.770
 8445TIP3    H125292   1.408   5.093   4.758
 8445TIP3    H225293   1.552   5.131   4.732
 8446TIP3   OH225294   5.445   4.276   6.166
 8446TIP3    H125295   5.441   4.181   6.177
 8446TIP3    H225296   5.470   4.309   6.252
 8447TIP3   OH225297   2.528   1.864   4.365
 8447TIP3    H125298   2.500   1.937   4.419
 8447TIP3    H225299   2.624   1.865   4.371
 8448TIP3   OH225300   7.988   0.048   1.410
 8448TIP3    H125301   7.970   0.112   1.480
 8448TIP3    H225302   7.930   0.074   1.339
 8449TIP3   OH225303   0.153   2.177   1.777
 8449TIP3    H125304   0.101   2.237   1.831
 8449TIP3    H225305   0.243   2.193   1.805
 8450TIP3   OH225306   6.673   6.490   1.892
 8450TIP3    H125307   6.756   6.509   1.936
 8450TIP3    H225308   6.624   6.439   1.956
 8451TIP3   OH225309   4.520   5.841   6.609
 8451TIP3    H125310   4.544   5.749   6.616
 8451TIP3    H225311   4.449   5.853   6.672
 8452TIP3   OH225312   1.095   3.292   2.491
 8452TIP3    H125313   1.012   3.250   2.467
 8452TIP3    H225314   1.071   3.352   2.561
 8453TIP3   OH225315   0.791   4.300   4.241
 8453TIP3    H125316   0.755   4.257   4.163
 8453TIP3    H225317   0.863   4.354   4.207
 8454TIP3   OH225318   3.847   5.731   2.174
 8454TIP3    H125319   3.847   5.827   2.172
 8454TIP3    H225320   3.776   5.706   2.115
 8455TIP3   OH225321   2.193   1.873   1.876
 8455TIP3    H125322   2.222   1.816   1.805
 8455TIP3    H225323   2.255   1.856   1.947
 8456TIP3   OH225324   7.717   2.262   2.177
 8456TIP3    H125325   7.622   2.253   2.179
 8456TIP3    H225326   7.734   2.320   2.102
 8457TIP3   OH225327   6.536   3.949   2.150
 8457TIP3    H125328   6.624   3.911   2.159
 8457TIP3    H225329   6.521   3.949   2.055
 8458TIP3   OH225330   1.123   4.639   6.801
 8458TIP3    H125331   1.040   4.605   6.833
 8458TIP3    H225332   1.137   4.594   6.718
 8459TIP3   OH225333   5.110   4.771   6.608
 8459TIP3    H125334   5.125   4.789   6.701
 8459TIP3    H225335   5.082   4.855   6.572
 8460TIP3   OH225336   7.053   1.315   2.343
 8460TIP3    H125337   7.014   1.385   2.395
 8460TIP3    H225338   6.995   1.240   2.358
 8461TIP3   OH225339   3.720   0.978   6.575
 8461TIP3    H125340   3.700   0.908   6.638
 8461TIP3    H225341   3.636   0.998   6.533
 8462TIP3   OH225342   2.623   3.009   0.562
 8462TIP3    H125343   2.617   3.047   0.475
 8462TIP3    H225344   2.713   2.977   0.569
 8463TIP3   OH225345   3.908   5.365   2.239
 8463TIP3    H125346   3.892   5.457   2.260
 8463TIP3    H225347   3.850   5.347   2.165
 8464TIP3   OH225348   1.301   1.837   6.387
 8464TIP3    H125349   1.264   1.776   6.323
 8464TIP3    H225350   1.379   1.873   6.344
 8465TIP3   OH225351   0.501   2.880   0.212
 8465TIP3    H125352   0.511   2.876   0.307
 8465TIP3    H225353   0.415   2.839   0.195
 8466TIP3   OH225354   8.003   2.951   5.123
 8466TIP3    H125355   7.926   2.895   5.131
 8466TIP3    H225356   8.067   2.913   5.183
 8467TIP3   OH225357   0.682   0.544   4.537
 8467TIP3    H125358   0.720   0.549   4.449
 8467TIP3    H225359   0.669   0.451   4.552
 8468TIP3   OH225360   6.286   5.124   1.255
 8468TIP3    H125361   6.347   5.152   1.187
 8468TIP3    H225362   6.216   5.189   1.252
 8469TIP3   OH225363   1.991   1.584   0.471
 8469TIP3    H125364   1.911   1.592   0.523
 8469TIP3    H225365   2.024   1.497   0.492
 8470TIP3   OH225366   3.677   0.720   6.275
 8470TIP3    H125367   3.734   0.790   6.244
 8470TIP3    H225368   3.736   0.646   6.290
 8471TIP3   OH225369   4.278   5.846   6.067
 8471TIP3    H125370   4.220   5.787   6.020
 8471TIP3    H225371   4.262   5.827   6.159
 8472TIP3   OH225372   7.694   6.787   1.984
 8472TIP3    H125373   7.689   6.876   2.019
 8472TIP3    H225374   7.739   6.737   2.053
 8473TIP3   OH225375   6.295   4.140   0.640
 8473TIP3    H125376   6.224   4.169   0.696
 8473TIP3    H225377   6.301   4.046   0.656
 8474TIP3   OH225378   3.767   2.642   5.134
 8474TIP3    H125379   3.854   2.620   5.166
 8474TIP3    H225380   3.721   2.674   5.212
 8475TIP3   OH225381   1.553   4.564   2.037
 8475TIP3    H125382   1.590   4.499   1.977
 8475TIP3    H225383   1.559   4.523   2.124
 8476TIP3   OH225384   2.258   7.697   6.665
 8476TIP3    H125385   2.226   7.698   6.575
 8476TIP3    H225386   2.200   7.757   6.712
 8477TIP3   OH225387   6.879   5.966   2.035
 8477TIP3    H125388   6.868   5.950   1.941
 8477TIP3    H225389   6.798   5.933   2.075
 8478TIP3   OH225390   6.313   6.436   0.418
 8478TIP3    H125391   6.397   6.414   0.378
 8478TIP3    H225392   6.248   6.392   0.363
 8479TIP3   OH225393   4.653   4.252   5.313
 8479TIP3    H125394   4.642   4.157   5.319
 8479TIP3    H225395   4.578   4.288   5.361
 8480TIP3   OH225396   2.572   1.293   4.714
 8480TIP3    H125397   2.540   1.313   4.803
 8480TIP3    H225398   2.620   1.211   4.724
 8481TIP3   OH225399   4.794   3.952   0.460
 8481TIP3    H125400   4.791   3.886   0.529
 8481TIP3    H225401   4.886   3.955   0.434
 8482TIP3   OH225402   1.699   5.221   2.706
 8482TIP3    H125403   1.704   5.126   2.723
 8482TIP3    H225404   1.606   5.240   2.700
 8483TIP3   OH225405   2.185   0.161   5.576
 8483TIP3    H125406   2.224   0.248   5.583
 8483TIP3    H225407   2.192   0.125   5.664
 8484TIP3   OH225408   7.393   1.923   5.162
 8484TIP3    H125409   7.447   1.944   5.086
 8484TIP3    H225410   7.452   1.879   5.223
 8485TIP3   OH225411   7.480   7.452   3.361
 8485TIP3    H125412   7.393   7.443   3.401
 8485TIP3    H225413   7.503   7.363   3.335
 8486TIP3   OH225414   5.304   2.597   3.787
 8486TIP3    H125415   5.345   2.662   3.843
 8486TIP3    H225416   5.317   2.514   3.833
 8487TIP3   OH225417   2.072   6.221   4.422
 8487TIP3    H125418   2.052   6.165   4.348
 8487TIP3    H225419   2.118   6.295   4.384
 8488TIP3   OH225420   3.572   7.564   4.756
 8488TIP3    H125421   3.643   7.619   4.790
 8488TIP3    H225422   3.604   7.475   4.766
 8489TIP3   OH225423   6.592   4.728   1.229
 8489TIP3    H125424   6.525   4.733   1.161
 8489TIP3    H225425   6.674   4.721   1.180
 8490TIP3   OH225426   1.477   6.087   4.149
 8490TIP3    H125427   1.419   6.012   4.141
 8490TIP3    H225428   1.488   6.119   4.059
 8491TIP3   OH225429   1.943   6.343   5.361
 8491TIP3    H125430   1.859   6.297   5.360
 8491TIP3    H225431   1.926   6.426   5.317
 8492TIP3   OH225432   1.757   0.701   5.048
 8492TIP3    H125433   1.746   0.660   4.962
 8492TIP3    H225434   1.721   0.789   5.036
 8493TIP3   OH225435   4.799   7.830   0.440
 8493TIP3    H125436   4.753   7.750   0.466
 8493TIP3    H225437   4.797   7.886   0.518
 8494TIP3   OH225438   0.368   6.227   5.540
 8494TIP3    H125439   0.281   6.245   5.504
 8494TIP3    H225440   0.401   6.153   5.488
 8495TIP3   OH225441   6.504   0.275   2.734
 8495TIP3    H125442   6.472   0.316   2.654
 8495TIP3    H225443   6.429   0.228   2.769
 8496TIP3   OH225444   6.377   5.453   3.042
 8496TIP3    H125445   6.436   5.407   3.102
 8496TIP3    H225446   6.290   5.437   3.078
 8497TIP3   OH225447   0.863   7.219   4.363
 8497TIP3    H125448   0.850   7.314   4.361
 8497TIP3    H225449   0.950   7.205   4.325
 8498TIP3   OH225450   6.067   4.678   5.012
 8498TIP3    H125451   6.146   4.722   4.979
 8498TIP3    H225452   6.097   4.629   5.089
 8499TIP3   OH225453   6.251   6.491   1.839
 8499TIP3    H125454   6.207   6.420   1.794
 8499TIP3    H225455   6.288   6.451   1.918
 8500TIP3   OH225456   7.036   6.372   2.642
 8500TIP3    H125457   7.031   6.295   2.697
 8500TIP3    H225458   7.104   6.352   2.578
 8501TIP3   OH225459   3.373   2.277   1.128
 8501TIP3    H125460   3.410   2.347   1.075
 8501TIP3    H225461   3.284   2.266   1.094
 8502TIP3   OH225462   3.267   7.578   1.280
 8502TIP3    H125463   3.327   7.561   1.353
 8502TIP3    H225464   3.232   7.666   1.298
 8503TIP3   OH225465   3.402   3.904   3.712
 8503TIP3    H125466   3.315   3.870   3.691
 8503TIP3    H225467   3.417   3.878   3.803
 8504TIP3   OH225468   2.039   6.251   5.073
 8504TIP3    H125469   2.075   6.163   5.076
 8504TIP3    H225470   2.102   6.304   5.123
 8505TIP3   OH225471   0.704   4.533   5.752
 8505TIP3    H125472   0.673   4.623   5.762
 8505TIP3    H225473   0.672   4.507   5.665
 8506TIP3   OH225474   6.253   1.687   0.181
 8506TIP3    H125475   6.332   1.682   0.128
 8506TIP3    H225476   6.246   1.779   0.206
 8507TIP3   OH225477   2.263  -0.017   3.161
 8507TIP3    H125478   2.316   0.029   3.227
 8507TIP3    H225479   2.304   0.007   3.078
 8508TIP3   OH225480   2.451   5.674   0.192
 8508TIP3    H125481   2.457   5.755   0.243
 8508TIP3    H225482   2.393   5.696   0.119
 8509TIP3   OH225483   6.405   4.418   1.147
 8509TIP3    H125484   6.406   4.448   1.238
 8509TIP3    H225485   6.496   4.425   1.119
 8510TIP3   OH225486   3.424   4.476   0.610
 8510TIP3    H125487   3.378   4.536   0.551
 8510TIP3    H225488   3.356   4.419   0.644
 8511TIP3   OH225489   7.446   5.076   2.066
 8511TIP3    H125490   7.367   5.031   2.093
 8511TIP3    H225491   7.515   5.038   2.121
 8512TIP3   OH225492   7.630   3.330   5.756
 8512TIP3    H125493   7.654   3.280   5.834
 8512TIP3    H225494   7.534   3.338   5.761
 8513TIP3   OH225495   0.995   5.995   3.274
 8513TIP3    H125496   0.981   6.064   3.209
 8513TIP3    H225497   0.934   6.014   3.345
 8514TIP3   OH225498   5.270   1.456   2.306
 8514TIP3    H125499   5.179   1.485   2.309
 8514TIP3    H225500   5.315   1.523   2.256
 8515TIP3   OH225501   0.719   3.237   1.345
 8515TIP3    H125502   0.675   3.157   1.374
 8515TIP3    H225503   0.649   3.302   1.339
 8516TIP3   OH225504   2.685   0.833   1.145
 8516TIP3    H125505   2.652   0.913   1.104
 8516TIP3    H225506   2.690   0.854   1.238
 8517TIP3   OH225507   1.650   2.194   5.010
 8517TIP3    H125508   1.739   2.175   4.981
 8517TIP3    H225509   1.649   2.168   5.102
 8518TIP3   OH225510   4.092   5.358   6.661
 8518TIP3    H125511   4.094   5.347   6.566
 8518TIP3    H225512   4.096   5.452   6.675
 8519TIP3   OH225513   6.154   1.444   6.359
 8519TIP3    H125514   6.106   1.523   6.382
 8519TIP3    H225515   6.093   1.372   6.375
 8520TIP3   OH225516   4.667   7.035   1.834
 8520TIP3    H125517   4.720   6.991   1.769
 8520TIP3    H225518   4.695   7.126   1.831
 8521TIP3   OH225519   6.587   1.171   4.869
 8521TIP3    H125520   6.516   1.143   4.811
 8521TIP3    H225521   6.630   1.242   4.822
 8522TIP3   OH225522   2.260   7.013   2.753
 8522TIP3    H125523   2.233   7.026   2.844
 8522TIP3    H225524   2.238   6.922   2.733
 8523TIP3   OH225525   2.531   1.911   0.328
 8523TIP3    H125526   2.609   1.966   0.341
 8523TIP3    H225527   2.467   1.970   0.288
 8524TIP3   OH225528   3.221   0.459   1.225
 8524TIP3    H125529   3.230   0.527   1.158
 8524TIP3    H225530   3.248   0.501   1.306
 8525TIP3   OH225531   4.158   5.439   5.836
 8525TIP3    H125532   4.119   5.465   5.920
 8525TIP3    H225533   4.252   5.441   5.852
 8526TIP3   OH225534   6.198   3.460   2.653
 8526TIP3    H125535   6.281   3.422   2.681
 8526TIP3    H225536   6.149   3.387   2.616
 8527TIP3   OH225537   3.855   1.631   0.167
 8527TIP3    H125538   3.780   1.574   0.183
 8527TIP3    H225539   3.884   1.656   0.255
 8528TIP3   OH225540   0.138   3.416   5.753
 8528TIP3    H125541   0.043   3.412   5.756
 8528TIP3    H225542   0.165   3.328   5.725
 8529TIP3   OH225543   2.933   5.261   6.003
 8529TIP3    H125544   2.880   5.182   5.990
 8529TIP3    H225545   3.023   5.232   5.989
 8530TIP3   OH225546   5.811   0.879   0.438
 8530TIP3    H125547   5.774   0.813   0.379
 8530TIP3    H225548   5.872   0.929   0.384
 8531TIP3   OH225549   4.464   6.278   1.202
 8531TIP3    H125550   4.386   6.273   1.257
 8531TIP3    H225551   4.477   6.188   1.172
 8532TIP3   OH225552   7.166   4.381   2.159
 8532TIP3    H125553   7.226   4.306   2.155
 8532TIP3    H225554   7.101   4.357   2.224
 8533TIP3   OH225555   7.539   3.333   2.548
 8533TIP3    H125556   7.618   3.337   2.494
 8533TIP3    H225557   7.565   3.370   2.632
 8534TIP3   OH225558   5.306   2.925   4.931
 8534TIP3    H125559   5.218   2.932   4.970
 8534TIP3    H225560   5.337   2.839   4.957
 8535TIP3   OH225561   0.508   4.997   5.156
 8535TIP3    H125562   0.437   4.980   5.093
 8535TIP3    H225563   0.559   5.067   5.115
 8536TIP3   OH225564   7.857   0.089   3.851
 8536TIP3    H125565   7.812   0.162   3.807
 8536TIP3    H225566   7.838   0.013   3.796
 8537TIP3   OH225567   6.485   3.295   5.422
 8537TIP3    H125568   6.396   3.320   5.396
 8537TIP3    H225569   6.488   3.201   5.404
 8538TIP3   OH225570   1.603   2.068   3.947
 8538TIP3    H125571   1.580   2.090   4.038
 8538TIP3    H225572   1.699   2.060   3.949
 8539TIP3   OH225573   2.243   1.958   3.802
 8539TIP3    H125574   2.223   1.915   3.885
 8539TIP3    H225575   2.312   2.021   3.824
 8540TIP3   OH225576   2.717   3.367   4.295
 8540TIP3    H125577   2.742   3.308   4.224
 8540TIP3    H225578   2.656   3.317   4.348
 8541TIP3   OH225579   5.035   2.482   1.103
 8541TIP3    H125580   5.108   2.522   1.151
 8541TIP3    H225581   5.076   2.411   1.053
 8542TIP3   OH225582   0.004   6.533   3.081
 8542TIP3    H125583  -0.031   6.531   2.992
 8542TIP3    H225584  -0.056   6.477   3.131
 8543TIP3   OH225585   3.264   0.354   0.466
 8543TIP3    H125586   3.242   0.268   0.501
 8543TIP3    H225587   3.316   0.336   0.388
 8544TIP3   OH225588   1.088   3.351   5.844
 8544TIP3    H125589   1.037   3.293   5.899
 8544TIP3    H225590   1.026   3.384   5.779
 8545TIP3   OH225591   4.401   3.860   1.619
 8545TIP3    H125592   4.338   3.868   1.547
 8545TIP3    H225593   4.402   3.947   1.659
 8546TIP3   OH225594   8.257   1.470   3.792
 8546TIP3    H125595   8.317   1.485   3.865
 8546TIP3    H225596   8.226   1.557   3.768
 8547TIP3   OH225597   2.843   4.371   3.183
 8547TIP3    H125598   2.887   4.317   3.248
 8547TIP3    H225599   2.766   4.407   3.228
 8548TIP3   OH225600   1.648   3.339   1.469
 8548TIP3    H125601   1.578   3.383   1.517
 8548TIP3    H225602   1.621   3.342   1.378
 8549TIP3   OH225603   2.401   2.288   3.902
 8549TIP3    H125604   2.487   2.325   3.924
 8549TIP3    H225605   2.379   2.234   3.977
 8550TIP3   OH225606   4.670   3.938   5.353
 8550TIP3    H125607   4.639   3.947   5.443
 8550TIP3    H225608   4.760   3.907   5.362
 8551TIP3   OH225609   3.106   2.383   5.071
 8551TIP3    H125610   3.014   2.392   5.048
 8551TIP3    H225611   3.133   2.470   5.099
 8552TIP3   OH225612   4.793   3.108   5.020
 8552TIP3    H125613   4.734   3.043   4.982
 8552TIP3    H225614   4.794   3.179   4.956
 8553TIP3   OH225615   3.322   7.275   4.726
 8553TIP3    H125616   3.310   7.348   4.787
 8553TIP3    H225617   3.234   7.251   4.698
 8554TIP3   OH225618   0.693   2.578   1.006
 8554TIP3    H125619   0.728   2.618   1.086
 8554TIP3    H225620   0.730   2.630   0.935
 8555TIP3   OH225621   3.836   0.333   3.950
 8555TIP3    H125622   3.772   0.398   3.920
 8555TIP3    H225623   3.921   0.374   3.932
 8556TIP3   OH225624   1.501   1.807   1.797
 8556TIP3    H125625   1.500   1.762   1.881
 8556TIP3    H225626   1.431   1.871   1.803
 8557TIP3   OH225627   6.794   3.452   0.629
 8557TIP3    H125628   6.881   3.437   0.592
 8557TIP3    H225629   6.807   3.448   0.724
 8558TIP3   OH225630   3.760   4.213   5.406
 8558TIP3    H125631   3.772   4.282   5.340
 8558TIP3    H225632   3.847   4.175   5.417
 8559TIP3   OH225633   6.686   0.276   3.945
 8559TIP3    H125634   6.601   0.236   3.964
 8559TIP3    H225635   6.683   0.297   3.852
 8560TIP3   OH225636   0.255   2.714   3.697
 8560TIP3    H125637   0.340   2.704   3.654
 8560TIP3    H225638   0.229   2.804   3.676
 8561TIP3   OH225639   3.803   5.913   1.350
 8561TIP3    H125640   3.786   5.882   1.439
 8561TIP3    H225641   3.734   5.977   1.334
 8562TIP3   OH225642   0.985   3.923   4.792
 8562TIP3    H125643   1.045   3.850   4.780
 8562TIP3    H225644   1.037   4.000   4.771
 8563TIP3   OH225645   6.769   2.530   4.185
 8563TIP3    H125646   6.682   2.548   4.220
 8563TIP3    H225647   6.773   2.434   4.178
 8564TIP3   OH225648   0.518   7.402   0.940
 8564TIP3    H125649   0.514   7.493   0.970
 8564TIP3    H225650   0.572   7.357   1.006
 8565TIP3   OH225651   7.386   6.405   2.304
 8565TIP3    H125652   7.455   6.346   2.334
 8565TIP3    H225653   7.432   6.470   2.250
 8566TIP3   OH225654   1.568   5.836   4.713
 8566TIP3    H125655   1.591   5.929   4.716
 8566TIP3    H225656   1.650   5.792   4.690
 8567TIP3   OH225657   5.352   3.902   3.455
 8567TIP3    H125658   5.438   3.863   3.472
 8567TIP3    H225659   5.346   3.909   3.360
 8568TIP3   OH225660   3.418   5.158   1.210
 8568TIP3    H125661   3.377   5.244   1.214
 8568TIP3    H225662   3.364   5.104   1.268
 8569TIP3   OH225663   1.824   6.138   6.642
 8569TIP3    H125664   1.844   6.093   6.560
 8569TIP3    H225665   1.861   6.082   6.710
 8570TIP3   OH225666   2.190   5.264   2.085
 8570TIP3    H125667   2.175   5.200   2.016
 8570TIP3    H225668   2.241   5.218   2.151
 8571TIP3   OH225669   5.872   5.155   2.515
 8571TIP3    H125670   5.848   5.190   2.429
 8571TIP3    H225671   5.790   5.156   2.565
 8572TIP3   OH225672   4.057   1.316   5.934
 8572TIP3    H125673   4.133   1.374   5.932
 8572TIP3    H225674   3.987   1.370   5.970
 8573TIP3   OH225675   4.259   6.735   5.591
 8573TIP3    H125676   4.212   6.708   5.669
 8573TIP3    H225677   4.218   6.686   5.520
 8574TIP3   OH225678   7.458   5.339   4.507
 8574TIP3    H125679   7.440   5.331   4.601
 8574TIP3    H225680   7.378   5.375   4.470
 8575TIP3   OH225681   3.294   2.355   5.599
 8575TIP3    H125682   3.386   2.380   5.587
 8575TIP3    H225683   3.246   2.413   5.540
 8576TIP3   OH225684   0.447   2.658   2.722
 8576TIP3    H125685   0.502   2.606   2.780
 8576TIP3    H225686   0.358   2.636   2.748
 8577TIP3   OH225687   1.178   7.749   1.793
 8577TIP3    H125688   1.198   7.839   1.770
 8577TIP3    H225689   1.175   7.748   1.889
 8578TIP3   OH225690   4.205   0.930   2.631
 8578TIP3    H125691   4.291   0.938   2.672
 8578TIP3    H225692   4.168   0.851   2.670
 8579TIP3   OH225693   7.957   5.291   0.509
 8579TIP3    H125694   7.898   5.222   0.477
 8579TIP3    H225695   8.009   5.316   0.432
 8580TIP3   OH225696   8.020   7.037   6.721
 8580TIP3    H125697   8.071   7.013   6.643
 8580TIP3    H225698   8.052   6.977   6.789
 8581TIP3   OH225699   7.076   4.914   1.691
 8581TIP3    H125700   7.160   4.947   1.724
 8581TIP3    H225701   7.011   4.963   1.741
 8582TIP3   OH225702   0.249   5.084   3.208
 8582TIP3    H125703   0.206   5.080   3.123
 8582TIP3    H225704   0.190   5.037   3.267
 8583TIP3   OH225705   0.892   3.311   5.405
 8583TIP3    H125706   0.986   3.313   5.421
 8583TIP3    H225707   0.862   3.400   5.426
 8584TIP3   OH225708   0.535   3.334   6.156
 8584TIP3    H125709   0.506   3.337   6.065
 8584TIP3    H225710   0.478   3.396   6.202
 8585TIP3   OH225711   3.353   6.087   1.025
 8585TIP3    H125712   3.425   6.141   1.057
 8585TIP3    H225713   3.303   6.145   0.967
 8586TIP3   OH225714   7.030   4.972   4.122
 8586TIP3    H125715   7.061   4.922   4.197
 8586TIP3    H225716   6.938   4.988   4.140
 8587TIP3   OH225717   4.780   4.896   6.271
 8587TIP3    H125718   4.724   4.857   6.204
 8587TIP3    H225719   4.806   4.981   6.235
 8588TIP3   OH225720   6.248   3.859   2.562
 8588TIP3    H125721   6.325   3.803   2.550
 8588TIP3    H225722   6.201   3.819   2.635
 8589TIP3   OH225723   1.884   4.246   6.767
 8589TIP3    H125724   1.911   4.177   6.827
 8589TIP3    H225725   1.874   4.323   6.822
 8590TIP3   OH225726   1.937   0.041   1.870
 8590TIP3    H125727   1.841   0.048   1.867
 8590TIP3    H225728   1.967   0.101   1.802
 8591TIP3   OH225729   0.270   0.098   4.371
 8591TIP3    H125730   0.356   0.090   4.412
 8591TIP3    H225731   0.266   0.189   4.342
 8592TIP3   OH225732   7.981   5.997   1.207
 8592TIP3    H125733   8.054   5.990   1.146
 8592TIP3    H225734   7.943   6.083   1.189
 8593TIP3   OH225735   3.079   5.687   0.858
 8593TIP3    H125736   3.032   5.618   0.811
 8593TIP3    H225737   3.066   5.667   0.950
 8594TIP3   OH225738   4.681   2.981   3.607
 8594TIP3    H125739   4.709   3.044   3.673
 8594TIP3    H225740   4.763   2.954   3.565
 8595TIP3   OH225741   7.275   7.284   5.272
 8595TIP3    H125742   7.340   7.300   5.341
 8595TIP3    H225743   7.247   7.194   5.286
 8596TIP3   OH225744   6.901   1.492   2.467
 8596TIP3    H125745   6.917   1.534   2.551
 8596TIP3    H225746   6.809   1.469   2.468
 8597TIP3   OH225747   5.259   4.928   2.209
 8597TIP3    H125748   5.299   5.014   2.222
 8597TIP3    H225749   5.302   4.872   2.273
 8598TIP3   OH225750   0.590   7.194   0.195
 8598TIP3    H125751   0.540   7.116   0.171
 8598TIP3    H225752   0.670   7.160   0.236
 8599TIP3   OH225753   2.942   2.141   2.447
 8599TIP3    H125754   2.987   2.100   2.372
 8599TIP3    H225755   2.962   2.234   2.438
 8600TIP3   OH225756   2.101   6.517   6.113
 8600TIP3    H125757   2.083   6.446   6.051
 8600TIP3    H225758   2.034   6.582   6.094
 8601TIP3   OH225759   5.169   4.372   2.376
 8601TIP3    H125760   5.206   4.387   2.289
 8601TIP3    H225761   5.143   4.459   2.406
 8602TIP3   OH225762   5.994   0.145   2.171
 8602TIP3    H125763   5.935   0.221   2.176
 8602TIP3    H225764   6.027   0.134   2.260
 8603TIP3   OH225765   1.905   7.367   6.064
 8603TIP3    H125766   1.826   7.387   6.114
 8603TIP3    H225767   1.875   7.358   5.974
 8604TIP3   OH225768   0.070   7.124   6.112
 8604TIP3    H125769  -0.022   7.133   6.136
 8604TIP3    H225770   0.110   7.208   6.135
 8605TIP3   OH225771   0.060   7.605   0.101
 8605TIP3    H125772  -0.020   7.621   0.152
 8605TIP3    H225773   0.124   7.575   0.166
 8606TIP3   OH225774   3.930   5.027   0.871
 8606TIP3    H125775   4.021   5.019   0.843
 8606TIP3    H225776   3.879   4.995   0.797
 8607TIP3   OH225777   3.969   3.436   4.031
 8607TIP3    H125778   4.003   3.496   4.097
 8607TIP3    H225779   3.982   3.349   4.067
 8608TIP3   OH225780   7.266   1.034   4.451
 8608TIP3    H125781   7.247   1.097   4.382
 8608TIP3    H225782   7.321   0.968   4.409
 8609TIP3   OH225783   8.195   7.549   3.940
 8609TIP3    H125784   8.118   7.556   3.883
 8609TIP3    H225785   8.179   7.472   3.993
 8610TIP3   OH225786   5.111   4.896   5.080
 8610TIP3    H125787   5.100   4.934   4.993
 8610TIP3    H225788   5.113   4.802   5.065
 8611TIP3   OH225789   5.086   0.149   5.046
 8611TIP3    H125790   5.157   0.211   5.060
 8611TIP3    H225791   5.043   0.180   4.966
 8612TIP3   OH225792   5.833   1.698   2.845
 8612TIP3    H125793   5.845   1.603   2.843
 8612TIP3    H225794   5.916   1.732   2.877
 8613TIP3   OH225795   6.258   3.139   5.114
 8613TIP3    H125796   6.233   3.047   5.122
 8613TIP3    H225797   6.211   3.170   5.037
 8614TIP3   OH225798   4.796   4.996   4.686
 8614TIP3    H125799   4.731   4.933   4.656
 8614TIP3    H225800   4.878   4.965   4.647
 8615TIP3   OH225801   3.725   0.120   3.800
 8615TIP3    H125802   3.640   0.161   3.784
 8615TIP3    H225803   3.779   0.191   3.836
 8616TIP3   OH225804   0.343   7.486   2.903
 8616TIP3    H125805   0.349   7.410   2.962
 8616TIP3    H225806   0.261   7.528   2.928
 8617TIP3   OH225807   4.151   0.072   2.492
 8617TIP3    H125808   4.233   0.064   2.443
 8617TIP3    H225809   4.139   0.167   2.502
 8618TIP3   OH225810   2.889   6.619   1.740
 8618TIP3    H125811   2.820   6.594   1.802
 8618TIP3    H225812   2.883   6.715   1.735
 8619TIP3   OH225813   2.719   0.218   3.387
 8619TIP3    H125814   2.742   0.276   3.460
 8619TIP3    H225815   2.744   0.131   3.417
 8620TIP3   OH225816   0.523   2.091   5.138
 8620TIP3    H125817   0.472   2.097   5.218
 8620TIP3    H225818   0.607   2.055   5.165
 8621TIP3   OH225819   5.398   7.047   2.451
 8621TIP3    H125820   5.413   6.994   2.372
 8621TIP3    H225821   5.432   7.134   2.428
 8622TIP3   OH225822   6.667   7.303   2.644
 8622TIP3    H125823   6.677   7.278   2.553
 8622TIP3    H225824   6.573   7.319   2.655
 8623TIP3   OH225825   7.155   5.667   2.805
 8623TIP3    H125826   7.172   5.692   2.714
 8623TIP3    H225827   7.119   5.578   2.799
 8624TIP3   OH225828   2.332   1.570   3.016
 8624TIP3    H125829   2.371   1.651   3.047
 8624TIP3    H225830   2.367   1.502   3.073
 8625TIP3   OH225831   8.145   5.740   6.673
 8625TIP3    H125832   8.138   5.645   6.664
 8625TIP3    H225833   8.127   5.757   6.766
 8626TIP3   OH225834   5.730   0.472   3.479
 8626TIP3    H125835   5.663   0.462   3.412
 8626TIP3    H225836   5.681   0.497   3.558
 8627TIP3   OH225837   4.711   6.504   2.057
 8627TIP3    H125838   4.749   6.458   1.983
 8627TIP3    H225839   4.619   6.516   2.034
 8628TIP3   OH225840   4.755   5.962   6.302
 8628TIP3    H125841   4.674   5.990   6.346
 8628TIP3    H225842   4.812   6.038   6.306
 8629TIP3   OH225843   1.025   3.510   2.211
 8629TIP3    H125844   0.936   3.546   2.203
 8629TIP3    H225845   1.041   3.506   2.305
 8630TIP3   OH225846   3.830   4.073   0.350
 8630TIP3    H125847   3.784   4.120   0.281
 8630TIP3    H225848   3.767   4.069   0.423
 8631TIP3   OH225849   1.051   1.528   4.751
 8631TIP3    H125850   1.046   1.434   4.771
 8631TIP3    H225851   1.144   1.549   4.760
 8632TIP3   OH225852   6.729   0.559   5.992
 8632TIP3    H125853   6.819   0.527   5.991
 8632TIP3    H225854   6.733   0.641   5.942
 8633TIP3   OH225855   8.236   6.139   6.371
 8633TIP3    H125856   8.179   6.076   6.415
 8633TIP3    H225857   8.283   6.087   6.306
 8634TIP3   OH225858   6.148   2.139   0.677
 8634TIP3    H125859   6.203   2.212   0.706
 8634TIP3    H225860   6.203   2.090   0.616
 8635TIP3   OH225861   6.429   5.829   2.485
 8635TIP3    H125862   6.406   5.751   2.535
 8635TIP3    H225863   6.438   5.799   2.395
 8636TIP3   OH225864   5.189   2.945   4.090
 8636TIP3    H125865   5.122   2.953   4.158
 8636TIP3    H225866   5.140   2.950   4.008
 8637TIP3   OH225867   4.598   4.836   2.134
 8637TIP3    H125868   4.534   4.881   2.079
 8637TIP3    H225869   4.644   4.906   2.180
 8638TIP3   OH225870   0.161   2.240   0.985
 8638TIP3    H125871   0.146   2.147   0.999
 8638TIP3    H225872   0.226   2.243   0.914
 8639TIP3   OH225873   3.816   1.763   2.895
 8639TIP3    H125874   3.728   1.744   2.861
 8639TIP3    H225875   3.875   1.739   2.824
 8640TIP3   OH225876   3.426   6.350   5.368
 8640TIP3    H125877   3.421   6.285   5.298
 8640TIP3    H225878   3.347   6.335   5.419
 8641TIP3   OH225879   1.415   3.972   4.085
 8641TIP3    H125880   1.374   4.030   4.020
 8641TIP3    H225881   1.478   4.028   4.130
 8642TIP3   OH225882   5.556   6.773   1.301
 8642TIP3    H125883   5.473   6.812   1.327
 8642TIP3    H225884   5.616   6.793   1.372
 8643TIP3   OH225885   5.284   6.826   2.741
 8643TIP3    H125886   5.359   6.806   2.685
 8643TIP3    H225887   5.247   6.740   2.761
 8644TIP3   OH225888   3.816   6.762   2.120
 8644TIP3    H125889   3.726   6.756   2.090
 8644TIP3    H225890   3.868   6.726   2.048
 8645TIP3   OH225891   7.557   2.046   4.658
 8645TIP3    H125892   7.469   2.085   4.652
 8645TIP3    H225893   7.542   1.953   4.644
 8646TIP3   OH225894   0.484   2.744   4.234
 8646TIP3    H125895   0.442   2.708   4.156
 8646TIP3    H225896   0.498   2.837   4.212
 8647TIP3   OH225897   5.851   7.568   2.155
 8647TIP3    H125898   5.840   7.660   2.133
 8647TIP3    H225899   5.919   7.536   2.095
 8648TIP3   OH225900   0.136   7.483   5.585
 8648TIP3    H125901   0.219   7.435   5.579
 8648TIP3    H225902   0.090   7.460   5.504
 8649TIP3   OH225903   3.041   2.793   2.987
 8649TIP3    H125904   2.963   2.807   2.933
 8649TIP3    H225905   3.029   2.852   3.061
 8650TIP3   OH225906   6.075   3.508   2.339
 8650TIP3    H125907   6.153   3.520   2.285
 8650TIP3    H225908   6.089   3.426   2.385
 8651TIP3   OH225909   7.877   4.233   2.489
 8651TIP3    H125910   7.960   4.239   2.536
 8651TIP3    H225911   7.883   4.152   2.439
 8652TIP3   OH225912   1.920   5.772   3.454
 8652TIP3    H125913   1.825   5.784   3.447
 8652TIP3    H225914   1.955   5.861   3.453
 8653TIP3   OH225915   1.687   6.421   4.730
 8653TIP3    H125916   1.750   6.458   4.792
 8653TIP3    H225917   1.640   6.354   4.780
 8654TIP3   OH225918   0.459   1.048   2.354
 8654TIP3    H125919   0.437   0.975   2.412
 8654TIP3    H225920   0.382   1.058   2.298
 8655TIP3   OH225921   1.720   2.734   4.928
 8655TIP3    H125922   1.746   2.783   4.849
 8655TIP3    H225923   1.767   2.650   4.920
 8656TIP3   OH225924   5.931   7.388   2.351
 8656TIP3    H125925   5.880   7.455   2.304
 8656TIP3    H225926   5.910   7.307   2.306
 8657TIP3   OH225927   0.766   5.254   3.623
 8657TIP3    H125928   0.810   5.199   3.558
 8657TIP3    H225929   0.729   5.192   3.686
 8658TIP3   OH225930   7.794   3.830   4.570
 8658TIP3    H125931   7.887   3.832   4.547
 8658TIP3    H225932   7.750   3.810   4.487
 8659TIP3   OH225933   2.486   3.839   3.146
 8659TIP3    H125934   2.419   3.776   3.121
 8659TIP3    H225935   2.483   3.907   3.078
 8660TIP3   OH225936   4.405   6.276   3.180
 8660TIP3    H125937   4.384   6.238   3.265
 8660TIP3    H225938   4.360   6.360   3.180
 8661TIP3   OH225939   4.274   1.260   4.498
 8661TIP3    H125940   4.349   1.251   4.439
 8661TIP3    H225941   4.304   1.223   4.581
 8662TIP3   OH225942   0.900   5.993   6.132
 8662TIP3    H125943   0.819   6.037   6.108
 8662TIP3    H225944   0.912   5.925   6.066
 8663TIP3   OH225945   1.119   3.820   0.437
 8663TIP3    H125946   1.179   3.890   0.462
 8663TIP3    H225947   1.057   3.862   0.376
 8664TIP3   OH225948   2.291   1.240   4.561
 8664TIP3    H125949   2.218   1.222   4.620
 8664TIP3    H225950   2.304   1.158   4.513
 8665TIP3   OH225951   7.109   4.360   4.329
 8665TIP3    H125952   7.193   4.339   4.289
 8665TIP3    H225953   7.127   4.437   4.383
 8666TIP3   OH225954   5.664   3.863   3.142
 8666TIP3    H125955   5.705   3.806   3.207
 8666TIP3    H225956   5.701   3.834   3.058
 8667TIP3   OH225957   8.179   4.165   4.121
 8667TIP3    H125958   8.184   4.201   4.209
 8667TIP3    H225959   8.238   4.221   4.069
 8668TIP3   OH225960   3.845   0.279   0.606
 8668TIP3    H125961   3.758   0.291   0.645
 8668TIP3    H225962   3.830   0.219   0.533
 8669TIP3   OH225963   4.999   7.270   3.585
 8669TIP3    H125964   5.038   7.356   3.598
 8669TIP3    H225965   5.004   7.227   3.670
 8670TIP3   OH225966   0.423   4.974   5.761
 8670TIP3    H125967   0.333   4.981   5.793
 8670TIP3    H225968   0.435   5.053   5.708
 8671TIP3   OH225969   7.766   4.897   0.238
 8671TIP3    H125970   7.847   4.883   0.189
 8671TIP3    H225971   7.696   4.881   0.174
 8672TIP3   OH225972   2.966   5.923   2.437
 8672TIP3    H125973   2.983   5.958   2.349
 8672TIP3    H225974   2.993   5.993   2.496
 8673TIP3   OH225975   6.482   4.302   6.589
 8673TIP3    H125976   6.551   4.361   6.621
 8673TIP3    H225977   6.455   4.340   6.506
 8674TIP3   OH225978   7.954   1.054   2.096
 8674TIP3    H125979   8.008   0.976   2.090
 8674TIP3    H225980   7.869   1.022   2.127
 8675TIP3   OH225981   1.744   7.012   2.988
 8675TIP3    H125982   1.664   7.062   2.970
 8675TIP3    H225983   1.783   6.998   2.901
 8676TIP3   OH225984   5.109   2.367   6.494
 8676TIP3    H125985   5.077   2.336   6.578
 8676TIP3    H225986   5.030   2.392   6.446
 8677TIP3   OH225987   2.236   4.708   3.146
 8677TIP3    H125988   2.298   4.713   3.074
 8677TIP3    H225989   2.217   4.615   3.155
 8678TIP3   OH225990   4.475   5.943   1.738
 8678TIP3    H125991   4.469   5.877   1.807
 8678TIP3    H225992   4.497   6.024   1.784
 8679TIP3   OH225993   1.910   2.457   2.527
 8679TIP3    H125994   1.860   2.381   2.499
 8679TIP3    H225995   1.853   2.532   2.508
 8680TIP3   OH225996   0.960   2.924   6.626
 8680TIP3    H125997   0.953   2.891   6.536
 8680TIP3    H225998   1.036   2.880   6.662
 8681TIP3   OH225999   0.486   6.178   3.059
 8681TIP3    H126000   0.509   6.196   3.151
 8681TIP3    H226001   0.570   6.172   3.014
 8682TIP3   OH226002   6.825   2.300   0.522
 8682TIP3    H126003   6.773   2.346   0.588
 8682TIP3    H226004   6.892   2.363   0.497
 8683TIP3   OH226005   0.694   2.933   0.418
 8683TIP3    H126006   0.704   2.985   0.338
 8683TIP3    H226007   0.714   2.844   0.391
 8684TIP3   OH226008   6.539   5.084   5.966
 8684TIP3    H126009   6.451   5.066   5.933
 8684TIP3    H226010   6.566   5.163   5.920
 8685TIP3   OH226011   1.996   5.858   5.789
 8685TIP3    H126012   2.062   5.790   5.801
 8685TIP3    H226013   2.046   5.937   5.769
 8686TIP3   OH226014   4.077   1.475   0.417
 8686TIP3    H126015   4.171   1.490   0.429
 8686TIP3    H226016   4.053   1.412   0.484
 8687TIP3   OH226017   1.055   4.330   3.097
 8687TIP3    H126018   0.981   4.369   3.050
 8687TIP3    H226019   1.016   4.294   3.177
 8688TIP3   OH226020   6.412   5.261   1.787
 8688TIP3    H126021   6.417   5.193   1.854
 8688TIP3    H226022   6.340   5.317   1.814
 8689TIP3   OH226023   1.842   1.648   1.618
 8689TIP3    H126024   1.855   1.731   1.573
 8689TIP3    H226025   1.868   1.665   1.709
 8690TIP3   OH226026   4.308   0.287   3.823
 8690TIP3    H126027   4.392   0.252   3.791
 8690TIP3    H226028   4.311   0.272   3.917
 8691TIP3   OH226029   0.471   2.597   6.746
 8691TIP3    H126030   0.422   2.602   6.663
 8691TIP3    H226031   0.412   2.637   6.810
 8692TIP3   OH226032   4.460   0.062   1.894
 8692TIP3    H126033   4.382   0.117   1.897
 8692TIP3    H226034   4.465   0.033   1.804
 8693TIP3   OH226035   6.743   6.206   5.675
 8693TIP3    H126036   6.737   6.259   5.596
 8693TIP3    H226037   6.694   6.256   5.741
 8694TIP3   OH226038   2.310   7.059   1.213
 8694TIP3    H126039   2.317   7.153   1.197
 8694TIP3    H226040   2.246   7.052   1.283
 8695TIP3   OH226041   6.211   0.338   2.151
 8695TIP3    H126042   6.134   0.285   2.170
 8695TIP3    H226043   6.259   0.289   2.085
 8696TIP3   OH226044   0.546   6.774   1.089
 8696TIP3    H126045   0.578   6.690   1.120
 8696TIP3    H226046   0.614   6.805   1.029
 8697TIP3   OH226047   1.305   3.461   2.517
 8697TIP3    H126048   1.341   3.432   2.600
 8697TIP3    H226049   1.217   3.423   2.514
 8698TIP3   OH226050   0.586   3.531   2.357
 8698TIP3    H126051   0.528   3.600   2.390
 8698TIP3    H226052   0.623   3.492   2.437
 8699TIP3   OH226053   3.806   5.654   4.924
 8699TIP3    H126054   3.730   5.597   4.931
 8699TIP3    H226055   3.773   5.732   4.878
 8700TIP3   OH226056   3.637   6.949   4.886
 8700TIP3    H126057   3.550   6.976   4.857
 8700TIP3    H226058   3.696   6.983   4.819
 8701TIP3   OH226059   5.538   3.282   5.931
 8701TIP3    H126060   5.581   3.318   6.008
 8701TIP3    H226061   5.586   3.320   5.857
 8702TIP3   OH226062   2.903   6.921   3.169
 8702TIP3    H126063   2.979   6.893   3.117
 8702TIP3    H226064   2.829   6.911   3.110
 8703TIP3   OH226065   1.984   2.150   5.665
 8703TIP3    H126066   2.076   2.174   5.681
 8703TIP3    H226067   1.987   2.092   5.589
 8704TIP3   OH226068   1.883   3.574   6.229
 8704TIP3    H126069   1.802   3.547   6.184
 8704TIP3    H226070   1.953   3.544   6.171
 8705TIP3   OH226071   0.639   7.138   4.893
 8705TIP3    H126072   0.696   7.078   4.941
 8705TIP3    H226073   0.699   7.194   4.844
 8706TIP3   OH226074   5.555   2.157   5.810
 8706TIP3    H126075   5.571   2.195   5.896
 8706TIP3    H226076   5.592   2.219   5.748
 8707TIP3   OH226077   3.970   6.527   3.194
 8707TIP3    H126078   3.965   6.574   3.111
 8707TIP3    H226079   3.881   6.531   3.230
 8708TIP3   OH226080   1.804   6.645   6.645
 8708TIP3    H126081   1.808   6.637   6.740
 8708TIP3    H226082   1.839   6.562   6.613
 8709TIP3   OH226083   4.808   4.711   3.610
 8709TIP3    H126084   4.900   4.686   3.606
 8709TIP3    H226085   4.801   4.765   3.689
 8710TIP3   OH226086   2.091   7.369   4.198
 8710TIP3    H126087   2.129   7.447   4.239
 8710TIP3    H226088   2.011   7.401   4.157
 8711TIP3   OH226089   2.861   2.378   1.114
 8711TIP3    H126090   2.775   2.360   1.152
 8711TIP3    H226091   2.856   2.469   1.084
 8712TIP3   OH226092   7.182   0.224   5.520
 8712TIP3    H126093   7.101   0.187   5.555
 8712TIP3    H226094   7.203   0.168   5.445
 8713TIP3   OH226095   5.867   7.044   4.833
 8713TIP3    H126096   5.953   7.086   4.831
 8713TIP3    H226097   5.855   7.019   4.925
 8714TIP3   OH226098   0.680   6.493   4.785
 8714TIP3    H126099   0.696   6.406   4.748
 8714TIP3    H226100   0.587   6.509   4.768
 8715TIP3   OH226101   5.418   7.049   0.442
 8715TIP3    H126102   5.432   7.017   0.353
 8715TIP3    H226103   5.382   6.975   0.490
 8716TIP3   OH226104   2.664   2.948   5.733
 8716TIP3    H126105   2.626   2.877   5.784
 8716TIP3    H226106   2.669   2.914   5.644
 8717TIP3   OH226107   3.337   5.795   1.998
 8717TIP3    H126108   3.428   5.792   1.969
 8717TIP3    H226109   3.301   5.874   1.958
 8718TIP3   OH226110   2.879   2.885   0.220
 8718TIP3    H126111   2.840   2.892   0.133
 8718TIP3    H226112   2.903   2.792   0.228
 8719TIP3   OH226113   1.091   3.875   2.166
 8719TIP3    H126114   1.072   3.908   2.078
 8719TIP3    H226115   1.121   3.785   2.152
 8720TIP3   OH226116   3.085   0.173   2.266
 8720TIP3    H126117   3.028   0.120   2.210
 8720TIP3    H226118   3.173   0.143   2.246
 8721TIP3   OH226119   0.988   2.404   5.499
 8721TIP3    H126120   1.002   2.460   5.423
 8721TIP3    H226121   0.990   2.315   5.463
 8722TIP3   OH226122   2.119   0.652   1.190
 8722TIP3    H126123   2.055   0.681   1.125
 8722TIP3    H226124   2.165   0.732   1.216
 8723TIP3   OH226125   5.828   3.671   1.440
 8723TIP3    H126126   5.812   3.709   1.354
 8723TIP3    H226127   5.841   3.578   1.424
 8724TIP3   OH226128   6.368   5.390   4.848
 8724TIP3    H126129   6.328   5.437   4.920
 8724TIP3    H226130   6.456   5.427   4.842
 8725TIP3   OH226131   8.185   4.000   3.079
 8725TIP3    H126132   8.142   3.986   3.163
 8725TIP3    H226133   8.146   4.081   3.045
 8726TIP3   OH226134   3.812   2.179   0.505
 8726TIP3    H126135   3.771   2.168   0.591
 8726TIP3    H226136   3.897   2.136   0.513
 8727TIP3   OH226137   4.300   4.631   2.999
 8727TIP3    H126138   4.351   4.633   2.918
 8727TIP3    H226139   4.360   4.663   3.066
 8728TIP3   OH226140   7.733   1.200   5.679
 8728TIP3    H126141   7.734   1.189   5.774
 8728TIP3    H226142   7.761   1.115   5.645
 8729TIP3   OH226143   2.056   1.088   5.257
 8729TIP3    H126144   2.112   1.083   5.335
 8729TIP3    H226145   2.017   1.001   5.250
 8730TIP3   OH226146   3.522   2.244   6.231
 8730TIP3    H126147   3.604   2.289   6.216
 8730TIP3    H226148   3.491   2.276   6.315
 8731TIP3   OH226149   3.062   2.483   5.945
 8731TIP3    H126150   3.134   2.423   5.925
 8731TIP3    H226151   3.012   2.489   5.863
 8732TIP3   OH226152   3.929   5.184   6.127
 8732TIP3    H126153   3.950   5.263   6.076
 8732TIP3    H226154   3.944   5.112   6.066
 8733TIP3   OH226155   7.159   1.850   5.281
 8733TIP3    H126156   7.129   1.926   5.330
 8733TIP3    H226157   7.236   1.882   5.233
 8734TIP3   OH226158   6.388   7.753   3.872
 8734TIP3    H126159   6.453   7.745   3.942
 8734TIP3    H226160   6.401   7.675   3.819
 8735TIP3   OH226161   3.560   2.449   5.560
 8735TIP3    H126162   3.537   2.512   5.628
 8735TIP3    H226163   3.654   2.461   5.546
 8736TIP3   OH226164   1.818   2.133   6.468
 8736TIP3    H126165   1.800   2.227   6.475
 8736TIP3    H226166   1.856   2.110   6.553
 8737TIP3   OH226167   7.079   0.184   2.839
 8737TIP3    H126168   7.142   0.215   2.773
 8737TIP3    H226169   6.997   0.172   2.791
 8738TIP3   OH226170   7.733   5.258   4.540
 8738TIP3    H126171   7.638   5.244   4.544
 8738TIP3    H226172   7.745   5.323   4.471
 8739TIP3   OH226173   3.080   6.773   2.724
 8739TIP3    H126174   3.076   6.809   2.636
 8739TIP3    H226175   3.119   6.686   2.713
 8740TIP3   OH226176   0.519   1.123   5.544
 8740TIP3    H126177   0.481   1.037   5.557
 8740TIP3    H226178   0.495   1.148   5.455
 8741TIP3   OH226179   2.899   2.967   0.470
 8741TIP3    H126180   2.881   2.934   0.382
 8741TIP3    H226181   2.981   2.924   0.496
 8742TIP3   OH226182   5.725   5.460   6.351
 8742TIP3    H126183   5.711   5.447   6.257
 8742TIP3    H226184   5.814   5.430   6.367
 8743TIP3   OH226185   1.852   7.007   6.752
 8743TIP3    H126186   1.921   6.969   6.697
 8743TIP3    H226187   1.789   7.044   6.691
 8744TIP3   OH226188   5.804   0.724   6.517
 8744TIP3    H126189   5.877   0.745   6.459
 8744TIP3    H226190   5.836   0.744   6.605
 8745TIP3   OH226191   6.657   1.135   3.037
 8745TIP3    H126192   6.711   1.115   2.961
 8745TIP3    H226193   6.605   1.056   3.052
 8746TIP3   OH226194   1.191   2.242   4.918
 8746TIP3    H126195   1.279   2.279   4.908
 8746TIP3    H226196   1.135   2.299   4.866
 8747TIP3   OH226197   2.814   6.489   2.078
 8747TIP3    H126198   2.797   6.583   2.079
 8747TIP3    H226199   2.758   6.455   2.008
 8748TIP3   OH226200   2.455   3.009   0.093
 8748TIP3    H126201   2.508   3.084   0.120
 8748TIP3    H226202   2.454   2.952   0.169
 8749TIP3   OH226203   7.382   0.650   5.052
 8749TIP3    H126204   7.415   0.740   5.050
 8749TIP3    H226205   7.322   0.649   5.126
 8750TIP3   OH226206   2.524   4.719   6.031
 8750TIP3    H126207   2.464   4.752   6.098
 8750TIP3    H226208   2.611   4.739   6.065
 8751TIP3   OH226209   6.522   4.544   4.087
 8751TIP3    H126210   6.446   4.537   4.145
 8751TIP3    H226211   6.537   4.455   4.056
 8752TIP3   OH226212   5.379   3.378   4.313
 8752TIP3    H126213   5.417   3.301   4.356
 8752TIP3    H226214   5.339   3.343   4.233
 8753TIP3   OH226215   1.633   2.629   4.431
 8753TIP3    H126216   1.620   2.711   4.477
 8753TIP3    H226217   1.614   2.561   4.497
 8754TIP3   OH226218   6.301   0.661   2.818
 8754TIP3    H126219   6.378   0.684   2.870
 8754TIP3    H226220   6.315   0.705   2.734
 8755TIP3   OH226221   7.258   7.366   6.780
 8755TIP3    H126222   7.255   7.436   6.715
 8755TIP3    H226223   7.193   7.390   6.845
 8756TIP3   OH226224   1.684   5.516   6.750
 8756TIP3    H126225   1.736   5.479   6.821
 8756TIP3    H226226   1.706   5.463   6.673
 8757TIP3   OH226227   3.357   3.600   6.006
 8757TIP3    H126228   3.324   3.661   5.940
 8757TIP3    H226229   3.281   3.548   6.031
 8758TIP3   OH226230   0.600   3.922   1.813
 8758TIP3    H126231   0.549   3.910   1.733
 8758TIP3    H226232   0.616   4.016   1.817
 8759TIP3   OH226233   2.410   0.723   1.003
 8759TIP3    H126234   2.405   0.808   1.048
 8759TIP3    H226235   2.329   0.719   0.952
 8760TIP3   OH226236   1.678   4.031   2.167
 8760TIP3    H126237   1.735   4.044   2.091
 8760TIP3    H226238   1.599   4.082   2.145
 8761TIP3   OH226239   4.206   1.827   6.291
 8761TIP3    H126240   4.288   1.796   6.254
 8761TIP3    H226241   4.143   1.820   6.219
 8762TIP3   OH226242   7.674   2.202   0.341
 8762TIP3    H126243   7.641   2.149   0.268
 8762TIP3    H226244   7.741   2.148   0.381
 8763TIP3   OH226245   7.132   7.757   0.095
 8763TIP3    H126246   7.195   7.720   0.034
 8763TIP3    H226247   7.121   7.690   0.162
 8764TIP3   OH226248   4.980   0.057   1.582
 8764TIP3    H126249   4.906   0.115   1.562
 8764TIP3    H226250   4.938  -0.023   1.614
 8765TIP3   OH226251   1.975   2.245   0.654
 8765TIP3    H126252   1.953   2.334   0.626
 8765TIP3    H226253   1.891   2.205   0.675
 8766TIP3   OH226254   7.085   2.734   1.821
 8766TIP3    H126255   7.092   2.650   1.866
 8766TIP3    H226256   7.006   2.726   1.768
 8767TIP3   OH226257   0.287   5.091   2.189
 8767TIP3    H126258   0.342   5.158   2.230
 8767TIP3    H226259   0.252   5.134   2.111
 8768TIP3   OH226260   4.452   4.792   3.168
 8768TIP3    H126261   4.537   4.814   3.206
 8768TIP3    H226262   4.411   4.876   3.151
 8769TIP3   OH226263   0.871   4.566   3.162
 8769TIP3    H126264   0.816   4.593   3.088
 8769TIP3    H226265   0.842   4.477   3.183
 8770TIP3   OH226266   1.093   3.129   0.386
 8770TIP3    H126267   1.053   3.191   0.447
 8770TIP3    H226268   1.109   3.051   0.438
 8771TIP3   OH226269   2.917   7.791   4.744
 8771TIP3    H126270   2.963   7.764   4.664
 8771TIP3    H226271   2.899   7.884   4.731
 8772TIP3   OH226272   4.002   0.672   6.024
 8772TIP3    H126273   3.974   0.727   5.951
 8772TIP3    H226274   3.953   0.591   6.012
 8773TIP3   OH226275   2.568   4.453   1.056
 8773TIP3    H126276   2.549   4.538   1.095
 8773TIP3    H226277   2.492   4.436   1.000
 8774TIP3   OH226278   1.200   4.042   3.413
 8774TIP3    H126279   1.209   3.959   3.367
 8774TIP3    H226280   1.210   4.019   3.505
 8775TIP3   OH226281   4.203   5.510   2.913
 8775TIP3    H126282   4.120   5.468   2.891
 8775TIP3    H226283   4.236   5.460   2.988
 8776TIP3   OH226284   3.431   1.029   1.976
 8776TIP3    H126285   3.518   1.005   1.943
 8776TIP3    H226286   3.388   1.071   1.901
 8777TIP3   OH226287   3.623   4.761   1.115
 8777TIP3    H126288   3.538   4.795   1.088
 8777TIP3    H226289   3.681   4.837   1.112
 8778TIP3   OH226290   6.584   0.987   6.555
 8778TIP3    H126291   6.581   1.048   6.482
 8778TIP3    H226292   6.516   0.923   6.536
 8779TIP3   OH226293   5.811   4.421   0.787
 8779TIP3    H126294   5.768   4.365   0.722
 8779TIP3    H226295   5.885   4.369   0.819
 8780TIP3   OH226296   2.951   0.382   0.931
 8780TIP3    H126297   2.881   0.399   0.868
 8780TIP3    H226298   2.912   0.401   1.016
 8781TIP3   OH226299   0.251   5.506   4.522
 8781TIP3    H126300   0.297   5.436   4.569
 8781TIP3    H226301   0.284   5.587   4.560
 8782TIP3   OH226302   2.491   1.300   4.327
 8782TIP3    H126303   2.555   1.361   4.363
 8782TIP3    H226304   2.519   1.214   4.358
 8783TIP3   OH226305   7.643   1.849   2.074
 8783TIP3    H126306   7.703   1.885   2.140
 8783TIP3    H226307   7.612   1.767   2.112
 8784TIP3   OH226308   7.336   6.780   5.207
 8784TIP3    H126309   7.428   6.767   5.185
 8784TIP3    H226310   7.311   6.858   5.157
 8785TIP3   OH226311   6.476   6.877   0.288
 8785TIP3    H126312   6.459   6.810   0.223
 8785TIP3    H226313   6.561   6.852   0.326
 8786TIP3   OH226314   6.874   4.831   2.802
 8786TIP3    H126315   6.948   4.879   2.765
 8786TIP3    H226316   6.892   4.829   2.896
 8787TIP3   OH226317   3.300   4.854   0.151
 8787TIP3    H126318   3.304   4.762   0.124
 8787TIP3    H226319   3.300   4.903   0.068
 8788TIP3   OH226320   7.298   2.107   5.944
 8788TIP3    H126321   7.256   2.124   5.859
 8788TIP3    H226322   7.235   2.052   5.991
 8789TIP3   OH226323   7.519   2.599   6.599
 8789TIP3    H126324   7.433   2.557   6.598
 8789TIP3    H226325   7.535   2.620   6.691
 8790TIP3   OH226326   6.249   1.063   2.846
 8790TIP3    H126327   6.188   0.997   2.814
 8790TIP3    H226328   6.334   1.037   2.810
 8791TIP3   OH226329   6.114   3.993   4.782
 8791TIP3    H126330   6.139   3.908   4.747
 8791TIP3    H226331   6.111   4.050   4.705
 8792TIP3   OH226332   2.470   5.455   4.219
 8792TIP3    H126333   2.470   5.538   4.267
 8792TIP3    H226334   2.562   5.439   4.199
 8793TIP3   OH226335   5.918   4.724   3.990
 8793TIP3    H126336   5.986   4.666   4.025
 8793TIP3    H226337   5.836   4.682   4.017
 8794TIP3   OH226338   1.510   6.904   2.813
 8794TIP3    H126339   1.481   6.891   2.903
 8794TIP3    H226340   1.462   6.982   2.783
 8795TIP3   OH226341   1.776   4.242   5.300
 8795TIP3    H126342   1.780   4.289   5.217
 8795TIP3    H226343   1.697   4.189   5.293
 8796TIP3   OH226344   7.125   0.124   3.982
 8796TIP3    H126345   7.095   0.192   4.042
 8796TIP3    H226346   7.045   0.089   3.943
 8797TIP3   OH226347   5.770   6.984   5.090
 8797TIP3    H126348   5.766   6.901   5.137
 8797TIP3    H226349   5.800   7.047   5.156
 8798TIP3   OH226350   8.164   4.115   2.475
 8798TIP3    H126351   8.181   4.047   2.410
 8798TIP3    H226352   8.209   4.193   2.442
 8799TIP3   OH226353   7.746   6.232   2.698
 8799TIP3    H126354   7.754   6.250   2.792
 8799TIP3    H226355   7.652   6.235   2.681
 8800TIP3   OH226356   6.835   0.671   5.037
 8800TIP3    H126357   6.789   0.711   5.111
 8800TIP3    H226358   6.765   0.628   4.986
 8801TIP3   OH226359   7.532   0.907   2.961
 8801TIP3    H126360   7.559   0.877   3.048
 8801TIP3    H226361   7.532   1.002   2.967
 8802TIP3   OH226362   4.704   0.984   6.657
 8802TIP3    H126363   4.700   0.916   6.590
 8802TIP3    H226364   4.645   1.052   6.624
 8803TIP3   OH226365   0.171   5.067   0.389
 8803TIP3    H126366   0.263   5.055   0.368
 8803TIP3    H226367   0.171   5.124   0.466
 8804TIP3   OH226368   2.022   5.663   6.072
 8804TIP3    H126369   2.093   5.705   6.023
 8804TIP3    H226370   2.066   5.614   6.141
 8805TIP3   OH226371   2.323   1.974   4.757
 8805TIP3    H126372   2.277   1.925   4.689
 8805TIP3    H226373   2.326   1.914   4.832
 8806TIP3   OH226374   2.363   0.862   2.601
 8806TIP3    H126375   2.403   0.890   2.518
 8806TIP3    H226376   2.372   0.767   2.600
 8807TIP3   OH226377   4.322   1.766   5.823
 8807TIP3    H126378   4.376   1.841   5.847
 8807TIP3    H226379   4.298   1.781   5.732
 8808TIP3   OH226380   0.221   3.569   5.995
 8808TIP3    H126381   0.223   3.493   6.054
 8808TIP3    H226382   0.177   3.537   5.916
 8809TIP3   OH226383   1.404   6.316   2.729
 8809TIP3    H126384   1.373   6.227   2.742
 8809TIP3    H226385   1.464   6.331   2.803
 8810TIP3   OH226386   4.136   1.103   6.272
 8810TIP3    H126387   4.089   1.020   6.274
 8810TIP3    H226388   4.068   1.170   6.266
 8811TIP3   OH226389   4.813   7.595   2.929
 8811TIP3    H126390   4.773   7.585   3.015
 8811TIP3    H226391   4.740   7.588   2.868
 8812TIP3   OH226392   5.971   5.521   5.769
 8812TIP3    H126393   5.972   5.507   5.674
 8812TIP3    H226394   5.905   5.588   5.783
 8813TIP3   OH226395   8.205   2.335   2.796
 8813TIP3    H126396   8.159   2.253   2.817
 8813TIP3    H226397   8.167   2.362   2.713
 8814TIP3   OH226398   6.549   3.530   3.808
 8814TIP3    H126399   6.477   3.468   3.821
 8814TIP3    H226400   6.599   3.493   3.735
 8815TIP3   OH226401   1.731   4.092   1.771
 8815TIP3    H126402   1.666   4.152   1.736
 8815TIP3    H226403   1.760   4.132   1.853
 8816TIP3   OH226404   2.415   5.862   2.907
 8816TIP3    H126405   2.412   5.928   2.975
 8816TIP3    H226406   2.342   5.883   2.849
 8817TIP3   OH226407   6.515   1.814   6.273
 8817TIP3    H126408   6.451   1.775   6.333
 8817TIP3    H226409   6.461   1.859   6.207
 8818TIP3   OH226410   2.870   5.756   6.326
 8818TIP3    H126411   2.809   5.683   6.317
 8818TIP3    H226412   2.932   5.744   6.253
 8819TIP3   OH226413   1.713   3.751   1.187
 8819TIP3    H126414   1.708   3.773   1.094
 8819TIP3    H226415   1.770   3.674   1.191
 8820TIP3   OH226416   6.587   2.090   5.492
 8820TIP3    H126417   6.501   2.101   5.532
 8820TIP3    H226418   6.636   2.035   5.553
 8821TIP3   OH226419   6.108   1.115   6.099
 8821TIP3    H126420   6.109   1.207   6.127
 8821TIP3    H226421   6.098   1.119   6.004
 8822TIP3   OH226422   0.832   2.137   5.097
 8822TIP3    H126423   0.899   2.143   5.165
 8822TIP3    H226424   0.798   2.047   5.106
 8823TIP3   OH226425   0.357   3.529   0.922
 8823TIP3    H126426   0.396   3.562   0.841
 8823TIP3    H226427   0.329   3.440   0.900
 8824TIP3   OH226428   4.572   5.215   2.694
 8824TIP3    H126429   4.545   5.132   2.653
 8824TIP3    H226430   4.515   5.223   2.771
 8825TIP3   OH226431   4.633   5.187   4.332
 8825TIP3    H126432   4.667   5.217   4.247
 8825TIP3    H226433   4.544   5.158   4.313
 8826TIP3   OH226434   0.133   7.649   3.646
 8826TIP3    H126435   0.091   7.568   3.676
 8826TIP3    H226436   0.061   7.707   3.623
 8827TIP3   OH226437   3.702   7.152   0.734
 8827TIP3    H126438   3.787   7.196   0.741
 8827TIP3    H226439   3.650   7.210   0.677
 8828TIP3   OH226440   2.535   6.751   2.302
 8828TIP3    H126441   2.589   6.683   2.342
 8828TIP3    H226442   2.448   6.736   2.337
 8829TIP3   OH226443   4.391   0.293   0.362
 8829TIP3    H126444   4.389   0.305   0.457
 8829TIP3    H226445   4.431   0.374   0.329
 8830TIP3   OH226446   2.878   3.711   3.976
 8830TIP3    H126447   2.921   3.726   3.892
 8830TIP3    H226448   2.836   3.625   3.967
 8831TIP3   OH226449   7.621   5.370   4.304
 8831TIP3    H126450   7.567   5.330   4.236
 8831TIP3    H226451   7.563   5.379   4.379
 8832TIP3   OH226452   0.150   5.958   1.931
 8832TIP3    H126453   0.178   6.049   1.919
 8832TIP3    H226454   0.112   5.955   2.019
 8833TIP3   OH226455   0.454   1.866   3.313
 8833TIP3    H126456   0.491   1.781   3.288
 8833TIP3    H226457   0.428   1.855   3.404
 8834TIP3   OH226458   7.642   4.152   3.743
 8834TIP3    H126459   7.667   4.238   3.710
 8834TIP3    H226460   7.687   4.090   3.685
 8835TIP3   OH226461   4.904   4.211   4.815
 8835TIP3    H126462   4.924   4.260   4.735
 8835TIP3    H226463   4.810   4.191   4.808
 8836TIP3   OH226464   6.430   5.194   1.023
 8836TIP3    H126465   6.495   5.124   1.014
 8836TIP3    H226466   6.373   5.182   0.947
 8837TIP3   OH226467   5.139   7.129   1.336
 8837TIP3    H126468   5.160   7.097   1.424
 8837TIP3    H226469   5.208   7.092   1.281
 8838TIP3   OH226470   6.541   5.795   3.116
 8838TIP3    H126471   6.600   5.725   3.145
 8838TIP3    H226472   6.479   5.751   3.058
 8839TIP3   OH226473   4.374   1.672   4.797
 8839TIP3    H126474   4.419   1.632   4.722
 8839TIP3    H226475   4.282   1.671   4.773
 8840TIP3   OH226476   7.872   5.946   5.525
 8840TIP3    H126477   7.944   5.991   5.570
 8840TIP3    H226478   7.915   5.894   5.457
 8841TIP3   OH226479   5.272   2.896   3.337
 8841TIP3    H126480   5.228   2.931   3.260
 8841TIP3    H226481   5.243   2.950   3.410
 8842TIP3   OH226482   3.375   7.801   0.788
 8842TIP3    H126483   3.364   7.813   0.693
 8842TIP3    H226484   3.350   7.710   0.804
 8843TIP3   OH226485   7.512   2.683   4.850
 8843TIP3    H126486   7.468   2.662   4.933
 8843TIP3    H226487   7.564   2.605   4.831
 8844TIP3   OH226488   2.054   0.231   6.223
 8844TIP3    H126489   2.042   0.326   6.231
 8844TIP3    H226490   1.979   0.194   6.270
 8845TIP3   OH226491   4.500   5.073   1.112
 8845TIP3    H126492   4.456   5.068   1.027
 8845TIP3    H226493   4.592   5.090   1.091
 8846TIP3   OH226494   4.076   4.741   4.485
 8846TIP3    H126495   4.081   4.836   4.473
 8846TIP3    H226496   4.058   4.728   4.578
 8847TIP3   OH226497   4.449   3.341   3.578
 8847TIP3    H126498   4.372   3.385   3.614
 8847TIP3    H226499   4.413   3.279   3.514
 8848TIP3   OH226500   0.475   0.751   3.068
 8848TIP3    H126501   0.395   0.723   3.113
 8848TIP3    H226502   0.456   0.841   3.039
 8849TIP3   OH226503   7.082   7.224   1.418
 8849TIP3    H126504   7.147   7.192   1.481
 8849TIP3    H226505   7.131   7.232   1.336
 8850TIP3   OH226506   2.130   4.447   3.142
 8850TIP3    H126507   2.193   4.390   3.187
 8850TIP3    H226508   2.149   4.435   3.049
 8851TIP3   OH226509   5.024   0.619   4.631
 8851TIP3    H126510   5.007   0.544   4.574
 8851TIP3    H226511   5.012   0.585   4.719
 8852TIP3   OH226512   3.656   4.257   0.830
 8852TIP3    H126513   3.726   4.263   0.765
 8852TIP3    H226514   3.632   4.165   0.832
 8853TIP3   OH226515   8.282   0.294   4.792
 8853TIP3    H126516   8.371   0.263   4.774
 8853TIP3    H226517   8.282   0.385   4.764
 8854TIP3   OH226518   3.605   4.947   2.860
 8854TIP3    H126519   3.631   4.981   2.946
 8854TIP3    H226520   3.558   4.866   2.880
 8855TIP3   OH226521   0.743   4.582   2.679
 8855TIP3    H126522   0.654   4.617   2.675
 8855TIP3    H226523   0.800   4.656   2.657
 8856TIP3   OH226524   1.826   3.156   5.486
 8856TIP3    H126525   1.862   3.242   5.467
 8856TIP3    H226526   1.731   3.168   5.476
 8857TIP3   OH226527   3.129   4.025   0.153
 8857TIP3    H126528   3.157   4.116   0.140
 8857TIP3    H226529   3.174   3.998   0.233
 8858TIP3   OH226530   4.230   6.349   3.823
 8858TIP3    H126531   4.203   6.415   3.759
 8858TIP3    H226532   4.229   6.267   3.774
 8859TIP3   OH226533   0.081   5.999   3.220
 8859TIP3    H126534   0.027   5.923   3.244
 8859TIP3    H226535   0.084   6.052   3.300
 8860TIP3   OH226536   3.699   1.200   6.079
 8860TIP3    H126537   3.707   1.206   5.984
 8860TIP3    H226538   3.648   1.277   6.104
 8861TIP3   OH226539   6.493   7.413   3.090
 8861TIP3    H126540   6.566   7.448   3.142
 8861TIP3    H226541   6.417   7.423   3.147
 8862TIP3   OH226542   0.101   6.683   3.291
 8862TIP3    H126543   0.166   6.744   3.256
 8862TIP3    H226544   0.052   6.653   3.215
 8863TIP3   OH226545   1.194   7.305   0.295
 8863TIP3    H126546   1.144   7.228   0.268
 8863TIP3    H226547   1.137   7.351   0.357
 8864TIP3   OH226548   5.149   2.750   3.618
 8864TIP3    H126549   5.123   2.683   3.554
 8864TIP3    H226550   5.163   2.702   3.699
 8865TIP3   OH226551   3.062   5.126   3.010
 8865TIP3    H126552   3.047   5.036   2.982
 8865TIP3    H226553   3.047   5.125   3.105
 8866TIP3   OH226554   3.380   7.127   1.190
 8866TIP3    H126555   3.403   7.147   1.281
 8866TIP3    H226556   3.307   7.185   1.171
 8867TIP3   OH226557   3.806   0.554   3.313
 8867TIP3    H126558   3.736   0.520   3.369
 8867TIP3    H226559   3.791   0.648   3.309
 8868TIP3   OH226560   7.237   1.941   3.719
 8868TIP3    H126561   7.289   2.001   3.665
 8868TIP3    H226562   7.284   1.858   3.716
 8869TIP3   OH226563   4.493   1.694   3.976
 8869TIP3    H126564   4.412   1.737   3.951
 8869TIP3    H226565   4.555   1.765   3.989
 8870TIP3   OH226566   6.943   5.384   5.628
 8870TIP3    H126567   6.967   5.429   5.547
 8870TIP3    H226568   6.849   5.399   5.638
 8871TIP3   OH226569   3.273   7.293   3.441
 8871TIP3    H126570   3.308   7.295   3.352
 8871TIP3    H226571   3.348   7.309   3.498
 8872TIP3   OH226572   2.891   6.801   6.145
 8872TIP3    H126573   2.808   6.841   6.168
 8872TIP3    H226574   2.926   6.857   6.075
 8873TIP3   OH226575   8.207   0.385   3.591
 8873TIP3    H126576   8.201   0.472   3.553
 8873TIP3    H226577   8.192   0.325   3.518
 8874TIP3   OH226578   5.713   1.446   2.836
 8874TIP3    H126579   5.667   1.390   2.774
 8874TIP3    H226580   5.791   1.396   2.861
 8875TIP3   OH226581   6.582   4.897   0.260
 8875TIP3    H126582   6.657   4.953   0.241
 8875TIP3    H226583   6.510   4.958   0.279
 8876TIP3   OH226584   7.014   5.470   3.254
 8876TIP3    H126585   7.096   5.426   3.236
 8876TIP3    H226586   6.993   5.448   3.344
 8877TIP3   OH226587   0.889   4.921   1.264
 8877TIP3    H126588   0.903   4.916   1.359
 8877TIP3    H226589   0.805   4.966   1.254
 8878TIP3   OH226590   1.597   5.497   0.692
 8878TIP3    H126591   1.578   5.435   0.621
 8878TIP3    H226592   1.685   5.471   0.722
 8879TIP3   OH226593   3.601   6.055   0.602
 8879TIP3    H126594   3.596   6.121   0.670
 8879TIP3    H226595   3.691   6.022   0.607
 8880TIP3   OH226596   7.917   4.073   2.177
 8880TIP3    H126597   7.866   4.023   2.241
 8880TIP3    H226598   7.904   4.164   2.201
 8881TIP3   OH226599   1.332   2.322   2.139
 8881TIP3    H126600   1.401   2.378   2.102
 8881TIP3    H226601   1.260   2.328   2.076
 8882TIP3   OH226602   6.913   7.006   1.404
 8882TIP3    H126603   6.960   7.089   1.411
 8882TIP3    H226604   6.822   7.028   1.422
 8883TIP3   OH226605   7.115   6.297   1.047
 8883TIP3    H126606   7.177   6.362   1.079
 8883TIP3    H226607   7.150   6.213   1.077
 8884TIP3   OH226608   5.625   1.853   3.568
 8884TIP3    H126609   5.620   1.924   3.633
 8884TIP3    H226610   5.618   1.773   3.620
 8885TIP3   OH226611   3.446   5.872   3.081
 8885TIP3    H126612   3.390   5.830   3.146
 8885TIP3    H226613   3.532   5.831   3.092
 8886TIP3   OH226614   3.191   3.858   2.822
 8886TIP3    H126615   3.204   3.867   2.916
 8886TIP3    H226616   3.258   3.913   2.782
 8887TIP3   OH226617   1.726   0.466   4.920
 8887TIP3    H126618   1.710   0.374   4.899
 8887TIP3    H226619   1.674   0.482   4.998
 8888TIP3   OH226620   3.365   6.881   4.607
 8888TIP3    H126621   3.347   6.930   4.687
 8888TIP3    H226622   3.287   6.826   4.594
 8889TIP3   OH226623   6.863   3.266   5.555
 8889TIP3    H126624   6.799   3.267   5.626
 8889TIP3    H226625   6.848   3.347   5.507
 8890TIP3   OH226626   2.381   3.076   5.868
 8890TIP3    H126627   2.341   3.088   5.782
 8890TIP3    H226628   2.428   3.157   5.885
 8891TIP3   OH226629   4.351   4.889   4.999
 8891TIP3    H126630   4.408   4.819   4.971
 8891TIP3    H226631   4.370   4.900   5.092
 8892TIP3   OH226632   1.470   0.078   3.343
 8892TIP3    H126633   1.475   0.164   3.301
 8892TIP3    H226634   1.414   0.027   3.286
 8893TIP3   OH226635   3.199   1.106   2.561
 8893TIP3    H126636   3.122   1.062   2.597
 8893TIP3    H226637   3.216   1.061   2.478
 8894TIP3   OH226638   6.706   6.284   4.035
 8894TIP3    H126639   6.798   6.307   4.023
 8894TIP3    H226640   6.692   6.211   3.975
 8895TIP3   OH226641   3.759   4.398   6.135
 8895TIP3    H126642   3.761   4.340   6.059
 8895TIP3    H226643   3.673   4.383   6.174
 8896TIP3   OH226644   2.175   3.625   5.250
 8896TIP3    H126645   2.177   3.714   5.286
 8896TIP3    H226646   2.119   3.576   5.311
 8897TIP3   OH226647   4.258   3.753   2.045
 8897TIP3    H126648   4.164   3.745   2.032
 8897TIP3    H226649   4.269   3.760   2.140
 8898TIP3   OH226650   4.074   6.967   5.096
 8898TIP3    H126651   4.059   7.027   5.023
 8898TIP3    H226652   3.987   6.934   5.119
 8899TIP3   OH226653   7.279   5.366   3.673
 8899TIP3    H126654   7.316   5.440   3.626
 8899TIP3    H226655   7.343   5.295   3.661
 8900TIP3   OH226656   2.152   4.875   1.167
 8900TIP3    H126657   2.070   4.917   1.193
 8900TIP3    H226658   2.209   4.947   1.142
 8901TIP3   OH226659   7.233   3.637   1.310
 8901TIP3    H126660   7.282   3.682   1.242
 8901TIP3    H226661   7.141   3.655   1.291
 8902TIP3   OH226662   6.762   6.885   3.753
 8902TIP3    H126663   6.720   6.803   3.781
 8902TIP3    H226664   6.764   6.879   3.658
 8903TIP3   OH226665   5.422   5.395   5.492
 8903TIP3    H126666   5.463   5.365   5.411
 8903TIP3    H226667   5.493   5.399   5.555
 8904TIP3   OH226668   6.245   6.840   2.093
 8904TIP3    H126669   6.281   6.880   2.173
 8904TIP3    H226670   6.211   6.755   2.122
 8905TIP3   OH226671   8.191   7.352   2.993
 8905TIP3    H126672   8.128   7.424   2.989
 8905TIP3    H226673   8.275   7.393   2.974
 8906TIP3   OH226674   3.710   7.714   2.042
 8906TIP3    H126675   3.661   7.685   1.966
 8906TIP3    H226676   3.732   7.806   2.023
 8907TIP3   OH226677   1.233   7.693   3.791
 8907TIP3    H126678   1.301   7.760   3.787
 8907TIP3    H226679   1.239   7.647   3.708
 8908TIP3   OH226680   7.276   5.365   0.572
 8908TIP3    H126681   7.237   5.285   0.606
 8908TIP3    H226682   7.340   5.335   0.508
 8909TIP3   OH226683   7.826   4.768   6.295
 8909TIP3    H126684   7.838   4.723   6.211
 8909TIP3    H226685   7.901   4.739   6.348
 8910TIP3   OH226686   1.126   5.415   1.624
 8910TIP3    H126687   1.205   5.468   1.614
 8910TIP3    H226688   1.054   5.478   1.618
 8911TIP3   OH226689   0.687   7.310   1.401
 8911TIP3    H126690   0.667   7.293   1.494
 8911TIP3    H226691   0.782   7.317   1.398
 8912TIP3   OH226692   3.842   6.816   5.020
 8912TIP3    H126693   3.831   6.728   4.985
 8912TIP3    H226694   3.778   6.869   4.973
 8913TIP3   OH226695   6.549   2.708   1.847
 8913TIP3    H126696   6.534   2.614   1.843
 8913TIP3    H226697   6.475   2.743   1.896
 8914TIP3   OH226698   1.700   5.749   1.713
 8914TIP3    H126699   1.752   5.819   1.752
 8914TIP3    H226700   1.629   5.735   1.775
 8915TIP3   OH226701   2.859   1.145   0.417
 8915TIP3    H126702   2.908   1.179   0.342
 8915TIP3    H226703   2.826   1.060   0.387
 8916TIP3   OH226704   4.221   5.957   0.496
 8916TIP3    H126705   4.264   5.950   0.411
 8916TIP3    H226706   4.204   6.051   0.507
 8917TIP3   OH226707   1.779   2.627   5.799
 8917TIP3    H126708   1.808   2.543   5.836
 8917TIP3    H226709   1.792   2.617   5.705
 8918TIP3   OH226710   5.782   1.814   4.396
 8918TIP3    H126711   5.710   1.854   4.445
 8918TIP3    H226712   5.744   1.793   4.310
 8919TIP3   OH226713   3.837   5.016   4.261
 8919TIP3    H126714   3.745   4.996   4.243
 8919TIP3    H226715   3.843   5.111   4.257
 8920TIP3   OH226716   6.281   0.769   1.668
 8920TIP3    H126717   6.283   0.787   1.762
 8920TIP3    H226718   6.372   0.780   1.639
 8921TIP3   OH226719   1.862   6.427   4.523
 8921TIP3    H126720   1.886   6.334   4.523
 8921TIP3    H226721   1.796   6.434   4.592
 8922TIP3   OH226722   1.719   0.040   5.949
 8922TIP3    H126723   1.766   0.092   5.884
 8922TIP3    H226724   1.781  -0.029   5.974
 8923TIP3   OH226725   0.871   4.187   0.623
 8923TIP3    H126726   0.886   4.154   0.712
 8923TIP3    H226727   0.946   4.244   0.605
 8924TIP3   OH226728   6.557   6.083   4.227
 8924TIP3    H126729   6.527   6.170   4.201
 8924TIP3    H226730   6.483   6.046   4.276
 8925TIP3   OH226731   1.271   0.882   2.904
 8925TIP3    H126732   1.312   0.962   2.936
 8925TIP3    H226733   1.280   0.886   2.809
 8926TIP3   OH226734   7.364   0.549   0.208
 8926TIP3    H126735   7.298   0.481   0.223
 8926TIP3    H226736   7.314   0.626   0.181
 8927TIP3   OH226737   2.363   3.170   3.695
 8927TIP3    H126738   2.361   3.074   3.701
 8927TIP3    H226739   2.306   3.190   3.621
 8928TIP3   OH226740   3.742   2.515   5.868
 8928TIP3    H126741   3.819   2.570   5.884
 8928TIP3    H226742   3.775   2.425   5.875
 8929TIP3   OH226743   2.097   2.362   5.394
 8929TIP3    H126744   2.015   2.332   5.354
 8929TIP3    H226745   2.158   2.371   5.321
 8930TIP3   OH226746   7.847   2.660   3.725
 8930TIP3    H126747   7.807   2.747   3.734
 8930TIP3    H226748   7.798   2.619   3.654
 8931TIP3   OH226749   7.062   0.520   1.735
 8931TIP3    H126750   7.103   0.434   1.736
 8931TIP3    H226751   7.056   0.545   1.827
 8932TIP3   OH226752   0.913   2.119   5.811
 8932TIP3    H126753   0.956   2.172   5.878
 8932TIP3    H226754   0.964   2.038   5.808
 8933TIP3   OH226755   5.389   5.248   3.999
 8933TIP3    H126756   5.422   5.257   3.910
 8933TIP3    H226757   5.294   5.252   3.990
 8934TIP3   OH226758   6.671   6.977   3.471
 8934TIP3    H126759   6.652   7.011   3.383
 8934TIP3    H226760   6.612   6.903   3.480
 8935TIP3   OH226761   6.318   6.625   5.132
 8935TIP3    H126762   6.408   6.597   5.113
 8935TIP3    H226763   6.308   6.612   5.226
 8936TIP3   OH226764   6.778   5.258   6.066
 8936TIP3    H126765   6.868   5.258   6.098
 8936TIP3    H226766   6.787   5.250   5.971
 8937TIP3   OH226767   7.814   3.247   2.826
 8937TIP3    H126768   7.831   3.176   2.765
 8937TIP3    H226769   7.815   3.206   2.912
 8938TIP3   OH226770   4.848   5.128   6.144
 8938TIP3    H126771   4.764   5.160   6.110
 8938TIP3    H226772   4.914   5.163   6.085
 8939TIP3   OH226773   7.331   4.681   3.909
 8939TIP3    H126774   7.265   4.645   3.969
 8939TIP3    H226775   7.364   4.758   3.955
 8940TIP3   OH226776   0.809   0.264   5.351
 8940TIP3    H126777   0.759   0.329   5.399
 8940TIP3    H226778   0.854   0.314   5.282
 8941TIP3   OH226779   5.666   2.809   5.941
 8941TIP3    H126780   5.585   2.825   5.989
 8941TIP3    H226781   5.698   2.897   5.918
 8942TIP3   OH226782   4.177   5.242   3.957
 8942TIP3    H126783   4.131   5.321   3.985
 8942TIP3    H226784   4.269   5.259   3.978
 8943TIP3   OH226785   0.634   4.407   3.834
 8943TIP3    H126786   0.729   4.406   3.818
 8943TIP3    H226787   0.614   4.498   3.854
 8944TIP3   OH226788   1.314   7.283   1.170
 8944TIP3    H126789   1.364   7.243   1.099
 8944TIP3    H226790   1.232   7.310   1.129
 8945TIP3   OH226791   6.675   3.188   6.456
 8945TIP3    H126792   6.586   3.221   6.444
 8945TIP3    H226793   6.705   3.229   6.537
 8946TIP3   OH226794   7.746   4.041   4.155
 8946TIP3    H126795   7.757   4.090   4.237
 8946TIP3    H226796   7.656   4.058   4.129
 8947TIP3   OH226797   0.597   5.149   6.547
 8947TIP3    H126798   0.622   5.115   6.461
 8947TIP3    H226799   0.615   5.077   6.608
 8948TIP3   OH226800   5.725   2.130   4.395
 8948TIP3    H126801   5.641   2.087   4.380
 8948TIP3    H226802   5.790   2.062   4.376
 8949TIP3   OH226803   2.992   3.065   6.730
 8949TIP3    H126804   2.988   2.970   6.733
 8949TIP3    H226805   2.904   3.094   6.754
 8950TIP3   OH226806   0.924   0.917   4.868
 8950TIP3    H126807   0.910   0.853   4.799
 8950TIP3    H226808   1.008   0.893   4.907
 8951TIP3   OH226809   2.276   3.241   5.655
 8951TIP3    H126810   2.236   3.228   5.569
 8951TIP3    H226811   2.350   3.299   5.639
 8952TIP3   OH226812   7.089   5.322   5.194
 8952TIP3    H126813   7.022   5.391   5.198
 8952TIP3    H226814   7.066   5.270   5.117
 8953TIP3   OH226815   4.354   4.001   2.294
 8953TIP3    H126816   4.395   3.925   2.254
 8953TIP3    H226817   4.427   4.053   2.328
 8954TIP3   OH226818   5.790   2.104   0.449
 8954TIP3    H126819   5.813   2.167   0.518
 8954TIP3    H226820   5.752   2.158   0.379
 8955TIP3   OH226821   2.237   4.024   3.467
 8955TIP3    H126822   2.294   4.076   3.523
 8955TIP3    H226823   2.253   3.933   3.493
 8956TIP3   OH226824   4.389   3.767   2.828
 8956TIP3    H126825   4.312   3.774   2.886
 8956TIP3    H226826   4.461   3.746   2.887
 8957TIP3   OH226827   5.978   5.070   2.933
 8957TIP3    H126828   5.961   5.113   3.017
 8957TIP3    H226829   5.940   4.982   2.942
 8958TIP3   OH226830   0.490   7.544   6.527
 8958TIP3    H126831   0.406   7.541   6.481
 8958TIP3    H226832   0.470   7.507   6.614
 8959TIP3   OH226833   7.033   1.292   4.486
 8959TIP3    H126834   7.027   1.324   4.396
 8959TIP3    H226835   7.021   1.197   4.478
 8960TIP3   OH226836   7.063   0.752   3.450
 8960TIP3    H126837   7.147   0.726   3.486
 8960TIP3    H226838   7.007   0.675   3.460
 8961TIP3   OH226839   6.607   7.363   4.919
 8961TIP3    H126840   6.545   7.349   4.847
 8961TIP3    H226841   6.551   7.378   4.995
 8962TIP3   OH226842   4.167   1.337   4.061
 8962TIP3    H126843   4.137   1.253   4.026
 8962TIP3    H226844   4.260   1.323   4.082
 8963TIP3   OH226845   4.312   1.824   1.071
 8963TIP3    H126846   4.404   1.840   1.090
 8963TIP3    H226847   4.273   1.912   1.067
 8964TIP3   OH226848   0.132   3.017   6.234
 8964TIP3    H126849   0.125   3.064   6.316
 8964TIP3    H226850   0.220   2.979   6.234
 8965TIP3   OH226851   3.009   5.900   4.765
 8965TIP3    H126852   3.026   5.994   4.766
 8965TIP3    H226853   3.004   5.875   4.857
 8966TIP3   OH226854   5.805   2.376   4.260
 8966TIP3    H126855   5.785   2.294   4.305
 8966TIP3    H226856   5.720   2.419   4.251
 8967TIP3   OH226857   3.475   5.575   4.316
 8967TIP3    H126858   3.416   5.645   4.345
 8967TIP3    H226859   3.556   5.620   4.292
 8968TIP3   OH226860   4.442   4.074   0.244
 8968TIP3    H126861   4.533   4.050   0.225
 8968TIP3    H226862   4.401   4.082   0.158
 8969TIP3   OH226863   0.208   3.209   0.600
 8969TIP3    H126864   0.290   3.167   0.625
 8969TIP3    H226865   0.181   3.163   0.520
 8970TIP3   OH226866   4.031   2.641   5.205
 8970TIP3    H126867   4.068   2.583   5.271
 8970TIP3    H226868   4.036   2.729   5.245
 8971TIP3   OH226869   4.037   7.230   4.082
 8971TIP3    H126870   4.020   7.302   4.143
 8971TIP3    H226871   3.974   7.162   4.107
 8972TIP3   OH226872   2.422   0.994   0.339
 8972TIP3    H126873   2.340   0.976   0.294
 8972TIP3    H226874   2.403   1.070   0.395
 8973TIP3   OH226875   7.510   4.917   6.036
 8973TIP3    H126876   7.592   4.940   6.079
 8973TIP3    H226877   7.491   4.993   5.980
 8974TIP3   OH226878   6.551   7.328   0.716
 8974TIP3    H126879   6.606   7.253   0.740
 8974TIP3    H226880   6.552   7.384   0.794
 8975TIP3   OH226881   2.592   2.431   1.733
 8975TIP3    H126882   2.627   2.511   1.773
 8975TIP3    H226883   2.622   2.361   1.791
 8976TIP3   OH226884   2.323   1.800   4.969
 8976TIP3    H126885   2.306   1.719   4.921
 8976TIP3    H226886   2.279   1.787   5.053
 8977TIP3   OH226887   4.417   5.460   5.920
 8977TIP3    H126888   4.432   5.555   5.917
 8977TIP3    H226889   4.436   5.436   6.011
 8978TIP3   OH226890   3.518   2.458   4.467
 8978TIP3    H126891   3.567   2.479   4.388
 8978TIP3    H226892   3.435   2.423   4.436
 8979TIP3   OH226893   6.480   3.501   6.015
 8979TIP3    H126894   6.437   3.420   5.986
 8979TIP3    H226895   6.490   3.553   5.936
 8980TIP3   OH226896   4.446   4.518   4.795
 8980TIP3    H126897   4.411   4.486   4.878
 8980TIP3    H226898   4.381   4.491   4.730
 8981TIP3   OH226899   7.980   1.082   5.444
 8981TIP3    H126900   8.065   1.043   5.421
 8981TIP3    H226901   7.925   1.008   5.467
 8982TIP3   OH226902   4.880   6.522   3.816
 8982TIP3    H126903   4.851   6.584   3.749
 8982TIP3    H226904   4.903   6.577   3.891
 8983TIP3   OH226905   6.064   1.510   2.540
 8983TIP3    H126906   5.988   1.485   2.488
 8983TIP3    H226907   6.127   1.544   2.476
 8984TIP3   OH226908   4.746   7.726   3.338
 8984TIP3    H126909   4.710   7.813   3.326
 8984TIP3    H226910   4.760   7.719   3.433
 8985TIP3   OH226911   7.566   4.269   6.298
 8985TIP3    H126912   7.547   4.224   6.216
 8985TIP3    H226913   7.660   4.261   6.310
 8986TIP3   OH226914   7.832   6.976   3.111
 8986TIP3    H126915   7.871   6.921   3.179
 8986TIP3    H226916   7.838   7.065   3.145
 8987TIP3   OH226917   6.683   5.265   1.239
 8987TIP3    H126918   6.640   5.281   1.324
 8987TIP3    H226919   6.644   5.183   1.208
 8988TIP3   OH226920   3.686   2.570   6.529
 8988TIP3    H126921   3.652   2.630   6.595
 8988TIP3    H226922   3.688   2.622   6.448
 8989TIP3   OH226923   7.739   6.041   3.100
 8989TIP3    H126924   7.705   6.054   3.189
 8989TIP3    H226925   7.736   6.128   3.061
 8990TIP3   OH226926   3.112   0.349   4.121
 8990TIP3    H126927   3.133   0.321   4.210
 8990TIP3    H226928   3.018   0.336   4.113
 8991TIP3   OH226929   4.580   0.843   0.283
 8991TIP3    H126930   4.645   0.841   0.213
 8991TIP3    H226931   4.532   0.924   0.270
 8992TIP3   OH226932   6.300   3.530   2.174
 8992TIP3    H126933   6.266   3.551   2.087
 8992TIP3    H226934   6.337   3.442   2.165
 8993TIP3   OH226935   5.384   0.475   2.934
 8993TIP3    H126936   5.302   0.502   2.893
 8993TIP3    H226937   5.359   0.408   2.997
 8994TIP3   OH226938   7.982   0.355   4.546
 8994TIP3    H126939   8.040   0.431   4.539
 8994TIP3    H226940   7.899   0.386   4.509
 8995TIP3   OH226941   7.283   2.020   1.146
 8995TIP3    H126942   7.350   2.068   1.196
 8995TIP3    H226943   7.312   2.026   1.055
 8996TIP3   OH226944   6.245   5.408   2.119
 8996TIP3    H126945   6.204   5.362   2.045
 8996TIP3    H226946   6.335   5.376   2.121
 8997TIP3   OH226947   5.954   2.596   0.688
 8997TIP3    H126948   5.922   2.622   0.775
 8997TIP3    H226949   5.946   2.676   0.636
 8998TIP3   OH226950   4.930   1.467   1.785
 8998TIP3    H126951   5.014   1.420   1.784
 8998TIP3    H226952   4.921   1.503   1.697
 8999TIP3   OH226953   7.480   0.299   4.071
 8999TIP3    H126954   7.569   0.268   4.088
 8999TIP3    H226955   7.482   0.333   3.982
 9000TIP3   OH226956   2.509   2.171   2.763
 9000TIP3    H126957   2.416   2.174   2.743
 9000TIP3    H226958   2.546   2.247   2.717
 9001TIP3   OH226959   3.049   4.707   3.597
 9001TIP3    H126960   3.080   4.775   3.537
 9001TIP3    H226961   2.962   4.685   3.566
 9002TIP3   OH226962   2.720   7.575   3.057
 9002TIP3    H126963   2.770   7.494   3.068
 9002TIP3    H226964   2.639   7.547   3.015
 9003TIP3   OH226965   3.449   2.973   5.859
 9003TIP3    H126966   3.531   2.933   5.831
 9003TIP3    H226967   3.455   2.975   5.955
 9004TIP3   OH226968   5.611   1.924   4.599
 9004TIP3    H126969   5.552   1.994   4.626
 9004TIP3    H226970   5.561   1.843   4.612
 9005TIP3   OH226971   2.176   5.240   4.375
 9005TIP3    H126972   2.094   5.191   4.383
 9005TIP3    H226973   2.222   5.224   4.457
 9006TIP3   OH226974   7.900   0.743   2.015
 9006TIP3    H126975   7.895   0.710   1.926
 9006TIP3    H226976   7.993   0.762   2.029
 9007TIP3   OH226977   8.265   3.173   4.827
 9007TIP3    H126978   8.343   3.205   4.873
 9007TIP3    H226979   8.192   3.205   4.881
 9008TIP3   OH226980   7.018   4.905   1.422
 9008TIP3    H126981   7.033   4.930   1.513
 9008TIP3    H226982   6.935   4.858   1.424
 9009TIP3   OH226983   4.392   6.401   6.181
 9009TIP3    H126984   4.334   6.477   6.189
 9009TIP3    H226985   4.394   6.381   6.088
 9010TIP3   OH226986   1.984   7.639   4.124
 9010TIP3    H126987   1.890   7.628   4.107
 9010TIP3    H226988   1.988   7.708   4.190
 9011TIP3   OH226989   7.369   3.372   5.808
 9011TIP3    H126990   7.380   3.426   5.885
 9011TIP3    H226991   7.276   3.377   5.787
 9012TIP3   OH226992   0.439   6.464   6.782
 9012TIP3    H126993   0.410   6.452   6.691
 9012TIP3    H226994   0.407   6.551   6.805
 9013TIP3   OH226995   2.574   4.303   1.293
 9013TIP3    H126996   2.569   4.213   1.260
 9013TIP3    H226997   2.597   4.356   1.216
 9014TIP3   OH226998   6.194   3.314   6.692
 9014TIP3    H126999   6.151   3.310   6.777
 9014TIP3    H227000   6.259   3.244   6.694
 9015TIP3   OH227001   5.639   4.556   3.085
 9015TIP3    H127002   5.694   4.483   3.112
 9015TIP3    H227003   5.670   4.580   2.998
 9016TIP3   OH227004   4.082   5.320   1.291
 9016TIP3    H127005   4.090   5.390   1.226
 9016TIP3    H227006   4.163   5.270   1.283
 9017TIP3   OH227007   6.009   1.538   5.550
 9017TIP3    H127008   5.914   1.535   5.552
 9017TIP3    H227009   6.035   1.537   5.642
 9018TIP3   OH227010   6.030   7.646   1.328
 9018TIP3    H127011   6.031   7.718   1.391
 9018TIP3    H227012   6.003   7.570   1.380
 9019TIP3   OH227013   5.971   0.979   2.111
 9019TIP3    H127014   6.001   1.059   2.069
 9019TIP3    H227015   5.992   0.910   2.049
 9020TIP3   OH227016   6.243   0.148   5.952
 9020TIP3    H127017   6.230   0.154   6.046
 9020TIP3    H227018   6.164   0.188   5.914
 9021TIP3   OH227019   7.000   4.276   5.236
 9021TIP3    H127020   7.084   4.251   5.198
 9021TIP3    H227021   7.012   4.265   5.330
 9022TIP3   OH227022   2.857   3.750   4.619
 9022TIP3    H127023   2.781   3.806   4.636
 9022TIP3    H227024   2.821   3.677   4.567
 9023TIP3   OH227025   3.303   2.883   1.571
 9023TIP3    H127026   3.299   2.917   1.482
 9023TIP3    H227027   3.391   2.907   1.602
 9024TIP3   OH227028   8.146   2.561   3.161
 9024TIP3    H127029   8.198   2.570   3.081
 9024TIP3    H227030   8.123   2.469   3.165
 9025TIP3   OH227031   6.215   7.398   5.080
 9025TIP3    H127032   6.166   7.363   5.155
 9025TIP3    H227033   6.306   7.397   5.108
 9026TIP3   OH227034   4.164   2.180   5.243
 9026TIP3    H127035   4.203   2.132   5.316
 9026TIP3    H227036   4.085   2.131   5.222
 9027TIP3   OH227037   8.263   4.378   1.711
 9027TIP3    H127038   8.233   4.469   1.719
 9027TIP3    H227039   8.340   4.383   1.655
 9028TIP3   OH227040   0.947   7.268   2.380
 9028TIP3    H127041   0.883   7.198   2.368
 9028TIP3    H227042   0.973   7.262   2.472
 9029TIP3   OH227043   3.601   6.280   3.381
 9029TIP3    H127044   3.532   6.315   3.324
 9029TIP3    H227045   3.556   6.219   3.438
 9030TIP3   OH227046   0.362   7.262   0.777
 9030TIP3    H127047   0.409   7.290   0.855
 9030TIP3    H227048   0.284   7.318   0.774
 9031TIP3   OH227049   5.977   6.488   4.187
 9031TIP3    H127050   6.022   6.458   4.108
 9031TIP3    H227051   5.996   6.581   4.192
 9032TIP3   OH227052   3.413   3.790   0.722
 9032TIP3    H127053   3.376   3.845   0.791
 9032TIP3    H227054   3.337   3.751   0.679
 9033TIP3   OH227055   4.043   7.251   5.282
 9033TIP3    H127056   3.965   7.208   5.245
 9033TIP3    H227057   4.050   7.333   5.234
 9034TIP3   OH227058   2.160   7.785   5.846
 9034TIP3    H127059   2.238   7.759   5.894
 9034TIP3    H227060   2.107   7.705   5.841
 9035TIP3   OH227061   6.022   7.197   0.501
 9035TIP3    H127062   6.081   7.242   0.440
 9035TIP3    H227063   6.038   7.239   0.585
 9036TIP3   OH227064   6.424   3.201   1.703
 9036TIP3    H127065   6.364   3.164   1.637
 9036TIP3    H227066   6.494   3.241   1.651
 9037TIP3   OH227067   7.421   7.465   6.475
 9037TIP3    H127068   7.504   7.461   6.522
 9037TIP3    H227069   7.446   7.474   6.383
 9038TIP3   OH227070   0.730   3.775   0.788
 9038TIP3    H127071   0.638   3.760   0.807
 9038TIP3    H227072   0.762   3.692   0.753
 9039TIP3   OH227073   7.633   7.754   2.052
 9039TIP3    H127074   7.567   7.776   2.118
 9039TIP3    H227075   7.600   7.792   1.971
 9040TIP3   OH227076   1.577   7.707   5.190
 9040TIP3    H127077   1.631   7.669   5.121
 9040TIP3    H227078   1.523   7.635   5.222
 9041TIP3   OH227079   0.398   2.588   3.998
 9041TIP3    H127080   0.456   2.514   3.977
 9041TIP3    H227081   0.398   2.641   3.918
 9042TIP3   OH227082   2.305   3.779   2.289
 9042TIP3    H127083   2.305   3.857   2.344
 9042TIP3    H227084   2.235   3.724   2.325
 9043TIP3   OH227085   1.176   1.506   5.771
 9043TIP3    H127086   1.260   1.530   5.732
 9043TIP3    H227087   1.113   1.514   5.700
 9044TIP3   OH227088   7.340   0.797   1.114
 9044TIP3    H127089   7.292   0.774   1.035
 9044TIP3    H227090   7.359   0.891   1.105
 9045TIP3   OH227091   2.211   5.616   0.509
 9045TIP3    H127092   2.163   5.542   0.471
 9045TIP3    H227093   2.176   5.624   0.598
 9046TIP3   OH227094   4.924   2.057   5.851
 9046TIP3    H127095   4.919   2.036   5.944
 9046TIP3    H227096   4.961   1.978   5.810
 9047TIP3   OH227097   7.787   1.278   5.419
 9047TIP3    H127098   7.762   1.264   5.510
 9047TIP3    H227099   7.865   1.224   5.407
 9048TIP3   OH227100   7.123   6.907   5.023
 9048TIP3    H127101   7.061   6.980   5.034
 9048TIP3    H227102   7.180   6.935   4.952
 9049TIP3   OH227103   1.648   3.630   5.627
 9049TIP3    H127104   1.675   3.616   5.536
 9049TIP3    H227105   1.633   3.542   5.662
 9050TIP3   OH227106   4.634   5.611   2.932
 9050TIP3    H127107   4.692   5.536   2.920
 9050TIP3    H227108   4.565   5.598   2.867
 9051TIP3   OH227109   8.026   5.572   3.026
 9051TIP3    H127110   8.108   5.611   3.056
 9051TIP3    H227111   8.000   5.625   2.951
 9052TIP3   OH227112   3.329   3.821   4.261
 9052TIP3    H127113   3.264   3.805   4.329
 9052TIP3    H227114   3.282   3.806   4.179
 9053TIP3   OH227115   1.751   0.178   4.881
 9053TIP3    H127116   1.845   0.172   4.895
 9053TIP3    H227117   1.713   0.132   4.956
 9054TIP3   OH227118   5.412   5.754   1.321
 9054TIP3    H127119   5.348   5.825   1.326
 9054TIP3    H227120   5.411   5.727   1.229
 9055TIP3   OH227121   1.803   3.495   2.397
 9055TIP3    H127122   1.855   3.453   2.328
 9055TIP3    H227123   1.777   3.579   2.359
 9056TIP3   OH227124   2.589   4.985   3.438
 9056TIP3    H127125   2.530   4.910   3.432
 9056TIP3    H227126   2.676   4.949   3.425
 9057TIP3   OH227127   6.103   3.547   1.385
 9057TIP3    H127128   6.077   3.633   1.352
 9057TIP3    H227129   6.094   3.488   1.310
 9058TIP3   OH227130   8.307   3.029   4.146
 9058TIP3    H127131   8.325   2.953   4.201
 9058TIP3    H227132   8.212   3.040   4.151
 9059TIP3   OH227133   0.457   3.717   1.937
 9059TIP3    H127134   0.505   3.780   1.884
 9059TIP3    H227135   0.518   3.645   1.951
 9060TIP3   OH227136   7.914   3.171   4.743
 9060TIP3    H127137   7.828   3.138   4.769
 9060TIP3    H227138   7.955   3.197   4.825
 9061TIP3   OH227139   5.671   1.002   4.908
 9061TIP3    H127140   5.681   0.961   4.994
 9061TIP3    H227141   5.598   0.955   4.867
 9062TIP3   OH227142   4.106   2.523   5.865
 9062TIP3    H127143   4.029   2.466   5.874
 9062TIP3    H227144   4.158   2.481   5.797
 9063TIP3   OH227145   2.223   2.360   1.276
 9063TIP3    H127146   2.234   2.306   1.354
 9063TIP3    H227147   2.128   2.361   1.261
 9064TIP3   OH227148   2.095   4.889   1.713
 9064TIP3    H127149   2.082   4.962   1.651
 9064TIP3    H227150   2.165   4.837   1.673
 9065TIP3   OH227151   2.567   4.552   3.623
 9065TIP3    H127152   2.523   4.476   3.587
 9065TIP3    H227153   2.496   4.615   3.640
 9066TIP3   OH227154   6.178   5.294   0.522
 9066TIP3    H127155   6.230   5.214   0.531
 9066TIP3    H227156   6.094   5.274   0.562
 9067TIP3   OH227157   2.315   4.822   4.681
 9067TIP3    H127158   2.269   4.833   4.764
 9067TIP3    H227159   2.292   4.900   4.630
 9068TIP3   OH227160   7.174   5.794   5.605
 9068TIP3    H127161   7.265   5.795   5.635
 9068TIP3    H227162   7.152   5.701   5.596
 9069TIP3   OH227163   0.958   0.089   3.116
 9069TIP3    H127164   0.926   0.178   3.101
 9069TIP3    H227165   0.992   0.062   3.031
 9070TIP3   OH227166   5.714   4.700   5.723
 9070TIP3    H127167   5.808   4.683   5.717
 9070TIP3    H227168   5.683   4.696   5.632
 9071TIP3   OH227169   2.089   7.559   0.232
 9071TIP3    H127170   2.076   7.625   0.164
 9071TIP3    H227171   2.086   7.609   0.314
 9072TIP3   OH227172   6.241   4.825   0.531
 9072TIP3    H127173   6.159   4.778   0.517
 9072TIP3    H227174   6.309   4.759   0.522
 9073TIP3   OH227175   2.573   1.642   5.650
 9073TIP3    H127176   2.528   1.632   5.566
 9073TIP3    H227177   2.636   1.712   5.635
 9074TIP3   OH227178   1.624   0.733   1.680
 9074TIP3    H127179   1.539   0.776   1.691
 9074TIP3    H227180   1.602   0.642   1.663
 9075TIP3   OH227181   1.070   6.434   3.714
 9075TIP3    H127182   1.100   6.351   3.750
 9075TIP3    H227183   1.029   6.412   3.631
 9076TIP3   OH227184   1.103   5.640   1.876
 9076TIP3    H127185   1.178   5.636   1.818
 9076TIP3    H227186   1.141   5.654   1.963
 9077TIP3   OH227187   0.641   3.508   1.941
 9077TIP3    H127188   0.634   3.452   2.018
 9077TIP3    H227189   0.621   3.450   1.867
 9078TIP3   OH227190   5.527   0.195   3.035
 9078TIP3    H127191   5.578   0.234   2.964
 9078TIP3    H227192   5.436   0.205   3.008
 9079TIP3   OH227193   3.095  -0.013   5.805
 9079TIP3    H127194   3.039  -0.089   5.789
 9079TIP3    H227195   3.044   0.043   5.863
 9080TIP3   OH227196   6.345   2.696   2.020
 9080TIP3    H127197   6.285   2.629   2.053
 9080TIP3    H227198   6.356   2.757   2.094
 9081TIP3   OH227199   2.287   1.498   4.513
 9081TIP3    H127200   2.303   1.411   4.549
 9081TIP3    H227201   2.308   1.490   4.420
 9082TIP3   OH227202   2.727   4.463   2.734
 9082TIP3    H127203   2.643   4.465   2.687
 9082TIP3    H227204   2.776   4.536   2.696
 9083TIP3   OH227205   5.172   0.276   0.019
 9083TIP3    H127206   5.112   0.202   0.028
 9083TIP3    H227207   5.201   0.294   0.108
 9084TIP3   OH227208   7.245   5.128   1.858
 9084TIP3    H127209   7.203   5.099   1.938
 9084TIP3    H227210   7.200   5.209   1.835
 9085TIP3   OH227211   7.690   0.472   4.699
 9085TIP3    H127212   7.615   0.474   4.639
 9085TIP3    H227213   7.721   0.381   4.695
 9086TIP3   OH227214   1.523   5.125   6.548
 9086TIP3    H127215   1.441   5.126   6.499
 9086TIP3    H227216   1.558   5.037   6.535
 9087TIP3   OH227217   6.451   2.387   0.000
 9087TIP3    H127218   6.355   2.392  -0.004
 9087TIP3    H227219   6.471   2.296  -0.021
 9088TIP3   OH227220   4.491   4.884   3.827
 9088TIP3    H127221   4.488   4.788   3.827
 9088TIP3    H227222   4.520   4.907   3.916
 9089TIP3   OH227223   6.635   0.663   1.217
 9089TIP3    H127224   6.658   0.724   1.147
 9089TIP3    H227225   6.719   0.624   1.243
 9090TIP3   OH227226   6.938   4.225   4.160
 9090TIP3    H127227   7.000   4.282   4.204
 9090TIP3    H227228   6.911   4.162   4.227
 9091TIP3   OH227229   6.358   3.110   1.042
 9091TIP3    H127230   6.395   3.118   0.954
 9091TIP3    H227231   6.272   3.150   1.036
 9092TIP3   OH227232   1.683   3.937   5.617
 9092TIP3    H127233   1.665   3.846   5.639
 9092TIP3    H227234   1.680   3.940   5.521
 9093TIP3   OH227235   1.676   0.785   6.676
 9093TIP3    H127236   1.730   0.736   6.614
 9093TIP3    H227237   1.738   0.817   6.741
 9094TIP3   OH227238   7.379   1.841   1.832
 9094TIP3    H127239   7.285   1.855   1.821
 9094TIP3    H227240   7.398   1.875   1.919
 9095TIP3   OH227241   1.891   6.916   1.336
 9095TIP3    H127242   1.964   6.855   1.349
 9095TIP3    H227243   1.913   6.991   1.390
 9096TIP3   OH227244   3.729   1.159   0.263
 9096TIP3    H127245   3.645   1.201   0.245
 9096TIP3    H227246   3.726   1.136   0.355
 9097TIP3   OH227247   6.840   3.694   1.937
 9097TIP3    H127248   6.851   3.605   1.971
 9097TIP3    H227249   6.856   3.686   1.843
 9098TIP3   OH227250   4.044   7.187   4.814
 9098TIP3    H127251   4.132   7.155   4.835
 9098TIP3    H227252   4.024   7.148   4.729
 9099TIP3   OH227253   3.574   4.472   1.560
 9099TIP3    H127254   3.643   4.532   1.533
 9099TIP3    H227255   3.512   4.527   1.609
 9100TIP3   OH227256   7.675   7.110   4.099
 9100TIP3    H127257   7.650   7.099   4.007
 9100TIP3    H227258   7.603   7.069   4.148
 9101TIP3   OH227259   4.104   6.718   3.333
 9101TIP3    H127260   4.029   6.745   3.385
 9101TIP3    H227261   4.066   6.672   3.258
 9102TIP3   OH227262   2.710   7.885   0.343
 9102TIP3    H127263   2.729   7.796   0.316
 9102TIP3    H227264   2.682   7.877   0.435
 9103TIP3   OH227265   1.513   1.814   1.255
 9103TIP3    H127266   1.558   1.892   1.289
 9103TIP3    H227267   1.448   1.793   1.322
 9104TIP3   OH227268   6.722   4.309   1.476
 9104TIP3    H127269   6.645   4.354   1.441
 9104TIP3    H227270   6.718   4.327   1.570
 9105TIP3   OH227271   4.138   1.767   0.448
 9105TIP3    H127272   4.084   1.695   0.480
 9105TIP3    H227273   4.130   1.763   0.353
 9106TIP3   OH227274   4.600   5.868   5.231
 9106TIP3    H127275   4.543   5.917   5.171
 9106TIP3    H227276   4.601   5.779   5.197
 9107TIP3   OH227277   5.279   1.174   4.220
 9107TIP3    H127278   5.317   1.097   4.262
 9107TIP3    H227279   5.353   1.234   4.208
 9108TIP3   OH227280   1.970   3.276   4.857
 9108TIP3    H127281   1.986   3.347   4.795
 9108TIP3    H227282   1.875   3.267   4.859
 9109TIP3   OH227283   4.738   1.506   4.946
 9109TIP3    H127284   4.683   1.551   4.881
 9109TIP3    H227285   4.824   1.548   4.938
 9110TIP3   OH227286   6.730   7.510   3.576
 9110TIP3    H127287   6.666   7.487   3.509
 9110TIP3    H227288   6.807   7.538   3.526
 9111TIP3   OH227289   0.280   1.993   0.160
 9111TIP3    H127290   0.245   1.904   0.151
 9111TIP3    H227291   0.371   1.980   0.187
 9112TIP3   OH227292   3.131   4.041   1.980
 9112TIP3    H127293   3.121   3.988   1.901
 9112TIP3    H227294   3.163   3.980   2.046
 9113TIP3   OH227295   5.905   7.253   3.364
 9113TIP3    H127296   5.895   7.327   3.424
 9113TIP3    H227297   5.845   7.187   3.397
 9114TIP3   OH227298  -0.001   0.049   0.179
 9114TIP3    H127299   0.087   0.077   0.152
 9114TIP3    H227300  -0.044   0.129   0.207
 9115TIP3   OH227301   0.179   0.581   6.588
 9115TIP3    H127302   0.231   0.581   6.507
 9115TIP3    H227303   0.103   0.527   6.567
 9116TIP3   OH227304   7.385   5.212   6.207
 9116TIP3    H127305   7.461   5.253   6.248
 9116TIP3    H227306   7.358   5.144   6.270
 9117TIP3   OH227307   6.361   2.798   3.169
 9117TIP3    H127308   6.286   2.778   3.226
 9117TIP3    H227309   6.343   2.885   3.136
 9118TIP3   OH227310   2.921   7.573   3.475
 9118TIP3    H127311   2.968   7.495   3.504
 9118TIP3    H227312   2.902   7.622   3.555
 9119TIP3   OH227313   1.465   5.880   2.781
 9119TIP3    H127314   1.537   5.818   2.785
 9119TIP3    H227315   1.435   5.887   2.872
 9120TIP3   OH227316   0.798   3.974   5.734
 9120TIP3    H127317   0.750   3.918   5.674
 9120TIP3    H227318   0.737   4.044   5.757
 9121TIP3   OH227319   4.297   1.410   2.570
 9121TIP3    H127320   4.348   1.346   2.521
 9121TIP3    H227321   4.227   1.360   2.611
 9122TIP3   OH227322   0.457   4.486   6.506
 9122TIP3    H127323   0.439   4.395   6.481
 9122TIP3    H227324   0.480   4.530   6.424
 9123TIP3   OH227325   4.509   3.383   6.656
 9123TIP3    H127326   4.537   3.291   6.658
 9123TIP3    H227327   4.448   3.391   6.729
 9124TIP3   OH227328   2.744   6.746   2.073
 9124TIP3    H127329   2.720   6.830   2.113
 9124TIP3    H227330   2.839   6.749   2.066
 9125TIP3   OH227331   4.013   5.817   1.933
 9125TIP3    H127332   4.000   5.903   1.893
 9125TIP3    H227333   4.047   5.835   2.020
 9126TIP3   OH227334   4.814   4.620   2.834
 9126TIP3    H127335   4.878   4.563   2.878
 9126TIP3    H227336   4.796   4.689   2.898
 9127TIP3   OH227337   3.796   1.453   5.067
 9127TIP3    H127338   3.785   1.414   4.980
 9127TIP3    H227339   3.887   1.484   5.067
 9128TIP3   OH227340   0.557   6.447   3.396
 9128TIP3    H127341   0.578   6.447   3.303
 9128TIP3    H227342   0.594   6.529   3.429
 9129TIP3   OH227343   3.088   1.356   4.426
 9129TIP3    H127344   3.054   1.446   4.430
 9129TIP3    H227345   3.129   1.351   4.339
 9130TIP3   OH227346   1.705   4.692   5.268
 9130TIP3    H127347   1.724   4.780   5.237
 9130TIP3    H227348   1.744   4.635   5.201
 9131TIP3   OH227349   8.094   2.164   6.168
 9131TIP3    H127350   8.129   2.247   6.134
 9131TIP3    H227351   8.067   2.185   6.258
 9132TIP3   OH227352   3.976   7.650   3.850
 9132TIP3    H127353   3.941   7.611   3.931
 9132TIP3    H227354   3.926   7.610   3.780
 9133TIP3   OH227355   0.498   0.417   2.227
 9133TIP3    H127356   0.578   0.366   2.230
 9133TIP3    H227357   0.526   0.508   2.239
 9134TIP3   OH227358   2.315   5.625   5.307
 9134TIP3    H127359   2.378   5.646   5.238
 9134TIP3    H227360   2.360   5.648   5.389
 9135TIP3   OH227361   5.425   6.246   5.262
 9135TIP3    H127362   5.508   6.202   5.279
 9135TIP3    H227363   5.364   6.207   5.326
 9136TIP3   OH227364   7.195   7.020   4.369
 9136TIP3    H127365   7.175   7.102   4.415
 9136TIP3    H227366   7.220   6.959   4.439
 9137TIP3   OH227367   0.083   3.486   3.180
 9137TIP3    H127368   0.065   3.572   3.143
 9137TIP3    H227369   0.098   3.503   3.273
 9138TIP3   OH227370   0.385   3.205   2.817
 9138TIP3    H127371   0.408   3.119   2.852
 9138TIP3    H227372   0.381   3.262   2.894
 9139TIP3   OH227373   6.046   0.330   5.236
 9139TIP3    H127374   6.028   0.248   5.190
 9139TIP3    H227375   5.963   0.353   5.279
 9140TIP3   OH227376   4.976   0.092   4.786
 9140TIP3    H127377   4.896   0.101   4.734
 9140TIP3    H227378   5.024   0.020   4.744
 9141TIP3   OH227379   2.317   0.480   1.569
 9141TIP3    H127380   2.281   0.568   1.558
 9141TIP3    H227381   2.309   0.439   1.483
 9142TIP3   OH227382   7.897   7.207   6.272
 9142TIP3    H127383   7.987   7.203   6.306
 9142TIP3    H227384   7.863   7.118   6.284
 9143TIP3   OH227385   6.697   5.741   6.064
 9143TIP3    H127386   6.753   5.756   5.988
 9143TIP3    H227387   6.641   5.668   6.039
 9144TIP3   OH227388   2.470   0.860   3.420
 9144TIP3    H127389   2.496   0.774   3.452
 9144TIP3    H227390   2.409   0.893   3.486
 9145TIP3   OH227391   1.470   4.073   3.835
 9145TIP3    H127392   1.458   3.980   3.813
 9145TIP3    H227393   1.549   4.098   3.787
 9146TIP3   OH227394   6.215   4.239   2.733
 9146TIP3    H127395   6.182   4.162   2.778
 9146TIP3    H227396   6.249   4.206   2.650
 9147TIP3   OH227397   3.582   1.838   0.416
 9147TIP3    H127398   3.615   1.761   0.463
 9147TIP3    H227399   3.525   1.802   0.348
 9148TIP3   OH227400   4.542   3.644   2.037
 9148TIP3    H127401   4.482   3.672   2.106
 9148TIP3    H227402   4.486   3.629   1.961
 9149TIP3   OH227403   7.659   0.228   6.119
 9149TIP3    H127404   7.673   0.208   6.212
 9149TIP3    H227405   7.727   0.180   6.073
 9150TIP3   OH227406   2.243   7.057   5.070
 9150TIP3    H127407   2.177   7.126   5.076
 9150TIP3    H227408   2.245   7.019   5.158
 9151TIP3   OH227409   3.105   3.730   0.914
 9151TIP3    H127410   3.087   3.638   0.899
 9151TIP3    H227411   3.185   3.730   0.966
 9152TIP3   OH227412   6.722   0.311   1.026
 9152TIP3    H127413   6.730   0.398   0.989
 9152TIP3    H227414   6.722   0.252   0.950
 9153TIP3   OH227415   4.698   0.818   3.125
 9153TIP3    H127416   4.605   0.838   3.138
 9153TIP3    H227417   4.703   0.790   3.034
 9154TIP3   OH227418   2.185   0.782   3.279
 9154TIP3    H127419   2.162   0.869   3.311
 9154TIP3    H227420   2.270   0.764   3.318
 9155TIP3   OH227421   0.801   0.142   4.757
 9155TIP3    H127422   0.887   0.110   4.733
 9155TIP3    H227423   0.763   0.175   4.675
 9156TIP3   OH227424   1.292   1.987   1.806
 9156TIP3    H127425   1.220   1.995   1.868
 9156TIP3    H227426   1.284   2.063   1.749
 9157TIP3   OH227427   6.953   4.189   3.240
 9157TIP3    H127428   7.046   4.169   3.232
 9157TIP3    H227429   6.944   4.277   3.202
 9158TIP3   OH227430   2.033   0.474   4.962
 9158TIP3    H127431   1.943   0.495   4.937
 9158TIP3    H227432   2.023   0.403   5.026
 9159TIP3   OH227433   7.708   2.099   1.747
 9159TIP3    H127434   7.773   2.029   1.743
 9159TIP3    H227435   7.744   2.169   1.693
 9160TIP3   OH227436   2.186   1.990   2.624
 9160TIP3    H127437   2.249   2.037   2.568
 9160TIP3    H227438   2.175   2.047   2.700
 9161TIP3   OH227439   2.347  -0.025   5.466
 9161TIP3    H127440   2.284   0.017   5.524
 9161TIP3    H227441   2.432   0.006   5.495
 9162TIP3   OH227442   6.350   3.627   1.434
 9162TIP3    H127443   6.407   3.550   1.439
 9162TIP3    H227444   6.261   3.592   1.435
 9163TIP3   OH227445   1.937   3.392   0.648
 9163TIP3    H127446   2.024   3.419   0.674
 9163TIP3    H227447   1.895   3.364   0.729
 9164TIP3   OH227448   0.406   3.891   6.324
 9164TIP3    H127449   0.338   3.846   6.274
 9164TIP3    H227450   0.454   3.942   6.258
 9165TIP3   OH227451   5.673   0.369   0.216
 9165TIP3    H127452   5.623   0.323   0.149
 9165TIP3    H227453   5.717   0.300   0.265
 9166TIP3   OH227454   4.244   5.472   4.778
 9166TIP3    H127455   4.252   5.544   4.716
 9166TIP3    H227456   4.156   5.480   4.815
 9167TIP3   OH227457   0.680   2.280   4.549
 9167TIP3    H127458   0.587   2.260   4.557
 9167TIP3    H227459   0.705   2.314   4.635
 9168TIP3   OH227460   3.475   6.438   6.660
 9168TIP3    H127461   3.569   6.449   6.677
 9168TIP3    H227462   3.464   6.464   6.569
 9169TIP3   OH227463   1.408   2.122   3.318
 9169TIP3    H127464   1.355   2.155   3.391
 9169TIP3    H227465   1.369   2.162   3.240
 9170TIP3   OH227466   0.527   5.833   0.508
 9170TIP3    H127467   0.469   5.767   0.470
 9170TIP3    H227468   0.490   5.848   0.596
 9171TIP3   OH227469   4.403   1.651   5.335
 9171TIP3    H127470   4.421   1.584   5.269
 9171TIP3    H227471   4.433   1.612   5.418
 9172TIP3   OH227472   7.746   6.317   4.848
 9172TIP3    H127473   7.701   6.253   4.904
 9172TIP3    H227474   7.823   6.343   4.899
 9173TIP3   OH227475   1.796   3.675   3.665
 9173TIP3    H127476   1.874   3.656   3.612
 9173TIP3    H227477   1.776   3.767   3.645
 9174TIP3   OH227478   1.116   4.301   0.567
 9174TIP3    H127479   1.147   4.361   0.499
 9174TIP3    H227480   1.130   4.347   0.649
 9175TIP3   OH227481   7.506   1.160   6.686
 9175TIP3    H127482   7.601   1.161   6.682
 9175TIP3    H227483   7.478   1.184   6.598
 9176TIP3   OH227484   8.168   2.041   3.588
 9176TIP3    H127485   8.160   2.035   3.684
 9176TIP3    H227486   8.198   1.954   3.562
 9177TIP3   OH227487   1.955   4.138   1.579
 9177TIP3    H127488   2.049   4.125   1.572
 9177TIP3    H227489   1.942   4.178   1.665
 9178TIP3   OH227490   0.641   7.597   0.232
 9178TIP3    H127491   0.704   7.525   0.219
 9178TIP3    H227492   0.559   7.553   0.255
 9179TIP3   OH227493   1.625   0.850   0.257
 9179TIP3    H127494   1.601   0.921   0.317
 9179TIP3    H227495   1.546   0.796   0.250
 9180TIP3   OH227496   2.494   4.481   4.611
 9180TIP3    H127497   2.558   4.551   4.604
 9180TIP3    H227498   2.535   4.416   4.669
 9181TIP3   OH227499   6.390   5.016   6.451
 9181TIP3    H127500   6.370   4.923   6.451
 9181TIP3    H227501   6.484   5.020   6.468
 9182TIP3   OH227502   5.277   6.872   5.088
 9182TIP3    H127503   5.320   6.950   5.052
 9182TIP3    H227504   5.267   6.813   5.014
 9183TIP3   OH227505   1.025   5.666   1.293
 9183TIP3    H127506   0.976   5.724   1.351
 9183TIP3    H227507   1.014   5.703   1.206
 9184TIP3   OH227508   1.217   3.664   0.865
 9184TIP3    H127509   1.273   3.734   0.899
 9184TIP3    H227510   1.129   3.690   0.892
 9185TIP3   OH227511   3.879   5.165   4.993
 9185TIP3    H127512   3.831   5.096   5.040
 9185TIP3    H227513   3.902   5.125   4.909
 9186TIP3   OH227514   3.869   5.730   3.775
 9186TIP3    H127515   3.868   5.800   3.711
 9186TIP3    H227516   3.934   5.758   3.840
 9187TIP3   OH227517   6.164   5.647   0.109
 9187TIP3    H127518   6.088   5.601   0.072
 9187TIP3    H227519   6.176   5.607   0.195
 9188TIP3   OH227520   3.292   7.091   1.868
 9188TIP3    H127521   3.315   7.058   1.955
 9188TIP3    H227522   3.376   7.100   1.823
 9189TIP3   OH227523   7.101   6.664   3.633
 9189TIP3    H127524   7.125   6.737   3.690
 9189TIP3    H227525   7.184   6.617   3.618
 9190TIP3   OH227526   1.645   4.381   3.575
 9190TIP3    H127527   1.696   4.412   3.650
 9190TIP3    H227528   1.562   4.353   3.611
 9191TIP3   OH227529   0.525   2.669   4.655
 9191TIP3    H127530   0.507   2.634   4.742
 9191TIP3    H227531   0.467   2.621   4.596
 9192TIP3   OH227532   3.757   3.557   5.938
 9192TIP3    H127533   3.673   3.526   5.906
 9192TIP3    H227534   3.819   3.538   5.867
 9193TIP3   OH227535   5.060   5.605   4.237
 9193TIP3    H127536   5.096   5.636   4.320
 9193TIP3    H227537   4.974   5.571   4.260
 9194TIP3   OH227538   6.452   4.040   2.622
 9194TIP3    H127539   6.530   3.993   2.591
 9194TIP3    H227540   6.379   4.001   2.574
 9195TIP3   OH227541   1.978   6.788   5.451
 9195TIP3    H127542   2.034   6.777   5.527
 9195TIP3    H227543   1.915   6.855   5.477
 9196TIP3   OH227544   0.913   6.463   2.399
 9196TIP3    H127545   1.004   6.453   2.427
 9196TIP3    H227546   0.907   6.409   2.320
 9197TIP3   OH227547   4.370   7.201   1.086
 9197TIP3    H127548   4.327   7.182   1.169
 9197TIP3    H227549   4.463   7.187   1.103
 9198TIP3   OH227550   4.646   7.265   1.146
 9198TIP3    H127551   4.722   7.243   1.093
 9198TIP3    H227552   4.653   7.360   1.160
 9199TIP3   OH227553   3.462   5.201   5.861
 9199TIP3    H127554   3.519   5.170   5.931
 9199TIP3    H227555   3.517   5.198   5.782
 9200TIP3   OH227556   1.983   6.515   0.991
 9200TIP3    H127557   1.980   6.476   1.078
 9200TIP3    H227558   2.057   6.471   0.948
 9201TIP3   OH227559   2.713   1.696   4.839
 9201TIP3    H127560   2.691   1.606   4.815
 9201TIP3    H227561   2.809   1.698   4.839
 9202TIP3   OH227562   3.990   1.981   0.542
 9202TIP3    H127563   4.048   2.017   0.609
 9202TIP3    H227564   4.043   1.915   0.498
 9203TIP3   OH227565   4.773   4.273   3.604
 9203TIP3    H127566   4.799   4.328   3.677
 9203TIP3    H227567   4.844   4.281   3.541
 9204TIP3   OH227568   7.590   5.479   6.060
 9204TIP3    H127569   7.603   5.432   6.142
 9204TIP3    H227570   7.495   5.488   6.053
 9205TIP3   OH227571   1.231   3.189   1.880
 9205TIP3    H127572   1.238   3.149   1.966
 9205TIP3    H227573   1.195   3.119   1.825
 9206TIP3   OH227574   7.879   5.752   1.910
 9206TIP3    H127575   7.923   5.709   1.837
 9206TIP3    H227576   7.789   5.762   1.880
 9207TIP3   OH227577   3.402   7.435   0.720
 9207TIP3    H127578   3.426   7.435   0.813
 9207TIP3    H227579   3.461   7.499   0.680
 9208TIP3   OH227580   6.522   3.359   2.647
 9208TIP3    H127581   6.599   3.372   2.703
 9208TIP3    H227582   6.558   3.328   2.564
 9209TIP3   OH227583   5.786   6.243   5.127
 9209TIP3    H127584   5.736   6.164   5.146
 9209TIP3    H227585   5.833   6.262   5.208
 9210TIP3   OH227586   1.365   4.014   5.350
 9210TIP3    H127587   1.306   3.973   5.414
 9210TIP3    H227588   1.306   4.063   5.292
 9211TIP3   OH227589   2.433   6.831   1.377
 9211TIP3    H127590   2.423   6.892   1.304
 9211TIP3    H227591   2.437   6.887   1.455
 9212TIP3   OH227592   4.884   7.690   4.791
 9212TIP3    H127593   4.963   7.730   4.827
 9212TIP3    H227594   4.833   7.764   4.757
 9213TIP3   OH227595   4.261   3.803   1.367
 9213TIP3    H127596   4.291   3.878   1.316
 9213TIP3    H227597   4.238   3.737   1.302
 9214TIP3   OH227598   3.364   7.415   1.884
 9214TIP3    H127599   3.293   7.467   1.921
 9214TIP3    H227600   3.394   7.359   1.955
 9215TIP3   OH227601   1.971   0.498   1.797
 9215TIP3    H127602   1.898   0.553   1.825
 9215TIP3    H227603   2.025   0.556   1.743
 9216TIP3   OH227604   4.327   4.951   2.581
 9216TIP3    H127605   4.379   4.915   2.509
 9216TIP3    H227606   4.347   4.894   2.656
 9217TIP3   OH227607   1.724   1.347   6.463
 9217TIP3    H127608   1.796   1.325   6.404
 9217TIP3    H227609   1.757   1.420   6.516
 9218TIP3   OH227610   0.528   7.742   6.209
 9218TIP3    H127611   0.585   7.721   6.135
 9218TIP3    H227612   0.477   7.818   6.179
 9219TIP3   OH227613   0.934   6.754   5.043
 9219TIP3    H127614   0.980   6.687   4.993
 9219TIP3    H227615   0.983   6.760   5.125
 9220TIP3   OH227616   2.632   2.884   6.183
 9220TIP3    H127617   2.563   2.860   6.121
 9220TIP3    H227618   2.649   2.977   6.166
 9221TIP3   OH227619   7.961   6.621   1.871
 9221TIP3    H127620   8.046   6.620   1.826
 9221TIP3    H227621   7.897   6.640   1.802
 9222TIP3   OH227622   0.720   5.499   0.489
 9222TIP3    H127623   0.687   5.503   0.579
 9222TIP3    H227624   0.777   5.422   0.487
 9223TIP3   OH227625   6.472   7.424   5.923
 9223TIP3    H127626   6.445   7.333   5.939
 9223TIP3    H227627   6.479   7.462   6.011
 9224TIP3   OH227628   5.899   2.933   3.864
 9224TIP3    H127629   5.930   2.971   3.782
 9224TIP3    H227630   5.968   2.872   3.890
 9225TIP3   OH227631   7.591   1.371   2.486
 9225TIP3    H127632   7.659   1.371   2.420
 9225TIP3    H227633   7.558   1.281   2.488
 9226TIP3   OH227634   1.569   1.233   0.731
 9226TIP3    H127635   1.620   1.168   0.780
 9226TIP3    H227636   1.488   1.187   0.709
 9227TIP3   OH227637   5.218   2.706   0.283
 9227TIP3    H127638   5.152   2.722   0.350
 9227TIP3    H227639   5.172   2.718   0.200
 9228TIP3   OH227640   7.469   5.345   2.983
 9228TIP3    H127641   7.525   5.278   2.944
 9228TIP3    H227642   7.529   5.412   3.014
 9229TIP3   OH227643   1.582   4.954   2.280
 9229TIP3    H127644   1.513   4.967   2.215
 9229TIP3    H227645   1.602   5.042   2.312
 9230TIP3   OH227646   3.648   3.823   5.863
 9230TIP3    H127647   3.678   3.860   5.780
 9230TIP3    H227648   3.645   3.729   5.848
 9231TIP3   OH227649   0.007   5.921   0.597
 9231TIP3    H127650  -0.063   5.908   0.534
 9231TIP3    H227651   0.051   5.836   0.602
 9232TIP3   OH227652   2.917   3.323   6.022
 9232TIP3    H127653   2.848   3.341   5.958
 9232TIP3    H227654   2.871   3.315   6.106
 9233TIP3   OH227655   0.150   1.708   6.298
 9233TIP3    H127656   0.066   1.684   6.257
 9233TIP3    H227657   0.212   1.712   6.225
 9234TIP3   OH227658   2.606   6.031   6.467
 9234TIP3    H127659   2.566   6.080   6.538
 9234TIP3    H227660   2.651   5.958   6.510
 9235TIP3   OH227661   0.081   2.914   4.864
 9235TIP3    H127662   0.139   2.934   4.790
 9235TIP3    H227663   0.022   2.989   4.868
 9236TIP3   OH227664   4.373   4.489   0.328
 9236TIP3    H127665   4.340   4.457   0.244
 9236TIP3    H227666   4.387   4.582   0.314
 9237TIP3   OH227667   5.098   6.489   1.965
 9237TIP3    H127668   5.052   6.539   2.032
 9237TIP3    H227669   5.191   6.499   1.988
 9238TIP3   OH227670   0.966   6.154   3.070
 9238TIP3    H127671   0.954   6.243   3.037
 9238TIP3    H227672   0.898   6.103   3.027
 9239TIP3   OH227673   1.389   5.361   2.644
 9239TIP3    H127674   1.440   5.442   2.648
 9239TIP3    H227675   1.308   5.381   2.691
 9240TIP3   OH227676   4.655   1.129   1.048
 9240TIP3    H127677   4.685   1.173   1.128
 9240TIP3    H227678   4.608   1.196   0.999
 9241TIP3   OH227679   2.867   4.079   5.675
 9241TIP3    H127680   2.802   4.064   5.606
 9241TIP3    H227681   2.951   4.064   5.633
 9242TIP3   OH227682   4.779   0.212   1.839
 9242TIP3    H127683   4.777   0.168   1.924
 9242TIP3    H227684   4.849   0.276   1.847
 9243TIP3   OH227685   5.489   5.748   2.351
 9243TIP3    H127686   5.441   5.793   2.282
 9243TIP3    H227687   5.527   5.672   2.308
 9244TIP3   OH227688   5.324   7.521   4.676
 9244TIP3    H127689   5.291   7.513   4.766
 9244TIP3    H227690   5.411   7.480   4.679
 9245TIP3   OH227691   2.100   3.498   0.305
 9245TIP3    H127692   2.049   3.577   0.320
 9245TIP3    H227693   2.153   3.489   0.385
 9246TIP3   OH227694   2.075   5.404   3.518
 9246TIP3    H127695   2.170   5.398   3.529
 9246TIP3    H227696   2.042   5.320   3.550
 9247TIP3   OH227697   6.189   0.712   5.556
 9247TIP3    H127698   6.121   0.754   5.502
 9247TIP3    H227699   6.213   0.779   5.620
 9248TIP3   OH227700   0.649   7.440   2.884
 9248TIP3    H127701   0.601   7.414   2.963
 9248TIP3    H227702   0.616   7.528   2.864
 9249TIP3   OH227703   1.745   2.290   6.042
 9249TIP3    H127704   1.780   2.237   5.970
 9249TIP3    H227705   1.810   2.359   6.055
 9250TIP3   OH227706   4.245   1.395   5.638
 9250TIP3    H127707   4.155   1.397   5.604
 9250TIP3    H227708   4.274   1.305   5.621
 9251TIP3   OH227709   0.606   6.861   2.615
 9251TIP3    H127710   0.537   6.869   2.549
 9251TIP3    H227711   0.665   6.934   2.597
 9252TIP3   OH227712   6.783   3.329   1.791
 9252TIP3    H127713   6.875   3.340   1.814
 9252TIP3    H227714   6.784   3.270   1.715
 9253TIP3   OH227715   6.651   0.981   2.007
 9253TIP3    H127716   6.608   1.030   1.937
 9253TIP3    H227717   6.645   0.890   1.979
 9254TIP3   OH227718   5.519   0.594   4.820
 9254TIP3    H127719   5.439   0.547   4.795
 9254TIP3    H227720   5.581   0.577   4.749
 9255TIP3   OH227721   4.342   5.564   4.189
 9255TIP3    H127722   4.264   5.533   4.144
 9255TIP3    H227723   4.316   5.647   4.229
 9256TIP3   OH227724   8.017   1.928   1.144
 9256TIP3    H127725   8.047   1.922   1.235
 9256TIP3    H227726   8.015   2.022   1.126
 9257TIP3   OH227727   2.803   2.210   6.291
 9257TIP3    H127728   2.844   2.287   6.251
 9257TIP3    H227729   2.755   2.168   6.220
 9258TIP3   OH227730   3.213   5.482   3.511
 9258TIP3    H127731   3.212   5.393   3.546
 9258TIP3    H227732   3.140   5.483   3.449
 9259TIP3   OH227733   2.299   2.816   4.985
 9259TIP3    H127734   2.373   2.783   5.036
 9259TIP3    H227735   2.243   2.739   4.972
 9260TIP3   OH227736   2.935   2.825   5.265
 9260TIP3    H127737   2.960   2.875   5.187
 9260TIP3    H227738   3.001   2.847   5.330
 9261TIP3   OH227739   5.883   4.997   5.095
 9261TIP3    H127740   5.953   4.969   5.154
 9261TIP3    H227741   5.911   4.969   5.008
 9262TIP3   OH227742   5.910   3.853   4.491
 9262TIP3    H127743   5.982   3.795   4.467
 9262TIP3    H227744   5.949   3.940   4.497
 9263TIP3   OH227745   7.978   7.097   5.423
 9263TIP3    H127746   8.053   7.130   5.473
 9263TIP3    H227747   7.902   7.117   5.478
 9264TIP3   OH227748   7.120   2.545   3.131
 9264TIP3    H127749   7.175   2.598   3.074
 9264TIP3    H227750   7.031   2.576   3.115
 9265TIP3   OH227751   7.097   2.795   2.625
 9265TIP3    H127752   7.176   2.827   2.667
 9265TIP3    H227753   7.127   2.760   2.541
 9266TIP3   OH227754   6.334   0.159   2.981
 9266TIP3    H127755   6.332   0.066   2.961
 9266TIP3    H227756   6.351   0.163   3.076
 9267TIP3   OH227757   4.724   7.574   0.572
 9267TIP3    H127758   4.709   7.610   0.660
 9267TIP3    H227759   4.753   7.484   0.587
 9268TIP3   OH227760   3.017   0.912   2.628
 9268TIP3    H127761   3.005   0.931   2.721
 9268TIP3    H227762   3.097   0.860   2.623
 9269TIP3   OH227763   7.518   3.817   0.913
 9269TIP3    H127764   7.602   3.832   0.957
 9269TIP3    H227765   7.525   3.867   0.832
 9270TIP3   OH227766   3.401   3.780   1.507
 9270TIP3    H127767   3.401   3.796   1.601
 9270TIP3    H227768   3.411   3.685   1.499
 9271TIP3   OH227769   6.228   6.201   1.446
 9271TIP3    H127770   6.308   6.172   1.403
 9271TIP3    H227771   6.221   6.294   1.425
 9272TIP3   OH227772   2.518   4.411   0.254
 9272TIP3    H127773   2.485   4.379   0.337
 9272TIP3    H227774   2.606   4.444   0.274
 9273TIP3   OH227775   7.092   6.222   5.452
 9273TIP3    H127776   7.043   6.146   5.482
 9273TIP3    H227777   7.065   6.233   5.361
 9274TIP3   OH227778   7.101   0.437   4.378
 9274TIP3    H127779   7.131   0.417   4.467
 9274TIP3    H227780   7.020   0.487   4.391
 9275TIP3   OH227781   1.901   0.827   4.435
 9275TIP3    H127782   1.988   0.847   4.470
 9275TIP3    H227783   1.860   0.913   4.423
 9276TIP3   OH227784   5.488   7.099   2.937
 9276TIP3    H127785   5.446   7.039   2.998
 9276TIP3    H227786   5.416   7.143   2.892
 9277TIP3   OH227787   2.939   2.210   0.500
 9277TIP3    H127788   2.907   2.286   0.451
 9277TIP3    H227789   3.023   2.238   0.536
 9278TIP3   OH227790   8.288   4.543   1.281
 9278TIP3    H127791   8.252   4.628   1.305
 9278TIP3    H227792   8.374   4.540   1.324
 9279TIP3   OH227793   2.120   2.512   2.044
 9279TIP3    H127794   2.125   2.552   2.131
 9279TIP3    H227795   2.084   2.581   1.989
 9280TIP3   OH227796   5.498   3.132   0.267
 9280TIP3    H127797   5.479   3.153   0.359
 9280TIP3    H227798   5.491   3.216   0.221
 9281TIP3   OH227799   5.773   2.045   2.189
 9281TIP3    H127800   5.703   2.026   2.127
 9281TIP3    H227801   5.805   2.132   2.164
 9282TIP3   OH227802   0.663   2.375   6.498
 9282TIP3    H127803   0.691   2.375   6.406
 9282TIP3    H227804   0.724   2.435   6.541
 9283TIP3   OH227805   2.360   2.163   0.838
 9283TIP3    H127806   2.296   2.121   0.780
 9283TIP3    H227807   2.346   2.257   0.826
 9284TIP3   OH227808   5.382   4.691   4.849
 9284TIP3    H127809   5.394   4.777   4.887
 9284TIP3    H227810   5.307   4.654   4.897
 9285TIP3   OH227811   4.504   1.550   2.216
 9285TIP3    H127812   4.528   1.545   2.124
 9285TIP3    H227813   4.417   1.590   2.216
 9286TIP3   OH227814   5.055   0.790   5.322
 9286TIP3    H127815   5.015   0.875   5.306
 9286TIP3    H227816   5.022   0.734   5.251
 9287TIP3   OH227817   3.581   0.404   2.101
 9287TIP3    H127818   3.656   0.420   2.043
 9287TIP3    H227819   3.556   0.314   2.082
 9288TIP3   OH227820   5.521   2.162   3.230
 9288TIP3    H127821   5.609   2.170   3.193
 9288TIP3    H227822   5.487   2.082   3.192
 9289TIP3   OH227823   0.842   7.182   0.953
 9289TIP3    H127824   0.885   7.245   0.897
 9289TIP3    H227825   0.804   7.235   1.024
 9290TIP3   OH227826   5.772   4.530   4.465
 9290TIP3    H127827   5.814   4.452   4.430
 9290TIP3    H227828   5.844   4.582   4.503
 9291TIP3   OH227829   2.827   5.300   1.186
 9291TIP3    H127830   2.914   5.280   1.150
 9291TIP3    H227831   2.768   5.243   1.137
 9292TIP3   OH227832   0.306   1.537   6.464
 9292TIP3    H127833   0.283   1.513   6.554
 9292TIP3    H227834   0.234   1.593   6.434
 9293TIP3   OH227835   3.402   6.708   2.585
 9293TIP3    H127836   3.363   6.795   2.586
 9293TIP3    H227837   3.358   6.662   2.514
 9294TIP3   OH227838   1.236   1.463   0.130
 9294TIP3    H127839   1.284   1.427   0.204
 9294TIP3    H227840   1.285   1.433   0.053
 9295TIP3   OH227841   2.859   4.511   6.669
 9295TIP3    H127842   2.935   4.453   6.656
 9295TIP3    H227843   2.852   4.519   6.764
 9296TIP3   OH227844   0.738   1.438   3.684
 9296TIP3    H127845   0.759   1.428   3.591
 9296TIP3    H227846   0.665   1.378   3.699
 9297TIP3   OH227847   2.332   4.700   3.657
 9297TIP3    H127848   2.322   4.663   3.745
 9297TIP3    H227849   2.245   4.728   3.632
 9298TIP3   OH227850   7.689   6.345   5.224
 9298TIP3    H127851   7.721   6.260   5.254
 9298TIP3    H227852   7.594   6.339   5.234
 9299TIP3   OH227853   1.002   1.507   2.459
 9299TIP3    H127854   1.015   1.600   2.479
 9299TIP3    H227855   1.079   1.482   2.408
 9300TIP3   OH227856   7.605   1.117   3.664
 9300TIP3    H127857   7.682   1.157   3.705
 9300TIP3    H227858   7.560   1.190   3.621
 9301TIP3   OH227859   3.273   4.492   2.969
 9301TIP3    H127860   3.312   4.459   3.050
 9301TIP3    H227861   3.228   4.416   2.932
 9302TIP3   OH227862   2.828   0.130   4.983
 9302TIP3    H127863   2.823   0.190   4.909
 9302TIP3    H227864   2.787   0.049   4.952
 9303TIP3   OH227865   3.901   2.479   2.088
 9303TIP3    H127866   3.827   2.531   2.057
 9303TIP3    H227867   3.884   2.391   2.054
 9304TIP3   OH227868   6.651   3.296   2.363
 9304TIP3    H127869   6.744   3.308   2.342
 9304TIP3    H227870   6.643   3.203   2.383
 9305TIP3   OH227871   7.329   2.213   2.100
 9305TIP3    H127872   7.396   2.178   2.042
 9305TIP3    H227873   7.280   2.136   2.130
 9306TIP3   OH227874   1.720   3.496   0.824
 9306TIP3    H127875   1.773   3.553   0.879
 9306TIP3    H227876   1.750   3.408   0.843
 9307TIP3   OH227877   2.167   6.922   4.531
 9307TIP3    H127878   2.092   6.862   4.530
 9307TIP3    H227879   2.140   6.995   4.474
 9308TIP3   OH227880   6.941   4.371   1.991
 9308TIP3    H127881   6.943   4.458   1.950
 9308TIP3    H227882   7.010   4.375   2.057
 9309TIP3   OH227883   2.619   7.446   1.577
 9309TIP3    H127884   2.578   7.456   1.491
 9309TIP3    H227885   2.607   7.531   1.619
 9310TIP3   OH227886   6.649   6.961   1.448
 9310TIP3    H127887   6.576   6.924   1.497
 9310TIP3    H227888   6.629   6.941   1.356
 9311TIP3   OH227889   2.849   1.642   1.325
 9311TIP3    H127890   2.760   1.613   1.346
 9311TIP3    H227891   2.906   1.582   1.373
 9312TIP3   OH227892   0.409   0.650   6.734
 9312TIP3    H127893   0.475   0.687   6.676
 9312TIP3    H227894   0.367   0.581   6.682
 9313TIP3   OH227895   2.613   7.722   5.371
 9313TIP3    H127896   2.524   7.718   5.337
 9313TIP3    H227897   2.623   7.641   5.420
 9314TIP3   OH227898   5.580   6.267   6.791
 9314TIP3    H127899   5.522   6.190   6.793
 9314TIP3    H227900   5.558   6.312   6.710
 9315TIP3   OH227901   5.660   1.765   6.217
 9315TIP3    H127902   5.709   1.824   6.160
 9315TIP3    H227903   5.651   1.813   6.299
 9316TIP3   OH227904   5.676   1.017   1.894
 9316TIP3    H127905   5.752   0.961   1.878
 9316TIP3    H227906   5.692   1.056   1.980
 9317TIP3   OH227907   4.371   6.638   5.942
 9317TIP3    H127908   4.383   6.555   5.897
 9317TIP3    H227909   4.301   6.621   6.005
 9318TIP3   OH227910   0.490   1.537   4.235
 9318TIP3    H127911   0.462   1.555   4.325
 9318TIP3    H227912   0.585   1.550   4.236
 9319TIP3   OH227913   4.384   5.209   2.912
 9319TIP3    H127914   4.330   5.264   2.969
 9319TIP3    H227915   4.387   5.124   2.956
 9320TIP3   OH227916   4.798   7.292   1.864
 9320TIP3    H127917   4.862   7.294   1.936
 9320TIP3    H227918   4.776   7.384   1.850
 9321TIP3   OH227919   6.939   5.834   6.464
 9321TIP3    H127920   6.947   5.782   6.384
 9321TIP3    H227921   6.985   5.915   6.444
 9322TIP3   OH227922   2.967   7.162   6.090
 9322TIP3    H127923   2.890   7.156   6.034
 9322TIP3    H227924   3.010   7.077   6.081
 9323TIP3   OH227925   0.316   7.063   0.409
 9323TIP3    H127926   0.332   7.134   0.347
 9323TIP3    H227927   0.403   7.040   0.442
 9324TIP3   OH227928   3.882   0.809   3.849
 9324TIP3    H127929   3.901   0.902   3.860
 9324TIP3    H227930   3.792   0.806   3.817
 9325TIP3   OH227931   6.316   0.741   3.747
 9325TIP3    H127932   6.256   0.809   3.716
 9325TIP3    H227933   6.380   0.788   3.801
 9326TIP3   OH227934   1.984   3.341   4.351
 9326TIP3    H127935   2.048   3.404   4.384
 9326TIP3    H227936   1.967   3.368   4.261
 9327TIP3   OH227937   0.027   0.722   4.506
 9327TIP3    H127938   0.066   0.808   4.515
 9327TIP3    H227939   0.082   0.664   4.560
 9328TIP3   OH227940   7.686   4.313   0.079
 9328TIP3    H127941   7.674   4.265  -0.003
 9328TIP3    H227942   7.637   4.262   0.144
 9329TIP3   OH227943   7.078   3.648   0.934
 9329TIP3    H127944   7.081   3.591   0.857
 9329TIP3    H227945   7.042   3.593   1.004
 9330TIP3   OH227946   3.678   4.903   1.962
 9330TIP3    H127947   3.645   4.886   1.874
 9330TIP3    H227948   3.624   4.847   2.018
 9331TIP3   OH227949   6.609   4.050   6.656
 9331TIP3    H127950   6.644   3.989   6.591
 9331TIP3    H227951   6.554   4.110   6.606
 9332TIP3   OH227952   1.823   1.276   4.973
 9332TIP3    H127953   1.728   1.273   4.977
 9332TIP3    H227954   1.843   1.301   4.882
 9333TIP3   OH227955   2.045   1.017   1.844
 9333TIP3    H127956   1.986   1.086   1.874
 9333TIP3    H227957   2.005   0.983   1.765
 9334TIP3   OH227958   7.628   1.925   4.275
 9334TIP3    H127959   7.649   1.877   4.355
 9334TIP3    H227960   7.533   1.926   4.272
 9335TIP3   OH227961   3.486   0.683   4.603
 9335TIP3    H127962   3.410   0.718   4.557
 9335TIP3    H227963   3.450   0.615   4.661
 9336TIP3   OH227964   8.218   7.289   3.592
 9336TIP3    H127965   8.284   7.220   3.585
 9336TIP3    H227966   8.249   7.343   3.665
 9337TIP3   OH227967   0.198   0.233   0.103
 9337TIP3    H127968   0.135   0.305   0.094
 9337TIP3    H227969   0.243   0.228   0.019
 9338TIP3   OH227970   0.937   1.734   1.799
 9338TIP3    H127971   0.899   1.663   1.851
 9338TIP3    H227972   0.892   1.730   1.715
 9339TIP3   OH227973   1.790   7.690   0.074
 9339TIP3    H127974   1.707   7.654   0.042
 9339TIP3    H227975   1.764   7.765   0.128
 9340TIP3   OH227976   0.106   1.884   2.308
 9340TIP3    H127977   0.196   1.862   2.288
 9340TIP3    H227978   0.103   1.891   2.404
 9341TIP3   OH227979   7.484   4.136   4.464
 9341TIP3    H127980   7.416   4.072   4.443
 9341TIP3    H227981   7.502   4.181   4.382
 9342TIP3   OH227982   8.210   6.663   1.747
 9342TIP3    H127983   8.210   6.758   1.754
 9342TIP3    H227984   8.239   6.645   1.658
 9343TIP3   OH227985   4.149   6.393   3.448
 9343TIP3    H127986   4.152   6.466   3.510
 9343TIP3    H227987   4.141   6.436   3.362
 9344TIP3   OH227988   3.113   7.695   3.828
 9344TIP3    H127989   3.159   7.772   3.796
 9344TIP3    H227990   3.177   7.624   3.824
 9345TIP3   OH227991   4.102   4.341   6.353
 9345TIP3    H127992   4.183   4.345   6.302
 9345TIP3    H227993   4.058   4.424   6.335
 9346TIP3   OH227994   6.289   4.201   1.841
 9346TIP3    H127995   6.375   4.205   1.883
 9346TIP3    H227996   6.232   4.160   1.905
 9347TIP3   OH227997   4.588   2.225   0.277
 9347TIP3    H127998   4.609   2.198   0.188
 9347TIP3    H227999   4.611   2.318   0.280
 9348TIP3   OH228000   7.022   2.060   1.996
 9348TIP3    H128001   6.996   2.102   2.078
 9348TIP3    H228002   7.051   2.132   1.940
 9349TIP3   OH228003   2.623   7.382   3.325
 9349TIP3    H128004   2.690   7.315   3.325
 9349TIP3    H228005   2.565   7.359   3.252
 9350TIP3   OH228006   6.839   7.191   3.900
 9350TIP3    H128007   6.770   7.174   3.964
 9350TIP3    H228008   6.794   7.198   3.816
 9351TIP3   OH228009   6.921   6.213   3.409
 9351TIP3    H128010   6.965   6.176   3.333
 9351TIP3    H228011   6.848   6.262   3.373
 9352TIP3   OH228012   1.839   7.003   2.187
 9352TIP3    H128013   1.829   6.953   2.268
 9352TIP3    H228014   1.788   6.954   2.122
 9353TIP3   OH228015   2.305   0.588   2.630
 9353TIP3    H128016   2.395   0.559   2.614
 9353TIP3    H228017   2.252   0.512   2.608
 9354TIP3   OH228018   0.669   2.250   4.123
 9354TIP3    H128019   0.667   2.308   4.047
 9354TIP3    H228020   0.578   2.227   4.138
 9355TIP3   OH228021   2.035   3.000   4.936
 9355TIP3    H128022   2.021   3.094   4.932
 9355TIP3    H228023   1.977   2.964   4.869
 9356TIP3   OH228024   4.024   3.785   3.171
 9356TIP3    H128025   4.035   3.778   3.266
 9356TIP3    H228026   3.949   3.730   3.151
 9357TIP3   OH228027   2.770   6.103   5.747
 9357TIP3    H128028   2.755   6.172   5.683
 9357TIP3    H228029   2.821   6.037   5.699
 9358TIP3   OH228030   3.421   5.655   3.581
 9358TIP3    H128031   3.342   5.605   3.558
 9358TIP3    H228032   3.477   5.593   3.626
 9359TIP3   OH228033   6.493   7.071   3.816
 9359TIP3    H128034   6.570   7.059   3.760
 9359TIP3    H228035   6.528   7.102   3.899
 9360TIP3   OH228036   2.300   4.456   6.610
 9360TIP3    H128037   2.265   4.426   6.694
 9360TIP3    H228038   2.392   4.475   6.628
 9361TIP3   OH228039   3.620   5.313   2.375
 9361TIP3    H128040   3.649   5.241   2.320
 9361TIP3    H228041   3.693   5.374   2.377
 9362TIP3   OH228042   2.206   5.406   0.170
 9362TIP3    H128043   2.291   5.368   0.192
 9362TIP3    H228044   2.225   5.468   0.100
 9363TIP3   OH228045   5.823   6.539   2.809
 9363TIP3    H128046   5.854   6.590   2.734
 9363TIP3    H228047   5.779   6.464   2.769
 9364TIP3   OH228048   4.072   2.868   5.340
 9364TIP3    H128049   4.094   2.896   5.428
 9364TIP3    H228050   3.985   2.905   5.324
 9365TIP3   OH228051   2.184   1.694   5.737
 9365TIP3    H128052   2.156   1.777   5.699
 9365TIP3    H228053   2.104   1.652   5.767
 9366TIP3   OH228054   4.280   0.564   2.382
 9366TIP3    H128055   4.359   0.537   2.334
 9366TIP3    H228056   4.313   0.621   2.451
 9367TIP3   OH228057   5.846   4.794   2.433
 9367TIP3    H128058   5.889   4.840   2.504
 9367TIP3    H228059   5.786   4.858   2.395
 9368TIP3   OH228060   5.750   3.394   2.946
 9368TIP3    H128061   5.681   3.346   2.900
 9368TIP3    H228062   5.819   3.404   2.881
 9369TIP3   OH228063   4.443   6.929   0.796
 9369TIP3    H128064   4.536   6.930   0.771
 9369TIP3    H228065   4.431   6.844   0.840
 9370TIP3   OH228066   5.115   4.417   5.219
 9370TIP3    H128067   5.060   4.361   5.163
 9370TIP3    H228068   5.196   4.367   5.231
 9371TIP3   OH228069   1.982   6.997   1.082
 9371TIP3    H128070   1.938   6.927   1.034
 9371TIP3    H228071   1.951   6.988   1.172
 9372TIP3   OH228072   4.774   3.331   2.123
 9372TIP3    H128073   4.680   3.320   2.139
 9372TIP3    H228074   4.782   3.334   2.028
 9373TIP3   OH228075   3.152   6.379   6.519
 9373TIP3    H128076   3.109   6.455   6.557
 9373TIP3    H228077   3.147   6.392   6.424
 9374TIP3   OH228078   1.672   0.163   6.220
 9374TIP3    H128079   1.671   0.112   6.140
 9374TIP3    H228080   1.631   0.246   6.197
 9375TIP3   OH228081   4.753   3.966   1.553
 9375TIP3    H128082   4.678   3.926   1.510
 9375TIP3    H228083   4.809   3.893   1.577
 9376TIP3   OH228084   0.896   6.977   2.532
 9376TIP3    H128085   0.970   7.039   2.536
 9376TIP3    H228086   0.856   6.981   2.618
 9377TIP3   OH228087   5.809   3.492   5.880
 9377TIP3    H128088   5.765   3.571   5.848
 9377TIP3    H228089   5.835   3.514   5.970
 9378TIP3   OH228090   2.714   2.800   5.037
 9378TIP3    H128091   2.690   2.870   4.977
 9378TIP3    H228092   2.808   2.812   5.052
 9379TIP3   OH228093   4.977   1.018   6.701
 9379TIP3    H128094   4.886   0.997   6.681
 9379TIP3    H228095   5.025   0.938   6.678
 9380TIP3   OH228096   3.770   1.519   6.337
 9380TIP3    H128097   3.763   1.556   6.424
 9380TIP3    H228098   3.819   1.584   6.287
 9381TIP3   OH228099   6.531   6.053   5.015
 9381TIP3    H128100   6.455   6.010   5.055
 9381TIP3    H228101   6.514   6.146   5.026
 9382TIP3   OH228102   2.796   1.844   5.871
 9382TIP3    H128103   2.846   1.913   5.828
 9382TIP3    H228104   2.859   1.773   5.884
 9383TIP3   OH228105   0.716   2.378   4.815
 9383TIP3    H128106   0.629   2.354   4.848
 9383TIP3    H228107   0.724   2.472   4.835
 9384TIP3   OH228108   0.011   3.604   1.206
 9384TIP3    H128109   0.018   3.510   1.223
 9384TIP3    H228110  -0.003   3.610   1.112
 9385TIP3   OH228111   6.840   0.588   2.951
 9385TIP3    H128112   6.904   0.615   3.018
 9385TIP3    H228113   6.848   0.654   2.883
 9386TIP3   OH228114   1.244   2.662   3.386
 9386TIP3    H128115   1.261   2.753   3.411
 9386TIP3    H228116   1.209   2.621   3.465
 9387TIP3   OH228117   4.870   3.714   4.915
 9387TIP3    H128118   4.803   3.692   4.980
 9387TIP3    H228119   4.897   3.630   4.878
 9388TIP3   OH228120   5.139   0.133   4.494
 9388TIP3    H128121   5.206   0.187   4.537
 9388TIP3    H228122   5.113   0.070   4.561
 9389TIP3   OH228123   4.299   4.177   5.202
 9389TIP3    H128124   4.353   4.099   5.193
 9389TIP3    H228125   4.217   4.156   5.158
 9390TIP3   OH228126   5.066   1.634   4.018
 9390TIP3    H128127   4.986   1.586   3.995
 9390TIP3    H228128   5.045   1.675   4.102
 9391TIP3   OH228129   5.206   4.306   6.044
 9391TIP3    H128130   5.233   4.330   5.955
 9391TIP3    H228131   5.288   4.301   6.093
 9392TIP3   OH228132   3.897   0.011   2.425
 9392TIP3    H128133   3.922  -0.081   2.415
 9392TIP3    H228134   3.977   0.054   2.457
 9393TIP3   OH228135   6.075   5.488   2.882
 9393TIP3    H128136   5.997   5.442   2.851
 9393TIP3    H228137   6.065   5.578   2.852
 9394TIP3   OH228138   2.912   1.444   1.747
 9394TIP3    H128139   2.829   1.488   1.764
 9394TIP3    H228140   2.912   1.428   1.653
 9395TIP3   OH228141   5.354   7.303   1.566
 9395TIP3    H128142   5.426   7.271   1.622
 9395TIP3    H228143   5.280   7.311   1.625
 9396TIP3   OH228144   0.267   5.247   4.737
 9396TIP3    H128145   0.254   5.192   4.815
 9396TIP3    H228146   0.360   5.270   4.739
 9397TIP3   OH228147   7.336   3.869   2.839
 9397TIP3    H128148   7.257   3.888   2.788
 9397TIP3    H228149   7.331   3.929   2.913
 9398TIP3   OH228150   1.121   7.706   0.604
 9398TIP3    H128151   1.061   7.643   0.565
 9398TIP3    H228152   1.089   7.792   0.576
 9399TIP3   OH228153   0.566   4.108   6.660
 9399TIP3    H128154   0.521   4.134   6.580
 9399TIP3    H228155   0.498   4.068   6.714
 9400TIP3   OH228156   5.116   4.693   3.973
 9400TIP3    H128157   5.074   4.611   4.000
 9400TIP3    H228158   5.154   4.728   4.053
 9401TIP3   OH228159   7.024   6.167   1.762
 9401TIP3    H128160   7.090   6.232   1.783
 9401TIP3    H228161   6.968   6.163   1.840
 9402TIP3   OH228162   4.844   2.498   0.453
 9402TIP3    H128163   4.783   2.443   0.501
 9402TIP3    H228164   4.790   2.540   0.386
 9403TIP3   OH228165   7.561   0.054   1.699
 9403TIP3    H128166   7.655   0.066   1.685
 9403TIP3    H228167   7.519   0.111   1.635
 9404TIP3   OH228168   2.367   0.954   6.124
 9404TIP3    H128169   2.436   0.895   6.155
 9404TIP3    H228170   2.415   1.033   6.097
 9405TIP3   OH228171   0.154   1.021   2.538
 9405TIP3    H128172   0.104   0.939   2.543
 9405TIP3    H228173   0.173   1.031   2.444
 9406TIP3   OH228174   3.433   5.109   2.519
 9406TIP3    H128175   3.520   5.148   2.528
 9406TIP3    H228176   3.448   5.015   2.521
 9407TIP3   OH228177   5.457   0.584   5.878
 9407TIP3    H128178   5.435   0.505   5.827
 9407TIP3    H228179   5.476   0.550   5.966
 9408TIP3   OH228180   5.170   0.256   5.383
 9408TIP3    H128181   5.238   0.269   5.449
 9408TIP3    H228182   5.210   0.286   5.301
 9409TIP3   OH228183   7.764   4.185   5.243
 9409TIP3    H128184   7.698   4.219   5.302
 9409TIP3    H228185   7.830   4.255   5.238
 9410TIP3   OH228186   3.840   1.632   4.062
 9410TIP3    H128187   3.766   1.690   4.078
 9410TIP3    H228188   3.917   1.680   4.092
 9411TIP3   OH228189   4.437   3.730   2.284
 9411TIP3    H128190   4.390   3.647   2.287
 9411TIP3    H228191   4.489   3.732   2.364
 9412TIP3   OH228192   8.241   3.875   1.637
 9412TIP3    H128193   8.272   3.852   1.725
 9412TIP3    H228194   8.201   3.962   1.648
 9413TIP3   OH228195   5.647   5.386   1.156
 9413TIP3    H128196   5.600   5.371   1.074
 9413TIP3    H228197   5.580   5.417   1.217
 9414TIP3   OH228198   7.940   2.194   3.905
 9414TIP3    H128199   7.861   2.168   3.953
 9414TIP3    H228200   7.908   2.252   3.836
 9415TIP3   OH228201   6.744   1.157   5.418
 9415TIP3    H128202   6.727   1.094   5.349
 9415TIP3    H228203   6.832   1.136   5.449
 9416TIP3   OH228204   3.690   7.171   5.890
 9416TIP3    H128205   3.599   7.159   5.916
 9416TIP3    H228206   3.725   7.234   5.953
 9417TIP3   OH228207   0.954   0.224   6.112
 9417TIP3    H128208   0.979   0.136   6.086
 9417TIP3    H228209   0.971   0.278   6.035
 9418TIP3   OH228210   4.202   6.017   5.130
 9418TIP3    H128211   4.190   6.097   5.080
 9418TIP3    H228212   4.210   6.046   5.221
 9419TIP3   OH228213   2.616   6.334   3.473
 9419TIP3    H128214   2.699   6.341   3.520
 9419TIP3    H228215   2.639   6.290   3.391
 9420TIP3   OH228216   2.807   6.668   0.762
 9420TIP3    H128217   2.733   6.608   0.756
 9420TIP3    H228218   2.828   6.690   0.672
 9421TIP3   OH228219   1.219   5.737   0.960
 9421TIP3    H128220   1.216   5.783   1.043
 9421TIP3    H228221   1.178   5.797   0.898
 9422TIP3   OH228222   0.854   1.766   6.560
 9422TIP3    H128223   0.790   1.717   6.612
 9422TIP3    H228224   0.922   1.701   6.539
 9423TIP3   OH228225   1.969   2.730   1.824
 9423TIP3    H128226   2.049   2.742   1.773
 9423TIP3    H228227   1.902   2.710   1.759
 9424TIP3   OH228228   6.893   7.249   5.432
 9424TIP3    H128229   6.987   7.233   5.424
 9424TIP3    H228230   6.886   7.333   5.477
 9425TIP3   OH228231   5.749   5.415   3.219
 9425TIP3    H128232   5.760   5.333   3.171
 9425TIP3    H228233   5.756   5.483   3.152
 9426TIP3   OH228234   7.083   0.790   0.674
 9426TIP3    H128235   7.153   0.787   0.609
 9426TIP3    H228236   7.005   0.815   0.625
 9427TIP3   OH228237   7.904   3.407   6.344
 9427TIP3    H128238   7.892   3.313   6.333
 9427TIP3    H228239   7.852   3.446   6.273
 9428TIP3   OH228240   4.554   1.779   1.966
 9428TIP3    H128241   4.532   1.824   2.048
 9428TIP3    H228242   4.499   1.821   1.900
 9429TIP3   OH228243   2.595   1.328   6.469
 9429TIP3    H128244   2.526   1.377   6.425
 9429TIP3    H228245   2.559   1.308   6.555
 9430TIP3   OH228246   5.638   0.416   4.284
 9430TIP3    H128247   5.585   0.461   4.219
 9430TIP3    H228248   5.595   0.331   4.296
 9431TIP3   OH228249   0.697   5.465   4.352
 9431TIP3    H128250   0.641   5.420   4.415
 9431TIP3    H228251   0.682   5.558   4.368
 9432TIP3   OH228252   4.771   7.537   2.061
 9432TIP3    H128253   4.682   7.515   2.088
 9432TIP3    H228254   4.765   7.550   1.966
 9433TIP3   OH228255   6.621   2.331   0.922
 9433TIP3    H128256   6.589   2.258   0.870
 9433TIP3    H228257   6.544   2.367   0.965
 9434TIP3   OH228258   1.373   5.244   4.061
 9434TIP3    H128259   1.383   5.324   4.112
 9434TIP3    H228260   1.403   5.174   4.119
 9435TIP3   OH228261   4.018   1.875   1.973
 9435TIP3    H128262   4.082   1.927   1.925
 9435TIP3    H228263   4.032   1.900   2.065
 9436TIP3   OH228264   6.867   2.306   1.040
 9436TIP3    H128265   6.905   2.218   1.040
 9436TIP3    H228266   6.779   2.293   1.003
 9437TIP3   OH228267   7.878   7.258   5.684
 9437TIP3    H128268   7.949   7.240   5.745
 9437TIP3    H228269   7.803   7.208   5.718
 9438TIP3   OH228270   2.739   1.876   5.583
 9438TIP3    H128271   2.830   1.850   5.567
 9438TIP3    H228272   2.745   1.965   5.618
 9439TIP3   OH228273   0.038   6.656   1.467
 9439TIP3    H128274   0.119   6.708   1.469
 9439TIP3    H228275   0.050   6.595   1.394
 9440TIP3   OH228276   2.057   2.652   4.984
 9440TIP3    H128277   2.033   2.713   5.054
 9440TIP3    H228278   2.070   2.568   5.028
 9441TIP3   OH228279   0.052   7.484   2.703
 9441TIP3    H128280   0.103   7.485   2.784
 9441TIP3    H228281  -0.011   7.413   2.716
 9442TIP3   OH228282   5.288   5.096   3.081
 9442TIP3    H128283   5.241   5.013   3.072
 9442TIP3    H228284   5.225   5.163   3.055
 9443TIP3   OH228285   4.021   3.885   1.480
 9443TIP3    H128286   4.106   3.849   1.454
 9443TIP3    H228287   3.969   3.884   1.399
 9444TIP3   OH228288   3.619   0.346   0.718
 9444TIP3    H128289   3.567   0.274   0.753
 9444TIP3    H228290   3.555   0.414   0.696
 9445TIP3   OH228291   7.549   4.433   4.047
 9445TIP3    H128292   7.641   4.456   4.054
 9445TIP3    H228293   7.503   4.505   4.092
 9446TIP3   OH228294   1.329   3.433   1.137
 9446TIP3    H128295   1.267   3.465   1.072
 9446TIP3    H228296   1.276   3.416   1.214
 9447TIP3   OH228297   6.509   3.950   0.322
 9447TIP3    H128298   6.532   4.041   0.342
 9447TIP3    H228299   6.571   3.925   0.253
 9448TIP3   OH228300   6.712   2.674   5.811
 9448TIP3    H128301   6.698   2.753   5.759
 9448TIP3    H228302   6.793   2.636   5.776
 9449TIP3   OH228303   5.624   6.868   5.846
 9449TIP3    H128304   5.667   6.792   5.807
 9449TIP3    H228305   5.583   6.913   5.771
 9450TIP3   OH228306   5.967   4.497   6.039
 9450TIP3    H128307   5.928   4.481   6.126
 9450TIP3    H228308   5.925   4.577   6.009
 9451TIP3   OH228309   0.065   7.426   2.119
 9451TIP3    H128310   0.006   7.404   2.191
 9451TIP3    H228311   0.008   7.434   2.043
 9452TIP3   OH228312   2.854   5.121   5.312
 9452TIP3    H128313   2.933   5.077   5.344
 9452TIP3    H228314   2.787   5.100   5.377
 9453TIP3   OH228315   7.213   7.515   3.891
 9453TIP3    H128316   7.198   7.497   3.984
 9453TIP3    H228317   7.129   7.497   3.849
 9454TIP3   OH228318   3.471   1.584   5.253
 9454TIP3    H128319   3.474   1.494   5.221
 9454TIP3    H228320   3.400   1.625   5.203
 9455TIP3   OH228321   0.777   0.634   6.195
 9455TIP3    H128322   0.829   0.600   6.122
 9455TIP3    H228323   0.785   0.729   6.188
 9456TIP3   OH228324   3.969   1.932   2.504
 9456TIP3    H128325   3.986   1.884   2.585
 9456TIP3    H228326   3.932   2.015   2.532
 9457TIP3   OH228327   1.044   1.251   0.023
 9457TIP3    H128328   1.114   1.191  -0.002
 9457TIP3    H228329   1.066   1.280   0.111
 9458TIP3   OH228330   5.125   7.115   6.364
 9458TIP3    H128331   5.208   7.074   6.389
 9458TIP3    H228332   5.147   7.171   6.290
 9459TIP3   OH228333   6.491   2.144   4.534
 9459TIP3    H128334   6.540   2.065   4.556
 9459TIP3    H228335   6.552   2.197   4.483
 9460TIP3   OH228336   4.215   4.143   2.683
 9460TIP3    H128337   4.194   4.218   2.627
 9460TIP3    H228338   4.200   4.067   2.627
 9461TIP3   OH228339   2.997   2.400   2.390
 9461TIP3    H128340   2.940   2.470   2.358
 9461TIP3    H228341   3.072   2.401   2.330
 9462TIP3   OH228342   1.755   5.543   2.074
 9462TIP3    H128343   1.684   5.480   2.085
 9462TIP3    H228344   1.724   5.603   2.006
 9463TIP3   OH228345   7.438   1.406   4.298
 9463TIP3    H128346   7.526   1.427   4.330
 9463TIP3    H228347   7.385   1.397   4.377
 9464TIP3   OH228348   1.537   3.395   5.229
 9464TIP3    H128349   1.461   3.366   5.178
 9464TIP3    H228350   1.576   3.464   5.175
 9465TIP3   OH228351   3.873   0.475   2.978
 9465TIP3    H128352   3.911   0.388   2.969
 9465TIP3    H228353   3.787   0.459   3.018
 9466TIP3   OH228354   5.112   5.506   0.353
 9466TIP3    H128355   5.018   5.513   0.371
 9466TIP3    H228356   5.148   5.462   0.430
 9467TIP3   OH228357   5.936   6.999   4.285
 9467TIP3    H128358   5.849   7.017   4.250
 9467TIP3    H228359   5.920   6.969   4.375
 9468TIP3   OH228360   1.890   4.041   0.326
 9468TIP3    H128361   1.796   4.047   0.312
 9468TIP3    H228362   1.925   4.010   0.243
 9469TIP3   OH228363   2.956   4.715   4.443
 9469TIP3    H128364   2.920   4.773   4.510
 9469TIP3    H228365   2.989   4.774   4.375
 9470TIP3   OH228366   3.496   3.955   6.648
 9470TIP3    H128367   3.567   3.981   6.589
 9470TIP3    H228368   3.509   3.861   6.662
 9471TIP3   OH228369  -0.011   7.378   5.362
 9471TIP3    H128370   0.078   7.369   5.329
 9471TIP3    H228371  -0.062   7.314   5.313
 9472TIP3   OH228372   1.713   7.822   1.625
 9472TIP3    H128373   1.739   7.841   1.535
 9472TIP3    H228374   1.647   7.754   1.617
 9473TIP3   OH228375   8.236   6.404   5.140
 9473TIP3    H128376   8.167   6.384   5.204
 9473TIP3    H228377   8.260   6.494   5.160
 9474TIP3   OH228378   1.068   7.152   1.552
 9474TIP3    H128379   1.072   7.220   1.620
 9474TIP3    H228380   1.063   7.201   1.470
 9475TIP3   OH228381   2.550   6.330   4.324
 9475TIP3    H128382   2.633   6.361   4.287
 9475TIP3    H228383   2.504   6.291   4.251
 9476TIP3   OH228384   4.791   1.596   4.049
 9476TIP3    H128385   4.810   1.563   4.137
 9476TIP3    H228386   4.773   1.689   4.062
 9477TIP3   OH228387   6.372   0.433   2.532
 9477TIP3    H128388   6.394   0.512   2.582
 9477TIP3    H228389   6.279   0.421   2.546
 9478TIP3   OH228390   6.680   0.767   3.417
 9478TIP3    H128391   6.741   0.812   3.476
 9478TIP3    H228392   6.704   0.798   3.330
 9479TIP3   OH228393   0.011   1.997   5.093
 9479TIP3    H128394   0.032   2.060   5.024
 9479TIP3    H228395   0.004   1.913   5.046
 9480TIP3   OH228396   7.060   5.668   6.259
 9480TIP3    H128397   7.026   5.582   6.282
 9480TIP3    H228398   7.146   5.673   6.302
 9481TIP3   OH228399   6.420   0.598   0.103
 9481TIP3    H128400   6.350   0.614   0.040
 9481TIP3    H228401   6.376   0.592   0.188
 9482TIP3   OH228402   1.968   5.201   6.438
 9482TIP3    H128403   2.057   5.182   6.410
 9482TIP3    H228404   1.917   5.201   6.357
 9483TIP3   OH228405   5.801   0.687   3.256
 9483TIP3    H128406   5.858   0.674   3.332
 9483TIP3    H228407   5.828   0.619   3.195
 9484TIP3   OH228408   2.137   5.975   3.791
 9484TIP3    H128409   2.207   5.935   3.843
 9484TIP3    H228410   2.159   5.954   3.700
 9485TIP3   OH228411   5.121   5.940   5.889
 9485TIP3    H128412   5.091   5.995   5.961
 9485TIP3    H228413   5.216   5.933   5.902
 9486TIP3   OH228414   1.609   5.253   3.153
 9486TIP3    H128415   1.584   5.310   3.081
 9486TIP3    H228416   1.702   5.272   3.168
 9487TIP3   OH228417   3.993   4.661   3.385
 9487TIP3    H128418   4.007   4.567   3.389
 9487TIP3    H228419   4.005   4.691   3.476
 9488TIP3   OH228420   7.500   3.216   3.877
 9488TIP3    H128421   7.430   3.151   3.885
 9488TIP3    H228422   7.550   3.187   3.801
 9489TIP3   OH228423   0.694   1.647   4.638
 9489TIP3    H128424   0.669   1.590   4.711
 9489TIP3    H228425   0.621   1.640   4.577
 9490TIP3   OH228426   6.149   6.945   6.074
 9490TIP3    H128427   6.054   6.956   6.069
 9490TIP3    H228428   6.164   6.856   6.040
 9491TIP3   OH228429   7.562   3.656   5.042
 9491TIP3    H128430   7.609   3.636   5.123
 9491TIP3    H228431   7.632   3.670   4.977
 9492TIP3   OH228432   5.131   3.259   6.118
 9492TIP3    H128433   5.106   3.334   6.173
 9492TIP3    H228434   5.144   3.297   6.031
 9493TIP3   OH228435   4.963   1.115   1.589
 9493TIP3    H128436   5.039   1.172   1.599
 9493TIP3    H228437   4.996   1.028   1.613
 9494TIP3   OH228438   4.755   3.132   6.268
 9494TIP3    H128439   4.734   3.188   6.193
 9494TIP3    H228440   4.701   3.054   6.255
 9495TIP3   OH228441   0.915   1.700   1.521
 9495TIP3    H128442   0.844   1.693   1.457
 9495TIP3    H228443   0.986   1.649   1.483
 9496TIP3   OH228444   7.083   1.107   6.418
 9496TIP3    H128445   7.015   1.048   6.453
 9496TIP3    H228446   7.161   1.051   6.410
 9497TIP3   OH228447   5.620   6.415   3.470
 9497TIP3    H128448   5.547   6.382   3.523
 9497TIP3    H228449   5.697   6.407   3.526
 9498TIP3   OH228450   1.314   1.536   4.865
 9498TIP3    H128451   1.400   1.526   4.825
 9498TIP3    H228452   1.327   1.508   4.956
 9499TIP3   OH228453   5.480   3.631   1.568
 9499TIP3    H128454   5.543   3.681   1.619
 9499TIP3    H228455   5.484   3.669   1.480
 9500TIP3   OH228456   0.368   3.303   6.430
 9500TIP3    H128457   0.358   3.395   6.407
 9500TIP3    H228458   0.458   3.282   6.404
 9501TIP3   OH228459   7.015   4.531   0.689
 9501TIP3    H128460   7.090   4.486   0.727
 9501TIP3    H228461   6.959   4.460   0.657
 9502TIP3   OH228462   5.355   5.631   5.626
 9502TIP3    H128463   5.373   5.716   5.585
 9502TIP3    H228464   5.391   5.567   5.565
 9503TIP3   OH228465   4.368   2.747   1.597
 9503TIP3    H128466   4.452   2.790   1.613
 9503TIP3    H228467   4.327   2.801   1.529
 9504TIP3   OH228468   6.955   1.742   3.320
 9504TIP3    H128469   6.869   1.739   3.278
 9504TIP3    H228470   6.988   1.653   3.313
 9505TIP3   OH228471   8.071   2.030   1.406
 9505TIP3    H128472   8.057   2.124   1.393
 9505TIP3    H228473   7.986   1.990   1.387
 9506TIP3   OH228474   1.953   3.936   3.845
 9506TIP3    H128475   2.013   4.010   3.837
 9506TIP3    H228476   1.902   3.955   3.924
 9507TIP3   OH228477   0.851   5.595   6.641
 9507TIP3    H128478   0.853   5.612   6.547
 9507TIP3    H228479   0.874   5.679   6.681
 9508TIP3   OH228480   3.663   2.003   6.585
 9508TIP3    H128481   3.579   2.023   6.542
 9508TIP3    H228482   3.668   2.066   6.657
 9509TIP3   OH228483   3.332   2.644   2.420
 9509TIP3    H128484   3.296   2.732   2.435
 9509TIP3    H228485   3.275   2.587   2.471
 9510TIP3   OH228486   3.842   7.134   6.280
 9510TIP3    H128487   3.818   7.192   6.208
 9510TIP3    H228488   3.937   7.132   6.280
 9511TIP3   OH228489   4.199   7.749   1.176
 9511TIP3    H128490   4.208   7.657   1.149
 9511TIP3    H228491   4.123   7.780   1.126
 9512TIP3   OH228492   4.870   7.089   6.456
 9512TIP3    H128493   4.876   7.015   6.517
 9512TIP3    H228494   4.959   7.123   6.450
 9513TIP3   OH228495   1.574   0.168   6.753
 9513TIP3    H128496   1.566   0.217   6.672
 9513TIP3    H228497   1.624   0.089   6.730
 9514TIP3   OH228498   1.926   7.166   0.011
 9514TIP3    H128499   1.990   7.095   0.001
 9514TIP3    H228500   1.950   7.208   0.094
 9515TIP3   OH228501   0.656   0.505   4.075
 9515TIP3    H128502   0.720   0.475   4.139
 9515TIP3    H228503   0.709   0.535   4.001
 9516TIP3   OH228504   7.503   5.271   0.417
 9516TIP3    H128505   7.580   5.217   0.402
 9516TIP3    H228506   7.458   5.271   0.332
 9517TIP3   OH228507   0.212   3.669   5.243
 9517TIP3    H128508   0.176   3.700   5.325
 9517TIP3    H228509   0.152   3.701   5.176
 9518TIP3   OH228510   6.771   2.258   3.856
 9518TIP3    H128511   6.693   2.246   3.801
 9518TIP3    H228512   6.843   2.225   3.803
 9519TIP3   OH228513   0.524   2.649   0.402
 9519TIP3    H128514   0.475   2.589   0.346
 9519TIP3    H228515   0.526   2.605   0.488
 9520TIP3   OH228516   8.263   4.524   2.176
 9520TIP3    H128517   8.241   4.611   2.141
 9520TIP3    H228518   8.322   4.487   2.111
 9521TIP3   OH228519   2.888   4.356   0.930
 9521TIP3    H128520   2.937   4.292   0.981
 9521TIP3    H228521   2.799   4.351   0.964
 9522TIP3   OH228522   5.679   7.275   1.566
 9522TIP3    H128523   5.723   7.360   1.565
 9522TIP3    H228524   5.634   7.272   1.650
 9523TIP3   OH228525   2.465   2.143   1.266
 9523TIP3    H128526   2.543   2.181   1.226
 9523TIP3    H228527   2.426   2.090   1.196
 9524TIP3   OH228528   1.561   3.930   0.503
 9524TIP3    H128529   1.595   3.847   0.535
 9524TIP3    H228530   1.576   3.927   0.408
 9525TIP3   OH228531   6.005   6.098   6.802
 9525TIP3    H128532   6.056   6.171   6.766
 9525TIP3    H228533   5.917   6.111   6.768
 9526TIP3   OH228534   4.090   6.650   5.765
 9526TIP3    H128535   4.077   6.631   5.858
 9526TIP3    H228536   4.007   6.689   5.737
 9527TIP3   OH228537   1.721   2.136   5.780
 9527TIP3    H128538   1.675   2.173   5.705
 9527TIP3    H228539   1.814   2.143   5.758
 9528TIP3   OH228540   7.435   3.225   4.753
 9528TIP3    H128541   7.504   3.281   4.718
 9528TIP3    H228542   7.481   3.165   4.812
 9529TIP3   OH228543   3.573   2.274   4.875
 9529TIP3    H128544   3.595   2.181   4.883
 9529TIP3    H228545   3.597   2.311   4.959
 9530TIP3   OH228546   6.120   0.754   4.037
 9530TIP3    H128547   6.098   0.781   4.126
 9530TIP3    H228548   6.215   0.761   4.032
 9531TIP3   OH228549   6.817   4.016   4.026
 9531TIP3    H128550   6.784   4.027   3.937
 9531TIP3    H228551   6.840   4.105   4.054
 9532TIP3   OH228552   6.331   1.849   2.116
 9532TIP3    H128553   6.394   1.833   2.186
 9532TIP3    H228554   6.361   1.930   2.074
 9533TIP3   OH228555   4.008   4.750   1.366
 9533TIP3    H128556   4.057   4.683   1.414
 9533TIP3    H228557   4.038   4.741   1.275
 9534TIP3   OH228558   6.910   4.917   4.993
 9534TIP3    H128559   6.934   4.961   5.075
 9534TIP3    H228560   6.981   4.855   4.978
 9535TIP3   OH228561   0.947   6.656   5.556
 9535TIP3    H128562   0.862   6.663   5.513
 9535TIP3    H228563   0.975   6.566   5.541
 9536TIP3   OH228564   4.094   2.825   0.958
 9536TIP3    H128565   4.143   2.890   1.009
 9536TIP3    H228566   4.148   2.811   0.880
 9537TIP3   OH228567   5.439   5.886   4.244
 9537TIP3    H128568   5.517   5.915   4.292
 9537TIP3    H228569   5.416   5.959   4.187
 9538TIP3   OH228570   6.794   1.646   1.277
 9538TIP3    H128571   6.751   1.692   1.349
 9538TIP3    H228572   6.878   1.618   1.313
 9539TIP3   OH228573   5.883   7.485   3.493
 9539TIP3    H128574   5.944   7.553   3.464
 9539TIP3    H228575   5.797   7.525   3.486
 9540TIP3   OH228576   6.740   2.254   4.419
 9540TIP3    H128577   6.811   2.253   4.483
 9540TIP3    H228578   6.784   2.240   4.335
 9541TIP3   OH228579   5.244   1.106   6.713
 9541TIP3    H128580   5.149   1.109   6.725
 9541TIP3    H228581   5.275   1.042   6.777
 9542TIP3   OH228582   7.258   0.499   5.574
 9542TIP3    H128583   7.346   0.475   5.601
 9542TIP3    H228584   7.205   0.420   5.591
 9543TIP3   OH228585   4.519   0.375   6.728
 9543TIP3    H128586   4.520   0.435   6.803
 9543TIP3    H228587   4.448   0.313   6.748
 9544TIP3   OH228588   0.114   0.885   1.301
 9544TIP3    H128589   0.095   0.911   1.391
 9544TIP3    H228590   0.090   0.793   1.297
 9545TIP3   OH228591   0.440   4.895   4.725
 9545TIP3    H128592   0.512   4.912   4.785
 9545TIP3    H228593   0.434   4.800   4.721
 9546TIP3   OH228594   5.879   4.925   2.086
 9546TIP3    H128595   5.936   4.854   2.116
 9546TIP3    H228596   5.858   4.902   1.996
 9547TIP3   OH228597   1.021   2.820   5.374
 9547TIP3    H128598   1.051   2.761   5.305
 9547TIP3    H228599   1.021   2.907   5.334
 9548TIP3   OH228600   3.134   0.149   4.962
 9548TIP3    H128601   3.118   0.057   4.938
 9548TIP3    H228602   3.048   0.181   4.989
 9549TIP3   OH228603   0.208   5.666   2.799
 9549TIP3    H128604   0.206   5.692   2.891
 9549TIP3    H228605   0.199   5.571   2.801
 9550TIP3   OH228606   7.787   3.318   5.055
 9550TIP3    H128607   7.700   3.282   5.071
 9550TIP3    H228608   7.794   3.392   5.115
 9551TIP3   OH228609   3.421   5.450   2.044
 9551TIP3    H128610   3.400   5.357   2.032
 9551TIP3    H228611   3.343   5.496   2.016
 9552TIP3   OH228612   7.151   2.830   3.996
 9552TIP3    H128613   7.156   2.740   3.964
 9552TIP3    H228614   7.194   2.827   4.081
 9553TIP3   OH228615   7.930   6.294   5.794
 9553TIP3    H128616   7.835   6.285   5.788
 9553TIP3    H228617   7.948   6.294   5.889
 9554TIP3   OH228618   0.641   3.448   5.568
 9554TIP3    H128619   0.708   3.500   5.524
 9554TIP3    H228620   0.609   3.388   5.500
 9555TIP3   OH228621   3.769   5.734   1.573
 9555TIP3    H128622   3.788   5.671   1.503
 9555TIP3    H228623   3.802   5.692   1.652
 9556TIP3   OH228624   6.909   2.325   5.104
 9556TIP3    H128625   6.816   2.307   5.118
 9556TIP3    H228626   6.937   2.369   5.185
 9557TIP3   OH228627   1.010   5.534   4.343
 9557TIP3    H128628   0.924   5.494   4.331
 9557TIP3    H228629   0.993   5.628   4.350
 9558TIP3   OH228630   0.849   3.138   2.381
 9558TIP3    H128631   0.759   3.135   2.348
 9558TIP3    H228632   0.842   3.108   2.471
 9559TIP3   OH228633   4.637   3.070   3.083
 9559TIP3    H128634   4.597   3.084   2.997
 9559TIP3    H228635   4.586   2.998   3.121
 9560TIP3   OH228636   0.623   7.746   4.023
 9560TIP3    H128637   0.545   7.783   4.064
 9560TIP3    H228638   0.639   7.666   4.073
 9561TIP3   OH228639   6.687   3.750   1.119
 9561TIP3    H128640   6.716   3.836   1.090
 9561TIP3    H228641   6.599   3.765   1.154
 9562TIP3   OH228642   7.264   7.783   3.282
 9562TIP3    H128643   7.181   7.809   3.322
 9562TIP3    H228644   7.271   7.839   3.204
 9563TIP3   OH228645   5.316   6.745   1.857
 9563TIP3    H128646   5.349   6.674   1.912
 9563TIP3    H228647   5.253   6.791   1.913
 9564TIP3   OH228648   4.251   7.757   2.934
 9564TIP3    H128649   4.255   7.693   2.864
 9564TIP3    H228650   4.281   7.839   2.895
 9565TIP3   OH228651   4.345   5.595   2.230
 9565TIP3    H128652   4.289   5.520   2.252
 9565TIP3    H228653   4.302   5.670   2.271
 9566TIP3   OH228654   4.180   4.383   2.437
 9566TIP3    H128655   4.152   4.322   2.369
 9566TIP3    H228656   4.103   4.438   2.452
 9567TIP3   OH228657   7.774   2.637   2.349
 9567TIP3    H128658   7.707   2.596   2.295
 9567TIP3    H228659   7.806   2.567   2.406
 9568TIP3   OH228660   7.766   1.437   5.003
 9568TIP3    H128661   7.830   1.497   4.964
 9568TIP3    H228662   7.762   1.364   4.942
 9569TIP3   OH228663   1.283   1.086   5.260
 9569TIP3    H128664   1.209   1.102   5.319
 9569TIP3    H228665   1.354   1.138   5.297
 9570TIP3   OH228666   5.321   6.582   0.060
 9570TIP3    H128667   5.285   6.663   0.026
 9570TIP3    H228668   5.290   6.514   0.001
 9571TIP3   OH228669   2.120   3.481   6.112
 9571TIP3    H128670   2.177   3.519   6.179
 9571TIP3    H228671   2.097   3.395   6.146
 9572TIP3   OH228672   3.316   5.189   1.576
 9572TIP3    H128673   3.241   5.141   1.542
 9572TIP3    H228674   3.278   5.260   1.627
 9573TIP3   OH228675   0.447   2.451   0.849
 9573TIP3    H128676   0.478   2.525   0.900
 9573TIP3    H228677   0.377   2.487   0.794
 9574TIP3   OH228678   7.549   1.585   2.160
 9574TIP3    H128679   7.502   1.582   2.243
 9574TIP3    H228680   7.492   1.538   2.099
 9575TIP3   OH228681   5.946   0.619   1.015
 9575TIP3    H128682   5.957   0.566   0.936
 9575TIP3    H228683   5.999   0.574   1.081
 9576TIP3   OH228684   1.980   2.105   5.964
 9576TIP3    H128685   1.956   2.026   6.012
 9576TIP3    H228686   2.048   2.145   6.018
 9577TIP3   OH228687   6.426   3.054   2.827
 9577TIP3    H128688   6.511   3.041   2.786
 9577TIP3    H228689   6.364   3.052   2.754
 9578TIP3   OH228690   2.491   5.223   6.348
 9578TIP3    H128691   2.516   5.223   6.255
 9578TIP3    H228692   2.571   5.198   6.394
 9579TIP3   OH228693   6.506   2.857   0.985
 9579TIP3    H128694   6.472   2.935   1.029
 9579TIP3    H228695   6.461   2.857   0.900
 9580TIP3   OH228696   6.452   0.188   1.527
 9580TIP3    H128697   6.404   0.215   1.604
 9580TIP3    H228698   6.505   0.264   1.503
 9581TIP3   OH228699   2.508   6.012   3.306
 9581TIP3    H128700   2.447   5.967   3.248
 9581TIP3    H228701   2.568   6.057   3.247
 9582TIP3   OH228702   3.699   4.187   3.537
 9582TIP3    H128703   3.727   4.163   3.626
 9582TIP3    H228704   3.683   4.282   3.542
 9583TIP3   OH228705   2.354   4.038   2.424
 9583TIP3    H128706   2.407   4.080   2.355
 9583TIP3    H228707   2.266   4.073   2.411
 9584TIP3   OH228708   5.687   4.256   0.639
 9584TIP3    H128709   5.634   4.251   0.559
 9584TIP3    H228710   5.705   4.165   0.662
 9585TIP3   OH228711   1.579   6.430   1.842
 9585TIP3    H128712   1.536   6.381   1.772
 9585TIP3    H228713   1.610   6.362   1.903
 9586TIP3   OH228714   3.117   1.387   0.257
 9586TIP3    H128715   3.062   1.320   0.218
 9586TIP3    H228716   3.174   1.416   0.186
 9587TIP3   OH228717   1.237   6.114   3.167
 9587TIP3    H128718   1.181   6.133   3.092
 9587TIP3    H228719   1.177   6.077   3.233
 9588TIP3   OH228720   6.591   6.063   3.038
 9588TIP3    H128721   6.521   6.115   3.077
 9588TIP3    H228722   6.580   5.975   3.076
 9589TIP3   OH228723   7.881   1.753   0.994
 9589TIP3    H128724   7.897   1.831   1.047
 9589TIP3    H228725   7.963   1.705   0.998
 9590TIP3   OH228726   4.166   2.773   5.876
 9590TIP3    H128727   4.259   2.783   5.899
 9590TIP3    H228728   4.155   2.679   5.863
 9591TIP3   OH228729   5.748   0.110   0.705
 9591TIP3    H128730   5.701   0.128   0.624
 9591TIP3    H228731   5.711   0.172   0.768
 9592TIP3   OH228732   6.132   6.773   6.424
 9592TIP3    H128733   6.165   6.827   6.352
 9592TIP3    H228734   6.202   6.772   6.488
 9593TIP3   OH228735   5.885   5.714   4.459
 9593TIP3    H128736   5.971   5.721   4.418
 9593TIP3    H228737   5.885   5.627   4.499
 9594TIP3   OH228738   1.598   1.340   4.089
 9594TIP3    H128739   1.621   1.299   4.005
 9594TIP3    H228740   1.681   1.374   4.122
 9595TIP3   OH228741   3.689   6.390   5.142
 9595TIP3    H128742   3.726   6.305   5.166
 9595TIP3    H228743   3.646   6.421   5.221
 9596TIP3   OH228744   3.525   1.384   6.277
 9596TIP3    H128745   3.598   1.439   6.250
 9596TIP3    H228746   3.509   1.410   6.368
 9597TIP3   OH228747   6.364   7.151   3.417
 9597TIP3    H128748   6.428   7.220   3.406
 9597TIP3    H228749   6.368   7.128   3.510
 9598TIP3   OH228750   8.185   1.352   0.168
 9598TIP3    H128751   8.245   1.425   0.164
 9598TIP3    H228752   8.240   1.274   0.155
 9599TIP3   OH228753   4.438   3.887   4.587
 9599TIP3    H128754   4.533   3.881   4.576
 9599TIP3    H228755   4.418   3.822   4.655
 9600TIP3   OH228756   0.832   5.398   3.336
 9600TIP3    H128757   0.858   5.305   3.334
 9600TIP3    H228758   0.781   5.410   3.256
 9601TIP3   OH228759   3.331   3.773   4.583
 9601TIP3    H128760   3.296   3.703   4.638
 9601TIP3    H228761   3.254   3.815   4.545
 9602TIP3   OH228762   4.001   4.534   0.775
 9602TIP3    H128763   3.960   4.546   0.861
 9602TIP3    H228764   3.944   4.583   0.716
 9603TIP3   OH228765   7.052   5.425   2.763
 9603TIP3    H128766   7.026   5.378   2.684
 9603TIP3    H228767   6.970   5.436   2.812
 9604TIP3   OH228768   5.554   4.257   1.503
 9604TIP3    H128769   5.603   4.178   1.527
 9604TIP3    H228770   5.546   4.306   1.584
 9605TIP3   OH228771   7.237   0.610   4.194
 9605TIP3    H128772   7.176   0.543   4.225
 9605TIP3    H228773   7.199   0.693   4.224
 9606TIP3   OH228774   4.781   4.287   0.107
 9606TIP3    H128775   4.831   4.207   0.093
 9606TIP3    H228776   4.846   4.357   0.106
 9607TIP3   OH228777   5.138   3.296   3.299
 9607TIP3    H128778   5.077   3.360   3.336
 9607TIP3    H228779   5.152   3.233   3.369
 9608TIP3   OH228780   7.304   1.327   5.397
 9608TIP3    H128781   7.275   1.241   5.428
 9608TIP3    H228782   7.246   1.347   5.324
 9609TIP3   OH228783   5.627   5.768   4.684
 9609TIP3    H128784   5.552   5.766   4.625
 9609TIP3    H228785   5.685   5.699   4.651
 9610TIP3   OH228786   1.455   1.609   1.607
 9610TIP3    H128787   1.381   1.624   1.548
 9610TIP3    H228788   1.474   1.696   1.644
 9611TIP3   OH228789   1.553   2.637   0.139
 9611TIP3    H128790   1.535   2.605   0.227
 9611TIP3    H228791   1.473   2.683   0.113
 9612TIP3   OH228792   2.386   2.542   5.979
 9612TIP3    H128793   2.383   2.600   6.055
 9612TIP3    H228794   2.400   2.455   6.016
 9613TIP3   OH228795   5.568   0.204   6.041
 9613TIP3    H128796   5.574   0.144   5.966
 9613TIP3    H228797   5.494   0.173   6.092
 9614TIP3   OH228798   7.719   6.724   6.693
 9614TIP3    H128799   7.684   6.789   6.754
 9614TIP3    H228800   7.770   6.664   6.748
 9615TIP3   OH228801   3.886   0.548   0.928
 9615TIP3    H128802   3.838   0.631   0.921
 9615TIP3    H228803   3.978   0.573   0.931
 9616TIP3   OH228804   0.806   3.420   3.120
 9616TIP3    H128805   0.788   3.513   3.137
 9616TIP3    H228806   0.746   3.374   3.178
 9617TIP3   OH228807   1.114   0.388   3.825
 9617TIP3    H128808   1.198   0.393   3.779
 9617TIP3    H228809   1.103   0.474   3.864
 9618TIP3   OH228810   1.162   4.873   1.749
 9618TIP3    H128811   1.118   4.958   1.741
 9618TIP3    H228812   1.178   4.846   1.659
 9619TIP3   OH228813   7.549   0.815   5.515
 9619TIP3    H128814   7.581   0.905   5.515
 9619TIP3    H228815   7.453   0.824   5.512
 9620TIP3   OH228816   0.097   4.705   5.521
 9620TIP3    H128817   0.091   4.758   5.442
 9620TIP3    H228818   0.122   4.767   5.590
 9621TIP3   OH228819   7.320   2.155   0.880
 9621TIP3    H128820   7.365   2.213   0.818
 9621TIP3    H228821   7.298   2.077   0.829
 9622TIP3   OH228822   4.956   7.316   3.258
 9622TIP3    H128823   4.967   7.403   3.220
 9622TIP3    H228824   4.863   7.295   3.245
 9623TIP3   OH228825   1.832   7.435   2.642
 9623TIP3    H128826   1.830   7.426   2.737
 9623TIP3    H228827   1.818   7.528   2.627
 9624TIP3   OH228828   3.927   0.666   0.470
 9624TIP3    H128829   3.959   0.677   0.560
 9624TIP3    H228830   3.835   0.692   0.474
 9625TIP3   OH228831   8.194   4.215   2.172
 9625TIP3    H128832   8.243   4.167   2.104
 9625TIP3    H228833   8.110   4.169   2.176
 9626TIP3   OH228834   2.823   3.354   3.579
 9626TIP3    H128835   2.808   3.282   3.641
 9626TIP3    H228836   2.755   3.343   3.513
 9627TIP3   OH228837   0.959   1.445   2.946
 9627TIP3    H128838   0.955   1.371   2.886
 9627TIP3    H228839   1.051   1.451   2.972
 9628TIP3   OH228840   7.073   3.907   0.441
 9628TIP3    H128841   7.111   3.895   0.528
 9628TIP3    H228842   7.133   3.861   0.383
 9629TIP3   OH228843   7.421   1.447   2.717
 9629TIP3    H128844   7.429   1.542   2.726
 9629TIP3    H228845   7.434   1.431   2.624
 9630TIP3   OH228846   5.123   6.708   4.590
 9630TIP3    H128847   5.192   6.657   4.548
 9630TIP3    H228848   5.044   6.655   4.579
 9631TIP3   OH228849  -0.020   3.840   5.207
 9631TIP3    H128850   0.000   3.922   5.163
 9631TIP3    H228851  -0.058   3.785   5.139
 9632TIP3   OH228852   3.043   3.605   4.216
 9632TIP3    H128853   2.985   3.680   4.209
 9632TIP3    H228854   3.012   3.557   4.293
 9633TIP3   OH228855   2.405   4.825   5.793
 9633TIP3    H128856   2.437   4.786   5.712
 9633TIP3    H228857   2.460   4.785   5.861
 9634TIP3   OH228858   2.235   1.166   3.614
 9634TIP3    H128859   2.329   1.178   3.621
 9634TIP3    H228860   2.204   1.246   3.572
 9635TIP3   OH228861   6.502   0.922   2.781
 9635TIP3    H128862   6.532   0.831   2.771
 9635TIP3    H228863   6.516   0.961   2.695
 9636TIP3   OH228864   3.770   5.569   2.391
 9636TIP3    H128865   3.765   5.620   2.310
 9636TIP3    H228866   3.726   5.624   2.456
 9637TIP3   OH228867   3.200   5.011   6.257
 9637TIP3    H128868   3.213   4.935   6.313
 9637TIP3    H228869   3.241   5.083   6.304
 9638TIP3   OH228870   5.237   0.430   3.296
 9638TIP3    H128871   5.184   0.376   3.355
 9638TIP3    H228872   5.246   0.513   3.342
 9639TIP3   OH228873   5.380   0.122   6.746
 9639TIP3    H128874   5.457   0.177   6.761
 9639TIP3    H228875   5.372   0.116   6.651
 9640TIP3   OH228876   7.936   7.694   1.313
 9640TIP3    H128877   7.997   7.767   1.325
 9640TIP3    H228878   7.992   7.617   1.303
 9641TIP3   OH228879   6.705   3.148   0.961
 9641TIP3    H128880   6.622   3.155   0.913
 9641TIP3    H228881   6.715   3.055   0.978
 9642TIP3   OH228882   5.387   4.261   0.977
 9642TIP3    H128883   5.439   4.188   0.942
 9642TIP3    H228884   5.318   4.219   1.028
 9643TIP3   OH228885   0.969   6.679   3.751
 9643TIP3    H128886   1.031   6.606   3.747
 9643TIP3    H228887   1.016   6.747   3.798
 9644TIP3   OH228888   2.906   5.865   1.145
 9644TIP3    H128889   2.976   5.885   1.082
 9644TIP3    H228890   2.927   5.777   1.177
 9645TIP3   OH228891   5.793   2.131   1.898
 9645TIP3    H128892   5.793   2.150   1.804
 9645TIP3    H228893   5.872   2.078   1.912
 9646TIP3   OH228894   4.307   1.745   2.250
 9646TIP3    H128895   4.325   1.710   2.337
 9646TIP3    H228896   4.363   1.822   2.243
 9647TIP3   OH228897   2.631   7.652   4.634
 9647TIP3    H128898   2.706   7.667   4.578
 9647TIP3    H228899   2.634   7.722   4.699
 9648TIP3   OH228900   7.718   5.233   1.283
 9648TIP3    H128901   7.710   5.139   1.267
 9648TIP3    H228902   7.629   5.261   1.305
 9649TIP3   OH228903   2.905   1.446   5.487
 9649TIP3    H128904   2.930   1.507   5.556
 9649TIP3    H228905   2.963   1.371   5.500
 9650TIP3   OH228906   7.646   3.914   5.180
 9650TIP3    H128907   7.694   3.982   5.226
 9650TIP3    H228908   7.612   3.958   5.102
 9651TIP3   OH228909   6.250   1.448   1.511
 9651TIP3    H128910   6.193   1.517   1.545
 9651TIP3    H228911   6.327   1.494   1.479
 9652TIP3   OH228912   0.235   0.258   5.188
 9652TIP3    H128913   0.186   0.201   5.129
 9652TIP3    H228914   0.320   0.215   5.198
 9653TIP3   OH228915   7.303   6.791   5.473
 9653TIP3    H128916   7.366   6.730   5.512
 9653TIP3    H228917   7.320   6.786   5.379
 9654TIP3   OH228918   2.359   3.392   2.690
 9654TIP3    H128919   2.364   3.398   2.785
 9654TIP3    H228920   2.300   3.318   2.673
 9655TIP3   OH228921   6.144   1.766   4.505
 9655TIP3    H128922   6.226   1.724   4.530
 9655TIP3    H228923   6.170   1.831   4.439
 9656TIP3   OH228924   6.139   6.207   3.086
 9656TIP3    H128925   6.045   6.225   3.093
 9656TIP3    H228926   6.154   6.195   2.993
 9657TIP3   OH228927   2.784   4.201   4.395
 9657TIP3    H128928   2.750   4.116   4.422
 9657TIP3    H228929   2.810   4.187   4.304
 9658TIP3   OH228930   8.006   2.069   1.836
 9658TIP3    H128931   7.976   1.986   1.800
 9658TIP3    H228932   8.098   2.055   1.857
 9659TIP3   OH228933   3.045   1.041   5.913
 9659TIP3    H128934   3.076   0.952   5.930
 9659TIP3    H228935   3.114   1.082   5.862
 9660TIP3   OH228936   6.524   3.810   4.631
 9660TIP3    H128937   6.502   3.763   4.551
 9660TIP3    H228938   6.613   3.843   4.616
 9661TIP3   OH228939   1.180   6.233   3.859
 9661TIP3    H128940   1.271   6.211   3.841
 9661TIP3    H228941   1.135   6.148   3.862
 9662TIP3   OH228942   4.476   0.868   1.145
 9662TIP3    H128943   4.504   0.959   1.132
 9662TIP3    H228944   4.549   0.827   1.190
 9663TIP3   OH228945   0.601   5.457   2.847
 9663TIP3    H128946   0.568   5.409   2.771
 9663TIP3    H228947   0.622   5.544   2.813
 9664TIP3   OH228948   3.797   1.500   4.295
 9664TIP3    H128949   3.767   1.542   4.214
 9664TIP3    H228950   3.886   1.471   4.276
 9665TIP3   OH228951   8.201   2.635   0.800
 9665TIP3    H128952   8.174   2.544   0.815
 9665TIP3    H228953   8.221   2.669   0.887
 9666TIP3   OH228954   0.141   7.219   0.049
 9666TIP3    H128955   0.114   7.138   0.093
 9666TIP3    H228956   0.165   7.278   0.120
 9667TIP3   OH228957   1.789   2.520   4.051
 9667TIP3    H128958   1.716   2.468   4.085
 9667TIP3    H228959   1.803   2.588   4.116
 9668TIP3   OH228960   8.045   1.588   5.690
 9668TIP3    H128961   8.101   1.601   5.613
 9668TIP3    H228962   8.093   1.631   5.761
 9669TIP3   OH228963   6.905   4.450   3.053
 9669TIP3    H128964   6.942   4.373   3.008
 9669TIP3    H228965   6.814   4.453   3.024
 9670TIP3   OH228966   5.960   5.884   6.294
 9670TIP3    H128967   5.932   5.852   6.380
 9670TIP3    H228968   6.055   5.896   6.303
 9671TIP3   OH228969   7.889   6.947   5.217
 9671TIP3    H128970   7.965   6.912   5.170
 9671TIP3    H228971   7.928   7.004   5.284
 9672TIP3   OH228972   4.978   4.798   0.812
 9672TIP3    H128973   5.010   4.808   0.902
 9672TIP3    H228974   5.024   4.866   0.762
 9673TIP3   OH228975   4.415   2.517   5.045
 9673TIP3    H128976   4.477   2.511   5.118
 9673TIP3    H228977   4.366   2.435   5.048
 9674TIP3   OH228978   6.978   7.109   6.420
 9674TIP3    H128979   6.892   7.149   6.415
 9674TIP3    H228980   6.970   7.027   6.371
 9675TIP3   OH228981   5.841   0.937   3.195
 9675TIP3    H128982   5.889   0.962   3.273
 9675TIP3    H228983   5.810   0.848   3.214
 9676TIP3   OH228984   2.392   2.488   1.548
 9676TIP3    H128985   2.464   2.451   1.599
 9676TIP3    H228986   2.347   2.412   1.511
 9677TIP3   OH228987   7.353   6.450   1.665
 9677TIP3    H128988   7.355   6.531   1.615
 9677TIP3    H228989   7.436   6.449   1.713
 9678TIP3   OH228990  -0.001   4.336   3.962
 9678TIP3    H128991  -0.039   4.421   3.986
 9678TIP3    H228992   0.022   4.345   3.870
 9679TIP3   OH228993   0.076   5.672   4.997
 9679TIP3    H128994   0.021   5.640   4.926
 9679TIP3    H228995   0.064   5.609   5.068
 9680TIP3   OH228996   5.435   3.132   1.880
 9680TIP3    H128997   5.398   3.060   1.829
 9680TIP3    H228998   5.364   3.161   1.937
 9681TIP3   OH228999   6.818   6.661   0.634
 9681TIP3    H129000   6.729   6.634   0.614
 9681TIP3    H229001   6.831   6.634   0.725
 9682TIP3   OH229002   8.024   0.681   1.288
 9682TIP3    H129003   7.996   0.592   1.266
 9682TIP3    H229004   8.117   0.683   1.269
 9683TIP3   OH229005   2.869   2.375   0.726
 9683TIP3    H129006   2.832   2.286   0.726
 9683TIP3    H229007   2.793   2.432   0.741
 9684TIP3   OH229008   4.894   2.068   3.841
 9684TIP3    H129009   4.984   2.091   3.862
 9684TIP3    H229010   4.886   2.084   3.747
 9685TIP3   OH229011   0.765   4.408   4.643
 9685TIP3    H129012   0.817   4.481   4.608
 9685TIP3    H229013   0.699   4.390   4.576
 9686TIP3   OH229014   4.674   6.596   1.051
 9686TIP3    H129015   4.634   6.540   1.117
 9686TIP3    H229016   4.760   6.557   1.035
 9687TIP3   OH229017   5.796   2.322   2.255
 9687TIP3    H129018   5.756   2.327   2.342
 9687TIP3    H229019   5.743   2.379   2.200
 9688TIP3   OH229020   4.999   4.241   0.559
 9688TIP3    H129021   4.943   4.300   0.609
 9688TIP3    H229022   4.973   4.253   0.468
 9689TIP3   OH229023   8.026   0.117   2.398
 9689TIP3    H129024   8.120   0.116   2.413
 9689TIP3    H229025   7.988   0.086   2.481
 9690TIP3   OH229026   2.606   1.706   0.979
 9690TIP3    H129027   2.551   1.633   0.948
 9690TIP3    H229028   2.609   1.695   1.074
 9691TIP3   OH229029   7.350   4.851   1.323
 9691TIP3    H129030   7.425   4.805   1.360
 9691TIP3    H229031   7.287   4.781   1.302
 9692TIP3   OH229032   4.185   0.371   3.096
 9692TIP3    H129033   4.197   0.282   3.130
 9692TIP3    H229034   4.137   0.360   3.014
 9693TIP3   OH229035   6.824   0.528   0.184
 9693TIP3    H129036   6.790   0.603   0.135
 9693TIP3    H229037   6.842   0.563   0.271
 9694TIP3   OH229038   4.858   4.574   1.188
 9694TIP3    H129039   4.889   4.527   1.265
 9694TIP3    H229040   4.807   4.509   1.139
 9695TIP3   OH229041   1.627   2.303   3.424
 9695TIP3    H129042   1.612   2.213   3.397
 9695TIP3    H229043   1.547   2.329   3.469
 9696TIP3   OH229044   1.478   5.085   5.360
 9696TIP3    H129045   1.525   5.008   5.330
 9696TIP3    H229046   1.428   5.055   5.436
 9697TIP3   OH229047   4.415   5.824   3.969
 9697TIP3    H129048   4.332   5.871   3.963
 9697TIP3    H229049   4.443   5.814   3.878
 9698TIP3   OH229050   3.668   0.675   1.738
 9698TIP3    H129051   3.688   0.745   1.800
 9698TIP3    H229052   3.722   0.694   1.662
 9699TIP3   OH229053   5.990   4.277   4.890
 9699TIP3    H129054   6.070   4.233   4.916
 9699TIP3    H229055   5.989   4.273   4.794
 9700TIP3   OH229056   6.910   1.727   0.289
 9700TIP3    H129057   6.876   1.779   0.363
 9700TIP3    H229058   7.002   1.753   0.282
 9701TIP3   OH229059   3.954   0.228   1.886
 9701TIP3    H129060   3.947   0.323   1.879
 9701TIP3    H229061   3.995   0.213   1.972
 9702TIP3   OH229062   7.529   2.524   2.211
 9702TIP3    H129063   7.488   2.470   2.278
 9702TIP3    H229064   7.463   2.531   2.142
 9703TIP3   OH229065   3.412   4.612   3.347
 9703TIP3    H129066   3.480   4.571   3.293
 9703TIP3    H229067   3.330   4.572   3.317
 9704TIP3   OH229068   2.131   6.384   6.334
 9704TIP3    H129069   2.043   6.349   6.322
 9704TIP3    H229070   2.140   6.450   6.265
 9705TIP3   OH229071   1.846   1.356   4.720
 9705TIP3    H129072   1.913   1.403   4.671
 9705TIP3    H229073   1.832   1.275   4.670
 9706TIP3   OH229074   3.135   1.122   6.367
 9706TIP3    H129075   3.226   1.146   6.349
 9706TIP3    H229076   3.124   1.036   6.326
 9707TIP3   OH229077   7.073   3.192   0.339
 9707TIP3    H129078   7.064   3.159   0.250
 9707TIP3    H229079   7.075   3.112   0.393
 9708TIP3   OH229080   2.085   6.232   0.885
 9708TIP3    H129081   2.043   6.182   0.955
 9708TIP3    H229082   2.178   6.229   0.907
 9709TIP3   OH229083   1.372   2.800   1.911
 9709TIP3    H129084   1.434   2.749   1.859
 9709TIP3    H229085   1.393   2.778   2.001
 9710TIP3   OH229086   0.299   6.751   0.637
 9710TIP3    H129087   0.369   6.764   0.701
 9710TIP3    H229088   0.251   6.834   0.637
 9711TIP3   OH229089   4.597   1.823   5.555
 9711TIP3    H129090   4.575   1.845   5.465
 9711TIP3    H229091   4.548   1.743   5.574
 9712TIP3   OH229092   6.331   3.182   3.936
 9712TIP3    H129093   6.423   3.166   3.913
 9712TIP3    H229094   6.300   3.242   3.868
 9713TIP3   OH229095   7.699   1.874   0.540
 9713TIP3    H129096   7.721   1.917   0.622
 9713TIP3    H229097   7.731   1.785   0.551
 9714TIP3   OH229098   5.555   2.102   1.324
 9714TIP3    H129099   5.600   2.087   1.407
 9714TIP3    H229100   5.463   2.111   1.349
 9715TIP3   OH229101   4.659   3.478   2.678
 9715TIP3    H129102   4.694   3.389   2.677
 9715TIP3    H229103   4.736   3.534   2.670
 9716TIP3   OH229104   0.405   2.093   1.138
 9716TIP3    H129105   0.381   2.184   1.159
 9716TIP3    H229106   0.378   2.044   1.216
 9717TIP3   OH229107   5.409   6.897   2.227
 9717TIP3    H129108   5.390   6.838   2.155
 9717TIP3    H229109   5.487   6.945   2.199
 9718TIP3   OH229110   1.209   6.065   6.125
 9718TIP3    H129111   1.245   6.140   6.172
 9718TIP3    H229112   1.278   6.041   6.063
 9719TIP3   OH229113   0.211   3.959   5.692
 9719TIP3    H129114   0.170   3.873   5.685
 9719TIP3    H229115   0.197   4.000   5.607
 9720TIP3   OH229116   3.392   6.108   2.518
 9720TIP3    H129117   3.466   6.167   2.531
 9720TIP3    H229118   3.410   6.034   2.576
 9721TIP3   OH229119   7.908   5.708   0.635
 9721TIP3    H129120   7.978   5.663   0.683
 9721TIP3    H229121   7.837   5.644   0.631
 9722TIP3   OH229122   3.278   1.437   0.047
 9722TIP3    H129123   3.321   1.506  -0.004
 9722TIP3    H229124   3.340   1.364   0.045
 9723TIP3   OH229125   1.992   1.019   5.546
 9723TIP3    H129126   1.935   1.083   5.504
 9723TIP3    H229127   1.933   0.962   5.596
 9724TIP3   OH229128   8.053   5.628   5.102
 9724TIP3    H129129   8.029   5.544   5.141
 9724TIP3    H229130   8.107   5.671   5.168
 9725TIP3   OH229131   2.842   5.840   4.989
 9725TIP3    H129132   2.820   5.801   4.905
 9725TIP3    H229133   2.868   5.767   5.044
 9726TIP3   OH229134   5.770   3.800   1.174
 9726TIP3    H129135   5.736   3.889   1.184
 9726TIP3    H229136   5.759   3.780   1.081
 9727TIP3   OH229137   1.736   5.545   5.611
 9727TIP3    H129138   1.794   5.566   5.538
 9727TIP3    H229139   1.650   5.579   5.584
 9728TIP3   OH229140   6.937   0.870   1.926
 9728TIP3    H129141   6.964   0.953   1.965
 9728TIP3    H229142   6.841   0.877   1.920
 9729TIP3   OH229143   1.318   2.969   3.109
 9729TIP3    H129144   1.372   2.920   3.171
 9729TIP3    H229145   1.365   3.051   3.096
 9730TIP3   OH229146   3.824   4.189   1.483
 9730TIP3    H129147   3.873   4.166   1.404
 9730TIP3    H229148   3.752   4.245   1.452
 9731TIP3   OH229149   2.923   6.887   1.722
 9731TIP3    H129150   2.917   6.942   1.644
 9731TIP3    H229151   2.961   6.944   1.789
 9732TIP3   OH229152   1.868   3.638   3.924
 9732TIP3    H129153   1.855   3.657   3.831
 9732TIP3    H229154   1.793   3.585   3.949
 9733TIP3   OH229155   0.951   2.986   2.868
 9733TIP3    H129156   0.896   2.913   2.840
 9733TIP3    H229157   1.040   2.950   2.867
 9734TIP3   OH229158   4.986   1.262   2.696
 9734TIP3    H129159   4.978   1.356   2.711
 9734TIP3    H229160   4.913   1.241   2.638
 9735TIP3   OH229161   1.349   3.120   4.032
 9735TIP3    H129162   1.435   3.131   4.073
 9735TIP3    H229163   1.366   3.064   3.957
 9736TIP3   OH229164   1.545   3.245   2.465
 9736TIP3    H129165   1.560   3.316   2.527
 9736TIP3    H229166   1.453   3.252   2.441
 9737TIP3   OH229167   7.533   4.459   6.065
 9737TIP3    H129168   7.618   4.417   6.072
 9737TIP3    H229169   7.494   4.450   6.152
 9738TIP3   OH229170   6.750   1.793   4.786
 9738TIP3    H129171   6.770   1.825   4.874
 9738TIP3    H229172   6.836   1.778   4.746
 9739TIP3   OH229173   1.304   6.754   5.319
 9739TIP3    H129174   1.355   6.704   5.383
 9739TIP3    H229175   1.277   6.688   5.254
 9740TIP3   OH229176   0.369   5.729   4.658
 9740TIP3    H129177   0.310   5.784   4.711
 9740TIP3    H229178   0.435   5.699   4.720
 9741TIP3   OH229179   2.521   6.933   0.271
 9741TIP3    H129180   2.594   6.983   0.308
 9741TIP3    H229181   2.560   6.849   0.247
 9742TIP3   OH229182   1.804   5.092   3.865
 9742TIP3    H129183   1.799   5.031   3.792
 9742TIP3    H229184   1.735   5.157   3.847
 9743TIP3   OH229185   0.594   7.716   2.790
 9743TIP3    H129186   0.612   7.751   2.703
 9743TIP3    H229187   0.499   7.700   2.790
 9744TIP3   OH229188   6.478   4.706   4.393
 9744TIP3    H129189   6.443   4.660   4.469
 9744TIP3    H229190   6.573   4.700   4.402
 9745TIP3   OH229191   3.780   0.458   6.362
 9745TIP3    H129192   3.780   0.406   6.442
 9745TIP3    H229193   3.824   0.403   6.297
 9746TIP3   OH229194   3.714   0.848   1.961
 9746TIP3    H129195   3.794   0.899   1.974
 9746TIP3    H229196   3.738   0.759   1.986
 9747TIP3   OH229197   7.406   7.480   1.448
 9747TIP3    H129198   7.427   7.438   1.365
 9747TIP3    H229199   7.469   7.552   1.456
 9748TIP3   OH229200   0.031   0.988   3.121
 9748TIP3    H129201   0.046   1.077   3.088
 9748TIP3    H229202   0.021   0.935   3.041
 9749TIP3   OH229203   6.011   2.654   1.025
 9749TIP3    H129204   5.937   2.651   1.085
 9749TIP3    H229205   6.058   2.572   1.041
 9750TIP3   OH229206   0.749   1.615   1.992
 9750TIP3    H129207   0.799   1.573   2.062
 9750TIP3    H229208   0.657   1.601   2.016
 9751TIP3   OH229209   5.297   5.486   0.745
 9751TIP3    H129210   5.375   5.456   0.790
 9751TIP3    H229211   5.303   5.447   0.658
 9752TIP3   OH229212   2.587   2.417   2.642
 9752TIP3    H129213   2.589   2.448   2.552
 9752TIP3    H229214   2.660   2.462   2.684
 9753TIP3   OH229215   1.697   1.506   5.616
 9753TIP3    H129216   1.653   1.590   5.604
 9753TIP3    H229217   1.754   1.498   5.539
 9754TIP3   OH229218   3.821   7.261   2.694
 9754TIP3    H129219   3.793   7.260   2.602
 9754TIP3    H229220   3.844   7.353   2.710
 9755TIP3   OH229221   7.256   0.848   0.430
 9755TIP3    H129222   7.319   0.879   0.365
 9755TIP3    H229223   7.278   0.895   0.510
 9756TIP3   OH229224   2.527   6.991   5.699
 9756TIP3    H129225   2.581   7.069   5.707
 9756TIP3    H229226   2.541   6.961   5.609
 9757TIP3   OH229227   8.207   6.558   0.840
 9757TIP3    H129228   8.167   6.477   0.807
 9757TIP3    H229229   8.221   6.611   0.762
 9758TIP3   OH229230   7.516   3.550   5.376
 9758TIP3    H129231   7.458   3.525   5.304
 9758TIP3    H229232   7.456   3.575   5.447
 9759TIP3   OH229233   7.425   5.600   5.724
 9759TIP3    H129234   7.365   5.526   5.727
 9759TIP3    H229235   7.495   5.573   5.664
 9760TIP3   OH229236   6.227   5.163   1.582
 9760TIP3    H129237   6.265   5.165   1.669
 9760TIP3    H229238   6.241   5.252   1.548
 9761TIP3   OH229239   1.712   0.654   4.702
 9761TIP3    H129240   1.724   0.560   4.719
 9761TIP3    H229241   1.641   0.680   4.761
 9762TIP3   OH229242   1.534   4.977   3.574
 9762TIP3    H129243   1.524   4.885   3.551
 9762TIP3    H229244   1.580   5.015   3.499
 9763TIP3   OH229245   8.132   4.561   2.726
 9763TIP3    H129246   8.146   4.564   2.632
 9763TIP3    H229247   8.219   4.569   2.764
 9764TIP3   OH229248   2.664   7.847   6.166
 9764TIP3    H129249   2.596   7.800   6.215
 9764TIP3    H229250   2.729   7.780   6.147
 9765TIP3   OH229251   5.068   4.801   1.093
 9765TIP3    H129252   5.140   4.779   1.152
 9765TIP3    H229253   5.000   4.737   1.113
 9766TIP3   OH229254   2.843   5.913   4.393
 9766TIP3    H129255   2.771   5.892   4.334
 9766TIP3    H229256   2.827   6.003   4.420
 9767TIP3   OH229257   4.750   6.119   1.795
 9767TIP3    H129258   4.810   6.191   1.814
 9767TIP3    H229259   4.717   6.138   1.708
 9768TIP3   OH229260   6.366   3.674  -0.050
 9768TIP3    H129261   6.438   3.660   0.012
 9768TIP3    H229262   6.409   3.709  -0.128
 9769TIP3   OH229263   6.869   6.234   1.999
 9769TIP3    H129264   6.951   6.264   2.039
 9769TIP3    H229265   6.861   6.143   2.028
 9770TIP3   OH229266   8.161   3.693   4.994
 9770TIP3    H129267   8.141   3.685   4.901
 9770TIP3    H229268   8.076   3.701   5.036
 9771TIP3   OH229269   4.145   1.521   5.281
 9771TIP3    H129270   4.134   1.487   5.370
 9771TIP3    H229271   4.208   1.462   5.240
 9772TIP3   OH229272   1.590   5.569   4.223
 9772TIP3    H129273   1.579   5.610   4.309
 9772TIP3    H229274   1.511   5.592   4.175
 9773TIP3   OH229275   3.894   4.387   2.702
 9773TIP3    H129276   3.852   4.306   2.671
 9773TIP3    H229277   3.940   4.420   2.625
 9774TIP3   OH229278   7.915   2.949   4.594
 9774TIP3    H129279   7.832   2.983   4.561
 9774TIP3    H229280   7.955   3.023   4.639
 9775TIP3   OH229281   6.643   2.012   6.631
 9775TIP3    H129282   6.649   1.917   6.625
 9775TIP3    H229283   6.673   2.043   6.546
 9776TIP3   OH229284   5.160   0.992   4.505
 9776TIP3    H129285   5.206   1.076   4.500
 9776TIP3    H229286   5.100   1.002   4.579
 9777TIP3   OH229287   6.951   0.341   6.052
 9777TIP3    H129288   6.955   0.321   6.145
 9777TIP3    H229289   6.899   0.270   6.014
 9778TIP3   OH229290   2.527   5.409   2.003
 9778TIP3    H129291   2.547   5.348   2.074
 9778TIP3    H229292   2.496   5.488   2.046
 9779TIP3   OH229293   0.684   5.841   2.435
 9779TIP3    H129294   0.711   5.932   2.424
 9779TIP3    H229295   0.608   5.831   2.378
 9780TIP3   OH229296   8.218   6.859   5.865
 9780TIP3    H129297   8.287   6.921   5.841
 9780TIP3    H229298   8.165   6.850   5.785
 9781TIP3   OH229299   3.428   2.234   0.724
 9781TIP3    H129300   3.339   2.267   0.736
 9781TIP3    H229301   3.473   2.304   0.677
 9782TIP3   OH229302   0.695   6.304   1.490
 9782TIP3    H129303   0.699   6.294   1.585
 9782TIP3    H229304   0.701   6.215   1.456
 9783TIP3   OH229305   3.018   0.298   5.795
 9783TIP3    H129306   2.988   0.315   5.884
 9783TIP3    H229307   3.109   0.271   5.805
 9784TIP3   OH229308   0.296   3.436   2.669
 9784TIP3    H129309   0.342   3.439   2.754
 9784TIP3    H229310   0.277   3.343   2.656
 9785TIP3   OH229311   6.578   2.459   3.290
 9785TIP3    H129312   6.566   2.507   3.208
 9785TIP3    H229313   6.612   2.525   3.351
 9786TIP3   OH229314   6.465   6.075   3.962
 9786TIP3    H129315   6.497   6.081   4.052
 9786TIP3    H229316   6.373   6.052   3.972
 9787TIP3   OH229317   7.219   3.446   1.842
 9787TIP3    H129318   7.309   3.427   1.868
 9787TIP3    H229319   7.227   3.482   1.753
 9788TIP3   OH229320   4.226   6.037   5.738
 9788TIP3    H129321   4.234   6.057   5.644
 9788TIP3    H229322   4.135   6.057   5.759
 9789TIP3   OH229323   5.596   0.564   5.086
 9789TIP3    H129324   5.570   0.557   4.994
 9789TIP3    H229325   5.684   0.602   5.083
 9790TIP3   OH229326   5.751   4.306   3.170
 9790TIP3    H129327   5.780   4.287   3.081
 9790TIP3    H229328   5.829   4.292   3.224
 9791TIP3   OH229329   7.432   1.988   2.426
 9791TIP3    H129330   7.450   2.062   2.485
 9791TIP3    H229331   7.482   1.916   2.464
 9792TIP3   OH229332   1.926   4.544   2.492
 9792TIP3    H129333   1.988   4.582   2.554
 9792TIP3    H229334   1.841   4.548   2.536
 9793TIP3   OH229335   7.494   3.876   1.796
 9793TIP3    H129336   7.558   3.840   1.857
 9793TIP3    H229337   7.437   3.931   1.849
 9794TIP3   OH229338   0.814   5.482   4.933
 9794TIP3    H129339   0.770   5.522   5.008
 9794TIP3    H229340   0.839   5.394   4.964
 9795TIP3   OH229341   1.857   0.245   0.800
 9795TIP3    H129342   1.951   0.236   0.819
 9795TIP3    H229343   1.835   0.165   0.752
 9796TIP3   OH229344   0.804   7.383   6.108
 9796TIP3    H129345   0.817   7.305   6.162
 9796TIP3    H229346   0.802   7.456   6.170
 9797TIP3   OH229347   4.307   0.535   5.607
 9797TIP3    H129348   4.228   0.588   5.616
 9797TIP3    H229349   4.307   0.508   5.515
 9798TIP3   OH229350   1.191   4.985   0.806
 9798TIP3    H129351   1.234   4.954   0.726
 9798TIP3    H229352   1.169   5.076   0.788
 9799TIP3   OH229353   5.535   6.104   0.258
 9799TIP3    H129354   5.446   6.089   0.225
 9799TIP3    H229355   5.528   6.184   0.310
 9800TIP3   OH229356   2.408   4.488   0.837
 9800TIP3    H129357   2.330   4.538   0.814
 9800TIP3    H229358   2.477   4.523   0.782
 9801TIP3   OH229359   7.934   3.812   5.105
 9801TIP3    H129360   7.870   3.751   5.141
 9801TIP3    H229361   7.964   3.862   5.181
 9802TIP3   OH229362   0.907   5.669   3.004
 9802TIP3    H129363   0.900   5.610   2.929
 9802TIP3    H229364   0.983   5.637   3.053
 9803TIP3   OH229365   6.727   1.229   0.796
 9803TIP3    H129366   6.729   1.275   0.712
 9803TIP3    H229367   6.635   1.229   0.821
 9804TIP3   OH229368   2.181   7.875   0.955
 9804TIP3    H129369   2.191   7.788   0.995
 9804TIP3    H229370   2.087   7.885   0.941
 9805TIP3   OH229371   5.374   3.127   2.931
 9805TIP3    H129372   5.401   3.208   2.887
 9805TIP3    H229373   5.412   3.057   2.877
 9806TIP3   OH229374   4.377   3.256   3.189
 9806TIP3    H129375   4.407   3.174   3.227
 9806TIP3    H229376   4.359   3.234   3.097
 9807TIP3   OH229377   2.127   6.638   1.865
 9807TIP3    H129378   2.153   6.567   1.805
 9807TIP3    H229379   2.198   6.702   1.858
 9808TIP3   OH229380   7.950   6.796   6.142
 9808TIP3    H129381   7.868   6.831   6.176
 9808TIP3    H229382   7.934   6.702   6.136
 9809TIP3   OH229383   0.391   0.050   1.487
 9809TIP3    H129384   0.371   0.071   1.578
 9809TIP3    H229385   0.478   0.089   1.472
 9810TIP3   OH229386   5.699   2.475   6.259
 9810TIP3    H129387   5.687   2.560   6.302
 9810TIP3    H229388   5.611   2.438   6.254
 9811TIP3   OH229389   2.325   3.911   1.913
 9811TIP3    H129390   2.286   3.824   1.903
 9811TIP3    H229391   2.406   3.896   1.962
 9812TIP3   OH229392   0.850   2.400   5.740
 9812TIP3    H129393   0.910   2.396   5.665
 9812TIP3    H229394   0.800   2.319   5.735
 9813TIP3   OH229395   0.098   1.394   5.763
 9813TIP3    H129396   0.061   1.441   5.688
 9813TIP3    H229397   0.192   1.410   5.756
 9814TIP3   OH229398   2.243   2.660   2.265
 9814TIP3    H129399   2.316   2.620   2.217
 9814TIP3    H229400   2.198   2.714   2.200
 9815TIP3   OH229401   2.060   5.398   2.838
 9815TIP3    H129402   2.025   5.424   2.753
 9815TIP3    H229403   2.153   5.382   2.823
 9816TIP3   OH229404   1.237   6.612   0.853
 9816TIP3    H129405   1.308   6.666   0.817
 9816TIP3    H229406   1.275   6.574   0.932
 9817TIP3   OH229407   5.830   1.511   5.261
 9817TIP3    H129408   5.856   1.431   5.306
 9817TIP3    H229409   5.863   1.500   5.172
 9818TIP3   OH229410   0.622   0.383   5.792
 9818TIP3    H129411   0.657   0.331   5.865
 9818TIP3    H229412   0.528   0.385   5.807
 9819TIP3   OH229413   4.364   5.213   6.573
 9819TIP3    H129414   4.440   5.254   6.614
 9819TIP3    H229415   4.317   5.171   6.645
 9820TIP3   OH229416   7.401   7.220   2.072
 9820TIP3    H129417   7.481   7.263   2.104
 9820TIP3    H229418   7.431   7.166   1.999
 9821TIP3   OH229419   3.534   3.038   0.585
 9821TIP3    H129420   3.479   3.116   0.585
 9821TIP3    H229421   3.517   2.995   0.501
 9822TIP3   OH229422   7.901   4.409   2.839
 9822TIP3    H129423   7.945   4.342   2.892
 9822TIP3    H229424   7.973   4.459   2.800
 9823TIP3   OH229425   3.462   4.713   1.426
 9823TIP3    H129426   3.439   4.620   1.437
 9823TIP3    H229427   3.550   4.711   1.389
 9824TIP3   OH229428   4.313   6.170   3.414
 9824TIP3    H129429   4.251   6.107   3.377
 9824TIP3    H229430   4.258   6.234   3.459
 9825TIP3   OH229431   3.698   1.717   5.572
 9825TIP3    H129432   3.679   1.671   5.490
 9825TIP3    H229433   3.768   1.779   5.549
 9826TIP3   OH229434   7.683   5.247   2.199
 9826TIP3    H129435   7.624   5.265   2.272
 9826TIP3    H229436   7.770   5.273   2.230
 9827TIP3   OH229437   2.782   3.571   4.888
 9827TIP3    H129438   2.798   3.621   4.808
 9827TIP3    H229439   2.864   3.523   4.903
 9828TIP3   OH229440   0.287   6.581   3.039
 9828TIP3    H129441   0.199   6.549   3.057
 9828TIP3    H229442   0.284   6.608   2.947
 9829TIP3   OH229443   4.669   7.762   2.671
 9829TIP3    H129444   4.717   7.716   2.603
 9829TIP3    H229445   4.722   7.841   2.688
 9830TIP3   OH229446   1.057   0.419   1.741
 9830TIP3    H129447   1.042   0.502   1.788
 9830TIP3    H229448   1.013   0.353   1.795
 9831TIP3   OH229449   3.696   6.156   6.440
 9831TIP3    H129450   3.782   6.114   6.453
 9831TIP3    H229451   3.717   6.247   6.421
 9832TIP3   OH229452   4.614   0.739   5.288
 9832TIP3    H129453   4.591   0.733   5.381
 9832TIP3    H229454   4.564   0.813   5.255
 9833TIP3   OH229455   5.150   0.442   2.766
 9833TIP3    H129456   5.105   0.358   2.776
 9833TIP3    H229457   5.151   0.458   2.671
 9834TIP3   OH229458   7.068   2.087   3.872
 9834TIP3    H129459   7.130   2.158   3.888
 9834TIP3    H229460   7.115   2.027   3.815
 9835TIP3   OH229461   4.467   4.756   0.279
 9835TIP3    H129462   4.410   4.823   0.316
 9835TIP3    H229463   4.537   4.805   0.237
 9836TIP3   OH229464   2.289   4.838   1.462
 9836TIP3    H129465   2.282   4.932   1.444
 9836TIP3    H229466   2.244   4.796   1.389
 9837TIP3   OH229467   8.011   6.650  -0.030
 9837TIP3    H129468   8.006   6.715   0.040
 9837TIP3    H229469   8.077   6.587  -0.001
 9838TIP3   OH229470   6.184   4.575   4.305
 9838TIP3    H129471   6.133   4.545   4.380
 9838TIP3    H229472   6.274   4.547   4.324
 9839TIP3   OH229473   2.541   7.346   4.138
 9839TIP3    H129474   2.585   7.309   4.061
 9839TIP3    H229475   2.490   7.419   4.103
 9840TIP3   OH229476   7.747   4.430   3.592
 9840TIP3    H129477   7.744   4.474   3.507
 9840TIP3    H229478   7.655   4.426   3.620
 9841TIP3   OH229479   4.098   6.344   5.686
 9841TIP3    H129480   4.125   6.373   5.599
 9841TIP3    H229481   4.097   6.424   5.739
 9842TIP3   OH229482   6.042   5.338   0.833
 9842TIP3    H129483   5.991   5.284   0.892
 9842TIP3    H229484   6.113   5.372   0.886
 9843TIP3   OH229485   0.067   6.148   0.118
 9843TIP3    H129486   0.160   6.164   0.133
 9843TIP3    H229487   0.064   6.101   0.034
 9844TIP3   OH229488   0.549   5.335   0.625
 9844TIP3    H129489   0.641   5.311   0.630
 9844TIP3    H229490   0.531   5.343   0.532
 9845TIP3   OH229491   3.099   0.271   3.365
 9845TIP3    H129492   3.114   0.216   3.442
 9845TIP3    H229493   3.162   0.240   3.301
 9846TIP3   OH229494   0.926   4.916   6.154
 9846TIP3    H129495   0.946   4.927   6.061
 9846TIP3    H229496   0.910   4.822   6.164
 9847TIP3   OH229497   6.527   7.794   5.508
 9847TIP3    H129498   6.433   7.776   5.514
 9847TIP3    H229499   6.554   7.753   5.426
 9848TIP3   OH229500   2.716   3.210   5.172
 9848TIP3    H129501   2.623   3.188   5.174
 9848TIP3    H229502   2.725   3.283   5.233
 9849TIP3   OH229503   1.865   1.005   3.271
 9849TIP3    H129504   1.869   1.089   3.226
 9849TIP3    H229505   1.859   0.940   3.201
 9850TIP3   OH229506   7.807   2.450   5.352
 9850TIP3    H129507   7.896   2.469   5.323
 9850TIP3    H229508   7.793   2.358   5.331
 9851TIP3   OH229509   1.142   2.697   5.163
 9851TIP3    H129510   1.228   2.714   5.126
 9851TIP3    H229511   1.080   2.726   5.096
 9852TIP3   OH229512   6.298   5.454   0.999
 9852TIP3    H129513   6.335   5.366   1.003
 9852TIP3    H229514   6.374   5.512   0.995
 9853TIP3   OH229515   1.387   3.052   5.482
 9853TIP3    H129516   1.317   3.058   5.547
 9853TIP3    H229517   1.341   3.039   5.399
 9854TIP3   OH229518   3.144   6.972   4.075
 9854TIP3    H129519   3.169   6.882   4.055
 9854TIP3    H229520   3.048   6.969   4.084
 9855TIP3   OH229521   0.986   3.537   4.326
 9855TIP3    H129522   1.007   3.475   4.396
 9855TIP3    H229523   0.934   3.487   4.263
 9856TIP3   OH229524   0.624   3.387   0.255
 9856TIP3    H129525   0.562   3.320   0.283
 9856TIP3    H229526   0.700   3.374   0.311
 9857TIP3   OH229527   5.724   0.833   3.777
 9857TIP3    H129528   5.807   0.878   3.794
 9857TIP3    H229529   5.698   0.864   3.690
 9858TIP3   OH229530   7.257   0.013   3.639
 9858TIP3    H129531   7.239   0.091   3.691
 9858TIP3    H229532   7.351   0.017   3.621
 9859TIP3   OH229533   2.570   1.279   0.154
 9859TIP3    H129534   2.586   1.352   0.213
 9859TIP3    H229535   2.556   1.204   0.211
 9860TIP3   OH229536   2.119   5.968   5.124
 9860TIP3    H129537   2.082   5.973   5.036
 9860TIP3    H229538   2.043   5.960   5.182
 9861TIP3   OH229539   4.631   4.366   6.429
 9861TIP3    H129540   4.725   4.380   6.443
 9861TIP3    H229541   4.593   4.453   6.429
 9862TIP3   OH229542   3.334   3.311   6.634
 9862TIP3    H129543   3.310   3.233   6.683
 9862TIP3    H229544   3.251   3.358   6.622
 9863TIP3   OH229545   0.960   4.910   3.173
 9863TIP3    H129546   0.944   4.876   3.085
 9863TIP3    H229547   0.951   4.833   3.230
 9864TIP3   OH229548   5.416   6.187   5.686
 9864TIP3    H129549   5.437   6.095   5.670
 9864TIP3    H229550   5.320   6.189   5.691
 9865TIP3   OH229551   3.989   2.394   4.857
 9865TIP3    H129552   4.014   2.466   4.915
 9865TIP3    H229553   4.021   2.315   4.902
 9866TIP3   OH229554   3.432   1.738   1.315
 9866TIP3    H129555   3.525   1.724   1.334
 9866TIP3    H229556   3.426   1.833   1.300
 9867TIP3   OH229557   6.163   7.315   4.030
 9867TIP3    H129558   6.191   7.224   4.029
 9867TIP3    H229559   6.133   7.330   4.119
 9868TIP3   OH229560   4.499   7.022   3.875
 9868TIP3    H129561   4.419   7.075   3.870
 9868TIP3    H229562   4.508   6.985   3.787
 9869TIP3   OH229563   3.861   0.266   5.614
 9869TIP3    H129564   3.846   0.172   5.610
 9869TIP3    H229565   3.934   0.280   5.553
 9870TIP3   OH229566   6.503   0.055   5.918
 9870TIP3    H129567   6.458   0.140   5.912
 9870TIP3    H229568   6.536   0.052   6.007
 9871TIP3   OH229569   1.224   1.469   2.998
 9871TIP3    H129570   1.223   1.552   2.949
 9871TIP3    H229571   1.315   1.456   3.022
 9872TIP3   OH229572   6.633   5.875   4.810
 9872TIP3    H129573   6.541   5.894   4.830
 9872TIP3    H229574   6.629   5.814   4.736
 9873TIP3   OH229575   3.774   2.192   4.528
 9873TIP3    H129576   3.761   2.244   4.607
 9873TIP3    H229577   3.858   2.223   4.492
 9874TIP3   OH229578   1.287   3.562   5.467
 9874TIP3    H129579   1.335   3.596   5.392
 9874TIP3    H229580   1.226   3.632   5.490
 9875TIP3   OH229581   3.209   4.362   0.703
 9875TIP3    H129582   3.141   4.299   0.679
 9875TIP3    H229583   3.268   4.314   0.760
 9876TIP3   OH229584   6.770   3.465   4.384
 9876TIP3    H129585   6.797   3.388   4.334
 9876TIP3    H229586   6.836   3.474   4.453
 9877TIP3   OH229587   6.296   4.586   1.454
 9877TIP3    H129588   6.225   4.606   1.392
 9877TIP3    H229589   6.262   4.514   1.507
 9878TIP3   OH229590   7.896   7.433   6.511
 9878TIP3    H129591   7.937   7.444   6.425
 9878TIP3    H229592   7.960   7.382   6.561
 9879TIP3   OH229593   6.727   0.795   0.517
 9879TIP3    H129594   6.759   0.855   0.449
 9879TIP3    H229595   6.707   0.852   0.591
 9880TIP3   OH229596   4.407   3.861   3.858
 9880TIP3    H129597   4.318   3.884   3.831
 9880TIP3    H229598   4.458   3.940   3.843
 9881TIP3   OH229599   6.645   2.544   6.382
 9881TIP3    H129600   6.615   2.504   6.300
 9881TIP3    H229601   6.569   2.591   6.415
 9882TIP3   OH229602   1.204   6.872   4.942
 9882TIP3    H129603   1.209   6.825   5.025
 9882TIP3    H229604   1.159   6.954   4.963
 9883TIP3   OH229605   0.338   0.662   1.909
 9883TIP3    H129606   0.304   0.580   1.946
 9883TIP3    H229607   0.357   0.641   1.818
 9884TIP3   OH229608   6.840   2.666   1.694
 9884TIP3    H129609   6.781   2.675   1.769
 9884TIP3    H229610   6.799   2.598   1.640
 9885TIP3   OH229611   1.980   0.342   2.917
 9885TIP3    H129612   1.926   0.400   2.971
 9885TIP3    H229613   2.066   0.383   2.917
 9886TIP3   OH229614   3.576   1.195   3.839
 9886TIP3    H129615   3.653   1.247   3.862
 9886TIP3    H229616   3.557   1.219   3.749
 9887TIP3   OH229617   4.540   1.061   3.808
 9887TIP3    H129618   4.584   1.134   3.852
 9887TIP3    H229619   4.513   1.003   3.880
 9888TIP3   OH229620   2.407   0.605   4.964
 9888TIP3    H129621   2.500   0.580   4.967
 9888TIP3    H229622   2.361   0.531   5.002
 9889TIP3   OH229623   6.749   5.535   6.547
 9889TIP3    H129624   6.702   5.505   6.469
 9889TIP3    H229625   6.781   5.622   6.524
 9890TIP3   OH229626   8.158   7.204   4.312
 9890TIP3    H129627   8.202   7.131   4.270
 9890TIP3    H229628   8.085   7.164   4.360
 9891TIP3   OH229629   3.498   3.352   0.019
 9891TIP3    H129630   3.499   3.423   0.083
 9891TIP3    H229631   3.514   3.395  -0.065
 9892TIP3   OH229632   7.362   1.919   4.233
 9892TIP3    H129633   7.335   1.996   4.282
 9892TIP3    H229634   7.282   1.890   4.188
 9893TIP3   OH229635   6.773   1.341   5.773
 9893TIP3    H129636   6.867   1.347   5.787
 9893TIP3    H229637   6.747   1.428   5.742
 9894TIP3   OH229638   7.465   5.289   1.328
 9894TIP3    H129639   7.398   5.347   1.293
 9894TIP3    H229640   7.419   5.209   1.350
 9895TIP3   OH229641   1.004   7.160   0.646
 9895TIP3    H129642   1.018   7.075   0.604
 9895TIP3    H229643   0.910   7.163   0.663
 9896TIP3   OH229644   6.962   4.447   4.837
 9896TIP3    H129645   6.947   4.494   4.919
 9896TIP3    H229646   6.998   4.362   4.864
 9897TIP3   OH229647   5.580   6.986   1.073
 9897TIP3    H129648   5.545   6.951   1.155
 9897TIP3    H229649   5.655   6.930   1.053
 9898TIP3   OH229650   5.659   3.777   5.618
 9898TIP3    H129651   5.670   3.776   5.523
 9898TIP3    H229652   5.722   3.843   5.649
 9899TIP3   OH229653   1.417   1.822   2.208
 9899TIP3    H129654   1.416   1.907   2.164
 9899TIP3    H229655   1.351   1.771   2.161
 9900TIP3   OH229656   2.890   1.854   3.783
 9900TIP3    H129657   2.839   1.928   3.749
 9900TIP3    H229658   2.847   1.777   3.747
 9901TIP3   OH229659   2.388   4.174   3.667
 9901TIP3    H129660   2.381   4.109   3.738
 9901TIP3    H229661   2.471   4.155   3.625
 9902TIP3   OH229662   5.880   7.826   5.025
 9902TIP3    H129663   5.925   7.746   5.051
 9902TIP3    H229664   5.947   7.878   4.981
 9903TIP3   OH229665   6.607   2.674   5.173
 9903TIP3    H129666   6.564   2.654   5.256
 9903TIP3    H229667   6.536   2.705   5.116
 9904TIP3   OH229668   1.399   0.985   5.630
 9904TIP3    H129669   1.493   1.001   5.629
 9904TIP3    H229670   1.380   0.945   5.545
 9905TIP3   OH229671   6.864   5.822   3.560
 9905TIP3    H129672   6.777   5.787   3.540
 9905TIP3    H229673   6.879   5.796   3.651
 9906TIP3   OH229674   2.744   2.609   6.267
 9906TIP3    H129675   2.790   2.559   6.200
 9906TIP3    H229676   2.708   2.684   6.220
 9907TIP3   OH229677   2.571   3.153   1.818
 9907TIP3    H129678   2.477   3.165   1.831
 9907TIP3    H229679   2.612   3.196   1.893
 9908TIP3   OH229680   1.395   0.663   2.507
 9908TIP3    H129681   1.450   0.668   2.429
 9908TIP3    H229682   1.422   0.737   2.560
 9909TIP3   OH229683   5.848   1.766   0.998
 9909TIP3    H129684   5.883   1.847   0.961
 9909TIP3    H229685   5.923   1.707   1.002
 9910TIP3   OH229686   5.685   2.382   2.761
 9910TIP3    H129687   5.750   2.312   2.764
 9910TIP3    H229688   5.605   2.340   2.729
 9911TIP3   OH229689   6.890   7.462   0.356
 9911TIP3    H129690   6.854   7.468   0.445
 9911TIP3    H229691   6.850   7.384   0.319
 9912TIP3   OH229692   7.627   5.560   3.041
 9912TIP3    H129693   7.559   5.621   3.070
 9912TIP3    H229694   7.703   5.616   3.024
 9913TIP3   OH229695   5.216   0.827   4.731
 9913TIP3    H129696   5.241   0.736   4.714
 9913TIP3    H229697   5.216   0.868   4.645
 9914TIP3   OH229698   1.462   4.229   6.032
 9914TIP3    H129699   1.549   4.192   6.015
 9914TIP3    H229700   1.429   4.180   6.107
 9915TIP3   OH229701   4.319   6.196   4.720
 9915TIP3    H129702   4.231   6.160   4.729
 9915TIP3    H229703   4.374   6.122   4.698
 9916TIP3   OH229704   2.688   0.776   0.871
 9916TIP3    H129705   2.609   0.815   0.835
 9916TIP3    H229706   2.678   0.786   0.966
 9917TIP3   OH229707   1.576   2.184   2.944
 9917TIP3    H129708   1.605   2.241   2.873
 9917TIP3    H229709   1.540   2.244   3.009
 9918TIP3   OH229710   7.045   4.807   0.643
 9918TIP3    H129711   6.993   4.728   0.649
 9918TIP3    H229712   6.984   4.874   0.612
 9919TIP3   OH229713   8.200   5.330   1.042
 9919TIP3    H129714   8.218   5.421   1.016
 9919TIP3    H229715   8.111   5.333   1.077
 9920TIP3   OH229716   1.910   3.680   0.616
 9920TIP3    H129717   1.863   3.596   0.623
 9920TIP3    H229718   1.933   3.701   0.707
 9921TIP3   OH229719   0.626   3.341   2.155
 9921TIP3    H129720   0.616   3.263   2.209
 9921TIP3    H229721   0.614   3.414   2.216
 9922TIP3   OH229722   3.265   5.214   6.423
 9922TIP3    H129723   3.197   5.280   6.414
 9922TIP3    H229724   3.303   5.230   6.510
 9923TIP3   OH229725   2.863   5.611   5.125
 9923TIP3    H129726   2.794   5.574   5.180
 9923TIP3    H229727   2.922   5.538   5.106
 9924TIP3   OH229728   3.690   5.340   0.426
 9924TIP3    H129729   3.598   5.314   0.435
 9924TIP3    H229730   3.698   5.419   0.479
 9925TIP3   OH229731   3.034   4.796   0.249
 9925TIP3    H129732   3.115   4.814   0.201
 9925TIP3    H229733   3.044   4.706   0.281
 9926TIP3   OH229734   2.595   4.466   3.280
 9926TIP3    H129735   2.543   4.421   3.347
 9926TIP3    H229736   2.561   4.556   3.279
 9927TIP3   OH229737   4.918   7.058   0.981
 9927TIP3    H129738   4.994   7.078   0.925
 9927TIP3    H229739   4.900   7.139   1.028
 9928TIP3   OH229740   7.583   0.300   0.452
 9928TIP3    H129741   7.509   0.317   0.510
 9928TIP3    H229742   7.560   0.220   0.405
 9929TIP3   OH229743   7.824   3.670   0.891
 9929TIP3    H129744   7.826   3.612   0.815
 9929TIP3    H229745   7.847   3.614   0.965
 9930TIP3   OH229746   0.548   0.831   6.562
 9930TIP3    H129747   0.494   0.839   6.483
 9930TIP3    H229748   0.627   0.787   6.532
 9931TIP3   OH229749   2.542   5.336   2.602
 9931TIP3    H129750   2.591   5.254   2.606
 9931TIP3    H229751   2.609   5.404   2.596
 9932TIP3   OH229752   7.499   6.402   3.104
 9932TIP3    H129753   7.425   6.437   3.055
 9932TIP3    H229754   7.510   6.462   3.178
 9933TIP3   OH229755   0.538   0.001   4.381
 9933TIP3    H129756   0.565   0.051   4.304
 9933TIP3    H229757   0.620  -0.026   4.422
 9934TIP3   OH229758   5.481   2.901   2.778
 9934TIP3    H129759   5.508   2.811   2.758
 9934TIP3    H229760   5.420   2.924   2.709
 9935TIP3   OH229761   1.649   4.305   2.556
 9935TIP3    H129762   1.566   4.259   2.545
 9935TIP3    H229763   1.716   4.239   2.538
 9936TIP3   OH229764   5.837   1.569   0.053
 9936TIP3    H129765   5.888   1.642   0.017
 9936TIP3    H229766   5.789   1.608   0.126
 9937TIP3   OH229767   7.890   3.164   2.547
 9937TIP3    H129768   7.925   3.231   2.607
 9937TIP3    H229769   7.871   3.212   2.466
 9938TIP3   OH229770   7.822   4.908   5.534
 9938TIP3    H129771   7.842   4.925   5.626
 9938TIP3    H229772   7.883   4.839   5.509
 9939TIP3   OH229773   8.201   5.090   0.411
 9939TIP3    H129774   8.180   5.160   0.349
 9939TIP3    H229775   8.296   5.089   0.416
 9940TIP3   OH229776   1.215   2.923   1.704
 9940TIP3    H129777   1.291   2.887   1.750
 9940TIP3    H229778   1.220   2.886   1.616
 9941TIP3   OH229779   0.784   0.189   1.071
 9941TIP3    H129780   0.760   0.199   0.979
 9941TIP3    H229781   0.874   0.156   1.069
 9942TIP3   OH229782   4.192   0.115   5.652
 9942TIP3    H129783   4.260   0.055   5.622
 9942TIP3    H229784   4.181   0.177   5.580
 9943TIP3   OH229785   4.274   2.274   6.014
 9943TIP3    H129786   4.218   2.260   6.091
 9943TIP3    H229787   4.224   2.335   5.960
 9944TIP3   OH229788   3.604   6.299   0.755
 9944TIP3    H129789   3.651   6.336   0.681
 9944TIP3    H229790   3.552   6.371   0.789
 9945TIP3   OH229791   3.273   3.487   4.855
 9945TIP3    H129792   3.278   3.574   4.896
 9945TIP3    H229793   3.225   3.502   4.774
 9946TIP3   OH229794   2.131   5.697   2.919
 9946TIP3    H129795   2.114   5.603   2.921
 9946TIP3    H229796   2.162   5.717   3.007
 9947TIP3   OH229797   6.536   4.310   3.973
 9947TIP3    H129798   6.473   4.239   3.958
 9947TIP3    H229799   6.612   4.286   3.920
 9948TIP3   OH229800   7.830   6.322   2.440
 9948TIP3    H129801   7.900   6.265   2.409
 9948TIP3    H229802   7.810   6.291   2.529
 9949TIP3   OH229803   3.354   0.498   5.423
 9949TIP3    H129804   3.289   0.478   5.490
 9949TIP3    H229805   3.312   0.476   5.341
 9950TIP3   OH229806   8.306   7.309   3.302
 9950TIP3    H129807   8.365   7.235   3.286
 9950TIP3    H229808   8.273   7.295   3.390
 9951TIP3   OH229809   3.700   0.423   1.086
 9951TIP3    H129810   3.690   0.343   1.036
 9951TIP3    H229811   3.758   0.478   1.034
 9952TIP3   OH229812   1.383   7.339   4.063
 9952TIP3    H129813   1.410   7.410   4.005
 9952TIP3    H229814   1.437   7.265   4.037
 9953TIP3   OH229815   3.573   1.363   0.912
 9953TIP3    H129816   3.480   1.376   0.934
 9953TIP3    H229817   3.615   1.346   0.996
 9954TIP3   OH229818   5.987   6.609   5.163
 9954TIP3    H129819   6.018   6.635   5.076
 9954TIP3    H229820   5.996   6.688   5.216
 9955TIP3   OH229821   7.046   1.223   1.458
 9955TIP3    H129822   7.086   1.285   1.519
 9955TIP3    H229823   7.102   1.226   1.381
 9956TIP3   OH229824   3.274   3.494   4.244
 9956TIP3    H129825   3.321   3.514   4.163
 9956TIP3    H229826   3.187   3.532   4.231
 9957TIP3   OH229827   5.013   4.802   1.975
 9957TIP3    H129828   5.009   4.706   1.971
 9957TIP3    H229829   4.940   4.831   1.921
 9958TIP3   OH229830   3.148   5.097   2.400
 9958TIP3    H129831   3.221   5.127   2.453
 9958TIP3    H229832   3.106   5.178   2.370
 9959TIP3   OH229833   6.939   3.468   0.044
 9959TIP3    H129834   6.909   3.430  -0.038
 9959TIP3    H229835   6.870   3.446   0.107
 9960TIP3   OH229836   7.773   0.905   4.993
 9960TIP3    H129837   7.775   0.846   4.918
 9960TIP3    H229838   7.716   0.861   5.057
 9961TIP3   OH229839   7.106   7.813   5.537
 9961TIP3    H129840   7.027   7.766   5.513
 9961TIP3    H229841   7.178   7.753   5.514
 9962TIP3   OH229842   3.234   6.115   3.468
 9962TIP3    H129843   3.312   6.170   3.462
 9962TIP3    H229844   3.263   6.037   3.513
 9963TIP3   OH229845   7.685   0.640   6.010
 9963TIP3    H129846   7.665   0.583   6.084
 9963TIP3    H229847   7.600   0.676   5.984
 9964TIP3   OH229848   2.960   2.598   0.476
 9964TIP3    H129849   3.046   2.581   0.439
 9964TIP3    H229850   2.907   2.524   0.450
 9965TIP3   OH229851   7.671   3.141   1.853
 9965TIP3    H129852   7.653   3.209   1.788
 9965TIP3    H229853   7.592   3.086   1.852
 9966TIP3   OH229854   5.971   2.965   2.067
 9966TIP3    H129855   6.004   2.902   2.003
 9966TIP3    H229856   5.877   2.973   2.047
 9967TIP3   OH229857   5.516   6.446   5.426
 9967TIP3    H129858   5.441   6.462   5.484
 9967TIP3    H229859   5.482   6.388   5.358
 9968TIP3   OH229860   3.122   2.300   2.931
 9968TIP3    H129861   3.045   2.280   2.985
 9968TIP3    H229862   3.117   2.238   2.859
 9969TIP3   OH229863   2.937   1.195   1.225
 9969TIP3    H129864   2.885   1.169   1.301
 9969TIP3    H229865   2.947   1.114   1.174
 9970TIP3   OH229866   2.675   3.885   6.546
 9970TIP3    H129867   2.759   3.855   6.583
 9970TIP3    H229868   2.674   3.848   6.458
 9971TIP3   OH229869   4.533   4.102   6.289
 9971TIP3    H129870   4.473   4.058   6.350
 9971TIP3    H229871   4.597   4.145   6.346
 9972TIP3   OH229872   7.259   4.704   5.706
 9972TIP3    H129873   7.297   4.636   5.761
 9972TIP3    H229874   7.329   4.726   5.645
 9973TIP3   OH229875   7.881   0.307   6.513
 9973TIP3    H129876   7.798   0.274   6.479
 9973TIP3    H229877   7.922   0.352   6.439
 9974TIP3   OH229878   6.213   2.538   0.552
 9974TIP3    H129879   6.117   2.532   0.552
 9974TIP3    H229880   6.241   2.473   0.616
 9975TIP3   OH229881   4.816   3.065   0.635
 9975TIP3    H129882   4.756   3.140   0.635
 9975TIP3    H229883   4.814   3.032   0.546
 9976TIP3   OH229884   6.093   2.401   1.087
 9976TIP3    H129885   6.151   2.326   1.095
 9976TIP3    H229886   6.028   2.389   1.157
 9977TIP3   OH229887   4.185   4.601   3.836
 9977TIP3    H129888   4.272   4.565   3.819
 9977TIP3    H229889   4.189   4.632   3.927
 9978TIP3   OH229890   5.505   1.032   0.311
 9978TIP3    H129891   5.532   0.947   0.345
 9978TIP3    H229892   5.528   1.094   0.381
 9979TIP3   OH229893   0.771   3.260   3.811
 9979TIP3    H129894   0.861   3.256   3.843
 9979TIP3    H229895   0.737   3.343   3.845
 9980TIP3   OH229896   1.849   6.206   6.225
 9980TIP3    H129897   1.884   6.221   6.137
 9980TIP3    H229898   1.775   6.266   6.233
 9981TIP3   OH229899   6.270   2.848   5.398
 9981TIP3    H129900   6.354   2.891   5.379
 9981TIP3    H229901   6.220   2.855   5.317
 9982TIP3   OH229902   7.248   7.447   1.662
 9982TIP3    H129903   7.319   7.450   1.727
 9982TIP3    H229904   7.291   7.469   1.579
 9983TIP3   OH229905   0.862   7.509   2.244
 9983TIP3    H129906   0.920   7.437   2.269
 9983TIP3    H229907   0.807   7.523   2.321
 9984TIP3   OH229908   6.521   3.996   4.053
 9984TIP3    H129909   6.556   3.998   4.142
 9984TIP3    H229910   6.595   3.967   3.999
 9985TIP3   OH229911   4.179   1.200   1.235
 9985TIP3    H129912   4.194   1.180   1.327
 9985TIP3    H229913   4.261   1.237   1.204
 9986TIP3   OH229914   0.753   7.626   1.462
 9986TIP3    H129915   0.783   7.590   1.545
 9986TIP3    H229916   0.773   7.719   1.468
 9987TIP3   OH229917   7.877   5.715   6.008
 9987TIP3    H129918   7.886   5.810   6.018
 9987TIP3    H229919   7.923   5.696   5.926
 9988TIP3   OH229920   6.230   1.550   4.813
 9988TIP3    H129921   6.144   1.569   4.852
 9988TIP3    H229922   6.286   1.530   4.887
 9989TIP3   OH229923   7.298   7.706   4.990
 9989TIP3    H129924   7.376   7.652   5.003
 9989TIP3    H229925   7.224   7.645   5.001
 9990TIP3   OH229926   7.204   1.096   6.010
 9990TIP3    H129927   7.211   1.001   6.021
 9990TIP3    H229928   7.203   1.109   5.915
 9991TIP3   OH229929   2.027   5.938   4.573
 9991TIP3    H129930   1.971   6.007   4.538
 9991TIP3    H229931   1.967   5.863   4.583
 9992TIP3   OH229932   4.139   4.400   3.009
 9992TIP3    H129933   4.224   4.364   2.983
 9992TIP3    H229934   4.154   4.495   3.014
 9993TIP3   OH229935   4.603   0.921   0.585
 9993TIP3    H129936   4.613   0.934   0.491
 9993TIP3    H229937   4.692   0.922   0.619
 9994TIP3   OH229938   1.929   1.382   1.674
 9994TIP3    H129939   1.880   1.458   1.643
 9994TIP3    H229940   1.963   1.408   1.759
 9995TIP3   OH229941   5.971   2.995   3.118
 9995TIP3    H129942   5.950   2.955   3.034
 9995TIP3    H229943   5.917   3.074   3.121
 9996TIP3   OH229944   7.620   2.225   4.857
 9996TIP3    H129945   7.629   2.158   4.789
 9996TIP3    H229946   7.534   2.209   4.896
 9997TIP3   OH229947   4.355   7.586   3.659
 9997TIP3    H129948   4.419   7.654   3.682
 9997TIP3    H229949   4.408   7.510   3.635
 9998TIP3   OH229950   3.200   5.563   2.275
 9998TIP3    H129951   3.113   5.582   2.239
 9998TIP3    H229952   3.251   5.642   2.256
 9999TIP3   OH229953   6.941   3.558   3.660
 9999TIP3    H129954   6.869   3.499   3.685
 9999TIP3    H229955   6.897   3.640   3.636
10000TIP3   OH229956   1.818   4.575   2.160
10000TIP3    H129957   1.749   4.536   2.212
10000TIP3    H229958   1.830   4.663   2.197
10001TIP3   OH229959   3.532   7.369   1.310
10001TIP3    H129960   3.582   7.308   1.365
10001TIP3    H229961   3.474   7.414   1.371
10002TIP3   OH229962   5.167   7.002   0.804
10002TIP3    H129963   5.255   7.038   0.810
10002TIP3    H229964   5.169   6.926   0.863
10003TIP3   OH229965   6.904   5.163   0.458
10003TIP3    H129966   6.898   5.258   0.454
10003TIP3    H229967   6.985   5.146   0.507
10004TIP3   OH229968   5.354   7.176   4.692
10004TIP3    H129969   5.422   7.236   4.660
10004TIP3    H229970   5.401   7.113   4.746
10005TIP3   OH229971   5.967   4.634   5.641
10005TIP3    H129972   6.058   4.605   5.648
10005TIP3    H229973   5.952   4.642   5.547
10006TIP3   OH229974   6.616   1.066   1.521
10006TIP3    H129975   6.647   1.149   1.486
10006TIP3    H229976   6.540   1.044   1.467
10007TIP3   OH229977   2.252   0.837   4.722
10007TIP3    H129978   2.302   0.869   4.797
10007TIP3    H229979   2.244   0.743   4.736
10008TIP3   OH229980   2.628   0.372   0.497
10008TIP3    H129981   2.661   0.462   0.498
10008TIP3    H229982   2.534   0.381   0.485
10009TIP3   OH229983   5.697   2.839   4.301
10009TIP3    H129984   5.747   2.782   4.359
10009TIP3    H229985   5.606   2.823   4.323
10010TIP3   OH229986   6.312   7.298   2.408
10010TIP3    H129987   6.234   7.354   2.410
10010TIP3    H229988   6.366   7.335   2.338
10011TIP3   OH229989   7.925   4.217   3.600
10011TIP3    H129990   7.866   4.292   3.607
10011TIP3    H229991   7.994   4.246   3.540
10012TIP3   OH229992   5.160   5.571   3.550
10012TIP3    H129993   5.185   5.553   3.641
10012TIP3    H229994   5.074   5.613   3.557
10013TIP3   OH229995   4.005   7.848   0.939
10013TIP3    H129996   4.048   7.821   0.858
10013TIP3    H229997   3.939   7.780   0.955
10014TIP3   OH229998   5.931   4.762   3.263
10014TIP3    H129999   5.920   4.753   3.168
10014TIP3    H230000   5.993   4.833   3.274
10015TIP3   OH230001   1.662   4.490   0.615
10015TIP3    H130002   1.674   4.566   0.672
10015TIP3    H230003   1.667   4.415   0.674
10016TIP3   OH230004   5.940   1.950   6.423
10016TIP3    H130005   5.857   1.996   6.432
10016TIP3    H230006   6.004   2.018   6.405
10017TIP3   OH230007   1.458   5.922   4.449
10017TIP3    H130008   1.492   6.011   4.437
10017TIP3    H230009   1.512   5.868   4.391
10018TIP3   OH230010   1.432   1.472   5.109
10018TIP3    H130011   1.515   1.520   5.105
10018TIP3    H230012   1.437   1.421   5.190
10019TIP3   OH230013   4.938   4.365   6.494
10019TIP3    H130014   4.917   4.336   6.582
10019TIP3    H230015   4.970   4.287   6.449
10020TIP3   OH230016   7.652   0.686   0.088
10020TIP3    H130017   7.697   0.604   0.109
10020TIP3    H230018   7.583   0.661   0.026
10021TIP3   OH230019   7.189   3.432   0.131
10021TIP3    H130020   7.101   3.452   0.099
10021TIP3    H230021   7.186   3.338   0.151
10022TIP3   OH230022   7.030   0.469   2.312
10022TIP3    H130023   6.971   0.521   2.257
10022TIP3    H230024   7.083   0.534   2.358
10023TIP3   OH230025   4.821   2.851   2.900
10023TIP3    H130026   4.729   2.858   2.927
10023TIP3    H230027   4.867   2.821   2.979
10024TIP3   OH230028   0.993   0.238   2.684
10024TIP3    H130029   1.059   0.190   2.635
10024TIP3    H230030   0.987   0.191   2.767
10025TIP3   OH230031   1.803   0.214   4.101
10025TIP3    H130032   1.790   0.128   4.140
10025TIP3    H230033   1.890   0.210   4.062
10026TIP3   OH230034   0.995   3.464   4.788
10026TIP3    H130035   0.940   3.511   4.726
10026TIP3    H230036   0.936   3.436   4.858
10027TIP3   OH230037   7.768   3.534   5.233
10027TIP3    H130038   7.692   3.526   5.290
10027TIP3    H230039   7.843   3.522   5.291
10028TIP3   OH230040   7.931   0.514   3.231
10028TIP3    H130041   7.930   0.534   3.138
10028TIP3    H230042   7.949   0.420   3.235
10029TIP3   OH230043   7.437   7.652   0.974
10029TIP3    H130044   7.407   7.741   0.956
10029TIP3    H230045   7.468   7.620   0.889
10030TIP3   OH230046   4.980   1.063   0.870
10030TIP3    H130047   4.965   1.145   0.823
10030TIP3    H230048   4.915   1.003   0.835
10031TIP3   OH230049   2.604   2.592   2.415
10031TIP3    H130050   2.559   2.664   2.371
10031TIP3    H230051   2.695   2.620   2.422
10032TIP3   OH230052   4.074   2.241   6.206
10032TIP3    H130053   4.037   2.180   6.270
10032TIP3    H230054   3.998   2.276   6.159
10033TIP3   OH230055   0.558   1.332   4.657
10033TIP3    H130056   0.605   1.275   4.719
10033TIP3    H230057   0.625   1.362   4.596
10034TIP3   OH230058   3.903   1.535   5.972
10034TIP3    H130059   3.933   1.608   5.918
10034TIP3    H230060   3.808   1.544   5.975
10035TIP3   OH230061   0.679   5.796   3.099
10035TIP3    H130062   0.698   5.749   3.180
10035TIP3    H230063   0.752   5.775   3.041
10036TIP3   OH230064   3.014   5.658   6.119
10036TIP3    H130065   2.996   5.738   6.069
10036TIP3    H230066   3.083   5.614   6.069
10037TIP3   OH230067   4.173   6.697   5.154
10037TIP3    H130068   4.132   6.636   5.093
10037TIP3    H230069   4.153   6.784   5.119
10038TIP3   OH230070   6.903   4.509   3.945
10038TIP3    H130071   6.872   4.480   3.859
10038TIP3    H230072   6.823   4.521   3.996
10039TIP3   OH230073   6.661   1.136   3.817
10039TIP3    H130074   6.735   1.140   3.878
10039TIP3    H230075   6.633   1.044   3.820
10040TIP3   OH230076   4.503   4.318   1.752
10040TIP3    H130077   4.554   4.270   1.817
10040TIP3    H230078   4.548   4.402   1.743
10041TIP3   OH230079   6.429   2.331   6.275
10041TIP3    H130080   6.339   2.364   6.286
10041TIP3    H230081   6.451   2.293   6.360
10042TIP3   OH230082   6.465   3.144   4.434
10042TIP3    H130083   6.557   3.171   4.443
10042TIP3    H230084   6.463   3.089   4.356
10043TIP3   OH230085   1.741   0.180  -0.009
10043TIP3    H130086   1.676   0.121   0.029
10043TIP3    H230087   1.768   0.236   0.063
10044TIP3   OH230088   5.308   1.618   3.611
10044TIP3    H130089   5.270   1.585   3.530
10044TIP3    H230090   5.263   1.701   3.627
10045TIP3   OH230091   3.013   3.402   4.014
10045TIP3    H130092   2.932   3.352   4.029
10045TIP3    H230093   3.007   3.477   4.073
10046TIP3   OH230094   7.028   0.410   0.579
10046TIP3    H130095   6.974   0.477   0.537
10046TIP3    H230096   6.990   0.327   0.549
10047TIP3   OH230097   8.245   3.841   5.472
10047TIP3    H130098   8.267   3.832   5.379
10047TIP3    H230099   8.255   3.935   5.490
10048TIP3   OH230100   4.662   2.086   4.605
10048TIP3    H130101   4.719   2.135   4.546
10048TIP3    H230102   4.694   1.996   4.600
10049TIP3   OH230103   0.192   6.375   5.757
10049TIP3    H130104   0.286   6.355   5.763
10049TIP3    H230105   0.170   6.359   5.665
10050TIP3   OH230106   4.564   5.843   3.137
10050TIP3    H130107   4.512   5.902   3.083
10050TIP3    H230108   4.629   5.806   3.077
10051TIP3   OH230109   4.683   3.523   6.511
10051TIP3    H130110   4.754   3.458   6.509
10051TIP3    H230111   4.610   3.477   6.551
10052TIP3   OH230112   1.958   2.315   1.189
10052TIP3    H130113   1.999   2.304   1.103
10052TIP3    H230114   1.866   2.296   1.174
10053TIP3   OH230115   2.264   2.193   1.487
10053TIP3    H130116   2.272   2.139   1.566
10053TIP3    H230117   2.343   2.174   1.437
10054TIP3   OH230118   8.094   4.817   3.965
10054TIP3    H130119   8.113   4.870   4.042
10054TIP3    H230120   8.007   4.781   3.981
10055TIP3   OH230121   7.953   0.999   3.064
10055TIP3    H130122   7.981   1.033   2.979
10055TIP3    H230123   7.877   1.052   3.087
10056TIP3   OH230124   7.598   7.777   3.419
10056TIP3    H130125   7.563   7.835   3.351
10056TIP3    H230126   7.521   7.732   3.454
10057TIP3   OH230127   0.417   7.493   2.547
10057TIP3    H130128   0.377   7.472   2.463
10057TIP3    H230129   0.365   7.445   2.611
10058TIP3   OH230130   7.388   1.376   4.797
10058TIP3    H130131   7.418   1.444   4.857
10058TIP3    H230132   7.300   1.404   4.772
10059TIP3   OH230133   5.158   6.546   2.789
10059TIP3    H130134   5.253   6.536   2.779
10059TIP3    H230135   5.131   6.469   2.838
10060TIP3   OH230136   0.727   6.354   6.413
10060TIP3    H130137   0.685   6.411   6.348
10060TIP3    H230138   0.658   6.293   6.439
10061TIP3   OH230139   7.425   4.398   5.266
10061TIP3    H130140   7.387   4.356   5.189
10061TIP3    H230141   7.395   4.489   5.262
10062TIP3   OH230142   5.639   3.902   2.762
10062TIP3    H130143   5.732   3.883   2.754
10062TIP3    H230144   5.597   3.816   2.763
10063TIP3   OH230145   0.005   5.402   4.538
10063TIP3    H130146   0.071   5.470   4.525
10063TIP3    H230147   0.055   5.323   4.555
10064TIP3   OH230148   5.413   4.756   6.304
10064TIP3    H130149   5.467   4.763   6.383
10064TIP3    H230150   5.429   4.667   6.272
10065TIP3   OH230151   8.020   2.133   2.911
10065TIP3    H130152   7.989   2.050   2.876
10065TIP3    H230153   7.957   2.154   2.980
10066TIP3   OH230154   4.369   4.671   1.220
10066TIP3    H130155   4.414   4.615   1.157
10066TIP3    H230156   4.305   4.614   1.261
10067TIP3   OH230157   2.302   0.410   4.633
10067TIP3    H130158   2.278   0.393   4.542
10067TIP3    H230159   2.396   0.390   4.637
10068TIP3   OH230160   2.447   1.009   5.748
10068TIP3    H130161   2.447   0.917   5.721
10068TIP3    H230162   2.462   1.058   5.667
10069TIP3   OH230163   6.713   7.141   6.333
10069TIP3    H130164   6.630   7.106   6.299
10069TIP3    H230165   6.687   7.208   6.395
10070TIP3   OH230166   5.337   1.159   3.337
10070TIP3    H130167   5.370   1.082   3.291
10070TIP3    H230168   5.376   1.153   3.424
10071TIP3   OH230169   1.163   6.420   2.536
10071TIP3    H130170   1.229   6.481   2.568
10071TIP3    H230171   1.125   6.381   2.615
10072TIP3   OH230172   2.738   6.884   1.302
10072TIP3    H130173   2.671   6.865   1.368
10072TIP3    H230174   2.694   6.867   1.219
10073TIP3   OH230175   6.028   0.925   5.477
10073TIP3    H130176   5.976   0.897   5.401
10073TIP3    H230177   5.965   0.965   5.536
10074TIP3   OH230178   1.863   2.555   3.509
10074TIP3    H130179   1.894   2.534   3.598
10074TIP3    H230180   1.768   2.561   3.518
10075TIP3   OH230181   7.000   2.314   6.164
10075TIP3    H130182   6.933   2.246   6.157
10075TIP3    H230183   6.951   2.396   6.171
10076TIP3   OH230184   0.883   3.121   1.940
10076TIP3    H130185   0.931   3.179   1.999
10076TIP3    H230186   0.889   3.164   1.854
10077TIP3   OH230187   3.330   7.176   4.290
10077TIP3    H130188   3.330   7.232   4.368
10077TIP3    H230189   3.388   7.103   4.313
10078TIP3   OH230190   7.422   6.029   0.729
10078TIP3    H130191   7.439   6.104   0.786
10078TIP3    H230192   7.504   6.017   0.681
10079TIP3   OH230193   1.785   4.878   0.256
10079TIP3    H130194   1.855   4.938   0.282
10079TIP3    H230195   1.789   4.877   0.160
10080TIP3   OH230196   1.341   5.786   5.304
10080TIP3    H130197   1.310   5.877   5.310
10080TIP3    H230198   1.396   5.785   5.226
10081TIP3   OH230199   2.201   6.413   2.459
10081TIP3    H130200   2.124   6.379   2.505
10081TIP3    H230201   2.260   6.337   2.453
10082TIP3   OH230202   6.440   3.339   0.252
10082TIP3    H130203   6.393   3.274   0.305
10082TIP3    H230204   6.457   3.411   0.313
10083TIP3   OH230205   5.434   3.236   3.631
10083TIP3    H130206   5.382   3.177   3.685
10083TIP3    H230207   5.371   3.295   3.592
10084TIP3   OH230208   7.763   1.142   6.079
10084TIP3    H130209   7.845   1.178   6.113
10084TIP3    H230210   7.700   1.214   6.087
10085TIP3   OH230211   7.206   6.213   0.704
10085TIP3    H130212   7.204   6.121   0.730
10085TIP3    H230213   7.276   6.218   0.640
10086TIP3   OH230214   6.669   3.887   2.545
10086TIP3    H130215   6.688   3.842   2.462
10086TIP3    H230216   6.738   3.953   2.552
10087TIP3   OH230217   8.088   0.601   4.431
10087TIP3    H130218   8.174   0.628   4.463
10087TIP3    H230219   8.032   0.677   4.445
10088TIP3   OH230220   2.545   0.936   2.386
10088TIP3    H130221   2.588   0.944   2.301
10088TIP3    H230222   2.610   0.892   2.441
10089TIP3   OH230223   1.263   5.768   1.413
10089TIP3    H130224   1.293   5.723   1.492
10089TIP3    H230225   1.188   5.717   1.383
10090TIP3   OH230226   7.771   1.896   6.277
10090TIP3    H130227   7.824   1.818   6.291
10090TIP3    H230228   7.739   1.920   6.364
10091TIP3   OH230229   3.113   3.307   3.567
10091TIP3    H130230   3.136   3.351   3.649
10091TIP3    H230231   3.029   3.346   3.542
10092TIP3   OH230232   8.194   5.535   2.492
10092TIP3    H130233   8.232   5.527   2.405
10092TIP3    H230234   8.122   5.472   2.493
10093TIP3   OH230235   3.608   0.965   5.839
10093TIP3    H130236   3.670   0.947   5.911
10093TIP3    H230237   3.548   1.029   5.876
10094TIP3   OH230238   1.764   1.974   1.774
10094TIP3    H130239   1.732   1.910   1.838
10094TIP3    H230240   1.815   2.036   1.826
10095TIP3   OH230241   1.868   1.917   1.529
10095TIP3    H130242   1.815   1.938   1.606
10095TIP3    H230243   1.895   2.002   1.495
10096TIP3   OH230244   4.596   5.963   1.261
10096TIP3    H130245   4.559   5.930   1.343
10096TIP3    H230246   4.655   6.034   1.288
10097TIP3   OH230247   4.183   2.327   2.360
10097TIP3    H130248   4.223   2.413   2.351
10097TIP3    H230249   4.131   2.332   2.440
10098TIP3   OH230250   2.828   0.569   3.922
10098TIP3    H130251   2.769   0.605   3.856
10098TIP3    H230252   2.901   0.631   3.926
10099TIP3   OH230253   0.505   1.293   3.601
10099TIP3    H130254   0.545   1.290   3.514
10099TIP3    H230255   0.459   1.209   3.610
10100TIP3   OH230256   7.892   5.075   1.508
10100TIP3    H130257   7.920   5.024   1.585
10100TIP3    H230258   7.864   5.159   1.544
10101TIP3   OH230259   0.768   6.000   2.920
10101TIP3    H130260   0.697   5.999   2.856
10101TIP3    H230261   0.741   5.936   2.987
10102TIP3   OH230262   3.230   4.595   0.228
10102TIP3    H130263   3.276   4.519   0.264
10102TIP3    H230264   3.206   4.569   0.140
10103TIP3   OH230265   3.714   3.289   5.384
10103TIP3    H130266   3.713   3.294   5.480
10103TIP3    H230267   3.634   3.241   5.362
10104TIP3   OH230268   2.218   7.476   1.851
10104TIP3    H130269   2.229   7.417   1.925
10104TIP3    H230270   2.298   7.529   1.850
10105TIP3   OH230271   1.441   2.195   1.271
10105TIP3    H130272   1.504   2.199   1.199
10105TIP3    H230273   1.366   2.246   1.241
10106TIP3   OH230274   1.564   3.618   6.292
10106TIP3    H130275   1.639   3.639   6.347
10106TIP3    H230276   1.570   3.523   6.278
10107TIP3   OH230277   5.278   0.156   0.676
10107TIP3    H130278   5.261   0.230   0.735
10107TIP3    H230279   5.245   0.080   0.724
10108TIP3   OH230280   6.769   2.786   1.020
10108TIP3    H130281   6.780   2.833   1.103
10108TIP3    H230282   6.674   2.782   1.007
10109TIP3   OH230283   5.680   7.628   5.097
10109TIP3    H130284   5.678   7.635   5.192
10109TIP3    H230285   5.741   7.697   5.069
10110TIP3   OH230286   2.262   0.593   0.266
10110TIP3    H130287   2.202   0.668   0.272
10110TIP3    H230288   2.344   0.631   0.235
10111TIP3   OH230289   3.697   3.358   1.973
10111TIP3    H130290   3.629   3.308   2.019
10111TIP3    H230291   3.724   3.302   1.901
10112TIP3   OH230292   6.065   4.022   0.860
10112TIP3    H130293   6.061   3.969   0.940
10112TIP3    H230294   6.049   3.960   0.789
10113TIP3   OH230295   0.943   0.183   1.885
10113TIP3    H130296   0.981   0.184   1.972
10113TIP3    H230297   0.936   0.090   1.862
10114TIP3   OH230298   3.777   2.189   0.045
10114TIP3    H130299   3.746   2.101   0.065
10114TIP3    H230300   3.754   2.241   0.122
10115TIP3   OH230301   7.645   5.785   2.702
10115TIP3    H130302   7.581   5.725   2.663
10115TIP3    H230303   7.594   5.836   2.765
10116TIP3   OH230304   1.874   5.745   6.500
10116TIP3    H130305   1.915   5.822   6.459
10116TIP3    H230306   1.946   5.704   6.549
10117TIP3   OH230307   3.920   3.273   4.990
10117TIP3    H130308   3.831   3.241   4.977
10117TIP3    H230309   3.918   3.318   5.074
10118TIP3   OH230310   2.960   4.531   3.785
10118TIP3    H130311   2.940   4.570   3.870
10118TIP3    H230312   2.988   4.604   3.731
10119TIP3   OH230313  -0.004   0.431   2.194
10119TIP3    H130314  -0.034   0.480   2.271
10119TIP3    H230315  -0.058   0.352   2.194
10120TIP3   OH230316   5.389   4.705   2.534
10120TIP3    H130317   5.396   4.704   2.439
10120TIP3    H230318   5.405   4.614   2.560
10121TIP3   OH230319   6.412   1.655   6.492
10121TIP3    H130320   6.327   1.636   6.533
10121TIP3    H230321   6.425   1.584   6.429
10122TIP3   OH230322   3.997   1.063   3.618
10122TIP3    H130323   4.054   1.132   3.650
10122TIP3    H230324   3.909   1.100   3.626
10123TIP3   OH230325   4.966   0.103   5.298
10123TIP3    H130326   5.037   0.143   5.348
10123TIP3    H230327   4.997   0.103   5.207
10124TIP3   OH230328   7.385   5.006   6.482
10124TIP3    H130329   7.471   4.962   6.480
10124TIP3    H230330   7.324   4.937   6.456
10125TIP3   OH230331   4.215   4.579   0.557
10125TIP3    H130332   4.263   4.528   0.491
10125TIP3    H230333   4.181   4.654   0.509
10126TIP3   OH230334   4.861   1.502   4.560
10126TIP3    H130335   4.905   1.444   4.622
10126TIP3    H230336   4.832   1.443   4.490
10127TIP3   OH230337   3.206   4.421   2.570
10127TIP3    H130338   3.177   4.509   2.595
10127TIP3    H230339   3.125   4.372   2.559
10128TIP3   OH230340   1.600   4.436   2.967
10128TIP3    H130341   1.642   4.428   3.053
10128TIP3    H230342   1.659   4.491   2.916
10129TIP3   OH230343   6.625   6.866   1.153
10129TIP3    H130344   6.578   6.850   1.235
10129TIP3    H230345   6.561   6.911   1.097
10130TIP3   OH230346   2.632   3.109   2.728
10130TIP3    H130347   2.651   3.198   2.758
10130TIP3    H230348   2.612   3.119   2.634
10131TIP3   OH230349   1.398   5.257   6.262
10131TIP3    H130350   1.309   5.247   6.227
10131TIP3    H230351   1.398   5.344   6.302
10132TIP3   OH230352   5.646   1.903   0.158
10132TIP3    H130353   5.709   1.870   0.094
10132TIP3    H230354   5.597   1.971   0.111
10133TIP3   OH230355   0.247   1.857   1.237
10133TIP3    H130356   0.240   1.765   1.210
10133TIP3    H230357   0.157   1.889   1.237
10134TIP3   OH230358   7.954   2.330   1.751
10134TIP3    H130359   7.912   2.341   1.665
10134TIP3    H230360   7.936   2.239   1.775
10135TIP3   OH230361   5.321   3.223   4.642
10135TIP3    H130362   5.318   3.244   4.735
10135TIP3    H230363   5.415   3.212   4.623
10136TIP3   OH230364   6.887   0.551   1.283
10136TIP3    H130365   6.875   0.556   1.377
10136TIP3    H230366   6.954   0.616   1.264
10137TIP3   OH230367   6.500   2.458   4.331
10137TIP3    H130368   6.426   2.490   4.383
10137TIP3    H230369   6.565   2.431   4.395
10138TIP3   OH230370   4.851   1.743   2.796
10138TIP3    H130371   4.851   1.839   2.803
10138TIP3    H230372   4.762   1.722   2.767
10139TIP3   OH230373   7.913   3.114   1.990
10139TIP3    H130374   7.839   3.108   1.930
10139TIP3    H230375   7.891   3.055   2.062
10140TIP3   OH230376   1.283   2.302   5.558
10140TIP3    H130377   1.220   2.324   5.627
10140TIP3    H230378   1.252   2.219   5.523
10141TIP3   OH230379   5.334   0.379   4.519
10141TIP3    H130380   5.364   0.385   4.610
10141TIP3    H230381   5.348   0.467   4.484
10142TIP3   OH230382   5.717   7.685   5.367
10142TIP3    H130383   5.657   7.746   5.410
10142TIP3    H230384   5.783   7.666   5.434
10143TIP3   OH230385   3.156   4.390   5.984
10143TIP3    H130386   3.118   4.357   6.065
10143TIP3    H230387   3.082   4.424   5.935
10144TIP3   OH230388   4.664   6.012   5.740
10144TIP3    H130389   4.599   6.035   5.806
10144TIP3    H230390   4.621   5.944   5.687
10145TIP3   OH230391   3.427   0.794   3.311
10145TIP3    H130392   3.484   0.765   3.240
10145TIP3    H230393   3.407   0.714   3.360
10146TIP3   OH230394   5.136   5.758   6.134
10146TIP3    H130395   5.133   5.706   6.054
10146TIP3    H230396   5.119   5.696   6.204
10147TIP3   OH230397   1.653   4.305   3.307
10147TIP3    H130398   1.678   4.339   3.393
10147TIP3    H230399   1.558   4.311   3.305
10148TIP3   OH230400   8.223   1.047   5.126
10148TIP3    H130401   8.131   1.055   5.100
10148TIP3    H230402   8.249   1.137   5.145
10149TIP3   OH230403   0.167   5.702   2.120
10149TIP3    H130404   0.109   5.775   2.142
10149TIP3    H230405   0.246   5.718   2.172
10150TIP3   OH230406   0.074   2.435   5.728
10150TIP3    H130407   0.014   2.503   5.758
10150TIP3    H230408   0.105   2.466   5.643
10151TIP3   OH230409   1.978   4.235   2.614
10151TIP3    H130410   1.961   4.325   2.588
10151TIP3    H230411   1.941   4.227   2.702
10152TIP3   OH230412   1.548   7.205   1.020
10152TIP3    H130413   1.595   7.123   1.031
10152TIP3    H230414   1.538   7.215   0.925
10153TIP3   OH230415   0.311   5.027   4.019
10153TIP3    H130416   0.239   4.996   4.073
10153TIP3    H230417   0.381   4.964   4.033
10154TIP3   OH230418   5.529   7.257   2.385
10154TIP3    H130419   5.556   7.310   2.310
10154TIP3    H230420   5.610   7.244   2.435
10155TIP3   OH230421   4.726   4.846   6.558
10155TIP3    H130422   4.631   4.844   6.571
10155TIP3    H230423   4.736   4.854   6.463
10156TIP3   OH230424   4.376   6.543   3.086
10156TIP3    H130425   4.435   6.616   3.069
10156TIP3    H230426   4.303   6.555   3.026
10157TIP3   OH230427   1.953   7.401   6.716
10157TIP3    H130428   1.972   7.484   6.760
10157TIP3    H230429   1.869   7.416   6.671
10158TIP3   OH230430   3.433   6.141   1.814
10158TIP3    H130431   3.494   6.113   1.883
10158TIP3    H230432   3.352   6.163   1.860
10159TIP3   OH230433   6.560   7.741   4.117
10159TIP3    H130434   6.607   7.786   4.047
10159TIP3    H230435   6.527   7.811   4.173
10160TIP3   OH230436   4.827   5.411   0.964
10160TIP3    H130437   4.895   5.452   0.910
10160TIP3    H230438   4.746   5.453   0.936
10161TIP3   OH230439   5.592   6.083   4.372
10161TIP3    H130440   5.566   6.162   4.325
10161TIP3    H230441   5.516   6.059   4.424
10162TIP3   OH230442   0.437   1.328   6.001
10162TIP3    H130443   0.439   1.403   6.061
10162TIP3    H230444   0.422   1.366   5.915
10163TIP3   OH230445   6.508   0.323   6.363
10163TIP3    H130446   6.601   0.320   6.389
10163TIP3    H230447   6.506   0.383   6.289
10164TIP3   OH230448   0.180   0.565   1.027
10164TIP3    H130449   0.207   0.642   0.977
10164TIP3    H230450   0.259   0.513   1.034
10165TIP3   OH230451   2.229   4.024   1.513
10165TIP3    H130452   2.298   3.961   1.531
10165TIP3    H230453   2.273   4.109   1.515
10166TIP3   OH230454   7.360   1.659   2.380
10166TIP3    H130455   7.271   1.694   2.369
10166TIP3    H230456   7.409   1.731   2.419
10167TIP3   OH230457   6.626   3.942   1.676
10167TIP3    H130458   6.540   3.906   1.696
10167TIP3    H230459   6.614   3.990   1.594
10168TIP3   OH230460   5.318   1.680   5.983
10168TIP3    H130461   5.277   1.598   6.010
10168TIP3    H230462   5.323   1.674   5.887
10169TIP3   OH230463   6.550   1.979   2.931
10169TIP3    H130464   6.597   2.048   2.884
10169TIP3    H230465   6.580   1.988   3.022
10170TIP3   OH230466   6.854   2.717   3.277
10170TIP3    H130467   6.759   2.707   3.283
10170TIP3    H230468   6.866   2.781   3.207
10171TIP3   OH230469   3.584   2.798   2.891
10171TIP3    H130470   3.598   2.705   2.908
10171TIP3    H230471   3.489   2.807   2.885
10172TIP3   OH230472   5.574   2.650   0.735
10172TIP3    H130473   5.485   2.620   0.713
10172TIP3    H230474   5.618   2.657   0.651
10173TIP3   OH230475   3.922   6.403   5.430
10173TIP3    H130476   3.849   6.360   5.474
10173TIP3    H230477   3.993   6.339   5.433
10174TIP3   OH230478   8.205   7.739   5.859
10174TIP3    H130479   8.224   7.739   5.765
10174TIP3    H230480   8.137   7.673   5.870
10175TIP3   OH230481   0.370   3.128   6.759
10175TIP3    H130482   0.432   3.177   6.812
10175TIP3    H230483   0.426   3.073   6.702
10176TIP3   OH230484   4.227   5.071   2.298
10176TIP3    H130485   4.157   5.084   2.362
10176TIP3    H230486   4.204   4.988   2.255
10177TIP3   OH230487   0.147   5.783   0.199
10177TIP3    H130488   0.091   5.729   0.143
10177TIP3    H230489   0.213   5.819   0.140
10178TIP3   OH230490   7.464   0.170   3.372
10178TIP3    H130491   7.474   0.236   3.303
10178TIP3    H230492   7.369   0.164   3.386
10179TIP3   OH230493   4.715   0.448   1.060
10179TIP3    H130494   4.716   0.359   1.025
10179TIP3    H230495   4.633   0.453   1.109
10180TIP3   OH230496   4.122   6.122   2.591
10180TIP3    H130497   4.108   6.046   2.534
10180TIP3    H230498   4.040   6.131   2.640
10181TIP3   OH230499   1.640   3.872   6.420
10181TIP3    H130500   1.624   3.840   6.508
10181TIP3    H230501   1.734   3.860   6.406
10182TIP3   OH230502   3.756   5.929   4.065
10182TIP3    H130503   3.759   6.025   4.060
10182TIP3    H230504   3.843   5.901   4.036
10183TIP3   OH230505   3.169   2.467   4.201
10183TIP3    H130506   3.247   2.412   4.192
10183TIP3    H230507   3.157   2.506   4.114
10184TIP3   OH230508   6.303   1.346   6.561
10184TIP3    H130509   6.246   1.407   6.608
10184TIP3    H230510   6.261   1.334   6.477
10185TIP3   OH230511   4.791   2.005   2.811
10185TIP3    H130512   4.742   2.043   2.883
10185TIP3    H230513   4.876   2.049   2.814
10186TIP3   OH230514   3.687   0.057   6.367
10186TIP3    H130515   3.605   0.077   6.412
10186TIP3    H230516   3.755   0.084   6.429
10187TIP3   OH230517   1.965   5.034   0.375
10187TIP3    H130518   1.953   5.085   0.455
10187TIP3    H230519   2.036   5.079   0.328
10188TIP3   OH230520   8.121   0.909   2.365
10188TIP3    H130521   8.092   0.846   2.431
10188TIP3    H230522   8.062   0.984   2.376
10189TIP3   OH230523   2.475   7.578   0.204
10189TIP3    H130524   2.469   7.486   0.230
10189TIP3    H230525   2.488   7.625   0.286
10190TIP3   OH230526   2.529   4.988   2.377
10190TIP3    H130527   2.481   4.920   2.424
10190TIP3    H230528   2.539   4.953   2.289
10191TIP3   OH230529   2.498   1.317   6.169
10191TIP3    H130530   2.442   1.380   6.122
10191TIP3    H230531   2.506   1.243   6.109
10192TIP3   OH230532   7.004   1.052   4.224
10192TIP3    H130533   7.027   0.971   4.180
10192TIP3    H230534   7.082   1.107   4.218
10193TIP3   OH230535   6.668   5.833   6.490
10193TIP3    H130536   6.763   5.846   6.491
10193TIP3    H230537   6.633   5.920   6.509
10194TIP3   OH230538   0.798   4.739   4.170
10194TIP3    H130539   0.788   4.816   4.114
10194TIP3    H230540   0.872   4.760   4.227
10195TIP3   OH230541   2.881   4.048   5.959
10195TIP3    H130542   2.951   3.983   5.961
10195TIP3    H230543   2.857   4.055   5.867
10196TIP3   OH230544   6.861   4.738   5.496
10196TIP3    H130545   6.903   4.652   5.502
10196TIP3    H230546   6.814   4.747   5.579
10197TIP3   OH230547   1.675   1.781   2.259
10197TIP3    H130548   1.680   1.725   2.337
10197TIP3    H230549   1.582   1.804   2.252
10198TIP3   OH230550   6.010   2.562   6.200
10198TIP3    H130551   5.991   2.469   6.183
10198TIP3    H230552   6.090   2.560   6.253
10199TIP3   OH230553   0.378   4.761   1.685
10199TIP3    H130554   0.341   4.780   1.771
10199TIP3    H230555   0.306   4.721   1.636
10200TIP3   OH230556   7.110   0.165   0.107
10200TIP3    H130557   7.064   0.084   0.085
10200TIP3    H230558   7.188   0.136   0.154
10201TIP3   OH230559   5.534   6.104   2.391
10201TIP3    H130560   5.537   6.090   2.296
10201TIP3    H230561   5.503   6.194   2.400
10202TIP3   OH230562   5.619   4.795   1.388
10202TIP3    H130563   5.688   4.823   1.327
10202TIP3    H230564   5.544   4.776   1.332
10203TIP3   OH230565   7.572   6.358   6.582
10203TIP3    H130566   7.601   6.283   6.530
10203TIP3    H230567   7.635   6.363   6.654
10204TIP3   OH230568   3.838   1.398   3.625
10204TIP3    H130569   3.807   1.316   3.588
10204TIP3    H230570   3.905   1.429   3.565
10205TIP3   OH230571   3.443   3.194   3.238
10205TIP3    H130572   3.469   3.215   3.148
10205TIP3    H230573   3.525   3.195   3.287
10206TIP3   OH230574   6.963   0.441   4.000
10206TIP3    H130575   6.918   0.493   4.067
10206TIP3    H230576   6.947   0.350   4.025
10207TIP3   OH230577   4.305   0.448   4.244
10207TIP3    H130578   4.362   0.442   4.320
10207TIP3    H230579   4.268   0.537   4.248
10208TIP3   OH230580   5.694   1.994   2.458
10208TIP3    H130581   5.703   1.988   2.363
10208TIP3    H230582   5.766   1.943   2.492
10209TIP3   OH230583   2.902   1.388   2.562
10209TIP3    H130584   2.828   1.443   2.587
10209TIP3    H230585   2.932   1.348   2.643
10210TIP3   OH230586   0.250   2.441   4.200
10210TIP3    H130587   0.290   2.522   4.168
10210TIP3    H230588   0.174   2.428   4.143
10211TIP3   OH230589   6.434   3.045   1.297
10211TIP3    H130590   6.527   3.039   1.318
10211TIP3    H230591   6.432   3.070   1.204
10212TIP3   OH230592   1.262   3.073   5.727
10212TIP3    H130593   1.169   3.090   5.712
10212TIP3    H230594   1.263   3.005   5.794
10213TIP3   OH230595   1.507   5.791   6.086
10213TIP3    H130596   1.441   5.778   6.018
10213TIP3    H230597   1.510   5.885   6.100
10214TIP3   OH230598   5.314   6.435   0.284
10214TIP3    H130599   5.267   6.489   0.348
10214TIP3    H230600   5.311   6.485   0.203
10215TIP3   OH230601   6.736   5.180   2.513
10215TIP3    H130602   6.652   5.212   2.545
10215TIP3    H230603   6.739   5.089   2.540
10216TIP3   OH230604   2.834   7.170   1.177
10216TIP3    H130605   2.741   7.154   1.160
10216TIP3    H230606   2.876   7.086   1.157
10217TIP3   OH230607   1.809   7.291   1.160
10217TIP3    H130608   1.746   7.273   1.091
10217TIP3    H230609   1.892   7.306   1.114
10218TIP3   OH230610   6.754   3.554   6.069
10218TIP3    H130611   6.796   3.476   6.033
10218TIP3    H230612   6.660   3.534   6.068
10219TIP3   OH230613   1.105   3.049   4.939
10219TIP3    H130614   1.147   3.077   5.021
10219TIP3    H230615   1.014   3.077   4.949
10220TIP3   OH230616   7.294   3.243   2.477
10220TIP3    H130617   7.312   3.154   2.447
10220TIP3    H230618   7.380   3.280   2.496
10221TIP3   OH230619   6.967   5.755   3.003
10221TIP3    H130620   7.041   5.733   2.946
10221TIP3    H230621   6.891   5.752   2.945
10222TIP3   OH230622   7.441   7.891   4.664
10222TIP3    H130623   7.389   7.943   4.725
10222TIP3    H230624   7.444   7.804   4.703
10223TIP3   OH230625   7.249   7.773   0.794
10223TIP3    H130626   7.292   7.696   0.757
10223TIP3    H230627   7.202   7.812   0.721
10224TIP3   OH230628   4.488   5.988   0.631
10224TIP3    H130629   4.512   6.044   0.557
10224TIP3    H230630   4.393   5.999   0.639
10225TIP3   OH230631   6.324   0.765   0.379
10225TIP3    H130632   6.356   0.834   0.322
10225TIP3    H230633   6.403   0.728   0.419
10226TIP3   OH230634   3.990   1.050   5.507
10226TIP3    H130635   3.947   1.125   5.467
10226TIP3    H230636   4.003   1.075   5.599
10227TIP3   OH230637   5.665   0.269   2.089
10227TIP3    H130638   5.681   0.342   2.147
10227TIP3    H230639   5.697   0.299   2.003
10228TIP3   OH230640   6.487   5.516   0.132
10228TIP3    H130641   6.440   5.563   0.063
10228TIP3    H230642   6.570   5.564   0.142
10229TIP3   OH230643   6.776   1.681   5.974
10229TIP3    H130644   6.833   1.609   6.001
10229TIP3    H230645   6.791   1.749   6.039
10230TIP3   OH230646   1.320   3.666   4.472
10230TIP3    H130647   1.302   3.705   4.387
10230TIP3    H230648   1.267   3.717   4.534
10231TIP3   OH230649   4.211   2.896   6.161
10231TIP3    H130650   4.263   2.839   6.104
10231TIP3    H230651   4.144   2.933   6.103
10232TIP3   OH230652   6.282   7.597   4.108
10232TIP3    H130653   6.234   7.523   4.072
10232TIP3    H230654   6.284   7.662   4.038
10233TIP3   OH230655   2.896   6.021   3.178
10233TIP3    H130656   2.845   6.052   3.103
10233TIP3    H230657   2.963   5.965   3.140
10234TIP3   OH230658   1.128   5.801   2.641
10234TIP3    H130659   1.083   5.722   2.671
10234TIP3    H230660   1.120   5.863   2.713
10235TIP3   OH230661   7.219   5.607   0.415
10235TIP3    H130662   7.235   5.525   0.462
10235TIP3    H230663   7.254   5.674   0.473
10236TIP3   OH230664   6.648   2.964   5.951
10236TIP3    H130665   6.730   2.919   5.974
10236TIP3    H230666   6.672   3.025   5.882
10237TIP3   OH230667   6.855   4.804   6.460
10237TIP3    H130668   6.893   4.722   6.428
10237TIP3    H230669   6.761   4.794   6.444
10238TIP3   OH230670   1.836   1.514   4.147
10238TIP3    H130671   1.863   1.542   4.059
10238TIP3    H230672   1.915   1.474   4.184
10239TIP3   OH230673   1.866   5.342   4.632
10239TIP3    H130674   1.838   5.433   4.623
10239TIP3    H230675   1.957   5.348   4.661
10240TIP3   OH230676   3.013   1.934   0.756
10240TIP3    H130677   3.089   1.978   0.720
10240TIP3    H230678   3.047   1.850   0.788
10241TIP3   OH230679   5.522   0.744   0.731
10241TIP3    H130680   5.429   0.733   0.753
10241TIP3    H230681   5.549   0.820   0.782
10242TIP3   OH230682   5.925   5.574   0.772
10242TIP3    H130683   5.961   5.617   0.695
10242TIP3    H230684   5.951   5.482   0.763
10243TIP3   OH230685   1.629   0.144   0.587
10243TIP3    H130686   1.543   0.151   0.546
10243TIP3    H230687   1.635   0.222   0.643
10244TIP3   OH230688   3.267   3.702   6.623
10244TIP3    H130689   3.358   3.715   6.652
10244TIP3    H230690   3.241   3.787   6.587
10245TIP3   OH230691   7.704   2.479   4.885
10245TIP3    H130692   7.730   2.492   4.794
10245TIP3    H230693   7.664   2.392   4.886
10246TIP3   OH230694   2.143   4.842   2.143
10246TIP3    H130695   2.112   4.755   2.169
10246TIP3    H230696   2.236   4.841   2.163
10247TIP3   OH230697   8.292   1.050   0.750
10247TIP3    H130698   8.303   0.959   0.775
10247TIP3    H230699   8.305   1.051   0.655
10248TIP3   OH230700   5.715   7.682   1.422
10248TIP3    H130701   5.746   7.618   1.485
10248TIP3    H230702   5.783   7.750   1.422
10249TIP3   OH230703   5.534   2.656   2.527
10249TIP3    H130704   5.571   2.697   2.449
10249TIP3    H230705   5.439   2.665   2.516
10250TIP3   OH230706   4.954   0.470   1.227
10250TIP3    H130707   4.901   0.483   1.306
10250TIP3    H230708   4.889   0.459   1.157
10251TIP3   OH230709   6.670   5.745   0.187
10251TIP3    H130710   6.597   5.793   0.225
10251TIP3    H230711   6.728   5.813   0.153
10252TIP3   OH230712   0.203   1.444   0.913
10252TIP3    H130713   0.226   1.355   0.939
10252TIP3    H230714   0.245   1.456   0.828
10253TIP3   OH230715   7.691   4.591   0.113
10253TIP3    H130716   7.697   4.495   0.114
10253TIP3    H230717   7.619   4.609   0.053
10254TIP3   OH230718   2.973   6.281   4.834
10254TIP3    H130719   2.964   6.376   4.829
10254TIP3    H230720   2.900   6.247   4.783
10255TIP3   OH230721   2.901   6.854   3.893
10255TIP3    H130722   2.891   6.919   3.962
10255TIP3    H230723   2.840   6.881   3.825
10256TIP3   OH230724   6.014   6.798   6.738
10256TIP3    H130725   5.980   6.824   6.652
10256TIP3    H230726   6.092   6.852   6.751
10257TIP3   OH230727   5.551   3.664   5.826
10257TIP3    H130728   5.600   3.712   5.759
10257TIP3    H230729   5.514   3.589   5.779
10258TIP3   OH230730   8.279   5.596   3.830
10258TIP3    H130731   8.366   5.614   3.866
10258TIP3    H230732   8.218   5.636   3.892
10259TIP3   OH230733   6.889   7.110   2.894
10259TIP3    H130734   6.949   7.161   2.838
10259TIP3    H230735   6.802   7.137   2.865
10260TIP3   OH230736   5.904   1.462   1.498
10260TIP3    H130737   5.905   1.531   1.565
10260TIP3    H230738   5.818   1.421   1.506
10261TIP3   OH230739   3.340   7.000   4.830
10261TIP3    H130740   3.341   7.088   4.793
10261TIP3    H230741   3.303   7.012   4.918
10262TIP3   OH230742   7.695   2.965   6.487
10262TIP3    H130743   7.767   2.903   6.482
10262TIP3    H230744   7.650   2.956   6.403
10263TIP3   OH230745   1.524   5.361   4.722
10263TIP3    H130746   1.582   5.320   4.786
10263TIP3    H230747   1.448   5.389   4.773
10264TIP3   OH230748   0.618   2.402   3.914
10264TIP3    H130749   0.679   2.475   3.900
10264TIP3    H230750   0.580   2.385   3.828
10265TIP3   OH230751   2.877   7.734   3.698
10265TIP3    H130752   2.945   7.721   3.764
10265TIP3    H230753   2.797   7.751   3.749
10266TIP3   OH230754   5.595   6.451   3.795
10266TIP3    H130755   5.599   6.371   3.744
10266TIP3    H230756   5.529   6.505   3.751
10267TIP3   OH230757   2.514   1.189   3.678
10267TIP3    H130758   2.535   1.111   3.627
10267TIP3    H230759   2.536   1.165   3.768
10268TIP3   OH230760   4.332   1.823   1.534
10268TIP3    H130761   4.264   1.813   1.467
10268TIP3    H230762   4.289   1.873   1.603
10269TIP3   OH230763   5.594   3.942   2.165
10269TIP3    H130764   5.499   3.949   2.154
10269TIP3    H230765   5.606   3.917   2.256
10270TIP3   OH230766   0.347   1.307   1.587
10270TIP3    H130767   0.425   1.254   1.604
10270TIP3    H230768   0.310   1.271   1.507
10271TIP3   OH230769   4.557   4.615   3.558
10271TIP3    H130770   4.633   4.670   3.576
10271TIP3    H230771   4.532   4.579   3.643
10272TIP3   OH230772   3.805  -0.002   5.666
10272TIP3    H130773   3.753  -0.035   5.593
10272TIP3    H230774   3.860  -0.075   5.693
10273TIP3   OH230775   2.160   5.850   0.788
10273TIP3    H130776   2.172   5.759   0.815
10273TIP3    H230777   2.244   5.892   0.807
10274TIP3   OH230778   5.582   3.742   6.190
10274TIP3    H130779   5.623   3.682   6.127
10274TIP3    H230780   5.509   3.781   6.141
10275TIP3   OH230781   3.938   0.821   4.217
10275TIP3    H130782   3.952   0.893   4.156
10275TIP3    H230783   4.006   0.757   4.194
10276TIP3   OH230784   6.846   2.916   5.694
10276TIP3    H130785   6.908   2.955   5.633
10276TIP3    H230786   6.897   2.901   5.774
10277TIP3   OH230787   1.295   1.803   1.414
10277TIP3    H130788   1.273   1.895   1.400
10277TIP3    H230789   1.268   1.785   1.504
10278TIP3   OH230790   5.128   3.401   2.489
10278TIP3    H130791   5.055   3.432   2.436
10278TIP3    H230792   5.091   3.388   2.577
10279TIP3   OH230793   6.250   0.408   6.723
10279TIP3    H130794   6.232   0.403   6.817
10279TIP3    H230795   6.343   0.430   6.718
10280TIP3   OH230796   1.438   6.302   4.861
10280TIP3    H130797   1.493   6.224   4.850
10280TIP3    H230798   1.413   6.326   4.772
10281TIP3   OH230799   3.905   4.157   2.026
10281TIP3    H130800   3.902   4.114   2.112
10281TIP3    H230801   3.869   4.244   2.042
10282TIP3   OH230802   1.702   1.538   2.481
10282TIP3    H130803   1.720   1.601   2.550
10282TIP3    H230804   1.607   1.531   2.478
10283TIP3   OH230805   6.375   7.104   0.718
10283TIP3    H130806   6.325   7.183   0.697
10283TIP3    H230807   6.356   7.044   0.646
10284TIP3   OH230808   0.508   2.319   6.721
10284TIP3    H130809   0.565   2.331   6.645
10284TIP3    H230810   0.472   2.406   6.738
10285TIP3   OH230811   0.134   4.344   0.697
10285TIP3    H130812   0.197   4.278   0.726
10285TIP3    H230813   0.179   4.427   0.710
10286TIP3   OH230814   4.906   3.150   3.703
10286TIP3    H130815   4.843   3.214   3.669
10286TIP3    H230816   4.960   3.199   3.764
10287TIP3   OH230817   4.874   6.585   4.555
10287TIP3    H130818   4.847   6.632   4.476
10287TIP3    H230819   4.870   6.493   4.531
10288TIP3   OH230820   5.973   5.390   5.999
10288TIP3    H130821   6.008   5.443   5.927
10288TIP3    H230822   6.034   5.404   6.071
10289TIP3   OH230823   7.739   5.353   6.781
10289TIP3    H130824   7.708   5.295   6.712
10289TIP3    H230825   7.835   5.352   6.772
10290TIP3   OH230826   4.015   6.218   2.156
10290TIP3    H130827   3.977   6.303   2.180
10290TIP3    H230828   4.105   6.239   2.129
10291TIP3   OH230829   5.256   3.692   3.628
10291TIP3    H130830   5.331   3.685   3.687
10291TIP3    H230831   5.274   3.769   3.574
10292TIP3   OH230832   2.236   5.313   5.395
10292TIP3    H130833   2.304   5.246   5.389
10292TIP3    H230834   2.217   5.320   5.489
10293TIP3   OH230835   7.402   5.133   3.189
10293TIP3    H130836   7.488   5.110   3.152
10293TIP3    H230837   7.379   5.058   3.244
10294TIP3   OH230838   0.491   7.208   6.081
10294TIP3    H130839   0.462   7.192   6.171
10294TIP3    H230840   0.505   7.120   6.045
10295TIP3   OH230841   0.511   3.239   5.409
10295TIP3    H130842   0.431   3.290   5.419
10295TIP3    H230843   0.498   3.189   5.329
10296TIP3   OH230844   8.085   6.793   0.191
10296TIP3    H130845   8.024   6.857   0.228
10296TIP3    H230846   8.160   6.795   0.249
10297TIP3   OH230847   2.338   7.375   1.444
10297TIP3    H130848   2.257   7.368   1.494
10297TIP3    H230849   2.311   7.374   1.353
10298TIP3   OH230850   0.211   3.650   4.459
10298TIP3    H130851   0.276   3.711   4.494
10298TIP3    H230852   0.237   3.638   4.367
10299TIP3   OH230853   3.690   5.074   2.167
10299TIP3    H130854   3.665   5.023   2.090
10299TIP3    H230855   3.756   5.021   2.211
10300TIP3   OH230856   5.784   7.269   4.489
10300TIP3    H130857   5.786   7.322   4.409
10300TIP3    H230858   5.845   7.313   4.548
10301TIP3   OH230859   1.410   2.561   2.501
10301TIP3    H130860   1.498   2.529   2.520
10301TIP3    H230861   1.417   2.656   2.505
10302TIP3   OH230862   2.579   4.368   1.697
10302TIP3    H130863   2.615   4.298   1.643
10302TIP3    H230864   2.581   4.445   1.641
10303TIP3   OH230865   4.402   2.725   1.067
10303TIP3    H130866   4.372   2.644   1.109
10303TIP3    H230867   4.382   2.712   0.974
10304TIP3   OH230868   2.952   6.571   3.084
10304TIP3    H130869   2.915   6.636   3.024
10304TIP3    H230870   2.926   6.601   3.171
10305TIP3   OH230871   3.265   1.620   4.751
10305TIP3    H130872   3.277   1.645   4.660
10305TIP3    H230873   3.344   1.653   4.795
10306TIP3   OH230874   2.656   6.923   3.022
10306TIP3    H130875   2.620   7.012   3.019
10306TIP3    H230876   2.620   6.881   2.944
10307TIP3   OH230877   0.673   0.395   3.502
10307TIP3    H130878   0.741   0.362   3.560
10307TIP3    H230879   0.591   0.372   3.545
10308TIP3   OH230880   6.132   4.504   3.538
10308TIP3    H130881   6.167   4.573   3.594
10308TIP3    H230882   6.136   4.425   3.592
10309TIP3   OH230883   3.547   6.754   6.766
10309TIP3    H130884   3.590   6.787   6.687
10309TIP3    H230885   3.576   6.663   6.773
10310TIP3   OH230886   2.391   2.663   6.233
10310TIP3    H130887   2.439   2.702   6.306
10310TIP3    H230888   2.299   2.668   6.260
10311TIP3   OH230889   2.203   6.566   4.526
10311TIP3    H130890   2.186   6.616   4.606
10311TIP3    H230891   2.288   6.525   4.541
10312TIP3   OH230892   7.509   0.824   2.044
10312TIP3    H130893   7.509   0.743   2.095
10312TIP3    H230894   7.417   0.852   2.044
10313TIP3   OH230895   0.449   6.689   5.778
10313TIP3    H130896   0.410   6.736   5.704
10313TIP3    H230897   0.516   6.634   5.739
10314TIP3   OH230898   0.499   7.605   5.659
10314TIP3    H130899   0.451   7.648   5.730
10314TIP3    H230900   0.566   7.669   5.634
10315TIP3   OH230901   4.917   1.956   4.424
10315TIP3    H130902   4.982   2.018   4.458
10315TIP3    H230903   4.946   1.871   4.456
10316TIP3   OH230904   4.175   3.639   4.639
10316TIP3    H130905   4.085   3.625   4.669
10316TIP3    H230906   4.229   3.591   4.702
10317TIP3   OH230907   7.551   6.066   1.850
10317TIP3    H130908   7.565   6.061   1.944
10317TIP3    H230909   7.617   6.128   1.819
10318TIP3   OH230910   0.672   2.413   5.488
10318TIP3    H130911   0.672   2.319   5.508
10318TIP3    H230912   0.744   2.448   5.540
10319TIP3   OH230913   3.776   6.558   4.960
10319TIP3    H130914   3.747   6.519   4.877
10319TIP3    H230915   3.746   6.497   5.027
10320TIP3   OH230916   3.884   4.322   2.972
10320TIP3    H130917   3.855   4.367   2.893
10320TIP3    H230918   3.976   4.349   2.983
10321TIP3   OH230919   7.339   5.430   2.762
10321TIP3    H130920   7.370   5.427   2.852
10321TIP3    H230921   7.244   5.429   2.769
10322TIP3   OH230922   7.504   2.513   4.130
10322TIP3    H130923   7.515   2.481   4.040
10322TIP3    H230924   7.581   2.480   4.177
10323TIP3   OH230925   3.654   7.031   3.744
10323TIP3    H130926   3.627   6.941   3.725
10323TIP3    H230927   3.742   7.038   3.707
10324TIP3   OH230928   7.316   1.629   3.599
10324TIP3    H130929   7.235   1.586   3.571
10324TIP3    H230930   7.358   1.565   3.656
10325TIP3   OH230931   2.305   7.446   3.928
10325TIP3    H130932   2.337   7.399   3.851
10325TIP3    H230933   2.215   7.469   3.906
10326TIP3   OH230934   2.426   6.385   6.275
10326TIP3    H130935   2.431   6.475   6.244
10326TIP3    H230936   2.343   6.352   6.241
10327TIP3   OH230937   6.234   0.455   3.138
10327TIP3    H130938   6.325   0.479   3.156
10327TIP3    H230939   6.207   0.401   3.212
10328TIP3   OH230940   3.979   6.792   6.284
10328TIP3    H130941   3.890   6.767   6.307
10328TIP3    H230942   3.975   6.886   6.270
10329TIP3   OH230943   8.260   6.621   6.015
10329TIP3    H130944   8.346   6.603   5.977
10329TIP3    H230945   8.233   6.704   5.977
10330TIP3   OH230946   7.884   6.645   4.524
10330TIP3    H130947   7.942   6.693   4.584
10330TIP3    H230948   7.803   6.635   4.574
10331TIP3   OH230949   7.310   5.634   6.474
10331TIP3    H130950   7.381   5.594   6.423
10331TIP3    H230951   7.349   5.712   6.513
10332TIP3   OH230952   4.178   2.867   4.346
10332TIP3    H130953   4.114   2.875   4.417
10332TIP3    H230954   4.125   2.850   4.268
10333TIP3   OH230955   1.367   6.584   1.114
10333TIP3    H130956   1.459   6.606   1.128
10333TIP3    H230957   1.319   6.663   1.139
10334TIP3   OH230958   4.185   6.832   3.731
10334TIP3    H130959   4.273   6.857   3.759
10334TIP3    H230960   4.131   6.909   3.749
10335TIP3   OH230961   1.062   2.608   3.884
10335TIP3    H130962   1.001   2.595   3.957
10335TIP3    H230963   1.145   2.570   3.915
10336TIP3   OH230964   7.542   6.706   3.375
10336TIP3    H130965   7.625   6.672   3.409
10336TIP3    H230966   7.565   6.739   3.288
10337TIP3   OH230967   1.862   7.350   4.000
10337TIP3    H130968   1.814   7.323   4.079
10337TIP3    H230969   1.808   7.318   3.927
10338TIP3   OH230970   2.944   2.421   6.187
10338TIP3    H130971   2.975   2.429   6.096
10338TIP3    H230972   3.022   2.395   6.236
10339TIP3   OH230973   5.453   7.750   1.288
10339TIP3    H130974   5.409   7.807   1.351
10339TIP3    H230975   5.512   7.697   1.341
10340TIP3   OH230976   4.803   7.109   4.206
10340TIP3    H130977   4.793   7.201   4.183
10340TIP3    H230978   4.724   7.087   4.255
10341TIP3   OH230979   2.105   1.596   3.613
10341TIP3    H130980   2.158   1.667   3.577
10341TIP3    H230981   2.160   1.558   3.681
10342TIP3   OH230982   4.556   4.967   4.085
10342TIP3    H130983   4.593   4.931   4.166
10342TIP3    H230984   4.596   5.054   4.077
10343TIP3   OH230985   4.117   5.796   1.542
10343TIP3    H130986   4.089   5.723   1.598
10343TIP3    H230987   4.212   5.786   1.535
10344TIP3   OH230988   4.388   3.788   5.972
10344TIP3    H130989   4.374   3.882   5.963
10344TIP3    H230990   4.461   3.781   6.034
10345TIP3   OH230991   5.250   4.548   4.585
10345TIP3    H130992   5.192   4.591   4.522
10345TIP3    H230993   5.246   4.456   4.562
10346TIP3   OH230994   7.149   1.564   4.847
10346TIP3    H130995   7.100   1.486   4.873
10346TIP3    H230996   7.121   1.632   4.908
10347TIP3   OH230997   6.634   4.049   3.554
10347TIP3    H130998   6.589   3.988   3.496
10347TIP3    H230999   6.712   4.075   3.505
10348TIP3   OH231000   3.374   6.632   5.262
10348TIP3    H131001   3.287   6.629   5.221
10348TIP3    H231002   3.385   6.545   5.300
10349TIP3   OH231003   1.982   3.484   6.671
10349TIP3    H131004   2.027   3.404   6.645
10349TIP3    H231005   2.014   3.551   6.611
10350TIP3   OH231006   4.509   5.295   0.688
10350TIP3    H131007   4.433   5.324   0.738
10350TIP3    H231008   4.572   5.367   0.696
10351TIP3   OH231009   5.871   2.074   1.287
10351TIP3    H131010   5.798   2.013   1.278
10351TIP3    H231011   5.917   2.069   1.203
10352TIP3   OH231012   8.195   1.097   1.315
10352TIP3    H131013   8.229   1.183   1.290
10352TIP3    H231014   8.116   1.117   1.365
10353TIP3   OH231015   6.517   2.655   5.458
10353TIP3    H131016   6.496   2.625   5.547
10353TIP3    H231017   6.498   2.749   5.459
10354TIP3   OH231018   2.971   1.205   1.899
10354TIP3    H131019   2.953   1.298   1.886
10354TIP3    H231020   2.889   1.161   1.875
10355TIP3   OH231021   7.467   0.420   4.531
10355TIP3    H131022   7.457   0.459   4.443
10355TIP3    H231023   7.414   0.341   4.528
10356TIP3   OH231024   7.348   7.580   3.082
10356TIP3    H131025   7.308   7.653   3.128
10356TIP3    H231026   7.440   7.583   3.106
10357TIP3   OH231027   8.074   2.442   5.294
10357TIP3    H131028   8.123   2.517   5.328
10357TIP3    H231029   8.140   2.373   5.284
10358TIP3   OH231030   3.065   3.092   2.655
10358TIP3    H131031   3.155   3.106   2.685
10358TIP3    H231032   3.014   3.085   2.736
10359TIP3   OH231033   5.516   5.130   6.727
10359TIP3    H131034   5.568   5.210   6.725
10359TIP3    H231035   5.460   5.140   6.805
10360TIP3   OH231036   7.369   6.687   1.501
10360TIP3    H131037   7.331   6.766   1.541
10360TIP3    H231038   7.356   6.699   1.407
10361TIP3   OH231039   6.884   4.931   1.162
10361TIP3    H131040   6.965   4.937   1.212
10361TIP3    H231041   6.881   4.839   1.133
10362TIP3   OH231042   0.419   7.784   1.245
10362TIP3    H131043   0.455   7.702   1.280
10362TIP3    H231044   0.444   7.850   1.309
10363TIP3   OH231045   2.906   5.350   0.294
10363TIP3    H131046   2.978   5.385   0.242
10363TIP3    H231047   2.830   5.356   0.236
10364TIP3   OH231048   6.071   0.639   0.314
10364TIP3    H131049   6.154   0.678   0.339
10364TIP3    H231050   6.039   0.597   0.394
10365TIP3   OH231051   3.346   7.421   5.257
10365TIP3    H131052   3.371   7.383   5.173
10365TIP3    H231053   3.251   7.434   5.249
10366TIP3   OH231054   4.183   0.054   3.683
10366TIP3    H131055   4.143   0.139   3.701
10366TIP3    H231056   4.263   0.076   3.635
10367TIP3   OH231057   3.768   4.735   6.440
10367TIP3    H131058   3.680   4.704   6.419
10367TIP3    H231059   3.786   4.802   6.374
10368TIP3   OH231060   3.613   4.210   2.884
10368TIP3    H131061   3.589   4.208   2.977
10368TIP3    H231062   3.704   4.182   2.882
10369TIP3   OH231063   3.382   3.523   3.638
10369TIP3    H131064   3.414   3.439   3.669
10369TIP3    H231065   3.293   3.529   3.673
10370TIP3   OH231066   2.044   7.523   3.885
10370TIP3    H131067   1.976   7.461   3.914
10370TIP3    H231068   2.052   7.585   3.957
10371TIP3   OH231069   2.265   3.608   0.948
10371TIP3    H131070   2.249   3.650   1.032
10371TIP3    H231071   2.361   3.610   0.938
10372TIP3   OH231072   8.055   7.331   6.687
10372TIP3    H131073   8.104   7.362   6.763
10372TIP3    H231074   8.055   7.236   6.694
10373TIP3   OH231075   1.914   1.764   4.758
10373TIP3    H131076   1.954   1.830   4.814
10373TIP3    H231077   1.852   1.718   4.815
10374TIP3   OH231078   0.317   7.768   2.508
10374TIP3    H131079   0.288   7.794   2.420
10374TIP3    H231080   0.351   7.680   2.497
10375TIP3   OH231081   6.047   2.270   6.472
10375TIP3    H131082   5.990   2.285   6.397
10375TIP3    H231083   6.131   2.244   6.434
10376TIP3   OH231084   4.943   2.283   5.591
10376TIP3    H131085   4.856   2.263   5.626
10376TIP3    H231086   4.926   2.333   5.511
10377TIP3   OH231087   3.482   2.054   3.619
10377TIP3    H131088   3.573   2.076   3.639
10377TIP3    H231089   3.486   2.013   3.533
10378TIP3   OH231090   1.688   1.715   4.224
10378TIP3    H131091   1.736   1.635   4.203
10378TIP3    H231092   1.755   1.776   4.256
10379TIP3   OH231093   7.022   0.739   0.296
10379TIP3    H131094   6.996   0.782   0.214
10379TIP3    H231095   7.103   0.784   0.322
10380TIP3   OH231096   6.643   2.889   4.046
10380TIP3    H131097   6.596   2.833   4.108
10380TIP3    H231098   6.624   2.850   3.960
10381TIP3   OH231099   1.973   2.183   4.352
10381TIP3    H131100   1.974   2.142   4.439
10381TIP3    H231101   1.984   2.110   4.291
10382TIP3   OH231102   0.607   4.874   5.379
10382TIP3    H131103   0.585   4.953   5.429
10382TIP3    H231104   0.570   4.890   5.292
10383TIP3   OH231105   0.202   6.724   2.765
10383TIP3    H131106   0.210   6.819   2.758
10383TIP3    H231107   0.125   6.702   2.712
10384TIP3   OH231108   6.509   0.962   1.021
10384TIP3    H131109   6.433   0.974   0.963
10384TIP3    H231110   6.535   1.050   1.046
10385TIP3   OH231111   0.342   6.275   1.266
10385TIP3    H131112   0.304   6.363   1.254
10385TIP3    H231113   0.376   6.252   1.179
10386TIP3   OH231114   6.079   4.226   4.619
10386TIP3    H131115   6.155   4.257   4.570
10386TIP3    H231116   6.003   4.260   4.570
10387TIP3   OH231117   5.925   0.120   0.934
10387TIP3    H131118   5.871   0.171   0.875
10387TIP3    H231119   5.869   0.101   1.009
10388TIP3   OH231120   2.841   6.368   6.365
10388TIP3    H131121   2.863   6.346   6.456
10388TIP3    H231122   2.767   6.312   6.344
10389TIP3   OH231123   8.049   1.215   3.337
10389TIP3    H131124   8.096   1.131   3.338
10389TIP3    H231125   8.094   1.268   3.403
10390TIP3   OH231126   3.082   2.055   1.381
10390TIP3    H131127   3.087   1.989   1.449
10390TIP3    H231128   3.170   2.059   1.344
10391TIP3   OH231129   3.605   1.730   6.232
10391TIP3    H131130   3.562   1.802   6.184
10391TIP3    H231131   3.602   1.656   6.171
10392TIP3   OH231132   4.466   0.764   3.252
10392TIP3    H131133   4.439   0.700   3.186
10392TIP3    H231134   4.526   0.716   3.308
10393TIP3   OH231135   0.213   2.229   0.325
10393TIP3    H131136   0.181   2.161   0.265
10393TIP3    H231137   0.284   2.187   0.374
10394TIP3   OH231138   0.590   0.670   2.261
10394TIP3    H131139   0.572   0.745   2.204
10394TIP3    H231140   0.663   0.699   2.316
10395TIP3   OH231141   7.491   6.547   3.791
10395TIP3    H131142   7.438   6.469   3.775
10395TIP3    H231143   7.455   6.583   3.873
10396TIP3   OH231144   6.242   7.615   6.302
10396TIP3    H131145   6.260   7.557   6.376
10396TIP3    H231146   6.147   7.626   6.301
10397TIP3   OH231147   2.410   5.543   6.486
10397TIP3    H131148   2.315   5.540   6.498
10397TIP3    H231149   2.440   5.610   6.546
10398TIP3   OH231150   3.656   4.964   0.434
10398TIP3    H131151   3.583   5.000   0.384
10398TIP3    H231152   3.622   4.883   0.471
10399TIP3   OH231153   7.334   3.988   5.557
10399TIP3    H131154   7.402   3.950   5.501
10399TIP3    H231155   7.339   3.937   5.638
10400TIP3   OH231156   1.053   0.417   2.911
10400TIP3    H131157   1.122   0.478   2.886
10400TIP3    H231158   0.971   0.461   2.890
10401TIP3   OH231159   3.578   2.815   1.921
10401TIP3    H131160   3.646   2.839   1.984
10401TIP3    H231161   3.496   2.838   1.964
10402TIP3   OH231162   6.765   1.257   1.870
10402TIP3    H131163   6.737   1.332   1.816
10402TIP3    H231164   6.783   1.188   1.807
10403TIP3   OH231165   6.573   7.477   4.055
10403TIP3    H131166   6.549   7.477   3.962
10403TIP3    H231167   6.565   7.569   4.082
10404TIP3   OH231168   3.976   2.998   5.976
10404TIP3    H131169   3.927   3.071   5.939
10404TIP3    H231170   4.067   3.016   5.954
10405TIP3   OH231171   6.471   5.553   1.703
10405TIP3    H131172   6.528   5.533   1.629
10405TIP3    H231173   6.415   5.624   1.671
10406TIP3   OH231174   6.861   7.389   0.643
10406TIP3    H131175   6.780   7.374   0.692
10406TIP3    H231176   6.916   7.313   0.663
10407TIP3   OH231177   5.836   7.420   6.326
10407TIP3    H131178   5.898   7.479   6.283
10407TIP3    H231179   5.772   7.479   6.366
10408TIP3   OH231180   7.948   3.391   5.805
10408TIP3    H131181   7.905   3.465   5.848
10408TIP3    H231182   7.878   3.347   5.757
10409TIP3   OH231183   7.236   3.135   4.281
10409TIP3    H131184   7.194   3.049   4.272
10409TIP3    H231185   7.231   3.173   4.193
10410TIP3   OH231186   1.313   0.316   1.675
10410TIP3    H131187   1.219   0.331   1.684
10410TIP3    H231188   1.324   0.290   1.583
10411TIP3   OH231189   2.471   3.969   4.232
10411TIP3    H131190   2.397   3.968   4.171
10411TIP3    H231191   2.548   3.966   4.176
10412TIP3   OH231192   5.857   1.176   4.745
10412TIP3    H131193   5.827   1.127   4.822
10412TIP3    H231194   5.851   1.113   4.673
10413TIP3   OH231195   1.885   6.314   2.377
10413TIP3    H131196   1.966   6.263   2.375
10413TIP3    H231197   1.815   6.250   2.364
10414TIP3   OH231198   3.414   3.196   2.523
10414TIP3    H131199   3.385   3.204   2.613
10414TIP3    H231200   3.452   3.281   2.502
10415TIP3   OH231201   2.275   2.861   0.894
10415TIP3    H131202   2.336   2.811   0.948
10415TIP3    H231203   2.318   2.867   0.809
10416TIP3   OH231204   6.544   4.398   4.984
10416TIP3    H131205   6.595   4.351   5.050
10416TIP3    H231206   6.609   4.430   4.922
10417TIP3   OH231207   8.143   3.260   6.798
10417TIP3    H131208   8.195   3.181   6.780
10417TIP3    H231209   8.203   3.318   6.845
10418TIP3   OH231210   3.034   4.146   5.283
10418TIP3    H131211   3.026   4.240   5.263
10418TIP3    H231212   2.958   4.107   5.241
10419TIP3   OH231213   4.212   3.458   0.499
10419TIP3    H131214   4.263   3.528   0.458
10419TIP3    H231215   4.149   3.504   0.555
10420TIP3   OH231216   6.958   0.209   0.408
10420TIP3    H131217   6.882   0.156   0.382
10420TIP3    H231218   7.020   0.197   0.336
10421TIP3   OH231219   4.254   5.191   1.909
10421TIP3    H131220   4.290   5.111   1.948
10421TIP3    H231221   4.305   5.262   1.947
10422TIP3   OH231222   6.573   6.510   4.456
10422TIP3    H131223   6.500   6.449   4.464
10422TIP3    H231224   6.604   6.499   4.366
10423TIP3   OH231225   4.093   1.257   6.554
10423TIP3    H131226   4.076   1.172   6.595
10423TIP3    H231227   4.109   1.237   6.462
10424TIP3   OH231228   5.298   5.567   4.049
10424TIP3    H131229   5.213   5.544   4.086
10424TIP3    H231230   5.350   5.595   4.124
10425TIP3   OH231231   7.809   4.254   1.227
10425TIP3    H131232   7.828   4.184   1.290
10425TIP3    H231233   7.894   4.274   1.187
10426TIP3   OH231234   7.848   7.173   0.405
10426TIP3    H131235   7.897   7.137   0.479
10426TIP3    H231236   7.868   7.267   0.407
10427TIP3   OH231237   2.425   6.288   1.169
10427TIP3    H131238   2.364   6.225   1.207
10427TIP3    H231239   2.510   6.264   1.203
10428TIP3   OH231240   5.924   3.048   5.357
10428TIP3    H131241   5.955   3.013   5.441
10428TIP3    H231242   5.934   2.976   5.295
10429TIP3   OH231243   2.289   5.691   2.655
10429TIP3    H131244   2.217   5.704   2.717
10429TIP3    H231245   2.317   5.601   2.671
10430TIP3   OH231246   1.268   0.329   2.432
10430TIP3    H131247   1.211   0.394   2.391
10430TIP3    H231248   1.356   0.351   2.399
10431TIP3   OH231249   0.364   2.666   0.667
10431TIP3    H131250   0.292   2.728   0.677
10431TIP3    H231251   0.328   2.595   0.613
10432TIP3   OH231252   3.234   4.304   1.519
10432TIP3    H131253   3.308   4.289   1.578
10432TIP3    H231254   3.230   4.225   1.465
10433TIP3   OH231255   5.278   0.475   4.789
10433TIP3    H131256   5.248   0.385   4.780
10433TIP3    H231257   5.202   0.522   4.824
10434TIP3   OH231258   1.209   3.215   4.724
10434TIP3    H131259   1.202   3.165   4.642
10434TIP3    H231260   1.159   3.164   4.788
10435TIP3   OH231261   5.802   2.609   3.211
10435TIP3    H131262   5.728   2.647   3.258
10435TIP3    H231263   5.872   2.674   3.218
10436TIP3   OH231264   4.259   1.489   5.888
10436TIP3    H131265   4.294   1.577   5.881
10436TIP3    H231266   4.237   1.464   5.798
10437TIP3   OH231267   4.224   5.783   6.317
10437TIP3    H131268   4.130   5.774   6.331
10437TIP3    H231269   4.260   5.798   6.405
10438TIP3   OH231270   7.465   5.326   4.087
10438TIP3    H131271   7.370   5.323   4.074
10438TIP3    H231272   7.501   5.342   4.000
10439TIP3   OH231273   1.441   3.089   4.545
10439TIP3    H131274   1.523   3.048   4.517
10439TIP3    H231275   1.468   3.171   4.586
10440TIP3   OH231276   8.040   3.820   4.486
10440TIP3    H131277   8.042   3.913   4.462
10440TIP3    H231278   8.054   3.774   4.403
10441TIP3   OH231279   7.749   2.646   5.732
10441TIP3    H131280   7.675   2.592   5.761
10441TIP3    H231281   7.813   2.639   5.803
10442TIP3   OH231282   0.401   6.972   2.944
10442TIP3    H131283   0.478   6.917   2.934
10442TIP3    H231284   0.432   7.061   2.927
10443TIP3   OH231285   7.736   2.762   4.228
10443TIP3    H131286   7.670   2.716   4.280
10443TIP3    H231287   7.687   2.822   4.173
10444TIP3   OH231288   3.424   1.956   4.690
10444TIP3    H131289   3.439   2.002   4.607
10444TIP3    H231290   3.329   1.947   4.695
10445TIP3   OH231291   0.817   7.346   5.307
10445TIP3    H131292   0.875   7.270   5.309
10445TIP3    H231293   0.850   7.400   5.235
10446TIP3   OH231294   5.242   0.198   4.750
10446TIP3    H131295   5.151   0.176   4.771
10446TIP3    H231296   5.294   0.136   4.801
10447TIP3   OH231297   7.809   1.132   3.927
10447TIP3    H131298   7.747   1.204   3.940
10447TIP3    H231299   7.851   1.152   3.843
10448TIP3   OH231300   7.194   2.996   0.981
10448TIP3    H131301   7.124   2.962   0.925
10448TIP3    H231302   7.273   2.954   0.949
10449TIP3   OH231303   6.138   0.304   3.385
10449TIP3    H131304   6.177   0.300   3.472
10449TIP3    H231305   6.043   0.305   3.401
10450TIP3   OH231306   2.725   2.243   4.180
10450TIP3    H131307   2.758   2.154   4.185
10450TIP3    H231308   2.795   2.297   4.217
10451TIP3   OH231309   3.728   6.998   3.322
10451TIP3    H131310   3.717   6.904   3.314
10451TIP3    H231311   3.793   7.021   3.256
10452TIP3   OH231312   3.816   5.525   1.401
10452TIP3    H131313   3.771   5.514   1.318
10452TIP3    H231314   3.867   5.444   1.412
10453TIP3   OH231315   6.260   7.692   3.128
10453TIP3    H131316   6.289   7.666   3.041
10453TIP3    H231317   6.330   7.663   3.186
10454TIP3   OH231318   4.960   4.203   6.715
10454TIP3    H131319   4.936   4.259   6.788
10454TIP3    H231320   5.047   4.171   6.737
10455TIP3   OH231321   1.323   4.443   5.938
10455TIP3    H131322   1.368   4.373   5.986
10455TIP3    H231323   1.336   4.521   5.991
10456TIP3   OH231324   1.207   5.851   6.731
10456TIP3    H131325   1.183   5.915   6.798
10456TIP3    H231326   1.294   5.879   6.701
10457TIP3   OH231327   0.332   1.055   0.719
10457TIP3    H131328   0.397   1.082   0.655
10457TIP3    H231329   0.290   0.978   0.680
10458TIP3   OH231330   3.583   2.632   4.215
10458TIP3    H131331   3.496   2.649   4.251
10458TIP3    H231332   3.578   2.660   4.124
10459TIP3   OH231333   3.337   3.794   6.319
10459TIP3    H131334   3.343   3.801   6.224
10459TIP3    H231335   3.419   3.752   6.346
10460TIP3   OH231336   7.184   0.380   3.557
10460TIP3    H131337   7.090   0.368   3.546
10460TIP3    H231338   7.205   0.330   3.636
10461TIP3   OH231339   1.831   4.774   4.556
10461TIP3    H131340   1.801   4.684   4.542
10461TIP3    H231341   1.846   4.780   4.650
10462TIP3   OH231342   2.942   5.896   2.143
10462TIP3    H131343   2.987   5.971   2.102
10462TIP3    H231344   2.963   5.822   2.087
10463TIP3   OH231345   1.922   3.481   0.089
10463TIP3    H131346   1.957   3.550   0.034
10463TIP3    H231347   1.996   3.451   0.141
10464TIP3   OH231348   0.173   6.756   5.401
10464TIP3    H131349   0.133   6.671   5.422
10464TIP3    H231350   0.102   6.805   5.360
10465TIP3   OH231351   3.700   0.668   4.301
10465TIP3    H131352   3.769   0.707   4.247
10465TIP3    H231353   3.731   0.677   4.390
10466TIP3   OH231354   5.762   1.456   6.630
10466TIP3    H131355   5.803   1.442   6.544
10466TIP3    H231356   5.825   1.420   6.693
10467TIP3   OH231357   4.114   3.032   2.371
10467TIP3    H131358   4.039   3.074   2.413
10467TIP3    H231359   4.190   3.065   2.418
10468TIP3   OH231360   3.044   1.807   6.435
10468TIP3    H131361   3.112   1.750   6.469
10468TIP3    H231362   3.070   1.824   6.344
10469TIP3   OH231363   1.085   1.257   4.830
10469TIP3    H131364   1.027   1.209   4.771
10469TIP3    H231365   1.173   1.230   4.804
10470TIP3   OH231366   8.251   1.952   1.582
10470TIP3    H131367   8.287   1.875   1.538
10470TIP3    H231368   8.184   1.985   1.522
10471TIP3   OH231369   0.464   5.038   4.504
10471TIP3    H131370   0.449   4.990   4.585
10471TIP3    H231371   0.452   4.974   4.435
10472TIP3   OH231372   4.917   0.757   2.314
10472TIP3    H131373   4.932   0.730   2.405
10472TIP3    H231374   4.888   0.849   2.321
10473TIP3   OH231375   2.558   3.834  -0.025
10473TIP3    H131376   2.610   3.910  -0.002
10473TIP3    H231377   2.471   3.870  -0.044
10474TIP3   OH231378   3.826   3.057   3.894
10474TIP3    H131379   3.784   3.042   3.810
10474TIP3    H231380   3.783   3.135   3.929
10475TIP3   OH231381   1.781   6.188   5.885
10475TIP3    H131382   1.848   6.131   5.920
10475TIP3    H231383   1.782   6.265   5.941
10476TIP3   OH231384   3.061   5.532   3.111
10476TIP3    H131385   3.055   5.535   3.206
10476TIP3    H231386   3.024   5.616   3.082
10477TIP3   OH231387   1.746   6.143   3.497
10477TIP3    H131388   1.789   6.225   3.522
10477TIP3    H231389   1.753   6.088   3.575
10478TIP3   OH231390   8.055   0.208   4.272
10478TIP3    H131391   8.106   0.210   4.354
10478TIP3    H231392   7.964   0.207   4.301
10479TIP3   OH231393   6.542   0.655   2.608
10479TIP3    H131394   6.577   0.567   2.594
10479TIP3    H231395   6.620   0.710   2.623
10480TIP3   OH231396   3.890   3.340   0.528
10480TIP3    H131397   3.941   3.421   0.537
10480TIP3    H231398   3.799   3.367   0.544
10481TIP3   OH231399   7.916   5.316   5.911
10481TIP3    H131400   7.872   5.374   5.849
10481TIP3    H231401   8.008   5.340   5.905
10482TIP3   OH231402   0.685   3.840   0.291
10482TIP3    H131403   0.696   3.907   0.359
10482TIP3    H231404   0.622   3.778   0.329
10483TIP3   OH231405   4.265   0.209   0.768
10483TIP3    H131406   4.331   0.267   0.731
10483TIP3    H231407   4.185   0.262   0.770
10484TIP3   OH231408   5.852   7.500   1.603
10484TIP3    H131409   5.928   7.460   1.560
10484TIP3    H231410   5.888   7.535   1.685
10485TIP3   OH231411   5.834   3.055   4.536
10485TIP3    H131412   5.891   2.980   4.551
10485TIP3    H231413   5.842   3.073   4.443
10486TIP3   OH231414   6.831   5.750   5.835
10486TIP3    H131415   6.776   5.675   5.812
10486TIP3    H231416   6.840   5.799   5.754
10487TIP3   OH231417   6.384   6.128   3.214
10487TIP3    H131418   6.411   6.201   3.269
10487TIP3    H231419   6.295   6.151   3.186
10488TIP3   OH231420   7.038   6.673   5.316
10488TIP3    H131421   7.127   6.685   5.284
10488TIP3    H231422   6.990   6.749   5.285
10489TIP3   OH231423   7.416   2.750   6.361
10489TIP3    H131424   7.476   2.714   6.296
10489TIP3    H231425   7.448   2.717   6.445
10490TIP3   OH231426   1.652   4.870   2.738
10490TIP3    H131427   1.613   4.802   2.683
10490TIP3    H231428   1.587   4.939   2.741
10491TIP3   OH231429   3.619   3.539   2.154
10491TIP3    H131430   3.659   3.484   2.087
10491TIP3    H231431   3.574   3.608   2.105
10492TIP3   OH231432   3.223   0.605   1.465
10492TIP3    H131433   3.272   0.641   1.539
10492TIP3    H231434   3.200   0.682   1.413
10493TIP3   OH231435   3.496   6.689   4.936
10493TIP3    H131436   3.572   6.736   4.901
10493TIP3    H231437   3.529   6.602   4.956
10494TIP3   OH231438   1.454   0.621   6.599
10494TIP3    H131439   1.397   0.679   6.547
10494TIP3    H231440   1.535   0.671   6.609
10495TIP3   OH231441   5.830   5.294   0.116
10495TIP3    H131442   5.761   5.236   0.083
10495TIP3    H231443   5.883   5.238   0.173
10496TIP3   OH231444   6.829   6.090   0.478
10496TIP3    H131445   6.831   6.144   0.398
10496TIP3    H231446   6.738   6.094   0.508
10497TIP3   OH231447   0.604   4.222   3.624
10497TIP3    H131448   0.674   4.166   3.659
10497TIP3    H231449   0.614   4.305   3.672
10498TIP3   OH231450   7.295   6.820   1.740
10498TIP3    H131451   7.261   6.888   1.798
10498TIP3    H231452   7.389   6.837   1.735
10499TIP3   OH231453   5.228   4.474   1.663
10499TIP3    H131454   5.141   4.451   1.631
10499TIP3    H231455   5.237   4.427   1.745
10500TIP3   OH231456   4.697   0.048   3.904
10500TIP3    H131457   4.763   0.076   3.967
10500TIP3    H231458   4.617   0.038   3.955
10501TIP3   OH231459   6.104   5.137   6.038
10501TIP3    H131460   6.064   5.223   6.053
10501TIP3    H231461   6.032   5.075   6.047
10502TIP3   OH231462   2.614   7.818   4.845
10502TIP3    H131463   2.694   7.849   4.887
10502TIP3    H231464   2.582   7.749   4.903
10503TIP3   OH231465   6.891   6.711   6.073
10503TIP3    H131466   6.811   6.715   6.126
10503TIP3    H231467   6.859   6.711   5.983
10504TIP3   OH231468   1.403   2.651   6.076
10504TIP3    H131469   1.438   2.581   6.131
10504TIP3    H231470   1.443   2.637   5.991
10505TIP3   OH231471   0.510   4.975   3.674
10505TIP3    H131472   0.553   4.969   3.589
10505TIP3    H231473   0.580   4.996   3.735
10506TIP3   OH231474   6.270   0.858   1.164
10506TIP3    H131475   6.280   0.926   1.098
10506TIP3    H231476   6.315   0.782   1.127
10507TIP3   OH231477   0.044   3.013   3.111
10507TIP3    H131478   0.138   2.995   3.101
10507TIP3    H231479   0.006   2.927   3.130
10508TIP3   OH231480   0.741   5.327   6.721
10508TIP3    H131481   0.767   5.418   6.713
10508TIP3    H231482   0.657   5.322   6.676
10509TIP3   OH231483   1.069   5.370   5.348
10509TIP3    H131484   1.118   5.439   5.304
10509TIP3    H231485   1.050   5.405   5.435
10510TIP3   OH231486   4.906   4.649   4.581
10510TIP3    H131487   4.818   4.634   4.548
10510TIP3    H231488   4.962   4.643   4.504
10511TIP3   OH231489   5.992   3.495   1.619
10511TIP3    H131490   6.055   3.437   1.663
10511TIP3    H231491   6.037   3.523   1.540
10512TIP3   OH231492   6.880   1.008   1.166
10512TIP3    H131493   6.874   1.091   1.119
10512TIP3    H231494   6.943   1.024   1.237
10513TIP3   OH231495   4.077   1.980   2.250
10513TIP3    H131496   4.023   1.939   2.318
10513TIP3    H231497   4.160   1.998   2.293
10514TIP3   OH231498   1.156   3.114   4.235
10514TIP3    H131499   1.230   3.114   4.174
10514TIP3    H231500   1.159   3.200   4.276
10515TIP3   OH231501   6.103   4.264   0.213
10515TIP3    H131502   6.012   4.253   0.243
10515TIP3    H231503   6.110   4.208   0.136
10516TIP3   OH231504   2.565   1.615   6.731
10516TIP3    H131505   2.578   1.622   6.637
10516TIP3    H231506   2.615   1.688   6.768
10517TIP3   OH231507   7.511  -0.008   6.218
10517TIP3    H131508   7.469   0.062   6.169
10517TIP3    H231509   7.563  -0.055   6.153
10518TIP3   OH231510   7.016   5.312   6.185
10518TIP3    H131511   7.085   5.371   6.217
10518TIP3    H231512   7.032   5.230   6.230
10519TIP3   OH231513   5.614   7.103   3.931
10519TIP3    H131514   5.596   7.189   3.969
10519TIP3    H231515   5.709   7.094   3.933
10520TIP3   OH231516   1.459   1.404   1.044
10520TIP3    H131517   1.492   1.488   1.011
10520TIP3    H231518   1.525   1.375   1.107
10521TIP3   OH231519   4.460   6.052   3.002
10521TIP3    H131520   4.446   6.120   3.069
10521TIP3    H231521   4.407   6.082   2.927
10522TIP3   OH231522   2.587   6.105   6.038
10522TIP3    H131523   2.656   6.119   5.973
10522TIP3    H231524   2.625   6.135   6.120
10523TIP3   OH231525   7.310   2.066   6.485
10523TIP3    H131526   7.336   2.019   6.564
10523TIP3    H231527   7.243   2.009   6.445
10524TIP3   OH231528   6.674   2.674   3.072
10524TIP3    H131529   6.697   2.752   3.021
10524TIP3    H231530   6.741   2.610   3.050
10525TIP3   OH231531   5.436   2.396   6.199
10525TIP3    H131532   5.357   2.450   6.191
10525TIP3    H231533   5.404   2.312   6.232
10526TIP3   OH231534   3.179   3.746   2.084
10526TIP3    H131535   3.128   3.669   2.107
10526TIP3    H231536   3.188   3.795   2.165
10527TIP3   OH231537   0.411   0.014   3.285
10527TIP3    H131538   0.400  -0.006   3.193
10527TIP3    H231539   0.469   0.090   3.286
10528TIP3   OH231540   5.109   7.771   1.808
10528TIP3    H131541   5.063   7.732   1.882
10528TIP3    H231542   5.169   7.703   1.778
10529TIP3   OH231543   5.648   4.698   4.219
10529TIP3    H131544   5.655   4.660   4.306
10529TIP3    H231545   5.569   4.659   4.181
10530TIP3   OH231546   3.656   7.210   0.997
10530TIP3    H131547   3.672   7.207   0.903
10530TIP3    H231548   3.578   7.265   1.007
10531TIP3   OH231549   4.128   0.370   0.070
10531TIP3    H131550   4.169   0.401   0.151
10531TIP3    H231551   4.147   0.276   0.069
10532TIP3   OH231552   1.572   4.023   3.246
10532TIP3    H131553   1.621   4.034   3.164
10532TIP3    H231554   1.590   4.104   3.295
10533TIP3   OH231555   2.838   1.000   1.766
10533TIP3    H131556   2.812   0.958   1.684
10533TIP3    H231557   2.907   0.943   1.801
10534TIP3   OH231558   2.715   1.150   5.501
10534TIP3    H131559   2.788   1.121   5.556
10534TIP3    H231560   2.746   1.231   5.460
10535TIP3   OH231561   2.698   3.147   3.725
10535TIP3    H131562   2.646   3.077   3.685
10535TIP3    H231563   2.634   3.214   3.749
10536TIP3   OH231564   6.973   5.309   2.516
10536TIP3    H131565   6.904   5.247   2.539
10536TIP3    H231566   6.969   5.316   2.421
10537TIP3   OH231567   2.068   1.328   3.920
10537TIP3    H131568   2.082   1.265   3.990
10537TIP3    H231569   2.024   1.278   3.851
10538TIP3   OH231570   3.026   6.508   0.527
10538TIP3    H131571   3.090   6.538   0.592
10538TIP3    H231572   2.977   6.586   0.504
10539TIP3   OH231573   2.418   3.628   5.949
10539TIP3    H131574   2.354   3.696   5.969
10539TIP3    H231575   2.503   3.673   5.952
10540TIP3   OH231576   2.304   3.305   0.195
10540TIP3    H131577   2.251   3.381   0.219
10540TIP3    H231578   2.258   3.230   0.233
10541TIP3   OH231579   0.810   3.654   2.114
10541TIP3    H131580   0.744   3.619   2.055
10541TIP3    H231581   0.772   3.735   2.148
10542TIP3   OH231582   6.951   6.986   5.563
10542TIP3    H131583   7.028   7.035   5.590
10542TIP3    H231584   6.877   7.038   5.596
10543TIP3   OH231585   5.199   5.334   6.268
10543TIP3    H131586   5.272   5.387   6.300
10543TIP3    H231587   5.205   5.340   6.173
10544TIP3   OH231588   4.458   4.866   6.650
10544TIP3    H131589   4.376   4.915   6.656
10544TIP3    H231590   4.486   4.853   6.740
10545TIP3   OH231591   6.963   4.563   5.076
10545TIP3    H131592   6.872   4.582   5.099
10545TIP3    H231593   7.012   4.581   5.156
10546TIP3   OH231594   4.247   2.172   0.256
10546TIP3    H131595   4.317   2.231   0.229
10546TIP3    H231596   4.279   2.085   0.234
10547TIP3   OH231597   5.075   7.278   4.537
10547TIP3    H131598   4.994   7.319   4.569
10547TIP3    H231599   5.071   7.288   4.442
10548TIP3   OH231600   2.030   6.199   2.646
10548TIP3    H131601   1.956   6.257   2.628
10548TIP3    H231602   2.011   6.120   2.596
10549TIP3   OH231603   3.344   7.263   2.422
10549TIP3    H131604   3.423   7.245   2.471
10549TIP3    H231605   3.322   7.180   2.379
10550TIP3   OH231606   7.914   0.512   5.902
10550TIP3    H131607   7.887   0.532   5.812
10550TIP3    H231608   7.840   0.542   5.955
10551TIP3   OH231609   1.402   4.112   2.136
10551TIP3    H131610   1.385   4.035   2.082
10551TIP3    H231611   1.378   4.085   2.224
10552TIP3   OH231612   4.384   5.015   3.612
10552TIP3    H131613   4.403   4.952   3.682
10552TIP3    H231614   4.447   5.085   3.625
10553TIP3   OH231615   6.259   5.057   4.961
10553TIP3    H131616   6.172   5.098   4.962
10553TIP3    H231617   6.311   5.114   4.904
10554TIP3   OH231618   6.434   2.772   6.260
10554TIP3    H131619   6.425   2.804   6.170
10554TIP3    H231620   6.490   2.838   6.302
10555TIP3   OH231621   1.227   1.900   2.931
10555TIP3    H131622   1.247   1.822   2.880
10555TIP3    H231623   1.136   1.921   2.909
10556TIP3   OH231624   8.221   7.156   5.551
10556TIP3    H131625   8.237   7.243   5.589
10556TIP3    H231626   8.283   7.099   5.596
10557TIP3   OH231627   1.057   0.674   1.602
10557TIP3    H131628   1.045   0.581   1.586
10557TIP3    H231629   1.140   0.696   1.560
10558TIP3   OH231630   6.159   2.732   2.427
10558TIP3    H131631   6.109   2.811   2.404
10558TIP3    H231632   6.234   2.765   2.477
10559TIP3   OH231633   4.970   6.273   1.557
10559TIP3    H131634   5.010   6.360   1.551
10559TIP3    H231635   4.919   6.264   1.477
10560TIP3   OH231636   1.150   1.715   5.952
10560TIP3    H131637   1.055   1.719   5.963
10560TIP3    H231638   1.165   1.639   5.897
10561TIP3   OH231639   4.755   7.583   5.800
10561TIP3    H131640   4.774   7.611   5.710
10561TIP3    H231641   4.745   7.488   5.794
10562TIP3   OH231642   2.324   3.774   4.640
10562TIP3    H131643   2.271   3.815   4.709
10562TIP3    H231644   2.305   3.826   4.562
10563TIP3   OH231645   4.608   3.227   5.469
10563TIP3    H131646   4.600   3.262   5.380
10563TIP3    H231647   4.696   3.253   5.496
10564TIP3   OH231648   5.858   1.410   2.378
10564TIP3    H131649   5.770   1.440   2.354
10564TIP3    H231650   5.908   1.413   2.296
10565TIP3   OH231651   2.579   6.142   5.494
10565TIP3    H131652   2.507   6.193   5.457
10565TIP3    H231653   2.658   6.183   5.459
10566TIP3   OH231654   5.661   6.112  -0.001
10566TIP3    H131655   5.617   6.133   0.081
10566TIP3    H231656   5.634   6.182  -0.062
10567TIP3   OH231657   1.273   2.995   3.749
10567TIP3    H131658   1.211   2.967   3.816
10567TIP3    H231659   1.357   2.962   3.778
10568TIP3   OH231660   2.202   7.527   4.885
10568TIP3    H131661   2.184   7.503   4.794
10568TIP3    H231662   2.267   7.463   4.915
10569TIP3   OH231663   1.238   1.721   2.044
10569TIP3    H131664   1.265   1.656   1.979
10569TIP3    H231665   1.187   1.785   1.994
10570TIP3   OH231666   3.088   3.775   1.822
10570TIP3    H131667   3.104   3.692   1.779
10570TIP3    H231668   3.131   3.767   1.908
10571TIP3   OH231669   1.019   6.190   0.657
10571TIP3    H131670   1.061   6.229   0.734
10571TIP3    H231671   1.051   6.243   0.583
10572TIP3   OH231672   2.947  -0.028   3.152
10572TIP3    H131673   3.041  -0.050   3.149
10572TIP3    H231674   2.936   0.016   3.236
10573TIP3   OH231675   5.872   4.632   6.430
10573TIP3    H131676   5.895   4.619   6.338
10573TIP3    H231677   5.852   4.544   6.462
10574TIP3   OH231678   3.008   0.913   0.589
10574TIP3    H131679   3.022   0.831   0.637
10574TIP3    H231680   3.042   0.895   0.501
10575TIP3   OH231681   3.289   7.763   4.419
10575TIP3    H131682   3.286   7.755   4.514
10575TIP3    H231683   3.382   7.765   4.397
10576TIP3   OH231684   4.641   5.389   5.519
10576TIP3    H131685   4.685   5.446   5.457
10576TIP3    H231686   4.696   5.311   5.524
10577TIP3   OH231687   4.131   0.728   0.688
10577TIP3    H131688   4.195   0.749   0.620
10577TIP3    H231689   4.083   0.809   0.703
10578TIP3   OH231690   7.179   3.832   5.045
10578TIP3    H131691   7.210   3.923   5.047
10578TIP3    H231692   7.137   3.824   4.960
10579TIP3   OH231693   7.562   7.017   3.887
10579TIP3    H131694   7.506   7.074   3.835
10579TIP3    H231695   7.548   6.930   3.850
10580TIP3   OH231696   5.740   5.715   4.173
10580TIP3    H131697   5.728   5.806   4.145
10580TIP3    H231698   5.805   5.719   4.243
10581TIP3   OH231699   6.956   2.457   5.369
10581TIP3    H131700   6.886   2.520   5.387
10581TIP3    H231701   7.036   2.502   5.395
10582TIP3   OH231702   7.866   4.870   5.061
10582TIP3    H131703   7.836   4.791   5.017
10582TIP3    H231704   7.954   4.886   5.025
10583TIP3   OH231705   4.182   7.520   1.429
10583TIP3    H131706   4.222   7.594   1.384
10583TIP3    H231707   4.146   7.557   1.510
10584TIP3   OH231708   1.584   4.454   4.186
10584TIP3    H131709   1.493   4.448   4.157
10584TIP3    H231710   1.583   4.521   4.254
10585TIP3   OH231711   5.460   3.887   4.687
10585TIP3    H131712   5.550   3.857   4.670
10585TIP3    H231713   5.460   3.914   4.778
10586TIP3   OH231714   2.164   0.969   4.477
10586TIP3    H131715   2.179   0.922   4.395
10586TIP3    H231716   2.184   0.905   4.545
10587TIP3   OH231717   5.672   2.024   1.566
10587TIP3    H131718   5.763   2.019   1.596
10587TIP3    H231719   5.639   1.935   1.575
10588TIP3   OH231720   1.029   2.296   6.000
10588TIP3    H131721   1.115   2.294   6.042
10588TIP3    H231722   0.992   2.381   6.024
10589TIP3   OH231723   4.726   2.194   4.028
10589TIP3    H131724   4.763   2.281   4.043
10589TIP3    H231725   4.786   2.152   3.966
10590TIP3   OH231726   1.153   7.641   6.612
10590TIP3    H131727   1.169   7.689   6.693
10590TIP3    H231728   1.181   7.701   6.542
10591TIP3   OH231729   1.987   2.004   3.682
10591TIP3    H131730   1.970   1.982   3.590
10591TIP3    H231731   2.074   1.969   3.699
10592TIP3   OH231732   5.375   0.124   5.558
10592TIP3    H131733   5.298   0.096   5.608
10592TIP3    H231734   5.385   0.056   5.491
10593TIP3   OH231735   0.455   4.197   4.887
10593TIP3    H131736   0.446   4.160   4.975
10593TIP3    H231737   0.546   4.182   4.864
10594TIP3   OH231738   6.355   1.076   3.936
10594TIP3    H131739   6.424   1.012   3.955
10594TIP3    H231740   6.290   1.061   4.004
10595TIP3   OH231741   4.264   5.748   3.585
10595TIP3    H131742   4.230   5.725   3.671
10595TIP3    H231743   4.196   5.805   3.547
10596TIP3   OH231744   2.119   0.978   2.607
10596TIP3    H131745   2.142   1.043   2.673
10596TIP3    H231746   2.200   0.930   2.591
10597TIP3   OH231747   7.529   7.095   4.596
10597TIP3    H131748   7.572   7.122   4.677
10597TIP3    H231749   7.584   7.025   4.562
10598TIP3   OH231750   2.500   0.299   1.682
10598TIP3    H131751   2.453   0.380   1.665
10598TIP3    H231752   2.509   0.258   1.596
10599TIP3   OH231753   0.893   1.129   0.374
10599TIP3    H131754   0.853   1.072   0.309
10599TIP3    H231755   0.829   1.198   0.389
10600TIP3   OH231756   1.163   4.635   4.831
10600TIP3    H131757   1.219   4.599   4.762
10600TIP3    H231758   1.185   4.584   4.909
10601TIP3   OH231759   2.532   1.748   2.399
10601TIP3    H131760   2.463   1.759   2.463
10601TIP3    H231761   2.613   1.745   2.451
10602TIP3   OH231762   7.966   3.946   1.146
10602TIP3    H131763   7.946   3.879   1.211
10602TIP3    H231764   8.061   3.944   1.136
10603TIP3   OH231765   7.682   2.240   6.445
10603TIP3    H131766   7.645   2.156   6.470
10603TIP3    H231767   7.775   2.223   6.430
10604TIP3   OH231768   5.856   6.564   0.780
10604TIP3    H131769   5.820   6.652   0.781
10604TIP3    H231770   5.874   6.544   0.872
10605TIP3   OH231771   1.154   4.242   4.748
10605TIP3    H131772   1.127   4.249   4.840
10605TIP3    H231773   1.217   4.314   4.736
10606TIP3   OH231774   1.097   4.231   4.488
10606TIP3    H131775   1.170   4.276   4.445
10606TIP3    H231776   1.117   4.237   4.581
10607TIP3   OH231777   3.305   3.736   4.950
10607TIP3    H131778   3.262   3.794   5.013
10607TIP3    H231779   3.344   3.796   4.886
10608TIP3   OH231780   4.824   0.347   2.339
10608TIP3    H131781   4.910   0.378   2.311
10608TIP3    H231782   4.784   0.312   2.260
10609TIP3   OH231783   5.233   3.506   1.662
10609TIP3    H131784   5.311   3.559   1.643
10609TIP3    H231785   5.210   3.467   1.578
10610TIP3   OH231786   4.574   3.465   3.200
10610TIP3    H131787   4.574   3.509   3.115
10610TIP3    H231788   4.513   3.392   3.190
10611TIP3   OH231789   6.767   6.609   6.371
10611TIP3    H131790   6.700   6.567   6.425
10611TIP3    H231791   6.845   6.554   6.383
10612TIP3   OH231792   4.178   2.475   4.301
10612TIP3    H131793   4.211   2.499   4.388
10612TIP3    H231794   4.083   2.484   4.308
10613TIP3   OH231795   4.741   5.889   1.970
10613TIP3    H131796   4.734   5.803   1.930
10613TIP3    H231797   4.740   5.951   1.897
10614TIP3   OH231798   1.411   3.486   6.055
10614TIP3    H131799   1.444   3.569   6.088
10614TIP3    H231800   1.413   3.495   5.960
10615TIP3   OH231801   4.265   0.245   1.908
10615TIP3    H131802   4.267   0.294   1.826
10615TIP3    H231803   4.224   0.305   1.971
10616TIP3   OH231804   7.577   2.898   3.155
10616TIP3    H131805   7.490   2.871   3.186
10616TIP3    H231806   7.635   2.827   3.181
10617TIP3   OH231807   4.892   4.158   3.884
10617TIP3    H131808   4.936   4.109   3.815
10617TIP3    H231809   4.843   4.093   3.933
10618TIP3   OH231810   3.871   3.508   1.198
10618TIP3    H131811   3.910   3.424   1.223
10618TIP3    H231812   3.794   3.484   1.146
10619TIP3   OH231813   8.087   0.569   6.513
10619TIP3    H131814   8.153   0.500   6.500
10619TIP3    H231815   8.072   0.603   6.425
10620TIP3   OH231816   6.441   6.174   0.936
10620TIP3    H131817   6.454   6.198   0.845
10620TIP3    H231818   6.406   6.085   0.933
10621TIP3   OH231819   8.078   6.412   5.597
10621TIP3    H131820   8.038   6.449   5.676
10621TIP3    H231821   8.062   6.318   5.603
10622TIP3   OH231822   3.068   0.382   1.519
10622TIP3    H131823   3.128   0.456   1.511
10622TIP3    H231824   3.038   0.366   1.429
10623TIP3   OH231825   3.797   1.829   2.318
10623TIP3    H131826   3.854   1.866   2.385
10623TIP3    H231827   3.787   1.737   2.343
10624TIP3   OH231828   3.406   1.996   6.479
10624TIP3    H131829   3.399   2.057   6.552
10624TIP3    H231830   3.318   1.992   6.443
10625TIP3   OH231831   2.243   3.881   5.688
10625TIP3    H131832   2.270   3.950   5.749
10625TIP3    H231833   2.311   3.814   5.695
10626TIP3   OH231834   6.089   1.609   1.686
10626TIP3    H131835   6.018   1.673   1.692
10626TIP3    H231836   6.152   1.636   1.753
10627TIP3   OH231837   2.643   7.002   5.066
10627TIP3    H131838   2.595   7.084   5.080
10627TIP3    H231839   2.707   6.998   5.138
10628TIP3   OH231840   2.310   5.134   1.090
10628TIP3    H131841   2.288   5.156   1.000
10628TIP3    H231842   2.368   5.205   1.118
10629TIP3   OH231843   1.503   5.656   5.530
10629TIP3    H131844   1.492   5.696   5.617
10629TIP3    H231845   1.465   5.720   5.470
10630TIP3   OH231846   0.436   5.970   5.901
10630TIP3    H131847   0.408   6.005   5.986
10630TIP3    H231848   0.459   5.879   5.919
10631TIP3   OH231849   6.730   2.932   3.673
10631TIP3    H131850   6.782   2.852   3.669
10631TIP3    H231851   6.639   2.903   3.667
10632TIP3   OH231852   3.103   3.974   2.269
10632TIP3    H131853   3.040   4.032   2.311
10632TIP3    H231854   3.142   3.924   2.340
10633TIP3   OH231855   0.453   6.814   3.639
10633TIP3    H131856   0.496   6.792   3.721
10633TIP3    H231857   0.501   6.764   3.572
10634TIP3   OH231858   1.517   4.068   2.818
10634TIP3    H131859   1.439   4.066   2.874
10634TIP3    H231860   1.590   4.077   2.880
10635TIP3   OH231861   1.868   6.018   3.765
10635TIP3    H131862   1.963   6.010   3.753
10635TIP3    H231863   1.844   5.941   3.815
10636TIP3   OH231864   7.287   7.268   4.490
10636TIP3    H131865   7.238   7.278   4.571
10636TIP3    H231866   7.354   7.202   4.511
10637TIP3   OH231867   7.331   1.099   3.343
10637TIP3    H131868   7.316   1.044   3.420
10637TIP3    H231869   7.244   1.132   3.320
10638TIP3   OH231870   6.771   2.481   5.992
10638TIP3    H131871   6.737   2.547   5.931
10638TIP3    H231872   6.810   2.532   6.063
10639TIP3   OH231873   2.178   0.192   2.730
10639TIP3    H131874   2.146   0.188   2.640
10639TIP3    H231875   2.120   0.134   2.780
10640TIP3   OH231876   6.452   1.634   1.037
10640TIP3    H131877   6.484   1.591   1.116
10640TIP3    H231878   6.445   1.726   1.060
10641TIP3   OH231879   6.172   0.607   4.540
10641TIP3    H131880   6.154   0.542   4.472
10641TIP3    H231881   6.086   0.633   4.572
10642TIP3   OH231882   3.047   5.419   6.522
10642TIP3    H131883   3.050   5.333   6.564
10642TIP3    H231884   3.006   5.402   6.437
10643TIP3   OH231885   0.217   3.867   0.965
10643TIP3    H131886   0.129   3.874   1.003
10643TIP3    H231887   0.276   3.873   1.040
10644TIP3   OH231888   0.727   7.110   5.473
10644TIP3    H131889   0.704   7.196   5.439
10644TIP3    H231890   0.823   7.106   5.466
10645TIP3   OH231891   7.871   5.693   0.340
10645TIP3    H131892   7.776   5.680   0.340
10645TIP3    H231893   7.898   5.675   0.430
10646TIP3   OH231894   0.584   2.460   2.845
10646TIP3    H131895   0.661   2.411   2.818
10646TIP3    H231896   0.581   2.450   2.940
10647TIP3   OH231897   8.152   0.044   3.774
10647TIP3    H131898   8.069   0.007   3.745
10647TIP3    H231899   8.134   0.074   3.863
10648TIP3   OH231900   8.267   1.600   1.686
10648TIP3    H131901   8.340   1.547   1.719
10648TIP3    H231902   8.196   1.585   1.747
10649TIP3   OH231903   4.288   6.149   6.321
10649TIP3    H131904   4.308   6.205   6.245
10649TIP3    H231905   4.208   6.185   6.357
10650TIP3   OH231906   2.282   6.465   1.002
10650TIP3    H131907   2.325   6.398   1.055
10650TIP3    H231908   2.278   6.542   1.060
10651TIP3   OH231909   5.510   3.997   5.791
10651TIP3    H131910   5.599   3.978   5.761
10651TIP3    H231911   5.521   4.070   5.852
10652TIP3   OH231912   7.250   4.992   5.764
10652TIP3    H131913   7.266   4.899   5.781
10652TIP3    H231914   7.328   5.036   5.796
10653TIP3   OH231915   6.394   3.729   0.938
10653TIP3    H131916   6.447   3.653   0.913
10653TIP3    H231917   6.416   3.745   1.030
10654TIP3   OH231918   4.389   3.981   6.487
10654TIP3    H131919   4.414   3.889   6.483
10654TIP3    H231920   4.444   4.018   6.556
10655TIP3   OH231921   2.224   6.411   4.869
10655TIP3    H131922   2.186   6.361   4.941
10655TIP3    H231923   2.226   6.350   4.795
10656TIP3   OH231924   4.607   4.254   4.450
10656TIP3    H131925   4.547   4.277   4.379
10656TIP3    H231926   4.655   4.335   4.468
10657TIP3   OH231927   6.786   3.831   2.233
10657TIP3    H131928   6.788   3.788   2.148
10657TIP3    H231929   6.849   3.783   2.286
10658TIP3   OH231930   1.685   6.920   4.222
10658TIP3    H131931   1.650   6.831   4.234
10658TIP3    H231932   1.717   6.920   4.131
10659TIP3   OH231933   5.048   0.668   2.905
10659TIP3    H131934   5.061   0.644   2.997
10659TIP3    H231935   5.085   0.594   2.856
10660TIP3   OH231936   3.966   3.750   3.829
10660TIP3    H131937   3.991   3.838   3.858
10660TIP3    H231938   3.871   3.752   3.824
10661TIP3   OH231939   5.926   2.358   1.663
10661TIP3    H131940   6.021   2.365   1.670
10661TIP3    H231941   5.893   2.432   1.713
10662TIP3   OH231942   4.367   5.452   1.989
10662TIP3    H131943   4.424   5.383   2.023
10662TIP3    H231944   4.359   5.514   2.062
10663TIP3   OH231945   5.771   1.993   5.509
10663TIP3    H131946   5.802   1.944   5.585
10663TIP3    H231947   5.767   1.928   5.438
10664TIP3   OH231948   2.102   1.137   1.204
10664TIP3    H131949   2.068   1.214   1.158
10664TIP3    H231950   2.053   1.135   1.286
10665TIP3   OH231951   4.392   3.263   4.205
10665TIP3    H131952   4.360   3.300   4.122
10665TIP3    H231953   4.453   3.328   4.239
10666TIP3   OH231954   4.527   5.478   1.758
10666TIP3    H131955   4.538   5.384   1.741
10666TIP3    H231956   4.539   5.487   1.852
10667TIP3   OH231957   1.810   0.520   5.972
10667TIP3    H131958   1.788   0.613   5.980
10667TIP3    H231959   1.769   0.493   5.890
10668TIP3   OH231960   1.787   2.231   3.670
10668TIP3    H131961   1.770   2.248   3.577
10668TIP3    H231962   1.855   2.164   3.670
10669TIP3   OH231963   5.104   4.002   5.575
10669TIP3    H131964   5.020   4.031   5.610
10669TIP3    H231965   5.115   4.052   5.494
10670TIP3   OH231966   0.789   0.968   0.182
10670TIP3    H131967   0.731   0.910   0.231
10670TIP3    H231968   0.826   0.913   0.113
10671TIP3   OH231969   0.741   1.884   5.158
10671TIP3    H131970   0.685   1.839   5.095
10671TIP3    H231971   0.829   1.848   5.143
10672TIP3   OH231972   1.718   7.327   6.443
10672TIP3    H131973   1.716   7.369   6.529
10672TIP3    H231974   1.802   7.355   6.405
10673TIP3   OH231975   4.275   6.018   5.462
10673TIP3    H131976   4.264   5.927   5.433
10673TIP3    H231977   4.369   6.028   5.475
10674TIP3   OH231978   5.886   6.744   1.287
10674TIP3    H131979   5.931   6.829   1.290
10674TIP3    H231980   5.918   6.704   1.206
10675TIP3   OH231981   2.780   0.777   0.201
10675TIP3    H131982   2.753   0.783   0.109
10675TIP3    H231983   2.866   0.734   0.197
10676TIP3   OH231984   8.067   5.541   0.773
10676TIP3    H131985   8.106   5.467   0.727
10676TIP3    H231986   8.132   5.566   0.839
10677TIP3   OH231987   8.060   7.015   0.985
10677TIP3    H131988   8.129   6.948   0.991
10677TIP3    H231989   8.010   7.005   1.066
10678TIP3   OH231990   6.318   2.178   3.871
10678TIP3    H131991   6.307   2.270   3.894
10678TIP3    H231992   6.348   2.137   3.953
10679TIP3   OH231993   2.298   3.548   6.317
10679TIP3    H131994   2.319   3.584   6.403
10679TIP3    H231995   2.370   3.576   6.260
10680TIP3   OH231996   3.792   1.835   6.424
10680TIP3    H131997   3.734   1.786   6.365
10680TIP3    H231998   3.732   1.885   6.480
10681TIP3   OH231999   2.044   3.232   1.103
10681TIP3    H132000   2.126   3.281   1.092
10681TIP3    H232001   2.067   3.142   1.081
10682TIP3   OH232002   0.779   3.512   0.717
10682TIP3    H132003   0.827   3.443   0.764
10682TIP3    H232004   0.692   3.475   0.703
10683TIP3   OH232005   1.447   0.293   3.173
10683TIP3    H132006   1.360   0.264   3.143
10683TIP3    H232007   1.477   0.351   3.103
10684TIP3   OH232008   1.505   7.000   1.272
10684TIP3    H132009   1.445   6.954   1.213
10684TIP3    H232010   1.496   7.092   1.249
10685TIP3   OH232011   8.019   6.425   3.905
10685TIP3    H132012   7.938   6.433   3.855
10685TIP3    H232013   8.034   6.512   3.942
10686TIP3   OH232014   0.949   0.594   3.607
10686TIP3    H132015   0.916   0.559   3.689
10686TIP3    H232016   0.967   0.686   3.626
10687TIP3   OH232017   4.868   3.920   5.926
10687TIP3    H132018   4.838   3.830   5.914
10687TIP3    H232019   4.817   3.952   6.001
10688TIP3   OH232020   6.969   2.909   6.300
10688TIP3    H132021   7.019   2.860   6.365
10688TIP3    H232022   6.985   3.001   6.322
10689TIP3   OH232023   5.471   1.156   3.583
10689TIP3    H132024   5.419   1.205   3.647
10689TIP3    H232025   5.561   1.163   3.615
10690TIP3   OH232026   4.395   4.864   2.825
10690TIP3    H132027   4.411   4.876   2.919
10690TIP3    H232028   4.471   4.815   2.794
10691TIP3   OH232029   6.157   6.176   5.649
10691TIP3    H132030   6.235   6.231   5.662
10691TIP3    H232031   6.144   6.174   5.555
10692TIP3   OH232032   7.696   1.673   0.765
10692TIP3    H132033   7.631   1.737   0.795
10692TIP3    H232034   7.761   1.670   0.835
10693TIP3   OH232035   0.193   4.970   5.879
10693TIP3    H132036   0.163   5.060   5.876
10693TIP3    H232037   0.139   4.928   5.946
10694TIP3   OH232038   0.643   7.754   6.459
10694TIP3    H132039   0.610   7.669   6.488
10694TIP3    H232040   0.631   7.753   6.364
10695TIP3   OH232041   3.878   7.706   4.439
10695TIP3    H132042   3.866   7.800   4.444
10695TIP3    H232043   3.940   7.693   4.367
10696TIP3   OH232044   2.554   0.862   6.491
10696TIP3    H132045   2.642   0.826   6.497
10696TIP3    H232046   2.531   0.854   6.398
10697TIP3   OH232047   5.436   7.767   6.013
10697TIP3    H132048   5.350   7.735   6.041
10697TIP3    H232049   5.416   7.829   5.942
10698TIP3   OH232050   5.754   6.443   0.358
10698TIP3    H132051   5.740   6.534   0.385
10698TIP3    H232052   5.752   6.446   0.262
10699TIP3   OH232053   7.643   4.812   4.803
10699TIP3    H132054   7.719   4.770   4.843
10699TIP3    H232055   7.620   4.755   4.730
10700TIP3   OH232056   6.694   2.521   0.349
10700TIP3    H132057   6.610   2.480   0.328
10700TIP3    H232058   6.741   2.453   0.398
10701TIP3   OH232059   3.000   4.209   3.333
10701TIP3    H132060   3.027   4.134   3.386
10701TIP3    H232061   3.046   4.197   3.249
10702TIP3   OH232062   0.732   3.026   3.682
10702TIP3    H132063   0.801   2.959   3.678
10702TIP3    H232064   0.772   3.098   3.730
10703TIP3   OH232065   8.166   6.928   1.726
10703TIP3    H132066   8.185   7.021   1.737
10703TIP3    H232067   8.115   6.923   1.645
10704TIP3   OH232068   5.039   5.625   6.354
10704TIP3    H132069   5.064   5.623   6.447
10704TIP3    H232070   5.076   5.545   6.317
10705TIP3   OH232071   0.690   1.570   0.274
10705TIP3    H132072   0.742   1.630   0.220
10705TIP3    H232073   0.600   1.583   0.244
10706TIP3   OH232074   0.602   3.240   0.929
10706TIP3    H132075   0.617   3.159   0.880
10706TIP3    H232076   0.669   3.240   0.997
10707TIP3   OH232077   0.560   4.052   6.151
10707TIP3    H132078   0.623   4.122   6.170
10707TIP3    H232079   0.514   4.082   6.072
10708TIP3   OH232080   4.620   4.944   2.575
10708TIP3    H132081   4.693   4.973   2.631
10708TIP3    H232082   4.612   4.851   2.593
10709TIP3   OH232083   0.892   0.030   6.398
10709TIP3    H132084   0.856  -0.059   6.393
10709TIP3    H232085   0.819   0.084   6.428
10710TIP3   OH232086   3.524   0.161   5.833
10710TIP3    H132087   3.566   0.131   5.913
10710TIP3    H232088   3.562   0.107   5.764
10711TIP3   OH232089   4.381   5.444   4.458
10711TIP3    H132090   4.289   5.421   4.442
10711TIP3    H232091   4.419   5.451   4.371
10712TIP3   OH232092   6.940   0.338   3.040
10712TIP3    H132093   6.958   0.297   2.955
10712TIP3    H232094   6.887   0.415   3.018
10713TIP3   OH232095   6.045   4.884   4.242
10713TIP3    H132096   5.957   4.898   4.275
10713TIP3    H232097   6.033   4.858   4.151
10714TIP3   OH232098   1.566   7.246   6.053
10714TIP3    H132099   1.595   7.332   6.023
10714TIP3    H232100   1.491   7.226   5.996
10715TIP3   OH232101   7.025   3.271   4.953
10715TIP3    H132102   6.994   3.329   5.023
10715TIP3    H232103   6.992   3.185   4.978
10716TIP3   OH232104   4.343   0.810   0.522
10716TIP3    H132105   4.412   0.864   0.561
10716TIP3    H232106   4.387   0.729   0.496
10717TIP3   OH232107   3.104   3.042   6.442
10717TIP3    H132108   3.107   3.065   6.535
10717TIP3    H232109   3.040   2.970   6.437
10718TIP3   OH232110   0.307   5.424   3.316
10718TIP3    H132111   0.389   5.396   3.357
10718TIP3    H232112   0.239   5.383   3.369
10719TIP3   OH232113   0.980   2.250   3.630
10719TIP3    H132114   0.906   2.208   3.676
10719TIP3    H232115   1.045   2.266   3.699
10720TIP3   OH232116   8.201   4.573   2.473
10720TIP3    H132117   8.217   4.484   2.442
10720TIP3    H232118   8.152   4.615   2.403
10721TIP3   OH232119   4.848   4.714   3.110
10721TIP3    H132120   4.896   4.635   3.133
10721TIP3    H232121   4.802   4.738   3.191
10722TIP3   OH232122   0.982   7.110   5.391
10722TIP3    H132123   0.995   7.037   5.331
10722TIP3    H232124   1.070   7.128   5.425
10723TIP3   OH232125   8.310   4.064   2.727
10723TIP3    H132126   8.251   4.052   2.652
10723TIP3    H232127   8.326   4.159   2.729
10724TIP3   OH232128   1.693   0.777   3.669
10724TIP3    H132129   1.666   0.809   3.755
10724TIP3    H232130   1.640   0.828   3.607
10725TIP3   OH232131   4.164   6.245   6.577
10725TIP3    H132132   4.108   6.323   6.570
10725TIP3    H232133   4.210   6.257   6.660
10726TIP3   OH232134   3.123   5.593   4.393
10726TIP3    H132135   3.036   5.628   4.373
10726TIP3    H232136   3.137   5.616   4.485
10727TIP3   OH232137   4.471   7.777   4.508
10727TIP3    H132138   4.383   7.789   4.542
10727TIP3    H232139   4.473   7.685   4.481
10728TIP3   OH232140   1.570   2.384   0.002
10728TIP3    H132141   1.565   2.458   0.062
10728TIP3    H232142   1.662   2.381  -0.025
10729TIP3   OH232143   1.937   2.931   1.355
10729TIP3    H132144   1.874   2.975   1.297
10729TIP3    H232145   2.001   2.998   1.376
10730TIP3   OH232146   2.291   1.179   2.735
10730TIP3    H132147   2.372   1.167   2.785
10730TIP3    H232148   2.278   1.274   2.732
10731TIP3   OH232149   6.545   4.709   6.694
10731TIP3    H132150   6.617   4.767   6.720
10731TIP3    H232151   6.574   4.622   6.721
10732TIP3   OH232152   2.353   0.562   2.252
10732TIP3    H132153   2.303   0.498   2.303
10732TIP3    H232154   2.445   0.545   2.275
10733TIP3   OH232155   2.081   0.183   4.032
10733TIP3    H132156   2.092   0.095   3.996
10733TIP3    H232157   2.145   0.236   3.985
10734TIP3   OH232158   2.843   1.735   2.180
10734TIP3    H132159   2.883   1.770   2.260
10734TIP3    H232160   2.806   1.811   2.136
10735TIP3   OH232161   1.223   6.731   5.775
10735TIP3    H132162   1.177   6.683   5.706
10735TIP3    H232163   1.156   6.786   5.816
10736TIP3   OH232164   2.453   7.455   5.591
10736TIP3    H132165   2.486   7.513   5.659
10736TIP3    H232166   2.369   7.425   5.623
10737TIP3   OH232167   4.778   6.250   3.766
10737TIP3    H132168   4.827   6.325   3.802
10737TIP3    H232169   4.686   6.276   3.774
10738TIP3   OH232170   3.102   0.143   0.279
10738TIP3    H132171   3.070   0.228   0.311
10738TIP3    H232172   3.161   0.113   0.348
10739TIP3   OH232173   1.144   3.882   6.159
10739TIP3    H132174   1.065   3.918   6.120
10739TIP3    H232175   1.160   3.935   6.237
10740TIP3   OH232176   5.555   6.878   6.088
10740TIP3    H132177   5.479   6.936   6.088
10740TIP3    H232178   5.569   6.858   5.995
10741TIP3   OH232179   5.113   0.011   3.183
10741TIP3    H132180   5.202  -0.004   3.214
10741TIP3    H232181   5.112  -0.022   3.093
10742TIP3   OH232182   0.447   4.368   0.711
10742TIP3    H132183   0.400   4.347   0.792
10742TIP3    H232184   0.540   4.359   0.734
10743TIP3   OH232185   0.799   1.881   1.176
10743TIP3    H132186   0.881   1.834   1.161
10743TIP3    H232187   0.767   1.846   1.259
10744TIP3   OH232188   5.036   5.561   0.848
10744TIP3    H132189   5.106   5.501   0.822
10744TIP3    H232190   5.082   5.638   0.883
10745TIP3   OH232191   2.629   0.423   5.012
10745TIP3    H132192   2.560   0.391   5.070
10745TIP3    H232193   2.641   0.353   4.948
10746TIP3   OH232194   0.471   3.253   4.746
10746TIP3    H132195   0.535   3.242   4.676
10746TIP3    H232196   0.411   3.179   4.736
10747TIP3   OH232197   7.189   3.500   2.545
10747TIP3    H132198   7.237   3.417   2.545
10747TIP3    H232199   7.199   3.533   2.455
10748TIP3   OH232200   4.381   7.395   0.890
10748TIP3    H132201   4.398   7.349   0.807
10748TIP3    H232202   4.375   7.325   0.955
10749TIP3   OH232203   6.119   2.973   6.469
10749TIP3    H132204   6.063   2.960   6.545
10749TIP3    H232205   6.089   2.909   6.405
10750TIP3   OH232206   3.002   5.638   2.501
10750TIP3    H132207   2.998   5.723   2.457
10750TIP3    H232208   3.093   5.612   2.496
10751TIP3   OH232209   2.982   3.688   2.777
10751TIP3    H132210   3.024   3.606   2.753
10751TIP3    H232211   3.049   3.736   2.825
10752TIP3   OH232212   0.524   0.403   0.714
10752TIP3    H132213   0.439   0.379   0.750
10752TIP3    H232214   0.549   0.482   0.763
10753TIP3   OH232215   1.135   7.783   2.767
10753TIP3    H132216   1.219   7.775   2.813
10753TIP3    H232217   1.158   7.786   2.674
10754TIP3   OH232218   1.114   6.282   2.223
10754TIP3    H132219   1.200   6.291   2.263
10754TIP3    H232220   1.079   6.201   2.259
10755TIP3   OH232221   5.179   3.910   6.285
10755TIP3    H132222   5.172   3.815   6.277
10755TIP3    H232223   5.128   3.945   6.212
10756TIP3   OH232224   5.349   3.581   4.487
10756TIP3    H132225   5.435   3.621   4.474
10756TIP3    H232226   5.345   3.511   4.421
10757TIP3   OH232227   7.227   7.758   2.017
10757TIP3    H132228   7.204   7.762   1.925
10757TIP3    H232229   7.180   7.831   2.057
10758TIP3   OH232230   6.203   6.306   0.190
10758TIP3    H132231   6.275   6.251   0.160
10758TIP3    H232232   6.131   6.287   0.129
10759TIP3   OH232233   7.410   7.456   1.167
10759TIP3    H132234   7.395   7.514   1.092
10759TIP3    H232235   7.504   7.461   1.183
10760TIP3   OH232236   6.181   4.248   6.627
10760TIP3    H132237   6.178   4.170   6.572
10760TIP3    H232238   6.273   4.277   6.623
10761TIP3   OH232239   1.463   6.123   5.947
10761TIP3    H132240   1.495   6.058   5.884
10761TIP3    H232241   1.517   6.111   6.025
10762TIP3   OH232242   2.395   4.385   3.488
10762TIP3    H132243   2.371   4.324   3.559
10762TIP3    H232244   2.312   4.412   3.451
10763TIP3   OH232245   2.047   3.919   0.087
10763TIP3    H132246   2.108   3.991   0.101
10763TIP3    H232247   2.093   3.842   0.120
10764TIP3   OH232248   0.425   2.537   4.438
10764TIP3    H132249   0.362   2.496   4.379
10764TIP3    H232250   0.448   2.620   4.396
10765TIP3   OH232251   4.959   4.879   2.231
10765TIP3    H132252   4.947   4.955   2.288
10765TIP3    H232253   4.878   4.828   2.241
10766TIP3   OH232254   1.094   3.642   1.396
10766TIP3    H132255   1.064   3.720   1.442
10766TIP3    H232256   1.086   3.663   1.303
10767TIP3   OH232257   5.629   7.511   1.164
10767TIP3    H132258   5.562   7.504   1.232
10767TIP3    H232259   5.645   7.420   1.138
10768TIP3   OH232260   3.484   4.213   1.654
10768TIP3    H132261   3.504   4.242   1.743
10768TIP3    H232262   3.515   4.284   1.598
10769TIP3   OH232263   2.702   1.862   1.897
10769TIP3    H132264   2.765   1.914   1.948
10769TIP3    H232265   2.646   1.927   1.855
10770TIP3   OH232266   0.599   7.059   3.578
10770TIP3    H132267   0.665   7.050   3.647
10770TIP3    H232268   0.519   7.022   3.616
10771TIP3   OH232269   8.170   7.180   6.379
10771TIP3    H132270   8.259   7.155   6.356
10771TIP3    H232271   8.167   7.175   6.475
10772TIP3   OH232272   6.680   5.020   3.187
10772TIP3    H132273   6.765   5.001   3.226
10772TIP3    H232274   6.699   5.075   3.112
10773TIP3   OH232275   7.099   3.156   0.074
10773TIP3    H132276   7.140   3.073   0.100
10773TIP3    H232277   7.135   3.174  -0.013
10774TIP3   OH232278   4.693   3.220   3.320
10774TIP3    H132279   4.634   3.282   3.277
10774TIP3    H232280   4.696   3.145   3.260
10775TIP3   OH232281   0.912   7.641   4.180
10775TIP3    H132282   0.931   7.727   4.142
10775TIP3    H232283   0.908   7.581   4.105
10776TIP3   OH232284   2.753   0.038   1.980
10776TIP3    H132285   2.748   0.114   1.922
10776TIP3    H232286   2.790  -0.031   1.926
10777TIP3   OH232287   7.181   3.389   2.295
10777TIP3    H132288   7.257   3.423   2.246
10777TIP3    H232289   7.220   3.341   2.368
10778TIP3   OH232290   5.177   0.451   6.280
10778TIP3    H132291   5.225   0.532   6.294
10778TIP3    H232292   5.135   0.462   6.194
10779TIP3   OH232293   7.662   1.110   0.516
10779TIP3    H132294   7.723   1.165   0.565
10779TIP3    H232295   7.690   1.020   0.533
10780TIP3   OH232296   1.793   6.506   4.250
10780TIP3    H132297   1.814   6.471   4.337
10780TIP3    H232298   1.841   6.451   4.189
10781TIP3   OH232299   4.777   0.657   1.628
10781TIP3    H132300   4.796   0.597   1.556
10781TIP3    H232301   4.682   0.667   1.626
10782TIP3   OH232302   7.135   5.428   4.668
10782TIP3    H132303   7.224   5.400   4.692
10782TIP3    H232304   7.127   5.402   4.576
10783TIP3   OH232305   0.770   0.022   5.781
10783TIP3    H132306   0.716  -0.031   5.722
10783TIP3    H232307   0.796   0.097   5.729
10784TIP3   OH232308   6.282   7.172   5.841
10784TIP3    H132309   6.225   7.224   5.898
10784TIP3    H232310   6.222   7.125   5.784
10785TIP3   OH232311   3.148   4.978   5.995
10785TIP3    H132312   3.238   4.970   5.963
10785TIP3    H232313   3.156   4.974   6.091
10786TIP3   OH232314   6.326   7.602   0.727
10786TIP3    H132315   6.245   7.644   0.757
10786TIP3    H232316   6.396   7.658   0.762
10787TIP3   OH232317   3.863   0.362   2.384
10787TIP3    H132318   3.820   0.447   2.383
10787TIP3    H232319   3.791   0.299   2.386
10788TIP3   OH232320   4.121   4.277   3.853
10788TIP3    H132321   4.195   4.336   3.844
10788TIP3    H232322   4.046   4.327   3.823
10789TIP3   OH232323   3.724   0.530   6.058
10789TIP3    H132324   3.716   0.557   6.149
10789TIP3    H232325   3.650   0.571   6.014
10790TIP3   OH232326   5.450   5.549   2.527
10790TIP3    H132327   5.367   5.521   2.489
10790TIP3    H232328   5.458   5.641   2.502
10791TIP3   OH232329   1.175   2.239   3.423
10791TIP3    H132330   1.245   2.297   3.450
10791TIP3    H232331   1.117   2.234   3.499
10792TIP3   OH232332   7.917   6.815   5.484
10792TIP3    H132333   7.945   6.898   5.444
10792TIP3    H232334   7.868   6.770   5.415
10793TIP3   OH232335   2.420   0.086   4.859
10793TIP3    H132336   2.466   0.151   4.806
10793TIP3    H232337   2.330   0.087   4.826
10794TIP3   OH232338   6.717   0.831   4.772
10794TIP3    H132339   6.778   0.886   4.823
10794TIP3    H232340   6.759   0.823   4.686
10795TIP3   OH232341   4.371   0.085   2.283
10795TIP3    H132342   4.463   0.060   2.290
10795TIP3    H232343   4.342   0.051   2.199
10796TIP3   OH232344   7.745   5.210   5.010
10796TIP3    H132345   7.810   5.189   4.943
10796TIP3    H232346   7.763   5.148   5.081
10797TIP3   OH232347   2.570   1.436   3.990
10797TIP3    H132348   2.599   1.356   3.947
10797TIP3    H232349   2.583   1.505   3.925
10798TIP3   OH232350   7.757   1.430   2.270
10798TIP3    H132351   7.719   1.477   2.196
10798TIP3    H232352   7.845   1.407   2.241
10799TIP3   OH232353   4.189   3.019   4.799
10799TIP3    H132354   4.138   3.057   4.728
10799TIP3    H232355   4.127   3.008   4.871
10800TIP3   OH232356   5.931   6.493   5.700
10800TIP3    H132357   6.018   6.480   5.662
10800TIP3    H232358   5.913   6.412   5.748
10801TIP3   OH232359   7.508   1.801   6.133
10801TIP3    H132360   7.466   1.780   6.216
10801TIP3    H232361   7.602   1.797   6.152
10802TIP3   OH232362   1.767   6.944   5.547
10802TIP3    H132363   1.774   6.968   5.639
10802TIP3    H232364   1.682   6.902   5.539
10803TIP3   OH232365   2.786   4.972   2.831
10803TIP3    H132366   2.764   5.023   2.752
10803TIP3    H232367   2.882   4.969   2.831
10804TIP3   OH232368   2.645   0.632   3.707
10804TIP3    H132369   2.567   0.684   3.722
10804TIP3    H232370   2.704   0.690   3.658
10805TIP3   OH232371   2.826   3.363   3.152
10805TIP3    H132372   2.883   3.296   3.191
10805TIP3    H232373   2.758   3.313   3.106
10806TIP3   OH232374   7.716   5.025   2.549
10806TIP3    H132375   7.751   5.113   2.561
10806TIP3    H232376   7.793   4.968   2.558
10807TIP3   OH232377   4.938   3.586   2.895
10807TIP3    H132378   4.952   3.520   2.963
10807TIP3    H232379   5.015   3.642   2.899
10808TIP3   OH232380   3.537   2.747   0.537
10808TIP3    H132381   3.493   2.821   0.580
10808TIP3    H232382   3.627   2.776   0.524
10809TIP3   OH232383   1.230   3.043   3.432
10809TIP3    H132384   1.221   3.121   3.378
10809TIP3    H232385   1.167   2.981   3.395
10810TIP3   OH232386   1.788   6.915   0.564
10810TIP3    H132387   1.782   7.005   0.532
10810TIP3    H232388   1.749   6.862   0.494
10811TIP3   OH232389   7.031   2.168   6.542
10811TIP3    H132390   7.021   2.097   6.605
10811TIP3    H232391   7.122   2.161   6.513
10812TIP3   OH232392   7.564   6.790   3.675
10812TIP3    H132393   7.539   6.704   3.708
10812TIP3    H232394   7.504   6.806   3.602
10813TIP3   OH232395   7.298   3.529   0.387
10813TIP3    H132396   7.297   3.445   0.434
10813TIP3    H232397   7.259   3.510   0.302
10814TIP3   OH232398   0.785   5.274   1.315
10814TIP3    H132399   0.731   5.342   1.275
10814TIP3    H232400   0.863   5.270   1.260
10815TIP3   OH232401   5.058   0.376   2.179
10815TIP3    H132402   5.030   0.387   2.088
10815TIP3    H232403   5.152   0.358   2.173
10816TIP3   OH232404   5.174   0.957   3.480
10816TIP3    H132405   5.212   1.001   3.404
10816TIP3    H232406   5.165   1.026   3.546
10817TIP3   OH232407   1.666   5.869   0.757
10817TIP3    H132408   1.706   5.792   0.797
10817TIP3    H232409   1.725   5.893   0.686
10818TIP3   OH232410   6.305   1.012   0.863
10818TIP3    H132411   6.364   1.073   0.818
10818TIP3    H232412   6.263   0.963   0.792
10819TIP3   OH232413   3.603   7.579   5.106
10819TIP3    H132414   3.641   7.598   5.192
10819TIP3    H232415   3.670   7.609   5.043
10820TIP3   OH232416   5.937   1.316   3.601
10820TIP3    H132417   6.007   1.302   3.665
10820TIP3    H232418   5.876   1.243   3.617
10821TIP3   OH232419   2.373   7.768   2.938
10821TIP3    H132420   2.300   7.745   2.880
10821TIP3    H232421   2.445   7.790   2.879
10822TIP3   OH232422   0.557   4.199   1.779
10822TIP3    H132423   0.472   4.234   1.754
10822TIP3    H232424   0.593   4.264   1.839
10823TIP3   OH232425   1.020   1.240   3.333
10823TIP3    H132426   0.994   1.330   3.351
10823TIP3    H232427   0.940   1.189   3.344
10824TIP3   OH232428   3.472   4.149   3.256
10824TIP3    H132429   3.393   4.157   3.310
10824TIP3    H232430   3.544   4.168   3.316
10825TIP3   OH232431   7.541   2.614   0.542
10825TIP3    H132432   7.606   2.676   0.575
10825TIP3    H232433   7.522   2.558   0.617
10826TIP3   OH232434   2.231   5.981   3.156
10826TIP3    H132435   2.191   5.949   3.075
10826TIP3    H232436   2.171   6.049   3.187
10827TIP3   OH232437   4.272   3.131   5.613
10827TIP3    H132438   4.301   3.040   5.614
10827TIP3    H232439   4.341   3.178   5.659
10828TIP3   OH232440   7.078   2.611   6.726
10828TIP3    H132441   7.008   2.585   6.666
10828TIP3    H232442   7.154   2.560   6.697
10829TIP3   OH232443   0.498   0.079   2.025
10829TIP3    H132444   0.533   0.075   2.114
10829TIP3    H232445   0.403   0.078   2.037
10830TIP3   OH232446   4.431   0.510   4.641
10830TIP3    H132447   4.394   0.465   4.565
10830TIP3    H232448   4.498   0.567   4.605
10831TIP3   OH232449   3.428   7.835   2.650
10831TIP3    H132450   3.336   7.807   2.643
10831TIP3    H232451   3.478   7.754   2.639
10832TIP3   OH232452   6.070   2.311   2.290
10832TIP3    H132453   6.092   2.278   2.203
10832TIP3    H232454   5.982   2.346   2.281
10833TIP3   OH232455   2.697   0.146   2.469
10833TIP3    H132456   2.658   0.111   2.550
10833TIP3    H232457   2.747   0.073   2.433
10834TIP3   OH232458   7.258   7.829   3.752
10834TIP3    H132459   7.313   7.751   3.765
10834TIP3    H232460   7.275   7.855   3.662
10835TIP3   OH232461   5.999   5.932   5.661
10835TIP3    H132462   6.059   5.997   5.695
10835TIP3    H232463   6.035   5.908   5.575
10836TIP3   OH232464   2.005   4.858   0.843
10836TIP3    H132465   2.056   4.939   0.831
10836TIP3    H232466   1.943   4.879   0.913
10837TIP3   OH232467   5.045   3.374   3.032
10837TIP3    H132468   5.038   3.380   3.127
10837TIP3    H232469   4.968   3.323   3.005
10838TIP3   OH232470   8.213   2.102   3.315
10838TIP3    H132471   8.149   2.044   3.274
10838TIP3    H232472   8.210   2.079   3.407
10839TIP3   OH232473   3.410   3.912   6.065
10839TIP3    H132474   3.484   3.856   6.042
10839TIP3    H232475   3.449   3.992   6.097
10840TIP3   OH232476   2.656   5.777   1.418
10840TIP3    H132477   2.668   5.698   1.364
10840TIP3    H232478   2.577   5.818   1.385
10841TIP3   OH232479   3.240   2.677   6.059
10841TIP3    H132480   3.179   2.607   6.037
10841TIP3    H232481   3.217   2.749   6.001
10842TIP3   OH232482   4.549   2.919   5.092
10842TIP3    H132483   4.547   2.850   5.026
10842TIP3    H232484   4.464   2.914   5.134
10843TIP3   OH232485   7.207   1.614   4.030
10843TIP3    H132486   7.297   1.613   4.063
10843TIP3    H232487   7.179   1.705   4.040
10844TIP3   OH232488   2.047   4.746   3.928
10844TIP3    H132489   2.054   4.831   3.972
10844TIP3    H232490   2.065   4.683   3.998
10845TIP3   OH232491   5.419   3.231   3.182
10845TIP3    H132492   5.325   3.226   3.201
10845TIP3    H232493   5.427   3.196   3.093
10846TIP3   OH232494   6.653   3.268   2.013
10846TIP3    H132495   6.637   3.175   1.994
10846TIP3    H232496   6.671   3.307   1.928
10847TIP3   OH232497   7.265   5.991   2.112
10847TIP3    H132498   7.349   5.945   2.113
10847TIP3    H232499   7.218   5.952   2.038
10848TIP3   OH232500   3.856   7.425   1.921
10848TIP3    H132501   3.824   7.367   1.852
10848TIP3    H232502   3.893   7.500   1.875
10849TIP3   OH232503   0.099   4.745   4.280
10849TIP3    H132504   0.025   4.691   4.309
10849TIP3    H232505   0.062   4.802   4.213
10850TIP3   OH232506   2.288   5.859   4.162
10850TIP3    H132507   2.284   5.816   4.077
10850TIP3    H232508   2.199   5.851   4.197
10851TIP3   OH232509   0.701   3.873   2.262
10851TIP3    H132510   0.782   3.917   2.286
10851TIP3    H232511   0.665   3.842   2.345
10852TIP3   OH232512   2.295   0.767   1.780
10852TIP3    H132513   2.339   0.799   1.702
10852TIP3    H232514   2.203   0.760   1.754
10853TIP3   OH232515   8.096   5.899   6.075
10853TIP3    H132516   8.160   5.841   6.034
10853TIP3    H232517   8.069   5.853   6.154
10854TIP3   OH232518   1.328   1.052   4.985
10854TIP3    H132519   1.277   0.971   4.988
10854TIP3    H232520   1.311   1.094   5.069
10855TIP3   OH232521   6.248   5.307   2.781
10855TIP3    H132522   6.215   5.390   2.816
10855TIP3    H232523   6.214   5.304   2.692
10856TIP3   OH232524   5.224   4.551   5.812
10856TIP3    H132525   5.244   4.629   5.761
10856TIP3    H232526   5.188   4.584   5.894
10857TIP3   OH232527   7.589   5.944   4.399
10857TIP3    H132528   7.525   6.006   4.363
10857TIP3    H232529   7.640   5.995   4.461
10858TIP3   OH232530   1.544   4.699   6.646
10858TIP3    H132531   1.527   4.614   6.607
10858TIP3    H232532   1.553   4.759   6.572
10859TIP3   OH232533   2.145   3.599   4.895
10859TIP3    H132534   2.097   3.560   4.823
10859TIP3    H232535   2.178   3.683   4.860
10860TIP3   OH232536   5.431   7.130   0.161
10860TIP3    H132537   5.378   7.056   0.134
10860TIP3    H232538   5.387   7.206   0.125
10861TIP3   OH232539   1.918   5.039   1.172
10861TIP3    H132540   1.890   5.031   1.263
10861TIP3    H232541   1.840   5.019   1.121
10862TIP3   OH232542   8.214   1.473   0.542
10862TIP3    H132543   8.303   1.452   0.513
10862TIP3    H232544   8.158   1.429   0.478
10863TIP3   OH232545   4.941   3.058   2.717
10863TIP3    H132546   5.027   3.020   2.700
10863TIP3    H232547   4.900   2.998   2.780
10864TIP3   OH232548   4.492   1.170   6.682
10864TIP3    H132549   4.466   1.257   6.712
10864TIP3    H232550   4.413   1.117   6.691
10865TIP3   OH232551   2.379   6.613   6.093
10865TIP3    H132552   2.408   6.634   6.004
10865TIP3    H232553   2.291   6.578   6.081
10866TIP3   OH232554   0.615   0.913   4.038
10866TIP3    H132555   0.630   0.917   3.944
10866TIP3    H232556   0.570   0.829   4.051
10867TIP3   OH232557   3.888   1.465  -0.045
10867TIP3    H132558   3.904   1.514  -0.127
10867TIP3    H232559   3.861   1.532   0.018
10868TIP3   OH232560   5.013   5.439   2.602
10868TIP3    H132561   4.920   5.418   2.604
10868TIP3    H232562   5.027   5.495   2.678
10869TIP3   OH232563   6.351   7.406   1.958
10869TIP3    H132564   6.294   7.396   1.882
10869TIP3    H232565   6.435   7.435   1.921
10870TIP3   OH232566   1.760   4.735   1.107
10870TIP3    H132567   1.769   4.687   1.025
10870TIP3    H232568   1.757   4.667   1.174
10871TIP3   OH232569   3.045   1.861   3.410
10871TIP3    H132570   3.140   1.863   3.405
10871TIP3    H232571   3.018   1.946   3.374
10872TIP3   OH232572   7.421   0.608   2.518
10872TIP3    H132573   7.396   0.668   2.587
10872TIP3    H232574   7.501   0.565   2.549
10873TIP3   OH232575   3.680   5.629   0.165
10873TIP3    H132576   3.708   5.715   0.133
10873TIP3    H232577   3.591   5.643   0.197
10874TIP3   OH232578   1.215   2.833   1.455
10874TIP3    H132579   1.211   2.912   1.400
10874TIP3    H232580   1.300   2.794   1.435
10875TIP3   OH232581   2.843   2.144   3.346
10875TIP3    H132582   2.807   2.227   3.315
10875TIP3    H232583   2.885   2.165   3.429
10876TIP3   OH232584   3.713   4.812   1.698
10876TIP3    H132585   3.808   4.814   1.689
10876TIP3    H232586   3.681   4.876   1.635
10877TIP3   OH232587   3.615   2.839   4.435
10877TIP3    H132588   3.679   2.791   4.488
10877TIP3    H232589   3.617   2.795   4.350
10878TIP3   OH232590   5.389   5.265   4.635
10878TIP3    H132591   5.474   5.289   4.599
10878TIP3    H232592   5.328   5.330   4.599
10879TIP3   OH232593   6.900   5.020   1.868
10879TIP3    H132594   6.822   4.989   1.914
10879TIP3    H232595   6.873   5.104   1.831
10880TIP3   OH232596   7.979   6.098   2.737
10880TIP3    H132597   8.042   6.143   2.680
10880TIP3    H232598   7.896   6.142   2.719
10881TIP3   OH232599   6.837   0.956   6.224
10881TIP3    H132600   6.860   1.045   6.252
10881TIP3    H232601   6.912   0.903   6.252
10882TIP3   OH232602   7.817   6.339   0.749
10882TIP3    H132603   7.881   6.308   0.685
10882TIP3    H232604   7.754   6.391   0.698
10883TIP3   OH232605   5.601   3.060   2.473
10883TIP3    H132606   5.586   3.141   2.521
10883TIP3    H232607   5.520   3.010   2.484
10884TIP3   OH232608   6.143   2.024   0.031
10884TIP3    H132609   6.049   2.041   0.028
10884TIP3    H232610   6.156   1.977   0.113
10885TIP3   OH232611   1.229   2.514   1.703
10885TIP3    H132612   1.308   2.542   1.656
10885TIP3    H232613   1.161   2.511   1.635
10886TIP3   OH232614   5.410   2.869   4.704
10886TIP3    H132615   5.384   2.914   4.624
10886TIP3    H232616   5.350   2.901   4.771
10887TIP3   OH232617   8.162   3.632   1.537
10887TIP3    H132618   8.130   3.593   1.618
10887TIP3    H232619   8.209   3.710   1.564
10888TIP3   OH232620   6.632   4.799   4.048
10888TIP3    H132621   6.547   4.843   4.049
10888TIP3    H232622   6.611   4.706   4.041
10889TIP3   OH232623   0.093   1.271   0.470
10889TIP3    H132624   0.122   1.262   0.379
10889TIP3    H232625   0.130   1.195   0.515
10890TIP3   OH232626   4.583   1.884   1.109
10890TIP3    H132627   4.598   1.820   1.040
10890TIP3    H232628   4.613   1.967   1.072
10891TIP3   OH232629   4.623   0.896   3.584
10891TIP3    H132630   4.605   0.934   3.671
10891TIP3    H232631   4.695   0.949   3.550
10892TIP3   OH232632   2.098   1.354   3.489
10892TIP3    H132633   2.106   1.439   3.531
10892TIP3    H232634   2.018   1.360   3.437
10893TIP3   OH232635   7.882   3.355   3.775
10893TIP3    H132636   7.907   3.285   3.715
10893TIP3    H232637   7.805   3.395   3.735
10894TIP3   OH232638   5.285   3.097   5.627
10894TIP3    H132639   5.338   3.041   5.683
10894TIP3    H232640   5.233   3.036   5.574
10895TIP3   OH232641   6.703   2.933   1.482
10895TIP3    H132642   6.786   2.939   1.530
10895TIP3    H232643   6.655   2.863   1.526
10896TIP3   OH232644   0.652   5.737   2.727
10896TIP3    H132645   0.565   5.725   2.690
10896TIP3    H232646   0.705   5.769   2.654
10897TIP3   OH232647   5.524   2.937   5.380
10897TIP3    H132648   5.535   2.858   5.434
10897TIP3    H232649   5.429   2.944   5.368
10898TIP3   OH232650   4.572   0.639   5.568
10898TIP3    H132651   4.524   0.573   5.617
10898TIP3    H232652   4.513   0.714   5.563
10899TIP3   OH232653   1.343   4.786   1.314
10899TIP3    H132654   1.385   4.867   1.286
10899TIP3    H232655   1.382   4.766   1.399
10900TIP3   OH232656   3.055   7.680   4.502
10900TIP3    H132657   3.135   7.706   4.455
10900TIP3    H232658   3.061   7.585   4.508
10901TIP3   OH232659   7.492   0.539   4.259
10901TIP3    H132660   7.411   0.563   4.212
10901TIP3    H232661   7.516   0.454   4.222
10902TIP3   OH232662   3.044   4.739   6.186
10902TIP3    H132663   3.091   4.756   6.268
10902TIP3    H232664   3.105   4.686   6.134
10903TIP3   OH232665   8.330   1.339   4.965
10903TIP3    H132666   8.260   1.396   4.998
10903TIP3    H232667   8.365   1.297   5.044
10904TIP3   OH232668   3.685   0.794   2.558
10904TIP3    H132669   3.603   0.837   2.583
10904TIP3    H232670   3.671   0.702   2.581
10905TIP3   OH232671   0.671   2.209   3.247
10905TIP3    H132672   0.633   2.288   3.206
10905TIP3    H232673   0.668   2.143   3.178
10906TIP3   OH232674   6.265   4.666   4.671
10906TIP3    H132675   6.274   4.693   4.762
10906TIP3    H232676   6.242   4.746   4.624
10907TIP3   OH232677   4.797   2.310   5.966
10907TIP3    H132678   4.712   2.302   6.010
10907TIP3    H232679   4.861   2.289   6.034
10908TIP3   OH232680   1.173   0.511   4.274
10908TIP3    H132681   1.079   0.496   4.288
10908TIP3    H232682   1.209   0.425   4.254
10909TIP3   OH232683   2.605   1.306   1.326
10909TIP3    H132684   2.646   1.255   1.396
10909TIP3    H232685   2.539   1.248   1.289
10910TIP3   OH232686   1.606   4.233   6.569
10910TIP3    H132687   1.688   4.212   6.615
10910TIP3    H232688   1.558   4.288   6.630
10911TIP3   OH232689   2.112   1.606  -0.075
10911TIP3    H132690   2.063   1.655  -0.010
10911TIP3    H232691   2.204   1.619  -0.052
10912TIP3   OH232692   7.248   0.527   1.471
10912TIP3    H132693   7.189   0.452   1.474
10912TIP3    H232694   7.288   0.529   1.558
10913TIP3   OH232695   0.450   3.764   5.942
10913TIP3    H132696   0.516   3.721   5.888
10913TIP3    H232697   0.376   3.702   5.942
10914TIP3   OH232698   0.870   3.565   5.481
10914TIP3    H132699   0.941   3.584   5.543
10914TIP3    H232700   0.878   3.635   5.416
10915TIP3   OH232701   5.605   5.576   5.808
10915TIP3    H132702   5.672   5.635   5.842
10915TIP3    H232703   5.653   5.513   5.755
10916TIP3   OH232704   4.496   4.250   0.896
10916TIP3    H132705   4.511   4.209   0.811
10916TIP3    H232706   4.570   4.223   0.950
10917TIP3   OH232707   7.880   1.733   0.055
10917TIP3    H132708   7.812   1.695   0.111
10917TIP3    H232709   7.953   1.750   0.113
10918TIP3   OH232710   0.168   0.523   4.628
10918TIP3    H132711   0.259   0.541   4.603
10918TIP3    H232712   0.168   0.526   4.724
10919TIP3   OH232713   1.023   2.869   3.341
10919TIP3    H132714   0.934   2.840   3.319
10919TIP3    H232715   1.077   2.790   3.330
10920TIP3   OH232716   2.081   1.456   3.064
10920TIP3    H132717   2.160   1.503   3.036
10920TIP3    H232718   2.114   1.375   3.103
10921TIP3   OH232719   2.913   6.052   0.749
10921TIP3    H132720   2.937   6.057   0.842
10921TIP3    H232721   2.996   6.047   0.703
10922TIP3   OH232722   6.343   7.656   2.172
10922TIP3    H132723   6.374   7.567   2.155
10922TIP3    H232724   6.416   7.698   2.216
10923TIP3   OH232725   7.951   2.376   5.588
10923TIP3    H132726   7.912   2.423   5.514
10923TIP3    H232727   8.024   2.328   5.551
10924TIP3   OH232728   5.359   5.175   2.274
10924TIP3    H132729   5.317   5.246   2.323
10924TIP3    H232730   5.451   5.181   2.299
10925TIP3   OH232731   4.739   1.071   0.057
10925TIP3    H132732   4.644   1.075   0.065
10925TIP3    H232733   4.772   1.132   0.123
10926TIP3   OH232734   5.042   3.146   1.439
10926TIP3    H132735   5.077   3.110   1.521
10926TIP3    H232736   4.955   3.177   1.462
10927TIP3   OH232737   4.539   1.771   6.667
10927TIP3    H132738   4.454   1.794   6.704
10927TIP3    H232739   4.583   1.855   6.654
10928TIP3   OH232740   1.386   1.544   5.509
10928TIP3    H132741   1.396   1.467   5.454
10928TIP3    H232742   1.412   1.515   5.596
10929TIP3   OH232743   7.785   0.256   1.548
10929TIP3    H132744   7.811   0.346   1.528
10929TIP3    H232745   7.741   0.226   1.469
10930TIP3   OH232746   1.063   7.425   3.462
10930TIP3    H132747   1.033   7.341   3.426
10930TIP3    H232748   1.088   7.477   3.385
10931TIP3   OH232749   1.948   0.928   3.519
10931TIP3    H132750   1.925   0.968   3.435
10931TIP3    H232751   1.871   0.875   3.542
10932TIP3   OH232752   5.349   6.591   3.731
10932TIP3    H132753   5.367   6.674   3.687
10932TIP3    H232754   5.295   6.543   3.668
10933TIP3   OH232755   2.195   3.812   3.805
10933TIP3    H132756   2.189   3.752   3.731
10933TIP3    H232757   2.109   3.854   3.810
10934TIP3   OH232758   5.895   2.399   3.407
10934TIP3    H132759   5.838   2.452   3.352
10934TIP3    H232760   5.971   2.454   3.424
10935TIP3   OH232761   3.310   0.320   2.765
10935TIP3    H132762   3.231   0.335   2.713
10935TIP3    H232763   3.382   0.330   2.703
10936TIP3   OH232764   7.315   4.324   2.579
10936TIP3    H132765   7.390   4.384   2.576
10936TIP3    H232766   7.352   4.239   2.552
10937TIP3   OH232767   6.821   0.301   5.209
10937TIP3    H132768   6.873   0.367   5.255
10937TIP3    H232769   6.750   0.352   5.169
10938TIP3   OH232770   0.493   0.666   0.933
10938TIP3    H132771   0.405   0.703   0.930
10938TIP3    H232772   0.547   0.736   0.969
10939TIP3   OH232773   7.960   2.113   2.111
10939TIP3    H132774   8.001   2.110   2.025
10939TIP3    H232775   7.884   2.171   2.100
10940TIP3   OH232776   2.048   7.265   1.011
10940TIP3    H132777   2.106   7.239   0.940
10940TIP3    H232778   2.017   7.182   1.048
10941TIP3   OH232779   7.891   4.529   1.858
10941TIP3    H132780   7.828   4.583   1.906
10941TIP3    H232781   7.900   4.449   1.910
10942TIP3   OH232782   7.276   6.418   4.330
10942TIP3    H132783   7.225   6.494   4.302
10942TIP3    H232784   7.211   6.361   4.373
10943TIP3   OH232785   0.055   2.371   1.931
10943TIP3    H132786   0.102   2.449   1.958
10943TIP3    H232787  -0.032   2.402   1.907
10944TIP3   OH232788   1.512   7.482   5.845
10944TIP3    H132789   1.466   7.516   5.921
10944TIP3    H232790   1.442   7.459   5.783
10945TIP3   OH232791   5.976   5.171   2.192
10945TIP3    H132792   5.957   5.096   2.135
10945TIP3    H232793   6.068   5.160   2.216
10946TIP3   OH232794   5.280   2.190   4.176
10946TIP3    H132795   5.224   2.267   4.187
10946TIP3    H232796   5.335   2.190   4.255
10947TIP3   OH232797   0.650   6.619   1.892
10947TIP3    H132798   0.585   6.687   1.876
10947TIP3    H232799   0.609   6.539   1.859
10948TIP3   OH232800   7.696   6.031   2.105
10948TIP3    H132801   7.792   6.029   2.100
10948TIP3    H232802   7.676   5.995   2.191
10949TIP3   OH232803   1.186   2.759   6.168
10949TIP3    H132804   1.144   2.763   6.082
10949TIP3    H232805   1.274   2.724   6.150
10950TIP3   OH232806   5.022   0.544   6.050
10950TIP3    H132807   5.048   0.610   5.986
10950TIP3    H232808   4.929   0.531   6.035
10951TIP3   OH232809   8.065   0.285   6.040
10951TIP3    H132810   8.077   0.220   5.970
10951TIP3    H232811   8.038   0.365   5.994
10952TIP3   OH232812   7.941   7.290   0.119
10952TIP3    H132813   8.032   7.268   0.104
10952TIP3    H232814   7.906   7.219   0.172
10953TIP3   OH232815   6.361   1.877   1.462
10953TIP3    H132816   6.293   1.833   1.412
10953TIP3    H232817   6.375   1.960   1.417
10954TIP3   OH232818   7.048   7.253   2.724
10954TIP3    H132819   7.142   7.235   2.730
10954TIP3    H232820   7.042   7.338   2.681
10955TIP3   OH232821   3.061   3.970   3.470
10955TIP3    H132822   3.051   3.927   3.555
10955TIP3    H232823   3.065   3.898   3.407
10956TIP3   OH232824   1.917   3.399   5.366
10956TIP3    H132825   1.891   3.485   5.399
10956TIP3    H232826   1.890   3.401   5.274
10957TIP3   OH232827   5.940   1.941   0.689
10957TIP3    H132828   6.011   2.003   0.670
10957TIP3    H232829   5.985   1.860   0.713
10958TIP3   OH232830   3.905   6.535   1.355
10958TIP3    H132831   3.964   6.532   1.430
10958TIP3    H232832   3.939   6.607   1.302
10959TIP3   OH232833   4.737   4.592   1.553
10959TIP3    H132834   4.703   4.586   1.643
10959TIP3    H232835   4.665   4.560   1.499
10960TIP3   OH232836   6.537  -0.011   4.188
10960TIP3    H132837   6.482  -0.088   4.194
10960TIP3    H232838   6.523   0.023   4.099
10961TIP3   OH232839   6.724   0.346   3.357
10961TIP3    H132840   6.762   0.259   3.344
10961TIP3    H232841   6.644   0.331   3.408
10962TIP3   OH232842   0.855   1.097   3.632
10962TIP3    H132843   0.925   1.154   3.663
10962TIP3    H232844   0.874   1.085   3.539
10963TIP3   OH232845   3.325   1.503   1.248
10963TIP3    H132846   3.353   1.593   1.266
10963TIP3    H232847   3.405   1.458   1.219
10964TIP3   OH232848   3.530   6.311   4.787
10964TIP3    H132849   3.476   6.261   4.848
10964TIP3    H232850   3.571   6.245   4.731
10965TIP3   OH232851   5.690   5.603   4.948
10965TIP3    H132852   5.689   5.691   4.911
10965TIP3    H232853   5.633   5.552   4.890
10966TIP3   OH232854   0.929   5.147   3.052
10966TIP3    H132855   0.975   5.067   3.078
10966TIP3    H232856   0.837   5.124   3.056
10967TIP3   OH232857   7.560   3.903   2.202
10967TIP3    H132858   7.575   3.855   2.120
10967TIP3    H232859   7.533   3.836   2.265
10968TIP3   OH232860   4.956   6.542   0.291
10968TIP3    H132861   5.025   6.592   0.335
10968TIP3    H232862   4.987   6.532   0.201
10969TIP3   OH232863   3.759   0.265   6.584
10969TIP3    H132864   3.668   0.251   6.609
10969TIP3    H232865   3.806   0.276   6.667
10970TIP3   OH232866   5.176   7.394   6.572
10970TIP3    H132867   5.108   7.458   6.551
10970TIP3    H232868   5.223   7.380   6.490
10971TIP3   OH232869   3.411   7.810   2.040
10971TIP3    H132870   3.400   7.744   2.109
10971TIP3    H232871   3.355   7.883   2.067
10972TIP3   OH232872   5.278   1.326   4.797
10972TIP3    H132873   5.352   1.369   4.754
10972TIP3    H232874   5.201   1.369   4.760
10973TIP3   OH232875   4.968   3.067   4.271
10973TIP3    H132876   4.898   3.131   4.276
10973TIP3    H232877   5.018   3.078   4.352
10974TIP3   OH232878   8.108   3.489   0.285
10974TIP3    H132879   8.037   3.521   0.229
10974TIP3    H232880   8.098   3.538   0.366
10975TIP3   OH232881   6.371   6.279   6.169
10975TIP3    H132882   6.440   6.345   6.179
10975TIP3    H232883   6.297   6.327   6.134
10976TIP3   OH232884   3.180   5.563   1.939
10976TIP3    H132885   3.228   5.640   1.909
10976TIP3    H232886   3.100   5.598   1.978
10977TIP3   OH232887   0.475   4.721   2.666
10977TIP3    H132888   0.384   4.725   2.635
10977TIP3    H232889   0.486   4.799   2.720
10978TIP3   OH232890   3.063   1.531   6.176
10978TIP3    H132891   2.989   1.479   6.208
10978TIP3    H232892   3.140   1.490   6.215
10979TIP3   OH232893   5.027   7.757   2.894
10979TIP3    H132894   5.092   7.696   2.858
10979TIP3    H232895   4.943   7.714   2.880
10980TIP3   OH232896   4.679   1.482   3.146
10980TIP3    H132897   4.725   1.403   3.174
10980TIP3    H232898   4.745   1.551   3.147
10981TIP3   OH232899   2.731   0.404   0.760
10981TIP3    H132900   2.718   0.338   0.691
10981TIP3    H232901   2.728   0.487   0.714
10982TIP3   OH232902   3.284   2.172   6.643
10982TIP3    H132903   3.258   2.228   6.715
10982TIP3    H232904   3.208   2.117   6.625
10983TIP3   OH232905   7.454   0.534   5.930
10983TIP3    H132906   7.450   0.446   5.966
10983TIP3    H232907   7.470   0.521   5.837
10984TIP3   OH232908   3.116   3.869   6.009
10984TIP3    H132909   3.154   3.821   5.935
10984TIP3    H232910   3.188   3.921   6.044
10985TIP3   OH232911   4.195   3.953   5.588
10985TIP3    H132912   4.186   3.960   5.493
10985TIP3    H232913   4.143   3.876   5.611
10986TIP3   OH232914   3.483   5.418   6.375
10986TIP3    H132915   3.439   5.342   6.414
10986TIP3    H232916   3.505   5.474   6.450
10987TIP3   OH232917   2.677   2.660   0.478
10987TIP3    H132918   2.750   2.601   0.493
10987TIP3    H232919   2.606   2.604   0.446
10988TIP3   OH232920   0.683   2.773   6.404
10988TIP3    H132921   0.603   2.723   6.387
10988TIP3    H232922   0.742   2.710   6.446
10989TIP3   OH232923   6.397   6.109   4.640
10989TIP3    H132924   6.395   6.193   4.595
10989TIP3    H232925   6.421   6.130   4.730
10990TIP3   OH232926   1.821   4.568   0.843
10990TIP3    H132927   1.913   4.578   0.816
10990TIP3    H232928   1.800   4.477   0.822
10991TIP3   OH232929   5.611   4.363   5.301
10991TIP3    H132930   5.626   4.278   5.343
10991TIP3    H232931   5.523   4.388   5.330
10992TIP3   OH232932   5.142   2.697   3.113
10992TIP3    H132933   5.058   2.726   3.148
10992TIP3    H232934   5.123   2.615   3.068
10993TIP3   OH232935   3.005   7.293   0.024
10993TIP3    H132936   3.046   7.293   0.110
10993TIP3    H232937   3.043   7.217  -0.021
10994TIP3   OH232938   5.884   3.549   5.311
10994TIP3    H132939   5.962   3.492   5.306
10994TIP3    H232940   5.911   3.629   5.266
10995TIP3   OH232941   8.217   1.030   3.855
10995TIP3    H132942   8.292   0.979   3.887
10995TIP3    H232943   8.257   1.102   3.807
10996TIP3   OH232944   7.269   1.463   4.543
10996TIP3    H132945   7.182   1.432   4.567
10996TIP3    H232946   7.271   1.554   4.572
10997TIP3   OH232947   4.662   4.489   5.165
10997TIP3    H132948   4.677   4.417   5.226
10997TIP3    H232949   4.739   4.487   5.107
10998TIP3   OH232950   8.007   4.904   3.482
10998TIP3    H132951   8.035   4.830   3.535
10998TIP3    H232952   8.050   4.980   3.522
10999TIP3   OH232953   4.572   7.756   6.792
10999TIP3    H132954   4.663   7.786   6.789
10999TIP3    H232955   4.574   7.672   6.746
11000TIP3   OH232956   4.218   1.201   0.487
11000TIP3    H132957   4.192   1.227   0.576
11000TIP3    H232958   4.267   1.276   0.453
11001TIP3   OH232959   1.245   3.856   4.656
11001TIP3    H132960   1.223   3.921   4.589
11001TIP3    H232961   1.332   3.881   4.686
11002TIP3   OH232962   3.493   7.660   1.815
11002TIP3    H132963   3.447   7.576   1.820
11002TIP3    H232964   3.448   7.716   1.878
11003TIP3   OH232965   1.194   5.631   4.959
11003TIP3    H132966   1.234   5.717   4.961
11003TIP3    H232967   1.124   5.638   4.893
11004TIP3   OH232968   5.663   4.409   1.297
11004TIP3    H132969   5.737   4.449   1.343
11004TIP3    H232970   5.627   4.347   1.360
11005TIP3   OH232971   0.542   7.431   5.291
11005TIP3    H132972   0.621   7.397   5.334
11005TIP3    H232973   0.555   7.412   5.198
11006TIP3   OH232974   1.069   1.734   4.554
11006TIP3    H132975   1.022   1.693   4.626
11006TIP3    H232976   1.042   1.826   4.557
11007TIP3   OH232977   3.233   0.438   4.641
11007TIP3    H132978   3.162   0.401   4.588
11007TIP3    H232979   3.221   0.532   4.635
11008TIP3   OH232980   7.246   7.124   5.888
11008TIP3    H132981   7.279   7.183   5.956
11008TIP3    H232982   7.199   7.056   5.936
11009TIP3   OH232983   1.671   2.670   6.368
11009TIP3    H132984   1.728   2.632   6.301
11009TIP3    H232985   1.614   2.597   6.394
11010TIP3   OH232986   5.593   3.601   0.645
11010TIP3    H132987   5.546   3.631   0.568
11010TIP3    H232988   5.568   3.509   0.655
11011TIP3   OH232989   6.812   3.772   4.173
11011TIP3    H132990   6.775   3.710   4.111
11011TIP3    H232991   6.832   3.850   4.121
11012TIP3   OH232992   4.002   6.489   5.978
11012TIP3    H132993   3.932   6.427   5.999
11012TIP3    H232994   4.048   6.502   6.061
11013TIP3   OH232995   3.993   1.630   3.263
11013TIP3    H132996   3.963   1.707   3.215
11013TIP3    H232997   3.995   1.658   3.354
11014TIP3   OH232998   2.264   6.187   2.110
11014TIP3    H132999   2.185   6.139   2.138
11014TIP3    H233000   2.332   6.120   2.107
11015TIP3   OH233001   1.120   3.734   3.180
11015TIP3    H133002   1.062   3.688   3.241
11015TIP3    H233003   1.089   3.824   3.180
11016TIP3   OH233004   0.334   6.341   0.080
11016TIP3    H133005   0.263   6.354   0.017
11016TIP3    H233006   0.345   6.426   0.122
11017TIP3   OH233007   4.076   3.854   2.767
11017TIP3    H133008   4.106   3.886   2.681
11017TIP3    H233009   4.072   3.759   2.757
11018TIP3   OH233010   8.207   7.032   4.853
11018TIP3    H133011   8.173   6.943   4.845
11018TIP3    H233012   8.134   7.083   4.889
11019TIP3   OH233013   0.604   1.018   5.833
11019TIP3    H133014   0.576   1.055   5.749
11019TIP3    H233015   0.527   0.973   5.866
11020TIP3   OH233016   8.257   3.469   2.062
11020TIP3    H133017   8.310   3.399   2.100
11020TIP3    H233018   8.182   3.423   2.023
11021TIP3   OH233019   6.661   6.414   6.145
11021TIP3    H133020   6.679   6.341   6.205
11021TIP3    H233021   6.669   6.492   6.199
11022TIP3   OH233022   6.137   1.666   1.019
11022TIP3    H133023   6.212   1.725   1.032
11022TIP3    H233024   6.166   1.583   1.057
11023TIP3   OH233025   5.215   1.317  -0.029
11023TIP3    H133026   5.203   1.269  -0.111
11023TIP3    H233027   5.279   1.265   0.020
11024TIP3   OH233028   6.437   5.055   3.297
11024TIP3    H133029   6.458   5.090   3.384
11024TIP3    H233030   6.520   5.022   3.263
11025TIP3   OH233031   1.581   4.398   1.299
11025TIP3    H133032   1.645   4.426   1.365
11025TIP3    H233033   1.596   4.304   1.289
11026TIP3   OH233034   5.632   0.021   2.174
11026TIP3    H133035   5.649   0.006   2.267
11026TIP3    H233036   5.645   0.116   2.163
11027TIP3   OH233037   5.287   2.366   0.268
11027TIP3    H133038   5.252   2.312   0.197
11027TIP3    H233039   5.340   2.432   0.224
11028TIP3   OH233040   1.467   5.642   0.222
11028TIP3    H133041   1.495   5.551   0.220
11028TIP3    H233042   1.523   5.684   0.287
11029TIP3   OH233043   2.276   6.140   2.413
11029TIP3    H133044   2.276   6.101   2.326
11029TIP3    H233045   2.298   6.068   2.472
11030TIP3   OH233046   4.761   1.109   2.147
11030TIP3    H133047   4.730   1.030   2.102
11030TIP3    H233048   4.733   1.097   2.238
11031TIP3   OH233049   7.553   4.991   5.531
11031TIP3    H133050   7.539   5.082   5.504
11031TIP3    H233051   7.649   4.983   5.536
11032TIP3   OH233052   6.078   6.208   3.584
11032TIP3    H133053   6.016   6.165   3.642
11032TIP3    H233054   6.150   6.145   3.573
11033TIP3   OH233055   2.472   1.381   4.966
11033TIP3    H133056   2.379   1.385   4.947
11033TIP3    H233057   2.495   1.468   4.998
11034TIP3   OH233058   7.051   1.796   1.987
11034TIP3    H133059   7.025   1.792   1.895
11034TIP3    H233060   7.060   1.889   2.005
11035TIP3   OH233061   3.799   4.601   0.991
11035TIP3    H133062   3.755   4.573   0.911
11035TIP3    H233063   3.734   4.654   1.037
11036TIP3   OH233064   4.138   6.843   4.626
11036TIP3    H133065   4.133   6.801   4.711
11036TIP3    H233066   4.218   6.896   4.630
11037TIP3   OH233067   3.764   7.609   2.962
11037TIP3    H133068   3.791   7.583   3.049
11037TIP3    H233069   3.674   7.577   2.954
11038TIP3   OH233070   6.425   2.517   3.685
11038TIP3    H133071   6.455   2.593   3.635
11038TIP3    H233072   6.442   2.443   3.628
11039TIP3   OH233073   1.757   0.947   4.731
11039TIP3    H133074   1.743   0.970   4.823
11039TIP3    H233075   1.828   0.883   4.733
11040TIP3   OH233076   3.484   4.652   1.755
11040TIP3    H133077   3.565   4.699   1.733
11040TIP3    H233078   3.486   4.644   1.850
11041TIP3   OH233079   3.400   1.151   1.099
11041TIP3    H133080   3.350   1.112   1.026
11041TIP3    H233081   3.342   1.141   1.175
11042TIP3   OH233082   6.982   0.614   5.508
11042TIP3    H133083   7.073   0.586   5.519
11042TIP3    H233084   6.964   0.600   5.415
11043TIP3   OH233085   7.116   7.493   1.306
11043TIP3    H133086   7.211   7.480   1.307
11043TIP3    H233087   7.096   7.508   1.214
11044TIP3   OH233088   5.382   4.486   5.572
11044TIP3    H133089   5.297   4.502   5.531
11044TIP3    H233090   5.382   4.392   5.592
11045TIP3   OH233091   6.554   1.514   6.033
11045TIP3    H133092   6.633   1.558   6.002
11045TIP3    H233093   6.570   1.421   6.015
11046TIP3   OH233094   0.645   2.167   5.601
11046TIP3    H133095   0.565   2.165   5.655
11046TIP3    H233096   0.662   2.075   5.582
11047TIP3   OH233097   3.448   4.746   4.087
11047TIP3    H133098   3.535   4.726   4.121
11047TIP3    H233099   3.417   4.664   4.049
11048TIP3   OH233100   7.813   6.959   3.733
11048TIP3    H133101   7.760   6.880   3.725
11048TIP3    H233102   7.757   7.020   3.782
11049TIP3   OH233103   5.849   4.506   5.305
11049TIP3    H133104   5.900   4.434   5.271
11049TIP3    H233105   5.759   4.472   5.310
11050TIP3   OH233106   7.426   5.418   5.045
11050TIP3    H133107   7.478   5.485   5.090
11050TIP3    H233108   7.413   5.350   5.111
11051TIP3   OH233109   6.832   1.911   2.881
11051TIP3    H133110   6.842   1.973   2.953
11051TIP3    H233111   6.777   1.841   2.917
11052TIP3   OH233112   2.441   4.668   2.879
11052TIP3    H133113   2.428   4.726   2.803
11052TIP3    H233114   2.395   4.588   2.856
11053TIP3   OH233115   5.856   1.568   3.549
11053TIP3    H133116   5.883   1.476   3.547
11053TIP3    H233117   5.883   1.602   3.464
11054TIP3   OH233118   1.927   0.143   5.477
11054TIP3    H133119   2.010   0.189   5.494
11054TIP3    H233120   1.951   0.051   5.475
11055TIP3   OH233121   4.401   3.467   0.849
11055TIP3    H133122   4.432   3.431   0.932
11055TIP3    H233123   4.317   3.423   0.834
11056TIP3   OH233124   3.928   3.455   6.647
11056TIP3    H133125   3.918   3.442   6.553
11056TIP3    H233126   3.900   3.373   6.686
11057TIP3   OH233127   5.100   1.075   0.265
11057TIP3    H133128   5.175   1.103   0.318
11057TIP3    H233129   5.140   1.028   0.192
11058TIP3   OH233130   1.237   7.660   5.096
11058TIP3    H133131   1.185   7.690   5.021
11058TIP3    H233132   1.325   7.650   5.061
11059TIP3   OH233133   0.755   3.454   6.043
11059TIP3    H133134   0.824   3.388   6.045
11059TIP3    H233135   0.675   3.407   6.068
11060TIP3   OH233136   7.599   2.633   6.084
11060TIP3    H133137   7.591   2.555   6.140
11060TIP3    H233138   7.509   2.659   6.065
11061TIP3   OH233139   8.155   7.432   2.304
11061TIP3    H133140   8.078   7.381   2.278
11061TIP3    H233141   8.122   7.521   2.316
11062TIP3   OH233142   0.023   6.777   0.345
11062TIP3    H133143   0.001   6.852   0.401
11062TIP3    H233144   0.104   6.742   0.383
11063TIP3   OH233145   7.557   5.496   6.367
11063TIP3    H133146   7.586   5.587   6.365
11063TIP3    H233147   7.617   5.452   6.427
11064TIP3   OH233148   4.226   5.998   3.913
11064TIP3    H133149   4.250   6.050   3.991
11064TIP3    H233150   4.274   6.040   3.842
11065TIP3   OH233151   5.297   4.739   2.024
11065TIP3    H133152   5.323   4.807   2.087
11065TIP3    H233153   5.258   4.788   1.951
11066TIP3   OH233154   1.684   2.688   0.886
11066TIP3    H133155   1.731   2.613   0.923
11066TIP3    H233156   1.603   2.691   0.936
11067TIP3   OH233157   4.608   2.526   5.270
11067TIP3    H133158   4.551   2.460   5.309
11067TIP3    H233159   4.687   2.524   5.323
11068TIP3   OH233160   7.427   5.628   2.576
11068TIP3    H133161   7.361   5.694   2.596
11068TIP3    H233162   7.405   5.555   2.633
11069TIP3   OH233163   4.830   4.683   6.760
11069TIP3    H133164   4.799   4.739   6.689
11069TIP3    H233165   4.924   4.698   6.764
11070TIP3   OH233166   2.127   6.526   6.627
11070TIP3    H133167   2.132   6.555   6.536
11070TIP3    H233168   2.213   6.488   6.645
11071TIP3   OH233169   0.292   2.555   3.137
11071TIP3    H133170   0.214   2.522   3.092
11071TIP3    H233171   0.256   2.607   3.209
11072TIP3   OH233172   6.986   0.792   4.082
11072TIP3    H133173   7.045   0.758   4.014
11072TIP3    H233174   6.971   0.717   4.140
11073TIP3   OH233175   8.034   7.793   5.233
11073TIP3    H133176   7.954   7.810   5.282
11073TIP3    H233177   8.083   7.733   5.289
11074TIP3   OH233178   6.240   1.343   6.056
11074TIP3    H133179   6.279   1.379   5.977
11074TIP3    H233180   6.306   1.282   6.090
11075TIP3   OH233181   2.870   1.009   0.822
11075TIP3    H133182   2.799   1.043   0.767
11075TIP3    H233183   2.913   0.943   0.768
11076TIP3   OH233184   2.884   5.950   3.465
11076TIP3    H133185   2.894   5.986   3.376
11076TIP3    H233186   2.869   6.027   3.520
11077TIP3   OH233187   5.360   6.176   2.076
11077TIP3    H133188   5.288   6.164   2.013
11077TIP3    H233189   5.402   6.257   2.049
11078TIP3   OH233190   1.869   0.157   5.758
11078TIP3    H133191   1.877   0.160   5.663
11078TIP3    H233192   1.907   0.239   5.789
11079TIP3   OH233193   7.875   5.702   2.558
11079TIP3    H133194   7.957   5.727   2.603
11079TIP3    H233195   7.806   5.734   2.616
11080TIP3   OH233196   7.437   4.319   3.112
11080TIP3    H133197   7.465   4.407   3.137
11080TIP3    H233198   7.513   4.280   3.070
11081TIP3   OH233199   7.847   6.069   0.872
11081TIP3    H133200   7.821   6.161   0.869
11081TIP3    H233201   7.879   6.050   0.784
11082TIP3   OH233202   5.425   1.902   3.360
11082TIP3    H133203   5.439   1.831   3.298
11082TIP3    H233204   5.480   1.880   3.435
11083TIP3   OH233205   3.356   6.656   5.559
11083TIP3    H133206   3.274   6.623   5.595
11083TIP3    H233207   3.330   6.727   5.501
11084TIP3   OH233208   8.202   2.259   1.630
11084TIP3    H133209   8.110   2.252   1.655
11084TIP3    H233210   8.209   2.346   1.590
11085TIP3   OH233211   6.703   6.026   2.342
11085TIP3    H133212   6.774   5.964   2.323
11085TIP3    H233213   6.744   6.112   2.339
11086TIP3   OH233214   7.016   1.941   0.634
11086TIP3    H133215   7.044   1.907   0.719
11086TIP3    H233216   7.080   2.009   0.612
11087TIP3   OH233217   5.876   6.378   5.392
11087TIP3    H133218   5.870   6.471   5.414
11087TIP3    H233219   5.821   6.335   5.457
11088TIP3   OH233220   1.454   5.264   3.588
11088TIP3    H133221   1.379   5.277   3.646
11088TIP3    H233222   1.481   5.173   3.604
11089TIP3   OH233223   7.389   3.082   1.833
11089TIP3    H133224   7.349   3.124   1.757
11089TIP3    H233225   7.349   2.995   1.837
11090TIP3   OH233226   3.638   1.522   1.848
11090TIP3    H133227   3.717   1.556   1.890
11090TIP3    H233228   3.586   1.487   1.920
11091TIP3   OH233229   6.112   4.017   2.831
11091TIP3    H133230   6.136   3.954   2.899
11091TIP3    H233231   6.017   4.004   2.820
11092TIP3   OH233232   2.548   1.620   5.037
11092TIP3    H133233   2.576   1.685   4.972
11092TIP3    H233234   2.483   1.665   5.090
11093TIP3   OH233235   6.622   1.023   0.054
11093TIP3    H133236   6.713   1.043   0.032
11093TIP3    H233237   6.602   0.944   0.004
11094TIP3   OH233238   3.634   4.844   5.800
11094TIP3    H133239   3.544   4.824   5.825
11094TIP3    H233240   3.684   4.765   5.821
11095TIP3   OH233241   2.701   4.096   5.399
11095TIP3    H133242   2.611   4.067   5.388
11095TIP3    H233243   2.747   4.063   5.321
11096TIP3   OH233244   7.205   6.436   3.177
11096TIP3    H133245   7.219   6.524   3.142
11096TIP3    H233246   7.155   6.391   3.109
11097TIP3   OH233247   7.142   7.526   1.032
11097TIP3    H133248   7.192   7.456   0.990
11097TIP3    H233249   7.052   7.512   1.003
11098TIP3   OH233250   7.389   6.613   5.845
11098TIP3    H133251   7.447   6.678   5.885
11098TIP3    H233252   7.302   6.653   5.850
11099TIP3   OH233253   8.051   1.811   1.750
11099TIP3    H133254   8.117   1.855   1.696
11099TIP3    H233255   8.090   1.808   1.838
11100TIP3   OH233256   3.802   1.152   0.540
11100TIP3    H133257   3.887   1.160   0.498
11100TIP3    H233258   3.814   1.193   0.626
11101TIP3   OH233259   0.196   2.597   2.756
11101TIP3    H133260   0.141   2.633   2.686
11101TIP3    H233261   0.174   2.648   2.833
11102TIP3   OH233262   1.209   1.025   3.926
11102TIP3    H133263   1.264   1.084   3.978
11102TIP3    H233264   1.130   1.013   3.979
11103TIP3   OH233265   6.165   0.887   2.630
11103TIP3    H133266   6.172   0.899   2.536
11103TIP3    H233267   6.090   0.829   2.642
11104TIP3   OH233268   3.041   5.731   5.829
11104TIP3    H133269   3.069   5.643   5.806
11104TIP3    H233270   2.946   5.730   5.821
11105TIP3   OH233271   6.367   6.985   4.264
11105TIP3    H133272   6.323   7.001   4.180
11105TIP3    H233273   6.320   6.911   4.302
11106TIP3   OH233274   5.760   5.144   5.545
11106TIP3    H133275   5.788   5.186   5.463
11106TIP3    H233276   5.727   5.059   5.517
11107TIP3   OH233277   6.091   2.102   5.153
11107TIP3    H133278   6.122   2.051   5.228
11107TIP3    H233279   6.002   2.072   5.138
11108TIP3   OH233280   6.324   1.702   5.883
11108TIP3    H133281   6.318   1.797   5.892
11108TIP3    H233282   6.326   1.669   5.973
11109TIP3   OH233283   7.934   6.617   4.956
11109TIP3    H133284   7.935   6.612   5.052
11109TIP3    H233285   7.938   6.526   4.928
11110TIP3   OH233286   4.775   7.624   2.471
11110TIP3    H133287   4.829   7.547   2.487
11110TIP3    H233288   4.696   7.591   2.429
11111TIP3   OH233289   7.540   0.358   3.181
11111TIP3    H133290   7.590   0.422   3.130
11111TIP3    H233291   7.457   0.350   3.135
11112TIP3   OH233292   1.557   1.722   3.166
11112TIP3    H133293   1.530   1.800   3.119
11112TIP3    H233294   1.565   1.750   3.257
11113TIP3   OH233295   4.477   3.545   5.856
11113TIP3    H133296   4.556   3.565   5.906
11113TIP3    H233297   4.428   3.627   5.854
11114TIP3   OH233298   6.325   2.021   0.521
11114TIP3    H133299   6.399   2.078   0.500
11114TIP3    H233300   6.364   1.934   0.533
11115TIP3   OH233301   3.957   6.494   6.517
11115TIP3    H133302   3.989   6.582   6.533
11115TIP3    H233303   3.879   6.507   6.463
11116TIP3   OH233304   7.716   1.539   3.737
11116TIP3    H133305   7.622   1.531   3.751
11116TIP3    H233306   7.725   1.614   3.677
11117TIP3   OH233307   7.117   7.510   6.216
11117TIP3    H133308   7.112   7.418   6.191
11117TIP3    H233309   7.075   7.556   6.143
11118TIP3   OH233310   1.123   2.540   6.635
11118TIP3    H133311   1.028   2.530   6.642
11118TIP3    H233312   1.143   2.522   6.543
11119TIP3   OH233313   8.290   1.992   1.255
11119TIP3    H133314   8.314   2.080   1.225
11119TIP3    H233315   8.247   2.007   1.340
11120TIP3   OH233316   4.051   3.471   3.372
11120TIP3    H133317   3.959   3.469   3.396
11120TIP3    H233318   4.051   3.490   3.278
11121TIP3   OH233319   5.330   0.735   6.422
11121TIP3    H133320   5.291   0.791   6.355
11121TIP3    H233321   5.423   0.732   6.401
11122TIP3   OH233322   5.635   4.135   5.478
11122TIP3    H133323   5.684   4.191   5.538
11122TIP3    H233324   5.616   4.056   5.529
11123TIP3   OH233325   6.167   1.686   2.286
11123TIP3    H133326   6.241   1.733   2.248
11123TIP3    H233327   6.095   1.749   2.285
11124TIP3   OH233328   4.315   6.940   6.349
11124TIP3    H133329   4.395   6.973   6.389
11124TIP3    H233330   4.318   6.845   6.362
11125TIP3   OH233331   7.305   0.912   6.704
11125TIP3    H133332   7.376   0.973   6.725
11125TIP3    H233333   7.318   0.893   6.611
11126TIP3   OH233334   7.692   4.330   2.680
11126TIP3    H133335   7.732   4.388   2.745
11126TIP3    H233336   7.767   4.292   2.633
11127TIP3   OH233337   2.051   6.560   0.556
11127TIP3    H133338   2.082   6.520   0.638
11127TIP3    H233339   2.130   6.577   0.506
11128TIP3   OH233340   8.210   4.458   6.247
11128TIP3    H133341   8.282   4.403   6.279
11128TIP3    H233342   8.232   4.476   6.156
11129TIP3   OH233343   3.543   7.436   2.867
11129TIP3    H133344   3.590   7.392   2.938
11129TIP3    H233345   3.488   7.367   2.829
11130TIP3   OH233346   4.018   1.568   1.355
11130TIP3    H133347   3.967   1.563   1.274
11130TIP3    H233348   4.087   1.632   1.336
11131TIP3   OH233349   3.583   1.105   0.812
11131TIP3    H133350   3.582   1.042   0.884
11131TIP3    H233351   3.591   1.190   0.855
11132TIP3   OH233352   5.928   3.920   0.231
11132TIP3    H133353   5.955   3.968   0.309
11132TIP3    H233354   5.917   3.830   0.260
11133TIP3   OH233355   3.080   4.153   1.052
11133TIP3    H133356   3.135   4.160   1.130
11133TIP3    H233357   3.113   4.075   1.007
11134TIP3   OH233358   1.456   4.675   3.974
11134TIP3    H133359   1.378   4.621   3.962
11134TIP3    H233360   1.477   4.666   4.067
11135TIP3   OH233361   4.854   4.053   5.655
11135TIP3    H133362   4.865   4.019   5.744
11135TIP3    H233363   4.771   4.100   5.657
11136TIP3   OH233364   3.981   3.646   1.831
11136TIP3    H133365   3.907   3.637   1.771
11136TIP3    H233366   3.985   3.739   1.851
11137TIP3   OH233367   1.058   3.809   3.517
11137TIP3    H133368   1.026   3.803   3.608
11137TIP3    H233369   1.012   3.739   3.471
11138TIP3   OH233370   3.157   0.525   3.327
11138TIP3    H133371   3.177   0.557   3.415
11138TIP3    H233372   3.119   0.439   3.340
11139TIP3   OH233373   7.006   3.889   5.490
11139TIP3    H133374   6.946   3.941   5.544
11139TIP3    H233375   7.016   3.806   5.537
11140TIP3   OH233376   2.417   5.670   4.353
11140TIP3    H133377   2.388   5.720   4.429
11140TIP3    H233378   2.393   5.723   4.277
11141TIP3   OH233379   3.960   7.028   0.449
11141TIP3    H133380   4.039   6.990   0.411
11141TIP3    H233381   3.946   6.978   0.530
11142TIP3   OH233382   2.541   7.880   2.391
11142TIP3    H133383   2.476   7.856   2.324
11142TIP3    H233384   2.567   7.796   2.430
11143TIP3   OH233385   6.948   3.871   5.897
11143TIP3    H133386   7.031   3.918   5.901
11143TIP3    H233387   6.883   3.939   5.876
11144TIP3   OH233388   8.209   6.313   1.277
11144TIP3    H133389   8.241   6.285   1.191
11144TIP3    H233390   8.127   6.265   1.290
11145TIP3   OH233391   7.057   0.549   0.832
11145TIP3    H133392   7.035   0.494   0.757
11145TIP3    H233393   7.067   0.637   0.796
11146TIP3   OH233394   4.942   2.423   3.265
11146TIP3    H133395   4.888   2.465   3.198
11146TIP3    H233396   4.973   2.342   3.224
11147TIP3   OH233397   4.245   6.306   4.995
11147TIP3    H133398   4.175   6.371   4.992
11147TIP3    H233399   4.238   6.259   4.912
11148TIP3   OH233400   7.370   0.596   4.785
11148TIP3    H133401   7.351   0.611   4.877
11148TIP3    H233402   7.439   0.529   4.785
11149TIP3   OH233403   3.953   2.100   1.600
11149TIP3    H133404   3.910   2.054   1.528
11149TIP3    H233405   3.882   2.123   1.660
11150TIP3   OH233406   2.463   6.413   4.566
11150TIP3    H133407   2.478   6.357   4.490
11150TIP3    H233408   2.403   6.362   4.621
11151TIP3   OH233409   4.295   3.645   4.391
11151TIP3    H133410   4.240   3.625   4.467
11151TIP3    H233411   4.338   3.727   4.413
11152TIP3   OH233412   7.782   0.774   1.389
11152TIP3    H133413   7.842   0.725   1.332
11152TIP3    H233414   7.727   0.707   1.428
11153TIP3   OH233415   2.679   3.764   3.536
11153TIP3    H133416   2.729   3.740   3.457
11153TIP3    H233417   2.740   3.749   3.608
11154TIP3   OH233418   6.524   7.652   0.414
11154TIP3    H133419   6.543   7.745   0.422
11154TIP3    H233420   6.429   7.645   0.425
11155TIP3   OH233421   0.355   0.070   5.555
11155TIP3    H133422   0.413  -0.006   5.562
11155TIP3    H233423   0.342   0.099   5.646
11156TIP3   OH233424   8.015   0.146   2.984
11156TIP3    H133425   7.948   0.079   2.979
11156TIP3    H233426   8.098   0.098   2.986
11157TIP3   OH233427   1.266   5.266   1.098
11157TIP3    H133428   1.223   5.300   1.020
11157TIP3    H233429   1.295   5.179   1.074
11158TIP3   OH233430   5.596   4.502   3.833
11158TIP3    H133431   5.602   4.424   3.778
11158TIP3    H233432   5.643   4.569   3.784
11159TIP3   OH233433   2.851   5.164   0.520
11159TIP3    H133434   2.894   5.233   0.469
11159TIP3    H233435   2.898   5.084   0.497
11160TIP3   OH233436   5.494   1.872   6.726
11160TIP3    H133437   5.521   1.963   6.737
11160TIP3    H233438   5.408   1.868   6.767
11161TIP3   OH233439   6.979   6.304   1.475
11161TIP3    H133440   6.961   6.368   1.544
11161TIP3    H233441   6.894   6.263   1.459
11162TIP3   OH233442   1.212   1.327   6.075
11162TIP3    H133443   1.249   1.268   6.140
11162TIP3    H233444   1.223   1.280   5.992
11163TIP3   OH233445   3.057   2.973   2.030
11163TIP3    H133446   3.106   3.055   2.031
11163TIP3    H233447   3.020   2.968   1.942
11164TIP3   OH233448   4.526   6.074   2.410
11164TIP3    H133449   4.479   6.145   2.452
11164TIP3    H233450   4.601   6.116   2.368
11165TIP3   OH233451   7.427   7.796   2.217
11165TIP3    H133452   7.394   7.749   2.294
11165TIP3    H233453   7.359   7.784   2.151
11166TIP3   OH233454   1.684   5.608   6.357
11166TIP3    H133455   1.652   5.532   6.406
11166TIP3    H233456   1.751   5.647   6.413
11167TIP3   OH233457   7.025   1.092   2.647
11167TIP3    H133458   6.974   1.081   2.567
11167TIP3    H233459   7.107   1.132   2.619
11168TIP3   OH233460   3.856   7.568   6.562
11168TIP3    H133461   3.932   7.523   6.526
11168TIP3    H233462   3.803   7.499   6.600
11169TIP3   OH233463   6.719   0.424   2.111
11169TIP3    H133464   6.678   0.380   2.185
11169TIP3    H233465   6.709   0.363   2.038
11170TIP3   OH233466   4.476   5.832   4.989
11170TIP3    H133467   4.493   5.754   4.937
11170TIP3    H233468   4.381   5.831   5.004
11171TIP3   OH233469   2.853   7.300   1.689
11171TIP3    H133470   2.819   7.366   1.628
11171TIP3    H233471   2.944   7.326   1.704
11172TIP3   OH233472   7.809   5.574   4.203
11172TIP3    H133473   7.740   5.510   4.219
11172TIP3    H233474   7.764   5.649   4.163
11173TIP3   OH233475   5.727   7.539   4.825
11173TIP3    H133476   5.752   7.505   4.911
11173TIP3    H233477   5.709   7.631   4.840
11174TIP3   OH233478   1.351   6.790   2.089
11174TIP3    H133479   1.375   6.704   2.055
11174TIP3    H233480   1.297   6.829   2.020
11175TIP3   OH233481   8.129   7.513   1.263
11175TIP3    H133482   8.216   7.490   1.296
11175TIP3    H233483   8.097   7.432   1.225
11176TIP3   OH233484   1.493   3.819   2.989
11176TIP3    H133485   1.515   3.766   3.066
11176TIP3    H233486   1.484   3.908   3.023
11177TIP3   OH233487   7.340   7.693   5.697
11177TIP3    H133488   7.408   7.660   5.756
11177TIP3    H233489   7.328   7.784   5.724
11178TIP3   OH233490   3.977   4.866   1.652
11178TIP3    H133491   4.064   4.831   1.669
11178TIP3    H233492   3.963   4.852   1.558
11179TIP3   OH233493   4.669   6.890   5.650
11179TIP3    H133494   4.635   6.815   5.601
11179TIP3    H233495   4.604   6.905   5.719
11180TIP3   OH233496   5.487   1.598   0.739
11180TIP3    H133497   5.457   1.669   0.682
11180TIP3    H233498   5.582   1.599   0.731
11181TIP3   OH233499   4.504   3.259   2.118
11181TIP3    H133500   4.435   3.210   2.163
11181TIP3    H233501   4.499   3.230   2.027
11182TIP3   OH233502   1.202   5.122   4.810
11182TIP3    H133503   1.213   5.198   4.867
11182TIP3    H233504   1.195   5.048   4.869
11183TIP3   OH233505   3.771   3.140   6.321
11183TIP3    H133506   3.817   3.222   6.337
11183TIP3    H233507   3.693   3.144   6.376
11184TIP3   OH233508   0.831   0.728   2.382
11184TIP3    H133509   0.879   0.759   2.306
11184TIP3    H233510   0.832   0.802   2.443
11185TIP3   OH233511   4.802   4.313   2.119
11185TIP3    H133512   4.710   4.290   2.107
11185TIP3    H233513   4.845   4.230   2.140
11186TIP3   OH233514   3.566   0.709   4.070
11186TIP3    H133515   3.570   0.680   4.161
11186TIP3    H233516   3.512   0.788   4.072
11187TIP3   OH233517   5.924   0.539   4.650
11187TIP3    H133518   5.852   0.491   4.611
11187TIP3    H233519   5.890   0.628   4.662
11188TIP3   OH233520   7.324   0.098   5.330
11188TIP3    H133521   7.364   0.031   5.385
11188TIP3    H233522   7.281   0.049   5.260
11189TIP3   OH233523   0.434   6.073   4.925
11189TIP3    H133524   0.481   5.997   4.960
11189TIP3    H233525   0.385   6.039   4.850
11190TIP3   OH233526   0.454   7.662   2.115
11190TIP3    H133527   0.477   7.754   2.122
11190TIP3    H233528   0.391   7.647   2.185
11191TIP3   OH233529   7.195   3.761   2.056
11191TIP3    H133530   7.253   3.833   2.031
11191TIP3    H233531   7.166   3.724   1.972
11192TIP3   OH233532   4.402   3.175   4.493
11192TIP3    H133533   4.490   3.207   4.511
11192TIP3    H233534   4.397   3.169   4.398
11193TIP3   OH233535   3.855   5.674   6.158
11193TIP3    H133536   3.798   5.697   6.084
11193TIP3    H233537   3.850   5.578   6.163
11194TIP3   OH233538   6.205   3.723   0.170
11194TIP3    H133539   6.242   3.799   0.214
11194TIP3    H233540   6.257   3.713   0.090
11195TIP3   OH233541   2.787   5.212   6.327
11195TIP3    H133542   2.814   5.124   6.303
11195TIP3    H233543   2.848   5.269   6.281
11196TIP3   OH233544   5.150   6.111   0.686
11196TIP3    H133545   5.079   6.081   0.742
11196TIP3    H233546   5.196   6.176   0.738
11197TIP3   OH233547   4.166   1.452   1.950
11197TIP3    H133548   4.161   1.476   2.043
11197TIP3    H233549   4.260   1.450   1.931
11198TIP3   OH233550   2.881   4.821   1.276
11198TIP3    H133551   2.796   4.806   1.318
11198TIP3    H233552   2.860   4.830   1.183
11199TIP3   OH233553   4.888   7.462   4.650
11199TIP3    H133554   4.884   7.535   4.711
11199TIP3    H233555   4.809   7.411   4.670
11200TIP3   OH233556   6.587   4.373   2.214
11200TIP3    H133557   6.616   4.293   2.171
11200TIP3    H233558   6.617   4.444   2.157
11201TIP3   OH233559   0.912   2.992   4.233
11201TIP3    H133560   0.873   3.037   4.309
11201TIP3    H233561   1.001   3.028   4.228
11202TIP3   OH233562   0.643   5.998   5.686
11202TIP3    H133563   0.579   6.008   5.755
11202TIP3    H233564   0.592   5.992   5.605
11203TIP3   OH233565   6.777   1.663   5.067
11203TIP3    H133566   6.702   1.685   5.122
11203TIP3    H233567   6.772   1.568   5.055
11204TIP3   OH233568   3.228   7.210   5.040
11204TIP3    H133569   3.318   7.234   5.017
11204TIP3    H233570   3.174   7.275   4.996
11205TIP3   OH233571   4.213   3.470   6.600
11205TIP3    H133572   4.124   3.481   6.633
11205TIP3    H233573   4.267   3.463   6.679
11206TIP3   OH233574   0.882   2.490   1.859
11206TIP3    H133575   0.919   2.577   1.868
11206TIP3    H233576   0.847   2.487   1.770
11207TIP3   OH233577   1.680   0.961   5.556
11207TIP3    H133578   1.688   0.975   5.462
11207TIP3    H233579   1.709   0.871   5.570
11208TIP3   OH233580   6.899   7.275   4.832
11208TIP3    H133581   6.842   7.256   4.758
11208TIP3    H233582   6.843   7.323   4.893
11209TIP3   OH233583   6.875   2.541   5.645
11209TIP3    H133584   6.963   2.521   5.612
11209TIP3    H233585   6.850   2.621   5.599
11210TIP3   OH233586   5.879   0.214   3.667
11210TIP3    H133587   5.906   0.240   3.579
11210TIP3    H233588   5.882   0.295   3.718
11211TIP3   OH233589   6.704   6.265   6.377
11211TIP3    H133590   6.768   6.293   6.442
11211TIP3    H233591   6.642   6.210   6.426
11212TIP3   OH233592   0.599   1.263   2.737
11212TIP3    H133593   0.680   1.236   2.782
11212TIP3    H233594   0.614   1.355   2.715
11213TIP3   OH233595   3.969   3.193   1.495
11213TIP3    H133596   4.059   3.192   1.463
11213TIP3    H233597   3.921   3.139   1.432
11214TIP3   OH233598   2.132   3.697   1.899
11214TIP3    H133599   2.057   3.723   1.952
11214TIP3    H233600   2.107   3.719   1.809
11215TIP3   OH233601   6.651   6.040   6.105
11215TIP3    H133602   6.664   5.947   6.086
11215TIP3    H233603   6.558   6.054   6.091
11216TIP3   OH233604   4.948   7.214   0.553
11216TIP3    H133605   5.005   7.181   0.483
11216TIP3    H233606   4.996   7.288   0.589
11217TIP3   OH233607   2.264   3.492   2.052
11217TIP3    H133608   2.336   3.548   2.083
11217TIP3    H233609   2.247   3.522   1.963
11218TIP3   OH233610   6.732   4.195   1.995
11218TIP3    H133611   6.791   4.269   1.984
11218TIP3    H233612   6.775   4.123   1.948
11219TIP3   OH233613   5.140   6.419   4.274
11219TIP3    H133614   5.219   6.375   4.307
11219TIP3    H233615   5.110   6.472   4.348
11220TIP3   OH233616   8.021   3.464   6.617
11220TIP3    H133617   8.074   3.391   6.650
11220TIP3    H233618   8.039   3.467   6.523
11221TIP3   OH233619   6.805   7.235   0.233
11221TIP3    H133620   6.838   7.177   0.165
11221TIP3    H233621   6.732   7.281   0.193
11222TIP3   OH233622   6.603   2.211   1.421
11222TIP3    H133623   6.545   2.286   1.437
11222TIP3    H233624   6.590   2.189   1.329
11223TIP3   OH233625   6.419   4.166   3.722
11223TIP3    H133626   6.404   4.259   3.707
11223TIP3    H233627   6.497   4.145   3.671
11224TIP3   OH233628   1.637   0.272   0.961
11224TIP3    H133629   1.559   0.263   0.906
11224TIP3    H233630   1.707   0.290   0.899
11225TIP3   OH233631   7.875   7.872   2.458
11225TIP3    H133632   7.818   7.823   2.516
11225TIP3    H233633   7.817   7.911   2.393
11226TIP3   OH233634   7.240   3.609   6.157
11226TIP3    H133635   7.270   3.650   6.238
11226TIP3    H233636   7.169   3.551   6.185
11227TIP3   OH233637   1.148   2.899   0.522
11227TIP3    H133638   1.091   2.831   0.486
11227TIP3    H233639   1.230   2.890   0.473
11228TIP3   OH233640   7.885   3.757   1.323
11228TIP3    H133641   7.790   3.748   1.337
11228TIP3    H233642   7.923   3.745   1.409
11229TIP3   OH233643   0.963   0.448   4.795
11229TIP3    H133644   0.990   0.504   4.723
11229TIP3    H233645   0.914   0.377   4.753
11230TIP3   OH233646   0.354   4.248   0.946
11230TIP3    H133647   0.295   4.175   0.961
11230TIP3    H233648   0.334   4.310   1.016
11231TIP3   OH233649   3.795   5.499   3.668
11231TIP3    H133650   3.882   5.503   3.627
11231TIP3    H233651   3.787   5.582   3.715
11232TIP3   OH233652   6.369   5.230   2.412
11232TIP3    H133653   6.281   5.247   2.445
11232TIP3    H233654   6.417   5.197   2.489
11233TIP3   OH233655   5.561   6.069   2.826
11233TIP3    H133656   5.562   6.110   2.912
11233TIP3    H233657   5.633   6.110   2.778
11234TIP3   OH233658   7.170   3.037   2.991
11234TIP3    H133659   7.220   3.118   2.980
11234TIP3    H233660   7.154   3.032   3.085
11235TIP3   OH233661   1.759   2.333   1.640
11235TIP3    H133662   1.853   2.324   1.658
11235TIP3    H233663   1.755   2.367   1.550
11236TIP3   OH233664   1.772   0.065   5.183
11236TIP3    H133665   1.738   0.010   5.254
11236TIP3    H233666   1.767   0.008   5.105
11237TIP3   OH233667   8.088   6.299   4.680
11237TIP3    H133668   8.133   6.248   4.612
11237TIP3    H233669   7.997   6.300   4.653
11238TIP3   OH233670   2.489   6.434   2.666
11238TIP3    H133671   2.500   6.383   2.586
11238TIP3    H233672   2.503   6.370   2.737
11239TIP3   OH233673   6.327   2.367   0.736
11239TIP3    H133674   6.355   2.411   0.816
11239TIP3    H233675   6.399   2.307   0.716
11240TIP3   OH233676   1.993   1.700   0.740
11240TIP3    H133677   2.073   1.697   0.688
11240TIP3    H233678   1.951   1.615   0.723
11241TIP3   OH233679   0.168   6.831   3.670
11241TIP3    H133680   0.262   6.846   3.673
11241TIP3    H233681   0.129   6.918   3.661
11242TIP3   OH233682   8.183   2.489   6.444
11242TIP3    H133683   8.252   2.555   6.437
11242TIP3    H233684   8.101   2.538   6.441
11243TIP3   OH233685   4.721   1.427   2.727
11243TIP3    H133686   4.671   1.449   2.648
11243TIP3    H233687   4.803   1.475   2.718
11244TIP3   OH233688   2.249   4.804   0.592
11244TIP3    H133689   2.163   4.803   0.550
11244TIP3    H233690   2.279   4.713   0.588
11245TIP3   OH233691   4.862   1.015   3.149
11245TIP3    H133692   4.797   0.945   3.147
11245TIP3    H233693   4.879   1.035   3.057
11246TIP3   OH233694   4.051   2.253   6.748
11246TIP3    H133695   4.126   2.290   6.702
11246TIP3    H233696   3.975   2.291   6.704
11247TIP3   OH233697   2.076   7.589   0.993
11247TIP3    H133698   2.117   7.581   0.907
11247TIP3    H233699   2.032   7.505   1.006
11248TIP3   OH233700   5.126   1.969   1.789
11248TIP3    H133701   5.035   1.941   1.777
11248TIP3    H233702   5.121   2.064   1.792
11249TIP3   OH233703   4.959   4.479   3.214
11249TIP3    H133704   4.974   4.385   3.206
11249TIP3    H233705   4.999   4.503   3.297
11250TIP3   OH233706   2.712   2.626   1.008
11250TIP3    H133707   2.677   2.713   0.991
11250TIP3    H233708   2.686   2.574   0.932
11251TIP3   OH233709   2.650   4.824   4.250
11251TIP3    H133710   2.695   4.855   4.172
11251TIP3    H233711   2.615   4.738   4.226
11252TIP3   OH233712   4.531   6.391   3.712
11252TIP3    H133713   4.480   6.341   3.776
11252TIP3    H233714   4.477   6.467   3.692
11253TIP3   OH233715   6.123   3.845   1.860
11253TIP3    H133716   6.031   3.837   1.886
11253TIP3    H233717   6.157   3.917   1.913
11254TIP3   OH233718   5.170   1.537   0.804
11254TIP3    H133719   5.150   1.518   0.895
11254TIP3    H233720   5.254   1.583   0.807
11255TIP3   OH233721   0.548   4.482   0.335
11255TIP3    H133722   0.524   4.557   0.281
11255TIP3    H233723   0.487   4.484   0.408
11256TIP3   OH233724   3.299   2.823   4.168
11256TIP3    H133725   3.210   2.851   4.190
11256TIP3    H233726   3.286   2.744   4.116
11257TIP3   OH233727   3.607   4.979   4.143
11257TIP3    H133728   3.559   4.909   4.098
11257TIP3    H233729   3.635   5.038   4.072
11258TIP3   OH233730   4.650   3.877   2.978
11258TIP3    H133731   4.640   3.972   2.988
11258TIP3    H233732   4.726   3.866   2.921
11259TIP3   OH233733   0.697   0.785   3.248
11259TIP3    H133734   0.645   0.735   3.185
11259TIP3    H233735   0.786   0.754   3.237
11260TIP3   OH233736   0.735   4.103   4.024
11260TIP3    H133737   0.765   4.105   3.933
11260TIP3    H233738   0.814   4.090   4.075
11261TIP3   OH233739   3.410   5.923   1.218
11261TIP3    H133740   3.380   5.973   1.142
11261TIP3    H233741   3.459   5.986   1.270
11262TIP3   OH233742   0.669   4.254   0.209
11262TIP3    H133743   0.614   4.180   0.186
11262TIP3    H233744   0.616   4.306   0.270
11263TIP3   OH233745   1.954   1.823   5.062
11263TIP3    H133746   1.879   1.882   5.060
11263TIP3    H233747   1.982   1.820   5.153
11264TIP3   OH233748   6.229   6.661   0.549
11264TIP3    H133749   6.250   6.573   0.517
11264TIP3    H233750   6.146   6.651   0.594
11265TIP3   OH233751   4.354   7.256   2.346
11265TIP3    H133752   4.265   7.264   2.311
11265TIP3    H233753   4.411   7.267   2.270
11266TIP3   OH233754   5.262   1.254   0.941
11266TIP3    H133755   5.181   1.243   0.892
11266TIP3    H233756   5.239   1.230   1.031
11267TIP3   OH233757   0.575   0.307   1.228
11267TIP3    H133758   0.647   0.267   1.178
11267TIP3    H233759   0.583   0.267   1.315
11268TIP3   OH233760   2.759   2.637   4.658
11268TIP3    H133761   2.835   2.593   4.696
11268TIP3    H233762   2.684   2.601   4.706
11269TIP3   OH233763   7.133   1.256   0.042
11269TIP3    H133764   7.099   1.267  -0.047
11269TIP3    H233765   7.064   1.291   0.098
11270TIP3   OH233766   3.410   3.941   4.837
11270TIP3    H133767   3.436   4.030   4.812
11270TIP3    H233768   3.492   3.900   4.866
11271TIP3   OH233769   4.178   1.824   4.958
11271TIP3    H133770   4.223   1.876   4.891
11271TIP3    H233771   4.229   1.838   5.037
11272TIP3   OH233772   5.861   5.321   2.822
11272TIP3    H133773   5.782   5.290   2.866
11272TIP3    H233774   5.929   5.258   2.847
11273TIP3   OH233775   6.605   3.173   3.874
11273TIP3    H133776   6.617   3.211   3.787
11273TIP3    H233777   6.628   3.081   3.864
11274TIP3   OH233778   6.560   6.256   3.397
11274TIP3    H133779   6.591   6.223   3.481
11274TIP3    H233780   6.639   6.265   3.343
11275TIP3   OH233781   7.861   5.440   4.685
11275TIP3    H133782   7.839   5.448   4.777
11275TIP3    H233783   7.819   5.359   4.657
11276TIP3   OH233784   3.162   3.889   1.455
11276TIP3    H133785   3.136   3.934   1.535
11276TIP3    H233786   3.249   3.854   1.474
11277TIP3   OH233787   1.018   1.249   1.410
11277TIP3    H133788   0.946   1.296   1.453
11277TIP3    H233789   0.986   1.229   1.323
11278TIP3   OH233790   7.616   4.594   1.718
11278TIP3    H133791   7.563   4.660   1.763
11278TIP3    H233792   7.699   4.638   1.700
11279TIP3   OH233793   1.651   7.372   5.205
11279TIP3    H133794   1.615   7.295   5.160
11279TIP3    H233795   1.592   7.385   5.280
11280TIP3   OH233796   0.789   6.235   5.420
11280TIP3    H133797   0.753   6.280   5.344
11280TIP3    H233798   0.842   6.164   5.383
11281TIP3   OH233799   7.657   4.822   2.299
11281TIP3    H133800   7.611   4.863   2.373
11281TIP3    H233801   7.673   4.732   2.328
11282TIP3   OH233802   3.240   5.698   4.161
11282TIP3    H133803   3.277   5.787   4.156
11282TIP3    H233804   3.228   5.683   4.255
11283TIP3   OH233805   4.812   5.970   3.721
11283TIP3    H133806   4.782   5.995   3.634
11283TIP3    H233807   4.799   6.048   3.775
11284TIP3   OH233808   3.984   4.387   5.746
11284TIP3    H133809   4.079   4.398   5.747
11284TIP3    H233810   3.970   4.310   5.690
11285TIP3   OH233811   5.077   1.468   2.090
11285TIP3    H133812   5.165   1.438   2.066
11285TIP3    H233813   5.072   1.557   2.056
11286TIP3   OH233814   7.632   2.922   6.200
11286TIP3    H133815   7.696   2.851   6.198
11286TIP3    H233816   7.575   2.905   6.125
11287TIP3   OH233817   3.506   2.141   4.500
11287TIP3    H133818   3.602   2.132   4.496
11287TIP3    H233819   3.492   2.235   4.512
11288TIP3   OH233820   6.053   4.015   5.558
11288TIP3    H133821   6.015   3.928   5.545
11288TIP3    H233822   6.132   3.999   5.610
11289TIP3   OH233823   1.603   3.363   1.169
11289TIP3    H133824   1.576   3.274   1.147
11289TIP3    H233825   1.525   3.416   1.152
11290TIP3   OH233826   3.606   0.792   3.061
11290TIP3    H133827   3.697   0.821   3.058
11290TIP3    H233828   3.588   0.760   2.973
11291TIP3   OH233829   4.814   7.078   2.532
11291TIP3    H133830   4.829   6.986   2.556
11291TIP3    H233831   4.883   7.126   2.578
11292TIP3   OH233832   3.523   3.088   5.334
11292TIP3    H133833   3.446   3.092   5.277
11292TIP3    H233834   3.493   3.041   5.412
11293TIP3   OH233835   8.069   0.664   6.246
11293TIP3    H133836   8.119   0.663   6.164
11293TIP3    H233837   8.015   0.585   6.241
11294TIP3   OH233838   7.201  -0.019   3.171
11294TIP3    H133839   7.207   0.009   3.079
11294TIP3    H233840   7.225   0.059   3.221
11295TIP3   OH233841   4.928   1.944   6.472
11295TIP3    H133842   4.978   1.922   6.551
11295TIP3    H233843   4.994   1.974   6.409
11296TIP3   OH233844   2.571   4.452   6.677
11296TIP3    H133845   2.663   4.475   6.683
11296TIP3    H233846   2.570   4.356   6.678
11297TIP3   OH233847   8.112   2.449   4.993
11297TIP3    H133848   8.175   2.393   5.038
11297TIP3    H233849   8.140   2.538   5.016
11298TIP3   OH233850   3.336   3.159   1.088
11298TIP3    H133851   3.268   3.222   1.115
11298TIP3    H233852   3.299   3.116   1.011
11299TIP3   OH233853   4.880   0.582   3.516
11299TIP3    H133854   4.929   0.642   3.571
11299TIP3    H233855   4.839   0.638   3.450
11300TIP3   OH233856   0.779   0.793   0.599
11300TIP3    H133857   0.753   0.847   0.673
11300TIP3    H233858   0.762   0.703   0.627
11301TIP3   OH233859   4.066   7.445   5.924
11301TIP3    H133860   4.125   7.389   5.873
11301TIP3    H233861   3.991   7.458   5.867
11302TIP3   OH233862   6.803   0.836   1.473
11302TIP3    H133863   6.829   0.833   1.381
11302TIP3    H233864   6.766   0.924   1.484
11303TIP3   OH233865   2.656   4.168   1.526
11303TIP3    H133866   2.726   4.147   1.464
11303TIP3    H233867   2.581   4.192   1.472
11304TIP3   OH233868   1.139   6.206   1.639
11304TIP3    H133869   1.127   6.230   1.731
11304TIP3    H233870   1.139   6.111   1.639
11305TIP3   OH233871   6.636   3.806   0.698
11305TIP3    H133872   6.700   3.822   0.629
11305TIP3    H233873   6.684   3.757   0.765
11306TIP3   OH233874   0.342   0.382   4.324
11306TIP3    H133875   0.251   0.404   4.305
11306TIP3    H233876   0.391   0.420   4.251
11307TIP3   OH233877   2.122   0.835   4.155
11307TIP3    H133878   2.187   0.773   4.122
11307TIP3    H233879   2.059   0.780   4.202
11308TIP3   OH233880   2.690   7.260   3.923
11308TIP3    H133881   2.762   7.314   3.891
11308TIP3    H233882   2.717   7.170   3.905
11309TIP3   OH233883   3.603   7.493   6.644
11309TIP3    H133884   3.547   7.551   6.697
11309TIP3    H233885   3.554   7.479   6.564
11310TIP3   OH233886   2.215   6.214   5.494
11310TIP3    H133887   2.150   6.231   5.427
11310TIP3    H233888   2.212   6.290   5.551
11311TIP3   OH233889   4.483   1.127   0.170
11311TIP3    H133890   4.473   1.213   0.129
11311TIP3    H233891   4.497   1.147   0.263
11312TIP3   OH233892   3.434   4.403   5.981
11312TIP3    H133893   3.350   4.434   6.013
11312TIP3    H233894   3.432   4.308   5.995
11313TIP3   OH233895   0.815   3.078   4.899
11313TIP3    H133896   0.751   3.011   4.923
11313TIP3    H233897   0.861   3.041   4.824
11314TIP3   OH233898   2.071   4.874   4.845
11314TIP3    H133899   2.036   4.894   4.932
11314TIP3    H233900   2.054   4.954   4.794
11315TIP3   OH233901   0.814   3.982   6.395
11315TIP3    H133902   0.751   3.918   6.428
11315TIP3    H233903   0.899   3.941   6.409
11316TIP3   OH233904   0.247   7.485   1.650
11316TIP3    H133905   0.265   7.398   1.686
11316TIP3    H233906   0.224   7.470   1.559
11317TIP3   OH233907   6.149   2.885   5.157
11317TIP3    H133908   6.055   2.882   5.144
11317TIP3    H233909   6.186   2.851   5.075
11318TIP3   OH233910   7.362   1.769   6.371
11318TIP3    H133911   7.279   1.779   6.323
11318TIP3    H233912   7.336   1.738   6.458
11319TIP3   OH233913   5.202   2.185   0.611
11319TIP3    H133914   5.176   2.259   0.556
11319TIP3    H233915   5.122   2.132   0.618
11320TIP3   OH233916   3.190   7.589   0.873
11320TIP3    H133917   3.214   7.498   0.892
11320TIP3    H233918   3.125   7.611   0.939
11321TIP3   OH233919   2.283   3.161   0.892
11321TIP3    H133920   2.307   3.219   0.964
11321TIP3    H233921   2.329   3.079   0.912
11322TIP3   OH233922   7.069   5.521   0.203
11322TIP3    H133923   7.116   5.560   0.276
11322TIP3    H233924   6.978   5.519   0.231
11323TIP3   OH233925   1.287   0.424   4.548
11323TIP3    H133926   1.377   0.434   4.516
11323TIP3    H233927   1.238   0.394   4.471
11324TIP3   OH233928   3.115   2.812   4.625
11324TIP3    H133929   3.128   2.718   4.633
11324TIP3    H233930   3.114   2.829   4.530
11325TIP3   OH233931   8.026   4.943   3.225
11325TIP3    H133932   7.998   4.948   3.317
11325TIP3    H233933   7.972   4.874   3.187
11326TIP3   OH233934   0.131   0.529   1.444
11326TIP3    H133935   0.125   0.434   1.433
11326TIP3    H233936   0.214   0.553   1.402
11327TIP3   OH233937   4.623   4.929   5.655
11327TIP3    H133938   4.650   4.921   5.564
11327TIP3    H233939   4.669   4.858   5.700
11328TIP3   OH233940   0.574   6.129   6.316
11328TIP3    H133941   0.562   6.034   6.327
11328TIP3    H233942   0.502   6.168   6.365
11329TIP3   OH233943   6.382   5.674   2.900
11329TIP3    H133944   6.346   5.656   2.814
11329TIP3    H233945   6.373   5.591   2.948
11330TIP3   OH233946   8.244   1.942   1.904
11330TIP3    H133947   8.250   1.966   1.997
11330TIP3    H233948   8.331   1.907   1.883
11331TIP3   OH233949   6.569   1.559   3.701
11331TIP3    H133950   6.560   1.553   3.796
11331TIP3    H233951   6.617   1.480   3.677
11332TIP3   OH233952   3.978   5.783   0.256
11332TIP3    H133953   3.930   5.709   0.219
11332TIP3    H233954   4.055   5.744   0.298
11333TIP3   OH233955   7.106   7.025   3.034
11333TIP3    H133956   7.110   6.952   2.973
11333TIP3    H233957   7.047   7.088   2.993
11334TIP3   OH233958   2.584   1.084   4.457
11334TIP3    H133959   2.584   1.110   4.549
11334TIP3    H233960   2.665   1.122   4.421
11335TIP3   OH233961   4.680   0.664   6.749
11335TIP3    H133962   4.722   0.635   6.668
11335TIP3    H233963   4.607   0.718   6.719
11336TIP3   OH233964   3.018   2.820   1.442
11336TIP3    H133965   2.949   2.765   1.405
11336TIP3    H233966   3.090   2.815   1.378
11337TIP3   OH233967   2.929   0.663   5.420
11337TIP3    H133968   2.969   0.585   5.381
11337TIP3    H233969   2.837   0.657   5.395
11338TIP3   OH233970   4.121   7.091   6.245
11338TIP3    H133971   4.170   7.162   6.204
11338TIP3    H233972   4.187   7.036   6.287
11339TIP3   OH233973   1.174   5.169   1.496
11339TIP3    H133974   1.148   5.192   1.407
11339TIP3    H233975   1.165   5.250   1.546
11340TIP3   OH233976   7.981   1.683   1.359
11340TIP3    H133977   7.993   1.623   1.433
11340TIP3    H233978   8.045   1.655   1.294
11341TIP3   OH233979   5.874   3.426   4.394
11341TIP3    H133980   5.969   3.421   4.390
11341TIP3    H233981   5.843   3.355   4.338
11342TIP3   OH233982   0.902   3.274   4.562
11342TIP3    H133983   0.892   3.364   4.593
11342TIP3    H233984   0.928   3.224   4.639
11343TIP3   OH233985   8.116   7.795   3.196
11343TIP3    H133986   8.182   7.803   3.126
11343TIP3    H233987   8.104   7.701   3.206
11344TIP3   OH233988   4.248   1.855   5.253
11344TIP3    H133989   4.261   1.930   5.312
11344TIP3    H233990   4.303   1.786   5.290
11345TIP3   OH233991   0.270   1.006   4.297
11345TIP3    H133992   0.243   1.086   4.252
11345TIP3    H233993   0.362   1.022   4.321
11346TIP3   OH233994   7.758   3.555   5.589
11346TIP3    H133995   7.696   3.624   5.565
11346TIP3    H233996   7.726   3.523   5.673
11347TIP3   OH233997   2.110   0.005   6.088
11347TIP3    H133998   2.087   0.085   6.133
11347TIP3    H233999   2.179  -0.034   6.142
11348TIP3   OH234000   6.428   3.310  -0.021
11348TIP3    H134001   6.414   3.318   0.074
11348TIP3    H234002   6.350   3.349  -0.059
11349TIP3   OH234003   6.647   3.937   4.315
11349TIP3    H134004   6.706   3.883   4.263
11349TIP3    H234005   6.614   3.878   4.383
11350TIP3   OH234006   0.688   1.690   1.338
11350TIP3    H134007   0.695   1.623   1.269
11350TIP3    H234008   0.595   1.695   1.358
11351TIP3   OH234009   5.472   0.512   4.066
11351TIP3    H134010   5.414   0.588   4.064
11351TIP3    H234011   5.445   0.460   3.991
11352TIP3   OH234012   0.289   1.284   3.339
11352TIP3    H134013   0.380   1.268   3.362
11352TIP3    H234014   0.275   1.376   3.358
11353TIP3   OH234015   6.039   2.615   3.452
11353TIP3    H134016   6.105   2.679   3.426
11353TIP3    H234017   5.964   2.668   3.479
11354TIP3   OH234018   1.860   5.410   3.319
11354TIP3    H134019   1.925   5.415   3.389
11354TIP3    H234020   1.777   5.392   3.365
11355TIP3   OH234021   7.685   0.384   2.028
11355TIP3    H134022   7.677   0.458   1.969
11355TIP3    H234023   7.736   0.319   1.978
11356TIP3   OH234024   7.046   1.608   1.410
11356TIP3    H134025   7.074   1.680   1.354
11356TIP3    H234026   7.123   1.584   1.461
11357TIP3   OH234027   7.881   4.797   2.632
11357TIP3    H134028   7.864   4.717   2.582
11357TIP3    H234029   7.976   4.797   2.645
11358TIP3   OH234030   0.967   3.101   5.720
11358TIP3    H134031   0.937   3.192   5.709
11358TIP3    H234032   0.892   3.048   5.692
11359TIP3   OH234033   7.421   0.435   6.479
11359TIP3    H134034   7.337   0.420   6.436
11359TIP3    H234035   7.399   0.447   6.571
11360TIP3   OH234036   0.469   5.759   1.267
11360TIP3    H134037   0.472   5.843   1.220
11360TIP3    H234038   0.427   5.781   1.351
11361TIP3   OH234039   6.554   1.777   1.798
11361TIP3    H134040   6.619   1.805   1.862
11361TIP3    H234041   6.514   1.699   1.837
11362TIP3   OH234042   8.159   3.606   5.562
11362TIP3    H134043   8.144   3.623   5.655
11362TIP3    H234044   8.204   3.684   5.530
11363TIP3   OH234045   1.843   0.072   0.398
11363TIP3    H134046   1.776   0.140   0.399
11363TIP3    H234047   1.808   0.002   0.454
11364TIP3   OH234048   5.340   2.548   0.665
11364TIP3    H134049   5.287   2.495   0.606
11364TIP3    H234050   5.276   2.602   0.712
11365TIP3   OH234051   7.834   7.331   4.053
11365TIP3    H134052   7.924   7.312   4.027
11365TIP3    H234053   7.799   7.247   4.080
11366TIP3   OH234054   0.627   3.103   3.167
11366TIP3    H134055   0.571   3.050   3.224
11366TIP3    H234056   0.618   3.192   3.199
11367TIP3   OH234057   0.472   6.407   1.887
11367TIP3    H134058   0.422   6.331   1.856
11367TIP3    H234059   0.429   6.433   1.969
11368TIP3   OH234060   3.296   2.237   4.777
11368TIP3    H134061   3.268   2.329   4.781
11368TIP3    H234062   3.391   2.240   4.788
11369TIP3   OH234063   4.911   4.842   1.560
11369TIP3    H134064   4.863   4.759   1.554
11369TIP3    H234065   4.979   4.835   1.493
11370TIP3   OH234066   0.292   4.537   3.086
11370TIP3    H134067   0.220   4.475   3.076
11370TIP3    H234068   0.359   4.507   3.025
11371TIP3   OH234069   4.602   5.591   0.939
11371TIP3    H134070   4.598   5.651   1.014
11371TIP3    H234071   4.562   5.640   0.867
11372TIP3   OH234072   5.276   4.623   3.424
11372TIP3    H134073   5.276   4.695   3.361
11372TIP3    H234074   5.314   4.549   3.376
11373TIP3   OH234075   8.160   3.931   4.740
11373TIP3    H134076   8.165   3.849   4.691
11373TIP3    H234077   8.078   3.924   4.789
11374TIP3   OH234078   7.136   3.770   1.782
11374TIP3    H134079   7.117   3.863   1.769
11374TIP3    H234080   7.190   3.746   1.707
11375TIP3   OH234081   0.925   7.174   5.883
11375TIP3    H134082   0.856   7.140   5.826
11375TIP3    H234083   0.884   7.243   5.934
11376TIP3   OH234084   0.521   0.182   5.208
11376TIP3    H134085   0.602   0.196   5.257
11376TIP3    H234086   0.539   0.216   5.121
11377TIP3   OH234087   2.448   5.616   2.178
11377TIP3    H134088   2.505   5.648   2.248
11377TIP3    H234089   2.411   5.695   2.139
11378TIP3   OH234090   7.911   5.385   1.107
11378TIP3    H134091   7.909   5.480   1.110
11378TIP3    H234092   7.837   5.357   1.160
11379TIP3   OH234093   6.173   0.018   0.487
11379TIP3    H134094   6.230   0.086   0.451
11379TIP3    H234095   6.229  -0.060   0.493
11380TIP3   OH234096   6.894   7.764   1.217
11380TIP3    H134097   6.896   7.760   1.122
11380TIP3    H234098   6.962   7.827   1.240
11381TIP3   OH234099   6.707   4.381   3.711
11381TIP3    H134100   6.645   4.452   3.725
11381TIP3    H234101   6.722   4.379   3.617
11382TIP3   OH234102   3.862   3.453   2.895
11382TIP3    H134103   3.911   3.510   2.835
11382TIP3    H234104   3.853   3.370   2.847
11383TIP3   OH234105   0.170   6.461   4.788
11383TIP3    H134106   0.126   6.536   4.750
11383TIP3    H234107   0.241   6.442   4.726
11384TIP3   OH234108   1.790   6.056   4.427
11384TIP3    H134109   1.761   5.968   4.402
11384TIP3    H234110   1.818   6.095   4.344
11385TIP3   OH234111   3.170   7.818   2.662
11385TIP3    H134112   3.151   7.747   2.725
11385TIP3    H234113   3.126   7.791   2.582
11386TIP3   OH234114   1.121   0.115   1.505
11386TIP3    H134115   1.162   0.032   1.530
11386TIP3    H234116   1.189   0.161   1.456
11387TIP3   OH234117   7.800   0.895   5.579
11387TIP3    H134118   7.749   0.815   5.568
11387TIP3    H234119   7.789   0.918   5.672
11388TIP3   OH234120   2.787   0.157   0.416
11388TIP3    H134121   2.861   0.182   0.471
11388TIP3    H234122   2.724   0.229   0.426
11389TIP3   OH234123   7.485   2.361   1.041
11389TIP3    H134124   7.433   2.435   1.073
11389TIP3    H234125   7.423   2.305   0.995
11390TIP3   OH234126   7.054   6.695   0.468
11390TIP3    H134127   6.988   6.689   0.538
11390TIP3    H234128   7.128   6.644   0.501
11391TIP3   OH234129   1.971   1.995   4.575
11391TIP3    H134130   1.895   1.993   4.633
11391TIP3    H234131   2.016   1.912   4.593
11392TIP3   OH234132   7.763   0.758   1.681
11392TIP3    H134133   7.834   0.695   1.694
11392TIP3    H234134   7.797   0.818   1.615
11393TIP3   OH234135   1.863   5.540   5.165
11393TIP3    H134136   1.802   5.590   5.112
11393TIP3    H234137   1.942   5.535   5.111
11394TIP3   OH234138   8.087   3.701   3.722
11394TIP3    H134139   7.996   3.690   3.749
11394TIP3    H234140   8.103   3.628   3.663
11395TIP3   OH234141   7.987   5.127   6.079
11395TIP3    H134142   7.959   5.192   6.014
11395TIP3    H234143   8.063   5.166   6.121
11396TIP3   OH234144   6.640   2.770   0.540
11396TIP3    H134145   6.651   2.686   0.497
11396TIP3    H234146   6.725   2.789   0.579
11397TIP3   OH234147   1.405   3.308   2.166
11397TIP3    H134148   1.343   3.375   2.136
11397TIP3    H234149   1.356   3.226   2.160
11398TIP3   OH234150   7.249   0.046   6.524
11398TIP3    H134151   7.238  -0.045   6.552
11398TIP3    H234152   7.336   0.071   6.557
11399TIP3   OH234153   0.223   3.460   0.427
11399TIP3    H134154   0.258   3.373   0.446
11399TIP3    H234155   0.187   3.452   0.339
11400TIP3   OH234156  -0.007   6.708   3.857
11400TIP3    H134157  -0.009   6.615   3.835
11400TIP3    H234158   0.058   6.746   3.798
11401TIP3   OH234159   5.304   7.736   1.054
11401TIP3    H134160   5.368   7.778   1.111
11401TIP3    H234161   5.356   7.693   0.986
11402TIP3   OH234162   4.940   3.490   4.369
11402TIP3    H134163   4.953   3.581   4.342
11402TIP3    H234164   5.019   3.468   4.418
11403TIP3   OH234165   2.686   2.986   6.688
11403TIP3    H134166   2.594   2.959   6.690
11403TIP3    H234167   2.689   3.059   6.626
11404TIP3   OH234168   0.416   2.428   5.625
11404TIP3    H134169   0.505   2.434   5.591
11404TIP3    H234170   0.422   2.368   5.699
11405TIP3   OH234171   4.063   0.413   0.443
11405TIP3    H134172   4.033   0.360   0.516
11405TIP3    H234173   3.994   0.478   0.430
11406TIP3   OH234174   6.928   6.561   1.966
11406TIP3    H134175   6.960   6.598   2.049
11406TIP3    H234176   7.004   6.521   1.926
11407TIP3   OH234177   5.130   0.976   5.045
11407TIP3    H134178   5.081   0.920   4.985
11407TIP3    H234179   5.063   1.031   5.086
11408TIP3   OH234180   7.308   2.170   3.163
11408TIP3    H134181   7.384   2.205   3.209
11408TIP3    H234182   7.233   2.216   3.201
11409TIP3   OH234183   3.086   4.534   5.438
11409TIP3    H134184   3.154   4.602   5.430
11409TIP3    H234185   3.022   4.572   5.499
11410TIP3   OH234186   7.740   7.524   3.506
11410TIP3    H134187   7.721   7.616   3.525
11410TIP3    H234188   7.656   7.488   3.479
11411TIP3   OH234189   5.143   5.800   0.928
11411TIP3    H134190   5.083   5.856   0.879
11411TIP3    H234191   5.230   5.830   0.902
11412TIP3   OH234192   6.287   5.272   5.824
11412TIP3    H134193   6.293   5.334   5.897
11412TIP3    H234194   6.302   5.325   5.746
11413TIP3   OH234195   4.720   1.411   0.342
11413TIP3    H134196   4.777   1.359   0.285
11413TIP3    H234197   4.778   1.445   0.410
11414TIP3   OH234198   0.357   7.149   5.040
11414TIP3    H134199   0.442   7.125   5.004
11414TIP3    H234200   0.367   7.138   5.135
11415TIP3   OH234201   3.589   1.535   4.741
11415TIP3    H134202   3.584   1.605   4.805
11415TIP3    H234203   3.615   1.579   4.660
11416TIP3   OH234204   8.312   2.375   4.098
11416TIP3    H134205   8.314   2.381   4.003
11416TIP3    H234206   8.231   2.328   4.118
11417TIP3   OH234207   2.669   6.490   2.333
11417TIP3    H134208   2.605   6.422   2.351
11417TIP3    H234209   2.697   6.474   2.243
11418TIP3   OH234210   5.711   2.390   1.076
11418TIP3    H134211   5.760   2.377   0.994
11418TIP3    H234212   5.699   2.302   1.110
11419TIP3   OH234213   6.962   7.614   3.486
11419TIP3    H134214   7.005   7.698   3.502
11419TIP3    H234215   6.981   7.595   3.394
11420TIP3   OH234216   2.809   7.151   0.648
11420TIP3    H134217   2.729   7.173   0.697
11420TIP3    H234218   2.859   7.232   0.645
11421TIP3   OH234219   1.819   4.850   3.618
11421TIP3    H134220   1.766   4.929   3.605
11421TIP3    H234221   1.788   4.814   3.701
11422TIP3   OH234222   2.215   7.298   6.120
11422TIP3    H134223   2.120   7.313   6.114
11422TIP3    H234224   2.223   7.216   6.169
11423TIP3   OH234225   4.663   4.162   0.549
11423TIP3    H134226   4.697   4.103   0.483
11423TIP3    H234227   4.654   4.108   0.628
11424TIP3   OH234228   2.137   7.498   0.737
11424TIP3    H134229   2.140   7.524   0.645
11424TIP3    H234230   2.149   7.403   0.736
11425TIP3   OH234231   6.293   2.052   4.227
11425TIP3    H134232   6.214   2.037   4.280
11425TIP3    H234233   6.286   2.143   4.198
11426TIP3   OH234234   6.278   6.904   3.387
11426TIP3    H134235   6.303   6.859   3.306
11426TIP3    H234236   6.342   6.975   3.396
11427TIP3   OH234237   7.794   3.439   0.733
11427TIP3    H134238   7.795   3.349   0.764
11427TIP3    H234239   7.716   3.443   0.676
11428TIP3   OH234240   5.253   2.040   2.890
11428TIP3    H134241   5.225   2.019   2.979
11428TIP3    H234242   5.305   1.965   2.862
11429TIP3   OH234243   2.654   0.034   4.561
11429TIP3    H134244   2.624  -0.026   4.630
11429TIP3    H234245   2.576   0.049   4.507
11430TIP3   OH234246   6.173   4.568   5.859
11430TIP3    H134247   6.103   4.531   5.914
11430TIP3    H234248   6.141   4.655   5.835
11431TIP3   OH234249   0.332   5.715   0.372
11431TIP3    H134250   0.244   5.752   0.362
11431TIP3    H234251   0.355   5.683   0.284
11432TIP3   OH234252   2.747   5.563   0.861
11432TIP3    H134253   2.828   5.519   0.837
11432TIP3    H234254   2.753   5.650   0.821
11433TIP3   OH234255   7.460   6.237   0.914
11433TIP3    H134256   7.472   6.193   0.998
11433TIP3    H234257   7.381   6.290   0.924
11434TIP3   OH234258   6.378   2.188   5.215
11434TIP3    H134259   6.354   2.172   5.307
11434TIP3    H234260   6.345   2.276   5.197
11435TIP3   OH234261   2.756   5.249   0.757
11435TIP3    H134262   2.689   5.291   0.703
11435TIP3    H234263   2.804   5.193   0.697
11436TIP3   OH234264   4.818   4.890   1.819
11436TIP3    H134265   4.790   4.981   1.831
11436TIP3    H234266   4.864   4.890   1.735
11437TIP3   OH234267   0.993   6.427   4.366
11437TIP3    H134268   0.962   6.425   4.456
11437TIP3    H234269   0.930   6.373   4.318
11438TIP3   OH234270   8.206   4.846   0.818
11438TIP3    H134271   8.144   4.904   0.773
11438TIP3    H234272   8.216   4.884   0.905
11439TIP3   OH234273   1.057   2.287   2.539
11439TIP3    H134274   1.126   2.331   2.588
11439TIP3    H234275   1.044   2.342   2.461
11440TIP3   OH234276   0.336   1.277   2.788
11440TIP3    H134277   0.336   1.302   2.880
11440TIP3    H234278   0.428   1.277   2.763
11441TIP3   OH234279   7.348   2.936   0.585
11441TIP3    H134280   7.271   2.910   0.535
11441TIP3    H234281   7.410   2.967   0.519
11442TIP3   OH234282   4.736   6.230   0.146
11442TIP3    H134283   4.706   6.289   0.215
11442TIP3    H234284   4.790   6.165   0.192
11443TIP3   OH234285   4.375   6.488   2.774
11443TIP3    H134286   4.305   6.536   2.819
11443TIP3    H234287   4.390   6.411   2.828
11444TIP3   OH234288   5.082   1.645   6.297
11444TIP3    H134289   5.053   1.598   6.218
11444TIP3    H234290   5.031   1.606   6.368
11445TIP3   OH234291   5.993   5.851   0.175
11445TIP3    H134292   5.980   5.837   0.269
11445TIP3    H234293   6.044   5.775   0.147
11446TIP3   OH234294   5.623   3.893   6.672
11446TIP3    H134295   5.624   3.937   6.757
11446TIP3    H234296   5.705   3.919   6.630
11447TIP3   OH234297   5.901   4.881   3.579
11447TIP3    H134298   5.987   4.902   3.541
11447TIP3    H234299   5.850   4.846   3.505
11448TIP3   OH234300   8.058   4.755   0.396
11448TIP3    H134301   8.066   4.663   0.374
11448TIP3    H234302   8.019   4.755   0.484
11449TIP3   OH234303   1.951   0.505   5.653
11449TIP3    H134304   2.003   0.450   5.712
11449TIP3    H234305   1.864   0.466   5.655
11450TIP3   OH234306   7.030   7.288   1.682
11450TIP3    H134307   7.113   7.326   1.709
11450TIP3    H234308   7.038   7.278   1.587
11451TIP3   OH234309   3.142   5.158   0.428
11451TIP3    H134310   3.112   5.191   0.344
11451TIP3    H234311   3.089   5.079   0.443
11452TIP3   OH234312   3.528   0.956   4.700
11452TIP3    H134313   3.555   0.865   4.687
11452TIP3    H234314   3.432   0.953   4.700
11453TIP3   OH234315   6.959   5.443   6.734
11453TIP3    H134316   6.998   5.447   6.647
11453TIP3    H234317   6.866   5.427   6.719
11454TIP3   OH234318   1.251   6.642   6.061
11454TIP3    H134319   1.209   6.556   6.060
11454TIP3    H234320   1.252   6.669   5.970
11455TIP3   OH234321   0.920   0.289   3.992
11455TIP3    H134322   0.943   0.318   4.080
11455TIP3    H234323   0.989   0.324   3.936
11456TIP3   OH234324   5.919   7.162   2.995
11456TIP3    H134325   5.963   7.144   3.078
11456TIP3    H234326   5.937   7.255   2.979
11457TIP3   OH234327   5.424   3.244   5.171
11457TIP3    H134328   5.506   3.234   5.220
11457TIP3    H234329   5.404   3.337   5.176
11458TIP3   OH234330   3.251   3.781   3.979
11458TIP3    H134331   3.297   3.699   3.994
11458TIP3    H234332   3.203   3.768   3.898
11459TIP3   OH234333   7.397   5.161   5.912
11459TIP3    H134334   7.393   5.246   5.868
11459TIP3    H234335   7.390   5.183   6.005
11460TIP3   OH234336   1.133   3.313   3.563
11460TIP3    H134337   1.044   3.343   3.545
11460TIP3    H234338   1.189   3.377   3.520
11461TIP3   OH234339   4.148   4.384   6.634
11461TIP3    H134340   4.109   4.373   6.547
11461TIP3    H234341   4.240   4.400   6.617
11462TIP3   OH234342   7.287   1.569   1.529
11462TIP3    H134343   7.309   1.476   1.530
11462TIP3    H234344   7.354   1.610   1.584
11463TIP3   OH234345   2.827   0.464   0.191
11463TIP3    H134346   2.859   0.397   0.252
11463TIP3    H234347   2.735   0.441   0.177
11464TIP3   OH234348   6.987   5.636   0.707
11464TIP3    H134349   7.072   5.654   0.747
11464TIP3    H234350   6.952   5.723   0.686
11465TIP3   OH234351   1.658   6.267   0.795
11465TIP3    H134352   1.637   6.338   0.856
11465TIP3    H234353   1.666   6.189   0.851
11466TIP3   OH234354   4.615   4.399   3.421
11466TIP3    H134355   4.674   4.367   3.489
11466TIP3    H234356   4.566   4.470   3.462
11467TIP3   OH234357   6.366   4.563   2.221
11467TIP3    H134358   6.434   4.498   2.239
11467TIP3    H234359   6.397   4.608   2.142
11468TIP3   OH234360   8.245   3.109   5.464
11468TIP3    H134361   8.317   3.092   5.402
11468TIP3    H234362   8.279   3.082   5.549
11469TIP3   OH234363   6.023   4.771   6.671
11469TIP3    H134364   6.119   4.773   6.678
11469TIP3    H234365   6.006   4.707   6.602
11470TIP3   OH234366   3.908   2.765   2.900
11470TIP3    H134367   3.884   2.683   2.857
11470TIP3    H234368   3.884   2.834   2.837
11471TIP3   OH234369   6.725   0.822   3.794
11471TIP3    H134370   6.747   0.842   3.704
11471TIP3    H234371   6.783   0.749   3.818
11472TIP3   OH234372   4.415   5.038   6.348
11472TIP3    H134373   4.373   4.959   6.382
11472TIP3    H234374   4.442   5.086   6.426
11473TIP3   OH234375   6.973   2.846   1.496
11473TIP3    H134376   7.007   2.873   1.411
11473TIP3    H234377   6.926   2.764   1.478
11474TIP3   OH234378   2.043   1.618   5.288
11474TIP3    H134379   2.021   1.529   5.258
11474TIP3    H234380   1.972   1.641   5.347
11475TIP3   OH234381   0.518   1.218   0.217
11475TIP3    H134382   0.573   1.271   0.274
11475TIP3    H234383   0.560   1.223   0.131
11476TIP3   OH234384  -0.011   0.629   1.233
11476TIP3    H134385  -0.019   0.564   1.304
11476TIP3    H234386   0.060   0.596   1.179
11477TIP3   OH234387   2.791   6.469   1.001
11477TIP3    H134388   2.749   6.388   1.028
11477TIP3    H234389   2.857   6.486   1.067
11478TIP3   OH234390   6.897   0.597   3.801
11478TIP3    H134391   6.938   0.542   3.868
11478TIP3    H234392   6.871   0.536   3.733
11479TIP3   OH234393   4.167   6.582   6.210
11479TIP3    H134394   4.165   6.514   6.278
11479TIP3    H234395   4.101   6.646   6.237
11480TIP3   OH234396   5.924   7.324   1.259
11480TIP3    H134397   5.845   7.279   1.229
11480TIP3    H234398   5.970   7.347   1.179
11481TIP3   OH234399   2.906   5.553   1.670
11481TIP3    H134400   2.867   5.610   1.737
11481TIP3    H234401   2.997   5.544   1.697
11482TIP3   OH234402   5.142   5.303   3.347
11482TIP3    H134403   5.154   5.396   3.326
11482TIP3    H234404   5.088   5.302   3.425
11483TIP3   OH234405   5.432   7.320   5.894
11483TIP3    H134406   5.340   7.300   5.913
11483TIP3    H234407   5.440   7.309   5.799
11484TIP3   OH234408   3.794   6.231   3.194
11484TIP3    H134409   3.739   6.272   3.127
11484TIP3    H234410   3.738   6.229   3.272
11485TIP3   OH234411   4.536   2.481   1.646
11485TIP3    H134412   4.529   2.542   1.719
11485TIP3    H234413   4.448   2.477   1.609
11486TIP3   OH234414   6.522   5.297   2.117
11486TIP3    H134415   6.568   5.233   2.171
11486TIP3    H234416   6.556   5.382   2.145
11487TIP3   OH234417   6.187   6.577   2.968
11487TIP3    H134418   6.236   6.622   2.900
11487TIP3    H234419   6.141   6.647   3.015
11488TIP3   OH234420   5.422   4.374   4.891
11488TIP3    H134421   5.452   4.363   4.801
11488TIP3    H234422   5.475   4.446   4.925
11489TIP3   OH234423  -0.019   6.127   2.636
11489TIP3    H134424   0.013   6.098   2.551
11489TIP3    H234425  -0.013   6.223   2.633
11490TIP3   OH234426   0.538   1.949   4.493
11490TIP3    H134427   0.608   1.923   4.433
11490TIP3    H234428   0.491   2.017   4.446
11491TIP3   OH234429   1.206   1.637   6.217
11491TIP3    H134430   1.180   1.639   6.125
11491TIP3    H234431   1.135   1.591   6.262
11492TIP3   OH234432   3.274   2.121   3.919
11492TIP3    H134433   3.352   2.176   3.931
11492TIP3    H234434   3.245   2.139   3.830
11493TIP3   OH234435   5.628   3.870   5.003
11493TIP3    H134436   5.713   3.913   5.000
11493TIP3    H234437   5.640   3.791   4.950
11494TIP3   OH234438   3.481   1.591   3.250
11494TIP3    H134439   3.411   1.529   3.225
11494TIP3    H234440   3.462   1.612   3.341
11495TIP3   OH234441   1.993   1.160   1.481
11495TIP3    H134442   1.923   1.094   1.477
11495TIP3    H234443   1.968   1.216   1.555
11496TIP3   OH234444   3.157   5.216   3.579
11496TIP3    H134445   3.243   5.173   3.574
11496TIP3    H234446   3.123   5.192   3.665
11497TIP3   OH234447   6.754   0.294   4.367
11497TIP3    H134448   6.686   0.306   4.434
11497TIP3    H234449   6.825   0.250   4.413
11498TIP3   OH234450   2.219   0.141   2.196
11498TIP3    H134451   2.178   0.081   2.133
11498TIP3    H234452   2.303   0.163   2.156
11499TIP3   OH234453   5.216   6.203   5.425
11499TIP3    H134454   5.231   6.154   5.506
11499TIP3    H234455   5.148   6.153   5.379
11500TIP3   OH234456   3.720   6.422   2.833
11500TIP3    H134457   3.686   6.405   2.921
11500TIP3    H234458   3.664   6.491   2.798
11501TIP3   OH234459   7.279   4.791   6.024
11501TIP3    H134460   7.363   4.819   6.058
11501TIP3    H234461   7.217   4.858   6.051
11502TIP3   OH234462   3.570   3.732   4.257
11502TIP3    H134463   3.490   3.770   4.294
11502TIP3    H234464   3.547   3.641   4.240
11503TIP3   OH234465   6.279   3.365   0.813
11503TIP3    H134466   6.243   3.393   0.729
11503TIP3    H234467   6.212   3.308   0.851
11504TIP3   OH234468   2.231   3.252   2.989
11504TIP3    H134469   2.283   3.332   2.991
11504TIP3    H234470   2.288   3.186   2.949
11505TIP3   OH234471   3.444   2.339   1.838
11505TIP3    H134472   3.508   2.274   1.868
11505TIP3    H234473   3.443   2.329   1.743
11506TIP3   OH234474   0.689   6.045   0.433
11506TIP3    H134475   0.679   6.072   0.341
11506TIP3    H234476   0.642   5.962   0.438
11507TIP3   OH234477   3.303   3.543   1.273
11507TIP3    H134478   3.270   3.541   1.363
11507TIP3    H234479   3.245   3.485   1.224
11508TIP3   OH234480   1.812   1.391   3.454
11508TIP3    H134481   1.797   1.464   3.514
11508TIP3    H234482   1.789   1.426   3.368
11509TIP3   OH234483   7.069   5.783   5.979
11509TIP3    H134484   6.984   5.752   5.947
11509TIP3    H234485   7.080   5.741   6.064
11510TIP3   OH234486   1.722   0.256   2.393
11510TIP3    H134487   1.646   0.304   2.358
11510TIP3    H234488   1.790   0.269   2.327
11511TIP3   OH234489   3.971   6.293   5.205
11511TIP3    H134490   3.933   6.341   5.278
11511TIP3    H234491   4.062   6.278   5.230
11512TIP3   OH234492   6.597   6.527   5.459
11512TIP3    H134493   6.508   6.497   5.444
11512TIP3    H234494   6.652   6.451   5.442
11513TIP3   OH234495   2.543   0.770   6.233
11513TIP3    H134496   2.629   0.802   6.208
11513TIP3    H234497   2.527   0.696   6.175
11514TIP3   OH234498   5.516   4.240   4.624
11514TIP3    H134499   5.457   4.169   4.649
11514TIP3    H234500   5.600   4.197   4.608
11515TIP3   OH234501   4.001   0.697   2.546
11515TIP3    H134502   3.947   0.628   2.584
11515TIP3    H234503   4.073   0.708   2.609
11516TIP3   OH234504   2.354   0.417   6.588
11516TIP3    H134505   2.339   0.327   6.560
11516TIP3    H234506   2.347   0.469   6.507
11517TIP3   OH234507   6.138   7.090   6.340
11517TIP3    H134508   6.049   7.114   6.366
11517TIP3    H234509   6.127   7.049   6.254
11518TIP3   OH234510   7.723   3.777   3.427
11518TIP3    H134511   7.645   3.726   3.447
11518TIP3    H234512   7.714   3.857   3.479
11519TIP3   OH234513   6.438   1.129   3.644
11519TIP3    H134514   6.522   1.166   3.671
11519TIP3    H234515   6.388   1.121   3.726
11520TIP3   OH234516   4.227   0.831   0.268
11520TIP3    H134517   4.209   0.901   0.205
11520TIP3    H234518   4.228   0.875   0.353
11521TIP3   OH234519   0.495   5.808   5.020
11521TIP3    H134520   0.517   5.727   4.973
11521TIP3    H234521   0.419   5.785   5.073
11522TIP3   OH234522   2.640   6.211   0.856
11522TIP3    H134523   2.650   6.267   0.933
11522TIP3    H234524   2.642   6.122   0.890
11523TIP3   OH234525   7.822   7.007   1.677
11523TIP3    H134526   7.804   7.060   1.600
11523TIP3    H234527   7.877   6.936   1.645
11524TIP3   OH234528   7.587   4.849   4.345
11524TIP3    H134529   7.621   4.902   4.272
11524TIP3    H234530   7.507   4.895   4.372
11525TIP3   OH234531   6.255   3.286   4.483
11525TIP3    H134532   6.327   3.225   4.470
11525TIP3    H234533   6.215   3.296   4.397
11526TIP3   OH234534   4.653   1.902   3.940
11526TIP3    H134535   4.601   1.886   3.861
11526TIP3    H234536   4.736   1.937   3.907
11527TIP3   OH234537   0.379   7.552   0.375
11527TIP3    H134538   0.304   7.610   0.386
11527TIP3    H234539   0.443   7.583   0.439
11528TIP3   OH234540   3.379   1.084   1.556
11528TIP3    H134541   3.463   1.108   1.595
11528TIP3    H234542   3.316   1.095   1.628
11529TIP3   OH234543   5.753   1.340   0.957
11529TIP3    H134544   5.722   1.393   1.030
11529TIP3    H234545   5.847   1.358   0.952
11530TIP3   OH234546   6.429   1.664   5.531
11530TIP3    H134547   6.475   1.580   5.526
11530TIP3    H234548   6.460   1.713   5.455
11531TIP3   OH234549   0.341   6.115   6.517
11531TIP3    H134550   0.353   6.190   6.459
11531TIP3    H234551   0.303   6.153   6.597
11532TIP3   OH234552   2.700   5.804   2.887
11532TIP3    H134553   2.733   5.732   2.832
11532TIP3    H234554   2.608   5.812   2.861
11533TIP3   OH234555   3.492   5.987   6.677
11533TIP3    H134556   3.494   5.894   6.657
11533TIP3    H234557   3.418   6.021   6.628
11534TIP3   OH234558   5.129   2.908   5.476
11534TIP3    H134559   5.148   2.942   5.389
11534TIP3    H234560   5.042   2.868   5.468
11535TIP3   OH234561   1.345   0.180   5.999
11535TIP3    H134562   1.301   0.099   6.026
11535TIP3    H234563   1.361   0.168   5.905
11536TIP3   OH234564   7.015   4.258   5.500
11536TIP3    H134565   7.104   4.225   5.509
11536TIP3    H234566   7.009   4.330   5.564
11537TIP3   OH234567   0.749   0.190   2.540
11537TIP3    H134568   0.822   0.178   2.600
11537TIP3    H234569   0.679   0.228   2.593
11538TIP3   OH234570   5.774   0.633   1.547
11538TIP3    H134571   5.810   0.582   1.619
11538TIP3    H234572   5.830   0.710   1.540
11539TIP3   OH234573   3.992   4.417   1.451
11539TIP3    H134574   3.943   4.455   1.525
11539TIP3    H234575   3.957   4.328   1.444
11540TIP3   OH234576   8.177   2.291   5.903
11540TIP3    H134577   8.120   2.227   5.861
11540TIP3    H234578   8.246   2.307   5.838
11541TIP3   OH234579   0.713   5.112   0.186
11541TIP3    H134580   0.794   5.109   0.135
11541TIP3    H234581   0.692   5.020   0.203
11542TIP3   OH234582   2.768   5.042   1.958
11542TIP3    H134583   2.797   5.099   2.030
11542TIP3    H234584   2.835   5.054   1.890
11543TIP3   OH234585   2.300   6.115   1.322
11543TIP3    H134586   2.264   6.030   1.297
11543TIP3    H234587   2.349   6.098   1.402
11544TIP3   OH234588   6.858   0.127   1.426
11544TIP3    H134589   6.912   0.050   1.444
11544TIP3    H234590   6.881   0.153   1.337
11545TIP3   OH234591  -0.025   2.082   2.561
11545TIP3    H134592   0.071   2.080   2.560
11545TIP3    H234593  -0.047   2.174   2.577
11546TIP3   OH234594   7.188   5.143   0.360
11546TIP3    H134595   7.251   5.072   0.348
11546TIP3    H234596   7.181   5.185   0.274
11547TIP3   OH234597   0.704   5.531   0.771
11547TIP3    H134598   0.663   5.606   0.814
11547TIP3    H234599   0.797   5.554   0.767
11548TIP3   OH234600   7.747   0.951   5.847
11548TIP3    H134601   7.683   0.880   5.850
11548TIP3    H234602   7.743   0.990   5.935
11549TIP3   OH234603   2.819   5.656   3.086
11549TIP3    H134604   2.815   5.724   3.019
11549TIP3    H234605   2.731   5.654   3.123
11550TIP3   OH234606   1.103   2.136   5.214
11550TIP3    H134607   1.131   2.117   5.124
11550TIP3    H234608   1.094   2.232   5.216
11551TIP3   OH234609   3.186   5.123   5.128
11551TIP3    H134610   3.192   5.216   5.148
11551TIP3    H234611   3.224   5.114   5.041
11552TIP3   OH234612   6.996   4.356   1.571
11552TIP3    H134613   6.989   4.440   1.616
11552TIP3    H234614   6.916   4.349   1.520
11553TIP3   OH234615   2.457   1.982   1.052
11553TIP3    H134616   2.516   1.926   1.001
11553TIP3    H234617   2.429   2.049   0.989
11554TIP3   OH234618   5.120   2.642   1.693
11554TIP3    H134619   5.132   2.635   1.787
11554TIP3    H234620   5.206   2.626   1.655
11555TIP3   OH234621   4.132   1.711   4.115
11555TIP3    H134622   4.206   1.672   4.160
11555TIP3    H234623   4.123   1.798   4.153
11556TIP3   OH234624   4.979   5.077   2.456
11556TIP3    H134625   5.071   5.089   2.480
11556TIP3    H234626   4.954   5.161   2.416
11557TIP3   OH234627   7.282   5.385   5.741
11557TIP3    H134628   7.202   5.356   5.784
11557TIP3    H234629   7.281   5.341   5.656
11558TIP3   OH234630   7.132   2.821   3.722
11558TIP3    H134631   7.139   2.859   3.809
11558TIP3    H234632   7.187   2.877   3.667
11559TIP3   OH234633   7.584   0.119   0.689
11559TIP3    H134634   7.532   0.171   0.750
11559TIP3    H234635   7.638   0.064   0.745
11560TIP3   OH234636   5.981   2.656   4.701
11560TIP3    H134637   5.897   2.692   4.729
11560TIP3    H234638   5.984   2.673   4.607
11561TIP3   OH234639   6.154   4.084   2.416
11561TIP3    H134640   6.161   3.990   2.426
11561TIP3    H234641   6.226   4.108   2.358
11562TIP3   OH234642   7.559   6.826   0.477
11562TIP3    H134643   7.571   6.919   0.459
11562TIP3    H234644   7.594   6.781   0.400
11563TIP3   OH234645   6.646   1.271   2.111
11563TIP3    H134646   6.685   1.216   2.179
11563TIP3    H234647   6.699   1.255   2.033
11564TIP3   OH234648   2.098   6.481   3.150
11564TIP3    H134649   2.104   6.444   3.062
11564TIP3    H234650   2.017   6.533   3.149
11565TIP3   OH234651   3.917   1.273   6.277
11565TIP3    H134652   3.872   1.348   6.316
11565TIP3    H234653   3.864   1.251   6.200
11566TIP3   OH234654   7.858   0.066   6.675
11566TIP3    H134655   7.907   0.103   6.602
11566TIP3    H234656   7.846   0.139   6.736
11567TIP3   OH234657   1.333   0.138   0.154
11567TIP3    H134658   1.282   0.074   0.104
11567TIP3    H234659   1.289   0.221   0.138
11568TIP3   OH234660   8.084   3.458   3.946
11568TIP3    H134661   8.056   3.419   3.863
11568TIP3    H234662   8.173   3.489   3.928
11569TIP3   OH234663   6.348   6.338   4.459
11569TIP3    H134664   6.385   6.323   4.371
11569TIP3    H234665   6.256   6.316   4.450
11570TIP3   OH234666   2.848   2.774   2.235
11570TIP3    H134667   2.823   2.866   2.229
11570TIP3    H234668   2.856   2.757   2.329
11571TIP3   OH234669   6.199   7.001   6.749
11571TIP3    H134670   6.191   7.096   6.743
11571TIP3    H234671   6.284   6.982   6.708
11572TIP3   OH234672   6.250   4.765   3.154
11572TIP3    H134673   6.304   4.810   3.089
11572TIP3    H234674   6.174   4.734   3.104
11573TIP3   OH234675   7.936   3.136   3.615
11573TIP3    H134676   7.910   3.081   3.689
11573TIP3    H234677   8.002   3.084   3.569
11574TIP3   OH234678   3.318   0.196   4.762
11574TIP3    H134679   3.279   0.270   4.716
11574TIP3    H234680   3.276   0.196   4.848
11575TIP3   OH234681   6.739   6.278   5.380
11575TIP3    H134682   6.811   6.228   5.342
11575TIP3    H234683   6.661   6.225   5.365
11576TIP3   OH234684   6.142   6.697   1.438
11576TIP3    H134685   6.065   6.698   1.381
11576TIP3    H234686   6.196   6.625   1.405
11577TIP3   OH234687   0.972   4.896   4.314
11577TIP3    H134688   0.901   4.916   4.376
11577TIP3    H234689   1.010   4.981   4.293
11578TIP3   OH234690   8.107   4.933   2.318
11578TIP3    H134691   8.048   4.950   2.245
11578TIP3    H234692   8.156   5.014   2.329
11579TIP3   OH234693   6.228   6.429   0.751
11579TIP3    H134694   6.251   6.452   0.841
11579TIP3    H234695   6.176   6.349   0.759
11580TIP3   OH234696   2.648   7.392   6.715
11580TIP3    H134697   2.701   7.368   6.791
11580TIP3    H234698   2.629   7.485   6.727
11581TIP3   OH234699   2.227   4.302   0.727
11581TIP3    H134700   2.294   4.353   0.771
11581TIP3    H234701   2.242   4.318   0.634
11582TIP3   OH234702   5.033   3.028   6.618
11582TIP3    H134703   4.990   3.006   6.701
11582TIP3    H234704   5.044   3.123   6.620
11583TIP3   OH234705   7.195   5.822   3.149
11583TIP3    H134706   7.212   5.732   3.125
11583TIP3    H234707   7.279   5.866   3.140
11584TIP3   OH234708   2.431   2.278   3.633
11584TIP3    H134709   2.404   2.281   3.724
11584TIP3    H234710   2.350   2.283   3.583
11585TIP3   OH234711   1.781   2.878   1.061
11585TIP3    H134712   1.766   2.807   0.999
11585TIP3    H234713   1.868   2.861   1.097
11586TIP3   OH234714   2.011   0.318   3.412
11586TIP3    H134715   2.034   0.262   3.337
11586TIP3    H234716   2.018   0.407   3.378
11587TIP3   OH234717   5.810   3.637   6.686
11587TIP3    H134718   5.871   3.598   6.748
11587TIP3    H234719   5.857   3.637   6.603
11588TIP3   OH234720   7.052   2.901   4.321
11588TIP3    H134721   6.987   2.830   4.314
11588TIP3    H234722   7.025   2.951   4.398
11589TIP3   OH234723   7.525   7.216   3.199
11589TIP3    H134724   7.450   7.195   3.143
11589TIP3    H234725   7.591   7.250   3.139
11590TIP3   OH234726   2.965   5.194   5.647
11590TIP3    H134727   3.031   5.216   5.712
11590TIP3    H234728   2.978   5.101   5.630
11591TIP3   OH234729   2.304   2.565   4.645
11591TIP3    H134730   2.253   2.643   4.663
11591TIP3    H234731   2.381   2.572   4.701
11592TIP3   OH234732   1.835   4.212   1.997
11592TIP3    H134733   1.887   4.192   2.075
11592TIP3    H234734   1.854   4.304   1.978
11593TIP3   OH234735   7.423   0.480   3.809
11593TIP3    H134736   7.378   0.556   3.845
11593TIP3    H234737   7.514   0.506   3.800
11594TIP3   OH234738   4.067   0.423   3.829
11594TIP3    H134739   4.148   0.371   3.825
11594TIP3    H234740   4.030   0.415   3.741
11595TIP3   OH234741   1.435   5.940   3.679
11595TIP3    H134742   1.391   5.964   3.598
11595TIP3    H234743   1.432   6.019   3.733
11596TIP3   OH234744   6.955   1.653   3.700
11596TIP3    H134745   7.042   1.628   3.670
11596TIP3    H234746   6.902   1.652   3.620
11597TIP3   OH234747   1.538   3.057   2.876
11597TIP3    H134748   1.536   3.026   2.785
11597TIP3    H234749   1.453   3.099   2.889
11598TIP3   OH234750   2.473   3.768   5.577
11598TIP3    H134751   2.504   3.843   5.626
11598TIP3    H234752   2.543   3.749   5.514
11599TIP3   OH234753   3.116   2.448   0.224
11599TIP3    H134754   3.066   2.368   0.240
11599TIP3    H234755   3.202   2.432   0.264
11600TIP3   OH234756   5.709   0.305   1.818
11600TIP3    H134757   5.787   0.360   1.818
11600TIP3    H234758   5.665   0.325   1.735
11601TIP3   OH234759   0.657   4.343   5.184
11601TIP3    H134760   0.616   4.258   5.170
11601TIP3    H234761   0.591   4.406   5.156
11602TIP3   OH234762   0.179   5.794   6.327
11602TIP3    H134763   0.143   5.832   6.407
11602TIP3    H234764   0.203   5.705   6.350
11603TIP3   OH234765   5.598   7.539   5.968
11603TIP3    H134766   5.537   7.468   5.949
11603TIP3    H234767   5.549   7.619   5.949
11604TIP3   OH234768   6.207   5.426   5.599
11604TIP3    H134769   6.153   5.453   5.525
11604TIP3    H234770   6.159   5.455   5.676
11605TIP3   OH234771   1.084   1.894   5.762
11605TIP3    H134772   1.134   1.891   5.843
11605TIP3    H234773   1.137   1.843   5.700
11606TIP3   OH234774   5.533   4.909   2.659
11606TIP3    H134775   5.606   4.864   2.700
11606TIP3    H234776   5.481   4.840   2.618
11607TIP3   OH234777   4.195   1.257   1.702
11607TIP3    H134778   4.158   1.289   1.784
11607TIP3    H234779   4.283   1.226   1.726
11608TIP3   OH234780   4.266   4.591   0.886
11608TIP3    H134781   4.349   4.629   0.914
11608TIP3    H234782   4.200   4.642   0.932
11609TIP3   OH234783   3.076   0.729   4.934
11609TIP3    H134784   3.116   0.731   5.021
11609TIP3    H234785   3.045   0.639   4.923
11610TIP3   OH234786   2.465   5.312   5.799
11610TIP3    H134787   2.529   5.380   5.777
11610TIP3    H234788   2.484   5.289   5.890
11611TIP3   OH234789   4.242   1.921   2.591
11611TIP3    H134790   4.267   1.835   2.557
11611TIP3    H234791   4.223   1.973   2.513
11612TIP3   OH234792   0.110   6.498   2.346
11612TIP3    H134793   0.045   6.504   2.276
11612TIP3    H234794   0.161   6.419   2.325
11613TIP3   OH234795   4.534   0.467   1.274
11613TIP3    H134796   4.453   0.499   1.234
11613TIP3    H234797   4.506   0.400   1.336
11614TIP3   OH234798   0.924   6.410   1.677
11614TIP3    H134799   0.984   6.351   1.632
11614TIP3    H234800   0.870   6.352   1.732
11615TIP3   OH234801   5.939   5.762   0.965
11615TIP3    H134802   5.945   5.687   0.905
11615TIP3    H234803   5.915   5.724   1.049
11616TIP3   OH234804   4.244   3.170   1.479
11616TIP3    H134805   4.232   3.160   1.574
11616TIP3    H234806   4.278   3.086   1.450
11617TIP3   OH234807   4.485   5.727   5.954
11617TIP3    H134808   4.456   5.775   5.877
11617TIP3    H234809   4.432   5.762   6.025
11618TIP3   OH234810   6.876   2.442   3.330
11618TIP3    H134811   6.840   2.516   3.379
11618TIP3    H234812   6.888   2.476   3.241
11619TIP3   OH234813   3.708   6.085   1.964
11619TIP3    H134814   3.750   6.044   2.039
11619TIP3    H234815   3.673   6.167   1.999
11620TIP3   OH234816   2.148   7.092   0.523
11620TIP3    H134817   2.243   7.083   0.522
11620TIP3    H234818   2.115   7.002   0.532
11621TIP3   OH234819   5.091   2.367   3.560
11621TIP3    H134820   5.177   2.340   3.593
11621TIP3    H234821   5.109   2.444   3.507
11622TIP3   OH234822   4.558   7.453   2.419
11622TIP3    H134823   4.540   7.362   2.444
11622TIP3    H234824   4.477   7.483   2.378
11623TIP3   OH234825   3.178   6.837   5.383
11623TIP3    H134826   3.169   6.921   5.338
11623TIP3    H234827   3.143   6.773   5.321
11624TIP3   OH234828   6.592   2.320   2.249
11624TIP3    H134829   6.600   2.269   2.329
11624TIP3    H234830   6.572   2.257   2.181
11625TIP3   OH234831   1.783   4.098   2.424
11625TIP3    H134832   1.750   4.078   2.336
11625TIP3    H234833   1.859   4.041   2.434
11626TIP3   OH234834   2.342   4.230   5.961
11626TIP3    H134835   2.339   4.305   6.021
11626TIP3    H234836   2.428   4.191   5.977
11627TIP3   OH234837   2.713   1.548   5.922
11627TIP3    H134838   2.710   1.628   5.870
11627TIP3    H234839   2.651   1.489   5.880
11628TIP3   OH234840   0.940   1.703   4.129
11628TIP3    H134841   1.015   1.644   4.123
11628TIP3    H234842   0.879   1.670   4.063
11629TIP3   OH234843   5.631   0.836   2.631
11629TIP3    H134844   5.701   0.843   2.566
11629TIP3    H234845   5.639   0.916   2.683
11630TIP3   OH234846   2.496   6.860   6.532
11630TIP3    H134847   2.437   6.832   6.462
11630TIP3    H234848   2.444   6.922   6.583
11631TIP3   OH234849   2.598   3.758   2.526
11631TIP3    H134850   2.507   3.741   2.550
11631TIP3    H234851   2.646   3.755   2.610
11632TIP3   OH234852   8.111   6.332   0.670
11632TIP3    H134853   8.060   6.364   0.596
11632TIP3    H234854   8.190   6.294   0.630
11633TIP3   OH234855   6.428   6.814   1.366
11633TIP3    H134856   6.365   6.853   1.426
11633TIP3    H234857   6.392   6.728   1.344
11634TIP3   OH234858   2.854   6.850   6.661
11634TIP3    H134859   2.921   6.913   6.688
11634TIP3    H234860   2.780   6.904   6.634
11635TIP3   OH234861   1.763   6.432   6.013
11635TIP3    H134862   1.703   6.484   5.961
11635TIP3    H234863   1.757   6.469   6.101
11636TIP3   OH234864   2.385   0.470   0.855
11636TIP3    H134865   2.467   0.516   0.838
11636TIP3    H234866   2.335   0.478   0.773
11637TIP3   OH234867   3.307   2.388   1.388
11637TIP3    H134868   3.215   2.371   1.369
11637TIP3    H234869   3.345   2.411   1.303
11638TIP3   OH234870   2.764   1.224   3.494
11638TIP3    H134871   2.737   1.156   3.555
11638TIP3    H234872   2.774   1.302   3.548
11639TIP3   OH234873   8.004   4.579   6.389
11639TIP3    H134874   8.032   4.648   6.449
11639TIP3    H234875   8.085   4.546   6.350
11640TIP3   OH234876   3.045   5.849   1.603
11640TIP3    H134877   2.993   5.890   1.534
11640TIP3    H234878   3.062   5.760   1.570
11641TIP3   OH234879   1.460   7.603   0.469
11641TIP3    H134880   1.415   7.575   0.550
11641TIP3    H234881   1.421   7.688   0.448
11642TIP3   OH234882   7.563   7.456   4.541
11642TIP3    H134883   7.503   7.383   4.556
11642TIP3    H234884   7.552   7.512   4.618
11643TIP3   OH234885   5.370   2.225   3.690
11643TIP3    H134886   5.366   2.290   3.760
11643TIP3    H234887   5.456   2.183   3.701
11644TIP3   OH234888   8.284   2.682   5.237
11644TIP3    H134889   8.297   2.694   5.143
11644TIP3    H234890   8.234   2.759   5.264
11645TIP3   OH234891   5.601   7.590   0.171
11645TIP3    H134892   5.601   7.682   0.197
11645TIP3    H234893   5.583   7.543   0.253
11646TIP3   OH234894   7.674   6.566   6.466
11646TIP3    H134895   7.631   6.493   6.512
11646TIP3    H234896   7.686   6.633   6.533
11647TIP3   OH234897   5.429   5.743   5.220
11647TIP3    H134898   5.507   5.725   5.167
11647TIP3    H234899   5.356   5.712   5.167
11648TIP3   OH234900   6.261   2.817   4.399
11648TIP3    H134901   6.321   2.831   4.326
11648TIP3    H234902   6.279   2.889   4.459
11649TIP3   OH234903   0.810   3.677   6.327
11649TIP3    H134904   0.849   3.701   6.243
11649TIP3    H234905   0.885   3.667   6.386
11650TIP3   OH234906   0.018   3.757   5.832
11650TIP3    H134907   0.086   3.797   5.884
11650TIP3    H234908   0.064   3.715   5.759
11651TIP3   OH234909   1.859   2.229   5.284
11651TIP3    H134910   1.769   2.222   5.313
11651TIP3    H234911   1.893   2.139   5.289
11652TIP3   OH234912   6.517   0.099   0.177
11652TIP3    H134913   6.535   0.192   0.169
11652TIP3    H234914   6.515   0.067   0.087
11653TIP3   OH234915   5.392   5.939   0.886
11653TIP3    H134916   5.462   5.936   0.821
11653TIP3    H234917   5.413   6.016   0.940
11654TIP3   OH234918   7.603   7.252   6.319
11654TIP3    H134919   7.695   7.273   6.335
11654TIP3    H234920   7.563   7.251   6.406
11655TIP3   OH234921   6.068   4.276   5.449
11655TIP3    H134922   6.040   4.197   5.493
11655TIP3    H234923   6.059   4.256   5.355
11656TIP3   OH234924   4.886   1.262   5.330
11656TIP3    H134925   4.859   1.354   5.328
11656TIP3    H234926   4.964   1.258   5.275
11657TIP3   OH234927   4.525   2.465   4.097
11657TIP3    H134928   4.473   2.385   4.096
11657TIP3    H234929   4.470   2.528   4.145
11658TIP3   OH234930   6.229   7.223   4.848
11658TIP3    H134931   6.203   7.284   4.917
11658TIP3    H234932   6.251   7.279   4.774
11659TIP3   OH234933   0.917   4.344   1.555
11659TIP3    H134934   0.908   4.330   1.649
11659TIP3    H234935   0.998   4.298   1.531
11660TIP3   OH234936   1.560   3.159   6.685
11660TIP3    H134937   1.520   3.072   6.684
11660TIP3    H234938   1.525   3.203   6.607
11661TIP3   OH234939   5.650   2.691   1.905
11661TIP3    H134940   5.655   2.784   1.881
11661TIP3    H234941   5.646   2.692   2.001
11662TIP3   OH234942   6.918   7.626   5.310
11662TIP3    H134943   6.972   7.552   5.282
11662TIP3    H234944   6.896   7.607   5.401
11663TIP3   OH234945   5.337   6.654   5.713
11663TIP3    H134946   5.292   6.599   5.648
11663TIP3    H234947   5.413   6.689   5.666
11664TIP3   OH234948   2.076   6.672   4.926
11664TIP3    H134949   2.125   6.593   4.905
11664TIP3    H234950   2.138   6.743   4.907
11665TIP3   OH234951   1.312   7.365   2.509
11665TIP3    H134952   1.361   7.446   2.504
11665TIP3    H234953   1.373   7.298   2.479
11666TIP3   OH234954   3.393   2.354   0.261
11666TIP3    H134955   3.480   2.359   0.300
11666TIP3    H234956   3.356   2.271   0.293
11667TIP3   OH234957   4.048   3.375   2.526
11667TIP3    H134958   4.059   3.436   2.453
11667TIP3    H234959   4.136   3.360   2.559
11668TIP3   OH234960   1.139   5.954   0.468
11668TIP3    H134961   1.055   5.994   0.488
11668TIP3    H234962   1.203   6.023   0.488
11669TIP3   OH234963   0.828   1.742   3.705
11669TIP3    H134964   0.797   1.652   3.716
11669TIP3    H234965   0.751   1.795   3.725
11670TIP3   OH234966   3.827   7.692   4.942
11670TIP3    H134967   3.903   7.693   4.883
11670TIP3    H234968   3.849   7.755   5.011
11671TIP3   OH234969   6.499   5.887   0.332
11671TIP3    H134970   6.488   5.829   0.408
11671TIP3    H234971   6.412   5.925   0.319
11672TIP3   OH234972   4.663   2.167   4.323
11672TIP3    H134973   4.651   2.179   4.229
11672TIP3    H234974   4.574   2.170   4.359
11673TIP3   OH234975   4.399   6.941   5.083
11673TIP3    H134976   4.480   6.926   5.132
11673TIP3    H234977   4.329   6.924   5.146
11674TIP3   OH234978   2.950   3.292   6.384
11674TIP3    H134979   2.994   3.207   6.381
11674TIP3    H234980   2.987   3.336   6.461
11675TIP3   OH234981   0.991   5.338   1.879
11675TIP3    H134982   1.025   5.425   1.857
11675TIP3    H234983   1.056   5.278   1.843
11676TIP3   OH234984   1.604   3.666   5.917
11676TIP3    H134985   1.562   3.744   5.952
11676TIP3    H234986   1.545   3.636   5.848
11677TIP3   OH234987   1.750   0.781   1.380
11677TIP3    H134988   1.675   0.721   1.387
11677TIP3    H234989   1.818   0.741   1.433
11678TIP3   OH234990   3.962   3.764   2.404
11678TIP3    H134991   4.006   3.684   2.375
11678TIP3    H234992   3.880   3.735   2.442
11679TIP3   OH234993   0.694   4.372   5.968
11679TIP3    H134994   0.679   4.437   5.899
11679TIP3    H234995   0.774   4.328   5.942
11680TIP3   OH234996   7.682   4.550   5.101
11680TIP3    H134997   7.618   4.482   5.082
11680TIP3    H234998   7.723   4.570   5.017
11681TIP3   OH234999   1.368   4.342   4.416
11681TIP3    H135000   1.362   4.366   4.324
11681TIP3    H235001   1.430   4.404   4.453
11682TIP3   OH235002   7.381   3.577   2.158
11682TIP3    H135003   7.425   3.538   2.083
11682TIP3    H235004   7.322   3.642   2.120
11683TIP3   OH235005   2.688   7.638   2.121
11683TIP3    H135006   2.751   7.710   2.124
11683TIP3    H235007   2.652   7.634   2.209
11684TIP3   OH235008   6.289   6.184   1.925
11684TIP3    H135009   6.313   6.093   1.911
11684TIP3    H235010   6.218   6.201   1.863
11685TIP3   OH235011   1.475   3.097   1.731
11685TIP3    H135012   1.393   3.132   1.767
11685TIP3    H235013   1.531   3.087   1.808
11686TIP3   OH235014   8.212   3.429   2.472
11686TIP3    H135015   8.207   3.479   2.391
11686TIP3    H235016   8.230   3.495   2.539
11687TIP3   OH235017   6.290   7.091   0.112
11687TIP3    H135018   6.200   7.063   0.094
11687TIP3    H235019   6.334   7.012   0.143
11688TIP3   OH235020   7.954   1.480   3.193
11688TIP3    H135021   8.008   1.413   3.151
11688TIP3    H235022   7.891   1.431   3.246
11689TIP3   OH235023   0.866   3.996   6.062
11689TIP3    H135024   0.807   4.008   6.136
11689TIP3    H235025   0.834   3.917   6.019
11690TIP3   OH235026   4.978   0.293   3.836
11690TIP3    H135027   4.973   0.258   3.926
11690TIP3    H235028   4.953   0.219   3.781
11691TIP3   OH235029   6.369   6.201   2.826
11691TIP3    H135030   6.288   6.236   2.788
11691TIP3    H235031   6.381   6.116   2.783
11692TIP3   OH235032   6.696   5.223   4.065
11692TIP3    H135033   6.614   5.195   4.107
11692TIP3    H235034   6.761   5.158   4.094
11693TIP3   OH235035   8.094   1.819   0.183
11693TIP3    H135036   8.185   1.850   0.190
11693TIP3    H235037   8.074   1.784   0.270
11694TIP3   OH235038   2.506   4.814   4.946
11694TIP3    H135039   2.427   4.825   4.999
11694TIP3    H235040   2.473   4.784   4.861
11695TIP3   OH235041   0.075   6.960   0.097
11695TIP3    H135042   0.025   6.950   0.016
11695TIP3    H235043   0.020   6.920   0.164
11696TIP3   OH235044   0.867   3.975   1.366
11696TIP3    H135045   0.814   3.897   1.383
11696TIP3    H235046   0.938   3.970   1.430
11697TIP3   OH235047   5.487   4.716   0.126
11697TIP3    H135048   5.449   4.630   0.147
11697TIP3    H235049   5.415   4.765   0.088
11698TIP3   OH235050   3.210   2.321   3.206
11698TIP3    H135051   3.142   2.256   3.191
11698TIP3    H235052   3.181   2.398   3.156
11699TIP3   OH235053   1.243   0.070   4.800
11699TIP3    H135054   1.301   0.081   4.875
11699TIP3    H235055   1.298   0.084   4.724
11700TIP3   OH235056   5.300   2.333   3.237
11700TIP3    H135057   5.335   2.395   3.301
11700TIP3    H235058   5.369   2.269   3.224
11701TIP3   OH235059   6.813   0.086   5.384
11701TIP3    H135060   6.789   0.168   5.340
11701TIP3    H235061   6.773   0.092   5.471
11702TIP3   OH235062   7.328   2.927   2.644
11702TIP3    H135063   7.348   3.002   2.700
11702TIP3    H235064   7.338   2.961   2.555
11703TIP3   OH235065   2.374  -0.007   2.899
11703TIP3    H135066   2.330   0.004   2.815
11703TIP3    H235067   2.412   0.079   2.918
11704TIP3   OH235068   4.971   2.253   1.514
11704TIP3    H135069   5.022   2.240   1.594
11704TIP3    H235070   4.914   2.177   1.509
11705TIP3   OH235071   2.935   4.431   5.211
11705TIP3    H135072   2.903   4.447   5.300
11705TIP3    H235073   2.980   4.513   5.187
11706TIP3   OH235074   2.579   4.356   4.828
11706TIP3    H135075   2.494   4.315   4.845
11706TIP3    H235076   2.605   4.394   4.912
11707TIP3   OH235077   6.360   5.908   2.002
11707TIP3    H135078   6.368   5.829   1.949
11707TIP3    H235079   6.269   5.907   2.033
11708TIP3   OH235080   6.111   3.463   0.212
11708TIP3    H135081   6.133   3.556   0.202
11708TIP3    H235082   6.138   3.423   0.129
11709TIP3   OH235083   3.876   7.566   5.676
11709TIP3    H135084   3.837   7.504   5.738
11709TIP3    H235085   3.916   7.511   5.609
11710TIP3   OH235086   1.251   0.492   6.028
11710TIP3    H135087   1.344   0.507   6.047
11710TIP3    H235088   1.245   0.398   6.011
11711TIP3   OH235089   4.117   7.498   0.562
11711TIP3    H135090   4.186   7.523   0.623
11711TIP3    H235091   4.119   7.402   0.562
11712TIP3   OH235092   1.010   6.165   5.105
11712TIP3    H135093   1.068   6.099   5.069
11712TIP3    H235094   0.922   6.128   5.096
11713TIP3   OH235095   2.273   6.180   6.137
11713TIP3    H135096   2.237   6.167   6.225
11713TIP3    H235097   2.286   6.092   6.102
11714TIP3   OH235098   6.616   2.474   4.922
11714TIP3    H135099   6.584   2.498   5.009
11714TIP3    H235100   6.604   2.553   4.869
11715TIP3   OH235101   2.820   0.937   3.858
11715TIP3    H135102   2.814   0.992   3.936
11715TIP3    H235103   2.911   0.907   3.856
11716TIP3   OH235104   2.110   0.467   0.969
11716TIP3    H135105   2.122   0.554   0.932
11716TIP3    H235106   2.199   0.434   0.982
11717TIP3   OH235107   6.235   3.979   0.309
11717TIP3    H135108   6.169   4.017   0.367
11717TIP3    H235109   6.317   3.985   0.358
11718TIP3   OH235110   1.043   6.643   1.744
11718TIP3    H135111   0.991   6.566   1.722
11718TIP3    H235112   1.085   6.668   1.661
11719TIP3   OH235113   5.663   6.817   4.872
11719TIP3    H135114   5.695   6.849   4.956
11719TIP3    H235115   5.742   6.790   4.825
11720TIP3   OH235116   2.694   1.689   3.611
11720TIP3    H135117   2.681   1.594   3.608
11720TIP3    H235118   2.671   1.719   3.523
11721TIP3   OH235119   6.902   7.481   2.957
11721TIP3    H135120   6.941   7.412   2.904
11721TIP3    H235121   6.856   7.435   3.027
11722TIP3   OH235122   3.283   2.660   0.472
11722TIP3    H135123   3.368   2.689   0.505
11722TIP3    H235124   3.294   2.656   0.377
11723TIP3   OH235125   2.592   0.521   4.657
11723TIP3    H135126   2.635   0.562   4.582
11723TIP3    H235127   2.617   0.577   4.731
11724TIP3   OH235128   6.434   4.624   0.481
11724TIP3    H135129   6.525   4.634   0.454
11724TIP3    H235130   6.432   4.539   0.527
11725TIP3   OH235131   8.033   0.490   0.367
11725TIP3    H135132   7.948   0.451   0.386
11725TIP3    H235133   8.081   0.486   0.451
11726TIP3   OH235134   1.718   4.967   5.155
11726TIP3    H135135   1.721   5.063   5.163
11726TIP3    H235136   1.665   4.952   5.077
11727TIP3   OH235137   3.073   6.533   1.190
11727TIP3    H135138   3.114   6.619   1.199
11727TIP3    H235139   3.147   6.472   1.183
11728TIP3   OH235140   1.586   2.804   4.618
11728TIP3    H135141   1.520   2.840   4.678
11728TIP3    H235142   1.668   2.847   4.645
11729TIP3   OH235143   6.523   3.121   3.261
11729TIP3    H135144   6.498   3.120   3.169
11729TIP3    H235145   6.606   3.169   3.263
11730TIP3   OH235146   4.047   0.733   6.299
11730TIP3    H135147   4.028   0.734   6.205
11730TIP3    H235148   4.138   0.704   6.305
11731TIP3   OH235149   6.671   7.358   6.532
11731TIP3    H135150   6.704   7.386   6.617
11731TIP3    H235151   6.730   7.399   6.469
11732TIP3   OH235152   4.411   4.441   5.086
11732TIP3    H135153   4.490   4.464   5.134
11732TIP3    H235154   4.394   4.350   5.110
11733TIP3   OH235155   7.126   3.413   3.161
11733TIP3    H135156   7.091   3.479   3.101
11733TIP3    H235157   7.215   3.441   3.179
11734TIP3   OH235158   4.539   7.792   4.136
11734TIP3    H135159   4.505   7.780   4.225
11734TIP3    H235160   4.477   7.852   4.094
11735TIP3   OH235161   1.067   3.847   6.495
11735TIP3    H135162   1.146   3.795   6.511
11735TIP3    H235163   1.009   3.826   6.568
11736TIP3   OH235164   0.594   3.869   3.946
11736TIP3    H135165   0.642   3.817   4.009
11736TIP3    H235166   0.633   3.956   3.950
11737TIP3   OH235167   2.593   6.494   0.712
11737TIP3    H135168   2.497   6.489   0.717
11737TIP3    H235169   2.622   6.464   0.798
11738TIP3   OH235170   0.259   7.543   2.281
11738TIP3    H135171   0.208   7.507   2.209
11738TIP3    H235172   0.235   7.490   2.357
11739TIP3   OH235173   7.627   1.395   0.804
11739TIP3    H135174   7.591   1.466   0.750
11739TIP3    H235175   7.686   1.348   0.745
11740TIP3   OH235176   7.622   1.049   1.813
11740TIP3    H135177   7.636   0.991   1.889
11740TIP3    H235178   7.618   0.989   1.738
11741TIP3   OH235179   5.600   3.330   0.457
11741TIP3    H135180   5.549   3.368   0.385
11741TIP3    H235181   5.691   3.333   0.426
11742TIP3   OH235182   1.067   2.352   0.545
11742TIP3    H135183   1.090   2.441   0.517
11742TIP3    H235184   1.148   2.302   0.532
11743TIP3   OH235185   5.001   4.069   1.841
11743TIP3    H135186   5.066   4.137   1.859
11743TIP3    H235187   4.921   4.117   1.820
11744TIP3   OH235188   7.170   6.942   1.326
11744TIP3    H135189   7.124   7.014   1.283
11744TIP3    H235190   7.254   6.937   1.280
11745TIP3   OH235191   3.186   4.599   2.264
11745TIP3    H135192   3.166   4.558   2.179
11745TIP3    H235193   3.224   4.529   2.316
11746TIP3   OH235194   5.115   0.679   2.147
11746TIP3    H135195   5.046   0.683   2.214
11746TIP3    H235196   5.189   0.638   2.192
11747TIP3   OH235197   7.478   7.004   5.762
11747TIP3    H135198   7.397   7.047   5.789
11747TIP3    H235199   7.486   6.928   5.820
11748TIP3   OH235200   1.351   3.958   0.028
11748TIP3    H135201   1.266   3.972  -0.015
11748TIP3    H235202   1.342   4.001   0.113
11749TIP3   OH235203   4.474   4.624   5.298
11749TIP3    H135204   4.478   4.720   5.306
11749TIP3    H235205   4.546   4.603   5.239
11750TIP3   OH235206   3.650   4.009   2.267
11750TIP3    H135207   3.635   4.051   2.182
11750TIP3    H235208   3.563   3.981   2.296
11751TIP3   OH235209   6.685   4.439   1.714
11751TIP3    H135210   6.657   4.528   1.696
11751TIP3    H235211   6.762   4.449   1.770
11752TIP3   OH235212   0.846   5.123   5.921
11752TIP3    H135213   0.871   5.214   5.904
11752TIP3    H235214   0.920   5.071   5.888
11753TIP3   OH235215   0.709   7.009   3.841
11753TIP3    H135216   0.748   7.026   3.927
11753TIP3    H235217   0.664   6.925   3.851
11754TIP3   OH235218   1.310   3.309   0.298
11754TIP3    H135219   1.393   3.262   0.303
11754TIP3    H235220   1.244   3.244   0.321
11755TIP3   OH235221   4.498   7.761   5.104
11755TIP3    H135222   4.463   7.672   5.106
11755TIP3    H235223   4.561   7.761   5.031
11756TIP3   OH235224   4.940   3.028   0.996
11756TIP3    H135225   4.865   3.087   0.985
11756TIP3    H235226   4.904   2.941   0.982
11757TIP3   OH235227   2.854   2.558   4.083
11757TIP3    H135228   2.908   2.637   4.076
11757TIP3    H235229   2.844   2.545   4.177
11758TIP3   OH235230   7.958   0.882   4.340
11758TIP3    H135231   7.999   0.812   4.289
11758TIP3    H235232   8.025   0.949   4.347
11759TIP3   OH235233   8.097   2.310   6.765
11759TIP3    H135234   8.042   2.243   6.724
11759TIP3    H235235   8.173   2.317   6.708
11760TIP3   OH235236   7.849   3.927   2.603
11760TIP3    H135237   7.810   3.967   2.525
11760TIP3    H235238   7.830   3.834   2.593
11761TIP3   OH235239   4.417   0.844   1.753
11761TIP3    H135240   4.364   0.830   1.832
11761TIP3    H235241   4.468   0.922   1.771
11762TIP3   OH235242   3.132   6.423   6.109
11762TIP3    H135243   3.190   6.444   6.037
11762TIP3    H235244   3.076   6.353   6.075
11763TIP3   OH235245   0.720   2.800   1.475
11763TIP3    H135246   0.734   2.736   1.405
11763TIP3    H235247   0.793   2.786   1.535
11764TIP3   OH235248   6.783   2.874   2.919
11764TIP3    H135249   6.739   2.901   2.839
11764TIP3    H235250   6.876   2.872   2.897
11765TIP3   OH235251   3.670   2.553   1.940
11765TIP3    H135252   3.637   2.643   1.942
11765TIP3    H235253   3.605   2.505   1.890
11766TIP3   OH235254   4.473   3.636   1.175
11766TIP3    H135255   4.482   3.544   1.152
11766TIP3    H235256   4.393   3.665   1.131
11767TIP3   OH235257   2.869   5.400   1.916
11767TIP3    H135258   2.922   5.325   1.889
11767TIP3    H235259   2.789   5.361   1.951
11768TIP3   OH235260   6.462   4.648   2.814
11768TIP3    H135261   6.416   4.720   2.772
11768TIP3    H235262   6.487   4.682   2.900
11769TIP3   OH235263   7.399   6.467   4.894
11769TIP3    H135264   7.402   6.445   4.801
11769TIP3    H235265   7.359   6.391   4.935
11770TIP3   OH235266   5.367   2.913   6.249
11770TIP3    H135267   5.327   2.840   6.201
11770TIP3    H235268   5.303   2.934   6.317
11771TIP3   OH235269   4.867   5.157   5.758
11771TIP3    H135270   4.779   5.123   5.769
11771TIP3    H235271   4.881   5.159   5.664
11772TIP3   OH235272   5.127   1.177   1.190
11772TIP3    H135273   5.034   1.184   1.215
11772TIP3    H235274   5.139   1.085   1.167
11773TIP3   OH235275   5.410   5.014   3.672
11773TIP3    H135276   5.316   5.016   3.687
11773TIP3    H235277   5.423   4.938   3.614
11774TIP3   OH235278   6.031   1.793   3.755
11774TIP3    H135279   6.052   1.803   3.662
11774TIP3    H235280   5.974   1.716   3.758
11775TIP3   OH235281   7.967   0.337   2.788
11775TIP3    H135282   7.889   0.291   2.757
11775TIP3    H235283   8.002   0.282   2.857
11776TIP3   OH235284   7.519   3.583   1.621
11776TIP3    H135285   7.443   3.641   1.611
11776TIP3    H235286   7.498   3.507   1.567
11777TIP3   OH235287   4.522   0.626   0.690
11777TIP3    H135288   4.616   0.624   0.712
11777TIP3    H235289   4.481   0.673   0.763
11778TIP3   OH235290   5.771   0.257   2.418
11778TIP3    H135291   5.696   0.315   2.403
11778TIP3    H235292   5.732   0.177   2.454
11779TIP3   OH235293   2.916   3.840   4.233
11779TIP3    H135294   2.935   3.933   4.218
11779TIP3    H235295   2.884   3.808   4.149
11780TIP3   OH235296   5.913   7.499   0.897
11780TIP3    H135297   5.857   7.525   0.824
11780TIP3    H235298   5.881   7.550   0.971
11781TIP3   OH235299   2.246   0.418   1.314
11781TIP3    H135300   2.186   0.470   1.260
11781TIP3    H235301   2.333   0.437   1.279
11782TIP3   OH235302   1.189   2.301   1.286
11782TIP3    H135303   1.132   2.314   1.362
11782TIP3    H235304   1.172   2.211   1.258
11783TIP3   OH235305   4.253   0.442   1.666
11783TIP3    H135306   4.272   0.511   1.602
11783TIP3    H235307   4.332   0.436   1.719
11784TIP3   OH235308   2.282   7.402   1.173
11784TIP3    H135309   2.208   7.353   1.136
11784TIP3    H235310   2.287   7.481   1.119
11785TIP3   OH235311   7.275   6.910   0.345
11785TIP3    H135312   7.338   6.938   0.410
11785TIP3    H235313   7.265   6.816   0.359
11786TIP3   OH235314   2.275   1.174   1.444
11786TIP3    H135315   2.345   1.209   1.500
11786TIP3    H235316   2.197   1.177   1.499
11787TIP3   OH235317   4.227   7.583   3.952
11787TIP3    H135318   4.144   7.622   3.923
11787TIP3    H235319   4.268   7.553   3.871
11788TIP3   OH235320   4.620   1.409   0.586
11788TIP3    H135321   4.558   1.432   0.518
11788TIP3    H235322   4.609   1.315   0.598
11789TIP3   OH235323   4.634   2.973   5.394
11789TIP3    H135324   4.633   3.061   5.432
11789TIP3    H235325   4.630   2.988   5.300
11790TIP3   OH235326   5.147   6.215   1.910
11790TIP3    H135327   5.097   6.295   1.898
11790TIP3    H235328   5.106   6.151   1.851
11791TIP3   OH235329   5.305   1.520   5.039
11791TIP3    H135330   5.375   1.576   5.007
11791TIP3    H235331   5.342   1.432   5.039
11792TIP3   OH235332   3.790   1.245   2.571
11792TIP3    H135333   3.852   1.289   2.630
11792TIP3    H235334   3.748   1.317   2.523
11793TIP3   OH235335   5.867   3.232   3.417
11793TIP3    H135336   5.797   3.172   3.392
11793TIP3    H235337   5.894   3.272   3.334
11794TIP3   OH235338   3.625   1.569   0.468
11794TIP3    H135339   3.611   1.579   0.563
11794TIP3    H235340   3.589   1.483   0.448
11795TIP3   OH235341   8.110   5.470   6.695
11795TIP3    H135342   8.073   5.382   6.697
11795TIP3    H235343   8.161   5.477   6.775
11796TIP3   OH235344   7.136   4.718   0.362
11796TIP3    H135345   7.088   4.749   0.439
11796TIP3    H235346   7.213   4.775   0.357
11797TIP3   OH235347   3.400   2.331   2.903
11797TIP3    H135348   3.440   2.250   2.937
11797TIP3    H235349   3.314   2.334   2.944
11798TIP3   OH235350   3.007   4.579   1.349
11798TIP3    H135351   2.943   4.634   1.304
11798TIP3    H235352   3.080   4.573   1.287
11799TIP3   OH235353   6.964   0.253   4.198
11799TIP3    H135354   6.881   0.264   4.243
11799TIP3    H235355   7.025   0.309   4.245
11800TIP3   OH235356   6.211   7.034   5.323
11800TIP3    H135357   6.213   7.130   5.325
11800TIP3    H235358   6.302   7.008   5.313
11801TIP3   OH235359   8.279   2.327   0.804
11801TIP3    H135360   8.224   2.364   0.874
11801TIP3    H235361   8.336   2.265   0.848
11802TIP3   OH235362   3.089   0.702   3.119
11802TIP3    H135363   2.998   0.678   3.103
11802TIP3    H235364   3.122   0.635   3.180
11803TIP3   OH235365   4.973   0.648   5.739
11803TIP3    H135366   4.940   0.689   5.660
11803TIP3    H235367   4.904   0.587   5.766
11804TIP3   OH235368   1.398   6.440   0.577
11804TIP3    H135369   1.475   6.451   0.523
11804TIP3    H235370   1.424   6.473   0.663
11805TIP3   OH235371   3.391   0.265   6.294
11805TIP3    H135372   3.308   0.268   6.341
11805TIP3    H235373   3.448   0.324   6.343
11806TIP3   OH235374   7.648   1.820   3.569
11806TIP3    H135375   7.634   1.888   3.503
11806TIP3    H235376   7.741   1.827   3.592
11807TIP3   OH235377   7.711   0.973   2.203
11807TIP3    H135378   7.663   0.912   2.148
11807TIP3    H235379   7.644   1.016   2.256
11808TIP3   OH235380   1.086   0.605   4.596
11808TIP3    H135381   1.032   0.599   4.518
11808TIP3    H235382   1.136   0.523   4.597
11809TIP3   OH235383   1.556   2.252   0.486
11809TIP3    H135384   1.525   2.342   0.472
11809TIP3    H235385   1.562   2.214   0.399
11810TIP3   OH235386   6.777   2.397   2.061
11810TIP3    H135387   6.731   2.384   2.144
11810TIP3    H235388   6.721   2.457   2.011
11811TIP3   OH235389   4.900   4.197   6.242
11811TIP3    H135390   4.840   4.122   6.236
11811TIP3    H235391   4.980   4.160   6.281
11812TIP3   OH235392   0.537   0.500   6.200
11812TIP3    H135393   0.554   0.421   6.149
11812TIP3    H235394   0.623   0.532   6.227
11813TIP3   OH235395   4.979   6.932   4.323
11813TIP3    H135396   4.957   6.858   4.267
11813TIP3    H235397   4.923   7.003   4.293
11814TIP3   OH235398   7.019   1.081   3.339
11814TIP3    H135399   7.031   1.089   3.245
11814TIP3    H235400   6.993   0.990   3.353
11815TIP3   OH235401   7.346   2.469   3.249
11815TIP3    H135402   7.253   2.452   3.233
11815TIP3    H235403   7.386   2.462   3.163
11816TIP3   OH235404   4.654   0.636   0.450
11816TIP3    H135405   4.603   0.652   0.529
11816TIP3    H235406   4.632   0.709   0.391
11817TIP3   OH235407   4.633   1.836   3.447
11817TIP3    H135408   4.594   1.760   3.404
11817TIP3    H235409   4.710   1.858   3.395
11818TIP3   OH235410   6.910   6.037   4.984
11818TIP3    H135411   6.994   5.997   5.007
11818TIP3    H235412   6.933   6.106   4.922
11819TIP3   OH235413   4.174   7.485   4.471
11819TIP3    H135414   4.268   7.489   4.455
11819TIP3    H235415   4.154   7.567   4.517
11820TIP3   OH235416   7.163   7.760   2.636
11820TIP3    H135417   7.168   7.698   2.709
11820TIP3    H235418   7.243   7.745   2.586
11821TIP3   OH235419   5.509   7.250   1.777
11821TIP3    H135420   5.503   7.311   1.851
11821TIP3    H235421   5.479   7.166   1.813
11822TIP3   OH235422   5.472   7.814   2.927
11822TIP3    H135423   5.460   7.771   2.843
11822TIP3    H235424   5.532   7.757   2.975
11823TIP3   OH235425   0.970   7.668   0.193
11823TIP3    H135426   0.913   7.705   0.126
11823TIP3    H235427   0.936   7.580   0.208
11824TIP3   OH235428   2.239   3.178   4.719
11824TIP3    H135429   2.271   3.237   4.787
11824TIP3    H235430   2.144   3.178   4.730
11825TIP3   OH235431   6.372   6.548   3.712
11825TIP3    H135432   6.302   6.613   3.710
11825TIP3    H235433   6.394   6.535   3.619
11826TIP3   OH235434   7.296   3.194   1.137
11826TIP3    H135435   7.271   3.116   1.088
11826TIP3    H235436   7.376   3.225   1.094
11827TIP3   OH235437   3.230   2.552   6.362
11827TIP3    H135438   3.262   2.572   6.274
11827TIP3    H235439   3.287   2.481   6.392
11828TIP3   OH235440   5.484   6.826   5.377
11828TIP3    H135441   5.407   6.777   5.347
11828TIP3    H235442   5.546   6.821   5.304
11829TIP3   OH235443   6.893   1.123   1.660
11829TIP3    H135444   6.889   1.028   1.667
11829TIP3    H235445   6.970   1.140   1.606
11830TIP3   OH235446   6.032   7.594   5.906
11830TIP3    H135447   5.970   7.548   5.962
11830TIP3    H235448   6.076   7.655   5.965
11831TIP3   OH235449   5.806   4.888   1.226
11831TIP3    H135450   5.846   4.851   1.146
11831TIP3    H235451   5.811   4.983   1.214
11832TIP3   OH235452   4.045   2.599   6.190
11832TIP3    H135453   3.957   2.621   6.160
11832TIP3    H235454   4.096   2.587   6.110
11833TIP3   OH235455   7.333   4.599   4.801
11833TIP3    H135456   7.295   4.541   4.736
11833TIP3    H235457   7.415   4.629   4.761
11834TIP3   OH235458   1.673   3.413   0.043
11834TIP3    H135459   1.769   3.414   0.045
11834TIP3    H235460   1.651   3.433  -0.048
11835TIP3   OH235461   6.246   6.084   2.585
11835TIP3    H135462   6.175   6.021   2.582
11835TIP3    H235463   6.302   6.060   2.511
11836TIP3   OH235464   1.634   5.089   6.261
11836TIP3    H135465   1.568   5.155   6.284
11836TIP3    H235466   1.602   5.052   6.179
11837TIP3   OH235467   4.956   4.001   3.676
11837TIP3    H135468   4.980   4.038   3.591
11837TIP3    H235469   4.884   3.941   3.656
11838TIP3   OH235470   7.277   4.018   1.195
11838TIP3    H135471   7.305   3.931   1.165
11838TIP3    H235472   7.279   4.072   1.117
11839TIP3   OH235473   7.245   1.411   2.962
11839TIP3    H135474   7.315   1.445   2.907
11839TIP3    H235475   7.288   1.381   3.042
11840TIP3   OH235476   4.007   4.109   6.204
11840TIP3    H135477   4.049   4.042   6.258
11840TIP3    H235478   4.045   4.191   6.236
11841TIP3   OH235479   3.796   5.910   3.596
11841TIP3    H135480   3.781   5.947   3.509
11841TIP3    H235481   3.756   5.972   3.656
11842TIP3   OH235482   2.596   0.355   0.106
11842TIP3    H135483   2.534   0.373   0.036
11842TIP3    H235484   2.566   0.272   0.143
11843TIP3   OH235485   6.526   1.788   0.222
11843TIP3    H135486   6.518   1.846   0.146
11843TIP3    H235487   6.587   1.720   0.194
11844TIP3   OH235488   2.910   4.138   1.424
11844TIP3    H135489   2.940   4.072   1.487
11844TIP3    H235490   2.912   4.220   1.473
11845TIP3   OH235491   2.028   3.481   4.646
11845TIP3    H135492   2.083   3.441   4.578
11845TIP3    H235493   1.998   3.562   4.607
11846TIP3   OH235494   4.819   3.032   0.054
11846TIP3    H135495   4.860   3.011   0.138
11846TIP3    H235496   4.829   3.127   0.047
11847TIP3   OH235497   0.567   3.946   2.908
11847TIP3    H135498   0.588   3.897   2.988
11847TIP3    H235499   0.635   4.013   2.902
11848TIP3   OH235500   3.914   0.557  -0.018
11848TIP3    H135501   3.990   0.499  -0.011
11848TIP3    H235502   3.913   0.605   0.065
11849TIP3   OH235503   8.180   4.814   5.044
11849TIP3    H135504   8.227   4.756   4.984
11849TIP3    H235505   8.220   4.900   5.030
11850TIP3   OH235506   4.736   0.431   4.576
11850TIP3    H135507   4.829   0.418   4.559
11850TIP3    H235508   4.723   0.399   4.665
11851TIP3   OH235509   6.266   3.843   2.152
11851TIP3    H135510   6.271   3.749   2.168
11851TIP3    H235511   6.354   3.875   2.171
11852TIP3   OH235512   3.457   1.290   2.474
11852TIP3    H135513   3.426   1.280   2.384
11852TIP3    H235514   3.542   1.334   2.466
11853TIP3   OH235515   0.375   4.428   1.184
11853TIP3    H135516   0.456   4.472   1.210
11853TIP3    H235517   0.335   4.487   1.120
11854TIP3   OH235518   8.003   2.893   3.049
11854TIP3    H135519   8.050   2.966   3.007
11854TIP3    H235520   7.953   2.853   2.978
11855TIP3   OH235521   4.739   4.879   0.524
11855TIP3    H135522   4.745   4.789   0.556
11855TIP3    H235523   4.656   4.911   0.559
11856TIP3   OH235524   7.341   7.442   5.534
11856TIP3    H135525   7.434   7.420   5.526
11856TIP3    H235526   7.341   7.537   5.550
11857TIP3   OH235527   3.633   3.484   1.426
11857TIP3    H135528   3.657   3.477   1.334
11857TIP3    H235529   3.712   3.515   1.470
11858TIP3   OH235530   3.008   5.525   0.478
11858TIP3    H135531   2.979   5.451   0.425
11858TIP3    H235532   2.995   5.601   0.423
11859TIP3   OH235533   0.989   3.046   0.074
11859TIP3    H135534   1.048   3.077   0.005
11859TIP3    H235535   1.043   3.044   0.153
11860TIP3   OH235536   1.549   0.493   1.375
11860TIP3    H135537   1.599   0.432   1.428
11860TIP3    H235538   1.523   0.443   1.298
11861TIP3   OH235539   1.728   3.498   5.059
11861TIP3    H135540   1.727   3.514   4.965
11861TIP3    H235541   1.814   3.459   5.075
11862TIP3   OH235542   3.755   0.048   4.079
11862TIP3    H135543   3.837   0.049   4.031
11862TIP3    H235544   3.699   0.110   4.031
11863TIP3   OH235545   2.535   0.080   2.166
11863TIP3    H135546   2.623   0.097   2.132
11863TIP3    H235547   2.524   0.145   2.236
11864TIP3   OH235548   2.142   1.407   0.211
11864TIP3    H135549   2.050   1.426   0.194
11864TIP3    H235550   2.186   1.492   0.204
11865TIP3   OH235551   4.545   7.831   1.800
11865TIP3    H135552   4.616   7.848   1.738
11865TIP3    H235553   4.582   7.856   1.885
11866TIP3   OH235554   6.950   6.607   2.253
11866TIP3    H135555   6.937   6.575   2.342
11866TIP3    H235556   6.987   6.694   2.264
11867TIP3   OH235557   0.106   7.102   3.564
11867TIP3    H135558   0.187   7.149   3.582
11867TIP3    H235559   0.109   7.084   3.470
11868TIP3   OH235560   1.514   2.457   4.181
11868TIP3    H135561   1.469   2.385   4.226
11868TIP3    H235562   1.496   2.534   4.235
11869TIP3   OH235563   8.075   1.958   4.933
11869TIP3    H135564   8.142   1.937   4.869
11869TIP3    H235565   8.036   2.039   4.902
11870TIP3   OH235566   1.727   1.191   6.119
11870TIP3    H135567   1.782   1.230   6.187
11870TIP3    H235568   1.707   1.103   6.153
11871TIP3   OH235569   7.296   5.128   2.614
11871TIP3    H135570   7.334   5.061   2.557
11871TIP3    H235571   7.339   5.209   2.588
11872TIP3   OH235572   3.766   3.620   4.492
11872TIP3    H135573   3.709   3.590   4.422
11872TIP3    H235574   3.801   3.704   4.461
11873TIP3   OH235575   4.796   5.905   0.066
11873TIP3    H135576   4.745   5.838   0.111
11873TIP3    H235577   4.730   5.963   0.027
11874TIP3   OH235578   6.234   0.514   0.557
11874TIP3    H135579   6.312   0.522   0.502
11874TIP3    H235580   6.235   0.423   0.587
11875TIP3   OH235581   0.728   2.735   6.067
11875TIP3    H135582   0.641   2.733   6.107
11875TIP3    H235583   0.711   2.734   5.973
11876TIP3   OH235584   2.648   1.467   4.491
11876TIP3    H135585   2.608   1.437   4.573
11876TIP3    H235586   2.717   1.528   4.519
11877TIP3   OH235587   6.168   3.802   5.740
11877TIP3    H135588   6.106   3.781   5.671
11877TIP3    H235589   6.113   3.836   5.811
11878TIP3   OH235590   6.361   6.409   5.419
11878TIP3    H135591   6.348   6.315   5.409
11878TIP3    H235592   6.291   6.438   5.478
11879TIP3   OH235593   0.347   4.828   0.699
11879TIP3    H135594   0.436   4.829   0.736
11879TIP3    H235595   0.325   4.920   0.687
11880TIP3   OH235596   3.569   2.729   0.962
11880TIP3    H135597   3.660   2.716   0.938
11880TIP3    H235598   3.530   2.774   0.886
11881TIP3   OH235599   0.099   2.549   1.442
11881TIP3    H135600   0.162   2.569   1.511
11881TIP3    H235601   0.014   2.554   1.485
11882TIP3   OH235602   1.551   0.816   0.953
11882TIP3    H135603   1.593   0.730   0.960
11882TIP3    H235604   1.539   0.844   1.043
11883TIP3   OH235605   7.129   5.660   2.488
11883TIP3    H135606   7.174   5.657   2.403
11883TIP3    H235607   7.086   5.575   2.495
11884TIP3   OH235608   1.500   2.610   5.830
11884TIP3    H135609   1.596   2.616   5.822
11884TIP3    H235610   1.467   2.655   5.753
11885TIP3   OH235611   6.310   2.462   5.265
11885TIP3    H135612   6.302   2.527   5.335
11885TIP3    H235613   6.221   2.429   5.251
11886TIP3   OH235614   0.679   5.703   3.745
11886TIP3    H135615   0.738   5.763   3.792
11886TIP3    H235616   0.733   5.628   3.723
11887TIP3   OH235617   4.512   1.652   3.273
11887TIP3    H135618   4.423   1.620   3.254
11887TIP3    H235619   4.569   1.594   3.223
11888TIP3   OH235620   7.342   7.673   6.254
11888TIP3    H135621   7.405   7.621   6.204
11888TIP3    H235622   7.257   7.635   6.232
11889TIP3   OH235623   7.323   2.092   2.902
11889TIP3    H135624   7.235   2.057   2.892
11889TIP3    H235625   7.319   2.144   2.983
11890TIP3   OH235626   5.797   1.977   4.826
11890TIP3    H135627   5.723   1.965   4.766
11890TIP3    H235628   5.874   1.952   4.775
11891TIP3   OH235629   0.662   5.217   5.095
11891TIP3    H135630   0.676   5.252   5.184
11891TIP3    H235631   0.750   5.203   5.061
11892TIP3   OH235632   1.648   4.907   6.463
11892TIP3    H135633   1.741   4.888   6.468
11892TIP3    H235634   1.640   4.967   6.388
11893TIP3   OH235635   3.327   4.276   5.516
11893TIP3    H135636   3.416   4.276   5.551
11893TIP3    H235637   3.336   4.315   5.429
11894TIP3   OH235638   8.013   3.024   4.232
11894TIP3    H135639   7.928   3.062   4.252
11894TIP3    H235640   7.994   2.952   4.172
11895TIP3   OH235641   5.630   0.266   6.769
11895TIP3    H135642   5.690   0.192   6.758
11895TIP3    H235643   5.687   0.343   6.771
11896TIP3   OH235644   2.105   4.360   1.794
11896TIP3    H135645   2.035   4.399   1.845
11896TIP3    H235646   2.156   4.310   1.858
11897TIP3   OH235647   2.181   2.369   2.459
11897TIP3    H135648   2.097   2.411   2.474
11897TIP3    H235649   2.194   2.372   2.365
11898TIP3   OH235650   3.709   3.042   0.796
11898TIP3    H135651   3.661   3.026   0.715
11898TIP3    H235652   3.750   2.958   0.817
11899TIP3   OH235653   0.739   3.171   5.912
11899TIP3    H135654   0.820   3.170   5.963
11899TIP3    H235655   0.678   3.118   5.963
11900TIP3   OH235656   2.139   4.937   6.396
11900TIP3    H135657   2.140   4.847   6.430
11900TIP3    H235658   2.059   4.943   6.345
11901TIP3   OH235659   4.389   2.759   6.004
11901TIP3    H135660   4.433   2.675   6.014
11901TIP3    H235661   4.444   2.808   5.943
11902TIP3   OH235662   6.114   6.451   3.455
11902TIP3    H135663   6.110   6.367   3.500
11902TIP3    H235664   6.204   6.480   3.466
11903TIP3   OH235665   0.235   2.841   4.425
11903TIP3    H135666   0.285   2.792   4.360
11903TIP3    H235667   0.286   2.920   4.441
11904TIP3   OH235668   7.077   6.392   0.544
11904TIP3    H135669   6.987   6.374   0.516
11904TIP3    H235670   7.100   6.318   0.601
11905TIP3   OH235671   3.566   7.607   1.175
11905TIP3    H135672   3.638   7.648   1.223
11905TIP3    H235673   3.554   7.523   1.219
11906TIP3   OH235674   1.812   0.729   5.473
11906TIP3    H135675   1.827   0.678   5.394
11906TIP3    H235676   1.787   0.665   5.539
11907TIP3   OH235677   1.528   1.853   6.210
11907TIP3    H135678   1.616   1.852   6.170
11907TIP3    H235679   1.472   1.890   6.142
11908TIP3   OH235680   7.248   2.765   3.004
11908TIP3    H135681   7.209   2.852   3.001
11908TIP3    H235682   7.342   2.780   3.014
11909TIP3   OH235683   5.998   1.182   1.010
11909TIP3    H135684   6.017   1.260   0.958
11909TIP3    H235685   5.935   1.133   0.957
11910TIP3   OH235686   7.592   2.036   0.081
11910TIP3    H135687   7.638   1.957   0.051
11910TIP3    H235688   7.507   2.004   0.110
11911TIP3   OH235689   6.753   0.791   5.277
11911TIP3    H135690   6.689   0.820   5.342
11911TIP3    H235691   6.776   0.871   5.229
11912TIP3   OH235692   0.736   5.009   4.465
11912TIP3    H135693   0.754   5.072   4.395
11912TIP3    H235694   0.641   5.008   4.474
11913TIP3   OH235695   4.573   2.522  -0.008
11913TIP3    H135696   4.601   2.611   0.013
11913TIP3    H235697   4.653   2.479  -0.038
11914TIP3   OH235698   0.704   0.500   0.541
11914TIP3    H135699   0.636   0.458   0.594
11914TIP3    H235700   0.687   0.470   0.451
11915TIP3   OH235701   0.787   1.347   0.690
11915TIP3    H135702   0.719   1.412   0.705
11915TIP3    H235703   0.869   1.397   0.690
11916TIP3   OH235704   7.827   4.366   4.653
11916TIP3    H135705   7.852   4.303   4.720
11916TIP3    H235706   7.734   4.350   4.639
11917TIP3   OH235707   0.025   1.130   0.046
11917TIP3    H135708   0.023   1.110  -0.048
11917TIP3    H235709  -0.012   1.052   0.088
11918TIP3   OH235710   5.408   5.249   1.182
11918TIP3    H135711   5.474   5.190   1.219
11918TIP3    H235712   5.355   5.194   1.126
11919TIP3   OH235713   7.341   4.225   6.480
11919TIP3    H135714   7.374   4.315   6.480
11919TIP3    H235715   7.315   4.208   6.390
11920TIP3   OH235716   0.526   4.117   4.186
11920TIP3    H135717   0.476   4.199   4.184
11920TIP3    H235718   0.599   4.132   4.127
11921TIP3   OH235719   1.057   7.485   1.181
11921TIP3    H135720   1.049   7.461   1.089
11921TIP3    H235721   1.128   7.550   1.183
11922TIP3   OH235722   5.979   4.320   6.813
11922TIP3    H135723   6.007   4.294   6.900
11922TIP3    H235724   6.057   4.310   6.759
11923TIP3   OH235725   6.037   0.260   4.713
11923TIP3    H135726   6.092   0.313   4.770
11923TIP3    H235727   6.056   0.292   4.625
11924TIP3   OH235728   3.662   4.698   0.277
11924TIP3    H135729   3.634   4.665   0.363
11924TIP3    H235730   3.698   4.785   0.296
11925TIP3   OH235731   3.898   7.659   3.208
11925TIP3    H135732   3.897   7.583   3.267
11925TIP3    H235733   3.976   7.708   3.234
11926TIP3   OH235734   5.557   0.807   3.295
11926TIP3    H135735   5.566   0.880   3.234
11926TIP3    H235736   5.624   0.744   3.267
11927TIP3   OH235737   4.294   5.750   5.397
11927TIP3    H135738   4.328   5.691   5.330
11927TIP3    H235739   4.274   5.694   5.471
11928TIP3   OH235740   4.048   7.482   5.125
11928TIP3    H135741   4.001   7.524   5.053
11928TIP3    H235742   4.013   7.524   5.204
11929TIP3   OH235743   6.904   2.601   1.345
11929TIP3    H135744   6.921   2.510   1.322
11929TIP3    H235745   6.824   2.623   1.298
11930TIP3   OH235746   6.109   4.377   2.946
11930TIP3    H135747   6.190   4.388   2.996
11930TIP3    H235748   6.132   4.318   2.874
11931TIP3   OH235749   6.615   6.024   1.771
11931TIP3    H135750   6.585   6.115   1.767
11931TIP3    H235751   6.565   5.979   1.703
11932TIP3   OH235752   5.032   3.860   5.244
11932TIP3    H135753   4.956   3.813   5.278
11932TIP3    H235754   5.075   3.895   5.322
11933TIP3   OH235755   6.886   0.951   6.547
11933TIP3    H135756   6.947   0.941   6.620
11933TIP3    H235757   6.817   1.008   6.581
11934TIP3   OH235758   4.828   6.007   2.398
11934TIP3    H135759   4.753   5.950   2.417
11934TIP3    H235760   4.792   6.095   2.403
11935TIP3   OH235761   0.606   6.817   3.186
11935TIP3    H135762   0.659   6.776   3.117
11935TIP3    H235763   0.517   6.786   3.169
11936TIP3   OH235764   8.221   4.353   0.123
11936TIP3    H135765   8.180   4.305   0.195
11936TIP3    H235766   8.263   4.286   0.070
11937TIP3   OH235767   4.560   7.497   0.093
11937TIP3    H135768   4.544   7.415   0.047
11937TIP3    H235769   4.654   7.512   0.083
11938TIP3   OH235770   4.333   2.552   2.419
11938TIP3    H135771   4.257   2.607   2.399
11938TIP3    H235772   4.400   2.613   2.450
11939TIP3   OH235773   7.280   2.503   0.923
11939TIP3    H135774   7.229   2.479   0.845
11939TIP3    H235775   7.326   2.583   0.898
11940TIP3   OH235776   2.665   6.678   4.957
11940TIP3    H135777   2.595   6.619   4.986
11940TIP3    H235778   2.619   6.754   4.921
11941TIP3   OH235779   3.245   4.116   1.326
11941TIP3    H135780   3.222   4.029   1.358
11941TIP3    H235781   3.337   4.109   1.302
11942TIP3   OH235782   6.436   2.607   5.722
11942TIP3    H135783   6.455   2.560   5.803
11942TIP3    H235784   6.346   2.637   5.732
11943TIP3   OH235785   8.268   1.749   0.642
11943TIP3    H135786   8.270   1.750   0.738
11943TIP3    H235787   8.274   1.656   0.620
11944TIP3   OH235788   1.567   4.478   4.526
11944TIP3    H135789   1.586   4.559   4.479
11944TIP3    H235790   1.645   4.463   4.579
11945TIP3   OH235791   0.150   0.078   1.176
11945TIP3    H135792   0.087   0.027   1.227
11945TIP3    H235793   0.202   0.013   1.130
11946TIP3   OH235794   1.853   1.784   5.435
11946TIP3    H135795   1.850   1.773   5.530
11946TIP3    H235796   1.776   1.735   5.403
11947TIP3   OH235797   5.306   4.899   6.077
11947TIP3    H135798   5.386   4.885   6.027
11947TIP3    H235799   5.239   4.920   6.012
11948TIP3   OH235800   3.977   1.761   5.242
11948TIP3    H135801   4.072   1.771   5.244
11948TIP3    H235802   3.946   1.811   5.317
11949TIP3   OH235803   0.873   1.477   2.198
11949TIP3    H135804   0.829   1.392   2.209
11949TIP3    H235805   0.954   1.469   2.247
11950TIP3   OH235806   8.197   3.571   3.488
11950TIP3    H135807   8.202   3.477   3.508
11950TIP3    H235808   8.103   3.588   3.478
11951TIP3   OH235809   5.223   7.505   4.935
11951TIP3    H135810   5.215   7.412   4.954
11951TIP3    H235811   5.217   7.547   5.021
11952TIP3   OH235812   3.419   6.896   2.028
11952TIP3    H135813   3.348   6.882   1.965
11952TIP3    H235814   3.488   6.835   1.999
11953TIP3   OH235815   7.563   3.255   2.182
11953TIP3    H135816   7.482   3.208   2.162
11953TIP3    H235817   7.607   3.201   2.247
11954TIP3   OH235818   5.417   6.939   4.196
11954TIP3    H135819   5.435   6.884   4.272
11954TIP3    H235820   5.377   6.879   4.132
11955TIP3   OH235821   0.387   3.884   4.133
11955TIP3    H135822   0.435   3.888   4.051
11955TIP3    H235823   0.406   3.967   4.177
11956TIP3   OH235824   0.564   2.442   3.118
11956TIP3    H135825   0.606   2.505   3.177
11956TIP3    H235826   0.470   2.448   3.138
11957TIP3   OH235827   5.273   1.578   1.466
11957TIP3    H135828   5.193   1.630   1.465
11957TIP3    H235829   5.250   1.498   1.514
11958TIP3   OH235830   0.221   0.072   0.685
11958TIP3    H135831   0.176   0.059   0.768
11958TIP3    H235832   0.264  -0.012   0.668
11959TIP3   OH235833   3.191   6.845   0.545
11959TIP3    H135834   3.116   6.831   0.486
11959TIP3    H235835   3.217   6.935   0.531
11960TIP3   OH235836   7.899   7.370   1.616
11960TIP3    H135837   7.808   7.359   1.646
11960TIP3    H235838   7.899   7.337   1.526
11961TIP3   OH235839   2.956   6.647   5.897
11961TIP3    H135840   2.912   6.590   5.960
11961TIP3    H235841   2.887   6.703   5.863
11962TIP3   OH235842   7.306   1.938   2.189
11962TIP3    H135843   7.253   1.866   2.223
11962TIP3    H235844   7.365   1.961   2.261
11963TIP3   OH235845   7.443   3.153   2.728
11963TIP3    H135846   7.410   3.211   2.797
11963TIP3    H235847   7.475   3.213   2.660
11964TIP3   OH235848   0.410   1.409   5.133
11964TIP3    H135849   0.336   1.462   5.165
11964TIP3    H235850   0.487   1.454   5.168
11965TIP3   OH235851   7.197   5.173   6.570
11965TIP3    H135852   7.197   5.196   6.663
11965TIP3    H235853   7.277   5.124   6.556
11966TIP3   OH235854   7.332   3.666   0.608
11966TIP3    H135855   7.426   3.684   0.612
11966TIP3    H235856   7.319   3.620   0.526
11967TIP3   OH235857   1.746   4.822   4.112
11967TIP3    H135858   1.716   4.903   4.154
11967TIP3    H235859   1.835   4.809   4.145
11968TIP3   OH235860   5.230   6.906   3.928
11968TIP3    H135861   5.176   6.958   3.988
11968TIP3    H235862   5.208   6.940   3.841
11969TIP3   OH235863   6.276   6.301   3.833
11969TIP3    H135864   6.299   6.224   3.781
11969TIP3    H235865   6.324   6.373   3.792
11970TIP3   OH235866   3.100   4.553   0.945
11970TIP3    H135867   3.032   4.501   0.986
11970TIP3    H235868   3.131   4.501   0.871
11971TIP3   OH235869   1.191   2.048   1.477
11971TIP3    H135870   1.096   2.034   1.473
11971TIP3    H235871   1.203   2.106   1.552
11972TIP3   OH235872   5.108   4.616   6.045
11972TIP3    H135873   5.134   4.528   6.019
11972TIP3    H235874   5.060   4.604   6.127
11973TIP3   OH235875   6.651   5.304   5.037
11973TIP3    H135876   6.619   5.386   5.000
11973TIP3    H235877   6.612   5.236   4.982
11974TIP3   OH235878   4.710   4.388   1.008
11974TIP3    H135879   4.743   4.302   1.035
11974TIP3    H235880   4.730   4.393   0.914
11975TIP3   OH235881   7.606   6.966   0.879
11975TIP3    H135882   7.584   7.045   0.830
11975TIP3    H235883   7.552   6.897   0.838
11976TIP3   OH235884   0.449   4.407   6.146
11976TIP3    H135885   0.464   4.418   6.053
11976TIP3    H235886   0.530   4.437   6.187
11977TIP3   OH235887   7.856   5.310   0.171
11977TIP3    H135888   7.951   5.322   0.167
11977TIP3    H235889   7.823   5.351   0.091
11978TIP3   OH235890   3.312   1.633   0.637
11978TIP3    H135891   3.244   1.600   0.578
11978TIP3    H235892   3.394   1.600   0.600
11979TIP3   OH235893   2.892   3.610   6.678
11979TIP3    H135894   2.912   3.619   6.771
11979TIP3    H235895   2.908   3.697   6.641
11980TIP3   OH235896   0.712   6.273   2.157
11980TIP3    H135897   0.713   6.244   2.066
11980TIP3    H235898   0.723   6.368   2.152
11981TIP3   OH235899  -0.002   3.632   4.209
11981TIP3    H135900  -0.001   3.625   4.113
11981TIP3    H235901   0.089   3.616   4.235
11982TIP3   OH235902   0.241   0.011   2.124
11982TIP3    H135903   0.189   0.007   2.204
11982TIP3    H235904   0.180   0.046   2.058
11983TIP3   OH235905   7.310   4.929   3.359
11983TIP3    H135906   7.252   4.854   3.375
11983TIP3    H235907   7.398   4.894   3.370
11984TIP3   OH235908   7.127   5.103   3.865
11984TIP3    H135909   7.137   5.194   3.892
11984TIP3    H235910   7.198   5.088   3.803
11985TIP3   OH235911   3.130   0.155   6.635
11985TIP3    H135912   3.155   0.182   6.546
11985TIP3    H235913   3.210   0.163   6.686
11986TIP3   OH235914   4.339   4.219   2.918
11986TIP3    H135915   4.283   4.156   2.963
11986TIP3    H235916   4.314   4.211   2.826
11987TIP3   OH235917   1.723   5.355   6.520
11987TIP3    H135918   1.791   5.287   6.513
11987TIP3    H235919   1.642   5.310   6.497
11988TIP3   OH235920   4.735   7.346   4.424
11988TIP3    H135921   4.744   7.345   4.329
11988TIP3    H235922   4.793   7.416   4.453
11989TIP3   OH235923   7.733   4.012   2.378
11989TIP3    H135924   7.710   3.966   2.298
11989TIP3    H235925   7.653   4.010   2.431
11990TIP3   OH235926   8.349   4.125   1.434
11990TIP3    H135927   8.334   4.058   1.366
11990TIP3    H235928   8.268   4.125   1.485
11991TIP3   OH235929   5.218   7.574   1.313
11991TIP3    H135930   5.284   7.511   1.286
11991TIP3    H235931   5.266   7.657   1.320
11992TIP3   OH235932   4.863   5.168   2.908
11992TIP3    H135933   4.797   5.130   2.966
11992TIP3    H235934   4.858   5.116   2.828
11993TIP3   OH235935   0.975   7.159   6.269
11993TIP3    H135936   0.934   7.077   6.244
11993TIP3    H235937   1.014   7.141   6.354
11994TIP3   OH235938   6.512   4.874   3.561
11994TIP3    H135939   6.465   4.826   3.494
11994TIP3    H235940   6.480   4.964   3.553
11995TIP3   OH235941   4.095   4.408   5.174
11995TIP3    H135942   4.137   4.350   5.238
11995TIP3    H235943   4.133   4.494   5.191
11996TIP3   OH235944   0.439   4.590   3.486
11996TIP3    H135945   0.480   4.530   3.424
11996TIP3    H235946   0.511   4.622   3.540
11997TIP3   OH235947   7.357   5.837   0.492
11997TIP3    H135948   7.262   5.851   0.488
11997TIP3    H235949   7.389   5.903   0.553
11998TIP3   OH235950   1.225   4.463   6.235
11998TIP3    H135951   1.273   4.545   6.219
11998TIP3    H235952   1.211   4.462   6.330
11999TIP3   OH235953   5.236   2.419   2.692
11999TIP3    H135954   5.172   2.422   2.763
11999TIP3    H235955   5.185   2.402   2.613
12000TIP3   OH235956   5.862   1.845   5.716
12000TIP3    H135957   5.914   1.866   5.794
12000TIP3    H235958   5.838   1.754   5.727
12001TIP3   OH235959   5.220   0.206   2.579
12001TIP3    H135960   5.245   0.134   2.522
12001TIP3    H235961   5.281   0.276   2.557
12002TIP3   OH235962   7.736   6.794   4.892
12002TIP3    H135963   7.708   6.748   4.813
12002TIP3    H235964   7.807   6.741   4.927
12003TIP3   OH235965   1.396   3.690   5.245
12003TIP3    H135966   1.318   3.701   5.190
12003TIP3    H235967   1.465   3.734   5.196
12004TIP3   OH235968   0.654   3.399   2.590
12004TIP3    H135969   0.641   3.416   2.683
12004TIP3    H235970   0.718   3.327   2.588
12005TIP3   OH235971   3.212   7.376   5.526
12005TIP3    H135972   3.231   7.316   5.454
12005TIP3    H235973   3.280   7.443   5.521
12006TIP3   OH235974   6.140   0.164   2.414
12006TIP3    H135975   6.140   0.128   2.503
12006TIP3    H235976   6.228   0.148   2.381
12007TIP3   OH235977   6.006   0.204   0.608
12007TIP3    H135978   6.054   0.136   0.561
12007TIP3    H235979   5.924   0.161   0.633
12008TIP3   OH235980   7.100   6.273   2.967
12008TIP3    H135981   7.026   6.331   2.952
12008TIP3    H235982   7.085   6.199   2.907
12009TIP3   OH235983   3.238   6.335   1.986
12009TIP3    H135984   3.149   6.344   2.022
12009TIP3    H235985   3.224   6.322   1.892
12010TIP3   OH235986   2.027   6.696   1.423
12010TIP3    H135987   2.119   6.677   1.407
12010TIP3    H235988   2.007   6.653   1.506
12011TIP3   OH235989   6.098   3.457   6.271
12011TIP3    H135990   6.150   3.378   6.257
12011TIP3    H235991   6.162   3.528   6.265
12012TIP3   OH235992   0.520   3.426   0.711
12012TIP3    H135993   0.493   3.364   0.643
12012TIP3    H235994   0.526   3.372   0.790
12013TIP3   OH235995   4.903   5.661   1.463
12013TIP3    H135996   4.851   5.658   1.383
12013TIP3    H235997   4.857   5.724   1.519
12014TIP3   OH235998   7.227   1.679   0.354
12014TIP3    H135999   7.248   1.629   0.275
12014TIP3    H236000   7.307   1.728   0.374
12015TIP3   OH236001   0.405   0.244   1.025
12015TIP3    H136002   0.394   0.149   1.029
12015TIP3    H236003   0.450   0.265   1.107
12016TIP3   OH236004   4.835   6.656   4.303
12016TIP3    H136005   4.905   6.685   4.245
12016TIP3    H236006   4.781   6.598   4.250
12017TIP3   OH236007   2.016   7.610   1.481
12017TIP3    H136008   2.003   7.523   1.518
12017TIP3    H236009   1.980   7.670   1.547
12018TIP3   OH236010   2.447   7.306   5.145
12018TIP3    H136011   2.373   7.259   5.184
12018TIP3    H236012   2.419   7.328   5.056
12019TIP3   OH236013   0.954   6.744   2.175
12019TIP3    H136014   1.018   6.673   2.170
12019TIP3    H236015   0.983   6.807   2.109
12020TIP3   OH236016   0.455   3.543   4.651
12020TIP3    H136017   0.409   3.472   4.694
12020TIP3    H236018   0.458   3.613   4.716
12021TIP3   OH236019   4.545   2.959   4.743
12021TIP3    H136020   4.506   3.042   4.772
12021TIP3    H236021   4.488   2.930   4.671
12022TIP3   OH236022   0.989   6.772   4.537
12022TIP3    H136023   1.058   6.838   4.532
12022TIP3    H236024   0.954   6.768   4.448
12023TIP3   OH236025   2.575   5.428   3.059
12023TIP3    H136026   2.657   5.407   3.014
12023TIP3    H236027   2.559   5.354   3.117
12024TIP3   OH236028   4.962   6.981   2.194
12024TIP3    H136029   5.018   7.007   2.267
12024TIP3    H236030   4.887   7.040   2.200
12025TIP3   OH236031   5.114   3.601   1.214
12025TIP3    H136032   5.147   3.530   1.268
12025TIP3    H236033   5.115   3.566   1.125
12026TIP3   OH236034   3.997   6.633   4.500
12026TIP3    H136035   4.055   6.701   4.534
12026TIP3    H236036   4.034   6.609   4.415
12027TIP3   OH236037   6.707   2.009   1.576
12027TIP3    H136038   6.646   1.939   1.554
12027TIP3    H236039   6.667   2.088   1.538
12028TIP3   OH236040   2.233   2.004   5.518
12028TIP3    H136041   2.263   2.048   5.598
12028TIP3    H236042   2.312   1.966   5.480
12029TIP3   OH236043   4.390   5.552   1.525
12029TIP3    H136044   4.436   5.514   1.450
12029TIP3    H236045   4.435   5.515   1.601
12030TIP3   OH236046   3.262   6.921   6.725
12030TIP3    H136047   3.177   6.964   6.732
12030TIP3    H236048   3.258   6.872   6.643
12031TIP3   OH236049   6.571   2.160   0.465
12031TIP3    H136050   6.650   2.204   0.497
12031TIP3    H236051   6.546   2.209   0.387
12032TIP3   OH236052   0.761   2.864   5.092
12032TIP3    H136053   0.814   2.792   5.056
12032TIP3    H236054   0.825   2.921   5.135
12033TIP3   OH236055   5.680   4.838   6.464
12033TIP3    H136056   5.710   4.750   6.442
12033TIP3    H236057   5.633   4.828   6.547
12034TIP3   OH236058   7.429   5.405   0.139
12034TIP3    H136059   7.417   5.313   0.117
12034TIP3    H236060   7.520   5.423   0.118
12035TIP3   OH236061   6.365   0.420   5.899
12035TIP3    H136062   6.284   0.466   5.921
12035TIP3    H236063   6.339   0.329   5.890
12036TIP3   OH236064   2.999   5.622   4.007
12036TIP3    H136065   3.085   5.648   4.040
12036TIP3    H236066   3.012   5.608   3.913
12037TIP3   OH236067   6.370   0.985   3.270
12037TIP3    H136068   6.409   0.959   3.187
12037TIP3    H236069   6.440   1.031   3.316
12038TIP3   OH236070   1.260   0.933   2.648
12038TIP3    H136071   1.321   0.973   2.587
12038TIP3    H236072   1.179   0.924   2.598
12039TIP3   OH236073   2.097   0.905   4.955
12039TIP3    H136074   2.044   0.871   4.883
12039TIP3    H236075   2.085   1.000   4.950
12040TIP3   OH236076   0.707   3.960   0.559
12040TIP3    H136077   0.743   4.043   0.590
12040TIP3    H236078   0.704   3.905   0.637
12041TIP3   OH236079   0.657   0.770   0.320
12041TIP3    H136080   0.632   0.681   0.297
12041TIP3    H236081   0.688   0.764   0.411
12042TIP3   OH236082   3.164   3.074   0.152
12042TIP3    H136083   3.103   3.043   0.086
12042TIP3    H236084   3.250   3.045   0.121
12043TIP3   OH236085   6.889   4.255   1.235
12043TIP3    H136086   6.842   4.248   1.319
12043TIP3    H236087   6.934   4.171   1.227
12044TIP3   OH236088   6.286   5.075   3.069
12044TIP3    H136089   6.339   5.091   3.147
12044TIP3    H236090   6.241   5.158   3.053
12045TIP3   OH236091   5.237   6.400   3.552
12045TIP3    H136092   5.157   6.349   3.540
12045TIP3    H236093   5.307   6.334   3.556
12046TIP3   OH236094   4.940   3.502   5.877
12046TIP3    H136095   4.940   3.411   5.847
12046TIP3    H236096   5.020   3.539   5.841
12047TIP3   OH236097   6.748   1.315   0.544
12047TIP3    H136098   6.841   1.336   0.535
12047TIP3    H236099   6.726   1.273   0.460
12048TIP3   OH236100   2.228   3.957   4.070
12048TIP3    H136101   2.197   3.988   3.985
12048TIP3    H236102   2.154   3.970   4.129
12049TIP3   OH236103   0.324   2.077   3.917
12049TIP3    H136104   0.392   2.014   3.892
12049TIP3    H236105   0.366   2.132   3.983
12050TIP3   OH236106   0.707   4.707   3.895
12050TIP3    H136107   0.781   4.749   3.940
12050TIP3    H236108   0.629   4.749   3.931
12051TIP3   OH236109   7.541   1.942   4.945
12051TIP3    H136110   7.583   1.873   4.894
12051TIP3    H236111   7.614   1.995   4.979
12052TIP3   OH236112   0.078   6.553   6.327
12052TIP3    H136113  -0.001   6.607   6.328
12052TIP3    H236114   0.062   6.489   6.258
12053TIP3   OH236115   0.467   5.451   6.012
12053TIP3    H136116   0.374   5.444   5.992
12053TIP3    H236117   0.509   5.388   5.954
12054TIP3   OH236118   7.652   5.936   1.223
12054TIP3    H136119   7.743   5.967   1.222
12054TIP3    H236120   7.631   5.926   1.315
12055TIP3   OH236121   4.656   7.207   6.654
12055TIP3    H136122   4.687   7.277   6.712
12055TIP3    H236123   4.730   7.189   6.597
12056TIP3   OH236124   0.438   0.707   3.958
12056TIP3    H136125   0.407   0.779   3.904
12056TIP3    H236126   0.447   0.634   3.897
12057TIP3   OH236127   5.231   2.643   5.480
12057TIP3    H136128   5.243   2.704   5.552
12057TIP3    H236129   5.208   2.560   5.521
12058TIP3   OH236130   6.113   2.388   5.073
12058TIP3    H136131   6.074   2.306   5.101
12058TIP3    H236132   6.127   2.377   4.979
12059TIP3   OH236133   7.923   5.468   6.136
12059TIP3    H136134   7.865   5.541   6.110
12059TIP3    H236135   7.933   5.417   6.056
12060TIP3   OH236136   1.404   1.160   2.551
12060TIP3    H136137   1.364   1.196   2.630
12060TIP3    H236138   1.490   1.203   2.546
12061TIP3   OH236139   7.098   4.752   2.032
12061TIP3    H136140   7.134   4.739   2.120
12061TIP3    H236141   7.049   4.672   2.014
12062TIP3   OH236142   3.939   3.668   2.097
12062TIP3    H136143   3.927   3.633   2.009
12062TIP3    H236144   3.878   3.742   2.101
12063TIP3   OH236145   4.480   6.963   2.449
12063TIP3    H136146   4.510   7.036   2.505
12063TIP3    H236147   4.530   6.972   2.369
12064TIP3   OH236148   7.974   1.698   2.049
12064TIP3    H136149   7.895   1.751   2.044
12064TIP3    H236150   8.016   1.724   2.131
12065TIP3   OH236151   5.221   6.944   3.045
12065TIP3    H136152   5.295   6.884   3.034
12065TIP3    H236153   5.240   6.991   3.126
12066TIP3   OH236154   4.137   7.703   3.574
12066TIP3    H136155   4.061   7.654   3.604
12066TIP3    H236156   4.212   7.652   3.604
12067TIP3   OH236157   5.736   4.201   4.087
12067TIP3    H136158   5.810   4.143   4.100
12067TIP3    H236159   5.773   4.289   4.091
12068TIP3   OH236160   3.410   1.081   0.261
12068TIP3    H136161   3.474   1.037   0.317
12068TIP3    H236162   3.341   1.016   0.248
12069TIP3   OH236163   0.230   5.881   4.851
12069TIP3    H136164   0.184   5.828   4.916
12069TIP3    H236165   0.161   5.916   4.795
12070TIP3   OH236166   8.108   2.703   2.545
12070TIP3    H136167   8.018   2.670   2.551
12070TIP3    H236168   8.103   2.793   2.577
12071TIP3   OH236169   5.573   2.431   5.683
12071TIP3    H136170   5.646   2.480   5.721
12071TIP3    H236171   5.497   2.489   5.694
12072TIP3   OH236172   7.000   4.330   6.276
12072TIP3    H136173   6.965   4.366   6.358
12072TIP3    H236174   7.053   4.401   6.240
12073TIP3   OH236175   1.490   1.858   0.524
12073TIP3    H136176   1.454   1.826   0.441
12073TIP3    H236177   1.421   1.915   0.560
12074TIP3   OH236178   1.289   6.068   2.732
12074TIP3    H136179   1.354   5.997   2.727
12074TIP3    H236180   1.212   6.027   2.771
12075TIP3   OH236181   2.106   7.620   6.134
12075TIP3    H136182   2.143   7.568   6.063
12075TIP3    H236183   2.022   7.650   6.101
12076TIP3   OH236184   6.979   4.378   0.390
12076TIP3    H136185   7.018   4.309   0.445
12076TIP3    H236186   7.044   4.394   0.322
12077TIP3   OH236187   7.768   4.580   2.452
12077TIP3    H136188   7.800   4.490   2.451
12077TIP3    H236189   7.673   4.572   2.445
12078TIP3   OH236190   7.349   4.835   1.794
12078TIP3    H136191   7.325   4.768   1.729
12078TIP3    H236192   7.366   4.914   1.741
12079TIP3   OH236193   3.459   5.955   0.384
12079TIP3    H136194   3.500   5.973   0.300
12079TIP3    H236195   3.517   5.996   0.448
12080TIP3   OH236196   1.401   4.923   3.221
12080TIP3    H136197   1.491   4.931   3.251
12080TIP3    H236198   1.406   4.925   3.126
12081TIP3   OH236199   4.258   6.436   0.741
12081TIP3    H136200   4.189   6.427   0.808
12081TIP3    H236201   4.306   6.515   0.767
12082TIP3   OH236202   3.277   5.410   5.631
12082TIP3    H136203   3.344   5.422   5.698
12082TIP3    H236204   3.287   5.318   5.604
12083TIP3   OH236205   2.912   0.762   3.599
12083TIP3    H136206   2.962   0.793   3.674
12083TIP3    H236207   2.923   0.830   3.533
12084TIP3   OH236208   3.832   2.019   1.344
12084TIP3    H136209   3.753   2.069   1.322
12084TIP3    H236210   3.806   1.928   1.333
12085TIP3   OH236211   0.927   2.108   5.521
12085TIP3    H136212   0.905   2.104   5.614
12085TIP3    H236213   0.848   2.075   5.477
12086TIP3   OH236214   0.685   5.847   0.889
12086TIP3    H136215   0.725   5.910   0.829
12086TIP3    H236216   0.600   5.826   0.849
12087TIP3   OH236217   8.185   2.172   4.701
12087TIP3    H136218   8.218   2.262   4.705
12087TIP3    H236219   8.099   2.176   4.743
12088TIP3   OH236220   5.845   1.974   6.096
12088TIP3    H136221   5.910   1.945   6.159
12088TIP3    H236222   5.887   2.048   6.051
12089TIP3   OH236223   0.984   3.242   1.411
12089TIP3    H136224   0.987   3.275   1.501
12089TIP3    H236225   0.890   3.239   1.390
12090TIP3   OH236226   0.403   3.573   3.280
12090TIP3    H136227   0.340   3.571   3.352
12090TIP3    H236228   0.376   3.648   3.226
12091TIP3   OH236229   7.698   5.581   2.283
12091TIP3    H136230   7.698   5.535   2.367
12091TIP3    H236231   7.781   5.629   2.282
12092TIP3   OH236232   6.295   5.808   6.050
12092TIP3    H136233   6.231   5.876   6.071
12092TIP3    H236234   6.328   5.778   6.134
12093TIP3   OH236235   4.298   3.413   0.217
12093TIP3    H136236   4.218   3.416   0.164
12093TIP3    H236237   4.267   3.415   0.307
12094TIP3   OH236238   7.323   1.874   0.852
12094TIP3    H136239   7.415   1.901   0.848
12094TIP3    H236240   7.327   1.782   0.880
12095TIP3   OH236241   2.826   6.635   1.410
12095TIP3    H136242   2.787   6.664   1.492
12095TIP3    H236243   2.830   6.714   1.355
12096TIP3   OH236244   0.768   4.188   4.813
12096TIP3    H136245   0.855   4.210   4.848
12096TIP3    H236246   0.758   4.245   4.737
12097TIP3   OH236247   4.938   3.488   2.274
12097TIP3    H136248   4.858   3.538   2.259
12097TIP3    H236249   4.927   3.409   2.222
12098TIP3   OH236250   5.240   3.714   1.851
12098TIP3    H136251   5.274   3.795   1.815
12098TIP3    H236252   5.158   3.738   1.894
12099TIP3   OH236253   2.555   7.448   2.877
12099TIP3    H136254   2.499   7.491   2.812
12099TIP3    H236255   2.504   7.371   2.905
12100TIP3   OH236256   7.638   0.172   0.080
12100TIP3    H136257   7.677   0.180  -0.007
12100TIP3    H236258   7.709   0.141   0.136
12101TIP3   OH236259   2.921   7.425   2.814
12101TIP3    H136260   2.888   7.367   2.882
12101TIP3    H236261   2.922   7.371   2.735
12102TIP3   OH236262   0.787   2.645   4.747
12102TIP3    H136263   0.699   2.667   4.717
12102TIP3    H236264   0.844   2.667   4.673
12103TIP3   OH236265   1.820   2.960   4.694
12103TIP3    H136266   1.872   2.882   4.675
12103TIP3    H236267   1.838   3.019   4.621
12104TIP3   OH236268   4.149   3.101   3.920
12104TIP3    H136269   4.239   3.131   3.906
12104TIP3    H236270   4.116   3.084   3.832
12105TIP3   OH236271   5.790   5.894   2.949
12105TIP3    H136272   5.876   5.933   2.934
12105TIP3    H236273   5.753   5.883   2.861
12106TIP3   OH236274   2.115   5.548   6.496
12106TIP3    H136275   2.098   5.473   6.552
12106TIP3    H236276   2.105   5.515   6.407
12107TIP3   OH236277   0.945   6.766   1.361
12107TIP3    H136278   0.901   6.850   1.344
12107TIP3    H236279   0.875   6.708   1.390
12108TIP3   OH236280   5.922   7.463   2.955
12108TIP3    H136281   5.962   7.479   3.040
12108TIP3    H236282   5.988   7.491   2.891
12109TIP3   OH236283   2.173   2.998   5.235
12109TIP3    H136284   2.162   3.000   5.140
12109TIP3    H236285   2.178   2.905   5.256
12110TIP3   OH236286   5.778   6.077   5.575
12110TIP3    H136287   5.857   6.028   5.599
12110TIP3    H236288   5.759   6.132   5.652
12111TIP3   OH236289   0.174   6.993   1.456
12111TIP3    H136290   0.213   6.969   1.541
12111TIP3    H236291   0.250   7.005   1.398
12112TIP3   OH236292   7.560   5.219   5.349
12112TIP3    H136293   7.611   5.147   5.310
12112TIP3    H236294   7.472   5.209   5.312
12113TIP3   OH236295   6.211   5.990   3.971
12113TIP3    H136296   6.135   5.970   3.915
12113TIP3    H236297   6.203   5.929   4.044
12114TIP3   OH236298   3.361   5.092   4.610
12114TIP3    H136299   3.453   5.120   4.608
12114TIP3    H236300   3.318   5.148   4.545
12115TIP3   OH236301   1.683   7.363   1.528
12115TIP3    H136302   1.691   7.409   1.611
12115TIP3    H236303   1.590   7.341   1.521
12116TIP3   OH236304   6.940   2.567   0.991
12116TIP3    H136305   6.867   2.628   1.005
12116TIP3    H236306   6.903   2.481   1.009
12117TIP3   OH236307   1.005   0.753   2.916
12117TIP3    H136308   1.096   0.747   2.887
12117TIP3    H236309   0.990   0.847   2.928
12118TIP3   OH236310   3.209   1.704   5.841
12118TIP3    H136311   3.225   1.612   5.864
12118TIP3    H236312   3.287   1.750   5.872
12119TIP3   OH236313   7.526   5.389   2.429
12119TIP3    H136314   7.503   5.478   2.457
12119TIP3    H236315   7.490   5.382   2.341
12120TIP3   OH236316   5.404   3.828   5.976
12120TIP3    H136317   5.395   3.891   5.904
12120TIP3    H236318   5.458   3.758   5.940
12121TIP3   OH236319   1.429   0.738   3.286
12121TIP3    H136320   1.460   0.755   3.197
12121TIP3    H236321   1.475   0.803   3.340
12122TIP3   OH236322   1.897   1.079   5.807
12122TIP3    H136323   1.902   1.146   5.740
12122TIP3    H236324   1.984   1.076   5.846
12123TIP3   OH236325   2.714   6.194   0.607
12123TIP3    H136326   2.773   6.123   0.633
12123TIP3    H236327   2.676   6.225   0.689
12124TIP3   OH236328   4.077   2.358   3.455
12124TIP3    H136329   4.112   2.375   3.368
12124TIP3    H236330   4.146   2.309   3.500
12125TIP3   OH236331   0.906   1.214   5.603
12125TIP3    H136332   0.888   1.122   5.584
12125TIP3    H236333   1.002   1.218   5.612
12126TIP3   OH236334   5.802   1.046   2.767
12126TIP3    H136335   5.837   1.122   2.721
12126TIP3    H236336   5.879   0.993   2.789
12127TIP3   OH236337   0.067   6.190   0.638
12127TIP3    H136338   0.131   6.206   0.569
12127TIP3    H236339   0.034   6.102   0.620
12128TIP3   OH236340   2.556   5.745   6.180
12128TIP3    H136341   2.556   5.651   6.197
12128TIP3    H236342   2.615   5.782   6.247
12129TIP3   OH236343   5.157   5.715   3.035
12129TIP3    H136344   5.234   5.762   3.004
12129TIP3    H236345   5.173   5.702   3.129
12130TIP3   OH236346   7.785   6.952   6.312
12130TIP3    H136347   7.844   6.938   6.387
12130TIP3    H236348   7.698   6.930   6.345
12131TIP3   OH236349   3.186   0.884   0.183
12131TIP3    H136350   3.147   0.797   0.178
12131TIP3    H236351   3.223   0.899   0.096
12132TIP3   OH236352   1.041   7.098   3.422
12132TIP3    H136353   0.971   7.096   3.357
12132TIP3    H236354   1.009   7.043   3.494
12133TIP3   OH236355   5.080   0.269   4.214
12133TIP3    H136356   5.091   0.364   4.209
12133TIP3    H236357   5.169   0.234   4.209
12134TIP3   OH236358   2.068   5.098   4.686
12134TIP3    H136359   2.079   5.184   4.727
12134TIP3    H236360   2.153   5.080   4.646
12135TIP3   OH236361   3.904   2.774   1.787
12135TIP3    H136362   3.912   2.824   1.706
12135TIP3    H236363   3.940   2.688   1.765
12136TIP3   OH236364   0.393   4.114   5.433
12136TIP3    H136365   0.397   4.028   5.391
12136TIP3    H236366   0.452   4.105   5.509
12137TIP3   OH236367   2.082   0.672   2.006
12137TIP3    H136368   2.059   0.580   1.992
12137TIP3    H236369   2.008   0.721   1.971
12138TIP3   OH236370   6.339   5.981   5.679
12138TIP3    H136371   6.315   5.983   5.586
12138TIP3    H236372   6.276   6.041   5.721
12139TIP3   OH236373   4.588   5.010   0.052
12139TIP3    H136374   4.639   5.050  -0.018
12139TIP3    H236375   4.646   4.944   0.090
12140TIP3   OH236376   4.089   2.154   4.900
12140TIP3    H136377   4.048   2.120   4.979
12140TIP3    H236378   4.134   2.078   4.862
12141TIP3   OH236379   2.404   2.102   2.398
12141TIP3    H136380   2.399   2.179   2.453
12141TIP3    H236381   2.497   2.081   2.392
12142TIP3   OH236382   6.185   2.253   1.445
12142TIP3    H136383   6.138   2.317   1.391
12142TIP3    H236384   6.262   2.300   1.476
12143TIP3   OH236385   0.670   1.281   2.031
12143TIP3    H136386   0.759   1.290   1.999
12143TIP3    H236387   0.634   1.370   2.028
12144TIP3   OH236388   6.427   0.980   0.248
12144TIP3    H136389   6.368   1.055   0.244
12144TIP3    H236390   6.480   0.986   0.169
12145TIP3   OH236391   4.593   3.830   0.324
12145TIP3    H136392   4.654   3.888   0.369
12145TIP3    H236393   4.597   3.855   0.232
12146TIP3   OH236394   6.663   6.836   3.008
12146TIP3    H136395   6.732   6.833   3.074
12146TIP3    H236396   6.703   6.801   2.929
12147TIP3   OH236397   4.942  -0.011   2.432
12147TIP3    H136398   5.010  -0.028   2.366
12147TIP3    H236399   4.951   0.082   2.452
12148TIP3   OH236400   4.922   5.115   3.217
12148TIP3    H136401   4.977   5.192   3.232
12148TIP3    H236402   4.848   5.127   3.277
12149TIP3   OH236403   0.037   7.053   2.039
12149TIP3    H136404   0.110   7.090   1.990
12149TIP3    H236405  -0.041   7.087   1.994
12150TIP3   OH236406   6.466   6.973   5.325
12150TIP3    H136407   6.518   6.896   5.350
12150TIP3    H236408   6.531   7.043   5.316
12151TIP3   OH236409   2.040   0.691   3.856
12151TIP3    H136410   1.986   0.672   3.779
12151TIP3    H236411   1.994   0.762   3.901
12152TIP3   OH236412   2.642   0.008   1.610
12152TIP3    H136413   2.724   0.027   1.656
12152TIP3    H236414   2.641   0.068   1.536
12153TIP3   OH236415   3.352   2.057   1.314
12153TIP3    H136416   3.361   2.143   1.273
12153TIP3    H236417   3.382   2.070   1.404
12154TIP3   OH236418   8.107   4.617   5.224
12154TIP3    H136419   8.179   4.555   5.211
12154TIP3    H236420   8.128   4.691   5.166
12155TIP3   OH236421   2.942   7.670   4.993
12155TIP3    H136422   2.891   7.738   5.038
12155TIP3    H236423   2.942   7.698   4.901
12156TIP3   OH236424   3.809   5.254   6.536
12156TIP3    H136425   3.731   5.216   6.495
12156TIP3    H236426   3.793   5.247   6.630
12157TIP3   OH236427   8.098   4.524   4.231
12157TIP3    H136428   8.072   4.573   4.309
12157TIP3    H236429   8.141   4.445   4.265
12158TIP3   OH236430   4.080   0.878   1.713
12158TIP3    H136431   4.142   0.875   1.641
12158TIP3    H236432   4.127   0.840   1.787
12159TIP3   OH236433   5.427   6.480   2.724
12159TIP3    H136434   5.484   6.551   2.696
12159TIP3    H236435   5.460   6.403   2.677
12160TIP3   OH236436   8.268   4.122   1.810
12160TIP3    H136437   8.359   4.151   1.821
12160TIP3    H236438   8.228   4.190   1.756
12161TIP3   OH236439   7.080   3.875   4.541
12161TIP3    H136440   7.136   3.798   4.529
12161TIP3    H236441   7.123   3.943   4.489
12162TIP3   OH236442   6.286   4.461   5.432
12162TIP3    H136443   6.219   4.393   5.441
12162TIP3    H236444   6.294   4.499   5.519
12163TIP3   OH236445   5.914   0.305   6.411
12163TIP3    H136446   5.866   0.241   6.358
12163TIP3    H236447   5.982   0.253   6.454
12164TIP3   OH236448   7.248   1.924   4.836
12164TIP3    H136449   7.329   1.938   4.886
12164TIP3    H236450   7.186   1.889   4.900
12165TIP3   OH236451   4.632   1.679   0.573
12165TIP3    H136452   4.568   1.707   0.640
12165TIP3    H236453   4.657   1.590   0.600
12166TIP3   OH236454   7.898   4.621   4.578
12166TIP3    H136455   7.895   4.526   4.589
12166TIP3    H236456   7.845   4.638   4.500
12167TIP3   OH236457   6.884   1.598   3.991
12167TIP3    H136458   6.897   1.644   3.909
12167TIP3    H236459   6.879   1.666   4.057
12168TIP3   OH236460   2.367   4.830   3.392
12168TIP3    H136461   2.357   4.773   3.468
12168TIP3    H236462   2.320   4.785   3.322
12169TIP3   OH236463   1.048   3.420   2.983
12169TIP3    H136464   1.119   3.386   3.038
12169TIP3    H236465   0.969   3.407   3.036
12170TIP3   OH236466   3.016   0.341   6.071
12170TIP3    H136467   2.990   0.415   6.126
12170TIP3    H236468   3.074   0.288   6.127
12171TIP3   OH236469   4.735   4.309   6.040
12171TIP3    H136470   4.800   4.283   6.105
12171TIP3    H236471   4.684   4.230   6.024
12172TIP3   OH236472   0.946   4.679   2.128
12172TIP3    H136473   0.992   4.621   2.067
12172TIP3    H236474   0.915   4.621   2.198
12173TIP3   OH236475   2.593   7.476   1.211
12173TIP3    H136476   2.567   7.546   1.271
12173TIP3    H236477   2.515   7.421   1.204
12174TIP3   OH236478   1.132   1.507   4.091
12174TIP3    H136479   1.227   1.521   4.099
12174TIP3    H236480   1.119   1.488   3.998
12175TIP3   OH236481   7.441   6.242   2.691
12175TIP3    H136482   7.377   6.204   2.631
12175TIP3    H236483   7.388   6.281   2.761
12176TIP3   OH236484   2.154   2.751   1.641
12176TIP3    H136485   2.131   2.684   1.577
12176TIP3    H236486   2.191   2.822   1.589
12177TIP3   OH236487   7.924   2.710   1.926
12177TIP3    H136488   7.940   2.763   2.004
12177TIP3    H236489   7.830   2.698   1.923
12178TIP3   OH236490   4.371   5.561   5.210
12178TIP3    H136491   4.361   5.466   5.223
12178TIP3    H236492   4.454   5.570   5.163
12179TIP3   OH236493   3.743   1.870   3.770
12179TIP3    H136494   3.741   1.780   3.736
12179TIP3    H236495   3.664   1.876   3.824
12180TIP3   OH236496   6.342   2.114   4.781
12180TIP3    H136497   6.261   2.159   4.757
12180TIP3    H236498   6.392   2.110   4.699
12181TIP3   OH236499   8.048   6.020   5.746
12181TIP3    H136500   8.113   6.007   5.677
12181TIP3    H236501   8.053   6.114   5.766
12182TIP3   OH236502   0.128   5.347   2.289
12182TIP3    H136503   0.212   5.391   2.279
12182TIP3    H236504   0.063   5.416   2.279
12183TIP3   OH236505   6.868   6.874   3.185
12183TIP3    H136506   6.946   6.920   3.153
12183TIP3    H236507   6.892   6.846   3.273
12184TIP3   OH236508   0.646   4.415   5.516
12184TIP3    H136509   0.651   4.437   5.423
12184TIP3    H236510   0.582   4.343   5.520
12185TIP3   OH236511   4.789   0.096   5.540
12185TIP3    H136512   4.868   0.065   5.583
12185TIP3    H236513   4.815   0.109   5.449
12186TIP3   OH236514   1.144   5.719   4.543
12186TIP3    H136515   1.070   5.759   4.589
12186TIP3    H236516   1.144   5.760   4.457
12187TIP3   OH236517   1.594   6.744   2.229
12187TIP3    H136518   1.546   6.753   2.147
12187TIP3    H236519   1.529   6.761   2.297
12188TIP3   OH236520   2.372   4.211   4.920
12188TIP3    H136521   2.312   4.176   4.853
12188TIP3    H236522   2.329   4.191   5.003
12189TIP3   OH236523   5.861   4.003   6.566
12189TIP3    H136524   5.920   4.045   6.503
12189TIP3    H236525   5.915   3.989   6.644
12190TIP3   OH236526   3.883   7.584   2.222
12190TIP3    H136527   3.809   7.577   2.162
12190TIP3    H236528   3.916   7.673   2.209
12191TIP3   OH236529   4.057   3.334   6.070
12191TIP3    H136530   4.124   3.400   6.055
12191TIP3    H236531   4.040   3.297   5.983
12192TIP3   OH236532   5.968   6.232   2.570
12192TIP3    H136533   6.006   6.281   2.498
12192TIP3    H236534   5.958   6.143   2.536
12193TIP3   OH236535   5.867   1.489   1.865
12193TIP3    H136536   5.862   1.521   1.955
12193TIP3    H236537   5.836   1.563   1.812
12194TIP3   OH236538   1.148   7.648   4.334
12194TIP3    H136539   1.191   7.564   4.349
12194TIP3    H236540   1.074   7.627   4.277
12195TIP3   OH236541   5.648   1.228   5.058
12195TIP3    H136542   5.662   1.136   5.036
12195TIP3    H236543   5.553   1.239   5.055
12196TIP3   OH236544   3.576   7.355   4.526
12196TIP3    H136545   3.558   7.264   4.502
12196TIP3    H236546   3.665   7.354   4.560
12197TIP3   OH236547   0.691   3.759   1.482
12197TIP3    H136548   0.602   3.774   1.511
12197TIP3    H236549   0.739   3.733   1.561
12198TIP3   OH236550   5.549   5.055   1.363
12198TIP3    H136551   5.608   4.984   1.339
12198TIP3    H236552   5.596   5.106   1.429
12199TIP3   OH236553   3.395   4.264   0.901
12199TIP3    H136554   3.486   4.250   0.872
12199TIP3    H236555   3.393   4.355   0.931
12200TIP3   OH236556   3.290   4.254   0.059
12200TIP3    H136557   3.310   4.308  -0.017
12200TIP3    H236558   3.308   4.164   0.031
12201TIP3   OH236559   3.046   7.331   5.747
12201TIP3    H136560   3.106   7.324   5.672
12201TIP3    H236561   2.983   7.260   5.733
12202TIP3   OH236562   5.275   6.896   6.556
12202TIP3    H136563   5.218   6.933   6.623
12202TIP3    H236564   5.329   6.969   6.527
12203TIP3   OH236565   1.764   5.266   0.385
12203TIP3    H136566   1.796   5.248   0.296
12203TIP3    H236567   1.755   5.180   0.425
12204TIP3   OH236568   1.511   2.438   0.806
12204TIP3    H136569   1.576   2.478   0.747
12204TIP3    H236570   1.428   2.476   0.779
12205TIP3   OH236571   6.367   5.635   5.507
12205TIP3    H136572   6.298   5.693   5.477
12205TIP3    H236573   6.324   5.576   5.569
12206TIP3   OH236574   7.770   2.011   3.410
12206TIP3    H136575   7.790   2.077   3.476
12206TIP3    H236576   7.855   1.971   3.389
12207TIP3   OH236577   6.298   1.410   1.012
12207TIP3    H136578   6.273   1.419   0.920
12207TIP3    H236579   6.358   1.483   1.028
12208TIP3   OH236580   3.071   3.442   0.953
12208TIP3    H136581   3.032   3.366   0.910
12208TIP3    H236582   3.078   3.415   1.045
12209TIP3   OH236583   3.868  -0.020   3.537
12209TIP3    H136584   3.834   0.042   3.602
12209TIP3    H236585   3.947   0.023   3.504
12210TIP3   OH236586   2.783   0.407   1.453
12210TIP3    H136587   2.716   0.443   1.512
12210TIP3    H236588   2.866   0.437   1.490
12211TIP3   OH236589   2.329   3.903   2.662
12211TIP3    H136590   2.361   3.937   2.578
12211TIP3    H236591   2.319   3.809   2.647
12212TIP3   OH236592   1.059   2.807   5.877
12212TIP3    H136593   1.036   2.884   5.824
12212TIP3    H236594   1.095   2.745   5.814
12213TIP3   OH236595   4.016   0.228   2.189
12213TIP3    H136596   3.926   0.257   2.206
12213TIP3    H236597   4.012   0.132   2.197
12214TIP3   OH236598   6.428   1.679   2.871
12214TIP3    H136599   6.500   1.667   2.809
12214TIP3    H236600   6.470   1.698   2.954
12215TIP3   OH236601   2.807   4.476   4.386
12215TIP3    H136602   2.878   4.533   4.358
12215TIP3    H236603   2.844   4.388   4.385
12216TIP3   OH236604   1.139   2.447   5.778
12216TIP3    H136605   1.102   2.532   5.755
12216TIP3    H236606   1.063   2.390   5.790
12217TIP3   OH236607   7.898   1.810   4.611
12217TIP3    H136608   7.923   1.890   4.658
12217TIP3    H236609   7.955   1.743   4.647
12218TIP3   OH236610   2.760   0.644   3.292
12218TIP3    H136611   2.694   0.596   3.343
12218TIP3    H236612   2.830   0.662   3.354
12219TIP3   OH236613   5.566   3.414   6.483
12219TIP3    H136614   5.628   3.346   6.509
12219TIP3    H236615   5.484   3.389   6.526
12220TIP3   OH236616   3.722   4.344   3.219
12220TIP3    H136617   3.789   4.317   3.156
12220TIP3    H236618   3.770   4.384   3.291
12221TIP3   OH236619   4.555   5.018   0.666
12221TIP3    H136620   4.532   5.111   0.667
12221TIP3    H236621   4.545   4.989   0.757
12222TIP3   OH236622   2.522   0.475   6.131
12222TIP3    H136623   2.437   0.431   6.142
12222TIP3    H236624   2.586   0.410   6.161
12223TIP3   OH236625   2.336   7.755   2.210
12223TIP3    H136626   2.375   7.669   2.226
12223TIP3    H236627   2.269   7.739   2.143
12224TIP3   OH236628   1.310   1.709   3.587
12224TIP3    H136629   1.234   1.693   3.642
12224TIP3    H236630   1.275   1.711   3.498
12225TIP3   OH236631   4.958   1.635   3.483
12225TIP3    H136632   4.987   1.705   3.542
12225TIP3    H236633   5.035   1.617   3.429
12226TIP3   OH236634   5.845   6.695   6.143
12226TIP3    H136635   5.864   6.771   6.088
12226TIP3    H236636   5.763   6.660   6.107
12227TIP3   OH236637   5.805   5.743   5.855
12227TIP3    H136638   5.840   5.818   5.809
12227TIP3    H236639   5.831   5.756   5.946
12228TIP3   OH236640   0.456   2.808   1.869
12228TIP3    H136641   0.459   2.860   1.788
12228TIP3    H236642   0.492   2.867   1.936
12229TIP3   OH236643   4.585   4.727   4.922
12229TIP3    H136644   4.536   4.645   4.911
12229TIP3    H236645   4.583   4.768   4.836
12230TIP3   OH236646   5.682   3.559   2.226
12230TIP3    H136647   5.645   3.474   2.249
12230TIP3    H236648   5.735   3.584   2.301
12231TIP3   OH236649   0.649   5.186   3.072
12231TIP3    H136650   0.683   5.276   3.073
12231TIP3    H236651   0.595   5.180   3.151
12232TIP3   OH236652   0.740   3.094   5.492
12232TIP3    H136653   0.659   3.115   5.445
12232TIP3    H236654   0.803   3.159   5.461
12233TIP3   OH236655   0.186   4.090   1.170
12233TIP3    H136656   0.264   4.035   1.166
12233TIP3    H236657   0.197   4.142   1.250
12234TIP3   OH236658   1.112   2.439   2.310
12234TIP3    H136659   1.119   2.517   2.254
12234TIP3    H236660   1.183   2.383   2.282
12235TIP3   OH236661   5.149   6.449   2.335
12235TIP3    H136662   5.085   6.476   2.270
12235TIP3    H236663   5.112   6.476   2.419
12236TIP3   OH236664   3.569   7.610   0.506
12236TIP3    H136665   3.584   7.616   0.411
12236TIP3    H236666   3.657   7.611   0.543
12237TIP3   OH236667   6.197   7.037   0.977
12237TIP3    H136668   6.218   7.024   0.884
12237TIP3    H236669   6.176   7.131   0.983
12238TIP3   OH236670   5.999   7.600   0.289
12238TIP3    H136671   5.930   7.649   0.246
12238TIP3    H236672   6.036   7.544   0.221
12239TIP3   OH236673   3.842   1.491   0.883
12239TIP3    H136674   3.863   1.584   0.883
12239TIP3    H236675   3.748   1.487   0.894
12240TIP3   OH236676   6.497   3.441   4.633
12240TIP3    H136677   6.536   3.498   4.566
12240TIP3    H236678   6.460   3.368   4.584
12241TIP3   OH236679   8.031   4.013   4.288
12241TIP3    H136680   8.078   4.063   4.220
12241TIP3    H236681   8.016   3.927   4.248
12242TIP3   OH236682   0.528   1.114   0.552
12242TIP3    H136683   0.561   1.028   0.526
12242TIP3    H236684   0.590   1.176   0.514
12243TIP3   OH236685   2.482   0.762   5.227
12243TIP3    H136686   2.403   0.783   5.176
12243TIP3    H236687   2.511   0.847   5.261
12244TIP3   OH236688   4.043   3.192   4.640
12244TIP3    H136689   4.018   3.262   4.700
12244TIP3    H236690   4.026   3.228   4.553
12245TIP3   OH236691   1.701   7.574   5.010
12245TIP3    H136692   1.796   7.585   5.011
12245TIP3    H236693   1.683   7.513   5.081
12246TIP3   OH236694   2.265   4.212   3.207
12246TIP3    H136695   2.202   4.219   3.278
12246TIP3    H236696   2.233   4.139   3.153
12247TIP3   OH236697   3.462   7.013   5.569
12247TIP3    H136698   3.539   6.969   5.533
12247TIP3    H236699   3.403   7.021   5.494
12248TIP3   OH236700   8.151   5.220   5.683
12248TIP3    H136701   8.209   5.144   5.686
12248TIP3    H236702   8.160   5.261   5.769
12249TIP3   OH236703   0.592   4.392   3.382
12249TIP3    H136704   0.565   4.335   3.311
12249TIP3    H236705   0.608   4.333   3.456
12250TIP3   OH236706   6.788   4.119   5.861
12250TIP3    H136707   6.793   4.134   5.956
12250TIP3    H236708   6.846   4.185   5.823
12251TIP3   OH236709   1.475   7.691   4.512
12251TIP3    H136710   1.391   7.725   4.544
12251TIP3    H236711   1.464   7.596   4.512
12252TIP3   OH236712   5.239   6.350   6.561
12252TIP3    H136713   5.333   6.364   6.566
12252TIP3    H236714   5.211   6.401   6.485
12253TIP3   OH236715   4.834   2.787   5.385
12253TIP3    H136716   4.765   2.848   5.413
12253TIP3    H236717   4.871   2.826   5.306
12254TIP3   OH236718   2.460   2.417   5.686
12254TIP3    H136719   2.553   2.439   5.684
12254TIP3    H236720   2.423   2.473   5.755
12255TIP3   OH236721   8.190   5.254   6.237
12255TIP3    H136722   8.190   5.183   6.301
12255TIP3    H236723   8.209   5.332   6.289
12256TIP3   OH236724   2.728   4.720   0.097
12256TIP3    H136725   2.687   4.712   0.011
12256TIP3    H236726   2.812   4.676   0.088
12257TIP3   OH236727   4.508   0.915   4.347
12257TIP3    H136728   4.597   0.924   4.314
12257TIP3    H236729   4.515   0.849   4.416
12258TIP3   OH236730   1.597   3.627   1.997
12258TIP3    H136731   1.578   3.550   1.944
12258TIP3    H236732   1.521   3.683   1.986
12259TIP3   OH236733   0.408   0.954   3.283
12259TIP3    H136734   0.439   0.865   3.268
12259TIP3    H236735   0.343   0.946   3.352
12260TIP3   OH236736   0.565   1.091   6.689
12260TIP3    H136737   0.560   1.020   6.626
12260TIP3    H236738   0.658   1.102   6.706
12261TIP3   OH236739   4.621   2.294   3.437
12261TIP3    H136740   4.590   2.251   3.516
12261TIP3    H236741   4.692   2.351   3.467
12262TIP3   OH236742   2.234   1.469   5.525
12262TIP3    H136743   2.314   1.471   5.474
12262TIP3    H236744   2.235   1.550   5.576
12263TIP3   OH236745   4.732   7.319   3.517
12263TIP3    H136746   4.826   7.304   3.511
12263TIP3    H236747   4.712   7.308   3.610
12264TIP3   OH236748   0.279   3.364   5.433
12264TIP3    H136749   0.198   3.408   5.409
12264TIP3    H236750   0.251   3.283   5.476
12265TIP3   OH236751   5.726   1.655   0.287
12265TIP3    H136752   5.779   1.728   0.321
12265TIP3    H236753   5.698   1.607   0.366
12266TIP3   OH236754   3.057   2.853   2.522
12266TIP3    H136755   3.016   2.936   2.546
12266TIP3    H236756   3.146   2.860   2.557
12267TIP3   OH236757   1.090   2.689   5.630
12267TIP3    H136758   1.160   2.698   5.565
12267TIP3    H236759   1.011   2.716   5.583
12268TIP3   OH236760   4.257   7.747   5.353
12268TIP3    H136761   4.295   7.720   5.436
12268TIP3    H236762   4.184   7.804   5.376
12269TIP3   OH236763   7.187   5.565   4.173
12269TIP3    H136764   7.111   5.624   4.176
12269TIP3    H236765   7.256   5.617   4.134
12270TIP3   OH236766   0.409   3.846   2.673
12270TIP3    H136767   0.459   3.895   2.739
12270TIP3    H236768   0.327   3.824   2.716
12271TIP3   OH236769   2.440   4.375   5.160
12271TIP3    H136770   2.519   4.419   5.129
12271TIP3    H236771   2.374   4.394   5.093
12272TIP3   OH236772   2.646   5.948   0.923
12272TIP3    H136773   2.698   5.910   0.853
12272TIP3    H236774   2.681   5.908   1.003
12273TIP3   OH236775   1.207   7.604   0.025
12273TIP3    H136776   1.240   7.592   0.114
12273TIP3    H236777   1.151   7.681   0.029
12274TIP3   OH236778   2.686   3.216   4.885
12274TIP3    H136779   2.706   3.233   4.977
12274TIP3    H236780   2.592   3.231   4.877
12275TIP3   OH236781   4.792   0.319   0.124
12275TIP3    H136782   4.790   0.315   0.028
12275TIP3    H236783   4.706   0.353   0.148
12276TIP3   OH236784   3.820   2.626   4.583
12276TIP3    H136785   3.832   2.596   4.493
12276TIP3    H236786   3.795   2.547   4.632
12277TIP3   OH236787   5.622   0.014   3.381
12277TIP3    H136788   5.668  -0.060   3.420
12277TIP3    H236789   5.656   0.018   3.291
12278TIP3   OH236790   6.642   7.726   2.224
12278TIP3    H136791   6.682   7.660   2.167
12278TIP3    H236792   6.703   7.799   2.223
12279TIP3   OH236793   1.555   0.430   6.229
12279TIP3    H136794   1.608   0.487   6.172
12279TIP3    H236795   1.610   0.416   6.306
12280TIP3   OH236796   2.084   2.769   4.283
12280TIP3    H136797   2.103   2.681   4.314
12280TIP3    H236798   2.166   2.817   4.299
12281TIP3   OH236799   7.902   0.442   6.230
12281TIP3    H136800   7.924   0.386   6.156
12281TIP3    H236801   7.807   0.444   6.232
12282TIP3   OH236802   4.082   1.016   4.067
12282TIP3    H136803   4.148   1.016   4.136
12282TIP3    H236804   4.131   1.007   3.986
12283TIP3   OH236805   7.856   4.349   5.589
12283TIP3    H136806   7.780   4.358   5.531
12283TIP3    H236807   7.824   4.378   5.674
12284TIP3   OH236808   3.517   1.691   1.687
12284TIP3    H136809   3.515   1.774   1.735
12284TIP3    H236810   3.563   1.631   1.746
12285TIP3   OH236811   1.053   3.524   6.633
12285TIP3    H136812   1.140   3.486   6.619
12285TIP3    H236813   1.006   3.506   6.551
12286TIP3   OH236814   5.501   4.186   3.283
12286TIP3    H136815   5.557   4.167   3.359
12286TIP3    H236816   5.562   4.211   3.214
12287TIP3   OH236817   2.893   4.108   6.388
12287TIP3    H136818   2.898   4.035   6.327
12287TIP3    H236819   2.802   4.109   6.417
12288TIP3   OH236820   1.248   1.408   1.230
12288TIP3    H136821   1.313   1.400   1.160
12288TIP3    H236822   1.252   1.324   1.276
12289TIP3   OH236823   2.039   2.293   0.945
12289TIP3    H136824   2.037   2.230   0.873
12289TIP3    H236825   2.113   2.350   0.926
12290TIP3   OH236826   4.997   3.889   0.221
12290TIP3    H136827   5.016   3.796   0.216
12290TIP3    H236828   5.036   3.926   0.141
12291TIP3   OH236829   2.796   2.071   1.268
12291TIP3    H136830   2.888   2.057   1.291
12291TIP3    H236831   2.795   2.071   1.172
12292TIP3   OH236832   2.529   4.019   0.551
12292TIP3    H136833   2.515   3.939   0.500
12292TIP3    H236834   2.624   4.028   0.556
12293TIP3   OH236835   3.038   6.950   1.329
12293TIP3    H136836   2.948   6.918   1.338
12293TIP3    H236837   3.068   6.913   1.246
12294TIP3   OH236838   1.194   6.380   6.638
12294TIP3    H136839   1.169   6.463   6.679
12294TIP3    H236840   1.224   6.325   6.710
12295TIP3   OH236841   2.499   7.702   0.463
12295TIP3    H136842   2.581   7.664   0.493
12295TIP3    H236843   2.470   7.757   0.535
12296TIP3   OH236844   0.855   5.225   2.078
12296TIP3    H136845   0.871   5.280   2.002
12296TIP3    H236846   0.942   5.199   2.108
12297TIP3   OH236847   4.635   7.193   4.928
12297TIP3    H136848   4.575   7.265   4.947
12297TIP3    H236849   4.621   7.175   4.835
12298TIP3   OH236850   4.908   0.840   4.968
12298TIP3    H136851   4.856   0.859   5.045
12298TIP3    H236852   4.943   0.752   4.983
12299TIP3   OH236853   8.070   7.234   5.866
12299TIP3    H136854   8.071   7.183   5.947
12299TIP3    H236855   8.160   7.267   5.858
12300TIP3   OH236856   6.501   3.616   4.091
12300TIP3    H136857   6.492   3.629   3.997
12300TIP3    H236858   6.554   3.536   4.099
12301TIP3   OH236859   4.224   0.047   0.378
12301TIP3    H136860   4.276   0.127   0.378
12301TIP3    H236861   4.144   0.069   0.330
12302TIP3   OH236862   7.009   1.328   4.770
12302TIP3    H136863   7.027   1.310   4.678
12302TIP3    H236864   7.070   1.270   4.817
12303TIP3   OH236865   5.492   4.834   3.036
12303TIP3    H136866   5.500   4.788   3.120
12303TIP3    H236867   5.436   4.778   2.983
12304TIP3   OH236868   4.680   0.584   6.033
12304TIP3    H136869   4.697   0.679   6.037
12304TIP3    H236870   4.587   0.577   6.013
12305TIP3   OH236871   2.334  -0.009   4.174
12305TIP3    H136872   2.341  -0.092   4.221
12305TIP3    H236873   2.257  -0.020   4.118
12306TIP3   OH236874   8.357   6.722   5.050
12306TIP3    H136875   8.303   6.713   4.972
12306TIP3    H236876   8.296   6.717   5.123
12307TIP3   OH236877   1.801   5.204   0.114
12307TIP3    H136878   1.869   5.158   0.064
12307TIP3    H236879   1.736   5.228   0.048
12308TIP3   OH236880   4.878   2.191   4.773
12308TIP3    H136881   4.808   2.127   4.785
12308TIP3    H236882   4.833   2.274   4.756
12309TIP3   OH236883   3.877   0.092   1.488
12309TIP3    H136884   3.927   0.154   1.542
12309TIP3    H236885   3.822   0.147   1.433
12310TIP3   OH236886   1.121   7.555   3.235
12310TIP3    H136887   1.173   7.552   3.154
12310TIP3    H236888   1.058   7.625   3.221
12311TIP3   OH236889   5.758   2.598   5.777
12311TIP3    H136890   5.714   2.670   5.822
12311TIP3    H236891   5.793   2.637   5.697
12312TIP3   OH236892   8.253   5.666   5.280
12312TIP3    H136893   8.290   5.734   5.336
12312TIP3    H236894   8.262   5.585   5.330
12313TIP3   OH236895   1.098   2.434   5.241
12313TIP3    H136896   1.141   2.518   5.228
12313TIP3    H236897   1.040   2.425   5.165
12314TIP3   OH236898   3.867   4.088   0.764
12314TIP3    H136899   3.807   4.028   0.808
12314TIP3    H236900   3.952   4.045   0.770
12315TIP3   OH236901   3.121   0.440   5.561
12315TIP3    H136902   3.060   0.408   5.494
12315TIP3    H236903   3.101   0.387   5.638
12316TIP3   OH236904   3.075   1.450   4.977
12316TIP3    H136905   3.043   1.455   4.887
12316TIP3    H236906   3.102   1.359   4.988
12317TIP3   OH236907   7.995   2.781   4.042
12317TIP3    H136908   7.924   2.739   4.090
12317TIP3    H236909   8.065   2.715   4.039
12318TIP3   OH236910   2.952   4.550   0.092
12318TIP3    H136911   3.002   4.556   0.010
12318TIP3    H236912   2.924   4.459   0.097
12319TIP3   OH236913   8.128   3.167   3.063
12319TIP3    H136914   8.118   3.237   3.128
12319TIP3    H236915   8.205   3.118   3.093
12320TIP3   OH236916   0.383   0.703   1.382
12320TIP3    H136917   0.391   0.789   1.340
12320TIP3    H236918   0.397   0.640   1.312
12321TIP3   OH236919   6.027   6.359   3.908
12321TIP3    H136920   6.112   6.328   3.875
12321TIP3    H236921   5.980   6.387   3.829
12322TIP3   OH236922   5.044   5.009   4.848
12322TIP3    H136923   5.033   4.999   4.754
12322TIP3    H236924   5.083   5.096   4.859
12323TIP3   OH236925   6.095   5.907   2.041
12323TIP3    H136926   6.087   5.854   1.962
12323TIP3    H236927   6.023   5.970   2.035
12324TIP3   OH236928   7.150   7.235   4.727
12324TIP3    H136929   7.155   7.142   4.747
12324TIP3    H236930   7.063   7.261   4.758
12325TIP3   OH236931   7.034   6.771   0.982
12325TIP3    H136932   6.964   6.835   0.967
12325TIP3    H236933   6.999   6.689   0.947
12326TIP3   OH236934   6.101   5.413   1.223
12326TIP3    H136935   6.009   5.439   1.217
12326TIP3    H236936   6.143   5.454   1.147
12327TIP3   OH236937   5.254   4.768   1.676
12327TIP3    H136938   5.249   4.675   1.696
12327TIP3    H236939   5.345   4.782   1.649
12328TIP3   OH236940   1.134   2.572   0.331
12328TIP3    H136941   1.193   2.617   0.270
12328TIP3    H236942   1.046   2.593   0.299
12329TIP3   OH236943   6.152   5.355   1.846
12329TIP3    H136944   6.133   5.262   1.862
12329TIP3    H236945   6.076   5.386   1.796
12330TIP3   OH236946   6.501   2.795   3.768
12330TIP3    H136947   6.452   2.723   3.808
12330TIP3    H236948   6.435   2.846   3.722
12331TIP3   OH236949   5.702   0.634   2.232
12331TIP3    H136950   5.797   0.640   2.246
12331TIP3    H236951   5.672   0.575   2.302
12332TIP3   OH236952   4.187   1.212   2.709
12332TIP3    H136953   4.209   1.191   2.800
12332TIP3    H236954   4.201   1.131   2.661
12333TIP3   OH236955   6.640   5.275   0.506
12333TIP3    H136956   6.571   5.335   0.477
12333TIP3    H236957   6.716   5.332   0.521
12334TIP3   OH236958   0.740   5.275   0.835
12334TIP3    H136959   0.677   5.264   0.906
12334TIP3    H236960   0.740   5.369   0.816
12335TIP3   OH236961   5.884   5.276   4.785
12335TIP3    H136962   5.919   5.255   4.871
12335TIP3    H236963   5.795   5.241   4.785
12336TIP3   OH236964   5.747   7.782   0.386
12336TIP3    H136965   5.768   7.730   0.464
12336TIP3    H236966   5.832   7.805   0.349
12337TIP3   OH236967   7.276   1.791   4.565
12337TIP3    H136968   7.271   1.805   4.659
12337TIP3    H236969   7.185   1.777   4.538
12338TIP3   OH236970   8.146   2.519   1.835
12338TIP3    H136971   8.078   2.473   1.785
12338TIP3    H236972   8.101   2.595   1.873
12339TIP3   OH236973   4.594   1.365   5.159
12339TIP3    H136974   4.505   1.395   5.139
12339TIP3    H236975   4.651   1.418   5.104
12340TIP3   OH236976   0.311   5.611   2.342
12340TIP3    H136977   0.397   5.576   2.317
12340TIP3    H236978   0.325   5.648   2.430
12341TIP3   OH236979   6.865   2.023   5.061
12341TIP3    H136980   6.820   2.105   5.082
12341TIP3    H236981   6.829   1.960   5.123
12342TIP3   OH236982   0.682   6.025   1.391
12342TIP3    H136983   0.743   5.961   1.355
12342TIP3    H236984   0.622   5.974   1.446
12343TIP3   OH236985   4.124   1.013   4.986
12343TIP3    H136986   4.070   0.971   5.053
12343TIP3    H236987   4.204   1.038   5.031
12344TIP3   OH236988   0.981   3.827   1.612
12344TIP3    H136989   0.983   3.912   1.656
12344TIP3    H236990   0.923   3.774   1.667
12345TIP3   OH236991   6.263   3.482   5.740
12345TIP3    H136992   6.276   3.572   5.770
12345TIP3    H236993   6.168   3.473   5.731
12346TIP3   OH236994   0.261   6.514   5.047
12346TIP3    H136995   0.224   6.603   5.050
12346TIP3    H236996   0.227   6.477   4.965
12347TIP3   OH236997   7.364   2.397   2.429
12347TIP3    H136998   7.389   2.347   2.506
12347TIP3    H236999   7.268   2.392   2.426
12348TIP3   OH237000   6.723   3.672   5.723
12348TIP3    H137001   6.648   3.615   5.705
12348TIP3    H237002   6.712   3.697   5.815
12349TIP3   OH237003   5.515   5.270   5.206
12349TIP3    H137004   5.485   5.332   5.139
12349TIP3    H237005   5.457   5.194   5.195
12350TIP3   OH237006   6.019   5.277   4.461
12350TIP3    H137007   6.026   5.335   4.537
12350TIP3    H237008   5.996   5.335   4.389
12351TIP3   OH237009   1.123   3.794   1.857
12351TIP3    H137010   1.113   3.704   1.828
12351TIP3    H237011   1.034   3.829   1.861
12352TIP3   OH237012   5.904   7.619   3.825
12352TIP3    H137013   5.850   7.657   3.756
12352TIP3    H237014   5.934   7.535   3.789
12353TIP3   OH237015   3.564   0.639   2.810
12353TIP3    H137016   3.497   0.692   2.766
12353TIP3    H237017   3.547   0.549   2.780
12354TIP3   OH237018   1.888   0.716   0.583
12354TIP3    H137019   1.973   0.754   0.562
12354TIP3    H237020   1.900   0.676   0.669
12355TIP3   OH237021   6.987   1.307   2.943
12355TIP3    H137022   7.070   1.353   2.933
12355TIP3    H237023   6.958   1.290   2.853
12356TIP3   OH237024   1.578   5.406   0.147
12356TIP3    H137025   1.655   5.381   0.199
12356TIP3    H237026   1.536   5.322   0.126
12357TIP3   OH237027   0.157   7.741   1.374
12357TIP3    H137028   0.165   7.791   1.455
12357TIP3    H237029   0.238   7.759   1.326
12358TIP3   OH237030   4.701   2.376   1.847
12358TIP3    H137031   4.651   2.393   1.767
12358TIP3    H237032   4.751   2.456   1.861
12359TIP3   OH237033   0.876   5.811   5.108
12359TIP3    H137034   0.834   5.733   5.146
12359TIP3    H237035   0.963   5.780   5.083
12360TIP3   OH237036   1.528   5.274   4.460
12360TIP3    H137037   1.551   5.266   4.553
12360TIP3    H237038   1.466   5.348   4.457
12361TIP3   OH237039   7.575   3.398   1.252
12361TIP3    H137040   7.606   3.463   1.188
12361TIP3    H237041   7.542   3.326   1.199
12362TIP3   OH237042   8.199   6.794   2.179
12362TIP3    H137043   8.196   6.849   2.101
12362TIP3    H237044   8.197   6.855   2.252
12363TIP3   OH237045   6.512   1.357   1.693
12363TIP3    H137046   6.594   1.357   1.643
12363TIP3    H237047   6.444   1.377   1.629
12364TIP3   OH237048   7.333   0.906   4.774
12364TIP3    H137049   7.328   0.812   4.755
12364TIP3    H237050   7.350   0.910   4.868
12365TIP3   OH237051   7.736   1.539   1.379
12365TIP3    H137052   7.696   1.612   1.426
12365TIP3    H237053   7.818   1.574   1.345
12366TIP3   OH237054   0.524   3.002   6.582
12366TIP3    H137055   0.542   3.066   6.513
12366TIP3    H237056   0.608   2.993   6.628
12367TIP3   OH237057   7.648   6.218   5.758
12367TIP3    H137058   7.566   6.211   5.807
12367TIP3    H237059   7.703   6.148   5.793
12368TIP3   OH237060   4.897   3.464   1.607
12368TIP3    H137061   4.955   3.529   1.567
12368TIP3    H237062   4.918   3.467   1.701
12369TIP3   OH237063   5.217   4.517   0.990
12369TIP3    H137064   5.150   4.544   0.927
12369TIP3    H237065   5.172   4.518   1.075
12370TIP3   OH237066   0.498   0.319   4.971
12370TIP3    H137067   0.482   0.407   4.939
12370TIP3    H237068   0.426   0.267   4.936
12371TIP3   OH237069   2.987   1.367   2.834
12371TIP3    H137070   2.980   1.446   2.888
12371TIP3    H237071   3.081   1.354   2.822
12372TIP3   OH237072   3.288   5.508   0.590
12372TIP3    H137073   3.204   5.469   0.566
12372TIP3    H237074   3.307   5.569   0.519
12373TIP3   OH237075   0.654   1.628   6.684
12373TIP3    H137076   0.601   1.651   6.608
12373TIP3    H237077   0.612   1.671   6.758
12374TIP3   OH237078   0.842   3.576   4.563
12374TIP3    H137079   0.881   3.604   4.481
12374TIP3    H237080   0.779   3.644   4.585
12375TIP3   OH237081   5.923   2.307   6.231
12375TIP3    H137082   5.946   2.276   6.144
12375TIP3    H237083   5.845   2.360   6.218
12376TIP3   OH237084   7.421   5.086   1.622
12376TIP3    H137085   7.375   5.131   1.692
12376TIP3    H237086   7.357   5.081   1.551
12377TIP3   OH237087   1.587   6.509   1.540
12377TIP3    H137088   1.543   6.430   1.574
12377TIP3    H237089   1.531   6.581   1.569
12378TIP3   OH237090   5.477   1.326   5.853
12378TIP3    H137091   5.423   1.381   5.796
12378TIP3    H237092   5.435   1.240   5.849
12379TIP3   OH237093   0.807   5.986   1.787
12379TIP3    H137094   0.898   5.965   1.765
12379TIP3    H237095   0.755   5.944   1.718
12380TIP3   OH237096   5.521   0.099   1.818
12380TIP3    H137097   5.579   0.176   1.820
12380TIP3    H237098   5.541   0.053   1.899
12381TIP3   OH237099   4.535   3.005   1.091
12381TIP3    H137100   4.605   3.044   1.039
12381TIP3    H237101   4.502   2.933   1.038
12382TIP3   OH237102   2.514   3.596   1.040
12382TIP3    H137103   2.546   3.507   1.049
12382TIP3    H237104   2.494   3.624   1.129
12383TIP3   OH237105   6.858   5.632   4.930
12383TIP3    H137106   6.776   5.593   4.900
12383TIP3    H237107   6.918   5.559   4.937
12384TIP3   OH237108   6.651   2.240   5.190
12384TIP3    H137109   6.637   2.216   5.281
12384TIP3    H237110   6.571   2.210   5.145
12385TIP3   OH237111   2.379   2.891   0.640
12385TIP3    H137112   2.456   2.947   0.629
12385TIP3    H237113   2.345   2.879   0.552
12386TIP3   OH237114   6.686   6.696   0.346
12386TIP3    H137115   6.730   6.644   0.280
12386TIP3    H237116   6.741   6.688   0.424
12387TIP3   OH237117   7.574   0.903   4.643
12387TIP3    H137118   7.489   0.916   4.685
12387TIP3    H237119   7.584   0.979   4.586
12388TIP3   OH237120   1.577   0.433   4.170
12388TIP3    H137121   1.555   0.456   4.260
12388TIP3    H237122   1.500   0.385   4.138
12389TIP3   OH237123   3.967   0.624   1.570
12389TIP3    H137124   4.058   0.595   1.569
12389TIP3    H237125   3.968   0.706   1.619
12390TIP3   OH237126   2.641   7.245   5.725
12390TIP3    H137127   2.702   7.295   5.779
12390TIP3    H237128   2.602   7.310   5.666
12391TIP3   OH237129   5.529   3.224   1.615
12391TIP3    H137130   5.614   3.268   1.618
12391TIP3    H237131   5.511   3.199   1.705
12392TIP3   OH237132   7.358   5.037   3.722
12392TIP3    H137133   7.439   5.062   3.765
12392TIP3    H237134   7.378   4.954   3.679
12393TIP3   OH237135   6.216   7.734   1.923
12393TIP3    H137136   6.160   7.805   1.953
12393TIP3    H237137   6.275   7.718   1.997
12394TIP3   OH237138   1.288   4.938   2.179
12394TIP3    H137139   1.271   4.993   2.255
12394TIP3    H237140   1.281   4.848   2.212
12395TIP3   OH237141   4.894   6.321   6.777
12395TIP3    H137142   4.895   6.297   6.870
12395TIP3    H237143   4.974   6.283   6.741
12396TIP3   OH237144   8.042   0.669   0.140
12396TIP3    H137145   8.053   0.602   0.208
12396TIP3    H237146   8.050   0.622   0.058
12397TIP3   OH237147   7.758   5.506   5.786
12397TIP3    H137148   7.683   5.507   5.726
12397TIP3    H237149   7.729   5.555   5.862
12398TIP3   OH237150   3.526   1.414   4.352
12398TIP3    H137151   3.621   1.421   4.354
12398TIP3    H237152   3.497   1.489   4.299
12399TIP3   OH237153   7.496   7.128   1.833
12399TIP3    H137154   7.541   7.052   1.798
12399TIP3    H237155   7.512   7.197   1.769
12400TIP3   OH237156   5.368   5.183   0.753
12400TIP3    H137157   5.328   5.201   0.838
12400TIP3    H237158   5.459   5.211   0.763
12401TIP3   OH237159   0.055   4.822   6.052
12401TIP3    H137160   0.047   4.726   6.050
12401TIP3    H237161   0.039   4.846   6.143
12402TIP3   OH237162   4.345   2.538   1.263
12402TIP3    H137163   4.428   2.568   1.299
12402TIP3    H237164   4.370   2.469   1.201
12403TIP3   OH237165   6.769   6.277   6.695
12403TIP3    H137166   6.715   6.216   6.745
12403TIP3    H237167   6.707   6.334   6.651
12404TIP3   OH237168   4.669   2.817   1.312
12404TIP3    H137169   4.602   2.866   1.263
12404TIP3    H237170   4.736   2.798   1.247
12405TIP3   OH237171   4.519   4.182   2.440
12405TIP3    H137172   4.567   4.228   2.508
12405TIP3    H237173   4.545   4.225   2.359
12406TIP3   OH237174   1.601   1.201   1.836
12406TIP3    H137175   1.604   1.290   1.802
12406TIP3    H237176   1.538   1.156   1.780
12407TIP3   OH237177   7.758   5.628   3.753
12407TIP3    H137178   7.809   5.698   3.793
12407TIP3    H237179   7.817   5.588   3.689
12408TIP3   OH237180   0.646   1.646   3.347
12408TIP3    H137181   0.608   1.649   3.435
12408TIP3    H237182   0.732   1.688   3.357
12409TIP3   OH237183   1.730   6.291   0.207
12409TIP3    H137184   1.802   6.318   0.264
12409TIP3    H237185   1.772   6.272   0.123
12410TIP3   OH237186   0.262   0.339   2.412
12410TIP3    H137187   0.239   0.374   2.498
12410TIP3    H237188   0.346   0.382   2.390
12411TIP3   OH237189   1.017   1.882   0.422
12411TIP3    H137190   1.001   1.974   0.404
12411TIP3    H237191   0.978   1.868   0.509
12412TIP3   OH237192   4.986   5.932   2.816
12412TIP3    H137193   4.912   5.880   2.848
12412TIP3    H237194   4.995   5.908   2.724
12413TIP3   OH237195   5.859   4.129   2.687
12413TIP3    H137196   5.863   4.203   2.627
12413TIP3    H237197   5.898   4.056   2.639
12414TIP3   OH237198   4.294   4.413   1.604
12414TIP3    H137199   4.365   4.366   1.645
12414TIP3    H237200   4.220   4.403   1.664
12415TIP3   OH237201   0.233   2.912   5.114
12415TIP3    H137202   0.308   2.888   5.058
12415TIP3    H237203   0.157   2.906   5.056
12416TIP3   OH237204   5.679   1.061   4.247
12416TIP3    H137205   5.645   0.991   4.302
12416TIP3    H237206   5.670   1.028   4.157
12417TIP3   OH237207   0.040   3.241   0.993
12417TIP3    H137208   0.003   3.153   0.983
12417TIP3    H237209   0.015   3.287   0.913
12418TIP3   OH237210   3.568   7.180   3.472
12418TIP3    H137211   3.533   7.129   3.545
12418TIP3    H237212   3.592   7.115   3.406
12419TIP3   OH237213   1.970   6.735   4.484
12419TIP3    H137214   1.958   6.755   4.391
12419TIP3    H237215   1.934   6.647   4.495
12420TIP3   OH237216   7.277   0.456   6.713
12420TIP3    H137217   7.225   0.534   6.730
12420TIP3    H237218   7.229   0.384   6.754
12421TIP3   OH237219   1.672   4.946   4.439
12421TIP3    H137220   1.741   4.893   4.480
12421TIP3    H237221   1.710   5.034   4.433
12422TIP3   OH237222   1.510   1.667   1.008
12422TIP3    H137223   1.534   1.700   1.094
12422TIP3    H237224   1.553   1.726   0.946
12423TIP3   OH237225   0.613   4.600   1.261
12423TIP3    H137226   0.636   4.655   1.335
12423TIP3    H237227   0.693   4.552   1.241
12424TIP3   OH237228   3.219   6.037   6.350
12424TIP3    H137229   3.272   5.975   6.301
12424TIP3    H237230   3.278   6.111   6.367
12425TIP3   OH237231   2.551   5.064   5.731
12425TIP3    H137232   2.509   5.150   5.738
12425TIP3    H237233   2.485   5.003   5.765
12426TIP3   OH237234   1.110   2.023   1.201
12426TIP3    H137235   1.150   2.017   1.288
12426TIP3    H237236   1.056   1.944   1.194
12427TIP3   OH237237   5.769   1.194   2.165
12427TIP3    H137238   5.744   1.175   2.255
12427TIP3    H237239   5.843   1.136   2.148
12428TIP3   OH237240   0.820   6.016   3.474
12428TIP3    H137241   0.798   6.098   3.518
12428TIP3    H237242   0.748   5.957   3.497
12429TIP3   OH237243   1.108   2.195   6.738
12429TIP3    H137244   1.092   2.100   6.733
12429TIP3    H237245   1.194   2.207   6.698
12430TIP3   OH237246   6.950   6.215   5.219
12430TIP3    H137247   6.910   6.155   5.155
12430TIP3    H237248   6.960   6.297   5.172
12431TIP3   OH237249   0.239   1.170   1.360
12431TIP3    H137250   0.197   1.097   1.406
12431TIP3    H237251   0.173   1.200   1.297
12432TIP3   OH237252   4.495   5.358   0.132
12432TIP3    H137253   4.502   5.343   0.226
12432TIP3    H237254   4.581   5.391   0.106
12433TIP3   OH237255   7.217   2.723   0.397
12433TIP3    H137256   7.288   2.723   0.461
12433TIP3    H237257   7.137   2.715   0.449
12434TIP3   OH237258   3.534   0.471   5.772
12434TIP3    H137259   3.515   0.384   5.806
12434TIP3    H237260   3.515   0.530   5.844
12435TIP3   OH237261   7.852   0.884   3.631
12435TIP3    H137262   7.766   0.920   3.610
12435TIP3    H237263   7.872   0.826   3.557
12436TIP3   OH237264   3.485   4.707   2.039
12436TIP3    H137265   3.484   4.623   2.086
12436TIP3    H237266   3.397   4.743   2.051
12437TIP3   OH237267   1.537   0.769   4.872
12437TIP3    H137268   1.569   0.838   4.815
12437TIP3    H237269   1.444   0.760   4.850
12438TIP3   OH237270   5.655   4.983   0.949
12438TIP3    H137271   5.586   4.992   1.014
12438TIP3    H237272   5.684   4.892   0.956
12439TIP3   OH237273   6.709   3.303   0.177
12439TIP3    H137274   6.633   3.348   0.213
12439TIP3    H237275   6.717   3.223   0.229
12440TIP3   OH237276   6.328   5.075   2.195
12440TIP3    H137277   6.373   5.129   2.130
12440TIP3    H237278   6.345   5.120   2.278
12441TIP3   OH237279   7.636   4.874   1.567
12441TIP3    H137280   7.642   4.891   1.661
12441TIP3    H237281   7.554   4.915   1.540
12442TIP3   OH237282   8.100   7.162   2.788
12442TIP3    H137283   8.143   7.206   2.861
12442TIP3    H237284   8.125   7.213   2.711
12443TIP3   OH237285   0.379   6.500   1.037
12443TIP3    H137286   0.473   6.496   1.049
12443TIP3    H237287   0.365   6.487   0.944
12444TIP3   OH237288   1.288   4.023   2.967
12444TIP3    H137289   1.226   4.031   3.039
12444TIP3    H237290   1.256   3.949   2.916
12445TIP3   OH237291   1.406   4.956   3.932
12445TIP3    H137292   1.451   4.992   3.855
12445TIP3    H237293   1.447   4.870   3.945
12446TIP3   OH237294   6.322   4.777   3.979
12446TIP3    H137295   6.338   4.812   4.066
12446TIP3    H237296   6.254   4.711   3.991
12447TIP3   OH237297   0.042   3.672   3.923
12447TIP3    H137298   0.006   3.742   3.868
12447TIP3    H237299   0.050   3.597   3.864
12448TIP3   OH237300   1.802   2.584   6.110
12448TIP3    H137301   1.893   2.600   6.082
12448TIP3    H237302   1.753   2.657   6.072
12449TIP3   OH237303   0.136   0.543   0.734
12449TIP3    H137304   0.042   0.529   0.745
12449TIP3    H237305   0.176   0.468   0.777
12450TIP3   OH237306   3.062   4.964   2.789
12450TIP3    H137307   3.107   4.883   2.813
12450TIP3    H237308   3.132   5.028   2.778
12451TIP3   OH237309   2.916   1.608   5.140
12451TIP3    H137310   2.957   1.546   5.080
12451TIP3    H237311   2.933   1.694   5.101
12452TIP3   OH237312   5.889   0.408   2.122
12452TIP3    H137313   5.877   0.446   2.036
12452TIP3    H237314   5.939   0.473   2.171
12453TIP3   OH237315   6.624   3.561   1.718
12453TIP3    H137316   6.691   3.620   1.685
12453TIP3    H237317   6.673   3.484   1.749
12454TIP3   OH237318   5.942   2.033   4.126
12454TIP3    H137319   5.970   2.042   4.217
12454TIP3    H237320   5.976   1.948   4.099
12455TIP3   OH237321   3.783   3.184   5.884
12455TIP3    H137322   3.750   3.246   5.820
12455TIP3    H237323   3.725   3.195   5.960
12456TIP3   OH237324   5.610   4.029   1.150
12456TIP3    H137325   5.620   4.120   1.178
12456TIP3    H237326   5.574   4.035   1.061
12457TIP3   OH237327   6.427   0.175   0.425
12457TIP3    H137328   6.493   0.243   0.441
12457TIP3    H237329   6.462   0.125   0.351
12458TIP3   OH237330   8.338   0.792   2.589
12458TIP3    H137331   8.357   0.784   2.682
12458TIP3    H237332   8.248   0.762   2.580
12459TIP3   OH237333   6.526   2.145   6.089
12459TIP3    H137334   6.470   2.068   6.083
12459TIP3    H237335   6.493   2.194   6.164
12460TIP3   OH237336   3.150   4.419   4.350
12460TIP3    H137337   3.147   4.446   4.442
12460TIP3    H237338   3.219   4.473   4.312
12461TIP3   OH237339   0.848   2.540   4.067
12461TIP3    H137340   0.800   2.515   4.146
12461TIP3    H237341   0.847   2.636   4.067
12462TIP3   OH237342   2.927   7.525   0.400
12462TIP3    H137343   2.868   7.591   0.364
12462TIP3    H237344   2.950   7.559   0.487
12463TIP3   OH237345   7.049   7.581   1.546
12463TIP3    H137346   7.048   7.545   1.457
12463TIP3    H237347   7.094   7.514   1.598
12464TIP3   OH237348   0.975   5.530   2.533
12464TIP3    H137349   0.901   5.511   2.592
12464TIP3    H237350   0.984   5.451   2.481
12465TIP3   OH237351   1.276   0.265   4.254
12465TIP3    H137352   1.206   0.207   4.222
12465TIP3    H237353   1.355   0.212   4.249
12466TIP3   OH237354   4.442   3.335   6.358
12466TIP3    H137355   4.442   3.239   6.351
12466TIP3    H237356   4.382   3.354   6.429
12467TIP3   OH237357   3.430   4.810   6.175
12467TIP3    H137358   3.357   4.819   6.236
12467TIP3    H237359   3.494   4.756   6.221
12468TIP3   OH237360   6.066   6.910   4.612
12468TIP3    H137361   6.073   6.814   4.613
12468TIP3    H237362   5.973   6.927   4.602
12469TIP3   OH237363   7.094   2.923   1.246
12469TIP3    H137364   7.112   2.838   1.207
12469TIP3    H237365   7.107   2.986   1.175
12470TIP3   OH237366   0.469   2.181   0.472
12470TIP3    H137367   0.497   2.163   0.562
12470TIP3    H237368   0.542   2.231   0.435
12471TIP3   OH237369   6.624   0.228   5.588
12471TIP3    H137370   6.694   0.294   5.591
12471TIP3    H237371   6.551   0.273   5.546
12472TIP3   OH237372   4.475   0.027   0.266
12472TIP3    H137373   4.387  -0.005   0.283
12472TIP3    H237374   4.480   0.111   0.312
12473TIP3   OH237375   7.931   0.238   3.211
12473TIP3    H137376   7.955   0.184   3.136
12473TIP3    H237377   7.851   0.198   3.245
12474TIP3   OH237378   5.452   2.711   4.369
12474TIP3    H137379   5.475   2.690   4.459
12474TIP3    H237380   5.421   2.628   4.332
12475TIP3   OH237381   4.070   6.631   5.416
12475TIP3    H137382   4.091   6.646   5.324
12475TIP3    H237383   4.004   6.562   5.415
12476TIP3   OH237384   3.599   2.003   4.917
12476TIP3    H137385   3.533   1.957   4.865
12476TIP3    H237386   3.683   1.975   4.881
12477TIP3   OH237387   3.394   6.253   6.450
12477TIP3    H137388   3.363   6.298   6.529
12477TIP3    H237389   3.483   6.226   6.471
12478TIP3   OH237390   1.465   0.201   5.277
12478TIP3    H137391   1.511   0.282   5.255
12478TIP3    H237392   1.480   0.189   5.370
12479TIP3   OH237393   6.587   4.765   6.407
12479TIP3    H137394   6.570   4.731   6.496
12479TIP3    H237395   6.502   4.763   6.364
12480TIP3   OH237396   6.799   0.456   4.727
12480TIP3    H137397   6.718   0.478   4.772
12480TIP3    H237398   6.867   0.505   4.774
12481TIP3   OH237399   6.444   5.741   4.216
12481TIP3    H137400   6.538   5.744   4.195
12481TIP3    H237401   6.434   5.803   4.288
12482TIP3   OH237402   3.196   2.855   5.858
12482TIP3    H137403   3.259   2.923   5.834
12482TIP3    H237404   3.110   2.894   5.840
12483TIP3   OH237405   5.595   5.723   5.477
12483TIP3    H137406   5.674   5.674   5.453
12483TIP3    H237407   5.570   5.771   5.398
12484TIP3   OH237408   7.528   7.578   4.781
12484TIP3    H137409   7.457   7.555   4.840
12484TIP3    H237410   7.602   7.598   4.839
12485TIP3   OH237411   7.765   4.427   0.874
12485TIP3    H137412   7.813   4.351   0.841
12485TIP3    H237413   7.685   4.429   0.821
12486TIP3   OH237414   0.486   0.458   3.184
12486TIP3    H137415   0.531   0.374   3.185
12486TIP3    H237416   0.528   0.508   3.114
12487TIP3   OH237417   7.990   7.142   4.978
12487TIP3    H137418   7.904   7.104   4.996
12487TIP3    H237419   7.972   7.233   4.953
12488TIP3   OH237420   7.794   0.819   6.218
12488TIP3    H137421   7.887   0.795   6.219
12488TIP3    H237422   7.758   0.772   6.143
12489TIP3   OH237423   3.400   5.079   2.244
12489TIP3    H137424   3.473   5.017   2.248
12489TIP3    H237425   3.400   5.124   2.328
12490TIP3   OH237426   2.716   3.798   5.040
12490TIP3    H137427   2.659   3.846   4.980
12490TIP3    H237428   2.738   3.718   4.993
12491TIP3   OH237429   1.526   1.758   6.546
12491TIP3    H137430   1.496   1.830   6.603
12491TIP3    H237431   1.497   1.784   6.459
12492TIP3   OH237432   5.252   0.954   2.434
12492TIP3    H137433   5.233   0.913   2.518
12492TIP3    H237434   5.167   0.982   2.401
12493TIP3   OH237435   3.252   1.155   1.811
12493TIP3    H137436   3.237   1.249   1.798
12493TIP3    H237437   3.168   1.122   1.843
12494TIP3   OH237438   8.165   5.681   4.461
12494TIP3    H137439   8.193   5.599   4.420
12494TIP3    H237440   8.073   5.689   4.438
12495TIP3   OH237441   4.066   6.929   6.535
12495TIP3    H137442   4.053   6.937   6.441
12495TIP3    H237443   4.153   6.889   6.544
12496TIP3   OH237444   1.075   4.014   3.164
12496TIP3    H137445   1.052   4.077   3.233
12496TIP3    H237446   1.009   4.028   3.096
12497TIP3   OH237447   2.549   2.428   6.331
12497TIP3    H137448   2.627   2.483   6.332
12497TIP3    H237449   2.479   2.486   6.301
12498TIP3   OH237450   2.540   3.279   3.885
12498TIP3    H137451   2.523   3.237   3.969
12498TIP3    H237452   2.468   3.251   3.829
12499TIP3   OH237453   5.630   0.971   6.298
12499TIP3    H137454   5.535   0.977   6.301
12499TIP3    H237455   5.660   1.059   6.275
12500TIP3   OH237456   4.526   1.323   0.885
12500TIP3    H137457   4.492   1.283   0.805
12500TIP3    H237458   4.569   1.403   0.855
12501TIP3   OH237459   0.457   4.514   2.867
12501TIP3    H137460   0.437   4.573   2.794
12501TIP3    H237461   0.550   4.527   2.883
12502TIP3   OH237462   3.642   2.731   5.367
12502TIP3    H137463   3.682   2.715   5.452
12502TIP3    H237464   3.564   2.782   5.386
12503TIP3   OH237465   6.682   5.510   2.191
12503TIP3    H137466   6.748   5.572   2.160
12503TIP3    H237467   6.698   5.504   2.285
12504TIP3   OH237468   0.119   5.884   0.846
12504TIP3    H137469   0.049   5.901   0.782
12504TIP3    H237470   0.187   5.948   0.825
12505TIP3   OH237471   3.704   4.313   0.050
12505TIP3    H137472   3.791   4.338   0.017
12505TIP3    H237473   3.655   4.395   0.054
12506TIP3   OH237474   1.431   1.123   2.943
12506TIP3    H137475   1.361   1.181   2.972
12506TIP3    H237476   1.477   1.098   3.023
12507TIP3   OH237477   5.975   4.308   5.163
12507TIP3    H137478   5.940   4.299   5.074
12507TIP3    H237479   6.050   4.366   5.153
12508TIP3   OH237480   5.565   3.757   1.957
12508TIP3    H137481   5.546   3.793   2.044
12508TIP3    H237482   5.512   3.678   1.952
12509TIP3   OH237483   8.087   5.620   0.149
12509TIP3    H137484   8.127   5.534   0.150
12509TIP3    H237485   8.012   5.613   0.207
12510TIP3   OH237486   4.249   2.558   3.261
12510TIP3    H137487   4.301   2.550   3.341
12510TIP3    H237488   4.195   2.636   3.276
12511TIP3   OH237489   3.299   5.686   1.250
12511TIP3    H137490   3.318   5.777   1.270
12511TIP3    H237491   3.283   5.646   1.336
12512TIP3   OH237492   2.899   0.094   4.174
12512TIP3    H137493   2.910   0.049   4.258
12512TIP3    H237494   2.807   0.079   4.150
12513TIP3   OH237495   0.908   0.909   5.564
12513TIP3    H137496   0.833   0.864   5.524
12513TIP3    H237497   0.982   0.886   5.508
12514TIP3   OH237498   4.418   3.891   3.539
12514TIP3    H137499   4.360   3.842   3.596
12514TIP3    H237500   4.384   3.981   3.542
12515TIP3   OH237501   4.634   3.482   6.225
12515TIP3    H137502   4.608   3.472   6.316
12515TIP3    H237503   4.555   3.464   6.175
12516TIP3   OH237504   6.868   6.980   1.067
12516TIP3    H137505   6.890   7.049   1.129
12516TIP3    H237506   6.787   6.942   1.101
12517TIP3   OH237507   0.752   7.001   1.269
12517TIP3    H137508   0.697   6.941   1.320
12517TIP3    H237509   0.689   7.049   1.215
12518TIP3   OH237510   2.214   2.168   4.935
12518TIP3    H137511   2.211   2.245   4.879
12518TIP3    H237512   2.244   2.098   4.878
12519TIP3   OH237513   4.367   0.504   2.826
12519TIP3    H137514   4.286   0.454   2.828
12519TIP3    H237515   4.436   0.439   2.839
12520TIP3   OH237516   1.327   2.555   3.978
12520TIP3    H137517   1.387   2.518   4.044
12520TIP3    H237518   1.383   2.611   3.924
12521TIP3   OH237519   0.182   1.063   3.466
12521TIP3    H137520   0.247   1.064   3.536
12521TIP3    H237521   0.192   1.148   3.423
12522TIP3   OH237522   2.502   0.132   1.194
12522TIP3    H137523   2.566   0.066   1.220
12522TIP3    H237524   2.537   0.169   1.113
12523TIP3   OH237525   6.669   0.511   5.362
12523TIP3    H137526   6.589   0.553   5.331
12523TIP3    H237527   6.738   0.576   5.348
12524TIP3   OH237528   3.233   6.591   3.227
12524TIP3    H137529   3.175   6.574   3.153
12524TIP3    H237530   3.300   6.650   3.193
12525TIP3   OH237531   6.209   4.856   2.113
12525TIP3    H137532   6.228   4.942   2.152
12525TIP3    H237533   6.295   4.817   2.098
12526TIP3   OH237534   2.945   3.444   0.324
12526TIP3    H137535   2.930   3.353   0.300
12526TIP3    H237536   3.040   3.453   0.326
12527TIP3   OH237537   3.017   0.625   2.360
12527TIP3    H137538   2.984   0.543   2.322
12527TIP3    H237539   2.952   0.691   2.337
12528TIP3   OH237540   4.776   1.400   2.068
12528TIP3    H137541   4.866   1.429   2.056
12528TIP3    H237542   4.771   1.317   2.021
12529TIP3   OH237543   0.122   4.021   4.318
12529TIP3    H137544   0.148   4.107   4.286
12529TIP3    H237545   0.122   3.966   4.239
12530TIP3   OH237546   2.794   3.997   0.467
12530TIP3    H137547   2.801   4.071   0.407
12530TIP3    H237548   2.818   3.920   0.414
12531TIP3   OH237549   5.199   0.345   0.855
12531TIP3    H137550   5.190   0.430   0.898
12531TIP3    H237551   5.254   0.294   0.914
12532TIP3   OH237552   0.699   3.469   2.847
12532TIP3    H137553   0.739   3.409   2.910
12532TIP3    H237554   0.613   3.489   2.885
12533TIP3   OH237555   0.805   0.253   2.174
12533TIP3    H137556   0.824   0.325   2.235
12533TIP3    H237557   0.891   0.214   2.157
12534TIP3   OH237558   1.061   0.796   5.340
12534TIP3    H137559   1.140   0.820   5.293
12534TIP3    H237560   1.087   0.721   5.395
12535TIP3   OH237561   0.855   2.776   4.494
12535TIP3    H137562   0.936   2.770   4.444
12535TIP3    H237563   0.796   2.713   4.452
12536TIP3   OH237564   5.576   1.885   0.417
12536TIP3    H137565   5.603   1.849   0.333
12536TIP3    H237566   5.630   1.963   0.428
12537TIP3   OH237567   1.443   4.840   0.286
12537TIP3    H137568   1.348   4.848   0.271
12537TIP3    H237569   1.450   4.784   0.363
12538TIP3   OH237570   1.187   1.991   3.780
12538TIP3    H137571   1.221   1.919   3.726
12538TIP3    H237572   1.200   1.960   3.870
12539TIP3   OH237573   1.024   3.444   6.376
12539TIP3    H137574   1.060   3.526   6.342
12539TIP3    H237575   1.077   3.376   6.333
12540TIP3   OH237576   2.241   2.685   2.530
12540TIP3    H137577   2.251   2.652   2.441
12540TIP3    H237578   2.217   2.608   2.582
12541TIP3   OH237579   0.615   3.908   3.509
12541TIP3    H137580   0.559   3.851   3.456
12541TIP3    H237581   0.559   3.936   3.581
12542TIP3   OH237582   1.656   2.790   2.724
12542TIP3    H137583   1.732   2.804   2.780
12542TIP3    H237584   1.660   2.858   2.658
12543TIP3   OH237585   7.251   6.285   1.477
12543TIP3    H137586   7.155   6.288   1.480
12543TIP3    H237587   7.279   6.346   1.545
12544TIP3   OH237588   2.226   6.779   3.108
12544TIP3    H137589   2.237   6.874   3.101
12544TIP3    H237590   2.153   6.759   3.049
12545TIP3   OH237591   0.979   7.503   5.935
12545TIP3    H137592   1.059   7.486   5.985
12545TIP3    H237593   0.916   7.439   5.968
12546TIP3   OH237594   0.200   4.070   3.325
12546TIP3    H137595   0.238   4.096   3.410
12546TIP3    H237596   0.142   3.997   3.346
12547TIP3   OH237597   5.263   0.925   2.938
12547TIP3    H137598   5.238   0.926   3.031
12547TIP3    H237599   5.337   0.985   2.932
12548TIP3   OH237600   0.739   0.667   6.468
12548TIP3    H137601   0.829   0.647   6.493
12548TIP3    H237602   0.739   0.661   6.372
12549TIP3   OH237603   7.385   1.448   1.997
12549TIP3    H137604   7.338   1.433   2.079
12549TIP3    H237605   7.317   1.464   1.932
12550TIP3   OH237606   4.545   2.454   5.639
12550TIP3    H137607   4.627   2.476   5.682
12550TIP3    H237608   4.571   2.407   5.560
12551TIP3   OH237609   3.808   3.624   3.106
12551TIP3    H137610   3.815   3.561   3.034
12551TIP3    H237611   3.716   3.619   3.133
12552TIP3   OH237612   4.074   3.692   4.993
12552TIP3    H137613   4.111   3.604   5.003
12552TIP3    H237614   4.151   3.750   4.995
12553TIP3   OH237615   6.897   1.850   2.294
12553TIP3    H137616   6.966   1.905   2.258
12553TIP3    H237617   6.943   1.774   2.332
12554TIP3   OH237618   4.614   3.425   0.274
12554TIP3    H137619   4.562   3.483   0.329
12554TIP3    H237620   4.572   3.429   0.188
12555TIP3   OH237621   5.239   4.104   0.217
12555TIP3    H137622   5.316   4.056   0.185
12555TIP3    H237623   5.196   4.137   0.138
12556TIP3   OH237624   7.105   4.337   3.945
12556TIP3    H137625   7.056   4.416   3.923
12556TIP3    H237626   7.039   4.276   3.978
12557TIP3   OH237627   4.258   3.009   3.054
12557TIP3    H137628   4.204   3.012   3.133
12557TIP3    H237629   4.315   2.933   3.067
12558TIP3   OH237630   0.797   5.252   2.669
12558TIP3    H137631   0.732   5.228   2.734
12558TIP3    H237632   0.765   5.213   2.587
12559TIP3   OH237633   8.124   2.435   1.020
12559TIP3    H137634   8.168   2.445   1.105
12559TIP3    H237635   8.085   2.348   1.024
12560TIP3   OH237636   0.246   2.805   5.965
12560TIP3    H137637   0.288   2.770   5.886
12560TIP3    H237638   0.185   2.737   5.992
12561TIP3   OH237639   5.826   4.961   3.870
12561TIP3    H137640   5.849   4.869   3.886
12561TIP3    H237641   5.783   4.960   3.784
12562TIP3   OH237642   6.748   2.953   5.285
12562TIP3    H137643   6.823   3.004   5.316
12562TIP3    H237644   6.783   2.903   5.210
12563TIP3   OH237645   3.854   3.959   4.457
12563TIP3    H137646   3.876   3.996   4.543
12563TIP3    H237647   3.939   3.942   4.416
12564TIP3   OH237648   0.697   7.775   5.538
12564TIP3    H137649   0.782   7.793   5.497
12564TIP3    H237650   0.651   7.859   5.535
12565TIP3   OH237651   6.010   1.365   2.859
12565TIP3    H137652   5.995   1.312   2.937
12565TIP3    H237653   6.095   1.408   2.875
12566TIP3   OH237654   7.078   6.287   4.898
12566TIP3    H137655   7.158   6.239   4.920
12566TIP3    H237656   7.086   6.370   4.944
12567TIP3   OH237657   1.571   6.880   0.752
12567TIP3    H137658   1.652   6.901   0.706
12567TIP3    H237659   1.564   6.784   0.746
12568TIP3   OH237660   1.332   3.778   3.463
12568TIP3    H137661   1.248   3.786   3.509
12568TIP3    H237662   1.398   3.776   3.532
12569TIP3   OH237663   6.322   2.892   5.738
12569TIP3    H137664   6.292   2.974   5.699
12569TIP3    H237665   6.242   2.847   5.764
12570TIP3   OH237666   3.493   3.734   1.990
12570TIP3    H137667   3.435   3.674   1.943
12570TIP3    H237668   3.529   3.791   1.921
12571TIP3   OH237669   6.491   5.192   4.251
12571TIP3    H137670   6.417   5.244   4.220
12571TIP3    H237671   6.451   5.124   4.305
12572TIP3   OH237672   2.700   1.611   3.336
12572TIP3    H137673   2.730   1.702   3.330
12572TIP3    H237674   2.777   1.563   3.365
12573TIP3   OH237675   6.538   6.769   4.566
12573TIP3    H137676   6.520   6.679   4.539
12573TIP3    H237677   6.506   6.773   4.656
12574TIP3   OH237678   0.824   3.296   6.478
12574TIP3    H137679   0.894   3.351   6.441
12574TIP3    H237680   0.809   3.229   6.411
12575TIP3   OH237681   7.178   3.235   6.393
12575TIP3    H137682   7.246   3.174   6.366
12575TIP3    H237683   7.113   3.181   6.438
12576TIP3   OH237684   8.199   3.280   5.739
12576TIP3    H137685   8.201   3.261   5.645
12576TIP3    H237686   8.111   3.317   5.754
12577TIP3   OH237687   4.239   5.661   5.670
12577TIP3    H137688   4.286   5.592   5.624
12577TIP3    H237689   4.178   5.615   5.728
12578TIP3   OH237690   5.500   3.348   2.807
12578TIP3    H137691   5.491   3.410   2.735
12578TIP3    H237692   5.439   3.379   2.874
12579TIP3   OH237693   6.291   5.512   5.985
12579TIP3    H137694   6.368   5.501   6.040
12579TIP3    H237695   6.269   5.605   5.992
12580TIP3   OH237696   4.132   1.020   3.376
12580TIP3    H137697   4.087   1.104   3.384
12580TIP3    H237698   4.113   0.975   3.458
12581TIP3   OH237699   7.767   1.165   4.884
12581TIP3    H137700   7.781   1.138   4.793
12581TIP3    H237701   7.785   1.086   4.935
12582TIP3   OH237702   0.296  -0.002   6.481
12582TIP3    H137703   0.303   0.067   6.415
12582TIP3    H237704   0.299   0.044   6.565
12583TIP3   OH237705   4.671   3.605   1.527
12583TIP3    H137706   4.757   3.564   1.523
12583TIP3    H237707   4.674   3.661   1.604
12584TIP3   OH237708   6.687   7.584   2.746
12584TIP3    H137709   6.721   7.523   2.811
12584TIP3    H237710   6.673   7.532   2.668
12585TIP3   OH237711   5.982   1.346   4.067
12585TIP3    H137712   5.890   1.367   4.052
12585TIP3    H237713   5.991   1.341   4.162
12586TIP3   OH237714   4.252   2.438   2.989
12586TIP3    H137715   4.267   2.474   3.076
12586TIP3    H237716   4.158   2.421   2.986
12587TIP3   OH237717   5.593   2.804   2.304
12587TIP3    H137718   5.595   2.883   2.357
12587TIP3    H237719   5.539   2.827   2.228
12588TIP3   OH237720   0.211   6.733   1.114
12588TIP3    H137721   0.234   6.725   1.206
12588TIP3    H237722   0.261   6.664   1.070
12589TIP3   OH237723   2.823   6.223   5.402
12589TIP3    H137724   2.911   6.236   5.437
12589TIP3    H237725   2.837   6.168   5.325
12590TIP3   OH237726   0.297   4.138   1.607
12590TIP3    H137727   0.374   4.141   1.549
12590TIP3    H237728   0.243   4.068   1.570
12591TIP3   OH237729   5.633   3.057   3.567
12591TIP3    H137730   5.632   3.020   3.479
12591TIP3    H237731   5.577   3.134   3.561
12592TIP3   OH237732   2.490   0.560   1.213
12592TIP3    H137733   2.561   0.620   1.234
12592TIP3    H237734   2.455   0.592   1.130
12593TIP3   OH237735   7.752   7.037   5.591
12593TIP3    H137736   7.683   7.028   5.657
12593TIP3    H237737   7.779   6.947   5.572
12594TIP3   OH237738   7.382   2.228   6.754
12594TIP3    H137739   7.477   2.227   6.743
12594TIP3    H237740   7.352   2.150   6.707
12595TIP3   OH237741   2.049   1.401   1.912
12595TIP3    H137742   2.048   1.443   1.998
12595TIP3    H237743   2.137   1.416   1.878
12596TIP3   OH237744   3.091   5.649   6.706
12596TIP3    H137745   3.000   5.663   6.678
12596TIP3    H237746   3.116   5.566   6.665
12597TIP3   OH237747   7.593   5.269   1.905
12597TIP3    H137748   7.648   5.295   1.978
12597TIP3    H237749   7.531   5.206   1.944
12598TIP3   OH237750   7.601   7.210   5.397
12598TIP3    H137751   7.649   7.292   5.412
12598TIP3    H237752   7.642   7.148   5.457
12599TIP3   OH237753   4.929   7.718   2.178
12599TIP3    H137754   4.886   7.638   2.150
12599TIP3    H237755   5.021   7.704   2.159
12600TIP3   OH237756   4.024   7.327   3.077
12600TIP3    H137757   4.096   7.384   3.105
12600TIP3    H237758   4.035   7.320   2.982
12601TIP3   OH237759   5.356   7.213   4.217
12601TIP3    H137760   5.438   7.253   4.246
12601TIP3    H237761   5.376   7.119   4.213
12602TIP3   OH237762   1.364   3.774   3.781
12602TIP3    H137763   1.345   3.764   3.874
12602TIP3    H237764   1.450   3.732   3.770
12603TIP3   OH237765   6.847   2.581   6.570
12603TIP3    H137766   6.858   2.676   6.572
12603TIP3    H237767   6.771   2.566   6.515
12604TIP3   OH237768   1.517   1.066   4.546
12604TIP3    H137769   1.578   1.036   4.613
12604TIP3    H237770   1.439   1.094   4.594
12605TIP3   OH237771   4.797   5.739   5.524
12605TIP3    H137772   4.850   5.773   5.453
12605TIP3    H237773   4.735   5.680   5.482
12606TIP3   OH237774   1.255   0.718   4.102
12606TIP3    H137775   1.188   0.726   4.034
12606TIP3    H237776   1.222   0.648   4.159
12607TIP3   OH237777   1.861   6.515   1.596
12607TIP3    H137778   1.854   6.427   1.634
12607TIP3    H237779   1.770   6.545   1.590
12608TIP3   OH237780   7.736   5.006   5.263
12608TIP3    H137781   7.805   4.975   5.205
12608TIP3    H237782   7.767   4.984   5.351
12609TIP3   OH237783   2.957   3.746   1.306
12609TIP3    H137784   3.010   3.819   1.336
12609TIP3    H237785   2.891   3.785   1.249
12610TIP3   OH237786   0.304   3.061   5.961
12610TIP3    H137787   0.229   3.114   5.988
12610TIP3    H237788   0.267   2.975   5.940
12611TIP3   OH237789   6.461   6.405   2.991
12611TIP3    H137790   6.405   6.335   2.959
12611TIP3    H237791   6.409   6.449   3.058
12612TIP3   OH237792   3.537   7.483   3.758
12612TIP3    H137793   3.532   7.388   3.765
12612TIP3    H237794   3.454   7.514   3.794
12613TIP3   OH237795   0.291   3.880   4.778
12613TIP3    H137796   0.254   3.908   4.862
12613TIP3    H237797   0.283   3.957   4.722
12614TIP3   OH237798   3.670   2.813   5.800
12614TIP3    H137799   3.707   2.835   5.715
12614TIP3    H237800   3.738   2.762   5.844
12615TIP3   OH237801   2.052   7.489   2.840
12615TIP3    H137802   2.005   7.416   2.880
12615TIP3    H237803   2.143   7.460   2.837
12616TIP3   OH237804   2.408   7.031   0.494
12616TIP3    H137805   2.442   7.022   0.405
12616TIP3    H237806   2.475   6.993   0.550
12617TIP3   OH237807   6.030   6.693   1.075
12617TIP3    H137808   6.126   6.691   1.084
12617TIP3    H237809   6.014   6.760   1.008
12618TIP3   OH237810   5.179   5.259   4.829
12618TIP3    H137811   5.133   5.332   4.788
12618TIP3    H237812   5.256   5.245   4.774
12619TIP3   OH237813   5.943   3.162   4.041
12619TIP3    H137814   5.972   3.210   3.964
12619TIP3    H237815   5.932   3.072   4.010
12620TIP3   OH237816   5.201   1.842   2.265
12620TIP3    H137817   5.290   1.875   2.253
12620TIP3    H237818   5.145   1.918   2.245
12621TIP3   OH237819   2.575   0.064   0.133
12621TIP3    H137820   2.573  -0.010   0.194
12621TIP3    H237821   2.665   0.067   0.101
12622TIP3   OH237822   1.084   2.951   3.944
12622TIP3    H137823   1.140   2.932   4.019
12622TIP3    H237824   1.010   2.891   3.952
12623TIP3   OH237825   3.477   7.352   5.020
12623TIP3    H137826   3.522   7.309   4.947
12623TIP3    H237827   3.535   7.423   5.046
12624TIP3   OH237828   1.406   6.435   2.319
12624TIP3    H137829   1.453   6.397   2.393
12624TIP3    H237830   1.385   6.525   2.347
12625TIP3   OH237831   7.373   5.327   4.766
12625TIP3    H137832   7.424   5.247   4.756
12625TIP3    H237833   7.352   5.331   4.859
12626TIP3   OH237834   6.369   2.653   5.067
12626TIP3    H137835   6.338   2.572   5.109
12626TIP3    H237836   6.297   2.679   5.009
12627TIP3   OH237837   0.873   3.755   6.668
12627TIP3    H137838   0.823   3.673   6.670
12627TIP3    H237839   0.931   3.750   6.744
12628TIP3   OH237840   6.880   1.013   5.145
12628TIP3    H137841   6.913   1.098   5.173
12628TIP3    H237842   6.874   1.019   5.050
12629TIP3   OH237843   4.082   1.499   3.514
12629TIP3    H137844   4.137   1.467   3.586
12629TIP3    H237845   4.065   1.591   3.537
12630TIP3   OH237846   7.787   7.286   2.684
12630TIP3    H137847   7.824   7.208   2.642
12630TIP3    H237848   7.834   7.292   2.768
12631TIP3   OH237849   4.735   3.650   5.641
12631TIP3    H137850   4.788   3.570   5.644
12631TIP3    H237851   4.729   3.679   5.732
12632TIP3   OH237852   1.992   7.516   2.317
12632TIP3    H137853   1.929   7.449   2.344
12632TIP3    H237854   2.026   7.484   2.233
12633TIP3   OH237855   1.727   6.894   1.929
12633TIP3    H137856   1.663   6.831   1.895
12633TIP3    H237857   1.738   6.957   1.857
12634TIP3   OH237858   7.534   2.667   0.278
12634TIP3    H137859   7.567   2.756   0.268
12634TIP3    H237860   7.543   2.647   0.371
12635TIP3   OH237861   0.105   7.047   3.298
12635TIP3    H137862   0.156   6.998   3.233
12635TIP3    H237863   0.017   7.051   3.261
12636TIP3   OH237864   4.370   2.255   4.379
12636TIP3    H137865   4.395   2.323   4.440
12636TIP3    H237866   4.282   2.280   4.349
12637TIP3   OH237867   4.364   5.142   0.254
12637TIP3    H137868   4.402   5.198   0.186
12637TIP3    H237869   4.288   5.191   0.285
12638TIP3   OH237870   1.860   5.672   0.384
12638TIP3    H137871   1.769   5.671   0.412
12638TIP3    H237872   1.906   5.721   0.452
12639TIP3   OH237873   3.439   0.980   4.035
12639TIP3    H137874   3.515   1.006   4.087
12639TIP3    H237875   3.364   0.999   4.091
12640TIP3   OH237876   3.836   6.719   0.347
12640TIP3    H137877   3.766   6.747   0.288
12640TIP3    H237878   3.855   6.628   0.322
12641TIP3   OH237879   6.065   4.299   0.763
12641TIP3    H137880   6.124   4.324   0.834
12641TIP3    H237881   6.041   4.208   0.782
12642TIP3   OH237882   0.032   0.652   1.720
12642TIP3    H137883   0.025   0.563   1.755
12642TIP3    H237884   0.027   0.641   1.625
12643TIP3   OH237885   0.612   4.163   2.146
12643TIP3    H137886   0.659   4.187   2.066
12643TIP3    H237887   0.543   4.104   2.116
12644TIP3   OH237888   1.746   1.047   6.505
12644TIP3    H137889   1.763   1.123   6.449
12644TIP3    H237890   1.832   1.005   6.515
12645TIP3   OH237891   6.886   5.821   2.341
12645TIP3    H137892   6.893   5.772   2.259
12645TIP3    H237893   6.893   5.754   2.409
12646TIP3   OH237894   1.548   0.054   6.445
12646TIP3    H137895   1.601   0.052   6.364
12646TIP3    H237896   1.477   0.114   6.425
12647TIP3   OH237897   2.051   3.132   0.579
12647TIP3    H137898   2.034   3.224   0.599
12647TIP3    H237899   2.004   3.084   0.647
12648TIP3   OH237900   2.919   0.569   5.801
12648TIP3    H137901   2.900   0.646   5.748
12648TIP3    H237902   2.869   0.499   5.760
12649TIP3   OH237903   7.693   6.486   5.822
12649TIP3    H137904   7.681   6.409   5.767
12649TIP3    H237905   7.654   6.462   5.906
12650TIP3   OH237906   1.789   1.544   3.211
12650TIP3    H137907   1.867   1.579   3.170
12650TIP3    H237908   1.718   1.600   3.179
12651TIP3   OH237909   0.634   0.822   4.423
12651TIP3    H137910   0.584   0.899   4.449
12651TIP3    H237911   0.569   0.762   4.388
12652TIP3   OH237912   4.320   5.821   4.311
12652TIP3    H137913   4.374   5.878   4.256
12652TIP3    H237914   4.285   5.880   4.378
12653TIP3   OH237915   1.623   7.287   3.352
12653TIP3    H137916   1.556   7.227   3.384
12653TIP3    H237917   1.688   7.231   3.310
12654TIP3   OH237918   3.934   2.501   3.616
12654TIP3    H137919   3.968   2.588   3.635
12654TIP3    H237920   3.996   2.464   3.553
12655TIP3   OH237921   4.471   7.163   2.077
12655TIP3    H137922   4.396   7.104   2.082
12655TIP3    H237923   4.525   7.126   2.007
12656TIP3   OH237924   7.685   3.348   1.685
12656TIP3    H137925   7.735   3.353   1.603
12656TIP3    H237926   7.659   3.438   1.703
12657TIP3   OH237927   3.739   6.022   2.453
12657TIP3    H137928   3.709   6.102   2.497
12657TIP3    H237929   3.665   5.962   2.457
12658TIP3   OH237930   6.039   2.920   5.853
12658TIP3    H137931   6.017   2.836   5.894
12658TIP3    H237932   6.046   2.981   5.927
12659TIP3   OH237933   5.135   3.050   2.461
12659TIP3    H137934   5.084   3.129   2.444
12659TIP3    H237935   5.079   2.978   2.432
12660TIP3   OH237936   3.400   5.025   0.362
12660TIP3    H137937   3.360   4.975   0.290
12660TIP3    H237938   3.331   5.084   0.392
12661TIP3   OH237939   7.236   5.093   1.399
12661TIP3    H137940   7.162   5.075   1.341
12661TIP3    H237941   7.286   5.012   1.399
12662TIP3   OH237942   5.725   6.738   2.156
12662TIP3    H137943   5.798   6.788   2.120
12662TIP3    H237944   5.718   6.768   2.247
12663TIP3   OH237945   5.156   3.099   1.810
12663TIP3    H137946   5.068   3.138   1.804
12663TIP3    H237947   5.186   3.122   1.898
12664TIP3   OH237948   4.883   4.045   0.761
12664TIP3    H137949   4.951   4.004   0.708
12664TIP3    H237950   4.810   3.983   0.758
12665TIP3   OH237951   4.293   5.007   3.109
12665TIP3    H137952   4.201   4.983   3.101
12665TIP3    H237953   4.295   5.069   3.182
12666TIP3   OH237954   0.364   0.347   5.475
12666TIP3    H137955   0.360   0.252   5.481
12666TIP3    H237956   0.287   0.377   5.523
12667TIP3   OH237957   3.992   7.272   2.092
12667TIP3    H137958   3.944   7.324   2.028
12667TIP3    H237959   4.067   7.327   2.117
12668TIP3   OH237960   6.868   6.553   0.883
12668TIP3    H137961   6.777   6.571   0.903
12668TIP3    H237962   6.876   6.458   0.893
12669TIP3   OH237963   7.568   4.352   1.393
12669TIP3    H137964   7.547   4.319   1.306
12669TIP3    H237965   7.514   4.430   1.404
12670TIP3   OH237966   7.385   1.036   5.691
12670TIP3    H137967   7.326   1.055   5.618
12670TIP3    H237968   7.414   1.121   5.722
12671TIP3   OH237969   6.609   5.981   5.564
12671TIP3    H137970   6.546   5.942   5.624
12671TIP3    H237971   6.629   6.066   5.603
12672TIP3   OH237972   5.066   1.903   6.218
12672TIP3    H137973   5.080   1.811   6.240
12672TIP3    H237974   5.150   1.934   6.185
12673TIP3   OH237975   0.664   3.811   2.527
12673TIP3    H137976   0.598   3.749   2.558
12673TIP3    H237977   0.732   3.808   2.594
12674TIP3   OH237978   1.493   7.610   2.260
12674TIP3    H137979   1.477   7.523   2.223
12674TIP3    H237980   1.568   7.644   2.211
12675TIP3   OH237981   8.298   0.088   2.070
12675TIP3    H137982   8.219   0.126   2.033
12675TIP3    H237983   8.302   0.123   2.159
12676TIP3   OH237984   3.594   5.809   1.882
12676TIP3    H137985   3.639   5.729   1.908
12676TIP3    H237986   3.586   5.802   1.787
12677TIP3   OH237987   6.282   3.088   1.501
12677TIP3    H137988   6.346   3.108   1.433
12677TIP3    H237989   6.197   3.097   1.458
12678TIP3   OH237990   3.151   0.266   2.536
12678TIP3    H137991   3.124   0.220   2.457
12678TIP3    H237992   3.070   0.298   2.575
12679TIP3   OH237993   0.980   2.814   6.370
12679TIP3    H137994   0.893   2.814   6.332
12679TIP3    H237995   1.039   2.830   6.295
12680TIP3   OH237996   6.318   2.100   2.590
12680TIP3    H137997   6.327   2.187   2.629
12680TIP3    H237998   6.286   2.045   2.661
12681TIP3   OH237999   7.636   7.294   2.176
12681TIP3    H138000   7.720   7.337   2.193
12681TIP3    H238001   7.602   7.272   2.262
12682TIP3   OH238002   8.127   4.706   4.472
12682TIP3    H138003   8.118   4.800   4.487
12682TIP3    H238004   8.074   4.666   4.541
12683TIP3   OH238005   2.582   7.097   1.118
12683TIP3    H138006   2.585   7.129   1.028
12683TIP3    H238007   2.517   7.027   1.117
12684TIP3   OH238008   3.090   7.652   0.606
12684TIP3    H138009   3.122   7.619   0.691
12684TIP3    H238010   3.077   7.745   0.621
12685TIP3   OH238011   3.762   2.397   4.713
12685TIP3    H138012   3.841   2.414   4.765
12685TIP3    H238013   3.705   2.348   4.772
12686TIP3   OH238014   7.785   4.517   1.355
12686TIP3    H138015   7.737   4.434   1.357
12686TIP3    H238016   7.812   4.527   1.264
12687TIP3   OH238017   1.583   7.015   4.769
12687TIP3    H138018   1.574   6.953   4.841
12687TIP3    H238019   1.496   7.016   4.727
12688TIP3   OH238020   3.152   2.550   5.496
12688TIP3    H138021   3.195   2.579   5.576
12688TIP3    H238022   3.133   2.630   5.448
12689TIP3   OH238023   1.898   1.726   5.689
12689TIP3    H138024   1.859   1.776   5.761
12689TIP3    H238025   1.906   1.637   5.723
12690TIP3   OH238026   5.650   0.369   1.558
12690TIP3    H138027   5.668   0.462   1.549
12690TIP3    H238028   5.719   0.327   1.506
12691TIP3   OH238029   4.407   6.172   0.895
12691TIP3    H138030   4.487   6.223   0.891
12691TIP3    H238031   4.377   6.167   0.805
12692TIP3   OH238032   1.714   3.162   4.873
12692TIP3    H138033   1.668   3.232   4.826
12692TIP3    H238034   1.732   3.096   4.806
12693TIP3   OH238035   1.654   7.055   2.501
12693TIP3    H138036   1.608   6.976   2.475
12693TIP3    H238037   1.602   7.092   2.572
12694TIP3   OH238038   2.006   1.338   5.191
12694TIP3    H138039   1.946   1.333   5.117
12694TIP3    H238040   2.022   1.246   5.215
12695TIP3   OH238041   5.797   5.150   1.219
12695TIP3    H138042   5.752   5.233   1.206
12695TIP3    H238043   5.853   5.165   1.296
12696TIP3   OH238044   0.238   4.793   3.694
12696TIP3    H138045   0.327   4.805   3.728
12696TIP3    H238046   0.235   4.846   3.615
12697TIP3   OH238047   6.956   6.598   2.810
12697TIP3    H138048   6.863   6.615   2.823
12697TIP3    H238049   6.959   6.524   2.749
12698TIP3   OH238050   7.829   2.149   3.108
12698TIP3    H138051   7.745   2.135   3.063
12698TIP3    H238052   7.805   2.188   3.192
12699TIP3   OH238053   3.785   1.319   2.915
12699TIP3    H138054   3.690   1.318   2.900
12699TIP3    H238055   3.794   1.327   3.010
12700TIP3   OH238056   2.012   4.001   4.254
12700TIP3    H138057   1.960   3.922   4.238
12700TIP3    H238058   1.948   4.072   4.261
12701TIP3   OH238059   3.213   2.593   3.963
12701TIP3    H138060   3.166   2.533   3.905
12701TIP3    H238061   3.277   2.636   3.907
12702TIP3   OH238062   1.984   2.119   2.930
12702TIP3    H138063   1.964   2.198   2.881
12702TIP3    H238064   1.935   2.127   3.012
12703TIP3   OH238065   5.284   4.271   0.441
12703TIP3    H138066   5.279   4.213   0.366
12703TIP3    H238067   5.193   4.288   0.466
12704TIP3   OH238068   0.682   2.315   6.177
12704TIP3    H138069   0.747   2.245   6.169
12704TIP3    H238070   0.603   2.279   6.136
12705TIP3   OH238071   2.236   3.452   4.445
12705TIP3    H138072   2.289   3.465   4.524
12705TIP3    H238073   2.294   3.474   4.373
12706TIP3   OH238074   3.711   4.157   6.626
12706TIP3    H138075   3.716   4.200   6.712
12706TIP3    H238076   3.778   4.200   6.574
12707TIP3   OH238077   5.577  -0.046   4.404
12707TIP3    H138078   5.662  -0.059   4.446
12707TIP3    H238079   5.557   0.046   4.419
12708TIP3   OH238080   6.727   3.389   3.654
12708TIP3    H138081   6.739   3.382   3.559
12708TIP3    H238082   6.782   3.319   3.690
12709TIP3   OH238083   3.664   3.349   5.688
12709TIP3    H138084   3.747   3.396   5.696
12709TIP3    H238085   3.598   3.412   5.719
12710TIP3   OH238086   4.708   7.046   0.771
12710TIP3    H138087   4.779   7.061   0.834
12710TIP3    H238088   4.708   7.124   0.716
12711TIP3   OH238089   0.576   0.177   4.174
12711TIP3    H138090   0.667   0.154   4.154
12711TIP3    H238091   0.573   0.272   4.162
12712TIP3   OH238092   5.043   4.935   3.503
12712TIP3    H138093   5.117   4.915   3.560
12712TIP3    H238094   5.078   4.924   3.414
12713TIP3   OH238095   3.632   0.252   1.826
12713TIP3    H138096   3.620   0.320   1.759
12713TIP3    H238097   3.724   0.257   1.849
12714TIP3   OH238098   1.044   4.783   5.498
12714TIP3    H138099   1.117   4.816   5.551
12714TIP3    H238100   1.072   4.696   5.470
12715TIP3   OH238101   7.954   5.835   0.958
12715TIP3    H138102   7.911   5.912   0.921
12715TIP3    H238103   7.970   5.778   0.883
12716TIP3   OH238104   5.229   1.049   6.085
12716TIP3    H138105   5.148   1.100   6.094
12716TIP3    H238106   5.266   1.078   6.002
12717TIP3   OH238107   5.904   3.705   1.790
12717TIP3    H138108   5.842   3.643   1.829
12717TIP3    H238109   5.963   3.651   1.738
12718TIP3   OH238110   4.313   3.987   0.470
12718TIP3    H138111   4.220   4.011   0.467
12718TIP3    H238112   4.352   4.031   0.395
12719TIP3   OH238113   2.012   0.110   4.953
12719TIP3    H138114   2.057   0.136   5.034
12719TIP3    H238115   2.069   0.139   4.883
12720TIP3   OH238116   7.923   3.928   4.836
12720TIP3    H138117   7.859   3.904   4.768
12720TIP3    H238118   7.915   3.859   4.902
12721TIP3   OH238119   2.876   7.468   3.905
12721TIP3    H138120   2.963   7.471   3.866
12721TIP3    H238121   2.826   7.533   3.856
12722TIP3   OH238122   7.081   5.549   5.428
12722TIP3    H138123   7.096   5.490   5.355
12722TIP3    H238124   7.034   5.623   5.390
12723TIP3   OH238125   3.488   2.786   6.550
12723TIP3    H138126   3.445   2.868   6.573
12723TIP3    H238127   3.569   2.812   6.506
12724TIP3   OH238128   5.341   1.729   2.845
12724TIP3    H138129   5.321   1.716   2.752
12724TIP3    H238130   5.399   1.657   2.867
12725TIP3   OH238131   7.157   7.529   6.500
12725TIP3    H138132   7.252   7.521   6.496
12725TIP3    H238133   7.128   7.524   6.409
12726TIP3   OH238134   3.087   1.743   0.171
12726TIP3    H138135   3.085   1.725   0.265
12726TIP3    H238136   3.021   1.685   0.134
12727TIP3   OH238137   1.994   6.239   4.708
12727TIP3    H138138   2.040   6.239   4.624
12727TIP3    H238139   2.014   6.324   4.747
12728TIP3   OH238140   3.278   6.865   1.459
12728TIP3    H138141   3.337   6.795   1.433
12728TIP3    H238142   3.194   6.841   1.420
12729TIP3   OH238143   0.083   1.190   2.785
12729TIP3    H138144   0.169   1.232   2.787
12729TIP3    H238145   0.058   1.190   2.693
12730TIP3   OH238146   2.744   4.473   6.355
12730TIP3    H138147   2.709   4.414   6.421
12730TIP3    H238148   2.732   4.560   6.393
12731TIP3   OH238149   5.060   6.676   6.221
12731TIP3    H138150   5.024   6.765   6.217
12731TIP3    H238151   5.043   6.640   6.134
12732TIP3   OH238152   7.702   2.671   6.392
12732TIP3    H138153   7.653   2.667   6.474
12732TIP3    H238154   7.687   2.587   6.350
12733TIP3   OH238155   1.192   6.757   1.234
12733TIP3    H138156   1.223   6.847   1.220
12733TIP3    H238157   1.110   6.768   1.282
12734TIP3   OH238158   5.948   3.424   4.906
12734TIP3    H138159   5.940   3.384   4.819
12734TIP3    H238160   5.984   3.354   4.961
12735TIP3   OH238161   5.603   6.692   3.388
12735TIP3    H138162   5.686   6.737   3.372
12735TIP3    H238163   5.628   6.609   3.429
12736TIP3   OH238164   5.307   5.066   1.019
12736TIP3    H138165   5.336   4.975   1.020
12736TIP3    H238166   5.211   5.061   1.018
12737TIP3   OH238167   5.780   3.361   0.089
12737TIP3    H138168   5.770   3.268   0.067
12737TIP3    H238169   5.691   3.390   0.109
12738TIP3   OH238170   1.338   7.866   3.394
12738TIP3    H138171   1.379   7.791   3.351
12738TIP3    H238172   1.395   7.885   3.469
12739TIP3   OH238173   7.149   5.990   1.589
12739TIP3    H138174   7.090   6.009   1.517
12739TIP3    H238175   7.117   6.045   1.661
12740TIP3   OH238176   5.181   5.169   4.420
12740TIP3    H138177   5.210   5.257   4.444
12740TIP3    H238178   5.189   5.166   4.324
12741TIP3   OH238179   7.265   4.322   1.540
12741TIP3    H138180   7.280   4.294   1.630
12741TIP3    H238181   7.176   4.358   1.541
12742TIP3   OH238182   5.488   5.596   4.261
12742TIP3    H138183   5.535   5.676   4.240
12742TIP3    H238184   5.544   5.526   4.229
12743TIP3   OH238185   0.438   5.747   2.946
12743TIP3    H138186   0.529   5.766   2.967
12743TIP3    H238187   0.429   5.653   2.962
12744TIP3   OH238188   1.635   6.170   1.508
12744TIP3    H138189   1.704   6.203   1.565
12744TIP3    H238190   1.554   6.189   1.554
12745TIP3   OH238191   5.662   2.923   0.255
12745TIP3    H138192   5.720   2.943   0.182
12745TIP3    H238193   5.607   3.001   0.264
12746TIP3   OH238194   7.014   5.962   4.699
12746TIP3    H138195   6.927   5.929   4.676
12746TIP3    H238196   7.037   5.914   4.779
12747TIP3   OH238197   0.156   5.861   1.107
12747TIP3    H138198   0.239   5.900   1.135
12747TIP3    H238199   0.147   5.886   1.015
12748TIP3   OH238200   3.253   7.471   0.064
12748TIP3    H138201   3.316   7.456  -0.007
12748TIP3    H238202   3.186   7.528   0.025
12749TIP3   OH238203   3.615   5.529   5.059
12749TIP3    H138204   3.641   5.480   5.137
12749TIP3    H238205   3.560   5.600   5.091
12750TIP3   OH238206   4.680   7.694   5.477
12750TIP3    H138207   4.774   7.707   5.473
12750TIP3    H238208   4.663   7.624   5.414
12751TIP3   OH238209   1.850   0.908   0.856
12751TIP3    H138210   1.777   0.957   0.894
12751TIP3    H238211   1.859   0.831   0.912
12752TIP3   OH238212   0.700   1.870   2.614
12752TIP3    H138213   0.634   1.938   2.604
12752TIP3    H238214   0.686   1.836   2.702
12753TIP3   OH238215   5.743   4.656   3.655
12753TIP3    H138216   5.812   4.722   3.649
12753TIP3    H238217   5.768   4.590   3.590
12754TIP3   OH238218   1.298   4.913   6.206
12754TIP3    H138219   1.272   5.005   6.208
12754TIP3    H238220   1.257   4.874   6.283
12755TIP3   OH238221   8.284   4.668   0.072
12755TIP3    H138222   8.342   4.697   0.002
12755TIP3    H238223   8.297   4.733   0.141
12756TIP3   OH238224   5.308   4.502   3.760
12756TIP3    H138225   5.390   4.544   3.734
12756TIP3    H238226   5.249   4.575   3.781
12757TIP3   OH238227   2.429   1.211   0.544
12757TIP3    H138228   2.370   1.151   0.590
12757TIP3    H238229   2.423   1.293   0.593
12758TIP3   OH238230   0.642   4.755   1.760
12758TIP3    H138231   0.547   4.765   1.756
12758TIP3    H238232   0.674   4.835   1.801
12759TIP3   OH238233   5.578   3.093   4.888
12759TIP3    H138234   5.542   3.140   4.963
12759TIP3    H238235   5.510   3.029   4.865
12760TIP3   OH238236   4.621   3.377   1.336
12760TIP3    H138237   4.707   3.391   1.298
12760TIP3    H238238   4.603   3.456   1.386
12761TIP3   OH238239   6.202   0.273   0.892
12761TIP3    H138240   6.234   0.320   0.816
12761TIP3    H238241   6.263   0.296   0.963
12762TIP3   OH238242   3.209   4.057   4.079
12762TIP3    H138243   3.242   3.969   4.058
12762TIP3    H238244   3.136   4.070   4.018
12763TIP3   OH238245   0.906   0.755   4.322
12763TIP3    H138246   0.814   0.768   4.346
12763TIP3    H238247   0.911   0.664   4.295
12764TIP3   OH238248   5.488   6.198   1.531
12764TIP3    H138249   5.517   6.281   1.569
12764TIP3    H238250   5.434   6.225   1.456
12765TIP3   OH238251   6.805   0.355   3.697
12765TIP3    H138252   6.851   0.274   3.675
12765TIP3    H238253   6.731   0.358   3.638
12766TIP3   OH238254   2.676   5.681   5.682
12766TIP3    H138255   2.725   5.738   5.740
12766TIP3    H238256   2.663   5.732   5.602
12767TIP3   OH238257   6.179   4.427   2.361
12767TIP3    H138258   6.207   4.473   2.281
12767TIP3    H238259   6.257   4.381   2.391
12768TIP3   OH238260   3.619   0.146   6.101
12768TIP3    H138261   3.560   0.213   6.135
12768TIP3    H238262   3.657   0.106   6.179
12769TIP3   OH238263   7.725   4.391   0.508
12769TIP3    H138264   7.786   4.403   0.581
12769TIP3    H238265   7.738   4.467   0.452
12770TIP3   OH238266   3.310   5.882   2.715
12770TIP3    H138267   3.225   5.848   2.744
12770TIP3    H238268   3.363   5.804   2.698
12771TIP3   OH238269   5.298   5.491   3.149
12771TIP3    H138270   5.370   5.525   3.096
12771TIP3    H238271   5.247   5.438   3.089
12772TIP3   OH238272   3.347   5.786   4.409
12772TIP3    H138273   3.270   5.813   4.459
12772TIP3    H238274   3.353   5.850   4.338
12773TIP3   OH238275   7.846   3.150   6.239
12773TIP3    H138276   7.921   3.147   6.180
12773TIP3    H238277   7.828   3.058   6.261
12774TIP3   OH238278   1.070   4.488   5.988
12774TIP3    H138279   1.025   4.404   5.976
12774TIP3    H238280   1.161   4.463   6.005
12775TIP3   OH238281   1.801   6.338   3.137
12775TIP3    H138282   1.841   6.414   3.095
12775TIP3    H238283   1.742   6.375   3.203
12776TIP3   OH238284   7.325   6.346   6.459
12776TIP3    H138285   7.347   6.270   6.406
12776TIP3    H238286   7.405   6.366   6.508
12777TIP3   OH238287   4.123   5.135   5.162
12777TIP3    H138288   4.126   5.212   5.104
12777TIP3    H238289   4.094   5.064   5.105
12778TIP3   OH238290   4.439   5.858   5.692
12778TIP3    H138291   4.363   5.913   5.711
12778TIP3    H238292   4.401   5.778   5.656
12779TIP3   OH238293   2.203   6.885   3.400
12779TIP3    H138294   2.219   6.802   3.354
12779TIP3    H238295   2.239   6.951   3.341
12780TIP3   OH238296   4.809   5.648   6.474
12780TIP3    H138297   4.881   5.629   6.414
12780TIP3    H238298   4.831   5.599   6.554
12781TIP3   OH238299   5.541   4.237   6.438
12781TIP3    H138300   5.486   4.165   6.407
12781TIP3    H238301   5.536   4.232   6.533
12782TIP3   OH238302   6.427   2.213   6.565
12782TIP3    H138303   6.438   2.302   6.599
12782TIP3    H238304   6.455   2.156   6.637
12783TIP3   OH238305   1.218   1.495   2.295
12783TIP3    H138306   1.310   1.482   2.273
12783TIP3    H238307   1.188   1.562   2.234
12784TIP3   OH238308   3.513   2.510   3.808
12784TIP3    H138309   3.550   2.593   3.837
12784TIP3    H238310   3.586   2.464   3.767
12785TIP3   OH238311   4.589   5.281   6.713
12785TIP3    H138312   4.563   5.256   6.801
12785TIP3    H238313   4.673   5.238   6.700
12786TIP3   OH238314   5.508   6.610   6.145
12786TIP3    H138315   5.425   6.609   6.097
12786TIP3    H238316   5.534   6.702   6.146
12787TIP3   OH238317   3.597   6.748   4.490
12787TIP3    H138318   3.577   6.660   4.521
12787TIP3    H238319   3.515   6.796   4.499
12788TIP3   OH238320   4.873   1.654   3.076
12788TIP3    H138321   4.843   1.684   2.990
12788TIP3    H238322   4.921   1.574   3.057
12789TIP3   OH238323   5.233   7.071   2.804
12789TIP3    H138324   5.198   7.044   2.889
12789TIP3    H238325   5.260   6.990   2.762
12790TIP3   OH238326   4.156   5.371   6.124
12790TIP3    H138327   4.146   5.341   6.214
12790TIP3    H238328   4.206   5.302   6.080
12791TIP3   OH238329   4.596   0.639   3.517
12791TIP3    H138330   4.624   0.721   3.558
12791TIP3    H238331   4.556   0.589   3.588
12792TIP3   OH238332   2.075   5.926   0.076
12792TIP3    H138333   2.122   6.002   0.110
12792TIP3    H238334   2.094   5.856   0.138
12793TIP3   OH238335   3.350   6.869   5.812
12793TIP3    H138336   3.255   6.864   5.803
12793TIP3    H238337   3.377   6.935   5.747
12794TIP3   OH238338   6.037   4.947   1.529
12794TIP3    H138339   6.030   4.895   1.610
12794TIP3    H238340   6.118   4.996   1.540
12795TIP3   OH238341   3.339   4.366   0.287
12795TIP3    H138342   3.326   4.327   0.201
12795TIP3    H238343   3.417   4.322   0.321
12796TIP3   OH238344   5.361   2.929   0.144
12796TIP3    H138345   5.415   2.987   0.197
12796TIP3    H238346   5.334   2.860   0.204
12797TIP3   OH238347   0.249   4.990  -0.010
12797TIP3    H138348   0.343   4.988   0.006
12797TIP3    H238349   0.216   5.053   0.054
12798TIP3   OH238350   6.043   3.018   3.621
12798TIP3    H138351   6.076   3.095   3.669
12798TIP3    H238352   5.997   3.055   3.546
12799TIP3   OH238353   5.787   3.425   1.378
12799TIP3    H138354   5.693   3.414   1.363
12799TIP3    H238355   5.810   3.353   1.437
12800TIP3   OH238356   5.905   3.407   2.731
12800TIP3    H138357   5.848   3.366   2.666
12800TIP3    H238358   5.984   3.431   2.682
12801TIP3   OH238359   3.983   4.067   1.670
12801TIP3    H138360   4.007   3.998   1.608
12801TIP3    H238361   3.919   4.121   1.624
12802TIP3   OH238362   4.181   0.945   3.102
12802TIP3    H138363   4.197   0.937   3.196
12802TIP3    H238364   4.144   0.861   3.077
12803TIP3   OH238365   6.474   5.129   2.654
12803TIP3    H138366   6.404   5.095   2.710
12803TIP3    H238367   6.541   5.061   2.655
12804TIP3   OH238368   5.410   1.003   0.650
12804TIP3    H138369   5.367   0.931   0.603
12804TIP3    H238370   5.363   1.081   0.622
12805TIP3   OH238371   5.562   7.097   1.365
12805TIP3    H138372   5.599   7.167   1.420
12805TIP3    H238373   5.472   7.125   1.349
12806TIP3   OH238374   4.469   1.681   0.358
12806TIP3    H138375   4.530   1.689   0.432
12806TIP3    H238376   4.438   1.770   0.343
12807TIP3   OH238377   1.872   6.761   1.003
12807TIP3    H138378   1.956   6.717   1.016
12807TIP3    H238379   1.814   6.693   0.971
12808TIP3   OH238380   7.604   4.408   4.451
12808TIP3    H138381   7.641   4.469   4.387
12808TIP3    H238382   7.589   4.327   4.402
12809TIP3   OH238383   5.939   3.965   3.298
12809TIP3    H138384   5.909   3.999   3.213
12809TIP3    H238385   5.940   3.870   3.286
12810TIP3   OH238386   6.724   4.670   4.521
12810TIP3    H138387   6.768   4.585   4.512
12810TIP3    H238388   6.792   4.734   4.499
12811TIP3   OH238389   8.179   0.128   5.777
12811TIP3    H138390   8.255   0.182   5.800
12811TIP3    H238391   8.217   0.046   5.744
12812TIP3   OH238392   4.879   0.991   5.210
12812TIP3    H138393   4.787   0.982   5.231
12812TIP3    H238394   4.910   1.064   5.264
12813TIP3   OH238395   6.309   3.574   6.668
12813TIP3    H138396   6.254   3.496   6.655
12813TIP3    H238397   6.399   3.541   6.661
12814TIP3   OH238398   0.439   4.543   2.074
12814TIP3    H138399   0.483   4.490   2.141
12814TIP3    H238400   0.505   4.609   2.048
12815TIP3   OH238401   3.836   7.525   4.043
12815TIP3    H138402   3.890   7.505   4.119
12815TIP3    H238403   3.757   7.563   4.079
12816TIP3   OH238404   1.733   6.163   5.383
12816TIP3    H138405   1.735   6.160   5.479
12816TIP3    H238406   1.640   6.161   5.361
12817TIP3   OH238407   6.371   7.247   4.368
12817TIP3    H138408   6.385   7.155   4.344
12817TIP3    H238409   6.304   7.244   4.437
12818TIP3   OH238410   2.138   6.341   1.367
12818TIP3    H138411   2.174   6.257   1.337
12818TIP3    H238412   2.051   6.346   1.327
12819TIP3   OH238413   5.104   5.963   3.483
12819TIP3    H138414   5.184   5.918   3.511
12819TIP3    H238415   5.035   5.926   3.538
12820TIP3   OH238416   4.962   2.139   3.563
12820TIP3    H138417   5.015   2.218   3.556
12820TIP3    H238418   5.016   2.069   3.527
12821TIP3   OH238419   6.392   7.535   4.343
12821TIP3    H138420   6.373   7.558   4.252
12821TIP3    H238421   6.389   7.440   4.345
12822TIP3   OH238422   6.282   1.084   5.511
12822TIP3    H138423   6.239   1.035   5.441
12822TIP3    H238424   6.286   1.022   5.584
12823TIP3   OH238425   4.480   2.137   3.217
12823TIP3    H138426   4.429   2.086   3.280
12823TIP3    H238427   4.530   2.198   3.271
12824TIP3   OH238428   4.377   1.940   4.193
12824TIP3    H138429   4.333   1.890   4.262
12824TIP3    H238430   4.324   1.924   4.114
12825TIP3   OH238431   4.208   6.555   2.194
12825TIP3    H138432   4.259   6.574   2.115
12825TIP3    H238433   4.254   6.481   2.235
12826TIP3   OH238434   1.602   3.817   6.686
12826TIP3    H138435   1.559   3.735   6.712
12826TIP3    H238436   1.692   3.807   6.718
12827TIP3   OH238437   2.240   1.065   5.452
12827TIP3    H138438   2.176   1.094   5.517
12827TIP3    H238439   2.323   1.102   5.483
12828TIP3   OH238440   7.619   7.558   2.429
12828TIP3    H138441   7.542   7.550   2.373
12828TIP3    H238442   7.693   7.545   2.369
12829TIP3   OH238443   1.492   3.558   4.666
12829TIP3    H138444   1.555   3.630   4.670
12829TIP3    H238445   1.431   3.584   4.597
12830TIP3   OH238446   2.915   3.127   4.415
12830TIP3    H138447   2.989   3.177   4.381
12830TIP3    H238448   2.901   3.162   4.503
12831TIP3   OH238449   0.985   4.145   4.077
12831TIP3    H138450   1.051   4.143   4.008
12831TIP3    H238451   1.021   4.205   4.143
12832TIP3   OH238452   5.844   4.249   2.933
12832TIP3    H138453   5.939   4.245   2.945
12832TIP3    H238454   5.826   4.190   2.860
12833TIP3   OH238455   2.723   3.778   2.755
12833TIP3    H138456   2.737   3.857   2.807
12833TIP3    H238457   2.811   3.739   2.747
12834TIP3   OH238458   5.679   5.752   6.387
12834TIP3    H138459   5.715   5.667   6.362
12834TIP3    H238460   5.746   5.791   6.443
12835TIP3   OH238461   1.851   1.137   4.575
12835TIP3    H138462   1.800   1.126   4.495
12835TIP3    H238463   1.824   1.064   4.631
12836TIP3   OH238464   4.661   1.270   4.657
12836TIP3    H138465   4.754   1.260   4.677
12836TIP3    H238466   4.619   1.276   4.743
12837TIP3   OH238467   3.566   6.962   6.139
12837TIP3    H138468   3.545   7.051   6.109
12837TIP3    H238469   3.481   6.920   6.150
12838TIP3   OH238470   6.838   3.748   0.496
12838TIP3    H138471   6.926   3.781   0.482
12838TIP3    H238472   6.850   3.654   0.509
12839TIP3   OH238473   1.880   6.445   4.916
12839TIP3    H138474   1.907   6.384   4.984
12839TIP3    H238475   1.925   6.526   4.937
12840TIP3   OH238476   5.657   7.549   1.906
12840TIP3    H138477   5.715   7.479   1.934
12840TIP3    H238478   5.707   7.597   1.840
12841TIP3   OH238479   3.097   7.564   5.233
12841TIP3    H138480   3.088   7.651   5.271
12841TIP3    H238481   3.008   7.537   5.212
12842TIP3   OH238482   4.864   5.449   6.166
12842TIP3    H138483   4.941   5.405   6.129
12842TIP3    H238484   4.873   5.540   6.139
12843TIP3   OH238485   3.383   2.466   0.013
12843TIP3    H138486   3.460   2.463  -0.044
12843TIP3    H238487   3.415   2.436   0.098
12844TIP3   OH238488   0.310   7.225   3.707
12844TIP3    H138489   0.397   7.238   3.746
12844TIP3    H238490   0.252   7.281   3.758
12845TIP3   OH238491   6.125   0.311   1.330
12845TIP3    H138492   6.191   0.243   1.316
12845TIP3    H238493   6.149   0.381   1.269
12846TIP3   OH238494   1.616   1.649   2.013
12846TIP3    H138495   1.697   1.601   1.999
12846TIP3    H238496   1.633   1.702   2.091
12847TIP3   OH238497   5.729   5.580   5.215
12847TIP3    H138498   5.710   5.581   5.121
12847TIP3    H238499   5.759   5.669   5.235
12848TIP3   OH238500   4.233   1.365   3.754
12848TIP3    H138501   4.321   1.388   3.725
12848TIP3    H238502   4.241   1.276   3.788
12849TIP3   OH238503   1.453   6.091   5.215
12849TIP3    H138504   1.394   6.165   5.197
12849TIP3    H238505   1.524   6.101   5.152
12850TIP3   OH238506   2.071   6.634   3.581
12850TIP3    H138507   2.071   6.715   3.529
12850TIP3    H238508   2.125   6.573   3.530
12851TIP3   OH238509   5.144   6.131   5.694
12851TIP3    H138510   5.132   6.071   5.768
12851TIP3    H238511   5.055   6.143   5.659
12852TIP3   OH238512   7.660   7.806   3.820
12852TIP3    H138513   7.710   7.728   3.843
12852TIP3    H238514   7.568   7.780   3.833
12853TIP3   OH238515   2.410   7.429   0.834
12853TIP3    H138516   2.316   7.441   0.818
12853TIP3    H238517   2.444   7.518   0.842
12854TIP3   OH238518   7.496   6.857   2.860
12854TIP3    H138519   7.545   6.840   2.940
12854TIP3    H238520   7.507   6.778   2.808
12855TIP3   OH238521   4.398   6.350   5.227
12855TIP3    H138522   4.339   6.351   5.152
12855TIP3    H238523   4.431   6.439   5.234
12856TIP3   OH238524   3.441   0.184   1.989
12856TIP3    H138525   3.495   0.235   1.930
12856TIP3    H238526   3.420   0.104   1.940
12857TIP3   OH238527   5.799   5.902   5.032
12857TIP3    H138528   5.718   5.873   4.991
12857TIP3    H238529   5.864   5.899   4.962
12858TIP3   OH238530   4.331   2.796   1.915
12858TIP3    H138531   4.243   2.792   1.953
12858TIP3    H238532   4.316   2.823   1.824
12859TIP3   OH238533   1.296   3.513   2.846
12859TIP3    H138534   1.202   3.513   2.829
12859TIP3    H238535   1.304   3.511   2.941
12860TIP3   OH238536   8.043   1.711   0.418
12860TIP3    H138537   7.992   1.630   0.418
12860TIP3    H238538   8.115   1.694   0.478
12861TIP3   OH238539   1.810   4.497   3.766
12861TIP3    H138540   1.772   4.584   3.779
12861TIP3    H238541   1.802   4.455   3.852
12862TIP3   OH238542   1.589   2.947   1.542
12862TIP3    H138543   1.553   3.017   1.597
12862TIP3    H238544   1.593   2.985   1.455
12863TIP3   OH238545   7.079   3.007   0.538
12863TIP3    H138546   7.051   2.918   0.562
12863TIP3    H238547   7.088   3.053   0.621
12864TIP3   OH238548   7.285   2.086   4.619
12864TIP3    H138549   7.263   2.004   4.663
12864TIP3    H238550   7.245   2.154   4.674
12865TIP3   OH238551   6.931   6.924   5.294
12865TIP3    H138552   6.929   7.010   5.251
12865TIP3    H238553   6.939   6.944   5.387
12866TIP3   OH238554   5.458   7.609   2.707
12866TIP3    H138555   5.435   7.526   2.747
12866TIP3    H238556   5.437   7.597   2.614
12867TIP3   OH238557   3.725   3.294   3.592
12867TIP3    H138558   3.732   3.199   3.582
12867TIP3    H238559   3.652   3.306   3.653
12868TIP3   OH238560   1.899   3.541   2.984
12868TIP3    H138561   1.940   3.479   3.044
12868TIP3    H238562   1.805   3.530   2.997
12869TIP3   OH238563   2.886   6.434   2.770
12869TIP3    H138564   2.885   6.341   2.745
12869TIP3    H238565   2.967   6.445   2.819
12870TIP3   OH238566   4.804   1.655   2.265
12870TIP3    H138567   4.798   1.637   2.171
12870TIP3    H238568   4.718   1.633   2.299
12871TIP3   OH238569   5.381   2.500   1.000
12871TIP3    H138570   5.431   2.581   0.988
12871TIP3    H238571   5.437   2.431   0.964
12872TIP3   OH238572   3.503   2.598   4.690
12872TIP3    H138573   3.588   2.609   4.732
12872TIP3    H238574   3.520   2.537   4.618
12873TIP3   OH238575   0.957   6.856   6.567
12873TIP3    H138576   0.961   6.763   6.589
12873TIP3    H238577   1.001   6.900   6.640
12874TIP3   OH238578   7.187   6.052   1.163
12874TIP3    H138579   7.121   6.046   1.233
12874TIP3    H238580   7.191   5.963   1.127
12875TIP3   OH238581   5.466   5.001   0.532
12875TIP3    H138582   5.409   4.979   0.458
12875TIP3    H238583   5.414   5.059   0.587
12876TIP3   OH238584   1.936   0.848   5.245
12876TIP3    H138585   1.893   0.861   5.329
12876TIP3    H238586   1.866   0.853   5.181
12877TIP3   OH238587   5.535   0.101   4.042
12877TIP3    H138588   5.544   0.008   4.066
12877TIP3    H238589   5.625   0.131   4.031
12878TIP3   OH238590   5.118   2.483   5.683
12878TIP3    H138591   5.049   2.420   5.704
12878TIP3    H238592   5.165   2.496   5.765
12879TIP3   OH238593   1.375   3.880   1.962
12879TIP3    H138594   1.431   3.890   1.885
12879TIP3    H238595   1.289   3.855   1.926
12880TIP3   OH238596   3.363   3.117   4.149
12880TIP3    H138597   3.346   3.025   4.126
12880TIP3    H238598   3.452   3.117   4.183
12881TIP3   OH238599   4.055   1.578   3.889
12881TIP3    H138600   4.110   1.508   3.854
12881TIP3    H238601   4.081   1.585   3.981
12882TIP3   OH238602   4.088   2.764   3.309
12882TIP3    H138603   4.097   2.858   3.293
12882TIP3    H238604   3.996   2.745   3.290
12883TIP3   OH238605   6.516   1.515   1.288
12883TIP3    H138606   6.562   1.556   1.360
12883TIP3    H238607   6.569   1.438   1.266
12884TIP3   OH238608   2.773   1.801   2.511
12884TIP3    H138609   2.768   1.731   2.577
12884TIP3    H238610   2.840   1.861   2.545
12885TIP3   OH238611   4.703   2.149   5.708
12885TIP3    H138612   4.771   2.135   5.774
12885TIP3    H238613   4.623   2.161   5.760
12886TIP3   OH238614   0.602   5.639   3.340
12886TIP3    H138615   0.596   5.547   3.366
12886TIP3    H238616   0.534   5.649   3.274
12887TIP3   OH238617   1.396   2.904   5.935
12887TIP3    H138618   1.447   2.834   5.976
12887TIP3    H238619   1.457   2.944   5.873
12888TIP3   OH238620   0.686   6.523   0.801
12888TIP3    H138621   0.651   6.435   0.788
12888TIP3    H238622   0.735   6.517   0.883
12889TIP3   OH238623   8.242   2.711   4.963
12889TIP3    H138624   8.152   2.721   4.931
12889TIP3    H238625   8.292   2.777   4.914
12890TIP3   OH238626   3.582   2.047   3.337
12890TIP3    H138627   3.673   2.042   3.365
12890TIP3    H238628   3.580   2.000   3.253
12891TIP3   OH238629   0.398   0.650   5.450
12891TIP3    H138630   0.326   0.590   5.471
12891TIP3    H238631   0.408   0.643   5.355
12892TIP3   OH238632   2.744   4.651   4.635
12892TIP3    H138633   2.774   4.605   4.556
12892TIP3    H238634   2.813   4.634   4.700
12893TIP3   OH238635   6.032   3.691   4.748
12893TIP3    H138636   6.079   3.666   4.669
12893TIP3    H238637   5.989   3.610   4.777
12894TIP3   OH238638   3.390   2.898   5.052
12894TIP3    H138639   3.363   2.888   4.961
12894TIP3    H238640   3.421   2.812   5.078
12895TIP3   OH238641   6.211   4.457   5.137
12895TIP3    H138642   6.250   4.388   5.083
12895TIP3    H238643   6.254   4.449   5.222
12896TIP3   OH238644   0.057   3.781   3.111
12896TIP3    H138645   0.007   3.846   3.061
12896TIP3    H238646   0.063   3.819   3.199
12897TIP3   OH238647   0.218   4.729   2.519
12897TIP3    H138648   0.238   4.653   2.464
12897TIP3    H238649   0.170   4.788   2.462
12898TIP3   OH238650   2.577   5.342   0.582
12898TIP3    H138651   2.615   5.407   0.522
12898TIP3    H238652   2.563   5.265   0.527
12899TIP3   OH238653   7.359   7.531   2.327
12899TIP3    H138654   7.353   7.526   2.231
12899TIP3    H238655   7.315   7.453   2.358
12900TIP3   OH238656   5.881   5.411   2.134
12900TIP3    H138657   5.915   5.323   2.152
12900TIP3    H238658   5.868   5.450   2.220
12901TIP3   OH238659   6.200   2.524   4.308
12901TIP3    H138660   6.232   2.450   4.256
12901TIP3    H238661   6.139   2.569   4.250
12902TIP3   OH238662   3.755   5.720   2.720
12902TIP3    H138663   3.831   5.698   2.774
12902TIP3    H238664   3.679   5.697   2.775
12903TIP3   OH238665   5.762   3.195   4.250
12903TIP3    H138666   5.822   3.192   4.175
12903TIP3    H238667   5.690   3.251   4.222
12904TIP3   OH238668   0.547   6.759   0.739
12904TIP3    H138669   0.592   6.811   0.806
12904TIP3    H238670   0.603   6.682   0.728
12905TIP3   OH238671   5.759   4.512   2.839
12905TIP3    H138672   5.837   4.551   2.801
12905TIP3    H238673   5.789   4.429   2.877
12906TIP3   OH238674   5.629   0.324   6.489
12906TIP3    H138675   5.710   0.322   6.439
12906TIP3    H238676   5.652   0.289   6.575
12907TIP3   OH238677   2.917   7.182   4.835
12907TIP3    H138678   2.889   7.197   4.745
12907TIP3    H238679   2.935   7.269   4.869
12908TIP3   OH238680   1.607   2.970   5.757
12908TIP3    H138681   1.584   3.046   5.703
12908TIP3    H238682   1.581   2.895   5.704
12909TIP3   OH238683   8.250   5.001   1.566
12909TIP3    H138684   8.192   5.071   1.537
12909TIP3    H238685   8.332   5.017   1.519
12910TIP3   OH238686   7.734   7.603   4.012
12910TIP3    H138687   7.790   7.525   4.019
12910TIP3    H238688   7.649   7.574   4.046
12911TIP3   OH238689   4.693   3.341   2.393
12911TIP3    H138690   4.715   3.401   2.464
12911TIP3    H238691   4.766   3.350   2.331
12912TIP3   OH238692   4.900   2.049   0.562
12912TIP3    H138693   4.848   1.988   0.509
12912TIP3    H238694   4.952   1.993   0.619
12913TIP3   OH238695   3.264   0.698   6.468
12913TIP3    H138696   3.173   0.695   6.438
12913TIP3    H238697   3.270   0.631   6.536
12914TIP3   OH238698   7.789   6.321   2.966
12914TIP3    H138699   7.727   6.381   3.007
12914TIP3    H238700   7.873   6.341   3.008
12915TIP3   OH238701   3.406   3.529   3.993
12915TIP3    H138702   3.380   3.455   3.938
12915TIP3    H238703   3.501   3.534   3.983
12916TIP3   OH238704   3.642   2.408   5.101
12916TIP3    H138705   3.677   2.497   5.102
12916TIP3    H238706   3.572   2.409   5.166
12917TIP3   OH238707   2.188   5.536   2.092
12917TIP3    H138708   2.263   5.555   2.148
12917TIP3    H238709   2.184   5.440   2.090
12918TIP3   OH238710   5.355   4.465   2.706
12918TIP3    H138711   5.438   4.424   2.682
12918TIP3    H238712   5.293   4.392   2.709
12919TIP3   OH238713   7.950   7.428   4.656
12919TIP3    H138714   7.879   7.427   4.721
12919TIP3    H238715   7.913   7.384   4.579
12920TIP3   OH238716   4.905   6.422   4.889
12920TIP3    H138717   4.825   6.430   4.942
12920TIP3    H238718   4.942   6.510   4.889
12921TIP3   OH238719   1.989   0.002   4.420
12921TIP3    H138720   2.073  -0.037   4.443
12921TIP3    H238721   1.952   0.030   4.504
12922TIP3   OH238722   6.505   4.886   3.014
12922TIP3    H138723   6.446   4.961   3.002
12922TIP3    H238724   6.592   4.925   3.019
12923TIP3   OH238725   5.063   4.569   3.601
12923TIP3    H138726   5.129   4.611   3.547
12923TIP3    H238727   5.062   4.478   3.572
12924TIP3   OH238728   3.335   0.269   3.167
12924TIP3    H138729   3.354   0.355   3.129
12924TIP3    H238730   3.283   0.224   3.100
12925TIP3   OH238731   6.089   5.379   5.292
12925TIP3    H138732   6.153   5.314   5.264
12925TIP3    H238733   6.007   5.352   5.250
12926TIP3   OH238734   3.243   0.969   2.821
12926TIP3    H138735   3.167   1.010   2.862
12926TIP3    H238736   3.291   0.930   2.894
12927TIP3   OH238737   8.287   2.259   1.212
12927TIP3    H138738   8.342   2.334   1.191
12927TIP3    H238739   8.207   2.296   1.249
12928TIP3   OH238740   7.609   2.454   0.068
12928TIP3    H138741   7.677   2.490   0.126
12928TIP3    H238742   7.604   2.515  -0.005
12929TIP3   OH238743   3.123   4.186   0.448
12929TIP3    H138744   3.181   4.246   0.402
12929TIP3    H238745   3.036   4.206   0.414
12930TIP3   OH238746   3.004   2.014   0.166
12930TIP3    H138747   3.036   1.925   0.183
12930TIP3    H238748   3.074   2.055   0.115
12931TIP3   OH238749   0.825   6.218   1.091
12931TIP3    H138750   0.903   6.268   1.067
12931TIP3    H238751   0.855   6.127   1.097
12932TIP3   OH238752   7.310   3.919   4.727
12932TIP3    H138753   7.217   3.901   4.736
12932TIP3    H238754   7.352   3.832   4.731
12933TIP3   OH238755   6.373   0.165   1.932
12933TIP3    H138756   6.325   0.209   1.862
12933TIP3    H238757   6.320   0.089   1.954
12934TIP3   OH238758   6.716   4.478   2.776
12934TIP3    H138759   6.687   4.387   2.775
12934TIP3    H238760   6.657   4.522   2.838
12935TIP3   OH238761   0.266   2.056   2.661
12935TIP3    H138762   0.275   2.145   2.697
12935TIP3    H238763   0.336   2.050   2.596
12936TIP3   OH238764   0.660   7.276   1.970
12936TIP3    H138765   0.740   7.229   1.995
12936TIP3    H238766   0.665   7.359   2.016
12937TIP3   OH238767   2.081   1.285   0.770
12937TIP3    H138768   2.093   1.309   0.678
12937TIP3    H238769   2.022   1.211   0.768
12938TIP3   OH238770   8.123   3.927   3.573
12938TIP3    H138771   8.168   4.001   3.613
12938TIP3    H238772   8.130   3.856   3.637
12939TIP3   OH238773   8.306   2.791   2.859
12939TIP3    H138774   8.216   2.775   2.832
12939TIP3    H238775   8.333   2.869   2.811
12940TIP3   OH238776   1.386   0.138   4.561
12940TIP3    H138777   1.433   0.218   4.534
12940TIP3    H238778   1.424   0.069   4.506
12941TIP3   OH238779   2.240   0.442   2.933
12941TIP3    H138780   2.269   0.531   2.950
12941TIP3    H238781   2.233   0.402   3.020
12942TIP3   OH238782   7.428   0.918   5.036
12942TIP3    H138783   7.499   0.898   5.097
12942TIP3    H238784   7.418   1.013   5.042
12943TIP3   OH238785   2.627   6.941   0.623
12943TIP3    H138786   2.695   7.009   0.626
12943TIP3    H238787   2.672   6.862   0.650
12944TIP3   OH238788   0.206   3.871   6.616
12944TIP3    H138789   0.294   3.881   6.651
12944TIP3    H238790   0.219   3.858   6.522
12945TIP3   OH238791   1.751   3.298   6.815
12945TIP3    H138792   1.675   3.261   6.770
12945TIP3    H238793   1.824   3.244   6.785
12946TIP3   OH238794   3.433   2.957   2.167
12946TIP3    H138795   3.352   2.941   2.214
12946TIP3    H238796   3.495   2.894   2.203
12947TIP3   OH238797   4.015   1.045   6.018
12947TIP3    H138798   4.031   1.130   5.978
12947TIP3    H238799   4.032   0.982   5.948
12948TIP3   OH238800   0.199   2.641   4.627
12948TIP3    H138801   0.106   2.655   4.642
12948TIP3    H238802   0.220   2.695   4.551
12949TIP3   OH238803   1.828   4.963   2.942
12949TIP3    H138804   1.777   4.910   2.881
12949TIP3    H238805   1.779   4.957   3.025
12950TIP3   OH238806   7.257   7.491   2.047
12950TIP3    H138807   7.220   7.579   2.041
12950TIP3    H238808   7.335   7.494   1.992
12951TIP3   OH238809   2.274   3.342   4.936
12951TIP3    H138810   2.365   3.365   4.957
12951TIP3    H238811   2.227   3.425   4.946
12952TIP3   OH238812   6.212   0.513   5.096
12952TIP3    H138813   6.133   0.465   5.121
12952TIP3    H238814   6.281   0.474   5.148
12953TIP3   OH238815   0.905   2.808   3.689
12953TIP3    H138816   0.821   2.764   3.698
12953TIP3    H238817   0.965   2.755   3.742
12954TIP3   OH238818   4.866   0.842   2.826
12954TIP3    H138819   4.916   0.922   2.839
12954TIP3    H238820   4.916   0.774   2.870
12955TIP3   OH238821   7.591   2.578   4.435
12955TIP3    H138822   7.549   2.652   4.480
12955TIP3    H238823   7.644   2.536   4.503
12956TIP3   OH238824   0.406   6.502   3.822
12956TIP3    H138825   0.314   6.489   3.844
12956TIP3    H238826   0.452   6.432   3.869
12957TIP3   OH238827   2.094   4.523   5.094
12957TIP3    H138828   2.021   4.582   5.074
12957TIP3    H238829   2.089   4.511   5.189
12958TIP3   OH238830   2.875   2.245   2.127
12958TIP3    H138831   2.965   2.212   2.124
12958TIP3    H238832   2.885   2.337   2.152
12959TIP3   OH238833   6.422   6.690   0.802
12959TIP3    H138834   6.360   6.637   0.752
12959TIP3    H238835   6.463   6.747   0.736
12960TIP3   OH238836   5.144   0.914   3.200
12960TIP3    H138837   5.105   0.826   3.204
12960TIP3    H238838   5.069   0.973   3.206
12961TIP3   OH238839   7.912   1.992   0.301
12961TIP3    H138840   7.874   1.927   0.360
12961TIP3    H238841   7.964   1.942   0.239
12962TIP3   OH238842   3.603   1.951   5.183
12962TIP3    H138843   3.663   1.882   5.157
12962TIP3    H238844   3.599   2.009   5.107
12963TIP3   OH238845   3.046   1.657   2.903
12963TIP3    H138846   2.958   1.690   2.920
12963TIP3    H238847   3.082   1.639   2.990
12964TIP3   OH238848   1.199   5.465   1.308
12964TIP3    H138849   1.129   5.529   1.313
12964TIP3    H238850   1.168   5.400   1.245
12965TIP3   OH238851   2.486   1.886   4.015
12965TIP3    H138852   2.499   1.804   3.966
12965TIP3    H238853   2.465   1.858   4.104
12966TIP3   OH238854   4.730   4.041   2.621
12966TIP3    H138855   4.719   4.132   2.592
12966TIP3    H238856   4.645   4.017   2.659
12967TIP3   OH238857   8.244   2.667   4.028
12967TIP3    H138858   8.274   2.576   4.032
12967TIP3    H238859   8.265   2.704   4.113
12968TIP3   OH238860   5.648   1.797   1.287
12968TIP3    H138861   5.582   1.727   1.287
12968TIP3    H238862   5.640   1.836   1.200
12969TIP3   OH238863   2.995   2.519   4.691
12969TIP3    H138864   3.072   2.482   4.735
12969TIP3    H238865   3.024   2.533   4.600
12970TIP3   OH238866   1.884   4.468   5.666
12970TIP3    H138867   1.824   4.440   5.596
12970TIP3    H238868   1.869   4.562   5.674
12971TIP3   OH238869   1.923   4.675   3.074
12971TIP3    H138870   2.002   4.724   3.051
12971TIP3    H238871   1.896   4.633   2.993
12972TIP3   OH238872   2.967   3.704   0.167
12972TIP3    H138873   3.009   3.702   0.081
12972TIP3    H238874   2.948   3.613   0.187
12973TIP3   OH238875   8.114   6.178   0.895
12973TIP3    H138876   8.103   6.241   0.824
12973TIP3    H238877   8.025   6.145   0.911
12974TIP3   OH238878   3.836   7.548   0.597
12974TIP3    H138879   3.828   7.470   0.652
12974TIP3    H238880   3.928   7.550   0.573
12975TIP3   OH238881   5.636   0.944   4.014
12975TIP3    H138882   5.663   0.931   3.923
12975TIP3    H238883   5.651   0.860   4.056
12976TIP3   OH238884   1.652   0.524   2.676
12976TIP3    H138885   1.637   0.519   2.581
12976TIP3    H238886   1.700   0.443   2.696
12977TIP3   OH238887   0.810   4.033   6.735
12977TIP3    H138888   0.720   4.063   6.720
12977TIP3    H238889   0.816   3.949   6.689
12978TIP3   OH238890   1.293   5.382   5.961
12978TIP3    H138891   1.383   5.351   5.954
12978TIP3    H238892   1.246   5.338   5.890
12979TIP3   OH238893   0.754   1.548   4.325
12979TIP3    H138894   0.812   1.487   4.280
12979TIP3    H238895   0.744   1.511   4.412
12980TIP3   OH238896   5.085   4.817   6.296
12980TIP3    H138897   5.046   4.733   6.273
12980TIP3    H238898   5.025   4.855   6.360
12981TIP3   OH238899   6.680   7.181   5.234
12981TIP3    H138900   6.722   7.165   5.150
12981TIP3    H238901   6.752   7.185   5.297
12982TIP3   OH238902   6.616   2.232   2.811
12982TIP3    H138903   6.581   2.298   2.871
12982TIP3    H238904   6.596   2.266   2.723
12983TIP3   OH238905   1.828   2.186   3.171
12983TIP3    H138906   1.777   2.122   3.222
12983TIP3    H238907   1.766   2.222   3.109
12984TIP3   OH238908   5.019   3.942   4.860
12984TIP3    H138909   4.951   3.894   4.908
12984TIP3    H238910   4.978   4.026   4.837
12985TIP3   OH238911   7.857   4.806   0.883
12985TIP3    H138912   7.893   4.894   0.895
12985TIP3    H238913   7.912   4.750   0.937
12986TIP3   OH238914   2.083   5.037   1.952
12986TIP3    H138915   2.046   4.991   1.877
12986TIP3    H238916   2.103   4.968   2.015
12987TIP3   OH238917   1.484   4.625   5.055
12987TIP3    H138918   1.542   4.612   5.130
12987TIP3    H238919   1.502   4.714   5.025
12988TIP3   OH238920   1.628   4.019   5.317
12988TIP3    H138921   1.536   4.016   5.344
12988TIP3    H238922   1.629   3.980   5.230
12989TIP3   OH238923   7.999   5.568   3.599
12989TIP3    H138924   8.078   5.541   3.646
12989TIP3    H238925   7.965   5.487   3.562
12990TIP3   OH238926   3.678   1.681   4.506
12990TIP3    H138927   3.723   1.631   4.438
12990TIP3    H238928   3.713   1.770   4.499
12991TIP3   OH238929   2.920   1.437   3.377
12991TIP3    H138930   2.972   1.490   3.438
12991TIP3    H238931   2.931   1.347   3.408
12992TIP3   OH238932   1.532   0.685   4.085
12992TIP3    H138933   1.550   0.596   4.116
12992TIP3    H238934   1.437   0.695   4.093
12993TIP3   OH238935   6.032   3.823   1.561
12993TIP3    H138936   5.956   3.767   1.545
12993TIP3    H238937   6.034   3.835   1.657
12994TIP3   OH238938   3.857   7.210   5.017
12994TIP3    H138939   3.926   7.196   4.952
12994TIP3    H238940   3.786   7.252   4.969
12995TIP3   OH238941   0.686   2.014   5.986
12995TIP3    H138942   0.737   2.055   5.917
12995TIP3    H238943   0.743   1.947   6.023
12996TIP3   OH238944   6.348   6.992   4.756
12996TIP3    H138945   6.293   7.069   4.768
12996TIP3    H238946   6.297   6.935   4.698
12997TIP3   OH238947   7.276   3.705   4.505
12997TIP3    H138948   7.328   3.643   4.556
12997TIP3    H238949   7.330   3.726   4.430
12998TIP3   OH238950   7.526   5.789   6.350
12998TIP3    H138951   7.457   5.842   6.391
12998TIP3    H238952   7.509   5.796   6.256
12999TIP3   OH238953   6.618   7.120   1.868
12999TIP3    H138954   6.598   7.190   1.930
12999TIP3    H238955   6.660   7.052   1.922
13000TIP3   OH238956   6.372   1.423   0.246
13000TIP3    H138957   6.349   1.391   0.159
13000TIP3    H238958   6.337   1.512   0.249
13001TIP3   OH238959   3.985   2.487   0.782
13001TIP3    H138960   4.072   2.468   0.746
13001TIP3    H238961   3.929   2.492   0.704
13002TIP3   OH238962   5.334   7.673   3.490
13002TIP3    H138963   5.354   7.581   3.473
13002TIP3    H238964   5.257   7.691   3.436
13003TIP3   OH238965   5.355   0.786   4.026
13003TIP3    H138966   5.274   0.763   3.978
13003TIP3    H238967   5.417   0.809   3.957
13004TIP3   OH238968   3.636   5.103   5.638
13004TIP3    H138969   3.646   5.024   5.585
13004TIP3    H238970   3.667   5.077   5.725
13005TIP3   OH238971   4.290   2.780   3.895
13005TIP3    H138972   4.293   2.841   3.821
13005TIP3    H238973   4.294   2.693   3.855
13006TIP3   OH238974   4.108   0.859   1.379
13006TIP3    H138975   4.015   0.876   1.362
13006TIP3    H238976   4.146   0.945   1.395
13007TIP3   OH238977   5.508   2.768   3.626
13007TIP3    H138978   5.416   2.785   3.607
13007TIP3    H238979   5.534   2.842   3.681
13008TIP3   OH238980   0.826   4.843   0.970
13008TIP3    H138981   0.842   4.867   1.061
13008TIP3    H238982   0.911   4.813   0.938
13009TIP3   OH238983   1.388   3.262   3.137
13009TIP3    H138984   1.363   3.354   3.122
13009TIP3    H238985   1.424   3.261   3.225
13010TIP3   OH238986   5.947   6.340   0.040
13010TIP3    H138987   5.870   6.381   0.080
13010TIP3    H238988   5.981   6.407  -0.019
13011TIP3   OH238989   0.210   1.875   6.680
13011TIP3    H138990   0.137   1.866   6.742
13011TIP3    H238991   0.239   1.966   6.691
13012TIP3   OH238992   0.605   0.821   1.751
13012TIP3    H138993   0.586   0.775   1.833
13012TIP3    H238994   0.622   0.751   1.687
13013TIP3   OH238995   7.777   3.468   0.303
13013TIP3    H138996   7.809   3.546   0.256
13013TIP3    H238997   7.715   3.428   0.242
13014TIP3   OH238998   7.977   5.989   0.372
13014TIP3    H138999   8.025   5.906   0.365
13014TIP3    H239000   7.998   6.036   0.291
13015TIP3   OH239001   1.381   3.663   2.347
13015TIP3    H139002   1.351   3.606   2.418
13015TIP3    H239003   1.474   3.643   2.338
13016TIP3   OH239004   7.366   3.247   3.397
13016TIP3    H139005   7.278   3.212   3.413
13016TIP3    H239006   7.397   3.199   3.320
13017TIP3   OH239007   5.481   5.255   3.238
13017TIP3    H139008   5.403   5.214   3.200
13017TIP3    H239009   5.459   5.348   3.242
13018TIP3   OH239010   1.557   2.046   6.436
13018TIP3    H139011   1.646   2.078   6.453
13018TIP3    H239012   1.566   1.989   6.360
13019TIP3   OH239013   4.437   5.598   2.740
13019TIP3    H139014   4.403   5.612   2.652
13019TIP3    H239015   4.366   5.556   2.787
13020TIP3   OH239016   6.165   4.005   6.491
13020TIP3    H139017   6.258   3.983   6.485
13020TIP3    H239018   6.138   3.974   6.578
13021TIP3   OH239019   1.972   1.949   0.836
13021TIP3    H139020   1.993   1.862   0.802
13021TIP3    H239021   1.996   2.008   0.765
13022TIP3   OH239022   5.407   2.171   5.587
13022TIP3    H139023   5.315   2.143   5.587
13022TIP3    H239024   5.435   2.162   5.678
13023TIP3   OH239025   2.943   6.362   5.728
13023TIP3    H139026   3.005   6.290   5.725
13023TIP3    H239027   2.905   6.358   5.816
13024TIP3   OH239028   8.015   1.223   1.688
13024TIP3    H139029   8.099   1.216   1.733
13024TIP3    H239030   7.953   1.245   1.758
13025TIP3   OH239031   5.508   1.996   4.202
13025TIP3    H139032   5.538   1.941   4.130
13025TIP3    H239033   5.439   2.051   4.163
13026TIP3   OH239034   5.054   4.907   3.026
13026TIP3    H139035   4.991   4.846   3.063
13026TIP3    H239036   5.021   4.994   3.050
13027TIP3   OH239037   4.514   6.018   6.416
13027TIP3    H139038   4.422   6.040   6.407
13027TIP3    H239039   4.515   5.947   6.480
13028TIP3   OH239040   0.991   1.334   2.698
13028TIP3    H139041   0.970   1.413   2.649
13028TIP3    H239042   0.968   1.262   2.639
13029TIP3   OH239043   3.278   2.555   3.667
13029TIP3    H139044   3.348   2.540   3.730
13029TIP3    H239045   3.207   2.498   3.696
13030TIP3   OH239046   3.443   5.638   6.209
13030TIP3    H139047   3.472   5.556   6.250
13030TIP3    H239048   3.499   5.705   6.247
13031TIP3   OH239049   0.954   4.640   6.206
13031TIP3    H139050   0.981   4.591   6.128
13031TIP3    H239051   1.034   4.648   6.258
13032TIP3   OH239052   4.978   1.898   0.781
13032TIP3    H139053   5.013   1.817   0.818
13032TIP3    H239054   4.977   1.959   0.855
13033TIP3   OH239055   6.541   2.728   1.571
13033TIP3    H139056   6.533   2.638   1.538
13033TIP3    H239057   6.548   2.718   1.666
13034TIP3   OH239058   5.119   7.434   0.605
13034TIP3    H139059   5.140   7.524   0.581
13034TIP3    H239060   5.202   7.386   0.596
13035TIP3   OH239061   1.257   1.033   1.994
13035TIP3    H139062   1.198   1.106   2.012
13035TIP3    H239063   1.336   1.053   2.045
13036TIP3   OH239064   0.262   7.367   5.261
13036TIP3    H139065   0.260   7.276   5.289
13036TIP3    H239066   0.347   7.399   5.290
13037TIP3   OH239067   7.407   6.953   1.134
13037TIP3    H139068   7.361   6.990   1.059
13037TIP3    H239069   7.493   6.929   1.100
13038TIP3   OH239070   5.969   1.040   3.894
13038TIP3    H139071   6.038   0.999   3.946
13038TIP3    H239072   5.992   1.021   3.803
13039TIP3   OH239073   0.237   0.139   4.080
13039TIP3    H139074   0.184   0.059   4.077
13039TIP3    H239075   0.270   0.143   4.170
13040TIP3   OH239076   4.532   1.136   0.416
13040TIP3    H139077   4.475   1.174   0.482
13040TIP3    H239078   4.621   1.161   0.443
13041TIP3   OH239079   4.640   6.461   1.364
13041TIP3    H139080   4.719   6.415   1.335
13041TIP3    H239081   4.568   6.406   1.335
13042TIP3   OH239082   7.792   7.051   4.809
13042TIP3    H139083   7.750   6.966   4.819
13042TIP3    H239084   7.878   7.030   4.773
13043TIP3   OH239085   4.685   2.011   2.565
13043TIP3    H139086   4.759   1.966   2.524
13043TIP3    H239087   4.708   2.016   2.658
13044TIP3   OH239088   6.040   2.961   0.284
13044TIP3    H139089   6.111   2.897   0.288
13044TIP3    H239090   6.008   2.966   0.374
13045TIP3   OH239091   2.677   2.339   6.587
13045TIP3    H139092   2.600   2.382   6.624
13045TIP3    H239093   2.660   2.334   6.493
13046TIP3   OH239094   2.639   1.956   3.641
13046TIP3    H139095   2.593   2.013   3.580
13046TIP3    H239096   2.630   1.869   3.604
13047TIP3   OH239097   3.051   6.958   5.099
13047TIP3    H139098   3.080   7.026   5.038
13047TIP3    H239099   3.124   6.896   5.101
13048TIP3   OH239100   5.549   6.716   0.103
13048TIP3    H139101   5.480   6.661   0.067
13048TIP3    H239102   5.536   6.801   0.059
13049TIP3   OH239103   6.906   7.855   5.077
13049TIP3    H139104   6.906   7.884   5.168
13049TIP3    H239105   6.929   7.762   5.082
13050TIP3   OH239106   6.647   7.641   0.693
13050TIP3    H139107   6.723   7.584   0.691
13050TIP3    H239108   6.593   7.611   0.619
13051TIP3   OH239109   8.147   4.285   4.394
13051TIP3    H139110   8.229   4.313   4.434
13051TIP3    H239111   8.139   4.192   4.419
13052TIP3   OH239112   7.776   7.520   5.224
13052TIP3    H139113   7.865   7.507   5.258
13052TIP3    H239114   7.725   7.548   5.299
13053TIP3   OH239115   0.005   0.760   0.863
13053TIP3    H139116   0.026   0.678   0.819
13053TIP3    H239117  -0.083   0.748   0.897
13054TIP3   OH239118   2.326   4.861   6.191
13054TIP3    H139119   2.270   4.913   6.134
13054TIP3    H239120   2.295   4.880   6.280
13055TIP3   OH239121   4.154   1.507   2.229
13055TIP3    H139122   4.119   1.490   2.316
13055TIP3    H239123   4.198   1.592   2.237
13056TIP3   OH239124   3.767   2.376   0.931
13056TIP3    H139125   3.836   2.411   0.875
13056TIP3    H239126   3.747   2.448   0.991
13057TIP3   OH239127   4.746   2.231   0.061
13057TIP3    H139128   4.760   2.138   0.041
13057TIP3    H239129   4.805   2.249   0.134
13058TIP3   OH239130   7.987   3.134   6.001
13058TIP3    H139131   8.023   3.213   5.961
13058TIP3    H239132   7.915   3.108   5.943
13059TIP3   OH239133   1.311   6.149   0.080
13059TIP3    H139134   1.336   6.065   0.040
13059TIP3    H239135   1.360   6.152   0.162
13060TIP3   OH239136   1.544   5.410   1.061
13060TIP3    H139137   1.464   5.384   1.016
13060TIP3    H239138   1.522   5.492   1.104
13061TIP3   OH239139   5.761   3.078   6.194
13061TIP3    H139140   5.785   3.103   6.105
13061TIP3    H239141   5.791   2.988   6.203
13062TIP3   OH239142   4.075   1.196   3.021
13062TIP3    H139143   4.095   1.104   3.041
13062TIP3    H239144   3.980   1.202   3.031
13063TIP3   OH239145   7.460   0.012   2.266
13063TIP3    H139146   7.418   0.048   2.344
13063TIP3    H239147   7.505  -0.066   2.296
13064TIP3   OH239148   0.328   1.462   1.287
13064TIP3    H139149   0.373   1.432   1.208
13064TIP3    H239150   0.303   1.381   1.332
13065TIP3   OH239151   7.288   6.566   0.572
13065TIP3    H139152   7.273   6.607   0.657
13065TIP3    H239153   7.226   6.494   0.568
13066TIP3   OH239154   3.198   5.178   5.824
13066TIP3    H139155   3.292   5.169   5.842
13066TIP3    H239156   3.157   5.107   5.874
13067TIP3   OH239157   3.393   5.349   5.256
13067TIP3    H139158   3.359   5.298   5.330
13067TIP3    H239159   3.428   5.283   5.196
13068TIP3   OH239160   5.705   5.863   0.267
13068TIP3    H139161   5.776   5.854   0.203
13068TIP3    H239162   5.663   5.946   0.244
13069TIP3   OH239163   0.714   2.895   2.483
13069TIP3    H139164   0.664   2.815   2.464
13069TIP3    H239165   0.655   2.948   2.538
13070TIP3   OH239166   7.048   7.318   0.090
13070TIP3    H139167   6.998   7.325   0.171
13070TIP3    H239168   7.106   7.243   0.103
13071TIP3   OH239169   4.870   1.530   3.791
13071TIP3    H139170   4.931   1.502   3.859
13071TIP3    H239171   4.807   1.586   3.836
13072TIP3   OH239172   0.030   1.226   3.695
13072TIP3    H139173   0.101   1.249   3.755
13072TIP3    H239174  -0.023   1.306   3.689
13073TIP3   OH239175   1.333   0.786   4.650
13073TIP3    H139176   1.388   0.798   4.572
13073TIP3    H239177   1.259   0.734   4.620
13074TIP3   OH239178   7.000   3.677   5.667
13074TIP3    H139179   7.052   3.677   5.748
13074TIP3    H239180   6.911   3.658   5.696
13075TIP3   OH239181   1.050   5.718   2.339
13075TIP3    H139182   1.037   5.657   2.412
13075TIP3    H239183   1.045   5.805   2.379
13076TIP3   OH239184   6.855   5.989   3.142
13076TIP3    H139185   6.797   5.918   3.168
13076TIP3    H239186   6.797   6.056   3.106
13077TIP3   OH239187   5.773   4.419   6.245
13077TIP3    H139188   5.735   4.385   6.326
13077TIP3    H239189   5.772   4.344   6.185
13078TIP3   OH239190   3.888   2.358   5.415
13078TIP3    H139191   3.839   2.437   5.437
13078TIP3    H239192   3.868   2.297   5.486
13079TIP3   OH239193   5.044   7.629   6.585
13079TIP3    H139194   5.070   7.635   6.493
13079TIP3    H239195   5.049   7.718   6.618
13080TIP3   OH239196   2.059   0.761   5.688
13080TIP3    H139197   2.055   0.807   5.604
13080TIP3    H239198   2.057   0.668   5.665
13081TIP3   OH239199   5.932   0.654   2.601
13081TIP3    H139200   5.888   0.652   2.686
13081TIP3    H239201   5.964   0.565   2.588
13082TIP3   OH239202   8.026   4.851   4.239
13082TIP3    H139203   7.985   4.878   4.322
13082TIP3    H239204   7.974   4.775   4.211
13083TIP3   OH239205   7.670   7.556   1.274
13083TIP3    H139206   7.750   7.604   1.296
13083TIP3    H239207   7.690   7.512   1.192
13084TIP3   OH239208   3.608   0.029   4.452
13084TIP3    H139209   3.665  -0.020   4.393
13084TIP3    H239210   3.599   0.115   4.410
13085TIP3   OH239211   6.179   2.858   6.192
13085TIP3    H139212   6.237   2.889   6.123
13085TIP3    H239213   6.237   2.814   6.254
13086TIP3   OH239214   0.713   7.534   2.011
13086TIP3    H139215   0.758   7.530   2.095
13086TIP3    H239216   0.641   7.596   2.026
13087TIP3   OH239217   6.380   6.509   3.437
13087TIP3    H139218   6.386   6.522   3.342
13087TIP3    H239219   6.431   6.429   3.453
13088TIP3   OH239220   5.451   4.085   2.498
13088TIP3    H139221   5.466   4.083   2.592
13088TIP3    H239222   5.533   4.052   2.460
13089TIP3   OH239223   6.612   5.131   6.239
13089TIP3    H139224   6.683   5.190   6.213
13089TIP3    H239225   6.579   5.096   6.157
13090TIP3   OH239226   8.090   6.745   5.652
13090TIP3    H139227   8.023   6.760   5.585
13090TIP3    H239228   8.045   6.697   5.721
13091TIP3   OH239229   2.363   4.447   6.108
13091TIP3    H139230   2.457   4.464   6.093
13091TIP3    H239231   2.350   4.461   6.201
13092TIP3   OH239232   5.643   2.724   1.004
13092TIP3    H139233   5.689   2.663   1.062
13092TIP3    H239234   5.646   2.683   0.918
13093TIP3   OH239235   4.278   0.712   4.248
13093TIP3    H139236   4.237   0.724   4.333
13093TIP3    H239237   4.333   0.789   4.237
13094TIP3   OH239238   2.488   6.711   5.841
13094TIP3    H139239   2.554   6.645   5.817
13094TIP3    H239240   2.535   6.794   5.837
13095TIP3   OH239241   4.375   2.665   5.364
13095TIP3    H139242   4.441   2.603   5.333
13095TIP3    H239243   4.294   2.615   5.368
13096TIP3   OH239244   7.636   5.148   6.598
13096TIP3    H139245   7.587   5.144   6.517
13096TIP3    H239246   7.586   5.093   6.659
13097TIP3   OH239247   7.633   6.826   5.137
13097TIP3    H139248   7.667   6.821   5.047
13097TIP3    H239249   7.682   6.898   5.176
13098TIP3   OH239250   4.137   4.178   2.272
13098TIP3    H139251   4.058   4.123   2.272
13098TIP3    H239252   4.209   4.116   2.273
13099TIP3   OH239253   6.661   3.843   5.469
13099TIP3    H139254   6.724   3.914   5.460
13099TIP3    H239255   6.664   3.820   5.562
13100TIP3   OH239256   2.329   7.099   6.511
13100TIP3    H139257   2.395   7.129   6.449
13100TIP3    H239258   2.313   7.174   6.568
13101TIP3   OH239259   2.318   6.194   4.710
13101TIP3    H139260   2.321   6.122   4.647
13101TIP3    H239261   2.348   6.156   4.792
13102TIP3   OH239262   0.073   0.137   3.157
13102TIP3    H139263   0.086   0.092   3.073
13102TIP3    H239264   0.109   0.224   3.143
13103TIP3   OH239265   4.012   1.762   5.859
13103TIP3    H139266   4.038   1.834   5.916
13103TIP3    H239267   4.092   1.709   5.851
13104TIP3   OH239268   4.895   6.094   0.317
13104TIP3    H139269   4.922   6.146   0.393
13104TIP3    H239270   4.975   6.049   0.289
13105TIP3   OH239271   3.422   0.451   3.984
13105TIP3    H139272   3.426   0.370   4.035
13105TIP3    H239273   3.448   0.520   4.046
13106TIP3   OH239274   1.445   7.390   4.588
13106TIP3    H139275   1.479   7.341   4.513
13106TIP3    H239276   1.523   7.425   4.631
13107TIP3   OH239277   6.746   7.423   1.615
13107TIP3    H139278   6.756   7.442   1.522
13107TIP3    H239279   6.831   7.387   1.641
13108TIP3   OH239280   7.138   7.503   0.631
13108TIP3    H139281   7.060   7.468   0.674
13108TIP3    H239282   7.104   7.555   0.558
13109TIP3   OH239283   0.661   4.694   2.084
13109TIP3    H139284   0.755   4.707   2.082
13109TIP3    H239285   0.625   4.780   2.107
13110TIP3   OH239286   3.449   4.690   2.853
13110TIP3    H139287   3.524   4.635   2.831
13110TIP3    H239288   3.388   4.630   2.896
13111TIP3   OH239289   7.437   0.277   6.003
13111TIP3    H139290   7.431   0.192   5.959
13111TIP3    H239291   7.509   0.267   6.065
13112TIP3   OH239292   1.026   5.785   0.249
13112TIP3    H139293   1.026   5.703   0.298
13112TIP3    H239294   1.050   5.851   0.314
13113TIP3   OH239295   8.163   5.076   6.420
13113TIP3    H139296   8.220   5.036   6.486
13113TIP3    H239297   8.077   5.077   6.461
13114TIP3   OH239298   4.776   0.540   2.800
13114TIP3    H139299   4.703   0.600   2.818
13114TIP3    H239300   4.823   0.535   2.883
13115TIP3   OH239301   0.227   7.621   0.718
13115TIP3    H139302   0.166   7.632   0.644
13115TIP3    H239303   0.242   7.710   0.750
13116TIP3   OH239304   7.982   4.503   0.345
13116TIP3    H139305   7.993   4.408   0.340
13116TIP3    H239306   7.912   4.515   0.409
13117TIP3   OH239307   5.833   1.716   1.672
13117TIP3    H139308   5.754   1.754   1.634
13117TIP3    H239309   5.836   1.752   1.761
13118TIP3   OH239310   4.701   7.011   3.457
13118TIP3    H139311   4.797   7.001   3.455
13118TIP3    H239312   4.684   7.082   3.395
13119TIP3   OH239313   2.054   3.213   1.781
13119TIP3    H139314   2.000   3.137   1.763
13119TIP3    H239315   2.005   3.263   1.846
13120TIP3   OH239316   1.899   7.248   1.419
13120TIP3    H139317   1.873   7.268   1.330
13120TIP3    H239318   1.827   7.281   1.473
13121TIP3   OH239319   5.323   1.982   1.994
13121TIP3    H139320   5.267   1.974   1.916
13121TIP3    H239321   5.384   2.052   1.972
13122TIP3   OH239322   8.262   2.094   2.159
13122TIP3    H139323   8.192   2.079   2.223
13122TIP3    H239324   8.338   2.049   2.195
13123TIP3   OH239325   6.384   7.744   1.504
13123TIP3    H139326   6.419   7.662   1.469
13123TIP3    H239327   6.454   7.808   1.491
13124TIP3   OH239328   4.808   0.322   5.006
13124TIP3    H139329   4.773   0.252   4.951
13124TIP3    H239330   4.764   0.311   5.090
13125TIP3   OH239331   6.287   3.139   3.397
13125TIP3    H139332   6.340   3.157   3.320
13125TIP3    H239333   6.216   3.204   3.393
13126TIP3   OH239334   0.692   4.652   2.977
13126TIP3    H139335   0.628   4.688   3.039
13126TIP3    H239336   0.732   4.729   2.936
13127TIP3   OH239337   5.464   4.293   4.183
13127TIP3    H139338   5.556   4.287   4.158
13127TIP3    H239339   5.439   4.203   4.206
13128TIP3   OH239340   0.768   3.888   3.182
13128TIP3    H139341   0.792   3.942   3.106
13128TIP3    H239342   0.742   3.952   3.249
13129TIP3   OH239343   6.084   7.723   0.875
13129TIP3    H139344   6.131   7.686   0.950
13129TIP3    H239345   6.016   7.658   0.856
13130TIP3   OH239346   7.766   1.886   5.258
13130TIP3    H139347   7.694   1.832   5.290
13130TIP3    H239348   7.760   1.967   5.310
13131TIP3   OH239349   3.946   3.806   6.490
13131TIP3    H139350   4.008   3.800   6.562
13131TIP3    H239351   3.985   3.869   6.429
13132TIP3   OH239352   3.080   6.773   3.635
13132TIP3    H139353   3.015   6.838   3.610
13132TIP3    H239354   3.163   6.808   3.603
13133TIP3   OH239355   7.410   1.692   1.292
13133TIP3    H139356   7.356   1.727   1.363
13133TIP3    H239357   7.497   1.683   1.330
13134TIP3   OH239358   6.387   7.173   6.479
13134TIP3    H139359   6.321   7.131   6.424
13134TIP3    H239360   6.385   7.265   6.452
13135TIP3   OH239361   3.832   3.988   2.807
13135TIP3    H139362   3.913   3.939   2.795
13135TIP3    H239363   3.823   3.997   2.902
13136TIP3   OH239364   7.395   4.679   5.245
13136TIP3    H139365   7.430   4.748   5.189
13136TIP3    H239366   7.302   4.699   5.253
13137TIP3   OH239367   6.962   4.138   0.579
13137TIP3    H139368   6.949   4.077   0.506
13137TIP3    H239369   6.947   4.086   0.657
13138TIP3   OH239370   5.853   1.133   1.588
13138TIP3    H139371   5.935   1.178   1.608
13138TIP3    H239372   5.785   1.192   1.620
13139TIP3   OH239373   1.272   0.415   2.104
13139TIP3    H139374   1.348   0.417   2.163
13139TIP3    H239375   1.293   0.480   2.037
13140TIP3   OH239376   0.170   3.956   2.432
13140TIP3    H139377   0.178   4.000   2.347
13140TIP3    H239378   0.223   4.009   2.491
13141TIP3   OH239379   5.453   7.771   4.769
13141TIP3    H139380   5.392   7.699   4.754
13141TIP3    H239381   5.481   7.797   4.681
13142TIP3   OH239382   5.046   5.069   1.146
13142TIP3    H139383   4.993   5.073   1.226
13142TIP3    H239384   5.064   4.976   1.135
13143TIP3   OH239385   2.546   3.434   0.690
13143TIP3    H139386   2.547   3.440   0.594
13143TIP3    H239387   2.583   3.517   0.719
13144TIP3   OH239388   5.953   2.091   1.605
13144TIP3    H139389   5.954   2.186   1.619
13144TIP3    H239390   5.938   2.081   1.511
13145TIP3   OH239391   4.694   2.071   1.832
13145TIP3    H139392   4.599   2.063   1.821
13145TIP3    H239393   4.710   2.166   1.832
13146TIP3   OH239394   2.433   1.553   6.390
13146TIP3    H139395   2.450   1.579   6.299
13146TIP3    H239396   2.483   1.615   6.443
13147TIP3   OH239397   6.781   3.648   0.869
13147TIP3    H139398   6.698   3.645   0.916
13147TIP3    H239399   6.818   3.560   0.880
13148TIP3   OH239400   6.427   6.319   2.546
13148TIP3    H139401   6.363   6.261   2.588
13148TIP3    H239402   6.451   6.381   2.614
13149TIP3   OH239403   5.101   6.297   5.057
13149TIP3    H139404   5.018   6.319   5.015
13149TIP3    H239405   5.079   6.227   5.119
13150TIP3   OH239406   7.054   7.417   5.222
13150TIP3    H139407   7.139   7.375   5.236
13150TIP3    H239408   7.048   7.428   5.127
13151TIP3   OH239409   2.902   3.352   2.570
13151TIP3    H139410   2.808   3.333   2.578
13151TIP3    H239411   2.943   3.267   2.553
13152TIP3   OH239412   2.594   7.374   5.369
13152TIP3    H139413   2.543   7.351   5.292
13152TIP3    H239414   2.529   7.403   5.433
13153TIP3   OH239415   3.115   0.074   3.616
13153TIP3    H139416   3.129  -0.019   3.635
13153TIP3    H239417   3.161   0.119   3.686
13154TIP3   OH239418   7.308   4.194   0.979
13154TIP3    H139419   7.255   4.267   1.012
13154TIP3    H239420   7.272   4.174   0.893
13155TIP3   OH239421   1.885   3.667   5.432
13155TIP3    H139422   1.904   3.755   5.401
13155TIP3    H239423   1.917   3.665   5.522
13156TIP3   OH239424   0.900   4.409   3.807
13156TIP3    H139425   0.957   4.332   3.798
13156TIP3    H239426   0.918   4.442   3.895
13157TIP3   OH239427   5.791   0.341   5.904
13157TIP3    H139428   5.700   0.318   5.925
13157TIP3    H239429   5.812   0.412   5.964
13158TIP3   OH239430   4.329   0.748   6.341
13158TIP3    H139431   4.393   0.726   6.273
13158TIP3    H239432   4.344   0.841   6.359
13159TIP3   OH239433   1.637   6.541   3.570
13159TIP3    H139434   1.612   6.517   3.481
13159TIP3    H239435   1.718   6.493   3.586
13160TIP3   OH239436   1.598   2.192   5.364
13160TIP3    H139437   1.594   2.235   5.450
13160TIP3    H239438   1.516   2.143   5.359
13161TIP3   OH239439   7.341   2.738   4.199
13161TIP3    H139440   7.371   2.741   4.290
13161TIP3    H239441   7.373   2.655   4.166
13162TIP3   OH239442   7.767   5.906   2.367
13162TIP3    H139443   7.774   5.825   2.416
13162TIP3    H239444   7.838   5.961   2.400
13163TIP3   OH239445   0.780   6.391   0.334
13163TIP3    H139446   0.861   6.394   0.285
13163TIP3    H239447   0.713   6.373   0.268
13164TIP3   OH239448   1.434   6.746   1.602
13164TIP3    H139449   1.511   6.795   1.572
13164TIP3    H239450   1.359   6.797   1.572
13165TIP3   OH239451   2.780   2.142   5.386
13165TIP3    H139452   2.700   2.186   5.415
13165TIP3    H239453   2.839   2.213   5.361
13166TIP3   OH239454   4.028   4.942   5.971
13166TIP3    H139455   4.055   4.892   6.048
13166TIP3    H239456   4.051   4.887   5.896
13167TIP3   OH239457   2.977   7.231   1.986
13167TIP3    H139458   3.005   7.277   1.907
13167TIP3    H239459   2.921   7.295   2.031
13168TIP3   OH239460   7.587   4.502   6.706
13168TIP3    H139461   7.602   4.534   6.618
13168TIP3    H239462   7.583   4.407   6.696
13169TIP3   OH239463   6.145   3.751   5.002
13169TIP3    H139464   6.228   3.767   4.958
13169TIP3    H239465   6.086   3.723   4.932
13170TIP3   OH239466   6.184   0.582   1.232
13170TIP3    H139467   6.248   0.590   1.161
13170TIP3    H239468   6.209   0.649   1.295
13171TIP3   OH239469   1.020   7.023   1.080
13171TIP3    H139470   0.958   7.021   1.153
13171TIP3    H239471   0.971   7.060   1.007
13172TIP3   OH239472   2.785   3.887   0.198
13172TIP3    H139473   2.845   3.815   0.179
13172TIP3    H239474   2.792   3.945   0.122
13173TIP3   OH239475   1.614   6.715   1.224
13173TIP3    H139476   1.665   6.760   1.156
13173TIP3    H239477   1.594   6.784   1.288
13174TIP3   OH239478   1.581   1.472   4.764
13174TIP3    H139479   1.614   1.389   4.798
13174TIP3    H239480   1.589   1.463   4.669
13175TIP3   OH239481   2.486   6.584   1.459
13175TIP3    H139482   2.469   6.675   1.434
13175TIP3    H239483   2.551   6.589   1.529
13176TIP3   OH239484   6.192   0.880   1.425
13176TIP3    H139485   6.227   0.829   1.498
13176TIP3    H239486   6.252   0.861   1.352
13177TIP3   OH239487   3.440   5.822   5.786
13177TIP3    H139488   3.505   5.850   5.721
13177TIP3    H239489   3.419   5.732   5.762
13178TIP3   OH239490   2.618   4.945   0.212
13178TIP3    H139491   2.704   4.985   0.203
13178TIP3    H239492   2.636   4.851   0.210
13179TIP3   OH239493   2.247   7.010   2.045
13179TIP3    H139494   2.253   6.916   2.062
13179TIP3    H239495   2.336   7.037   2.024
13180TIP3   OH239496   3.523   4.641   6.382
13180TIP3    H139497   3.460   4.666   6.450
13180TIP3    H239498   3.496   4.552   6.357
13181TIP3   OH239499   1.467   3.511   0.509
13181TIP3    H139500   1.374   3.532   0.516
13181TIP3    H239501   1.495   3.549   0.426
13182TIP3   OH239502   7.926   5.992   4.930
13182TIP3    H139503   7.852   6.017   4.875
13182TIP3    H239504   7.951   5.905   4.899
13183TIP3   OH239505   0.436   3.681   5.502
13183TIP3    H139506   0.418   3.626   5.425
13183TIP3    H239507   0.505   3.634   5.548
13184TIP3   OH239508   2.593   3.161   2.353
13184TIP3    H139509   2.530   3.215   2.305
13184TIP3    H239510   2.542   3.086   2.384
13185TIP3   OH239511   0.822   1.661   0.523
13185TIP3    H139512   0.808   1.754   0.509
13185TIP3    H239513   0.812   1.622   0.436
13186TIP3   OH239514   5.300   5.453   4.483
13186TIP3    H139515   5.230   5.499   4.529
13186TIP3    H239516   5.348   5.522   4.437
13187TIP3   OH239517   7.614   7.721   5.378
13187TIP3    H139518   7.701   7.708   5.416
13187TIP3    H239519   7.631   7.754   5.290
13188TIP3   OH239520   4.005   6.140   1.335
13188TIP3    H139521   3.937   6.075   1.321
13188TIP3    H239522   4.085   6.089   1.348
13189TIP3   OH239523   6.446   3.803   5.168
13189TIP3    H139524   6.422   3.783   5.078
13189TIP3    H239525   6.486   3.890   5.164
13190TIP3   OH239526   0.156   5.410   6.611
13190TIP3    H139527   0.187   5.435   6.698
13190TIP3    H239528   0.218   5.343   6.581
13191TIP3   OH239529   0.900   2.653   0.249
13191TIP3    H139530   0.926   2.652   0.157
13191TIP3    H239531   0.806   2.637   0.247
13192TIP3   OH239532   6.312   5.932   1.197
13192TIP3    H139533   6.349   6.019   1.208
13192TIP3    H239534   6.260   5.917   1.276
13193TIP3   OH239535   2.766   4.511   1.841
13193TIP3    H139536   2.758   4.480   1.931
13193TIP3    H239537   2.768   4.430   1.788
13194TIP3   OH239538   7.681   1.963   6.537
13194TIP3    H139539   7.714   1.949   6.625
13194TIP3    H239540   7.603   1.907   6.532
13195TIP3   OH239541   6.198   2.223   0.312
13195TIP3    H139542   6.143   2.298   0.290
13195TIP3    H239543   6.136   2.156   0.341
13196TIP3   OH239544   3.561   0.611   5.255
13196TIP3    H139545   3.538   0.617   5.163
13196TIP3    H239546   3.507   0.677   5.298
13197TIP3   OH239547   8.112   3.501   2.815
13197TIP3    H139548   8.094   3.582   2.863
13197TIP3    H239549   8.198   3.515   2.776
13198TIP3   OH239550   5.179   2.075   4.759
13198TIP3    H139551   5.183   2.096   4.853
13198TIP3    H239552   5.124   2.144   4.722
13199TIP3   OH239553   8.127   3.396   4.218
13199TIP3    H139554   8.184   3.467   4.246
13199TIP3    H239555   8.101   3.419   4.128
13200TIP3   OH239556   3.097   6.673   1.936
13200TIP3    H139557   3.050   6.625   1.868
13200TIP3    H239558   3.175   6.706   1.891
13201TIP3   OH239559   3.053   4.068   3.873
13201TIP3    H139560   3.066   3.984   3.829
13201TIP3    H239561   2.961   4.090   3.856
13202TIP3   OH239562   3.345   3.180   5.713
13202TIP3    H139563   3.286   3.183   5.789
13202TIP3    H239564   3.422   3.134   5.745
13203TIP3   OH239565   1.055   6.115   6.373
13203TIP3    H139566   1.112   6.192   6.372
13203TIP3    H239567   0.972   6.147   6.408
13204TIP3   OH239568   7.465   7.610   0.722
13204TIP3    H139569   7.438   7.627   0.631
13204TIP3    H239570   7.553   7.572   0.713
13205TIP3   OH239571   2.756   1.602   2.949
13205TIP3    H139572   2.793   1.536   3.008
13205TIP3    H239573   2.703   1.658   3.006
13206TIP3   OH239574   7.967   5.260   1.796
13206TIP3    H139575   7.950   5.285   1.887
13206TIP3    H239576   7.886   5.282   1.749
13207TIP3   OH239577   3.938   2.596   1.064
13207TIP3    H139578   3.979   2.678   1.035
13207TIP3    H239579   4.003   2.529   1.046
13208TIP3   OH239580   0.875   2.496   6.140
13208TIP3    H139581   0.857   2.579   6.096
13208TIP3    H239582   0.804   2.438   6.112
13209TIP3   OH239583   1.410   5.687   3.750
13209TIP3    H139584   1.323   5.677   3.712
13209TIP3    H239585   1.437   5.776   3.725
13210TIP3   OH239586   4.020   2.847   1.520
13210TIP3    H139587   4.042   2.779   1.457
13210TIP3    H239588   4.097   2.903   1.523
13211TIP3   OH239589   7.473   1.251   5.857
13211TIP3    H139590   7.446   1.317   5.793
13211TIP3    H239591   7.543   1.293   5.907
13212TIP3   OH239592   7.419   2.962   5.147
13212TIP3    H139593   7.324   2.967   5.134
13212TIP3    H239594   7.442   2.873   5.120
13213TIP3   OH239595   0.516   5.968   4.097
13213TIP3    H139596   0.476   5.893   4.141
13213TIP3    H239597   0.470   5.974   4.013
13214TIP3   OH239598   6.870   2.178   3.067
13214TIP3    H139599   6.776   2.187   3.081
13214TIP3    H239600   6.904   2.140   3.148
13215TIP3   OH239601   2.363   5.901   6.383
13215TIP3    H139602   2.441   5.954   6.401
13215TIP3    H239603   2.335   5.868   6.468
13216TIP3   OH239604   6.160   1.079   4.118
13216TIP3    H139605   6.096   1.143   4.088
13216TIP3    H239606   6.151   1.079   4.213
13217TIP3   OH239607   3.464   4.421   3.176
13217TIP3    H139608   3.557   4.414   3.196
13217TIP3    H239609   3.431   4.332   3.188
13218TIP3   OH239610   5.365   0.486   5.444
13218TIP3    H139611   5.286   0.507   5.494
13218TIP3    H239612   5.423   0.561   5.459
13219TIP3   OH239613   7.994   0.485   2.264
13219TIP3    H139614   7.910   0.527   2.249
13219TIP3    H239615   8.030   0.527   2.342
13220TIP3   OH239616   0.955   4.708   0.383
13220TIP3    H139617   1.006   4.668   0.313
13220TIP3    H239618   0.907   4.636   0.422
13221TIP3   OH239619   1.419   0.677   2.210
13221TIP3    H139620   1.342   0.734   2.201
13221TIP3    H239621   1.446   0.659   2.120
13222TIP3   OH239622   2.492   4.395   5.444
13222TIP3    H139623   2.446   4.464   5.493
13222TIP3    H239624   2.453   4.398   5.357
13223TIP3   OH239625   3.197   1.948   0.551
13223TIP3    H139626   3.140   1.919   0.479
13223TIP3    H239627   3.245   1.869   0.576
13224TIP3   OH239628   2.987   0.373   0.385
13224TIP3    H139629   2.994   0.354   0.479
13224TIP3    H239630   2.983   0.468   0.380
13225TIP3   OH239631   7.645   1.894   2.817
13225TIP3    H139632   7.700   1.844   2.878
13225TIP3    H239633   7.675   1.985   2.827
13226TIP3   OH239634   0.594   3.774   6.469
13226TIP3    H139635   0.513   3.817   6.441
13226TIP3    H239636   0.639   3.755   6.387
13227TIP3   OH239637   7.594   4.736   1.058
13227TIP3    H139638   7.665   4.780   1.011
13227TIP3    H239639   7.637   4.673   1.115
13228TIP3   OH239640   7.726   2.583   3.496
13228TIP3    H139641   7.633   2.562   3.509
13228TIP3    H239642   7.756   2.521   3.430
13229TIP3   OH239643   3.246   5.435   4.996
13229TIP3    H139644   3.152   5.420   4.988
13229TIP3    H239645   3.258   5.457   5.089
13230TIP3   OH239646   1.591   5.474   2.298
13230TIP3    H139647   1.524   5.492   2.233
13230TIP3    H239648   1.601   5.379   2.296
13231TIP3   OH239649   7.889   2.361   2.364
13231TIP3    H139650   7.956   2.388   2.301
13231TIP3    H239651   7.826   2.310   2.313
13232TIP3   OH239652  -0.042   4.237   3.451
13232TIP3    H139653  -0.122   4.222   3.401
13232TIP3    H239654   0.025   4.257   3.385
13233TIP3   OH239655   4.627   3.869   6.117
13233TIP3    H139656   4.581   3.947   6.085
13233TIP3    H239657   4.658   3.894   6.204
13234TIP3   OH239658   0.250   0.233   4.814
13234TIP3    H139659   0.292   0.250   4.729
13234TIP3    H239660   0.215   0.318   4.841
13235TIP3   OH239661   3.920   2.107   6.432
13235TIP3    H139662   3.873   2.178   6.475
13235TIP3    H239663   3.853   2.040   6.414
13236TIP3   OH239664   3.013   4.594   3.156
13236TIP3    H139665   3.064   4.546   3.222
13236TIP3    H239666   2.941   4.536   3.133
13237TIP3   OH239667   7.103   1.287   0.913
13237TIP3    H139668   7.163   1.324   0.848
13237TIP3    H239669   7.098   1.194   0.890
13238TIP3   OH239670   3.238   1.648   5.047
13238TIP3    H139671   3.184   1.707   5.099
13238TIP3    H239672   3.178   1.581   5.016
13239TIP3   OH239673   1.497   2.096   4.219
13239TIP3    H139674   1.585   2.096   4.258
13239TIP3    H239675   1.445   2.041   4.277
13240TIP3   OH239676   5.352   7.433   5.332
13240TIP3    H139677   5.300   7.512   5.345
13240TIP3    H239678   5.383   7.439   5.242
13241TIP3   OH239679   6.505   5.776   6.246
13241TIP3    H139680   6.543   5.763   6.159
13241TIP3    H239681   6.577   5.758   6.307
13242TIP3   OH239682   4.780   5.364   4.839
13242TIP3    H139683   4.741   5.295   4.892
13242TIP3    H239684   4.763   5.336   4.748
13243TIP3   OH239685   3.006   4.904   4.212
13243TIP3    H139686   2.962   4.987   4.194
13243TIP3    H239687   3.045   4.879   4.128
13244TIP3   OH239688   2.876   2.860   6.021
13244TIP3    H139689   2.890   2.842   6.113
13244TIP3    H239690   2.810   2.930   6.020
13245TIP3   OH239691   0.097   2.706   5.562
13245TIP3    H139692   0.010   2.670   5.541
13245TIP3    H239693   0.147   2.694   5.481
13246TIP3   OH239694   5.191   7.245   3.108
13246TIP3    H139695   5.258   7.300   3.149
13246TIP3    H239696   5.115   7.253   3.166
13247TIP3   OH239697  -0.016   1.332   1.234
13247TIP3    H139698  -0.062   1.340   1.150
13247TIP3    H239699   0.000   1.423   1.260
13248TIP3   OH239700   6.679   6.561   2.240
13248TIP3    H139701   6.677   6.468   2.219
13248TIP3    H239702   6.772   6.585   2.235
13249TIP3   OH239703   1.571   1.510   0.775
13249TIP3    H139704   1.572   1.414   0.767
13249TIP3    H239705   1.480   1.534   0.762
13250TIP3   OH239706   5.522   5.664   0.342
13250TIP3    H139707   5.580   5.733   0.310
13250TIP3    H239708   5.437   5.684   0.304
13251TIP3   OH239709   4.985   4.296   3.436
13251TIP3    H139710   4.993   4.254   3.351
13251TIP3    H239711   5.058   4.262   3.487
13252TIP3   OH239712   6.912   1.058   2.413
13252TIP3    H139713   6.955   0.975   2.393
13252TIP3    H239714   6.831   1.056   2.361
13253TIP3   OH239715   5.544   7.697   5.629
13253TIP3    H139716   5.481   7.638   5.588
13253TIP3    H239717   5.629   7.657   5.614
13254TIP3   OH239718   2.782   2.242   1.482
13254TIP3    H139719   2.821   2.208   1.563
13254TIP3    H239720   2.730   2.169   1.448
13255TIP3   OH239721   7.149   0.291   1.895
13255TIP3    H139722   7.228   0.247   1.926
13255TIP3    H239723   7.142   0.370   1.949
13256TIP3   OH239724   4.541   1.285   4.405
13256TIP3    H139725   4.616   1.295   4.347
13256TIP3    H239726   4.578   1.253   4.487
13257TIP3   OH239727   0.766   6.353   3.791
13257TIP3    H139728   0.839   6.291   3.784
13257TIP3    H239729   0.692   6.300   3.822
13258TIP3   OH239730   2.361   5.899   2.109
13258TIP3    H139731   2.412   5.898   2.029
13258TIP3    H239732   2.270   5.899   2.079
13259TIP3   OH239733   4.494   4.261   4.179
13259TIP3    H139734   4.525   4.178   4.143
13259TIP3    H239735   4.508   4.324   4.108
13260TIP3   OH239736   3.485   1.968   6.148
13260TIP3    H139737   3.421   2.003   6.085
13260TIP3    H239738   3.486   2.033   6.219
13261TIP3   OH239739   5.001   7.424   4.293
13261TIP3    H139740   4.933   7.492   4.295
13261TIP3    H239741   5.080   7.468   4.325
13262TIP3   OH239742   1.738   5.357   4.303
13262TIP3    H139743   1.697   5.319   4.381
13262TIP3    H239744   1.688   5.436   4.286
13263TIP3   OH239745   4.706   0.981   4.120
13263TIP3    H139746   4.632   0.945   4.072
13263TIP3    H239747   4.693   1.076   4.117
13264TIP3   OH239748   1.432   3.788   0.977
13264TIP3    H139749   1.417   3.693   0.982
13264TIP3    H239750   1.526   3.797   0.960
13265TIP3   OH239751   0.170   4.627   1.526
13265TIP3    H139752   0.084   4.663   1.505
13265TIP3    H239753   0.157   4.533   1.531
13266TIP3   OH239754   4.149   7.052   2.387
13266TIP3    H139755   4.233   7.097   2.384
13266TIP3    H239756   4.166   6.971   2.435
13267TIP3   OH239757   7.796   2.327   6.098
13267TIP3    H139758   7.844   2.246   6.114
13267TIP3    H239759   7.828   2.358   6.014
13268TIP3   OH239760   3.033   5.453   5.806
13268TIP3    H139761   2.965   5.400   5.848
13268TIP3    H239762   3.108   5.394   5.798
13269TIP3   OH239763   5.923   0.257   2.758
13269TIP3    H139764   6.005   0.295   2.728
13269TIP3    H239765   5.931   0.164   2.737
13270TIP3   OH239766   5.130   2.084   5.558
13270TIP3    H139767   5.071   2.159   5.561
13270TIP3    H239768   5.104   2.029   5.632
13271TIP3   OH239769   4.289   3.734   3.290
13271TIP3    H139770   4.226   3.664   3.309
13271TIP3    H239771   4.243   3.791   3.228
13272TIP3   OH239772   8.029   0.661   1.736
13272TIP3    H139773   8.049   0.719   1.663
13272TIP3    H239774   8.110   0.656   1.786
13273TIP3   OH239775   5.906   5.479   1.555
13273TIP3    H139776   5.877   5.517   1.638
13273TIP3    H239777   5.829   5.483   1.498
13274TIP3   OH239778   4.083   3.553   2.295
13274TIP3    H139779   4.038   3.584   2.216
13274TIP3    H239780   4.170   3.526   2.264
13275TIP3   OH239781   3.315   5.898   3.628
13275TIP3    H139782   3.352   5.815   3.600
13275TIP3    H239783   3.318   5.895   3.724
13276TIP3   OH239784   1.409   1.808   4.215
13276TIP3    H139785   1.503   1.798   4.233
13276TIP3    H239786   1.371   1.724   4.239
13277TIP3   OH239787   6.731   3.522   1.269
13277TIP3    H139788   6.723   3.582   1.343
13277TIP3    H239789   6.732   3.579   1.192
13278TIP3   OH239790   0.087   1.146   4.146
13278TIP3    H139791   0.097   1.220   4.086
13278TIP3    H239792   0.107   1.069   4.093
13279TIP3   OH239793   2.153   2.257   1.957
13279TIP3    H139794   2.186   2.221   2.040
13279TIP3    H239795   2.143   2.350   1.974
13280TIP3   OH239796   2.054   5.415   2.514
13280TIP3    H139797   2.142   5.442   2.489
13280TIP3    H239798   1.996   5.470   2.461
13281TIP3   OH239799   6.029   2.944   5.587
13281TIP3    H139800   6.094   3.012   5.571
13281TIP3    H239801   6.025   2.936   5.682
13282TIP3   OH239802   3.400   3.488   1.560
13282TIP3    H139803   3.435   3.490   1.649
13282TIP3    H239804   3.477   3.471   1.504
13283TIP3   OH239805   5.952   2.826   6.692
13283TIP3    H139806   5.895   2.881   6.637
13283TIP3    H239807   5.950   2.740   6.650
13284TIP3   OH239808   1.732   5.291   1.774
13284TIP3    H139809   1.673   5.348   1.824
13284TIP3    H239810   1.797   5.350   1.737
13285TIP3   OH239811   2.524   0.281   4.281
13285TIP3    H139812   2.536   0.263   4.188
13285TIP3    H239813   2.587   0.351   4.300
13286TIP3   OH239814   5.419   7.088   0.874
13286TIP3    H139815   5.473   7.060   0.800
13286TIP3    H239816   5.460   7.048   0.951
13287TIP3   OH239817   3.611   3.189   4.292
13287TIP3    H139818   3.593   3.266   4.345
13287TIP3    H239819   3.703   3.170   4.306
13288TIP3   OH239820   5.224   7.550   4.409
13288TIP3    H139821   5.215   7.644   4.424
13288TIP3    H239822   5.251   7.515   4.494
13289TIP3   OH239823   6.497   6.274   1.735
13289TIP3    H139824   6.470   6.352   1.685
13289TIP3    H239825   6.434   6.269   1.807
13290TIP3   OH239826   4.535   4.852   6.118
13290TIP3    H139827   4.508   4.863   6.027
13290TIP3    H239828   4.502   4.929   6.163
13291TIP3   OH239829   7.100   3.677   3.424
13291TIP3    H139830   7.178   3.624   3.406
13291TIP3    H239831   7.118   3.718   3.509
13292TIP3   OH239832   7.165   1.415   1.806
13292TIP3    H139833   7.090   1.451   1.758
13292TIP3    H239834   7.219   1.374   1.738
13293TIP3   OH239835   6.999   5.025   2.421
13293TIP3    H139836   7.033   4.936   2.433
13293TIP3    H239837   6.904   5.013   2.414
13294TIP3   OH239838   5.705   5.083   4.371
13294TIP3    H139839   5.722   5.053   4.282
13294TIP3    H239840   5.628   5.033   4.399
13295TIP3   OH239841   4.659   3.311   4.584
13295TIP3    H139842   4.708   3.285   4.662
13295TIP3    H239843   4.691   3.399   4.564
13296TIP3   OH239844   3.171   1.610   3.832
13296TIP3    H139845   3.264   1.631   3.847
13296TIP3    H239846   3.127   1.695   3.831
13297TIP3   OH239847   5.780   4.411   6.588
13297TIP3    H139848   5.866   4.400   6.629
13297TIP3    H239849   5.727   4.342   6.625
13298TIP3   OH239850   3.162   5.647   5.253
13298TIP3    H139851   3.114   5.681   5.329
13298TIP3    H239852   3.107   5.669   5.178
13299TIP3   OH239853   1.765   6.905   5.255
13299TIP3    H139854   1.752   6.953   5.337
13299TIP3    H239855   1.848   6.860   5.267
13300TIP3   OH239856   5.190   7.596   2.345
13300TIP3    H139857   5.122   7.602   2.412
13300TIP3    H239858   5.272   7.595   2.394
13301TIP3   OH239859   5.464   1.377   4.112
13301TIP3    H139860   5.517   1.332   4.046
13301TIP3    H239861   5.488   1.469   4.104
13302TIP3   OH239862   7.151   7.323   4.151
13302TIP3    H139863   7.101   7.252   4.190
13302TIP3    H239864   7.156   7.390   4.219
13303TIP3   OH239865   4.889   0.821   5.534
13303TIP3    H139866   4.830   0.890   5.504
13303TIP3    H239867   4.934   0.792   5.455
13304TIP3   OH239868   0.840   0.256   5.002
13304TIP3    H139869   0.774   0.325   5.006
13304TIP3    H239870   0.815   0.203   4.927
13305TIP3   OH239871   0.195   0.653   5.928
13305TIP3    H139872   0.112   0.671   5.973
13305TIP3    H239873   0.236   0.739   5.919
13306TIP3   OH239874   3.538   2.200   2.595
13306TIP3    H139875   3.451   2.181   2.560
13306TIP3    H239876   3.569   2.117   2.629
13307TIP3   OH239877   6.236   1.484   5.763
13307TIP3    H139878   6.274   1.441   5.687
13307TIP3    H239879   6.305   1.542   5.795
13308TIP3   OH239880   5.587   1.806   0.999
13308TIP3    H139881   5.593   1.864   0.923
13308TIP3    H239882   5.678   1.789   1.023
13309TIP3   OH239883   1.158   7.389   3.698
13309TIP3    H139884   1.104   7.395   3.619
13309TIP3    H239885   1.097   7.405   3.770
13310TIP3   OH239886   0.063   0.166   2.319
13310TIP3    H139887   0.055   0.115   2.399
13310TIP3    H239888   0.123   0.237   2.341
13311TIP3   OH239889   4.476   0.203   2.584
13311TIP3    H139890   4.534   0.279   2.587
13311TIP3    H239891   4.413   0.223   2.515
13312TIP3   OH239892   0.792   0.800   4.660
13312TIP3    H139893   0.824   0.709   4.662
13312TIP3    H239894   0.745   0.807   4.577
13313TIP3   OH239895   2.934   3.181   0.258
13313TIP3    H139896   2.994   3.118   0.217
13313TIP3    H239897   2.899   3.135   0.333
13314TIP3   OH239898   1.870   7.506   5.578
13314TIP3    H139899   1.820   7.562   5.519
13314TIP3    H239900   1.860   7.418   5.540
13315TIP3   OH239901   7.703   5.041   3.773
13315TIP3    H139902   7.745   5.057   3.857
13315TIP3    H239903   7.715   5.123   3.724
13316TIP3   OH239904   5.757   5.821   0.549
13316TIP3    H139905   5.705   5.829   0.469
13316TIP3    H239906   5.808   5.740   0.536
13317TIP3   OH239907   0.074   3.985   4.933
13317TIP3    H139908   0.012   3.981   4.860
13317TIP3    H239909   0.099   4.077   4.939
13318TIP3   OH239910   3.359   6.168   5.159
13318TIP3    H139911   3.319   6.135   5.079
13318TIP3    H239912   3.446   6.128   5.161
13319TIP3   OH239913   1.456   0.346   6.536
13319TIP3    H139914   1.498   0.420   6.580
13319TIP3    H239915   1.367   0.376   6.520
13320TIP3   OH239916   2.116   1.124   0.345
13320TIP3    H139917   2.148   1.179   0.418
13320TIP3    H239918   2.043   1.174   0.308
13321TIP3   OH239919   4.834   5.663   0.695
13321TIP3    H139920   4.831   5.752   0.729
13321TIP3    H239921   4.893   5.616   0.754
13322TIP3   OH239922   0.912   0.934   5.848
13322TIP3    H139923   0.938   0.907   5.760
13322TIP3    H239924   0.821   0.963   5.839
13323TIP3   OH239925   0.147   1.426   1.731
13323TIP3    H139926   0.215   1.410   1.664
13323TIP3    H239927   0.196   1.454   1.808
13324TIP3   OH239928   1.049   3.947   1.103
13324TIP3    H139929   1.072   4.001   1.179
13324TIP3    H239930   1.110   3.974   1.035
13325TIP3   OH239931   0.391   5.679   5.466
13325TIP3    H139932   0.382   5.603   5.408
13325TIP3    H239933   0.431   5.644   5.545
13326TIP3   OH239934   3.674   0.566   2.327
13326TIP3    H139935   3.590   0.544   2.367
13326TIP3    H239936   3.668   0.531   2.238
13327TIP3   OH239937   3.278   4.306   3.888
13327TIP3    H139938   3.352   4.267   3.840
13327TIP3    H239939   3.239   4.232   3.935
13328TIP3   OH239940   3.436   5.434   3.774
13328TIP3    H139941   3.476   5.361   3.725
13328TIP3    H239942   3.452   5.412   3.866
13329TIP3   OH239943   0.868   0.279   3.655
13329TIP3    H139944   0.959   0.308   3.665
13329TIP3    H239945   0.850   0.227   3.733
13330TIP3   OH239946   2.626   1.160   5.096
13330TIP3    H139947   2.596   1.239   5.051
13330TIP3    H239948   2.549   1.128   5.143
13331TIP3   OH239949   4.406   5.584   3.165
13331TIP3    H139950   4.462   5.661   3.157
13331TIP3    H239951   4.323   5.611   3.127
13332TIP3   OH239952   1.595   4.690   3.525
13332TIP3    H139953   1.684   4.697   3.561
13332TIP3    H239954   1.601   4.729   3.438
13333TIP3   OH239955   8.373   6.011   3.737
13333TIP3    H139956   8.370   6.063   3.657
13333TIP3    H239957   8.281   6.000   3.762
13334TIP3   OH239958   7.049   4.251   2.607
13334TIP3    H139959   7.133   4.297   2.609
13334TIP3    H239960   7.071   4.160   2.623
13335TIP3   OH239961   4.083   4.626   5.577
13335TIP3    H139962   4.004   4.655   5.531
13335TIP3    H239963   4.094   4.690   5.648
13336TIP3   OH239964   2.812   1.400   6.191
13336TIP3    H139965   2.832   1.440   6.106
13336TIP3    H239966   2.724   1.431   6.212
13337TIP3   OH239967   5.323   4.670   2.899
13337TIP3    H139968   5.254   4.622   2.944
13337TIP3    H239969   5.330   4.626   2.814
13338TIP3   OH239970   3.382   2.809   5.478
13338TIP3    H139971   3.293   2.841   5.495
13338TIP3    H239972   3.405   2.762   5.558
13339TIP3   OH239973   6.444   4.731   1.969
13339TIP3    H139974   6.422   4.653   1.918
13339TIP3    H239975   6.535   4.720   1.994
13340TIP3   OH239976   0.126   6.789   4.275
13340TIP3    H139977   0.132   6.703   4.233
13340TIP3    H239978   0.212   6.828   4.264
13341TIP3   OH239979   5.942   5.923   3.821
13341TIP3    H139980   5.914   5.852   3.763
13341TIP3    H239981   5.864   5.945   3.871
13342TIP3   OH239982   3.981   5.877   2.490
13342TIP3    H139983   3.972   5.824   2.569
13342TIP3    H239984   3.898   5.922   2.482
13343TIP3   OH239985   5.275   6.635   4.001
13343TIP3    H139986   5.305   6.726   3.998
13343TIP3    H239987   5.314   6.594   3.924
13344TIP3   OH239988   6.718   4.849   4.825
13344TIP3    H139989   6.805   4.846   4.865
13344TIP3    H239990   6.713   4.769   4.773
13345TIP3   OH239991   4.489   3.685   4.779
13345TIP3    H139992   4.436   3.606   4.786
13345TIP3    H239993   4.579   3.653   4.775
13346TIP3   OH239994   0.115   6.340   5.501
13346TIP3    H139995   0.071   6.422   5.481
13346TIP3    H239996   0.080   6.278   5.437
13347TIP3   OH239997   3.074   3.137   4.753
13347TIP3    H139998   3.071   3.157   4.847
13347TIP3    H239999   3.132   3.061   4.747
13348TIP3   OH240000   1.604   7.409   4.358
13348TIP3    H140001   1.658   7.340   4.319
13348TIP3    H240002   1.649   7.491   4.335
13349TIP3   OH240003   2.464   3.478   3.348
13349TIP3    H140004   2.493   3.555   3.299
13349TIP3    H240005   2.371   3.471   3.329
13350TIP3   OH240006   4.201   6.663   2.923
13350TIP3    H140007   4.237   6.752   2.920
13350TIP3    H240008   4.110   6.676   2.952
13351TIP3   OH240009   1.665   0.628   2.386
13351TIP3    H140010   1.719   0.700   2.419
13351TIP3    H240011   1.708   0.599   2.306
13352TIP3   OH240012   5.127   1.699   4.365
13352TIP3    H140013   5.189   1.678   4.296
13352TIP3    H240014   5.150   1.789   4.391
13353TIP3   OH240015   3.778   4.836   2.671
13353TIP3    H140016   3.823   4.781   2.734
13353TIP3    H240017   3.696   4.860   2.714
13354TIP3   OH240018   5.584   2.067   6.215
13354TIP3    H140019   5.638   2.028   6.146
13354TIP3    H240020   5.496   2.037   6.197
13355TIP3   OH240021   3.359   3.020   1.342
13355TIP3    H140022   3.402   2.946   1.298
13355TIP3    H240023   3.327   3.075   1.271
13356TIP3   OH240024   2.112   2.570   6.747
13356TIP3    H140025   2.022   2.596   6.765
13356TIP3    H240026   2.108   2.476   6.735
13357TIP3   OH240027   4.401   2.749   4.177
13357TIP3    H140028   4.379   2.760   4.085
13357TIP3    H240029   4.323   2.777   4.224
13358TIP3   OH240030   1.984   3.934   2.315
13358TIP3    H140031   2.008   3.841   2.323
13358TIP3    H240032   1.995   3.953   2.222
13359TIP3   OH240033   5.283   6.886   3.334
13359TIP3    H140034   5.326   6.813   3.290
13359TIP3    H240035   5.346   6.958   3.328
13360TIP3   OH240036   5.396   3.934   3.187
13360TIP3    H140037   5.420   4.022   3.214
13360TIP3    H240038   5.480   3.891   3.168
13361TIP3   OH240039   6.813   2.255   6.435
13361TIP3    H140040   6.899   2.236   6.474
13361TIP3    H240041   6.769   2.312   6.498
13362TIP3   OH240042   7.910   5.252   0.773
13362TIP3    H140043   7.910   5.328   0.831
13362TIP3    H240044   7.933   5.287   0.687
13363TIP3   OH240045   4.012   0.987   6.570
13363TIP3    H140046   3.918   1.002   6.573
13363TIP3    H240047   4.021   0.892   6.565
13364TIP3   OH240048   5.134   1.317   3.244
13364TIP3    H140049   5.194   1.247   3.271
13364TIP3    H240050   5.177   1.357   3.168
13365TIP3   OH240051   5.199   7.611   6.005
13365TIP3    H140052   5.123   7.577   6.053
13365TIP3    H240053   5.201   7.560   5.924
13366TIP3   OH240054   6.951   4.954   3.234
13366TIP3    H140055   7.024   5.016   3.223
13366TIP3    H240056   6.962   4.893   3.161
13367TIP3   OH240057   1.576   5.208   0.849
13367TIP3    H140058   1.533   5.267   0.912
13367TIP3    H240059   1.533   5.124   0.863
13368TIP3   OH240060   5.116   2.832   2.833
13368TIP3    H140061   5.060   2.766   2.792
13368TIP3    H240062   5.130   2.801   2.922
13369TIP3   OH240063   0.457   3.009   4.156
13369TIP3    H140064   0.414   3.011   4.070
13369TIP3    H240065   0.479   3.100   4.174
13370TIP3   OH240066   5.004   1.104   2.909
13370TIP3    H140067   4.985   1.176   2.849
13370TIP3    H240068   5.085   1.067   2.876
13371TIP3   OH240069   5.273   1.952   4.413
13371TIP3    H140070   5.222   2.030   4.392
13371TIP3    H240071   5.338   1.982   4.477
13372TIP3   OH240072   6.495   1.444   6.345
13372TIP3    H140073   6.450   1.359   6.340
13372TIP3    H240074   6.526   1.461   6.256
13373TIP3   OH240075   4.211   4.656   0.116
13373TIP3    H140076   4.236   4.579   0.065
13373TIP3    H240077   4.271   4.725   0.087
13374TIP3   OH240078   5.952   2.386   0.294
13374TIP3    H140079   5.898   2.365   0.217
13374TIP3    H240080   5.966   2.480   0.287
13375TIP3   OH240081   4.726   5.597   3.832
13375TIP3    H140082   4.643   5.571   3.791
13375TIP3    H240083   4.706   5.601   3.925
13376TIP3   OH240084   0.538   4.100   5.124
13376TIP3    H140085   0.607   4.049   5.083
13376TIP3    H240086   0.485   4.036   5.171
13377TIP3   OH240087   3.019   1.730   0.443
13377TIP3    H140088   3.019   1.651   0.498
13377TIP3    H240089   2.929   1.763   0.449
13378TIP3   OH240090   2.215   0.685   6.809
13378TIP3    H140091   2.269   0.746   6.758
13378TIP3    H240092   2.141   0.665   6.751
13379TIP3   OH240093   1.528   0.077   3.946
13379TIP3    H140094   1.530   0.015   4.019
13379TIP3    H240095   1.604   0.053   3.893
13380TIP3   OH240096   1.501   2.378   6.141
13380TIP3    H140097   1.572   2.323   6.106
13380TIP3    H240098   1.443   2.393   6.066
13381TIP3   OH240099   8.211   2.862   0.515
13381TIP3    H140100   8.142   2.928   0.523
13381TIP3    H240101   8.168   2.786   0.477
13382TIP3   OH240102   3.030   6.174   6.224
13382TIP3    H140103   2.980   6.241   6.270
13382TIP3    H240104   3.076   6.126   6.293
13383TIP3   OH240105   4.236   0.835   6.054
13383TIP3    H140106   4.179   0.902   6.090
13383TIP3    H240107   4.178   0.761   6.037
13384TIP3   OH240108   1.476   2.236   0.992
13384TIP3    H140109   1.502   2.162   0.937
13384TIP3    H240110   1.470   2.310   0.931
13385TIP3   OH240111   6.972   1.574   6.415
13385TIP3    H140112   7.040   1.511   6.436
13385TIP3    H240113   6.986   1.596   6.323
13386TIP3   OH240114   3.223   5.335   4.063
13386TIP3    H140115   3.282   5.411   4.072
13386TIP3    H240116   3.160   5.346   4.135
13387TIP3   OH240117   1.711   7.291  -0.034
13387TIP3    H140118   1.795   7.247  -0.028
13387TIP3    H240119   1.702   7.339   0.048
13388TIP3   OH240120   0.326   1.961   5.688
13388TIP3    H140121   0.283   1.904   5.752
13388TIP3    H240122   0.340   1.905   5.611
13389TIP3   OH240123   6.807   4.507   5.802
13389TIP3    H140124   6.851   4.426   5.830
13389TIP3    H240125   6.879   4.565   5.776
13390TIP3   OH240126   7.111   2.659   5.509
13390TIP3    H140127   7.193   2.616   5.536
13390TIP3    H240128   7.124   2.751   5.531
13391TIP3   OH240129   7.605   6.808   3.101
13391TIP3    H140130   7.691   6.767   3.096
13391TIP3    H240131   7.621   6.894   3.140
13392TIP3   OH240132   0.362   3.452   5.172
13392TIP3    H140133   0.319   3.394   5.234
13392TIP3    H240134   0.323   3.538   5.187
13393TIP3   OH240135   2.594   4.600   0.708
13393TIP3    H140136   2.572   4.649   0.629
13393TIP3    H240137   2.671   4.548   0.683
13394TIP3   OH240138   7.544   0.520   5.609
13394TIP3    H140139   7.583   0.460   5.546
13394TIP3    H240140   7.554   0.607   5.569
13395TIP3   OH240141   8.169   3.699   6.061
13395TIP3    H140142   8.173   3.783   6.107
13395TIP3    H240143   8.239   3.704   5.996
13396TIP3   OH240144   1.423   4.682   0.530
13396TIP3    H140145   1.337   4.667   0.569
13396TIP3    H240146   1.439   4.604   0.476
13397TIP3   OH240147   7.595   3.334   0.140
13397TIP3    H140148   7.546   3.263   0.182
13397TIP3    H240149   7.528   3.386   0.096
13398TIP3   OH240150   3.316   3.197   6.351
13398TIP3    H140151   3.351   3.221   6.437
13398TIP3    H240152   3.243   3.138   6.371
13399TIP3   OH240153   0.995   1.157   2.062
13399TIP3    H140154   0.972   1.204   1.981
13399TIP3    H240155   1.070   1.205   2.097
13400TIP3   OH240156   4.515   1.106   1.601
13400TIP3    H140157   4.592   1.057   1.571
13400TIP3    H240158   4.533   1.196   1.574
13401TIP3   OH240159   7.889   7.169   4.434
13401TIP3    H140160   7.891   7.103   4.364
13401TIP3    H240161   7.822   7.231   4.406
13402TIP3   OH240162   3.750   1.756   5.096
13402TIP3    H140163   3.742   1.664   5.071
13402TIP3    H240164   3.836   1.763   5.139
13403TIP3   OH240165   5.586   2.137   5.160
13403TIP3    H140166   5.536   2.082   5.220
13403TIP3    H240167   5.667   2.155   5.206
13404TIP3   OH240168   6.500   7.386   5.169
13404TIP3    H140169   6.550   7.311   5.203
13404TIP3    H240170   6.513   7.454   5.236
13405TIP3   OH240171   7.783   2.850   5.267
13405TIP3    H140172   7.752   2.926   5.315
13405TIP3    H240173   7.817   2.791   5.334
13406TIP3   OH240174   3.011   5.432   5.442
13406TIP3    H140175   2.999   5.373   5.516
13406TIP3    H240176   3.093   5.477   5.461
13407TIP3   OH240177   7.105   0.679   5.880
13407TIP3    H140178   7.097   0.588   5.851
13407TIP3    H240179   7.106   0.674   5.975
13408TIP3   OH240180   3.032   7.774   0.230
13408TIP3    H140181   3.083   7.718   0.289
13408TIP3    H240182   3.009   7.716   0.157
13409TIP3   OH240183   5.547   1.381   5.301
13409TIP3    H140184   5.609   1.402   5.371
13409TIP3    H240185   5.603   1.358   5.227
13410TIP3   OH240186   3.600   0.395   4.781
13410TIP3    H140187   3.601   0.310   4.826
13410TIP3    H240188   3.508   0.419   4.779
13411TIP3   OH240189   2.340   7.086   3.910
13411TIP3    H140190   2.383   7.170   3.895
13411TIP3    H240191   2.348   7.039   3.827
13412TIP3   OH240192   5.089   6.160   1.113
13412TIP3    H140193   5.007   6.173   1.161
13412TIP3    H240194   5.135   6.092   1.162
13413TIP3   OH240195   7.520   4.454   3.760
13413TIP3    H140196   7.430   4.438   3.731
13413TIP3    H240197   7.521   4.429   3.852
13414TIP3   OH240198   7.477   6.163   1.585
13414TIP3    H140199   7.477   6.148   1.679
13414TIP3    H240200   7.391   6.201   1.566
13415TIP3   OH240201   1.323   4.416   3.147
13415TIP3    H140202   1.255   4.355   3.118
13415TIP3    H240203   1.345   4.388   3.236
13416TIP3   OH240204   6.616   7.609   5.307
13416TIP3    H140205   6.706   7.623   5.277
13416TIP3    H240206   6.627   7.567   5.393
13417TIP3   OH240207   4.982   6.991   3.469
13417TIP3    H140208   5.051   6.959   3.528
13417TIP3    H240209   4.986   7.086   3.477
13418TIP3   OH240210   3.026   6.368   2.156
13418TIP3    H140211   3.030   6.364   2.252
13418TIP3    H240212   2.951   6.425   2.138
13419TIP3   OH240213   1.169   1.188   0.408
13419TIP3    H140214   1.074   1.185   0.405
13419TIP3    H240215   1.189   1.269   0.455
13420TIP3   OH240216   6.325   3.612   6.223
13420TIP3    H140217   6.395   3.592   6.161
13420TIP3    H240218   6.352   3.694   6.264
13421TIP3   OH240219   5.492   1.378   1.885
13421TIP3    H140220   5.523   1.468   1.874
13421TIP3    H240221   5.492   1.364   1.979
13422TIP3   OH240222   5.771   4.742   0.922
13422TIP3    H140223   5.847   4.734   0.864
13422TIP3    H240224   5.789   4.680   0.993
13423TIP3   OH240225   0.258   0.317   0.798
13423TIP3    H140226   0.306   0.294   0.878
13423TIP3    H240227   0.274   0.243   0.739
13424TIP3   OH240228   1.514   3.705   3.257
13424TIP3    H140229   1.451   3.751   3.313
13424TIP3    H240230   1.595   3.756   3.265
13425TIP3   OH240231   7.490   2.972   5.442
13425TIP3    H140232   7.422   2.952   5.377
13425TIP3    H240233   7.488   3.067   5.450
13426TIP3   OH240234   8.309   6.040   4.758
13426TIP3    H140235   8.289   6.053   4.851
13426TIP3    H240236   8.224   6.019   4.718
13427TIP3   OH240237   5.965   1.015   5.218
13427TIP3    H140238   5.946   1.105   5.193
13427TIP3    H240239   6.060   1.007   5.209
13428TIP3   OH240240   3.133   3.856   5.248
13428TIP3    H140241   3.227   3.872   5.239
13428TIP3    H240242   3.093   3.942   5.236
13429TIP3   OH240243   5.734   0.159   6.263
13429TIP3    H140244   5.666   0.175   6.198
13429TIP3    H240245   5.802   0.111   6.215
13430TIP3   OH240246   6.526   3.409   6.655
13430TIP3    H140247   6.558   3.369   6.736
13430TIP3    H240248   6.603   3.452   6.618
13431TIP3   OH240249   1.963   7.224   5.622
13431TIP3    H140250   1.913   7.172   5.685
13431TIP3    H240251   1.922   7.205   5.538
13432TIP3   OH240252   5.990   5.978   1.148
13432TIP3    H140253   5.979   5.909   1.082
13432TIP3    H240254   5.949   5.942   1.226
13433TIP3   OH240255   7.535   1.163   0.204
13433TIP3    H140256   7.628   1.187   0.209
13433TIP3    H240257   7.494   1.211   0.277
13434TIP3   OH240258   0.469   6.954   2.363
13434TIP3    H140259   0.444   7.037   2.323
13434TIP3    H240260   0.386   6.910   2.380
13435TIP3   OH240261   1.334   0.623   5.224
13435TIP3    H140262   1.296   0.608   5.137
13435TIP3    H240263   1.297   0.553   5.278
13436TIP3   OH240264   0.479   3.619   0.200
13436TIP3    H140265   0.535   3.542   0.210
13436TIP3    H240266   0.456   3.644   0.290
13437TIP3   OH240267   8.046   3.786   2.863
13437TIP3    H140268   8.051   3.839   2.943
13437TIP3    H240269   8.084   3.843   2.795
13438TIP3   OH240270   6.006   0.908   4.944
13438TIP3    H140271   5.980   0.915   5.036
13438TIP3    H240272   6.059   0.987   4.929
13439TIP3   OH240273   4.206   4.010   4.824
13439TIP3    H140274   4.127   4.026   4.771
13439TIP3    H240275   4.187   4.051   4.908
13440TIP3   OH240276   6.729   1.384   4.817
13440TIP3    H140277   6.725   1.386   4.913
13440TIP3    H240278   6.823   1.384   4.798
13441TIP3   OH240279   5.511   0.955   1.392
13441TIP3    H140280   5.542   0.865   1.406
13441TIP3    H240281   5.561   0.986   1.316
13442TIP3   OH240282   4.976   4.739   5.512
13442TIP3    H140283   4.922   4.725   5.591
13442TIP3    H240284   5.043   4.670   5.517
13443TIP3   OH240285   5.525   4.330   1.769
13443TIP3    H140286   5.601   4.290   1.812
13443TIP3    H240287   5.482   4.379   1.839
13444TIP3   OH240288   4.338   5.202   1.298
13444TIP3    H140289   4.397   5.157   1.237
13444TIP3    H240290   4.383   5.284   1.319
13445TIP3   OH240291   7.602   4.003   1.581
13445TIP3    H140292   7.524   4.036   1.536
13445TIP3    H240293   7.568   3.960   1.659
13446TIP3   OH240294   4.709   6.878   6.321
13446TIP3    H140295   4.728   6.813   6.389
13446TIP3    H240296   4.674   6.827   6.248
13447TIP3   OH240297   2.598   5.870   1.940
13447TIP3    H140298   2.581   5.961   1.918
13447TIP3    H240299   2.641   5.834   1.862
13448TIP3   OH240300   4.637   1.868   4.390
13448TIP3    H140301   4.600   1.908   4.311
13448TIP3    H240302   4.718   1.917   4.406
13449TIP3   OH240303   2.091   4.309   5.507
13449TIP3    H140304   2.132   4.307   5.593
13449TIP3    H240305   1.998   4.292   5.524
13450TIP3   OH240306   2.390   7.683   4.030
13450TIP3    H140307   2.401   7.712   3.940
13450TIP3    H240308   2.376   7.588   4.023
13451TIP3   OH240309   0.868   2.860   2.000
13451TIP3    H140310   0.923   2.802   1.947
13451TIP3    H240311   0.889   2.948   1.970
13452TIP3   OH240312   2.652   3.978   1.915
13452TIP3    H140313   2.715   4.051   1.917
13452TIP3    H240314   2.616   3.975   2.004
13453TIP3   OH240315   0.146   5.236   6.118
13453TIP3    H140316   0.058   5.211   6.145
13453TIP3    H240317   0.146   5.332   6.122
13454TIP3   OH240318   5.396   2.636   5.745
13454TIP3    H140319   5.392   2.614   5.838
13454TIP3    H240320   5.400   2.732   5.743
13455TIP3   OH240321   1.336   5.009   1.043
13455TIP3    H140322   1.273   5.008   0.970
13455TIP3    H240323   1.375   4.922   1.042
13456TIP3   OH240324   3.853   4.736   2.903
13456TIP3    H140325   3.838   4.765   2.993
13456TIP3    H240326   3.778   4.680   2.882
13457TIP3   OH240327   4.370   3.847   4.956
13457TIP3    H140328   4.426   3.791   4.903
13457TIP3    H240329   4.305   3.881   4.895
13458TIP3   OH240330   4.373   3.581   1.571
13458TIP3    H140331   4.365   3.676   1.581
13458TIP3    H240332   4.467   3.566   1.560
13459TIP3   OH240333   3.674   6.312   5.538
13459TIP3    H140334   3.594   6.288   5.491
13459TIP3    H240335   3.655   6.399   5.574
13460TIP3   OH240336   3.320   1.193   0.486
13460TIP3    H140337   3.345   1.283   0.509
13460TIP3    H240338   3.354   1.180   0.398
13461TIP3   OH240339   2.098   0.224   4.312
13461TIP3    H140340   2.077   0.203   4.221
13461TIP3    H240341   2.059   0.152   4.363
13462TIP3   OH240342   0.207   3.682   5.663
13462TIP3    H140343   0.215   3.587   5.670
13462TIP3    H240344   0.289   3.710   5.623
13463TIP3   OH240345   3.468   4.191   4.774
13463TIP3    H140346   3.384   4.235   4.779
13463TIP3    H240347   3.501   4.212   4.686
13464TIP3   OH240348   8.094   1.281   2.041
13464TIP3    H140349   8.162   1.271   1.975
13464TIP3    H240350   8.051   1.196   2.046
13465TIP3   OH240351   6.004   0.248   3.026
13465TIP3    H140352   6.098   0.246   3.046
13465TIP3    H240353   6.001   0.253   2.930
13466TIP3   OH240354   6.844   6.568   0.187
13466TIP3    H140355   6.911   6.506   0.159
13466TIP3    H240356   6.876   6.653   0.159
13467TIP3   OH240357   0.155   5.020   1.372
13467TIP3    H140358   0.232   4.977   1.335
13467TIP3    H240359   0.181   5.112   1.380
13468TIP3   OH240360   2.360   4.861   0.090
13468TIP3    H140361   2.434   4.888   0.144
13468TIP3    H240362   2.368   4.766   0.083
13469TIP3   OH240363   4.509   4.571   1.033
13469TIP3    H140364   4.565   4.636   0.991
13469TIP3    H240365   4.555   4.488   1.019
13470TIP3   OH240366   0.077   0.665   5.162
13470TIP3    H140367   0.160   0.619   5.173
13470TIP3    H240368   0.019   0.626   5.228
13471TIP3   OH240369   5.951   1.035   0.251
13471TIP3    H140370   5.874   1.083   0.281
13471TIP3    H240371   5.960   1.059   0.159
13472TIP3   OH240372   1.476   6.545   5.019
13472TIP3    H140373   1.473   6.451   5.000
13472TIP3    H240374   1.493   6.586   4.934
13473TIP3   OH240375   2.557   4.728   0.469
13473TIP3    H140376   2.609   4.668   0.416
13473TIP3    H240377   2.466   4.704   0.451
13474TIP3   OH240378   4.885   3.091   2.327
13474TIP3    H140379   4.803   3.137   2.309
13474TIP3    H240380   4.858   3.011   2.371
13475TIP3   OH240381   3.302   1.420   3.161
13475TIP3    H140382   3.322   1.391   3.072
13475TIP3    H240383   3.295   1.338   3.211
13476TIP3   OH240384   3.244   3.142   3.032
13476TIP3    H140385   3.158   3.144   3.074
13476TIP3    H240386   3.302   3.101   3.096
13477TIP3   OH240387   4.635   2.652   0.749
13477TIP3    H140388   4.641   2.594   0.825
13477TIP3    H240389   4.543   2.677   0.745
13478TIP3   OH240390   5.853   7.171   2.215
13478TIP3    H140391   5.905   7.183   2.135
13478TIP3    H240392   5.882   7.087   2.249
13479TIP3   OH240393   4.528   4.011   4.092
13479TIP3    H140394   4.514   4.026   3.999
13479TIP3    H240395   4.622   4.020   4.104
13480TIP3   OH240396   0.699   0.138   0.773
13480TIP3    H140397   0.647   0.210   0.737
13480TIP3    H240398   0.637   0.067   0.788
13481TIP3   OH240399   4.535   5.839   1.016
13481TIP3    H140400   4.539   5.891   1.096
13481TIP3    H240401   4.447   5.855   0.981
13482TIP3   OH240402   3.629   5.370   1.167
13482TIP3    H140403   3.559   5.376   1.232
13482TIP3    H240404   3.584   5.370   1.083
13483TIP3   OH240405   1.018   4.115   5.676
13483TIP3    H140406   1.092   4.055   5.678
13483TIP3    H240407   0.941   4.057   5.679
13484TIP3   OH240408   6.312   1.630   6.152
13484TIP3    H140409   6.404   1.604   6.146
13484TIP3    H240410   6.265   1.550   6.175
13485TIP3   OH240411   0.033   6.580   6.785
13485TIP3    H140412   0.100   6.599   6.720
13485TIP3    H240413  -0.035   6.646   6.769
13486TIP3   OH240414   6.978   0.540   5.242
13486TIP3    H140415   6.944   0.567   5.156
13486TIP3    H240416   7.071   0.563   5.239
13487TIP3   OH240417   8.222   6.837   3.471
13487TIP3    H140418   8.276   6.885   3.408
13487TIP3    H240419   8.251   6.746   3.463
13488TIP3   OH240420   4.118   2.205   5.650
13488TIP3    H140421   4.156   2.293   5.642
13488TIP3    H240422   4.025   2.218   5.632
13489TIP3   OH240423   5.007   2.706   6.624
13489TIP3    H140424   4.956   2.655   6.687
13489TIP3    H240425   5.086   2.731   6.672
13490TIP3   OH240426   8.008   4.110   5.589
13490TIP3    H140427   8.039   4.098   5.679
13490TIP3    H240428   7.939   4.176   5.596
13491TIP3   OH240429   7.240   3.500   4.268
13491TIP3    H140430   7.264   3.589   4.294
13491TIP3    H240431   7.322   3.461   4.237
13492TIP3   OH240432   1.450   1.018   1.439
13492TIP3    H140433   1.355   1.011   1.432
13492TIP3    H240434   1.467   1.020   1.533
13493TIP3   OH240435   5.727   1.849   1.879
13493TIP3    H140436   5.681   1.924   1.842
13493TIP3    H240437   5.688   1.837   1.966
13494TIP3   OH240438   7.020   4.953   6.125
13494TIP3    H140439   6.932   4.916   6.129
13494TIP3    H240440   7.027   5.006   6.204
13495TIP3   OH240441   1.903   4.278   4.234
13495TIP3    H140442   1.876   4.299   4.324
13495TIP3    H240443   1.996   4.298   4.231
13496TIP3   OH240444   5.795   1.599   3.246
13496TIP3    H140445   5.802   1.504   3.256
13496TIP3    H240446   5.736   1.612   3.173
13497TIP3   OH240447   1.631   2.013   1.388
13497TIP3    H140448   1.608   2.041   1.477
13497TIP3    H240449   1.587   2.076   1.331
13498TIP3   OH240450   5.076   7.153   5.097
13498TIP3    H140451   5.072   7.219   5.166
13498TIP3    H240452   5.169   7.145   5.077
13499TIP3   OH240453   7.501   5.686   3.764
13499TIP3    H140454   7.475   5.676   3.673
13499TIP3    H240455   7.597   5.684   3.762
13500TIP3   OH240456   7.351   4.175   4.696
13500TIP3    H140457   7.385   4.189   4.608
13500TIP3    H240458   7.349   4.079   4.706
13501TIP3   OH240459   4.235   5.972   2.035
13501TIP3    H140460   4.193   6.043   1.988
13501TIP3    H240461   4.315   6.010   2.070
13502TIP3   OH240462   6.757   4.004   2.893
13502TIP3    H140463   6.717   4.060   2.826
13502TIP3    H240464   6.848   3.995   2.866
13503TIP3   OH240465   3.704   2.186   0.749
13503TIP3    H140466   3.731   2.244   0.820
13503TIP3    H240467   3.608   2.185   0.755
13504TIP3   OH240468   0.573   2.897   3.889
13504TIP3    H140469   0.581   2.957   3.814
13504TIP3    H240470   0.479   2.889   3.903
13505TIP3   OH240471   3.703   6.450   6.354
13505TIP3    H140472   3.701   6.442   6.259
13505TIP3    H240473   3.638   6.517   6.375
13506TIP3   OH240474   3.397   6.618   1.355
13506TIP3    H140475   3.397   6.585   1.266
13506TIP3    H240476   3.489   6.630   1.376
13507TIP3   OH240477   3.561   3.864   3.969
13507TIP3    H140478   3.477   3.849   4.012
13507TIP3    H240479   3.626   3.851   4.037
13508TIP3   OH240480   1.675   0.570   0.900
13508TIP3    H140481   1.645   0.500   0.959
13508TIP3    H240482   1.759   0.539   0.867
13509TIP3   OH240483   1.318   4.907   5.564
13509TIP3    H140484   1.266   4.987   5.561
13509TIP3    H240485   1.308   4.874   5.653
13510TIP3   OH240486   2.417   6.301   4.106
13510TIP3    H140487   2.372   6.355   4.040
13510TIP3    H240488   2.349   6.241   4.138
13511TIP3   OH240489   7.111   2.933   5.535
13511TIP3    H140490   7.143   3.006   5.588
13511TIP3    H240491   7.077   2.975   5.455
13512TIP3   OH240492   2.793   0.794   4.160
13512TIP3    H140493   2.835   0.765   4.241
13512TIP3    H240494   2.785   0.889   4.170
13513TIP3   OH240495   7.773   0.384   4.033
13513TIP3    H140496   7.850   0.340   3.997
13513TIP3    H240497   7.764   0.464   3.981
13514TIP3   OH240498   3.954   0.131   4.440
13514TIP3    H140499   3.909   0.089   4.366
13514TIP3    H240500   3.897   0.205   4.464
13515TIP3   OH240501   3.342   4.472   1.326
13515TIP3    H140502   3.285   4.466   1.403
13515TIP3    H240503   3.371   4.382   1.310
13516TIP3   OH240504  -0.087   1.423   5.961
13516TIP3    H140505  -0.025   1.438   5.889
13516TIP3    H240506  -0.044   1.358   6.016
13517TIP3   OH240507   6.413   3.912   6.455
13517TIP3    H140508   6.498   3.872   6.476
13517TIP3    H240509   6.407   3.907   6.360
13518TIP3   OH240510   5.634   5.341   5.663
13518TIP3    H140511   5.670   5.283   5.596
13518TIP3    H240512   5.669   5.306   5.745
13519TIP3   OH240513   2.440   2.019   3.446
13519TIP3    H140514   2.452   2.113   3.456
13519TIP3    H240515   2.364   2.011   3.388
13520TIP3   OH240516   5.277   3.459   0.711
13520TIP3    H140517   5.315   3.516   0.644
13520TIP3    H240518   5.203   3.416   0.668
13521TIP3   OH240519   1.779   4.041   4.036
13521TIP3    H140520   1.768   4.065   3.944
13521TIP3    H240521   1.728   4.106   4.084
13522TIP3   OH240522   1.577   2.537   2.047
13522TIP3    H140523   1.603   2.449   2.020
13522TIP3    H240524   1.576   2.588   1.966
13523TIP3   OH240525   6.003   2.672   4.109
13523TIP3    H140526   5.955   2.627   4.040
13523TIP3    H240527   5.954   2.753   4.123
13524TIP3   OH240528   8.102   6.668   4.040
13524TIP3    H140529   8.168   6.704   3.980
13524TIP3    H240530   8.134   6.691   4.128
13525TIP3   OH240531   7.345   7.206   6.150
13525TIP3    H140532   7.437   7.190   6.172
13525TIP3    H240533   7.302   7.214   6.235
13526TIP3   OH240534   4.771   7.053   3.920
13526TIP3    H140535   4.793   7.082   4.008
13526TIP3    H240536   4.676   7.062   3.914
13527TIP3   OH240537   4.440   6.543   3.412
13527TIP3    H140538   4.502   6.616   3.406
13527TIP3    H240539   4.375   6.560   3.344
13528TIP3   OH240540   4.176   7.744   3.275
13528TIP3    H140541   4.263   7.773   3.249
13528TIP3    H240542   4.173   7.759   3.370
13529TIP3   OH240543   5.839   0.873   2.421
13529TIP3    H140544   5.878   0.816   2.488
13529TIP3    H240545   5.877   0.842   2.339
13530TIP3   OH240546   4.076   3.211   4.172
13530TIP3    H140547   4.138   3.248   4.235
13530TIP3    H240548   4.131   3.178   4.101
13531TIP3   OH240549   2.616   3.448   1.260
13531TIP3    H140550   2.664   3.379   1.213
13531TIP3    H240551   2.530   3.410   1.277
13532TIP3   OH240552   0.563   1.592   6.087
13532TIP3    H140553   0.631   1.592   6.019
13532TIP3    H240554   0.601   1.542   6.159
13533TIP3   OH240555   7.479  -0.065   3.933
13533TIP3    H140556   7.540  -0.012   3.983
13533TIP3    H240557   7.404  -0.078   3.991
13534TIP3   OH240558   0.375   7.015   0.128
13534TIP3    H140559   0.346   7.008   0.219
13534TIP3    H240560   0.304   6.978   0.076
13535TIP3   OH240561   3.949   3.161   5.656
13535TIP3    H140562   3.864   3.159   5.701
13535TIP3    H240563   3.994   3.237   5.693
13536TIP3   OH240564   7.896   2.699   4.443
13536TIP3    H140565   7.842   2.733   4.371
13536TIP3    H240566   7.931   2.778   4.485
13537TIP3   OH240567   2.594   0.210   0.926
13537TIP3    H140568   2.685   0.180   0.926
13537TIP3    H240569   2.600   0.304   0.907
13538TIP3   OH240570   7.240   2.342   5.587
13538TIP3    H140571   7.268   2.419   5.537
13538TIP3    H240572   7.308   2.277   5.571
13539TIP3   OH240573   5.120   2.910   5.996
13539TIP3    H140574   5.196   2.967   6.001
13539TIP3    H240575   5.076   2.920   6.081
13540TIP3   OH240576   8.007   4.973   2.081
13540TIP3    H140577   8.035   4.954   1.992
13540TIP3    H240578   7.912   4.971   2.077
13541TIP3   OH240579   6.618   5.864   2.007
13541TIP3    H140580   6.643   5.918   1.933
13541TIP3    H240581   6.532   5.895   2.032
13542TIP3   OH240582   0.149   7.798   2.213
13542TIP3    H140583   0.122   7.808   2.121
13542TIP3    H240584   0.155   7.703   2.226
13543TIP3   OH240585   1.010   6.317   0.175
13543TIP3    H140586   0.985   6.225   0.171
13543TIP3    H240587   1.067   6.331   0.099
13544TIP3   OH240588   7.653   3.047   4.516
13544TIP3    H140589   7.645   3.140   4.539
13544TIP3    H240590   7.610   3.041   4.431
13545TIP3   OH240591   0.685   6.082   0.117
13545TIP3    H140592   0.772   6.051   0.093
13545TIP3    H240593   0.625   6.027   0.067
13546TIP3   OH240594   4.659   3.956   0.077
13546TIP3    H140595   4.735   3.974   0.023
13546TIP3    H240596   4.590   3.934   0.015
13547TIP3   OH240597   1.840   7.669   0.828
13547TIP3    H140598   1.838   7.634   0.739
13547TIP3    H240599   1.905   7.614   0.873
13548TIP3   OH240600   3.542   4.310   5.132
13548TIP3    H140601   3.501   4.391   5.164
13548TIP3    H240602   3.471   4.247   5.129
13549TIP3   OH240603   0.317   1.471   3.725
13549TIP3    H140604   0.373   1.527   3.778
13549TIP3    H240605   0.377   1.428   3.664
13550TIP3   OH240606   3.969   6.205   3.620
13550TIP3    H140607   4.008   6.241   3.540
13550TIP3    H240608   3.998   6.114   3.622
13551TIP3   OH240609   7.310   5.876   2.649
13551TIP3    H140610   7.217   5.897   2.644
13551TIP3    H240611   7.350   5.925   2.577
13552TIP3   OH240612   5.859   3.385   0.364
13552TIP3    H140613   5.839   3.355   0.275
13552TIP3    H240614   5.932   3.330   0.392
13553TIP3   OH240615   0.220   0.489   4.905
13553TIP3    H140616   0.239   0.582   4.889
13553TIP3    H240617   0.211   0.483   5.000
13554TIP3   OH240618   5.730   1.083   1.312
13554TIP3    H140619   5.723   1.149   1.381
13554TIP3    H240620   5.819   1.049   1.321
13555TIP3   OH240621   5.874   6.960   6.028
13555TIP3    H140622   5.861   6.997   5.941
13555TIP3    H240623   5.792   6.979   6.074
13556TIP3   OH240624   7.430   1.293   0.440
13556TIP3    H140625   7.486   1.224   0.476
13556TIP3    H240626   7.421   1.356   0.512
13557TIP3   OH240627   5.693   5.083   3.274
13557TIP3    H140628   5.638   5.140   3.220
13557TIP3    H240629   5.668   5.104   3.364
13558TIP3   OH240630   6.561   0.834   5.695
13558TIP3    H140631   6.542   0.741   5.688
13558TIP3    H240632   6.632   0.840   5.760
13559TIP3   OH240633   3.103   7.432   4.375
13559TIP3    H140634   3.049   7.485   4.316
13559TIP3    H240635   3.192   7.466   4.364
13560TIP3   OH240636   0.661   7.685   5.216
13560TIP3    H140637   0.650   7.734   5.298
13560TIP3    H240638   0.619   7.601   5.233
13561TIP3   OH240639   1.096   7.261   4.106
13561TIP3    H140640   1.065   7.202   4.037
13561TIP3    H240641   1.190   7.270   4.088
13562TIP3   OH240642   1.158   5.272   2.953
13562TIP3    H140643   1.070   5.254   2.986
13562TIP3    H240644   1.144   5.315   2.869
13563TIP3   OH240645   3.372   1.684   4.488
13563TIP3    H140646   3.464   1.688   4.514
13563TIP3    H240647   3.374   1.665   4.394
13564TIP3   OH240648   1.785   0.376   6.711
13564TIP3    H140649   1.805   0.295   6.757
13564TIP3    H240650   1.859   0.433   6.729
13565TIP3   OH240651   2.266   0.515   3.521
13565TIP3    H140652   2.250   0.608   3.538
13565TIP3    H240653   2.204   0.469   3.578
13566TIP3   OH240654   3.460   2.415   5.309
13566TIP3    H140655   3.430   2.326   5.293
13566TIP3    H240656   3.491   2.414   5.400
13567TIP3   OH240657   4.569   2.114   2.953
13567TIP3    H140658   4.534   2.180   2.893
13567TIP3    H240659   4.520   2.126   3.035
13568TIP3   OH240660   4.601   3.234   0.692
13568TIP3    H140661   4.611   3.329   0.685
13568TIP3    H240662   4.538   3.212   0.623
13569TIP3   OH240663   0.566   3.044   6.062
13569TIP3    H140664   0.482   3.085   6.043
13569TIP3    H240665   0.543   2.962   6.107
13570TIP3   OH240666   6.553   3.936   5.832
13570TIP3    H140667   6.479   3.985   5.868
13570TIP3    H240668   6.625   3.956   5.891
13571TIP3   OH240669   7.386   0.939   0.655
13571TIP3    H140670   7.413   0.965   0.742
13571TIP3    H240671   7.459   0.963   0.598
13572TIP3   OH240672   3.904   0.248   6.187
13572TIP3    H140673   3.976   0.306   6.164
13572TIP3    H240674   3.878   0.208   6.104
13573TIP3   OH240675   3.317   0.075   2.200
13573TIP3    H140676   3.372   0.107   2.129
13573TIP3    H240677   3.341   0.129   2.275
13574TIP3   OH240678   2.242   7.004   5.843
13574TIP3    H140679   2.228   7.082   5.789
13574TIP3    H240680   2.332   6.977   5.824
13575TIP3   OH240681   1.964   0.877   6.557
13575TIP3    H140682   2.049   0.849   6.523
13575TIP3    H240683   1.965   0.850   6.649
13576TIP3   OH240684   7.774   1.259   4.515
13576TIP3    H140685   7.807   1.169   4.520
13576TIP3    H240686   7.696   1.259   4.571
13577TIP3   OH240687   5.784   3.907   4.174
13577TIP3    H140688   5.863   3.868   4.135
13577TIP3    H240689   5.789   3.882   4.267
13578TIP3   OH240690   0.240   3.476   1.448
13578TIP3    H140691   0.159   3.427   1.433
13578TIP3    H240692   0.210   3.566   1.465
13579TIP3   OH240693   6.153   1.163   4.927
13579TIP3    H140694   6.072   1.199   4.965
13579TIP3    H240695   6.220   1.185   4.992
13580TIP3   OH240696   0.219   7.607   5.116
13580TIP3    H140697   0.244   7.517   5.136
13580TIP3    H240698   0.159   7.599   5.042
13581TIP3   OH240699   4.887   3.503   6.172
13581TIP3    H140700   4.796   3.501   6.202
13581TIP3    H240701   4.895   3.424   6.118
13582TIP3   OH240702   7.305   2.650   0.149
13582TIP3    H140703   7.244   2.684   0.214
13582TIP3    H240704   7.392   2.662   0.189
13583TIP3   OH240705   6.358   5.017   0.053
13583TIP3    H140706   6.373   4.922   0.055
13583TIP3    H240707   6.443   5.054   0.029
13584TIP3   OH240708   2.830   3.241   1.215
13584TIP3    H140709   2.832   3.189   1.295
13584TIP3    H240710   2.842   3.178   1.144
13585TIP3   OH240711   4.499   2.514   5.984
13585TIP3    H140712   4.479   2.438   6.038
13585TIP3    H240713   4.524   2.477   5.899
13586TIP3   OH240714   3.100   3.669   6.331
13586TIP3    H140715   3.177   3.724   6.343
13586TIP3    H240716   3.132   3.593   6.281
13587TIP3   OH240717   6.943   4.334   2.345
13587TIP3    H140718   6.924   4.244   2.322
13587TIP3    H240719   6.934   4.337   2.440
13588TIP3   OH240720   3.308   2.243   1.605
13588TIP3    H140721   3.331   2.291   1.526
13588TIP3    H240722   3.223   2.279   1.632
13589TIP3   OH240723   3.606   3.664   6.380
13589TIP3    H140724   3.663   3.730   6.341
13589TIP3    H240725   3.581   3.608   6.306
13590TIP3   OH240726   5.879   0.253   3.405
13590TIP3    H140727   5.815   0.322   3.421
13590TIP3    H240728   5.845   0.205   3.329
13591TIP3   OH240729   1.905   1.158   2.536
13591TIP3    H140730   1.910   1.220   2.609
13591TIP3    H240731   1.962   1.085   2.562
13592TIP3   OH240732   0.358   3.573   1.182
13592TIP3    H140733   0.377   3.568   1.088
13592TIP3    H240734   0.286   3.511   1.195
13593TIP3   OH240735   1.424   0.683   0.249
13593TIP3    H140736   1.355   0.739   0.286
13593TIP3    H240737   1.387   0.650   0.167
13594TIP3   OH240738   7.150   5.027   1.074
13594TIP3    H140739   7.223   5.074   1.034
13594TIP3    H240740   7.072   5.064   1.033
13595TIP3   OH240741   3.184   1.420   1.728
13595TIP3    H140742   3.206   1.473   1.652
13595TIP3    H240743   3.088   1.426   1.735
13596TIP3   OH240744   6.921   1.474   2.126
13596TIP3    H140745   6.883   1.398   2.170
13596TIP3    H240746   6.846   1.523   2.094
13597TIP3   OH240747   5.216   0.772   6.173
13597TIP3    H140748   5.240   0.727   6.091
13597TIP3    H240749   5.192   0.861   6.145
13598TIP3   OH240750   3.442   0.035   0.335
13598TIP3    H140751   3.445   0.101   0.266
13598TIP3    H240752   3.410  -0.044   0.291
13599TIP3   OH240753   4.490   6.425   4.945
13599TIP3    H140754   4.489   6.519   4.930
13599TIP3    H240755   4.398   6.402   4.963
13600TIP3   OH240756   6.047   6.764   3.106
13600TIP3    H140757   5.966   6.730   3.067
13600TIP3    H240758   6.018   6.838   3.159
13601TIP3   OH240759   2.051   3.944   5.095
13601TIP3    H140760   2.040   4.037   5.116
13601TIP3    H240761   2.126   3.916   5.147
13602TIP3   OH240762   6.923   7.496   2.632
13602TIP3    H140763   6.878   7.576   2.660
13602TIP3    H240764   6.951   7.515   2.542
13603TIP3   OH240765   4.338   1.821   3.175
13603TIP3    H140766   4.425   1.798   3.208
13603TIP3    H240767   4.297   1.737   3.155
13604TIP3   OH240768   1.920   6.383   0.380
13604TIP3    H140769   1.935   6.325   0.455
13604TIP3    H240770   1.923   6.471   0.416
13605TIP3   OH240771   3.077   7.024   2.818
13605TIP3    H140772   3.109   7.024   2.908
13605TIP3    H240773   3.079   6.932   2.791
13606TIP3   OH240774   7.131   2.954   1.985
13606TIP3    H140775   7.072   2.939   2.058
13606TIP3    H240776   7.101   2.894   1.917
13607TIP3   OH240777   2.782   2.061   0.333
13607TIP3    H140778   2.827   2.116   0.397
13607TIP3    H240779   2.853   2.023   0.280
13608TIP3   OH240780   2.851   0.126   0.893
13608TIP3    H140781   2.919   0.192   0.902
13608TIP3    H240782   2.879   0.053   0.947
13609TIP3   OH240783   0.825   2.843   5.551
13609TIP3    H140784   0.762   2.909   5.523
13609TIP3    H240785   0.893   2.844   5.483
13610TIP3   OH240786   3.970   6.334   2.474
13610TIP3    H140787   4.038   6.267   2.477
13610TIP3    H240788   3.967   6.369   2.564
13611TIP3   OH240789   1.993   5.434   0.473
13611TIP3    H140790   1.920   5.378   0.446
13611TIP3    H240791   1.964   5.523   0.454
13612TIP3   OH240792   5.346   7.647   0.077
13612TIP3    H140793   5.428   7.695   0.066
13612TIP3    H240794   5.332   7.645   0.172
13613TIP3   OH240795   3.112   1.684   3.180
13613TIP3    H140796   3.129   1.600   3.224
13613TIP3    H240797   3.056   1.732   3.241
13614TIP3   OH240798   6.377   7.562   6.716
13614TIP3    H140799   6.468   7.591   6.712
13614TIP3    H240800   6.338   7.595   6.635
13615TIP3   OH240801   0.369   5.615   3.627
13615TIP3    H140802   0.334   5.653   3.707
13615TIP3    H240803   0.464   5.615   3.641
13616TIP3   OH240804   7.471   4.826   0.161
13616TIP3    H140805   7.464   4.819   0.066
13616TIP3    H240806   7.515   4.745   0.188
13617TIP3   OH240807   3.952   0.824   5.105
13617TIP3    H140808   3.938   0.830   5.200
13617TIP3    H240809   3.895   0.753   5.077
13618TIP3   OH240810   6.832   5.303   0.082
13618TIP3    H140811   6.743   5.281   0.058
13618TIP3    H240812   6.823   5.372   0.148
13619TIP3   OH240813   6.450   5.723   2.225
13619TIP3    H140814   6.540   5.701   2.203
13619TIP3    H240815   6.408   5.745   2.142
13620TIP3   OH240816   5.060   3.991  -0.011
13620TIP3    H140817   5.094   3.925  -0.072
13620TIP3    H240818   5.026   4.060  -0.068
13621TIP3   OH240819   1.167   6.827   3.560
13621TIP3    H140820   1.099   6.888   3.587
13621TIP3    H240821   1.240   6.844   3.620
13622TIP3   OH240822   6.174   0.902   2.347
13622TIP3    H140823   6.216   0.926   2.264
13622TIP3    H240824   6.080   0.915   2.331
13623TIP3   OH240825   1.201   3.145   6.633
13623TIP3    H140826   1.211   3.065   6.684
13623TIP3    H240827   1.107   3.153   6.619
13624TIP3   OH240828   1.583   1.023   3.129
13624TIP3    H140829   1.621   0.935   3.119
13624TIP3    H240830   1.659   1.080   3.141
13625TIP3   OH240831   3.748   5.596   3.989
13625TIP3    H140832   3.784   5.669   3.939
13625TIP3    H240833   3.822   5.563   4.040
13626TIP3   OH240834   3.164   1.877   4.550
13626TIP3    H140835   3.097   1.865   4.483
13626TIP3    H240836   3.242   1.834   4.513
13627TIP3   OH240837   2.243   1.217   6.265
13627TIP3    H140838   2.320   1.267   6.238
13627TIP3    H240839   2.201   1.272   6.331
13628TIP3   OH240840   4.090   2.851   0.582
13628TIP3    H140841   4.064   2.762   0.560
13628TIP3    H240842   4.164   2.840   0.641
13629TIP3   OH240843   2.692   6.395   1.307
13629TIP3    H140844   2.604   6.425   1.331
13629TIP3    H240845   2.750   6.466   1.334
13630TIP3   OH240846   6.347   4.861   4.228
13630TIP3    H140847   6.260   4.845   4.264
13630TIP3    H240848   6.404   4.801   4.277
13631TIP3   OH240849   3.307   1.704   6.413
13631TIP3    H140850   3.305   1.800   6.421
13631TIP3    H240851   3.386   1.687   6.362
13632TIP3   OH240852   0.649   7.222   4.560
13632TIP3    H140853   0.638   7.134   4.598
13632TIP3    H240854   0.715   7.211   4.492
13633TIP3   OH240855   3.187   0.234   3.832
13633TIP3    H140856   3.189   0.220   3.927
13633TIP3    H240857   3.111   0.291   3.818
13634TIP3   OH240858   1.932   5.541   5.423
13634TIP3    H140859   1.976   5.456   5.431
13634TIP3    H240860   1.890   5.539   5.337
13635TIP3   OH240861   2.346   4.592   4.365
13635TIP3    H140862   2.372   4.660   4.427
13635TIP3    H240863   2.370   4.510   4.408
13636TIP3   OH240864   4.016   5.868   4.000
13636TIP3    H140865   4.073   5.926   3.948
13636TIP3    H240866   4.065   5.786   4.005
13637TIP3   OH240867   5.851   5.972   4.489
13637TIP3    H140868   5.770   5.996   4.444
13637TIP3    H240869   5.853   5.876   4.486
13638TIP3   OH240870   1.562   2.146   1.658
13638TIP3    H140871   1.616   2.092   1.716
13638TIP3    H240872   1.614   2.225   1.644
13639TIP3   OH240873   1.933   0.306   1.318
13639TIP3    H140874   2.019   0.303   1.361
13639TIP3    H240875   1.937   0.236   1.253
13640TIP3   OH240876   7.297   0.696   3.930
13640TIP3    H140877   7.305   0.661   4.019
13640TIP3    H240878   7.372   0.755   3.921
13641TIP3   OH240879   5.368   0.802   1.983
13641TIP3    H140880   5.443   0.816   2.041
13641TIP3    H240881   5.401   0.824   1.896
13642TIP3   OH240882   3.806   6.974   2.533
13642TIP3    H140883   3.795   6.886   2.498
13642TIP3    H240884   3.831   7.027   2.457
13643TIP3   OH240885   4.786   0.633   6.503
13643TIP3    H140886   4.823   0.548   6.482
13643TIP3    H240887   4.830   0.694   6.444
13644TIP3   OH240888   1.512   5.647   1.183
13644TIP3    H140889   1.495   5.679   1.272
13644TIP3    H240890   1.520   5.726   1.130
13645TIP3   OH240891   0.710   4.216   6.328
13645TIP3    H140892   0.741   4.128   6.348
13645TIP3    H240893   0.643   4.234   6.395
13646TIP3   OH240894   6.634   6.635   0.980
13646TIP3    H140895   6.567   6.631   0.912
13646TIP3    H240896   6.614   6.715   1.029
13647TIP3   OH240897   0.202   0.936   2.842
13647TIP3    H140898   0.293   0.946   2.868
13647TIP3    H240899   0.185   1.011   2.785
13648TIP3   OH240900   4.312   0.408   5.356
13648TIP3    H140901   4.322   0.317   5.384
13648TIP3    H240902   4.321   0.404   5.261
13649TIP3   OH240903   7.465   7.881   6.406
13649TIP3    H140904   7.520   7.812   6.444
13649TIP3    H240905   7.408   7.835   6.345
13650TIP3   OH240906   4.857   2.753   1.109
13650TIP3    H140907   4.794   2.683   1.094
13650TIP3    H240908   4.942   2.710   1.106
13651TIP3   OH240909   0.866   1.321   1.862
13651TIP3    H140910   0.791   1.361   1.819
13651TIP3    H240911   0.942   1.366   1.823
13652TIP3   OH240912   2.143   7.092   2.997
13652TIP3    H140913   2.083   7.162   2.969
13652TIP3    H240914   2.156   7.109   3.090
13653TIP3   OH240915   6.726   4.462   3.450
13653TIP3    H140916   6.780   4.526   3.404
13653TIP3    H240917   6.655   4.442   3.388
13654TIP3   OH240918   1.441   0.929   5.916
13654TIP3    H140919   1.438   0.951   5.823
13654TIP3    H240920   1.357   0.887   5.934
13655TIP3   OH240921   5.686   0.453   4.541
13655TIP3    H140922   5.675   0.419   4.452
13655TIP3    H240923   5.676   0.377   4.598
13656TIP3   OH240924   0.312   4.254   2.432
13656TIP3    H140925   0.376   4.183   2.430
13656TIP3    H240926   0.332   4.302   2.512
13657TIP3   OH240927   1.504   1.110   6.730
13657TIP3    H140928   1.579   1.055   6.710
13657TIP3    H240929   1.529   1.157   6.809
13658TIP3   OH240930   0.237   5.528   1.489
13658TIP3    H140931   0.209   5.573   1.568
13658TIP3    H240932   0.212   5.586   1.417
13659TIP3   OH240933   6.868   7.705   6.520
13659TIP3    H140934   6.956   7.742   6.507
13659TIP3    H240935   6.813   7.751   6.457
13660TIP3   OH240936   1.345   1.931   1.068
13660TIP3    H140937   1.397   1.908   1.145
13660TIP3    H240938   1.266   1.971   1.104
13661TIP3   OH240939   1.725   3.671   4.366
13661TIP3    H140940   1.654   3.736   4.358
13661TIP3    H240941   1.777   3.682   4.286
13662TIP3   OH240942   6.761   7.387   3.196
13662TIP3    H140943   6.801   7.468   3.228
13662TIP3    H240944   6.774   7.325   3.268
13663TIP3   OH240945   3.074   4.135   2.633
13663TIP3    H140946   3.077   4.046   2.599
13663TIP3    H240947   2.997   4.175   2.592
13664TIP3   OH240948   0.995   4.620   4.593
13664TIP3    H140949   0.995   4.604   4.499
13664TIP3    H240950   1.083   4.596   4.622
13665TIP3   OH240951   5.649   7.393   2.194
13665TIP3    H140952   5.679   7.477   2.229
13665TIP3    H240953   5.729   7.349   2.166
13666TIP3   OH240954   1.870   4.895   2.577
13666TIP3    H140955   1.890   4.988   2.572
13666TIP3    H240956   1.778   4.891   2.603
13667TIP3   OH240957   7.652   5.803   5.055
13667TIP3    H140958   7.654   5.734   5.122
13667TIP3    H240959   7.738   5.846   5.063
13668TIP3   OH240960   7.443   0.279   1.578
13668TIP3    H140961   7.405   0.365   1.599
13668TIP3    H240962   7.469   0.287   1.486
13669TIP3   OH240963   0.022   6.217   1.067
13669TIP3    H140964   0.093   6.242   1.008
13669TIP3    H240965  -0.045   6.180   1.009
13670TIP3   OH240966   2.777   2.894   2.881
13670TIP3    H140967   2.733   2.836   2.943
13670TIP3    H240968   2.707   2.927   2.825
13671TIP3   OH240969   0.088   7.045   3.851
13671TIP3    H140970   0.129   7.117   3.803
13671TIP3    H240971   0.160   6.983   3.868
13672TIP3   OH240972   1.158   4.100   6.634
13672TIP3    H140973   1.112   4.017   6.639
13672TIP3    H240974   1.246   4.078   6.603
13673TIP3   OH240975   5.260   6.775   4.809
13673TIP3    H140976   5.291   6.693   4.847
13673TIP3    H240977   5.198   6.748   4.740
13674TIP3   OH240978   3.851   7.670   0.053
13674TIP3    H140979   3.879   7.639   0.139
13674TIP3    H240980   3.873   7.598  -0.006
13675TIP3   OH240981   6.808   4.121   2.539
13675TIP3    H140982   6.814   4.116   2.444
13675TIP3    H240983   6.897   4.141   2.568
13676TIP3   OH240984   0.747   1.685   2.329
13676TIP3    H140985   0.775   1.680   2.420
13676TIP3    H240986   0.788   1.610   2.287
13677TIP3   OH240987   5.535   0.017   5.101
13677TIP3    H140988   5.576   0.011   5.188
13677TIP3    H240989   5.443  -0.008   5.117
13678TIP3   OH240990   5.448   2.122   4.684
13678TIP3    H140991   5.353   2.116   4.694
13678TIP3    H240992   5.476   2.184   4.751
13679TIP3   OH240993   7.993   2.128   6.442
13679TIP3    H140994   7.972   2.124   6.535
13679TIP3    H240995   7.979   2.039   6.410
13680TIP3   OH240996   0.722   4.485   6.504
13680TIP3    H140997   0.635   4.514   6.532
13680TIP3    H240998   0.721   4.495   6.408
13681TIP3   OH240999   5.906   3.285   2.232
13681TIP3    H141000   5.958   3.246   2.161
13681TIP3    H241001   5.953   3.364   2.256
13682TIP3   OH241002   6.386   2.339   3.447
13682TIP3    H141003   6.439   2.390   3.385
13682TIP3    H241004   6.334   2.281   3.392
13683TIP3   OH241005   4.835   2.636   6.102
13683TIP3    H141006   4.766   2.655   6.038
13683TIP3    H241007   4.885   2.717   6.108
13684TIP3   OH241008   7.654   1.794  -0.070
13684TIP3    H141009   7.720   1.753  -0.014
13684TIP3    H241010   7.671   1.759  -0.157
13685TIP3   OH241011   5.198   1.393   1.802
13685TIP3    H141012   5.285   1.422   1.775
13685TIP3    H241013   5.214   1.314   1.854
13686TIP3   OH241014   1.820   1.972   6.186
13686TIP3    H141015   1.829   1.890   6.234
13686TIP3    H241016   1.815   2.039   6.254
13687TIP3   OH241017   1.607   0.984   2.011
13687TIP3    H141018   1.611   1.065   1.960
13687TIP3    H241019   1.689   0.983   2.061
13688TIP3   OH241020   7.078   3.869   3.028
13688TIP3    H141021   7.071   3.883   2.934
13688TIP3    H241022   7.115   3.950   3.063
13689TIP3   OH241023   2.991   5.391   6.254
13689TIP3    H141024   2.961   5.353   6.172
13689TIP3    H241025   3.019   5.480   6.231
13690TIP3   OH241026   3.342   4.092   5.066
13690TIP3    H141027   3.326   4.074   4.973
13690TIP3    H241028   3.368   4.007   5.102
13691TIP3   OH241029   2.981   1.955   5.329
13691TIP3    H141030   2.895   1.994   5.319
13691TIP3    H241031   3.040   2.028   5.346
13692TIP3   OH241032   5.650   1.928   2.867
13692TIP3    H141033   5.562   1.911   2.834
13692TIP3    H241034   5.695   1.844   2.862
13693TIP3   OH241035   1.591   6.253   2.957
13693TIP3    H141036   1.515   6.254   3.016
13693TIP3    H241037   1.664   6.282   3.012
13694TIP3   OH241038   5.712   1.463   5.806
13694TIP3    H141039   5.726   1.510   5.888
13694TIP3    H241040   5.618   1.446   5.804
13695TIP3   OH241041   2.232   4.572   2.696
13695TIP3    H141042   2.244   4.510   2.767
13695TIP3    H241043   2.264   4.527   2.618
13696TIP3   OH241044   1.738   7.610   2.871
13696TIP3    H141045   1.752   7.680   2.808
13696TIP3    H241046   1.759   7.649   2.956
13697TIP3   OH241047   7.386   0.798   6.160
13697TIP3    H141048   7.445   0.803   6.235
13697TIP3    H241049   7.439   0.829   6.086
13698TIP3   OH241050   7.163   0.679   2.943
13698TIP3    H141051   7.127   0.722   3.021
13698TIP3    H241052   7.249   0.647   2.970
13699TIP3   OH241053   1.647   3.914   0.235
13699TIP3    H141054   1.723   3.902   0.178
13699TIP3    H241055   1.581   3.855   0.198
13700TIP3   OH241056   5.676   3.082   3.238
13700TIP3    H141057   5.607   3.141   3.207
13700TIP3    H241058   5.686   3.018   3.167
13701TIP3   OH241059   6.997   0.095   5.712
13701TIP3    H141060   7.001   0.003   5.734
13701TIP3    H241061   6.914   0.125   5.747
13702TIP3   OH241062   2.647   5.811   3.459
13702TIP3    H141063   2.739   5.829   3.479
13702TIP3    H241064   2.627   5.870   3.386
13703TIP3   OH241065   3.114   6.241   5.220
13703TIP3    H141066   3.203   6.211   5.201
13703TIP3    H241067   3.122   6.287   5.303
13704TIP3   OH241068   5.941   4.636   2.711
13704TIP3    H141069   5.923   4.566   2.649
13704TIP3    H241070   5.946   4.715   2.657
13705TIP3   OH241071   7.338   5.396   1.007
13705TIP3    H141072   7.371   5.314   0.970
13705TIP3    H241073   7.320   5.452   0.931
13706TIP3   OH241074   1.030   0.921   0.549
13706TIP3    H141075   1.021   1.011   0.519
13706TIP3    H241076   0.940   0.892   0.567
13707TIP3   OH241077   2.512   3.934   2.149
13707TIP3    H141078   2.440   3.886   2.189
13707TIP3    H241079   2.500   4.024   2.180
13708TIP3   OH241080   4.684   5.683   0.206
13708TIP3    H141081   4.745   5.639   0.265
13708TIP3    H241082   4.658   5.762   0.254
13709TIP3   OH241083   1.573   6.328   2.508
13709TIP3    H141084   1.511   6.278   2.561
13709TIP3    H241085   1.643   6.267   2.487
13710TIP3   OH241086   7.287   0.620   3.529
13710TIP3    H141087   7.248   0.533   3.535
13710TIP3    H241088   7.347   0.625   3.604
13711TIP3   OH241089   1.463   5.970   6.728
13711TIP3    H141090   1.541   5.914   6.721
13711TIP3    H241091   1.470   6.030   6.654
13712TIP3   OH241092   7.258   5.789   1.170
13712TIP3    H141093   7.328   5.729   1.142
13712TIP3    H241094   7.272   5.798   1.264
13713TIP3   OH241095   1.667   6.240   2.059
13713TIP3    H141096   1.762   6.232   2.070
13713TIP3    H241097   1.644   6.170   1.997
13714TIP3   OH241098   6.787   0.564   0.944
13714TIP3    H141099   6.776   0.649   0.987
13714TIP3    H241100   6.881   0.554   0.933
13715TIP3   OH241101   3.484   0.161   4.044
13715TIP3    H141102   3.496   0.178   3.950
13715TIP3    H241103   3.463   0.068   4.049
13716TIP3   OH241104   4.392   6.667   6.378
13716TIP3    H141105   4.456   6.651   6.309
13716TIP3    H241106   4.439   6.647   6.459
13717TIP3   OH241107   3.278   0.225   4.341
13717TIP3    H141108   3.342   0.286   4.305
13717TIP3    H241109   3.315   0.196   4.424
13718TIP3   OH241110   7.924   6.387   2.009
13718TIP3    H141111   7.907   6.441   2.086
13718TIP3    H241112   7.938   6.450   1.938
13719TIP3   OH241113   7.025   2.622   2.840
13719TIP3    H141114   7.035   2.682   2.766
13719TIP3    H241115   7.089   2.553   2.824
13720TIP3   OH241116   0.464   6.141   1.759
13720TIP3    H141117   0.396   6.125   1.694
13720TIP3    H241118   0.480   6.055   1.799
13721TIP3   OH241119   7.540   2.507   5.275
13721TIP3    H141120   7.628   2.495   5.310
13721TIP3    H241121   7.531   2.437   5.210
13722TIP3   OH241122   5.130   3.644   6.184
13722TIP3    H141123   5.039   3.615   6.177
13722TIP3    H241124   5.167   3.628   6.097
13723TIP3   OH241125   4.780   3.278   6.032
13723TIP3    H141126   4.848   3.225   5.991
13723TIP3    H241127   4.707   3.275   5.971
13724TIP3   OH241128   5.306   1.534   3.962
13724TIP3    H141129   5.219   1.565   3.987
13724TIP3    H241130   5.320   1.456   4.016
13725TIP3   OH241131   0.827   1.361   4.560
13725TIP3    H141132   0.906   1.413   4.573
13725TIP3    H241133   0.855   1.271   4.570
13726TIP3   OH241134   5.683   3.483   4.593
13726TIP3    H141135   5.738   3.486   4.515
13726TIP3    H241136   5.646   3.394   4.593
13727TIP3   OH241137   1.522   1.962   4.862
13727TIP3    H141138   1.438   1.920   4.850
13727TIP3    H241139   1.527   1.978   4.957
13728TIP3   OH241140   2.656   6.431   2.920
13728TIP3    H141141   2.722   6.426   2.851
13728TIP3    H241142   2.656   6.523   2.947
13729TIP3   OH241143   3.592   0.958   4.441
13729TIP3    H141144   3.661   0.895   4.421
13729TIP3    H241145   3.602   0.976   4.534
13730TIP3   OH241146   1.517   6.603   2.647
13730TIP3    H141147   1.547   6.618   2.737
13730TIP3    H241148   1.556   6.519   2.622
13731TIP3   OH241149   0.839   0.788   1.956
13731TIP3    H141150   0.751   0.787   1.920
13731TIP3    H241151   0.868   0.697   1.950
13732TIP3   OH241152   2.813   6.836   5.247
13732TIP3    H141153   2.767   6.761   5.210
13732TIP3    H241154   2.893   6.844   5.194
13733TIP3   OH241155   3.473   4.356   6.297
13733TIP3    H141156   3.395   4.307   6.274
13733TIP3    H241157   3.487   4.336   6.390
13734TIP3   OH241158   6.621   4.861   5.704
13734TIP3    H141159   6.562   4.934   5.721
13734TIP3    H241160   6.609   4.842   5.611
13735TIP3   OH241161   5.753   3.655   3.795
13735TIP3    H141162   5.817   3.726   3.797
13735TIP3    H241163   5.740   3.632   3.887
13736TIP3   OH241164   4.571   0.253   6.439
13736TIP3    H141165   4.538   0.308   6.368
13736TIP3    H241166   4.577   0.312   6.514
13737TIP3   OH241167   0.312   3.641   3.911
13737TIP3    H141168   0.298   3.548   3.892
13737TIP3    H241169   0.235   3.668   3.961
13738TIP3   OH241170   1.294   7.295   5.270
13738TIP3    H141171   1.210   7.287   5.224
13738TIP3    H241172   1.302   7.214   5.319
13739TIP3   OH241173   4.703   3.165   2.620
13739TIP3    H141174   4.680   3.106   2.548
13739TIP3    H241175   4.796   3.148   2.636
13740TIP3   OH241176   0.604   3.251   4.281
13740TIP3    H141177   0.685   3.212   4.313
13740TIP3    H241178   0.599   3.336   4.324
13741TIP3   OH241179   0.594   0.893   1.100
13741TIP3    H141180   0.666   0.936   1.147
13741TIP3    H241181   0.515   0.919   1.149
13742TIP3   OH241182   8.224   2.907   2.186
13742TIP3    H141183   8.153   2.925   2.247
13742TIP3    H241184   8.295   2.872   2.240
13743TIP3   OH241185   0.697   7.332   6.431
13743TIP3    H141186   0.782   7.375   6.434
13743TIP3    H241187   0.633   7.403   6.444
13744TIP3   OH241188   1.524   4.639   5.482
13744TIP3    H141189   1.554   4.676   5.399
13744TIP3    H241190   1.563   4.552   5.484
13745TIP3   OH241191   7.760   7.341   3.783
13745TIP3    H141192   7.754   7.347   3.878
13745TIP3    H241193   7.819   7.267   3.768
13746TIP3   OH241194   7.394   7.192   3.782
13746TIP3    H141195   7.406   7.247   3.859
13746TIP3    H241196   7.304   7.207   3.756
13747TIP3   OH241197   7.432   5.602   3.450
13747TIP3    H141198   7.393   5.688   3.436
13747TIP3    H241199   7.380   5.542   3.397
13748TIP3   OH241200   0.142   5.203   0.141
13748TIP3    H141201   0.057   5.243   0.124
13748TIP3    H241202   0.139   5.177   0.233
13749TIP3   OH241203   0.835   3.746   2.765
13749TIP3    H141204   0.922   3.763   2.801
13749TIP3    H241205   0.799   3.676   2.819
13750TIP3   OH241206   4.589   1.560  -0.046
13750TIP3    H141207   4.569   1.653  -0.041
13750TIP3    H241208   4.674   1.556  -0.090
13751TIP3   OH241209   4.231   1.649   0.884
13751TIP3    H141210   4.252   1.719   0.946
13751TIP3    H241211   4.136   1.652   0.874
13752TIP3   OH241212   5.730   4.969   0.372
13752TIP3    H141213   5.742   4.897   0.310
13752TIP3    H241214   5.645   4.951   0.413
13753TIP3   OH241215   5.083   4.913   0.132
13753TIP3    H141216   5.072   4.863   0.051
13753TIP3    H241217   5.013   4.978   0.131
13754TIP3   OH241218   1.353   2.170   4.652
13754TIP3    H141219   1.384   2.248   4.698
13754TIP3    H241220   1.387   2.096   4.704
13755TIP3   OH241221   0.652   2.032   1.002
13755TIP3    H141222   0.575   2.053   1.056
13755TIP3    H241223   0.712   1.988   1.062
13756TIP3   OH241224   5.825   0.784   4.793
13756TIP3    H141225   5.909   0.815   4.826
13756TIP3    H241226   5.773   0.863   4.782
13757TIP3   OH241227   4.365   3.224   0.527
13757TIP3    H141228   4.299   3.292   0.509
13757TIP3    H241229   4.317   3.141   0.517
13758TIP3   OH241230   4.143   2.768   2.415
13758TIP3    H141231   4.125   2.861   2.401
13758TIP3    H241232   4.076   2.740   2.476
13759TIP3   OH241233   3.847   4.604   4.418
13759TIP3    H141234   3.923   4.661   4.425
13759TIP3    H241235   3.873   4.523   4.463
13760TIP3   OH241236   3.237   6.230   0.684
13760TIP3    H141237   3.218   6.288   0.758
13760TIP3    H241238   3.270   6.149   0.723
13761TIP3   OH241239   1.942   3.408   2.639
13761TIP3    H141240   1.898   3.450   2.565
13761TIP3    H241241   1.938   3.472   2.709
13762TIP3   OH241242   3.583   2.704   3.361
13762TIP3    H141243   3.503   2.651   3.351
13762TIP3    H241244   3.595   2.744   3.275
13763TIP3   OH241245   5.780   5.519   6.723
13763TIP3    H141246   5.795   5.459   6.796
13763TIP3    H241247   5.699   5.487   6.683
13764TIP3   OH241248   3.865   4.463   0.454
13764TIP3    H141249   3.899   4.488   0.368
13764TIP3    H241250   3.896   4.532   0.512
13765TIP3   OH241251   1.462   5.421   1.446
13765TIP3    H141252   1.444   5.463   1.530
13765TIP3    H241253   1.383   5.438   1.394
13766TIP3   OH241254   2.088   5.248   1.315
13766TIP3    H141255   2.047   5.162   1.310
13766TIP3    H241256   2.170   5.233   1.362
13767TIP3   OH241257   7.226   7.221   6.377
13767TIP3    H141258   7.136   7.191   6.396
13767TIP3    H241259   7.270   7.217   6.462
13768TIP3   OH241260   3.839   7.818   6.710
13768TIP3    H141261   3.846   7.744   6.650
13768TIP3    H241262   3.788   7.784   6.783
13769TIP3   OH241263   3.936   5.434   0.228
13769TIP3    H141264   4.010   5.422   0.287
13769TIP3    H241265   3.860   5.436   0.287
13770TIP3   OH241266   7.420   7.004   4.201
13770TIP3    H141267   7.345   7.003   4.260
13770TIP3    H241268   7.461   6.918   4.213
13771TIP3   OH241269   7.832   0.316   4.974
13771TIP3    H141270   7.780   0.380   5.022
13771TIP3    H241271   7.774   0.287   4.903
13772TIP3   OH241272   1.086   1.670  -0.009
13772TIP3    H141273   1.129   1.596   0.033
13772TIP3    H241274   1.157   1.733  -0.025
13773TIP3   OH241275   4.713   3.962   2.019
13773TIP3    H141276   4.660   4.041   2.009
13773TIP3    H241277   4.783   3.987   2.079
13774TIP3   OH241278   4.304   2.062   2.374
13774TIP3    H141279   4.271   2.151   2.381
13774TIP3    H241280   4.398   2.069   2.390
13775TIP3   OH241281   5.378   1.172   5.376
13775TIP3    H141282   5.377   1.103   5.311
13775TIP3    H241283   5.434   1.241   5.339
13776TIP3   OH241284   2.539   3.465   4.889
13776TIP3    H141285   2.489   3.530   4.938
13776TIP3    H241286   2.630   3.481   4.912
13777TIP3   OH241287   7.851   4.437   4.074
13777TIP3    H141288   7.849   4.354   4.027
13777TIP3    H241289   7.914   4.423   4.145
13778TIP3   OH241290   4.701   4.831   5.125
13778TIP3    H141291   4.651   4.792   5.053
13778TIP3    H241292   4.784   4.858   5.085
13779TIP3   OH241293   3.145   4.886   3.959
13779TIP3    H141294   3.146   4.835   3.879
13779TIP3    H241295   3.226   4.862   4.004
13780TIP3   OH241296   0.835   2.456   5.084
13780TIP3    H141297   0.775   2.392   5.045
13780TIP3    H241298   0.779   2.511   5.138
13781TIP3   OH241299   7.684   2.195   0.977
13781TIP3    H141300   7.662   2.208   0.885
13781TIP3    H241301   7.635   2.261   1.025
13782TIP3   OH241302   2.515   6.583   3.487
13782TIP3    H141303   2.545   6.492   3.484
13782TIP3    H241304   2.462   6.594   3.408
13783TIP3   OH241305   5.164   3.325   0.294
13783TIP3    H141306   5.199   3.281   0.371
13783TIP3    H241307   5.241   3.357   0.247
13784TIP3   OH241308   0.138   4.243   3.130
13784TIP3    H141309   0.152   4.192   3.050
13784TIP3    H241310   0.165   4.185   3.201
13785TIP3   OH241311   2.876   2.238   4.521
13785TIP3    H141312   2.945   2.186   4.561
13785TIP3    H241313   2.918   2.279   4.445
13786TIP3   OH241314   4.478   3.989   2.689
13786TIP3    H141315   4.442   3.916   2.739
13786TIP3    H241316   4.410   4.056   2.691
13787TIP3   OH241317   6.448   6.954   6.667
13787TIP3    H141318   6.539   6.933   6.688
13787TIP3    H241319   6.453   7.038   6.621
13788TIP3   OH241320   5.109   7.715   3.335
13788TIP3    H141321   5.033   7.774   3.329
13788TIP3    H241322   5.086   7.641   3.279
13789TIP3   OH241323   0.629   5.372   0.139
13789TIP3    H141324   0.666   5.291   0.174
13789TIP3    H241325   0.706   5.425   0.115
13790TIP3   OH241326   3.597   0.415   0.354
13790TIP3    H141327   3.678   0.461   0.331
13790TIP3    H241328   3.621   0.323   0.353
13791TIP3   OH241329   1.816   5.527   4.044
13791TIP3    H141330   1.733   5.520   4.091
13791TIP3    H241331   1.807   5.605   3.990
13792TIP3   OH241332   7.280   3.979   4.276
13792TIP3    H141333   7.273   4.043   4.205
13792TIP3    H241334   7.200   3.927   4.269
13793TIP3   OH241335   8.020   2.772   4.780
13793TIP3    H141336   7.993   2.835   4.713
13793TIP3    H241337   7.938   2.745   4.822
13794TIP3   OH241338   1.258   2.189   4.077
13794TIP3    H141339   1.256   2.100   4.041
13794TIP3    H241340   1.326   2.186   4.145
13795TIP3   OH241341   2.200   1.034   3.347
13795TIP3    H141342   2.177   1.088   3.423
13795TIP3    H241343   2.192   1.094   3.273
13796TIP3   OH241344   7.829   3.660   0.126
13796TIP3    H141345   7.848   3.726   0.192
13796TIP3    H241346   7.835   3.706   0.042
13797TIP3   OH241347   4.828   7.238   0.180
13797TIP3    H141348   4.834   7.209   0.089
13797TIP3    H241349   4.920   7.250   0.206
13798TIP3   OH241350   1.216   5.984   4.297
13798TIP3    H141351   1.207   6.074   4.329
13798TIP3    H241352   1.282   5.946   4.355
13799TIP3   OH241353   4.306   6.873   3.401
13799TIP3    H141354   4.236   6.807   3.399
13799TIP3    H241355   4.345   6.869   3.313
13800TIP3   OH241356   5.020   3.276   5.780
13800TIP3    H141357   5.116   3.282   5.780
13800TIP3    H241358   4.996   3.281   5.687
13801TIP3   OH241359   0.732   1.538   5.855
13801TIP3    H141360   0.661   1.479   5.827
13801TIP3    H241361   0.808   1.480   5.866
13802TIP3   OH241362   8.235   1.222   5.484
13802TIP3    H141363   8.189   1.288   5.432
13802TIP3    H241364   8.177   1.205   5.558
13803TIP3   OH241365   3.787   5.599   3.409
13803TIP3    H141366   3.785   5.692   3.435
13803TIP3    H241367   3.772   5.551   3.490
13804TIP3   OH241368   2.533   2.802   0.268
13804TIP3    H141369   2.600   2.783   0.333
13804TIP3    H241370   2.563   2.759   0.188
13805TIP3   OH241371   1.621   6.720   5.620
13805TIP3    H141372   1.704   6.735   5.665
13805TIP3    H241373   1.602   6.628   5.636
13806TIP3   OH241374   7.051   3.456   6.321
13806TIP3    H141375   7.104   3.378   6.339
13806TIP3    H241376   6.965   3.422   6.297
13807TIP3   OH241377   7.656   4.263   2.973
13807TIP3    H141378   7.733   4.298   2.927
13807TIP3    H241379   7.606   4.220   2.904
13808TIP3   OH241380   7.322   6.394   4.029
13808TIP3    H141381   7.237   6.428   4.000
13808TIP3    H241382   7.331   6.426   4.119
13809TIP3   OH241383   5.483   4.797   2.275
13809TIP3    H141384   5.552   4.857   2.244
13809TIP3    H241385   5.524   4.711   2.277
13810TIP3   OH241386   5.914   1.529   4.986
13810TIP3    H141387   5.868   1.536   4.903
13810TIP3    H241388   5.948   1.618   5.002
13811TIP3   OH241389   0.191   6.386   3.951
13811TIP3    H141390   0.126   6.401   3.882
13811TIP3    H241391   0.186   6.292   3.968
13812TIP3   OH241392   3.810   3.261   6.786
13812TIP3    H141393   3.739   3.266   6.722
13812TIP3    H241394   3.767   3.269   6.871
13813TIP3   OH241395   6.665   3.658   5.247
13813TIP3    H141396   6.688   3.721   5.316
13813TIP3    H241397   6.591   3.698   5.202
13814TIP3   OH241398   0.142   2.510   4.982
13814TIP3    H141399   0.145   2.434   4.924
13814TIP3    H241400   0.070   2.562   4.948
13815TIP3   OH241401   0.893   6.900   6.223
13815TIP3    H141402   0.857   6.899   6.312
13815TIP3    H241403   0.941   6.817   6.216
13816TIP3   OH241404   1.750   2.610   1.265
13816TIP3    H141405   1.811   2.584   1.333
13816TIP3    H241406   1.799   2.599   1.183
13817TIP3   OH241407   3.111   1.732   4.166
13817TIP3    H141408   3.086   1.775   4.084
13817TIP3    H241409   3.207   1.735   4.168
13818TIP3   OH241410   6.305   6.430   1.041
13818TIP3    H141411   6.379   6.369   1.034
13818TIP3    H241412   6.243   6.386   1.098
13819TIP3   OH241413   5.312   0.936   0.114
13819TIP3    H141414   5.351   0.848   0.108
13819TIP3    H241415   5.347   0.972   0.196
13820TIP3   OH241416   6.520   7.808   6.003
13820TIP3    H141417   6.561   7.836   5.921
13820TIP3    H241418   6.431   7.785   5.979
13821TIP3   OH241419   1.212   7.731   4.607
13821TIP3    H141420   1.135   7.727   4.663
13821TIP3    H241421   1.198   7.808   4.552
13822TIP3   OH241422   7.010   2.065   4.264
13822TIP3    H141423   7.092   2.109   4.288
13822TIP3    H241424   6.974   2.035   4.348
13823TIP3   OH241425   2.075   7.524   4.628
13823TIP3    H141426   2.056   7.435   4.600
13823TIP3    H241427   1.995   7.573   4.610
13824TIP3   OH241428   0.797   6.096   2.376
13824TIP3    H141429   0.767   6.151   2.303
13824TIP3    H241430   0.889   6.078   2.356
13825TIP3   OH241431   0.294   7.843   1.823
13825TIP3    H141432   0.384   7.815   1.836
13825TIP3    H241433   0.242   7.763   1.827
13826TIP3   OH241434   1.548   2.878   6.599
13826TIP3    H141435   1.635   2.857   6.564
13826TIP3    H241436   1.487   2.828   6.545
13827TIP3   OH241437   7.329   3.040   6.631
13827TIP3    H141438   7.405   3.030   6.688
13827TIP3    H241439   7.295   3.128   6.652
13828TIP3   OH241440   1.376   7.641   4.843
13828TIP3    H141441   1.467   7.625   4.817
13828TIP3    H241442   1.331   7.663   4.762
13829TIP3   OH241443   1.651   6.504   0.512
13829TIP3    H141444   1.662   6.540   0.424
13829TIP3    H241445   1.674   6.411   0.502
13830TIP3   OH241446   3.508   7.769   5.732
13830TIP3    H141447   3.574   7.778   5.663
13830TIP3    H241448   3.547   7.813   5.808
13831TIP3   OH241449   0.129   4.224   5.998
13831TIP3    H141450   0.199   4.159   5.991
13831TIP3    H241451   0.088   4.224   5.911
13832TIP3   OH241452   2.976   5.514   4.892
13832TIP3    H141453   2.931   5.556   4.818
13832TIP3    H241454   2.956   5.421   4.882
13833TIP3   OH241455   7.972   5.885   4.632
13833TIP3    H141456   7.990   5.809   4.687
13833TIP3    H241457   7.936   5.848   4.551
13834TIP3   OH241458   4.052   2.814   4.092
13834TIP3    H141459   4.085   2.865   4.018
13834TIP3    H241460   3.959   2.836   4.097
13835TIP3   OH241461   0.834   7.024   1.627
13835TIP3    H141462   0.913   7.046   1.577
13835TIP3    H241463   0.865   6.966   1.696
13836TIP3   OH241464   6.556   0.189   1.222
13836TIP3    H141465   6.574   0.271   1.268
13836TIP3    H241466   6.617   0.188   1.148
13837TIP3   OH241467   5.110   0.946   5.620
13837TIP3    H141468   5.192   0.898   5.633
13837TIP3    H241469   5.052   0.884   5.575
13838TIP3   OH241470   3.476   6.636   6.437
13838TIP3    H141471   3.395   6.680   6.464
13838TIP3    H241472   3.510   6.690   6.366
13839TIP3   OH241473   4.354   6.888   2.857
13839TIP3    H141474   4.344   6.983   2.863
13839TIP3    H241475   4.336   6.867   2.765
13840TIP3   OH241476   0.546   3.347   4.992
13840TIP3    H141477   0.461   3.380   5.023
13840TIP3    H241478   0.524   3.297   4.913
13841TIP3   OH241479   7.408   1.422   1.222
13841TIP3    H141480   7.489   1.419   1.171
13841TIP3    H241481   7.402   1.512   1.253
13842TIP3   OH241482   3.635   4.467   3.586
13842TIP3    H141483   3.540   4.463   3.596
13842TIP3    H241484   3.660   4.546   3.634
13843TIP3   OH241485   2.562   6.309   5.214
13843TIP3    H141486   2.635   6.357   5.253
13843TIP3    H241487   2.602   6.256   5.145
13844TIP3   OH241488   0.623   4.869   3.416
13844TIP3    H141489   0.567   4.813   3.362
13844TIP3    H241490   0.652   4.812   3.488
13845TIP3   OH241491   1.891   3.808   3.059
13845TIP3    H141492   1.908   3.718   3.033
13845TIP3    H241493   1.866   3.801   3.151
13846TIP3   OH241494   8.124   4.164   1.583
13846TIP3    H141495   8.030   4.164   1.565
13846TIP3    H241496   8.143   4.255   1.609
13847TIP3   OH241497   0.431   6.002   2.426
13847TIP3    H141498   0.443   5.958   2.342
13847TIP3    H241499   0.476   6.086   2.415
13848TIP3   OH241500   2.127   1.069   5.997
13848TIP3    H141501   2.200   1.058   6.057
13848TIP3    H241502   2.163   1.117   5.923
13849TIP3   OH241503   5.857   3.073   0.064
13849TIP3    H141504   5.915   3.048   0.136
13849TIP3    H241505   5.905   3.047  -0.015
13850TIP3   OH241506   6.523   0.614   0.526
13850TIP3    H141507   6.580   0.689   0.513
13850TIP3    H241508   6.567   0.561   0.593
13851TIP3   OH241509   2.054   3.278   5.860
13851TIP3    H141510   2.136   3.285   5.811
13851TIP3    H241511   2.020   3.192   5.836
13852TIP3   OH241512   7.392   1.489   3.817
13852TIP3    H141513   7.390   1.396   3.840
13852TIP3    H241514   7.361   1.534   3.896
13853TIP3   OH241515   1.177   4.939   4.115
13853TIP3    H141516   1.163   5.013   4.174
13853TIP3    H241517   1.264   4.954   4.078
13854TIP3   OH241518   6.158   3.346   1.788
13854TIP3    H141519   6.170   3.430   1.830
13854TIP3    H241520   6.247   3.315   1.771
13855TIP3   OH241521   4.415   0.613   4.023
13855TIP3    H141522   4.503   0.576   4.026
13855TIP3    H241523   4.370   0.575   4.098
13856TIP3   OH241524   7.002   3.997   1.270
13856TIP3    H141525   7.093   3.968   1.274
13856TIP3    H241526   6.963   3.966   1.352
13857TIP3   OH241527   4.310   3.476   4.819
13857TIP3    H141528   4.322   3.383   4.801
13857TIP3    H241529   4.277   3.479   4.909
13858TIP3   OH241530   0.447   3.770   1.575
13858TIP3    H141531   0.362   3.811   1.558
13858TIP3    H241532   0.427   3.676   1.578
13859TIP3   OH241533   6.634   2.624   3.523
13859TIP3    H141534   6.609   2.705   3.478
13859TIP3    H241535   6.722   2.642   3.557
13860TIP3   OH241536   4.561   3.149   0.325
13860TIP3    H141537   4.589   3.234   0.293
13860TIP3    H241538   4.489   3.168   0.385
13861TIP3   OH241539   4.482   7.420   2.918
13861TIP3    H141540   4.518   7.471   2.990
13861TIP3    H241541   4.542   7.346   2.908
13862TIP3   OH241542   2.876   2.872   4.781
13862TIP3    H141543   2.942   2.870   4.711
13862TIP3    H241544   2.812   2.805   4.756
13863TIP3   OH241545   0.021   3.340   3.510
13863TIP3    H141546   0.108   3.304   3.525
13863TIP3    H241547  -0.036   3.263   3.505
13864TIP3   OH241548   0.816   4.992   1.855
13864TIP3    H141549   0.844   5.027   1.940
13864TIP3    H241550   0.891   5.009   1.797
13865TIP3   OH241551   3.760   4.105   3.782
13865TIP3    H141552   3.813   4.040   3.828
13865TIP3    H241553   3.810   4.186   3.791
13866TIP3   OH241554   1.645   5.787   3.500
13866TIP3    H141555   1.591   5.741   3.435
13866TIP3    H241556   1.584   5.848   3.543
13867TIP3   OH241557   3.643   7.138   6.469
13867TIP3    H141558   3.574   7.160   6.407
13867TIP3    H241559   3.724   7.142   6.417
13868TIP3   OH241560   1.379   5.865   1.901
13868TIP3    H141561   1.461   5.838   1.943
13868TIP3    H241562   1.360   5.796   1.838
13869TIP3   OH241563   1.543   1.518   3.661
13869TIP3    H141564   1.618   1.570   3.633
13869TIP3    H241565   1.467   1.566   3.627
13870TIP3   OH241566   6.020   0.876   4.570
13870TIP3    H141567   6.019   0.807   4.504
13870TIP3    H241568   5.929   0.908   4.572
13871TIP3   OH241569   4.727   2.089   0.966
13871TIP3    H141570   4.822   2.097   0.977
13871TIP3    H241571   4.699   2.175   0.934
13872TIP3   OH241572   5.664   5.174   0.710
13872TIP3    H141573   5.649   5.106   0.644
13872TIP3    H241574   5.665   5.127   0.793
13873TIP3   OH241575   2.606   5.468   0.355
13873TIP3    H141576   2.659   5.435   0.283
13873TIP3    H241577   2.520   5.484   0.316
13874TIP3   OH241578   2.265   2.415   0.888
13874TIP3    H141579   2.292   2.462   0.967
13874TIP3    H241580   2.274   2.479   0.818
13875TIP3   OH241581   3.874   1.097   3.913
13875TIP3    H141582   3.847   1.188   3.928
13875TIP3    H241583   3.946   1.083   3.974
13876TIP3   OH241584   3.615   5.546   2.916
13876TIP3    H141585   3.697   5.564   2.963
13876TIP3    H241586   3.626   5.457   2.882
13877TIP3   OH241587   2.335   6.907   3.704
13877TIP3    H141588   2.430   6.916   3.706
13877TIP3    H241589   2.319   6.839   3.639
13878TIP3   OH241590   7.834   1.906   1.374
13878TIP3    H141591   7.750   1.888   1.416
13878TIP3    H241592   7.875   1.821   1.364
13879TIP3   OH241593   7.188   0.561   2.024
13879TIP3    H141594   7.249   0.634   2.025
13879TIP3    H241595   7.107   0.597   2.063
13880TIP3   OH241596   8.276   7.689   4.918
13880TIP3    H141597   8.305   7.599   4.903
13880TIP3    H241598   8.215   7.707   4.846
13881TIP3   OH241599   6.740   4.724   0.427
13881TIP3    H141600   6.673   4.780   0.387
13881TIP3    H241601   6.786   4.782   0.488
13882TIP3   OH241602   6.218   6.166   6.384
13882TIP3    H141603   6.280   6.193   6.317
13882TIP3    H241604   6.231   6.071   6.392
13883TIP3   OH241605   6.737   4.965   1.529
13883TIP3    H141606   6.659   4.953   1.475
13883TIP3    H241607   6.729   5.053   1.565
13884TIP3   OH241608   2.584   6.670   4.557
13884TIP3    H141609   2.510   6.726   4.533
13884TIP3    H241610   2.550   6.581   4.549
13885TIP3   OH241611   0.164   1.057   5.494
13885TIP3    H141612   0.089   1.106   5.461
13885TIP3    H241613   0.174   1.086   5.585
13886TIP3   OH241614   3.021   2.010   2.928
13886TIP3    H141615   3.114   2.019   2.909
13886TIP3    H241616   2.985   1.965   2.852
13887TIP3   OH241617   5.508   2.138   1.889
13887TIP3    H141618   5.586   2.165   1.938
13887TIP3    H241619   5.527   2.161   1.798
13888TIP3   OH241620   5.392   7.105   6.430
13888TIP3    H141621   5.486   7.112   6.412
13888TIP3    H241622   5.362   7.196   6.432
13889TIP3   OH241623   0.325   2.188   3.384
13889TIP3    H141624   0.271   2.109   3.385
13889TIP3    H241625   0.406   2.161   3.339
13890TIP3   OH241626   5.100   4.121   4.383
13890TIP3    H141627   5.078   4.142   4.292
13890TIP3    H241628   5.179   4.171   4.401
13891TIP3   OH241629   3.115   1.542   2.446
13891TIP3    H141630   3.206   1.518   2.462
13891TIP3    H241631   3.076   1.463   2.409
13892TIP3   OH241632   0.460   3.134   5.175
13892TIP3    H141633   0.448   3.057   5.119
13892TIP3    H241634   0.530   3.184   5.131
13893TIP3   OH241635   0.663   5.066   2.838
13893TIP3    H141636   0.644   5.122   2.913
13893TIP3    H241637   0.589   5.005   2.833
13894TIP3   OH241638   5.583   1.294   2.623
13894TIP3    H141639   5.489   1.283   2.611
13894TIP3    H241640   5.623   1.248   2.550
13895TIP3   OH241641   7.908   5.120   6.514
13895TIP3    H141642   7.821   5.080   6.519
13895TIP3    H241643   7.894   5.200   6.463
13896TIP3   OH241644   4.904   1.259   0.200
13896TIP3    H141645   4.931   1.327   0.138
13896TIP3    H241646   4.983   1.207   0.215
13897TIP3   OH241647   1.673   6.792   0.328
13897TIP3    H141648   1.760   6.789   0.289
13897TIP3    H241649   1.625   6.720   0.286
13898TIP3   OH241650   1.272   0.621   2.774
13898TIP3    H141651   1.300   0.704   2.812
13898TIP3    H241652   1.319   0.615   2.691
13899TIP3   OH241653   8.022   6.100   5.187
13899TIP3    H141654   8.001   6.066   5.100
13899TIP3    H241655   7.940   6.140   5.218
13900TIP3   OH241656   7.752   1.611   2.499
13900TIP3    H141657   7.760   1.566   2.415
13900TIP3    H241658   7.843   1.623   2.528
13901TIP3   OH241659   1.086   0.710   0.386
13901TIP3    H141660   1.048   0.762   0.457
13901TIP3    H241661   1.105   0.625   0.426
13902TIP3   OH241662   5.324   0.591   5.162
13902TIP3    H141663   5.321   0.639   5.245
13902TIP3    H241664   5.413   0.605   5.130
13903TIP3   OH241665   1.195   5.023   2.803
13903TIP3    H141666   1.126   4.965   2.835
13903TIP3    H241667   1.172   5.109   2.838
13904TIP3   OH241668   3.585   2.610   2.673
13904TIP3    H141669   3.644   2.541   2.704
13904TIP3    H241670   3.509   2.563   2.639
13905TIP3   OH241671   8.113   7.524   3.228
13905TIP3    H141672   8.039   7.486   3.275
13905TIP3    H241673   8.176   7.452   3.221
13906TIP3   OH241674   2.965   7.487   5.523
13906TIP3    H141675   3.051   7.464   5.488
13906TIP3    H241676   2.961   7.443   5.608
13907TIP3   OH241677   5.849   3.654   0.368
13907TIP3    H141678   5.835   3.686   0.457
13907TIP3    H241679   5.831   3.560   0.373
13908TIP3   OH241680   3.667   0.784   4.910
13908TIP3    H141681   3.577   0.804   4.887
13908TIP3    H241682   3.681   0.830   4.993
13909TIP3   OH241683   5.489   3.494   1.118
13909TIP3    H141684   5.532   3.412   1.095
13909TIP3    H241685   5.479   3.491   1.213
13910TIP3   OH241686   0.101   3.180   1.617
13910TIP3    H141687   0.081   3.263   1.660
13910TIP3    H241688   0.133   3.124   1.687
13911TIP3   OH241689   2.367   4.260   0.451
13911TIP3    H141690   2.287   4.218   0.420
13911TIP3    H241691   2.425   4.187   0.473
13912TIP3   OH241692   4.743   0.439   5.484
13912TIP3    H141693   4.685   0.512   5.508
13912TIP3    H241694   4.729   0.374   5.553
13913TIP3   OH241695   1.475   4.136   1.668
13913TIP3    H141696   1.491   4.045   1.693
13913TIP3    H241697   1.405   4.165   1.727
13914TIP3   OH241698   1.224   3.410   1.419
13914TIP3    H141699   1.148   3.354   1.402
13914TIP3    H241700   1.190   3.499   1.415
13915TIP3   OH241701   8.045   1.304   5.700
13915TIP3    H141702   7.962   1.259   5.682
13915TIP3    H241703   8.021   1.396   5.707
13916TIP3   OH241704   2.196   7.695   2.758
13916TIP3    H141705   2.128   7.646   2.804
13916TIP3    H241706   2.179   7.679   2.665
13917TIP3   OH241707   1.641   6.350   1.305
13917TIP3    H141708   1.619   6.420   1.367
13917TIP3    H241709   1.627   6.270   1.355
13918TIP3   OH241710   2.080   7.215   6.444
13918TIP3    H141711   2.117   7.225   6.532
13918TIP3    H241712   2.036   7.299   6.428
13919TIP3   OH241713   0.366   7.767   4.538
13919TIP3    H141714   0.443   7.779   4.593
13919TIP3    H241715   0.383   7.687   4.488
13920TIP3   OH241716   8.192   4.142   1.051
13920TIP3    H141717   8.152   4.182   1.128
13920TIP3    H241718   8.280   4.119   1.078
13921TIP3   OH241719   6.985   1.516   5.585
13921TIP3    H141720   6.952   1.577   5.519
13921TIP3    H241721   7.059   1.562   5.626
13922TIP3   OH241722   1.073   2.238   4.479
13922TIP3    H141723   1.030   2.323   4.470
13922TIP3    H241724   1.157   2.258   4.521
13923TIP3   OH241725   3.325   7.134   1.459
13923TIP3    H141726   3.242   7.171   1.429
13923TIP3    H241727   3.310   7.039   1.460
13924TIP3   OH241728   1.404   3.718   4.057
13924TIP3    H141729   1.320   3.694   4.096
13924TIP3    H241730   1.419   3.808   4.087
13925TIP3   OH241731   4.799   0.429   3.067
13925TIP3    H141732   4.891   0.423   3.092
13925TIP3    H241733   4.756   0.464   3.145
13926TIP3   OH241734   3.450   1.932   0.772
13926TIP3    H141735   3.418   2.022   0.760
13926TIP3    H241736   3.427   1.888   0.691
13927TIP3   OH241737   6.993   5.674   4.700
13927TIP3    H141738   6.962   5.663   4.790
13927TIP3    H241739   7.009   5.585   4.668
13928TIP3   OH241740   6.095   3.283   0.433
13928TIP3    H141741   6.169   3.222   0.432
13928TIP3    H241742   6.118   3.351   0.371
13929TIP3   OH241743   5.200   0.018   5.973
13929TIP3    H141744   5.272   0.005   6.035
13929TIP3    H241745   5.172   0.109   5.988
13930TIP3   OH241746   0.690   6.267   2.896
13930TIP3    H141747   0.744   6.237   2.823
13930TIP3    H241748   0.614   6.308   2.854
13931TIP3   OH241749   1.444   7.547   3.874
13931TIP3    H141750   1.364   7.599   3.871
13931TIP3    H241751   1.511   7.605   3.838
13932TIP3   OH241752   7.768   3.152   4.201
13932TIP3    H141753   7.756   3.200   4.119
13932TIP3    H241754   7.679   3.135   4.232
13933TIP3   OH241755   2.741   6.615   6.293
13933TIP3    H141756   2.783   6.541   6.337
13933TIP3    H241757   2.813   6.663   6.252
13934TIP3   OH241758   4.656   0.143   2.128
13934TIP3    H141759   4.662   0.067   2.186
13934TIP3    H241760   4.610   0.111   2.051
13935TIP3   OH241761   0.857   3.319   4.174
13935TIP3    H141762   0.903   3.268   4.108
13935TIP3    H241763   0.774   3.273   4.187
13936TIP3   OH241764   2.470   6.108   1.564
13936TIP3    H141765   2.565   6.108   1.577
13936TIP3    H241766   2.438   6.035   1.616
13937TIP3   OH241767   8.141   1.171   6.421
13937TIP3    H141768   8.167   1.147   6.510
13937TIP3    H241769   8.095   1.094   6.387
13938TIP3   OH241770   4.291   5.354   3.664
13938TIP3    H141771   4.252   5.329   3.748
13938TIP3    H241772   4.358   5.287   3.649
13939TIP3   OH241773   3.578   1.139   4.884
13939TIP3    H141774   3.512   1.208   4.869
13939TIP3    H241775   3.580   1.090   4.802
13940TIP3   OH241776   6.492   0.460   6.125
13940TIP3    H141777   6.581   0.479   6.096
13940TIP3    H241778   6.451   0.417   6.050
13941TIP3   OH241779   1.310   7.075   4.763
13941TIP3    H141780   1.314   7.156   4.813
13941TIP3    H241781   1.273   7.011   4.824
13942TIP3   OH241782   4.835   4.438   5.831
13942TIP3    H141783   4.929   4.440   5.850
13942TIP3    H241784   4.797   4.388   5.903
13943TIP3   OH241785   2.210   6.750   2.121
13943TIP3    H141786   2.279   6.695   2.084
13943TIP3    H241787   2.213   6.731   2.215
13944TIP3   OH241788   2.186   7.031   6.274
13944TIP3    H141789   2.095   7.021   6.301
13944TIP3    H241790   2.226   7.086   6.342
13945TIP3   OH241791   3.110   1.768   2.279
13945TIP3    H141792   3.189   1.772   2.224
13945TIP3    H241793   3.130   1.700   2.343
13946TIP3   OH241794   4.471   1.441   1.917
13946TIP3    H141795   4.473   1.479   1.829
13946TIP3    H241796   4.557   1.461   1.954
13947TIP3   OH241797   4.582   1.789   1.394
13947TIP3    H141798   4.508   1.791   1.454
13947TIP3    H241799   4.590   1.878   1.361
13948TIP3   OH241800   2.685   1.971   2.825
13948TIP3    H141801   2.637   2.038   2.776
13948TIP3    H241802   2.776   1.980   2.795
13949TIP3   OH241803   3.202   2.390   2.209
13949TIP3    H141804   3.186   2.355   2.122
13949TIP3    H241805   3.259   2.465   2.195
13950TIP3   OH241806   5.025   2.105   2.749
13950TIP3    H141807   5.082   2.090   2.824
13950TIP3    H241808   5.085   2.126   2.677
13951TIP3   OH241809   4.685   3.521   5.045
13951TIP3    H141810   4.674   3.572   5.126
13951TIP3    H241811   4.642   3.438   5.062
13952TIP3   OH241812   8.036   4.507   5.744
13952TIP3    H141813   7.951   4.542   5.716
13952TIP3    H241814   8.026   4.412   5.738
13953TIP3   OH241815   0.241   6.835   3.129
13953TIP3    H141816   0.286   6.893   3.067
13953TIP3    H241817   0.278   6.749   3.113
13954TIP3   OH241818   3.952   3.998   4.718
13954TIP3    H141819   3.872   4.029   4.760
13954TIP3    H241820   3.952   3.903   4.734
13955TIP3   OH241821   5.264   6.871   0.591
13955TIP3    H141822   5.276   6.803   0.657
13955TIP3    H241823   5.203   6.933   0.631
13956TIP3   OH241824   6.613   1.423   5.521
13956TIP3    H141825   6.629   1.455   5.610
13956TIP3    H241826   6.679   1.354   5.508
13957TIP3   OH241827   5.286   0.256   2.027
13957TIP3    H141828   5.288   0.331   1.967
13957TIP3    H241829   5.275   0.180   1.969
13958TIP3   OH241830   0.060   6.163   5.903
13958TIP3    H141831   0.082   6.096   5.838
13958TIP3    H241832   0.074   6.246   5.858
13959TIP3   OH241833   7.805   7.424   3.106
13959TIP3    H141834   7.855   7.474   3.042
13959TIP3    H241835   7.748   7.488   3.147
13960TIP3   OH241836   0.044   0.125   0.909
13960TIP3    H141837  -0.015   0.050   0.893
13960TIP3    H241838   0.065   0.120   1.002
13961TIP3   OH241839   7.423   0.511   1.148
13961TIP3    H141840   7.350   0.473   1.099
13961TIP3    H241841   7.393   0.599   1.171
13962TIP3   OH241842   0.395   4.188   6.443
13962TIP3    H141843   0.316   4.233   6.476
13962TIP3    H241844   0.361   4.113   6.395
13963TIP3   OH241845   0.192   3.844   1.519
13963TIP3    H141846   0.112   3.846   1.571
13963TIP3    H241847   0.163   3.841   1.428
13964TIP3   OH241848   6.779   7.197   4.593
13964TIP3    H141849   6.838   7.239   4.531
13964TIP3    H241850   6.746   7.120   4.546
13965TIP3   OH241851   4.872   6.136   5.634
13965TIP3    H141852   4.814   6.110   5.562
13965TIP3    H241853   4.836   6.091   5.710
13966TIP3   OH241854   8.027   5.367   5.174
13966TIP3    H141855   7.972   5.315   5.114
13966TIP3    H241856   8.034   5.313   5.253
13967TIP3   OH241857   3.589   6.180   4.081
13967TIP3    H141858   3.612   6.273   4.081
13967TIP3    H241859   3.522   6.172   4.014
13968TIP3   OH241860   4.671   7.533   5.269
13968TIP3    H141861   4.717   7.449   5.272
13968TIP3    H241862   4.642   7.541   5.178
13969TIP3   OH241863   8.093   4.313   5.420
13969TIP3    H141864   8.054   4.260   5.490
13969TIP3    H241865   8.023   4.373   5.394
13970TIP3   OH241866   5.863   2.630   1.769
13970TIP3    H141867   5.780   2.635   1.816
13970TIP3    H241868   5.924   2.680   1.822
13971TIP3   OH241869   4.100   5.628   6.030
13971TIP3    H141870   4.035   5.671   6.085
13971TIP3    H241871   4.122   5.548   6.078
13972TIP3   OH241872   5.770   6.535   6.623
13972TIP3    H141873   5.784   6.604   6.558
13972TIP3    H241874   5.846   6.478   6.614
13973TIP3   OH241875   2.072   0.711   2.715
13973TIP3    H141876   2.162   0.683   2.697
13973TIP3    H241877   2.073   0.806   2.697
13974TIP3   OH241878   3.063   3.411   0.620
13974TIP3    H141879   3.043   3.382   0.709
13974TIP3    H241880   3.102   3.334   0.578
13975TIP3   OH241881   1.252   5.149   1.999
13975TIP3    H141882   1.320   5.158   1.931
13975TIP3    H241883   1.274   5.067   2.043
13976TIP3   OH241884   7.157   2.279   0.610
13976TIP3    H141885   7.112   2.317   0.686
13976TIP3    H241886   7.097   2.295   0.537
13977TIP3   OH241887   4.156   6.592   4.279
13977TIP3    H141888   4.236   6.617   4.324
13977TIP3    H241889   4.184   6.565   4.192
13978TIP3   OH241890   4.719   2.528   1.026
13978TIP3    H141891   4.788   2.500   0.966
13978TIP3    H241892   4.696   2.448   1.074
13979TIP3   OH241893   6.967   6.856   6.313
13979TIP3    H141894   6.962   6.783   6.251
13979TIP3    H241895   6.973   6.813   6.399
13980TIP3   OH241896   4.684   6.451   1.685
13980TIP3    H141897   4.657   6.439   1.595
13980TIP3    H241898   4.709   6.544   1.690
13981TIP3   OH241899   5.350   2.699   1.929
13981TIP3    H141900   5.271   2.671   1.976
13981TIP3    H241901   5.387   2.618   1.894
13982TIP3   OH241902   3.132   6.890   1.081
13982TIP3    H141903   3.087   6.831   1.020
13982TIP3    H241904   3.094   6.976   1.063
13983TIP3   OH241905   1.630   3.770   5.158
13983TIP3    H141906   1.698   3.756   5.225
13983TIP3    H241907   1.636   3.693   5.101
13984TIP3   OH241908   6.703   4.208   0.019
13984TIP3    H141909   6.716   4.219   0.113
13984TIP3    H241910   6.777   4.256  -0.020
13985TIP3   OH241911   1.998   1.024   2.853
13985TIP3    H141912   2.000   1.113   2.818
13985TIP3    H241913   2.088   1.008   2.882
13986TIP3   OH241914   0.481   3.380   5.892
13986TIP3    H141915   0.506   3.306   5.837
13986TIP3    H241916   0.421   3.432   5.838
13987TIP3   OH241917   1.959   6.017   6.032
13987TIP3    H141918   2.037   6.010   6.086
13987TIP3    H241919   1.953   5.934   5.985
13988TIP3   OH241920   1.110   1.566   1.384
13988TIP3    H141921   1.172   1.638   1.399
13988TIP3    H241922   1.158   1.504   1.329
13989TIP3   OH241923   0.931   5.244   4.982
13989TIP3    H141924   0.910   5.184   4.910
13989TIP3    H241925   1.025   5.234   4.994
13990TIP3   OH241926   2.543   4.561   4.174
13990TIP3    H141927   2.475   4.534   4.236
13990TIP3    H241928   2.558   4.483   4.120
13991TIP3   OH241929   3.261   7.614   0.376
13991TIP3    H141930   3.206   7.572   0.442
13991TIP3    H241931   3.287   7.697   0.416
13992TIP3   OH241932   0.725   0.253   4.509
13992TIP3    H141933   0.785   0.300   4.451
13992TIP3    H241934   0.711   0.169   4.467
13993TIP3   OH241935   4.227   2.405   6.611
13993TIP3    H141936   4.299   2.430   6.554
13993TIP3    H241937   4.157   2.466   6.589
13994TIP3   OH241938   0.046   4.107   6.781
13994TIP3    H141939  -0.033   4.071   6.820
13994TIP3    H241940   0.069   4.045   6.712
13995TIP3   OH241941   0.383   3.546   6.322
13995TIP3    H141942   0.309   3.606   6.334
13995TIP3    H241943   0.449   3.598   6.277
13996TIP3   OH241944   4.311   6.314   2.275
13996TIP3    H141945   4.364   6.263   2.213
13996TIP3    H241946   4.333   6.276   2.361
13997TIP3   OH241947   5.001   1.564   5.115
13997TIP3    H141948   4.980   1.639   5.060
13997TIP3    H241949   5.092   1.544   5.095
13998TIP3   OH241950   3.133   5.364   2.569
13998TIP3    H141951   3.147   5.402   2.656
13998TIP3    H241952   3.220   5.365   2.529
13999TIP3   OH241953   2.767   7.372   2.125
13999TIP3    H141954   2.815   7.383   2.207
13999TIP3    H241955   2.743   7.461   2.098
14000TIP3   OH241956   2.714   1.611   1.749
14000TIP3    H141957   2.725   1.670   1.824
14000TIP3    H241958   2.681   1.668   1.679
14001TIP3   OH241959   2.366   7.787   1.135
14001TIP3    H141960   2.347   7.881   1.143
14001TIP3    H241961   2.315   7.746   1.204
14002TIP3   OH241962   1.358   3.490   3.465
14002TIP3    H141963   1.330   3.580   3.450
14002TIP3    H241964   1.406   3.493   3.548
14003TIP3   OH241965   0.584   0.060   2.305
14003TIP3    H141966   0.608  -0.033   2.310
14003TIP3    H241967   0.660   0.106   2.339
14004TIP3   OH241968   7.790   6.615   5.272
14004TIP3    H141969   7.725   6.683   5.255
14004TIP3    H241970   7.749   6.535   5.240
14005TIP3   OH241971   4.784   5.116   3.782
14005TIP3    H141972   4.782   5.146   3.873
14005TIP3    H241973   4.804   5.022   3.788
14006TIP3   OH241974   3.810   7.008   5.242
14006TIP3    H141975   3.828   7.079   5.181
14006TIP3    H241976   3.775   6.938   5.187
14007TIP3   OH241977   3.793   0.099   0.406
14007TIP3    H141978   3.846   0.107   0.327
14007TIP3    H241979   3.715   0.052   0.379
14008TIP3   OH241980   3.305   5.423   1.110
14008TIP3    H141981   3.323   5.457   1.023
14008TIP3    H241982   3.305   5.500   1.167
14009TIP3   OH241983   7.588   4.333   1.681
14009TIP3    H141984   7.620   4.423   1.684
14009TIP3    H241985   7.538   4.328   1.599
14010TIP3   OH241986   6.496   7.563   6.179
14010TIP3    H141987   6.572   7.619   6.196
14010TIP3    H241988   6.422   7.611   6.218
14011TIP3   OH241989   0.385   5.720   2.587
14011TIP3    H141990   0.333   5.707   2.667
14011TIP3    H241991   0.396   5.814   2.580
14012TIP3   OH241992   5.121   5.960   6.320
14012TIP3    H141993   5.113   5.890   6.255
14012TIP3    H241994   5.087   6.037   6.276
14013TIP3   OH241995   1.075   4.238   2.205
14013TIP3    H141996   1.018   4.308   2.238
14013TIP3    H241997   1.030   4.157   2.229
14014TIP3   OH241998   1.810   5.968   0.539
14014TIP3    H141999   1.875   5.904   0.569
14014TIP3    H242000   1.853   6.016   0.469
14015TIP3   OH242001   6.365   4.705   3.395
14015TIP3    H142002   6.300   4.739   3.333
14015TIP3    H242003   6.318   4.639   3.446
14016TIP3   OH242004   2.581   7.460   6.409
14016TIP3    H142005   2.675   7.475   6.410
14016TIP3    H242006   2.553   7.467   6.500
14017TIP3   OH242007   0.225   3.850   0.688
14017TIP3    H142008   0.159   3.902   0.643
14017TIP3    H242009   0.194   3.844   0.778
14018TIP3   OH242010   1.788   6.328   2.682
14018TIP3    H142011   1.786   6.332   2.587
14018TIP3    H242012   1.740   6.248   2.704
14019TIP3   OH242013   0.567   2.269   1.505
14019TIP3    H142014   0.510   2.198   1.534
14019TIP3    H242015   0.591   2.246   1.416
14020TIP3   OH242016   3.092   5.866   4.502
14020TIP3    H142017   3.010   5.872   4.453
14020TIP3    H242018   3.067   5.878   4.594
14021TIP3   OH242019   6.337   3.879   3.770
14021TIP3    H142020   6.286   3.849   3.695
14021TIP3    H242021   6.365   3.967   3.747
14022TIP3   OH242022   2.515   1.189   2.864
14022TIP3    H142023   2.604   1.215   2.887
14022TIP3    H242024   2.471   1.179   2.948
14023TIP3   OH242025   3.932   7.696   5.253
14023TIP3    H142026   3.997   7.752   5.295
14023TIP3    H242027   3.858   7.754   5.235
14024TIP3   OH242028   6.555   3.675   0.140
14024TIP3    H142029   6.619   3.740   0.111
14024TIP3    H242030   6.577   3.659   0.232
14025TIP3   OH242031   1.473   1.251   6.485
14025TIP3    H142032   1.466   1.207   6.570
14025TIP3    H242033   1.563   1.283   6.481
14026TIP3   OH242034   6.412   6.810   2.324
14026TIP3    H142035   6.416   6.731   2.378
14026TIP3    H242036   6.385   6.879   2.384
14027TIP3   OH242037   8.223   3.429   6.413
14027TIP3    H142038   8.145   3.374   6.412
14027TIP3    H242039   8.294   3.370   6.438
14028TIP3   OH242040   3.686   0.436   3.553
14028TIP3    H142041   3.691   0.446   3.648
14028TIP3    H242042   3.595   0.412   3.536
14029TIP3   OH242043   3.236   3.370   3.285
14029TIP3    H142044   3.309   3.312   3.263
14029TIP3    H242045   3.216   3.416   3.204
14030TIP3   OH242046   4.258   5.134   6.027
14030TIP3    H142047   4.174   5.094   6.005
14030TIP3    H242048   4.323   5.072   5.993
14031TIP3   OH242049   5.068   2.440   2.913
14031TIP3    H142050   4.991   2.429   2.858
14031TIP3    H242051   5.074   2.358   2.962
14032TIP3   OH242052   3.415   4.966   0.777
14032TIP3    H142053   3.396   4.928   0.863
14032TIP3    H242054   3.340   4.942   0.723
14033TIP3   OH242055   4.727   6.442   6.324
14033TIP3    H142056   4.752   6.514   6.382
14033TIP3    H242057   4.659   6.395   6.372
14034TIP3   OH242058   5.116   2.251   1.778
14034TIP3    H142059   5.056   2.257   1.852
14034TIP3    H242060   5.162   2.335   1.777
14035TIP3   OH242061   3.654   2.376   2.771
14035TIP3    H142062   3.634   2.329   2.689
14035TIP3    H242063   3.573   2.372   2.821
14036TIP3   OH242064   8.019   7.445   0.879
14036TIP3    H142065   8.059   7.394   0.808
14036TIP3    H242066   8.058   7.532   0.871
14037TIP3   OH242067   5.126   3.433   5.284
14037TIP3    H142068   5.083   3.401   5.205
14037TIP3    H242069   5.204   3.478   5.253
14038TIP3   OH242070   3.167   2.559   0.926
14038TIP3    H142071   3.252   2.515   0.926
14038TIP3    H242072   3.133   2.546   1.015
14039TIP3   OH242073   1.930   1.506   5.884
14039TIP3    H142074   1.851   1.471   5.924
14039TIP3    H242075   1.961   1.436   5.826
14040TIP3   OH242076   2.391   4.713   5.533
14040TIP3    H142077   2.352   4.766   5.463
14040TIP3    H242078   2.316   4.672   5.577
14041TIP3   OH242079   0.717   4.511   6.236
14041TIP3    H142080   0.737   4.455   6.161
14041TIP3    H242081   0.795   4.566   6.247
14042TIP3   OH242082   5.630   2.807   5.092
14042TIP3    H142083   5.605   2.716   5.106
14042TIP3    H242084   5.553   2.858   5.116
14043TIP3   OH242085   2.763   1.999   2.136
14043TIP3    H142086   2.837   2.059   2.130
14043TIP3    H242087   2.706   2.038   2.202
14044TIP3   OH242088   6.070   1.780   6.048
14044TIP3    H142089   6.100   1.787   5.958
14044TIP3    H242090   6.025   1.696   6.052
14045TIP3   OH242091   6.691   4.077   3.152
14045TIP3    H142092   6.764   4.117   3.199
14045TIP3    H242093   6.728   4.047   3.069
14046TIP3   OH242094   2.596   0.260   4.750
14046TIP3    H142095   2.646   0.188   4.711
14046TIP3    H242096   2.603   0.332   4.687
14047TIP3   OH242097   6.991   6.813   3.935
14047TIP3    H142098   6.923   6.753   3.964
14047TIP3    H242099   6.949   6.863   3.864
14048TIP3   OH242100   5.335   7.404   2.542
14048TIP3    H142101   5.268   7.376   2.480
14048TIP3    H242102   5.418   7.394   2.495
14049TIP3   OH242103   6.303   1.246   3.353
14049TIP3    H142104   6.297   1.155   3.323
14049TIP3    H242105   6.350   1.240   3.436
14050TIP3   OH242106   0.548   5.026   1.795
14050TIP3    H142107   0.497   5.096   1.837
14050TIP3    H242108   0.639   5.050   1.813
14051TIP3   OH242109   7.341   3.420   3.735
14051TIP3    H142110   7.294   3.484   3.788
14051TIP3    H242111   7.377   3.358   3.799
14052TIP3   OH242112   7.331   5.393   3.311
14052TIP3    H142113   7.316   5.412   3.218
14052TIP3    H242114   7.409   5.338   3.312
14053TIP3   OH242115   7.437   6.133   1.179
14053TIP3    H142116   7.348   6.099   1.171
14053TIP3    H242117   7.491   6.056   1.198
14054TIP3   OH242118   2.243   7.279   5.684
14054TIP3    H142119   2.153   7.246   5.687
14054TIP3    H242120   2.253   7.329   5.765
14055TIP3   OH242121   4.525   3.167   3.786
14055TIP3    H142122   4.582   3.217   3.844
14055TIP3    H242123   4.502   3.229   3.716
14056TIP3   OH242124   3.057   1.191   3.938
14056TIP3    H142125   3.142   1.181   3.980
14056TIP3    H242126   3.074   1.239   3.857
14057TIP3   OH242127   8.004   4.197   2.991
14057TIP3    H142128   7.987   4.221   3.082
14057TIP3    H242129   7.952   4.118   2.976
14058TIP3   OH242130   5.054   3.703   4.225
14058TIP3    H142131   4.996   3.648   4.172
14058TIP3    H242132   5.125   3.727   4.166
14059TIP3   OH242133   1.922   4.282   3.583
14059TIP3    H142134   1.966   4.340   3.645
14059TIP3    H242135   1.861   4.339   3.535
14060TIP3   OH242136   5.864   4.022   4.911
14060TIP3    H142137   5.884   4.113   4.936
14060TIP3    H242138   5.945   3.990   4.872
14061TIP3   OH242139   3.481   5.346   4.894
14061TIP3    H142140   3.392   5.377   4.913
14061TIP3    H242141   3.538   5.413   4.932
14062TIP3   OH242142   7.229   5.392   4.380
14062TIP3    H142143   7.217   5.434   4.295
14062TIP3    H242144   7.251   5.301   4.359
14063TIP3   OH242145   0.028   3.736   2.499
14063TIP3    H142146   0.078   3.817   2.485
14063TIP3    H242147  -0.028   3.728   2.422
14064TIP3   OH242148   6.124   1.973   0.916
14064TIP3    H142149   6.036   1.999   0.943
14064TIP3    H242150   6.129   1.997   0.824
14065TIP3   OH242151   2.627   6.469   0.440
14065TIP3    H142152   2.683   6.392   0.439
14065TIP3    H242153   2.614   6.489   0.533
14066TIP3   OH242154   5.024   2.130   2.076
14066TIP3    H142155   5.063   2.100   2.158
14066TIP3    H242156   4.954   2.189   2.102
14067TIP3   OH242157   0.264   1.043   2.029
14067TIP3    H142158   0.353   1.031   1.996
14067TIP3    H242159   0.209   0.992   1.969
14068TIP3   OH242160   2.278   6.982   5.343
14068TIP3    H142161   2.370   6.965   5.360
14068TIP3    H242162   2.234   6.900   5.367
14069TIP3   OH242163   2.755   3.861   2.290
14069TIP3    H142164   2.768   3.767   2.280
14069TIP3    H242165   2.661   3.874   2.278
14070TIP3   OH242166   0.399   0.846   2.591
14070TIP3    H142167   0.346   0.919   2.623
14070TIP3    H242168   0.345   0.768   2.608
14071TIP3   OH242169   3.157   6.895   3.057
14071TIP3    H142170   3.252   6.898   3.045
14071TIP3    H242171   3.141   6.809   3.096
14072TIP3   OH242172   3.366   3.248   0.652
14072TIP3    H142173   3.289   3.252   0.595
14072TIP3    H242174   3.341   3.297   0.730
14073TIP3   OH242175   8.031   2.638   0.576
14073TIP3    H142176   8.071   2.672   0.656
14073TIP3    H242177   7.969   2.572   0.606
14074TIP3   OH242178   5.134   4.961   5.848
14074TIP3    H142179   5.181   4.913   5.780
14074TIP3    H242180   5.125   5.050   5.814
14075TIP3   OH242181   7.733   1.410   4.292
14075TIP3    H142182   7.819   1.451   4.300
14075TIP3    H242183   7.732   1.343   4.360
14076TIP3   OH242184   1.987   6.123   4.172
14076TIP3    H142185   1.897   6.155   4.178
14076TIP3    H242186   2.020   6.162   4.091
14077TIP3   OH242187   4.646   6.662   0.482
14077TIP3    H142188   4.717   6.724   0.498
14077TIP3    H242189   4.658   6.593   0.547
14078TIP3   OH242190   4.064   1.675   4.400
14078TIP3    H142191   3.992   1.727   4.364
14078TIP3    H242192   4.067   1.597   4.345
14079TIP3   OH242193   4.978   4.505   2.008
14079TIP3    H142194   4.933   4.440   2.061
14079TIP3    H242195   5.058   4.460   1.980
14080TIP3   OH242196   8.077   2.364   2.154
14080TIP3    H142197   8.072   2.268   2.147
14080TIP3    H242198   8.027   2.395   2.078
14081TIP3   OH242199   3.588   4.741   6.704
14081TIP3    H142200   3.681   4.719   6.696
14081TIP3    H242201   3.576   4.816   6.645
14082TIP3   OH242202   8.271   4.386   0.477
14082TIP3    H142203   8.276   4.477   0.450
14082TIP3    H242204   8.332   4.380   0.551
14083TIP3   OH242205   3.116   6.741   2.191
14083TIP3    H142206   3.098   6.705   2.104
14083TIP3    H242207   3.089   6.833   2.184
14084TIP3   OH242208   4.675   1.695   5.172
14084TIP3    H142209   4.589   1.665   5.142
14084TIP3    H242210   4.734   1.676   5.099
14085TIP3   OH242211   3.391   7.771   2.951
14085TIP3    H142212   3.332   7.695   2.955
14085TIP3    H242213   3.399   7.789   2.857
14086TIP3   OH242214   3.860   1.173   0.819
14086TIP3    H142215   3.876   1.168   0.913
14086TIP3    H242216   3.773   1.135   0.807
14087TIP3   OH242217   2.276   3.679   4.029
14087TIP3    H142218   2.241   3.719   3.949
14087TIP3    H242219   2.284   3.751   4.091
14088TIP3   OH242220   2.637   1.788   5.352
14088TIP3    H142221   2.670   1.824   5.434
14088TIP3    H242222   2.695   1.714   5.333
14089TIP3   OH242223   2.598   5.097   0.449
14089TIP3    H142224   2.692   5.104   0.469
14089TIP3    H242225   2.593   5.040   0.373
14090TIP3   OH242226   3.370   7.774   0.172
14090TIP3    H142227   3.316   7.696   0.188
14090TIP3    H242228   3.459   7.745   0.188
14091TIP3   OH242229   2.661   4.743   5.560
14091TIP3    H142230   2.670   4.678   5.630
14091TIP3    H242231   2.568   4.739   5.536
14092TIP3   OH242232   1.322   3.776   2.771
14092TIP3    H142233   1.405   3.798   2.815
14092TIP3    H242234   1.317   3.680   2.775
14093TIP3   OH242235   6.945   0.817   2.836
14093TIP3    H142236   7.024   0.772   2.865
14093TIP3    H242237   6.954   0.906   2.870
14094TIP3   OH242238   0.188   5.963   5.767
14094TIP3    H142239   0.275   5.951   5.806
14094TIP3    H242240   0.201   5.948   5.673
14095TIP3   OH242241   2.186   0.956   2.317
14095TIP3    H142242   2.127   1.013   2.268
14095TIP3    H242243   2.184   0.989   2.406
14096TIP3   OH242244   7.096   7.059   3.814
14096TIP3    H142245   7.029   7.111   3.859
14096TIP3    H242246   7.079   7.074   3.721
14097TIP3   OH242247   7.903   1.596   2.915
14097TIP3    H142248   7.940   1.564   2.998
14097TIP3    H242249   7.940   1.538   2.849
14098TIP3   OH242250   0.813   7.737   2.960
14098TIP3    H142251   0.865   7.661   2.935
14098TIP3    H242252   0.734   7.730   2.907
14099TIP3   OH242253   4.801   2.840   3.895
14099TIP3    H142254   4.773   2.757   3.857
14099TIP3    H242255   4.720   2.879   3.929
14100TIP3   OH242256   1.638   3.412   4.245
14100TIP3    H142257   1.672   3.477   4.307
14100TIP3    H242258   1.545   3.405   4.266
14101TIP3   OH242259   0.060   7.334   1.302
14101TIP3    H142260   0.141   7.350   1.351
14101TIP3    H242261   0.073   7.249   1.260
14102TIP3   OH242262   3.541   5.815   2.437
14102TIP3    H142263   3.471   5.818   2.372
14102TIP3    H242264   3.512   5.751   2.502
14103TIP3   OH242265   1.059   5.985   3.625
14103TIP3    H142266   1.105   5.901   3.635
14103TIP3    H242267   1.011   5.977   3.542
14104TIP3   OH242268   5.408   2.755   3.998
14104TIP3    H142269   5.340   2.811   4.036
14104TIP3    H242270   5.486   2.810   3.994
14105TIP3   OH242271   8.172   4.577   6.782
14105TIP3    H142272   8.078   4.573   6.761
14105TIP3    H242273   8.216   4.569   6.697
14106TIP3   OH242274   5.078   2.834   2.196
14106TIP3    H142275   5.054   2.907   2.140
14106TIP3    H242276   5.006   2.827   2.259
14107TIP3   OH242277   7.911   0.653   4.163
14107TIP3    H142278   7.976   0.598   4.120
14107TIP3    H242279   7.869   0.701   4.092
14108TIP3   OH242280   0.601   7.373   5.034
14108TIP3    H142281   0.619   7.297   4.979
14108TIP3    H242282   0.637   7.447   4.985
14109TIP3   OH242283   3.943   0.382   3.573
14109TIP3    H142284   3.849   0.390   3.555
14109TIP3    H242285   3.980   0.347   3.492
14110TIP3   OH242286  -0.017   6.793   0.957
14110TIP3    H142287  -0.056   6.708   0.936
14110TIP3    H242288   0.053   6.773   1.019
14111TIP3   OH242289   3.160   7.349   3.745
14111TIP3    H142290   3.230   7.385   3.800
14111TIP3    H242291   3.181   7.255   3.740
14112TIP3   OH242292   4.176   7.710   1.632
14112TIP3    H142293   4.189   7.678   1.721
14112TIP3    H242294   4.243   7.777   1.619
14113TIP3   OH242295   1.186   1.199   5.592
14113TIP3    H142296   1.193   1.216   5.686
14113TIP3    H242297   1.273   1.166   5.568
14114TIP3   OH242298   0.678   3.538   6.618
14114TIP3    H142299   0.638   3.594   6.551
14114TIP3    H242300   0.737   3.481   6.569
14115TIP3   OH242301   4.132   4.053   0.814
14115TIP3    H142302   4.152   4.114   0.885
14115TIP3    H242303   4.172   3.971   0.842
14116TIP3   OH242304   0.276   0.828   0.936
14116TIP3    H142305   0.249   0.898   0.996
14116TIP3    H242306   0.214   0.834   0.863
14117TIP3   OH242307   2.499   0.996   0.807
14117TIP3    H142308   2.561   1.045   0.753
14117TIP3    H242309   2.534   1.003   0.896
14118TIP3   OH242310   6.885   0.551   3.446
14118TIP3    H142311   6.840   0.472   3.416
14118TIP3    H242312   6.814   0.608   3.476
14119TIP3   OH242313   4.968   1.023   4.772
14119TIP3    H142314   5.017   0.947   4.803
14119TIP3    H242315   4.907   1.043   4.844
14120TIP3   OH242316   7.768   3.709   1.597
14120TIP3    H142317   7.742   3.800   1.585
14120TIP3    H242318   7.691   3.666   1.635
14121TIP3   OH242319   1.312   5.444   0.844
14121TIP3    H142320   1.360   5.491   0.777
14121TIP3    H242321   1.251   5.508   0.880
14122TIP3   OH242322  -0.033   0.569   3.965
14122TIP3    H142323  -0.056   0.503   3.900
14122TIP3    H242324  -0.088   0.549   4.041
14123TIP3   OH242325   0.442   2.010   5.389
14123TIP3    H142326   0.394   2.061   5.454
14123TIP3    H242327   0.526   1.991   5.429
14124TIP3   OH242328   1.999   3.779   0.389
14124TIP3    H142329   1.948   3.859   0.377
14124TIP3    H242330   1.963   3.740   0.468
14125TIP3   OH242331   2.767   4.582   2.428
14125TIP3    H142332   2.838   4.615   2.372
14125TIP3    H242333   2.747   4.656   2.486
14126TIP3   OH242334   3.224   1.063   1.299
14126TIP3    H142335   3.270   1.077   1.382
14126TIP3    H242336   3.135   1.094   1.315
14127TIP3   OH242337   3.309   7.647   5.076
14127TIP3    H142338   3.399   7.622   5.096
14127TIP3    H242339   3.257   7.608   5.147
14128TIP3   OH242340   1.421   1.930   5.122
14128TIP3    H142341   1.341   1.976   5.097
14128TIP3    H242342   1.390   1.856   5.175
14129TIP3   OH242343   4.973   6.656   6.794
14129TIP3    H142344   5.034   6.649   6.721
14129TIP3    H242345   4.931   6.741   6.783
14130TIP3   OH242346   7.611   4.900   0.462
14130TIP3    H142347   7.654   4.929   0.543
14130TIP3    H242348   7.679   4.908   0.395
14131TIP3   OH242349   2.414   0.034   1.777
14131TIP3    H142350   2.483   0.027   1.710
14131TIP3    H242351   2.343  -0.021   1.744
14132TIP3   OH242352   2.065   1.407   4.235
14132TIP3    H142353   2.078   1.313   4.221
14132TIP3    H242354   2.132   1.449   4.182
14133TIP3   OH242355   3.869   4.658   2.257
14133TIP3    H142356   3.866   4.667   2.162
14133TIP3    H242357   3.831   4.740   2.290
14134TIP3   OH242358   4.375   6.609   4.452
14134TIP3    H142359   4.404   6.696   4.477
14134TIP3    H242360   4.423   6.550   4.511
14135TIP3   OH242361   8.136   2.645   5.588
14135TIP3    H142362   8.047   2.675   5.570
14135TIP3    H242363   8.141   2.639   5.684
14136TIP3   OH242364   8.220   3.847   1.339
14136TIP3    H142365   8.239   3.754   1.324
14136TIP3    H242366   8.149   3.846   1.403
14137TIP3   OH242367   1.322   6.056   3.432
14137TIP3    H142368   1.285   6.144   3.429
14137TIP3    H242369   1.403   6.063   3.381
14138TIP3   OH242370   1.261   5.461   4.192
14138TIP3    H142371   1.319   5.463   4.268
14138TIP3    H242372   1.177   5.493   4.225
14139TIP3   OH242373   7.677   5.576   2.006
14139TIP3    H142374   7.681   5.589   2.101
14139TIP3    H242375   7.585   5.559   1.988
14140TIP3   OH242376   5.234   1.170   0.487
14140TIP3    H142377   5.310   1.219   0.455
14140TIP3    H242378   5.187   1.231   0.543
14141TIP3   OH242379   2.708   3.228   1.589
14141TIP3    H142380   2.754   3.300   1.633
14141TIP3    H242381   2.663   3.182   1.660
14142TIP3   OH242382   2.748   6.781   3.546
14142TIP3    H142383   2.673   6.722   3.549
14142TIP3    H242384   2.724   6.854   3.603
14143TIP3   OH242385   7.267   4.158   4.086
14143TIP3    H142386   7.317   4.109   4.021
14143TIP3    H242387   7.229   4.231   4.037
14144TIP3   OH242388   5.055   1.840   5.769
14144TIP3    H142389   5.056   1.760   5.821
14144TIP3    H242390   5.028   1.812   5.682
14145TIP3   OH242391   6.882   1.349   0.098
14145TIP3    H142392   6.787   1.353   0.105
14145TIP3    H242393   6.901   1.388   0.012
14146TIP3   OH242394   0.401   0.478   0.237
14146TIP3    H142395   0.312   0.443   0.245
14146TIP3    H242396   0.393   0.569   0.264
14147TIP3   OH242397   5.023   3.633   3.208
14147TIP3    H142398   5.049   3.602   3.295
14147TIP3    H242399   5.105   3.661   3.167
14148TIP3   OH242400   0.331   3.403   2.267
14148TIP3    H142401   0.269   3.475   2.279
14148TIP3    H242402   0.417   3.442   2.282
14149TIP3   OH242403   0.570   3.117   1.961
14149TIP3    H142404   0.658   3.092   1.933
14149TIP3    H242405   0.584   3.195   2.016
14150TIP3   OH242406   8.218   4.661   4.774
14150TIP3    H142407   8.184   4.573   4.757
14150TIP3    H242408   8.313   4.652   4.763
14151TIP3   OH242409   1.545   3.954   3.551
14151TIP3    H142410   1.563   3.969   3.458
14151TIP3    H242411   1.482   4.022   3.574
14152TIP3   OH242412   1.212   4.478   0.376
14152TIP3    H142413   1.164   4.518   0.304
14152TIP3    H242414   1.303   4.478   0.346
14153TIP3   OH242415   2.485   5.894   4.825
14153TIP3    H142416   2.430   5.947   4.883
14153TIP3    H242417   2.559   5.952   4.803
14154TIP3   OH242418   1.155   0.880   6.008
14154TIP3    H142419   1.146   0.809   5.944
14154TIP3    H242420   1.066   0.896   6.039
14155TIP3   OH242421   4.876   3.892   2.837
14155TIP3    H142422   4.959   3.859   2.801
14155TIP3    H242423   4.837   3.942   2.765
14156TIP3   OH242424   5.198   5.766   1.770
14156TIP3    H142425   5.128   5.714   1.809
14156TIP3    H242426   5.157   5.848   1.745
14157TIP3   OH242427   7.988   5.569   1.703
14157TIP3    H142428   8.058   5.511   1.674
14157TIP3    H242429   7.944   5.596   1.623
14158TIP3   OH242430   5.876   0.487   3.078
14158TIP3    H142431   5.943   0.554   3.064
14158TIP3    H242432   5.921   0.404   3.068
14159TIP3   OH242433   2.342   3.221   0.599
14159TIP3    H142434   2.373   3.171   0.674
14159TIP3    H242435   2.274   3.166   0.560
14160TIP3   OH242436   7.441   3.465   6.051
14160TIP3    H142437   7.369   3.518   6.085
14160TIP3    H242438   7.434   3.381   6.097
14161TIP3   OH242439   1.278   2.537   1.180
14161TIP3    H142440   1.239   2.450   1.189
14161TIP3    H242441   1.291   2.568   1.270
14162TIP3   OH242442   3.625   6.029   4.355
14162TIP3    H142443   3.616   5.937   4.380
14162TIP3    H242444   3.636   6.028   4.260
14163TIP3   OH242445   7.895   3.460   4.685
14163TIP3    H142446   7.980   3.497   4.709
14163TIP3    H242447   7.911   3.413   4.603
14164TIP3   OH242448   6.914   2.682   3.628
14164TIP3    H142449   6.897   2.607   3.685
14164TIP3    H242450   7.000   2.714   3.656
14165TIP3   OH242451   2.335   7.026   2.342
14165TIP3    H142452   2.253   6.977   2.330
14165TIP3    H242453   2.403   6.959   2.343
14166TIP3   OH242454   0.187   1.608   1.132
14166TIP3    H142455   0.235   1.561   1.200
14166TIP3    H242456   0.214   1.566   1.050
14167TIP3   OH242457   0.118   3.221   6.489
14167TIP3    H142458   0.123   3.135   6.531
14167TIP3    H242459   0.207   3.238   6.458
14168TIP3   OH242460   1.783   2.549   5.300
14168TIP3    H142461   1.819   2.619   5.246
14168TIP3    H242462   1.853   2.485   5.307
14169TIP3   OH242463   1.056   7.461   2.828
14169TIP3    H142464   1.057   7.540   2.773
14169TIP3    H242465   1.114   7.482   2.901
14170TIP3   OH242466   5.588   1.048   3.164
14170TIP3    H142467   5.550   1.050   3.076
14170TIP3    H242468   5.682   1.035   3.150
14171TIP3   OH242469   7.732   0.115   2.410
14171TIP3    H142470   7.689   0.059   2.345
14171TIP3    H242471   7.824   0.114   2.384
14172TIP3   OH242472   2.928   0.690   0.830
14172TIP3    H142473   2.946   0.653   0.916
14172TIP3    H242474   2.839   0.723   0.836
14173TIP3   OH242475   7.184   2.263   1.862
14173TIP3    H142476   7.228   2.335   1.818
14173TIP3    H242477   7.239   2.244   1.938
14174TIP3   OH242478   0.848   6.761   5.793
14174TIP3    H142479   0.785   6.701   5.832
14174TIP3    H242480   0.891   6.710   5.724
14175TIP3   OH242481   5.918   0.869   1.513
14175TIP3    H142482   5.873   0.952   1.530
14175TIP3    H242483   5.990   0.892   1.456
14176TIP3   OH242484   5.195   1.560   3.367
14176TIP3    H142485   5.263   1.588   3.306
14176TIP3    H242486   5.156   1.483   3.326
14177TIP3   OH242487   6.328   4.420   3.120
14177TIP3    H142488   6.270   4.481   3.166
14177TIP3    H242489   6.309   4.335   3.159
14178TIP3   OH242490   6.806   4.041   5.592
14178TIP3    H142491   6.844   4.114   5.545
14178TIP3    H242492   6.754   4.082   5.661
14179TIP3   OH242493   0.952   5.639   0.832
14179TIP3    H142494   0.971   5.726   0.866
14179TIP3    H242495   1.017   5.624   0.764
14180TIP3   OH242496   0.864   2.388   3.425
14180TIP3    H142497   0.904   2.354   3.505
14180TIP3    H242498   0.811   2.316   3.392
14181TIP3   OH242499   4.490   6.291   3.980
14181TIP3    H142500   4.408   6.337   3.963
14181TIP3    H242501   4.464   6.215   4.034
14182TIP3   OH242502   0.169   1.712   3.698
14182TIP3    H142503   0.201   1.625   3.721
14182TIP3    H242504   0.128   1.744   3.779
14183TIP3   OH242505   3.848   0.534   2.679
14183TIP3    H142506   3.786   0.463   2.665
14183TIP3    H242507   3.855   0.541   2.775
14184TIP3   OH242508   5.597   2.156   6.644
14184TIP3    H142509   5.572   2.243   6.612
14184TIP3    H242510   5.674   2.133   6.592
14185TIP3   OH242511   0.272   1.188   0.965
14185TIP3    H142512   0.277   1.140   0.882
14185TIP3    H242513   0.188   1.161   1.002
14186TIP3   OH242514   2.445   5.957   0.260
14186TIP3    H142515   2.529   6.001   0.275
14186TIP3    H242516   2.383   6.029   0.245
14187TIP3   OH242517   1.014   6.884   2.929
14187TIP3    H142518   1.020   6.961   2.984
14187TIP3    H242519   0.942   6.903   2.868
14188TIP3   OH242520   4.689   2.786   3.360
14188TIP3    H142521   4.655   2.713   3.412
14188TIP3    H242522   4.777   2.801   3.394
14189TIP3   OH242523   2.712   1.576   2.677
14189TIP3    H142524   2.712   1.600   2.770
14189TIP3    H242525   2.631   1.528   2.664
14190TIP3   OH242526   6.536   7.495   3.788
14190TIP3    H142527   6.619   7.504   3.741
14190TIP3    H242528   6.485   7.434   3.735
14191TIP3   OH242529   1.232   2.294   3.082
14191TIP3    H142530   1.185   2.293   3.165
14191TIP3    H242531   1.164   2.292   3.015
14192TIP3   OH242532   4.050   5.284   3.544
14192TIP3    H142533   3.993   5.323   3.611
14192TIP3    H242534   4.137   5.316   3.566
14193TIP3   OH242535   3.707   5.891   4.844
14193TIP3    H142536   3.741   5.971   4.804
14193TIP3    H242537   3.628   5.918   4.890
14194TIP3   OH242538   1.647   1.221   2.447
14194TIP3    H142539   1.632   1.313   2.472
14194TIP3    H242540   1.736   1.203   2.476
14195TIP3   OH242541   3.569   5.164   5.118
14195TIP3    H142542   3.538   5.175   5.028
14195TIP3    H242543   3.520   5.090   5.152
14196TIP3   OH242544   0.065   1.264   3.124
14196TIP3    H142545   0.054   1.251   3.218
14196TIP3    H242546   0.148   1.310   3.116
14197TIP3   OH242547   0.386   0.614   2.458
14197TIP3    H142548   0.451   0.571   2.514
14197TIP3    H242549   0.437   0.661   2.392
14198TIP3   OH242550   6.991   6.819   1.810
14198TIP3    H142551   6.972   6.913   1.801
14198TIP3    H242552   7.008   6.807   1.903
14199TIP3   OH242553   4.005   2.126   3.704
14199TIP3    H142554   4.068   2.176   3.651
14199TIP3    H242555   4.003   2.172   3.788
14200TIP3   OH242556   0.278   5.771   6.725
14200TIP3    H142557   0.219   5.805   6.657
14200TIP3    H242558   0.359   5.751   6.678
14201TIP3   OH242559   5.901   5.124   0.958
14201TIP3    H142560   5.835   5.072   0.913
14201TIP3    H242561   5.873   5.124   1.050
14202TIP3   OH242562   1.898   2.813   2.316
14202TIP3    H142563   1.902   2.854   2.229
14202TIP3    H242564   1.984   2.832   2.355
14203TIP3   OH242565   6.353   2.945   3.620
14203TIP3    H142566   6.393   3.000   3.553
14203TIP3    H242567   6.263   2.933   3.590
14204TIP3   OH242568   0.224   2.662   1.954
14204TIP3    H142569   0.186   2.675   1.868
14204TIP3    H242570   0.304   2.714   1.953
14205TIP3   OH242571   6.258   0.419   4.153
14205TIP3    H142572   6.351   0.415   4.174
14205TIP3    H242573   6.254   0.403   4.058
14206TIP3   OH242574   3.994   6.902   5.472
14206TIP3    H142575   3.997   6.809   5.451
14206TIP3    H242576   3.921   6.936   5.421
14207TIP3   OH242577   1.031   4.183   3.709
14207TIP3    H142578   1.106   4.123   3.711
14207TIP3    H242579   1.040   4.230   3.627
14208TIP3   OH242580   7.045   4.211   2.935
14208TIP3    H142581   7.113   4.258   2.887
14208TIP3    H242582   7.021   4.138   2.879
14209TIP3   OH242583   1.034   4.572   4.334
14209TIP3    H142584   1.102   4.509   4.311
14209TIP3    H242585   1.071   4.657   4.311
14210TIP3   OH242586   4.412   7.193   4.350
14210TIP3    H142587   4.464   7.116   4.329
14210TIP3    H242588   4.327   7.157   4.377
14211TIP3   OH242589   2.685   2.380   3.666
14211TIP3    H142590   2.608   2.327   3.647
14211TIP3    H242591   2.681   2.397   3.760
14212TIP3   OH242592   0.310   6.858   5.052
14212TIP3    H142593   0.306   6.952   5.033
14212TIP3    H242594   0.219   6.829   5.049
14213TIP3   OH242595   3.280   1.008   4.260
14213TIP3    H142596   3.338   1.074   4.298
14213TIP3    H242597   3.200   1.012   4.313
14214TIP3   OH242598   5.028   5.578   1.941
14214TIP3    H142599   4.964   5.537   2.000
14214TIP3    H242600   5.081   5.632   1.998
14215TIP3   OH242601   0.330   3.628   2.443
14215TIP3    H142602   0.337   3.581   2.526
14215TIP3    H242603   0.298   3.715   2.468
14216TIP3   OH242604   3.923   3.369   6.366
14216TIP3    H142605   3.936   3.449   6.314
14216TIP3    H242606   4.007   3.324   6.363
14217TIP3   OH242607   3.195   2.378   1.933
14217TIP3    H142608   3.135   2.341   1.867
14217TIP3    H242609   3.283   2.360   1.898
14218TIP3   OH242610   5.326   1.494   0.356
14218TIP3    H142611   5.381   1.436   0.410
14218TIP3    H242612   5.389   1.546   0.306
14219TIP3   OH242613   6.521   4.147   1.187
14219TIP3    H142614   6.573   4.226   1.173
14219TIP3    H242615   6.480   4.129   1.103
14220TIP3   OH242616   2.310   1.142   6.556
14220TIP3    H142617   2.327   1.201   6.629
14220TIP3    H242618   2.350   1.185   6.480
14221TIP3   OH242619   2.422   1.969   5.308
14221TIP3    H142620   2.495   1.910   5.323
14221TIP3    H242621   2.360   1.919   5.256
14222TIP3   OH242622   4.998   6.797   1.870
14222TIP3    H142623   5.057   6.798   1.945
14222TIP3    H242624   5.034   6.730   1.812
14223TIP3   OH242625   5.671   1.976   0.780
14223TIP3    H142626   5.755   1.966   0.734
14223TIP3    H242627   5.610   2.004   0.712
14224TIP3   OH242628   4.837   0.053   0.287
14224TIP3    H142629   4.820   0.131   0.233
14224TIP3    H242630   4.770   0.056   0.355
14225TIP3   OH242631   3.378   4.856   5.904
14225TIP3    H142632   3.414   4.841   5.992
14225TIP3    H242633   3.308   4.791   5.895
14226TIP3   OH242634   4.532   3.646   3.756
14226TIP3    H142635   4.486   3.724   3.787
14226TIP3    H242636   4.533   3.586   3.831
14227TIP3   OH242637   5.062   2.103   2.340
14227TIP3    H142638   4.995   2.046   2.378
14227TIP3    H242639   5.144   2.072   2.378
14228TIP3   OH242640   8.224   4.634   3.394
14228TIP3    H142641   8.314   4.603   3.395
14228TIP3    H242642   8.192   4.618   3.483
14229TIP3   OH242643   1.577   3.853   1.773
14229TIP3    H142644   1.643   3.921   1.780
14229TIP3    H242645   1.625   3.771   1.778
14230TIP3   OH242646   3.353   2.752   4.435
14230TIP3    H142647   3.346   2.807   4.357
14230TIP3    H242648   3.424   2.791   4.486
14231TIP3   OH242649   1.880   4.420   0.431
14231TIP3    H142650   1.823   4.354   0.391
14231TIP3    H242651   1.832   4.451   0.507
14232TIP3   OH242652   2.301   3.335   1.348
14232TIP3    H142653   2.377   3.281   1.369
14232TIP3    H242654   2.249   3.335   1.429
14233TIP3   OH242655   4.202   4.666   5.194
14233TIP3    H142656   4.182   4.737   5.256
14233TIP3    H242657   4.293   4.643   5.212
14234TIP3   OH242658   3.526   3.636   3.216
14234TIP3    H142659   3.520   3.640   3.311
14234TIP3    H242660   3.524   3.727   3.187
14235TIP3   OH242661   7.016   1.167   2.004
14235TIP3    H142662   6.938   1.165   1.949
14235TIP3    H242663   7.028   1.260   2.026
14236TIP3   OH242664   0.251   2.105   4.517
14236TIP3    H142665   0.306   2.172   4.558
14236TIP3    H242666   0.209   2.151   4.444
14237TIP3   OH242667   3.604   1.764   6.724
14237TIP3    H142668   3.590   1.844   6.672
14237TIP3    H242669   3.519   1.747   6.766
14238TIP3   OH242670   5.452   5.699   6.111
14238TIP3    H142671   5.465   5.772   6.172
14238TIP3    H242672   5.426   5.740   6.029
14239TIP3   OH242673   6.045   6.385   2.323
14239TIP3    H142674   6.089   6.465   2.297
14239TIP3    H242675   6.107   6.315   2.302
14240TIP3   OH242676   6.685   0.430   2.533
14240TIP3    H142677   6.669   0.366   2.602
14240TIP3    H242678   6.662   0.385   2.452
14241TIP3   OH242679   2.574   4.860   0.829
14241TIP3    H142680   2.506   4.913   0.788
14241TIP3    H242681   2.557   4.771   0.798
14242TIP3   OH242682   0.302   6.669   6.665
14242TIP3    H142683   0.371   6.735   6.672
14242TIP3    H242684   0.274   6.674   6.574
14243TIP3   OH242685   0.333   5.751   4.194
14243TIP3    H142686   0.345   5.658   4.178
14243TIP3    H242687   0.246   5.770   4.159
14244TIP3   OH242688   3.218   6.882   2.490
14244TIP3    H142689   3.129   6.864   2.459
14244TIP3    H242690   3.260   6.930   2.419
14245TIP3   OH242691   4.992   3.342   2.706
14245TIP3    H142692   4.947   3.410   2.756
14245TIP3    H242693   5.004   3.270   2.768
14246TIP3   OH242694   2.872   1.034   5.151
14246TIP3    H142695   2.809   1.087   5.102
14246TIP3    H242696   2.900   1.091   5.223
14247TIP3   OH242697   1.574   3.352   6.500
14247TIP3    H142698   1.605   3.323   6.414
14247TIP3    H242699   1.629   3.428   6.521
14248TIP3   OH242700   5.529   5.254   3.764
14248TIP3    H142701   5.582   5.291   3.694
14248TIP3    H242702   5.494   5.173   3.728
14249TIP3   OH242703   6.408   3.730   4.911
14249TIP3    H142704   6.454   3.770   4.837
14249TIP3    H242705   6.443   3.641   4.915
14250TIP3   OH242706   5.723   0.077   1.118
14250TIP3    H142707   5.684   0.137   1.055
14250TIP3    H242708   5.650   0.053   1.176
14251TIP3   OH242709   6.918   1.489   6.105
14251TIP3    H142710   6.968   1.478   6.024
14251TIP3    H242711   6.935   1.409   6.155
14252TIP3   OH242712   2.819   0.885   3.136
14252TIP3    H142713   2.734   0.930   3.137
14252TIP3    H242714   2.798   0.794   3.153
14253TIP3   OH242715   4.910   5.323   5.331
14253TIP3    H142716   4.887   5.257   5.266
14253TIP3    H242717   5.006   5.325   5.331
14254TIP3   OH242718   0.953   1.119   2.547
14254TIP3    H142719   1.022   1.073   2.501
14254TIP3    H242720   0.926   1.059   2.617
14255TIP3   OH242721   7.083   0.628   6.709
14255TIP3    H142722   7.069   0.721   6.722
14255TIP3    H242723   6.995   0.591   6.698
14256TIP3   OH242724   5.750   1.140   2.426
14256TIP3    H142725   5.803   1.191   2.487
14256TIP3    H242726   5.797   1.057   2.417
14257TIP3   OH242727   5.160   2.424   4.938
14257TIP3    H142728   5.121   2.479   5.006
14257TIP3    H242729   5.147   2.473   4.857
14258TIP3   OH242730   2.996   3.009   1.012
14258TIP3    H142731   3.026   2.951   0.942
14258TIP3    H242732   2.926   2.961   1.055
14259TIP3   OH242733   8.076   7.622   0.177
14259TIP3    H142734   8.002   7.635   0.236
14259TIP3    H242735   8.125   7.549   0.215
14260TIP3   OH242736   4.990   3.664   1.431
14260TIP3    H142737   5.029   3.668   1.344
14260TIP3    H242738   5.036   3.732   1.481
14261TIP3   OH242739   3.972   5.798   6.386
14261TIP3    H142740   3.937   5.886   6.379
14261TIP3    H242741   3.916   5.745   6.330
14262TIP3   OH242742   5.475   4.440   0.152
14262TIP3    H142743   5.533   4.367   0.133
14262TIP3    H242744   5.417   4.446   0.076
14263TIP3   OH242745   3.960   7.586   0.312
14263TIP3    H142746   3.925   7.499   0.327
14263TIP3    H242747   4.048   7.584   0.349
14264TIP3   OH242748   2.771   6.314   0.196
14264TIP3    H142749   2.834   6.244   0.177
14264TIP3    H242750   2.691   6.288   0.150
14265TIP3   OH242751   1.617   5.508   3.789
14265TIP3    H142752   1.683   5.534   3.726
14265TIP3    H242753   1.542   5.564   3.770
14266TIP3   OH242754   5.968   6.841   5.295
14266TIP3    H142755   5.924   6.811   5.375
14266TIP3    H242756   5.984   6.934   5.310
14267TIP3   OH242757   6.360   1.169   0.028
14267TIP3    H142758   6.338   1.259   0.004
14267TIP3    H242759   6.429   1.145  -0.034
14268TIP3   OH242760   1.414   1.554   3.995
14268TIP3    H142761   1.438   1.646   3.982
14268TIP3    H242762   1.498   1.510   4.009
14269TIP3   OH242763   3.611   7.182   0.156
14269TIP3    H142764   3.616   7.137   0.071
14269TIP3    H242765   3.658   7.125   0.216
14270TIP3   OH242766   1.703   6.238   3.914
14270TIP3    H142767   1.771   6.189   3.868
14270TIP3    H242768   1.734   6.329   3.912
14271TIP3   OH242769   6.101   3.496   4.167
14271TIP3    H142770   6.073   3.500   4.076
14271TIP3    H242771   6.164   3.424   4.169
14272TIP3   OH242772   5.019   6.846   2.887
14272TIP3    H142773   4.969   6.856   2.968
14272TIP3    H242774   5.106   6.879   2.909
14273TIP3   OH242775   3.479   4.484   2.212
14273TIP3    H142776   3.541   4.478   2.284
14273TIP3    H242777   3.497   4.407   2.158
14274TIP3   OH242778   1.888   2.759   5.153
14274TIP3    H142779   1.887   2.842   5.201
14274TIP3    H242780   1.804   2.757   5.107
14275TIP3   OH242781   3.524   3.564   5.789
14275TIP3    H142782   3.466   3.546   5.863
14275TIP3    H242783   3.477   3.630   5.738
14276TIP3   OH242784   7.344   4.890   2.269
14276TIP3    H142785   7.284   4.817   2.280
14276TIP3    H242786   7.384   4.902   2.356
14277TIP3   OH242787   1.118   5.802   6.247
14277TIP3    H142788   1.135   5.775   6.338
14277TIP3    H242789   1.142   5.725   6.195
14278TIP3   OH242790   6.493   2.678   4.169
14278TIP3    H142791   6.402   2.692   4.143
14278TIP3    H242792   6.492   2.593   4.213
14279TIP3   OH242793   6.528   2.334   5.874
14279TIP3    H142794   6.557   2.264   5.932
14279TIP3    H242795   6.560   2.414   5.916
14280TIP3   OH242796   7.751   7.654   0.879
14280TIP3    H142797   7.701   7.720   0.927
14280TIP3    H242798   7.804   7.611   0.946
14281TIP3   OH242799   7.306   5.498   1.247
14281TIP3    H142800   7.298   5.453   1.163
14281TIP3    H242801   7.386   5.550   1.239
14282TIP3   OH242802   6.668   1.736   6.535
14282TIP3    H142803   6.577   1.707   6.530
14282TIP3    H242804   6.707   1.707   6.453
14283TIP3   OH242805   6.890   3.652   2.828
14283TIP3    H142806   6.822   3.647   2.760
14283TIP3    H242807   6.936   3.733   2.810
14284TIP3   OH242808   6.268   7.223   2.701
14284TIP3    H142809   6.321   7.198   2.625
14284TIP3    H242810   6.284   7.153   2.765
14285TIP3   OH242811   3.035   0.594   2.638
14285TIP3    H142812   3.028   0.611   2.545
14285TIP3    H242813   2.964   0.532   2.657
14286TIP3   OH242814   5.526   3.333   3.855
14286TIP3    H142815   5.509   3.301   3.767
14286TIP3    H242816   5.471   3.411   3.863
14287TIP3   OH242817   5.863   0.609   4.998
14287TIP3    H142818   5.838   0.669   4.928
14287TIP3    H242819   5.863   0.523   4.956
14288TIP3   OH242820   2.508   3.268   4.425
14288TIP3    H142821   2.479   3.187   4.469
14288TIP3    H242822   2.470   3.338   4.477
14289TIP3   OH242823   7.133   2.263   1.060
14289TIP3    H142824   7.193   2.208   1.009
14289TIP3    H242825   7.122   2.342   1.007
14290TIP3   OH242826   0.583   2.637   1.707
14290TIP3    H142827   0.533   2.684   1.773
14290TIP3    H242828   0.561   2.681   1.624
14291TIP3   OH242829   3.990   5.350   2.840
14291TIP3    H142830   3.998   5.263   2.881
14291TIP3    H242831   3.987   5.331   2.746
14292TIP3   OH242832   0.397   7.305   5.583
14292TIP3    H142833   0.460   7.244   5.619
14292TIP3    H242834   0.449   7.380   5.556
14293TIP3   OH242835   6.988   6.733   6.567
14293TIP3    H142836   6.985   6.826   6.587
14293TIP3    H242837   6.943   6.690   6.639
14294TIP3   OH242838   3.242   2.500   4.769
14294TIP3    H142839   3.310   2.555   4.729
14294TIP3    H242840   3.215   2.548   4.847
14295TIP3   OH242841   3.480   3.141   1.861
14295TIP3    H142842   3.389   3.170   1.859
14295TIP3    H242843   3.511   3.165   1.949
14296TIP3   OH242844   3.200   0.660   2.869
14296TIP3    H142845   3.159   0.709   2.941
14296TIP3    H242846   3.128   0.634   2.813
14297TIP3   OH242847   2.781   7.711   5.720
14297TIP3    H142848   2.848   7.774   5.750
14297TIP3    H242849   2.831   7.643   5.676
14298TIP3   OH242850   6.757   0.817   2.617
14298TIP3    H142851   6.792   0.854   2.535
14298TIP3    H242852   6.812   0.854   2.685
14299TIP3   OH242853   6.752   1.909   1.125
14299TIP3    H142854   6.828   1.953   1.161
14299TIP3    H242855   6.773   1.816   1.132
14300TIP3   OH242856   5.388   7.345   5.622
14300TIP3    H142857   5.358   7.314   5.537
14300TIP3    H242858   5.310   7.386   5.661
14301TIP3   OH242859   1.443   1.499   6.135
14301TIP3    H142860   1.426   1.554   6.212
14301TIP3    H242861   1.366   1.442   6.129
14302TIP3   OH242862   0.072   7.119   5.096
14302TIP3    H142863   0.143   7.175   5.065
14302TIP3    H242864   0.008   7.118   5.024
14303TIP3   OH242865   8.068   0.239   2.146
14303TIP3    H142866   8.021   0.321   2.161
14303TIP3    H242867   8.055   0.189   2.227
14304TIP3   OH242868   2.400   1.145   2.467
14304TIP3    H142869   2.360   1.102   2.543
14304TIP3    H242870   2.468   1.085   2.439
14305TIP3   OH242871   7.610   4.201   1.920
14305TIP3    H142872   7.518   4.206   1.945
14305TIP3    H242873   7.615   4.248   1.837
14306TIP3   OH242874   6.115   1.741   1.433
14306TIP3    H142875   6.070   1.826   1.440
14306TIP3    H242876   6.063   1.682   1.487
14307TIP3   OH242877   8.040   0.495   4.963
14307TIP3    H142878   8.113   0.444   4.997
14307TIP3    H242879   7.966   0.434   4.962
14308TIP3   OH242880   5.915   2.340   1.319
14308TIP3    H142881   5.884   2.376   1.402
14308TIP3    H242882   5.872   2.255   1.312
14309TIP3   OH242883   0.269   3.298   2.001
14309TIP3    H142884   0.288   3.332   2.088
14309TIP3    H242885   0.285   3.204   2.009
14310TIP3   OH242886   3.861   4.376   3.741
14310TIP3    H142887   3.895   4.448   3.794
14310TIP3    H242888   3.805   4.418   3.676
14311TIP3   OH242889   4.946   1.320   4.795
14311TIP3    H142890   4.874   1.318   4.858
14311TIP3    H242891   4.958   1.228   4.769
14312TIP3   OH242892   2.294   1.393   5.214
14312TIP3    H142893   2.313   1.361   5.126
14312TIP3    H242894   2.204   1.365   5.231
14313TIP3   OH242895   1.835   0.461   1.091
14313TIP3    H142896   1.823   0.372   1.122
14313TIP3    H242897   1.922   0.461   1.052
14314TIP3   OH242898   2.011   2.360   4.154
14314TIP3    H142899   1.994   2.291   4.217
14314TIP3    H242900   1.929   2.368   4.105
14315TIP3   OH242901   7.635   4.556   6.412
14315TIP3    H142902   7.675   4.479   6.373
14315TIP3    H242903   7.625   4.618   6.340
14316TIP3   OH242904   3.455   0.592   1.982
14316TIP3    H142905   3.392   0.638   2.036
14316TIP3    H242906   3.501   0.533   2.043
14317TIP3   OH242907   6.285   2.180   5.899
14317TIP3    H142908   6.321   2.138   5.822
14317TIP3    H242909   6.327   2.266   5.901
14318TIP3   OH242910   2.353   6.166   0.820
14318TIP3    H142911   2.367   6.109   0.744
14318TIP3    H242912   2.441   6.189   0.849
14319TIP3   OH242913   0.099   6.200   3.477
14319TIP3    H142914   0.170   6.230   3.420
14319TIP3    H242915   0.048   6.279   3.496
14320TIP3   OH242916   6.232   5.337   3.795
14320TIP3    H142917   6.287   5.260   3.808
14320TIP3    H242918   6.289   5.411   3.818
14321TIP3   OH242919   3.080   6.923   5.683
14321TIP3    H142920   2.999   6.969   5.662
14321TIP3    H242921   3.118   6.901   5.598
14322TIP3   OH242922   8.248   4.594   4.005
14322TIP3    H142923   8.219   4.683   3.986
14322TIP3    H242924   8.198   4.569   4.083
14323TIP3   OH242925   3.815   5.008   4.735
14323TIP3    H142926   3.781   4.932   4.687
14323TIP3    H242927   3.837   5.071   4.667
14324TIP3   OH242928   7.816   4.210   3.942
14324TIP3    H142929   7.802   4.153   4.017
14324TIP3    H242930   7.746   4.189   3.882
14325TIP3   OH242931   7.660   6.605   4.710
14325TIP3    H142932   7.669   6.512   4.732
14325TIP3    H242933   7.615   6.605   4.626
14326TIP3   OH242934   2.590   5.058   1.542
14326TIP3    H142935   2.540   5.112   1.480
14326TIP3    H242936   2.607   4.977   1.495
14327TIP3   OH242937   1.774   6.483   6.280
14327TIP3    H142938   1.799   6.455   6.367
14327TIP3    H242939   1.700   6.542   6.294
14328TIP3   OH242940   7.379   5.791   5.123
14328TIP3    H142941   7.449   5.816   5.063
14328TIP3    H242942   7.410   5.711   5.166
14329TIP3   OH242943   0.926   2.160   0.403
14329TIP3    H142944   0.970   2.234   0.445
14329TIP3    H242945   0.833   2.183   0.406
14330TIP3   OH242946   6.728   1.688   0.089
14330TIP3    H142947   6.778   1.691   0.170
14330TIP3    H242948   6.745   1.772   0.047
14331TIP3   OH242949   3.899   3.244   2.231
14331TIP3    H142950   3.873   3.335   2.217
14331TIP3    H242951   3.830   3.207   2.287
14332TIP3   OH242952   1.716   0.295   1.796
14332TIP3    H142953   1.715   0.298   1.700
14332TIP3    H242954   1.809   0.282   1.818
14333TIP3   OH242955   0.876   7.649   3.459
14333TIP3    H142956   0.900   7.576   3.516
14333TIP3    H242957   0.958   7.695   3.443
14334TIP3   OH242958   4.754   1.124   4.922
14334TIP3    H142959   4.689   1.060   4.892
14334TIP3    H242960   4.734   1.136   5.015
14335TIP3   OH242961   3.844   1.890   0.035
14335TIP3    H142962   3.825   1.812   0.087
14335TIP3    H242963   3.932   1.874  -0.001
14336TIP3   OH242964   1.248   3.409   4.121
14336TIP3    H142965   1.254   3.498   4.155
14336TIP3    H242966   1.299   3.356   4.182
14337TIP3   OH242967   6.520   0.043   6.208
14337TIP3    H142968   6.463  -0.020   6.252
14337TIP3    H242969   6.517   0.121   6.264
14338TIP3   OH242970   3.132   2.954   0.773
14338TIP3    H142971   3.135   2.992   0.686
14338TIP3    H242972   3.109   2.862   0.758
14339TIP3   OH242973   1.057   0.124   1.098
14339TIP3    H142974   1.124   0.065   1.133
14339TIP3    H242975   1.106   0.202   1.072
14340TIP3   OH242976   4.338   2.205   2.626
14340TIP3    H142977   4.327   2.111   2.640
14340TIP3    H242978   4.250   2.241   2.635
14341TIP3   OH242979   6.589   6.187   3.722
14341TIP3    H142980   6.676   6.151   3.739
14341TIP3    H242981   6.536   6.158   3.797
14342TIP3   OH242982   4.210   5.198   2.682
14342TIP3    H142983   4.232   5.112   2.649
14342TIP3    H242984   4.257   5.205   2.765
14343TIP3   OH242985   3.602   3.411   0.795
14343TIP3    H142986   3.561   3.324   0.799
14343TIP3    H242987   3.534   3.468   0.760
14344TIP3   OH242988   5.181   5.680   2.151
14344TIP3    H142989   5.267   5.717   2.172
14344TIP3    H242990   5.119   5.751   2.167
14345TIP3   OH242991   8.110   1.280   3.076
14345TIP3    H142992   8.087   1.241   3.161
14345TIP3    H242993   8.205   1.293   3.080
14346TIP3   OH242994   5.148   6.776   0.990
14346TIP3    H142995   5.123   6.747   0.903
14346TIP3    H242996   5.112   6.710   1.049
14347TIP3   OH242997   5.918   6.011   2.429
14347TIP3    H142998   5.996   5.964   2.399
14347TIP3    H242999   5.851   5.944   2.438
14348TIP3   OH243000   1.401   2.856   0.411
14348TIP3    H143001   1.408   2.792   0.482
14348TIP3    H243002   1.471   2.919   0.428
14349TIP3   OH243003   6.480   4.265   5.662
14349TIP3    H143004   6.426   4.199   5.618
14349TIP3    H243005   6.512   4.221   5.740
14350TIP3   OH243006   0.702   6.344   5.179
14350TIP3    H143007   0.629   6.324   5.120
14350TIP3    H243008   0.722   6.436   5.161
14351TIP3   OH243009   8.044   1.691   3.709
14351TIP3    H143010   7.998   1.632   3.769
14351TIP3    H243011   7.990   1.770   3.706
14352TIP3   OH243012   2.505   5.298   1.419
14352TIP3    H143013   2.461   5.361   1.362
14352TIP3    H243014   2.568   5.350   1.469
14353TIP3   OH243015   1.653   7.109   6.586
14353TIP3    H143016   1.573   7.074   6.547
14353TIP3    H243017   1.681   7.179   6.527
14354TIP3   OH243018   0.186   4.776   2.963
14354TIP3    H143019   0.099   4.811   2.983
14354TIP3    H243020   0.195   4.700   3.020
14355TIP3   OH243021   3.603   5.084   6.086
14355TIP3    H143022   3.660   5.073   6.011
14355TIP3    H243023   3.575   4.996   6.109
14356TIP3   OH243024   6.351   6.246   5.113
14356TIP3    H143025   6.283   6.198   5.065
14356TIP3    H243026   6.313   6.332   5.128
14357TIP3   OH243027   6.950   5.764   1.103
14357TIP3    H143028   7.045   5.763   1.098
14357TIP3    H243029   6.929   5.692   1.163
14358TIP3   OH243030   4.783   2.094   3.297
14358TIP3    H143031   4.703   2.146   3.289
14358TIP3    H243032   4.823   2.124   3.379
14359TIP3   OH243033   0.842   0.242   0.412
14359TIP3    H143034   0.796   0.309   0.362
14359TIP3    H243035   0.817   0.159   0.371
14360TIP3   OH243036   7.379   4.453   0.234
14360TIP3    H143037   7.411   4.480   0.147
14360TIP3    H243038   7.415   4.519   0.293
14361TIP3   OH243039   0.177   0.590   3.667
14361TIP3    H143040   0.101   0.602   3.723
14361TIP3    H243041   0.177   0.496   3.646
14362TIP3   OH243042   1.895   4.595   5.996
14362TIP3    H143043   1.987   4.605   5.971
14362TIP3    H243044   1.856   4.546   5.924
14363TIP3   OH243045   1.561   2.843   3.550
14363TIP3    H143046   1.613   2.864   3.628
14363TIP3    H243047   1.579   2.915   3.490
14364TIP3   OH243048   7.125   5.870   4.936
14364TIP3    H143049   7.194   5.933   4.951
14364TIP3    H243050   7.165   5.803   4.880
14365TIP3   OH243051   2.355   3.779   3.466
14365TIP3    H143052   2.293   3.725   3.515
14365TIP3    H243053   2.441   3.750   3.495
14366TIP3   OH243054   1.776   7.213   0.427
14366TIP3    H143055   1.747   7.268   0.355
14366TIP3    H243056   1.834   7.269   0.479
14367TIP3   OH243057   1.861   3.263   3.891
14367TIP3    H143058   1.942   3.297   3.852
14367TIP3    H243059   1.836   3.331   3.955
14368TIP3   OH243060   2.874   6.765   2.896
14368TIP3    H143061   2.943   6.755   2.831
14368TIP3    H243062   2.819   6.836   2.862
14369TIP3   OH243063   1.861   4.278   3.142
14369TIP3    H143064   1.792   4.284   3.208
14369TIP3    H243065   1.936   4.240   3.188
14370TIP3   OH243066   3.403   5.383   1.385
14370TIP3    H143067   3.456   5.436   1.443
14370TIP3    H243068   3.385   5.303   1.435
14371TIP3   OH243069   3.791   7.316   3.847
14371TIP3    H143070   3.814   7.382   3.912
14371TIP3    H243071   3.705   7.283   3.875
14372TIP3   OH243072   5.677   7.038   4.230
14372TIP3    H143073   5.588   7.012   4.208
14372TIP3    H243074   5.674   7.133   4.233
14373TIP3   OH243075   2.897   2.520   2.141
14373TIP3    H143076   2.908   2.534   2.047
14373TIP3    H243077   2.873   2.606   2.176
14374TIP3   OH243078   1.906   7.622   3.666
14374TIP3    H143079   1.918   7.533   3.635
14374TIP3    H243080   1.958   7.626   3.747
14375TIP3   OH243081   0.045   4.325   2.367
14375TIP3    H143082   0.118   4.265   2.356
14375TIP3    H243083   0.019   4.350   2.278
14376TIP3   OH243084   2.671   5.016   5.489
14376TIP3    H143085   2.637   5.028   5.578
14376TIP3    H243086   2.686   4.922   5.482
14377TIP3   OH243087   0.525   6.944   5.427
14377TIP3    H143088   0.538   6.925   5.334
14377TIP3    H243089   0.608   6.981   5.455
14378TIP3   OH243090   4.002   1.444   2.446
14378TIP3    H143091   4.018   1.492   2.527
14378TIP3    H243092   3.907   1.435   2.441
14379TIP3   OH243093   5.396   4.447   0.693
14379TIP3    H143094   5.354   4.401   0.620
14379TIP3    H243095   5.458   4.507   0.651
14380TIP3   OH243096   2.836   1.046   6.531
14380TIP3    H143097   2.904   1.113   6.525
14380TIP3    H243098   2.803   1.038   6.441
14381TIP3   OH243099   6.684   1.051   2.267
14381TIP3    H143100   6.637   0.983   2.315
14381TIP3    H243101   6.677   1.025   2.175
14382TIP3   OH243102   3.658   7.107   2.096
14382TIP3    H143103   3.640   7.021   2.058
14382TIP3    H243104   3.728   7.090   2.160
14383TIP3   OH243105   4.236   2.623   0.246
14383TIP3    H143106   4.228   2.636   0.340
14383TIP3    H243107   4.245   2.528   0.236
14384TIP3   OH243108   2.104   2.466   3.133
14384TIP3    H143109   2.028   2.497   3.085
14384TIP3    H243110   2.069   2.434   3.216
14385TIP3   OH243111   3.788   5.084   5.880
14385TIP3    H143112   3.841   5.153   5.838
14385TIP3    H243113   3.846   5.008   5.883
14386TIP3   OH243114   8.133   5.513   4.193
14386TIP3    H143115   8.052   5.495   4.145
14386TIP3    H243116   8.201   5.465   4.146
14387TIP3   OH243117   0.140   5.184   1.073
14387TIP3    H143118   0.053   5.218   1.097
14387TIP3    H243119   0.201   5.242   1.118
14388TIP3   OH243120   1.291   6.231   0.899
14388TIP3    H143121   1.294   6.136   0.912
14388TIP3    H243122   1.358   6.266   0.958
14389TIP3   OH243123   7.563   1.241   2.015
14389TIP3    H143124   7.527   1.168   1.966
14389TIP3    H243125   7.506   1.315   1.994
14390TIP3   OH243126   0.996   6.363   4.077
14390TIP3    H143127   0.936   6.432   4.047
14390TIP3    H243128   0.983   6.291   4.015
14391TIP3   OH243129   6.362   7.582   2.887
14391TIP3    H143130   6.321   7.553   2.805
14391TIP3    H243131   6.402   7.503   2.923
14392TIP3   OH243132   3.096   5.261   1.106
14392TIP3    H143133   3.139   5.240   1.023
14392TIP3    H243134   3.149   5.330   1.144
14393TIP3   OH243135   1.092   5.152   4.298
14393TIP3    H143136   1.074   5.151   4.392
14393TIP3    H243137   1.133   5.237   4.283
14394TIP3   OH243138   4.124   3.866   4.474
14394TIP3    H143139   4.105   3.820   4.555
14394TIP3    H243140   4.187   3.934   4.498
14395TIP3   OH243141   4.626   6.298   6.012
14395TIP3    H143142   4.640   6.310   6.106
14395TIP3    H243143   4.595   6.208   6.003
14396TIP3   OH243144   4.930   6.822   0.170
14396TIP3    H143145   4.841   6.850   0.193
14396TIP3    H243146   4.965   6.782   0.249
14397TIP3   OH243147   6.180   2.863   0.960
14397TIP3    H143148   6.107   2.802   0.974
14397TIP3    H243149   6.212   2.881   1.048
14398TIP3   OH243150   3.704   5.001   0.724
14398TIP3    H143151   3.707   4.999   0.628
14398TIP3    H243152   3.612   4.985   0.745
14399TIP3   OH243153   7.824   3.993   2.869
14399TIP3    H143154   7.846   3.982   2.777
14399TIP3    H243155   7.761   3.924   2.887
14400TIP3   OH243156   2.085   1.162   4.736
14400TIP3    H143157   2.012   1.162   4.675
14400TIP3    H243158   2.130   1.079   4.720
14401TIP3   OH243159   4.875   7.015   1.657
14401TIP3    H143160   4.876   7.106   1.630
14401TIP3    H243161   4.914   7.015   1.745
14402TIP3   OH243162   6.443   1.747   0.500
14402TIP3    H143163   6.485   1.672   0.542
14402TIP3    H243164   6.469   1.741   0.408
14403TIP3   OH243165   1.911   1.327   1.116
14403TIP3    H143166   1.964   1.402   1.088
14403TIP3    H243167   1.836   1.366   1.162
14404TIP3   OH243168   3.624   3.624   0.294
14404TIP3    H143169   3.556   3.691   0.297
14404TIP3    H243170   3.587   3.550   0.342
14405TIP3   OH243171   6.882   3.185   3.698
14405TIP3    H143172   6.968   3.187   3.656
14405TIP3    H243173   6.859   3.092   3.703
14406TIP3   OH243174   7.586   6.217   2.302
14406TIP3    H143175   7.619   6.186   2.218
14406TIP3    H243176   7.661   6.262   2.342
14407TIP3   OH243177   7.652   5.760   5.575
14407TIP3    H143178   7.733   5.808   5.556
14407TIP3    H243179   7.583   5.814   5.535
14408TIP3   OH243180   4.525   6.539  -0.009
14408TIP3    H143181   4.559   6.506   0.074
14408TIP3    H243182   4.433   6.557   0.010
14409TIP3   OH243183   0.737   2.002   2.306
14409TIP3    H143184   0.805   2.051   2.260
14409TIP3    H243185   0.782   1.922   2.337
14410TIP3   OH243186   2.310   4.994   3.738
14410TIP3    H143187   2.389   5.043   3.717
14410TIP3    H243188   2.341   4.904   3.750
14411TIP3   OH243189   3.192   4.865   0.678
14411TIP3    H143190   3.113   4.910   0.648
14411TIP3    H243191   3.176   4.849   0.771
14412TIP3   OH243192   1.319   6.422   0.134
14412TIP3    H143193   1.395   6.473   0.107
14412TIP3    H243194   1.341   6.332   0.111
14413TIP3   OH243195   6.495   7.396   2.222
14413TIP3    H143196   6.490   7.367   2.130
14413TIP3    H243197   6.588   7.393   2.243
14414TIP3   OH243198   6.545   2.190   3.693
14414TIP3    H143199   6.514   2.238   3.617
14414TIP3    H243200   6.472   2.192   3.755
14415TIP3   OH243201   7.101   4.776   2.475
14415TIP3    H143202   7.020   4.746   2.517
14415TIP3    H243203   7.170   4.753   2.536
14416TIP3   OH243204   3.802   6.523   4.687
14416TIP3    H143205   3.867   6.561   4.628
14416TIP3    H243206   3.722   6.517   4.635
14417TIP3   OH243207   0.081   7.142   2.301
14417TIP3    H143208   0.056   7.122   2.210
14417TIP3    H243209   0.030   7.082   2.354
14418TIP3   OH243210   5.764   7.452   2.723
14418TIP3    H143211   5.857   7.469   2.740
14418TIP3    H243212   5.722   7.462   2.809
14419TIP3   OH243213   6.386   3.912   6.192
14419TIP3    H143214   6.293   3.934   6.188
14419TIP3    H243215   6.430   3.983   6.145
14420TIP3   OH243216   3.412   5.579   0.316
14420TIP3    H143217   3.483   5.549   0.372
14420TIP3    H243218   3.367   5.499   0.290
14421TIP3   OH243219   5.918   6.854   5.705
14421TIP3    H143220   5.964   6.931   5.737
14421TIP3    H243221   5.964   6.780   5.745
14422TIP3   OH243222   1.083   1.951   1.984
14422TIP3    H143223   1.087   1.971   2.077
14422TIP3    H243224   0.995   1.977   1.957
14423TIP3   OH243225   1.283   4.737   4.276
14423TIP3    H143226   1.272   4.657   4.225
14423TIP3    H243227   1.241   4.805   4.223
14424TIP3   OH243228   5.219   3.752   4.805
14424TIP3    H143229   5.295   3.794   4.764
14424TIP3    H243230   5.153   3.820   4.809
14425TIP3   OH243231   7.986   2.814   1.461
14425TIP3    H143232   7.901   2.854   1.442
14425TIP3    H243233   8.008   2.846   1.548
14426TIP3   OH243234   4.544   0.645   4.908
14426TIP3    H143235   4.621   0.668   4.960
14426TIP3    H243236   4.501   0.576   4.958
14427TIP3   OH243237   1.154   1.761   3.148
14427TIP3    H143238   1.135   1.843   3.193
14427TIP3    H243239   1.206   1.787   3.071
14428TIP3   OH243240   5.886   2.332   0.820
14428TIP3    H143241   5.876   2.322   0.726
14428TIP3    H243242   5.980   2.329   0.835
14429TIP3   OH243243   1.046   5.904   1.697
14429TIP3    H143244   1.109   5.861   1.755
14429TIP3    H243245   1.038   5.845   1.622
14430TIP3   OH243246   2.803   0.467   4.192
14430TIP3    H143247   2.812   0.518   4.111
14430TIP3    H243248   2.723   0.501   4.233
14431TIP3   OH243249   8.227   3.684   6.351
14431TIP3    H143250   8.245   3.602   6.396
14431TIP3    H243251   8.165   3.661   6.282
14432TIP3   OH243252   6.956   4.407   6.594
14432TIP3    H143253   7.037   4.441   6.631
14432TIP3    H243254   6.906   4.378   6.670
14433TIP3   OH243255   4.041   0.652   5.533
14433TIP3    H143256   3.955   0.635   5.572
14433TIP3    H243257   4.022   0.682   5.445
14434TIP3   OH243258   3.182   6.517   2.778
14434TIP3    H143259   3.190   6.462   2.700
14434TIP3    H243260   3.206   6.459   2.850
14435TIP3   OH243261   6.305   5.305   0.187
14435TIP3    H143262   6.385   5.319   0.136
14435TIP3    H243263   6.264   5.391   0.191
14436TIP3   OH243264   2.423   3.661   5.060
14436TIP3    H143265   2.469   3.722   5.117
14436TIP3    H243266   2.330   3.684   5.071
14437TIP3   OH243267   2.472   0.742   4.160
14437TIP3    H143268   2.543   0.779   4.108
14437TIP3    H243269   2.405   0.718   4.096
14438TIP3   OH243270   0.772   6.058   0.707
14438TIP3    H143271   0.841   6.122   0.695
14438TIP3    H243272   0.730   6.052   0.621
14439TIP3   OH243273   0.294   5.597   1.915
14439TIP3    H143274   0.222   5.592   1.852
14439TIP3    H243275   0.254   5.636   1.993
14440TIP3   OH243276   8.083   0.174   5.531
14440TIP3    H143277   8.131   0.245   5.487
14440TIP3    H243278   8.124   0.168   5.617
14441TIP3   OH243279   8.274   7.178   1.805
14441TIP3    H143280   8.324   7.210   1.730
14441TIP3    H243281   8.201   7.240   1.813
14442TIP3   OH243282   2.587   3.803   0.372
14442TIP3    H143283   2.650   3.840   0.309
14442TIP3    H243284   2.610   3.711   0.378
14443TIP3   OH243285   5.678   1.667   2.569
14443TIP3    H143286   5.771   1.674   2.589
14443TIP3    H243287   5.648   1.591   2.619
14444TIP3   OH243288   3.802   1.329   6.737
14444TIP3    H143289   3.792   1.423   6.722
14444TIP3    H243290   3.862   1.300   6.668
14445TIP3   OH243291   4.317   2.051   5.438
14445TIP3    H143292   4.269   2.044   5.521
14445TIP3    H243293   4.401   2.008   5.455
14446TIP3   OH243294   0.300   2.215   5.480
14446TIP3    H143295   0.253   2.251   5.405
14446TIP3    H243296   0.342   2.292   5.521
14447TIP3   OH243297   1.275   6.277   5.104
14447TIP3    H143298   1.303   6.272   5.013
14447TIP3    H243299   1.183   6.300   5.100
14448TIP3   OH243300   5.475   3.468   5.652
14448TIP3    H143301   5.550   3.443   5.599
14448TIP3    H243302   5.399   3.437   5.603
14449TIP3   OH243303   3.913   1.623   1.883
14449TIP3    H143304   3.957   1.708   1.889
14449TIP3    H243305   3.981   1.560   1.910
14450TIP3   OH243306   0.139   6.967   6.486
14450TIP3    H143307   0.167   6.932   6.570
14450TIP3    H243308   0.158   6.897   6.423
14451TIP3   OH243309   3.292   6.573   2.345
14451TIP3    H143310   3.234   6.638   2.304
14451TIP3    H243311   3.355   6.551   2.276
14452TIP3   OH243312   0.365   3.656   3.616
14452TIP3    H143313   0.450   3.617   3.592
14452TIP3    H243314   0.357   3.638   3.709
14453TIP3   OH243315   1.696   4.741   3.831
14453TIP3    H143316   1.606   4.708   3.839
14453TIP3    H243317   1.709   4.792   3.911
14454TIP3   OH243318   3.271   6.606   6.779
14454TIP3    H143319   3.324   6.541   6.733
14454TIP3    H243320   3.213   6.554   6.835
14455TIP3   OH243321   3.741   5.080   1.269
14455TIP3    H143322   3.781   5.163   1.298
14455TIP3    H243323   3.674   5.062   1.334
14456TIP3   OH243324   0.014   5.075   3.002
14456TIP3    H143325   0.000   4.987   3.038
14456TIP3    H243326   0.042   5.059   2.912
14457TIP3   OH243327   2.760   1.330   4.136
14457TIP3    H143328   2.823   1.372   4.077
14457TIP3    H243329   2.687   1.392   4.141
14458TIP3   OH243330   4.430   4.969   4.455
14458TIP3    H143331   4.393   5.022   4.385
14458TIP3    H243332   4.409   5.016   4.535
14459TIP3   OH243333   6.717   7.197   3.647
14459TIP3    H143334   6.712   7.114   3.601
14459TIP3    H243335   6.697   7.263   3.581
14460TIP3   OH243336   2.841   3.514   1.439
14460TIP3    H143337   2.797   3.462   1.371
14460TIP3    H243338   2.881   3.586   1.392
14461TIP3   OH243339   5.529   1.079   2.890
14461TIP3    H143340   5.615   1.078   2.847
14461TIP3    H243341   5.514   1.172   2.910
14462TIP3   OH243342   4.451   6.607   0.821
14462TIP3    H143343   4.524   6.552   0.793
14462TIP3    H243344   4.457   6.608   0.917
14463TIP3   OH243345   2.849   4.719   5.079
14463TIP3    H143346   2.834   4.795   5.136
14463TIP3    H243347   2.919   4.748   5.020
14464TIP3   OH243348   6.804   5.507   0.922
14464TIP3    H143349   6.841   5.455   0.994
14464TIP3    H243350   6.879   5.531   0.868
14465TIP3   OH243351   0.753   3.149   2.653
14465TIP3    H143352   0.658   3.155   2.651
14465TIP3    H243353   0.776   3.143   2.745
14466TIP3   OH243354   1.088   1.993   4.656
14466TIP3    H143355   1.110   2.076   4.614
14466TIP3    H243356   1.053   2.017   4.741
14467TIP3   OH243357   5.440   3.684   2.363
14467TIP3    H143358   5.496   3.635   2.302
14467TIP3    H243359   5.359   3.699   2.315
14468TIP3   OH243360   8.054   7.789   3.700
14468TIP3    H143361   7.983   7.838   3.659
14468TIP3    H243362   8.011   7.712   3.737
14469TIP3   OH243363   0.703   2.973   0.914
14469TIP3    H143364   0.723   2.889   0.872
14469TIP3    H243365   0.751   2.969   0.997
14470TIP3   OH243366   7.729   5.656   4.604
14470TIP3    H143367   7.639   5.648   4.636
14470TIP3    H243368   7.774   5.580   4.641
14471TIP3   OH243369   6.004   0.393   2.409
14471TIP3    H143370   5.919   0.354   2.430
14471TIP3    H243371   6.061   0.318   2.390
14472TIP3   OH243372   2.854   7.640   6.159
14472TIP3    H143373   2.884   7.596   6.079
14472TIP3    H243374   2.924   7.626   6.222
14473TIP3   OH243375   6.112   3.064   0.757
14473TIP3    H143376   6.152   2.993   0.807
14473TIP3    H243377   6.099   3.135   0.821
14474TIP3   OH243378   4.217   4.934   4.186
14474TIP3    H143379   4.183   4.943   4.097
14474TIP3    H243380   4.249   4.844   4.190
14475TIP3   OH243381   1.204   2.882   2.612
14475TIP3    H143382   1.197   2.879   2.708
14475TIP3    H243383   1.155   2.806   2.581
14476TIP3   OH243384   8.278   1.975   6.108
14476TIP3    H143385   8.331   1.994   6.186
14476TIP3    H243386   8.202   2.032   6.116
14477TIP3   OH243387   2.093   4.234   0.407
14477TIP3    H143388   2.040   4.159   0.380
14477TIP3    H243389   2.029   4.304   0.420
14478TIP3   OH243390   4.902   6.277   5.892
14478TIP3    H143391   4.808   6.267   5.906
14478TIP3    H243392   4.912   6.279   5.797
14479TIP3   OH243393   0.965   2.842   1.594
14479TIP3    H143394   1.007   2.836   1.508
14479TIP3    H243395   0.996   2.925   1.631
14480TIP3   OH243396   6.001   7.468   0.584
14480TIP3    H143397   5.925   7.480   0.641
14480TIP3    H243398   5.974   7.507   0.500
14481TIP3   OH243399   0.452   5.930   1.047
14481TIP3    H143400   0.520   5.880   1.002
14481TIP3    H243401   0.486   6.019   1.052
14482TIP3   OH243402   6.252   0.915   5.769
14482TIP3    H143403   6.231   0.841   5.825
14482TIP3    H243404   6.188   0.982   5.791
14483TIP3   OH243405   0.141   5.418   0.821
14483TIP3    H143406   0.075   5.478   0.856
14483TIP3    H243407   0.100   5.331   0.827
14484TIP3   OH243408   2.513   2.317   0.234
14484TIP3    H143409   2.516   2.367   0.316
14484TIP3    H243410   2.486   2.380   0.168
14485TIP3   OH243411   4.463   7.521   4.102
14485TIP3    H143412   4.371   7.534   4.080
14485TIP3    H243413   4.506   7.601   4.069
14486TIP3   OH243414   0.456   7.154   4.240
14486TIP3    H143415   0.445   7.157   4.335
14486TIP3    H243416   0.408   7.231   4.208
14487TIP3   OH243417   2.556   4.207   2.835
14487TIP3    H143418   2.630   4.247   2.882
14487TIP3    H243419   2.544   4.122   2.878
14488TIP3   OH243420   6.181   4.855   4.487
14488TIP3    H143421   6.234   4.935   4.487
14488TIP3    H243422   6.127   4.862   4.409
14489TIP3   OH243423   6.392   1.209   6.244
14489TIP3    H143424   6.320   1.165   6.289
14489TIP3    H243425   6.451   1.139   6.217
14490TIP3   OH243426   0.660   5.978   5.169
14490TIP3    H143427   0.607   5.913   5.123
14490TIP3    H243428   0.749   5.943   5.166
14491TIP3   OH243429   6.839   0.571   4.466
14491TIP3    H143430   6.808   0.661   4.473
14491TIP3    H243431   6.842   0.539   4.556
14492TIP3   OH243432   7.092   3.404   5.788
14492TIP3    H143433   7.068   3.497   5.782
14492TIP3    H243434   7.057   3.375   5.872
14493TIP3   OH243435   3.038   2.132   3.165
14493TIP3    H143436   3.018   2.081   3.087
14493TIP3    H243437   2.969   2.108   3.227
14494TIP3   OH243438   0.545   5.352   3.437
14494TIP3    H143439   0.554   5.265   3.399
14494TIP3    H243440   0.611   5.355   3.507
14495TIP3   OH243441   3.276   0.955   2.347
14495TIP3    H143442   3.371   0.951   2.357
14495TIP3    H243443   3.262   1.019   2.277
14496TIP3   OH243444   8.328   5.910   2.191
14496TIP3    H143445   8.357   5.940   2.277
14496TIP3    H243446   8.237   5.882   2.205
14497TIP3   OH243447   1.859   3.797   4.134
14497TIP3    H143448   1.800   3.869   4.112
14497TIP3    H243449   1.864   3.745   4.054
14498TIP3   OH243450   6.227   1.102   1.747
14498TIP3    H143451   6.163   1.171   1.731
14498TIP3    H243452   6.185   1.043   1.809
14499TIP3   OH243453   2.738   0.621   0.557
14499TIP3    H143454   2.703   0.710   0.561
14499TIP3    H243455   2.832   0.634   0.545
14500TIP3   OH243456   2.406   6.672   0.111
14500TIP3    H143457   2.493   6.681   0.149
14500TIP3    H243458   2.387   6.758   0.073
14501TIP3   OH243459   7.142   2.256   4.775
14501TIP3    H143460   7.157   2.224   4.864
14501TIP3    H243461   7.145   2.351   4.782
14502TIP3   OH243462   0.512   7.556   1.330
14502TIP3    H143463   0.466   7.486   1.377
14502TIP3    H243464   0.589   7.574   1.384
14503TIP3   OH243465   6.441   0.047   3.231
14503TIP3    H143466   6.472  -0.034   3.272
14503TIP3    H243467   6.520   0.099   3.220
14504TIP3   OH243468   8.095   4.339   1.249
14504TIP3    H143469   8.166   4.403   1.253
14504TIP3    H243470   8.063   4.333   1.339
14505TIP3   OH243471   3.181   3.341   4.614
14505TIP3    H143472   3.134   3.272   4.661
14505TIP3    H243473   3.186   3.310   4.524
14506TIP3   OH243474   1.985   5.775   0.611
14506TIP3    H143475   2.062   5.820   0.646
14506TIP3    H243476   1.942   5.737   0.687
14507TIP3   OH243477   3.405   6.873   0.887
14507TIP3    H143478   3.412   6.864   0.982
14507TIP3    H243479   3.486   6.834   0.854
14508TIP3   OH243480   3.210   1.397   4.166
14508TIP3    H143481   3.262   1.326   4.129
14508TIP3    H243482   3.269   1.472   4.167
14509TIP3   OH243483   7.232   5.173   4.222
14509TIP3    H143484   7.235   5.101   4.285
14509TIP3    H243485   7.178   5.139   4.150
14510TIP3   OH243486   4.202   5.220   6.359
14510TIP3    H143487   4.234   5.178   6.279
14510TIP3    H243488   4.267   5.196   6.425
14511TIP3   OH243489   2.748   4.041   3.240
14511TIP3    H143490   2.683   4.108   3.218
14511TIP3    H243491   2.819   4.090   3.282
14512TIP3   OH243492   4.479   0.495  -0.071
14512TIP3    H143493   4.520   0.522   0.011
14512TIP3    H243494   4.460   0.402  -0.059
14513TIP3   OH243495   1.481   5.644   3.284
14513TIP3    H143496   1.396   5.687   3.283
14513TIP3    H243497   1.462   5.556   3.317
14514TIP3   OH243498   2.286   6.787   0.770
14514TIP3    H143499   2.205   6.799   0.721
14514TIP3    H243500   2.259   6.781   0.861
14515TIP3   OH243501   4.921   5.872   3.223
14515TIP3    H143502   4.949   5.868   3.131
14515TIP3    H243503   4.997   5.842   3.273
14516TIP3   OH243504   2.978   4.283   4.950
14516TIP3    H143505   2.890   4.319   4.958
14516TIP3    H243506   2.967   4.204   4.898
14517TIP3   OH243507   4.568   0.227   3.719
14517TIP3    H143508   4.600   0.316   3.727
14517TIP3    H243509   4.631   0.174   3.768
14518TIP3   OH243510   7.289   1.442   0.184
14518TIP3    H143511   7.218   1.387   0.152
14518TIP3    H243512   7.358   1.380   0.210
14519TIP3   OH243513   3.973   5.145   1.455
14519TIP3    H143514   4.036   5.143   1.526
14519TIP3    H243515   4.011   5.204   1.390
14520TIP3   OH243516   3.242   0.669   5.161
14520TIP3    H143517   3.291   0.587   5.174
14520TIP3    H243518   3.264   0.722   5.237
14521TIP3   OH243519   7.571   2.196   3.295
14521TIP3    H143520   7.624   2.264   3.335
14521TIP3    H243521   7.601   2.115   3.336
14522TIP3   OH243522   5.877   7.248   0.052
14522TIP3    H143523   5.938   7.182   0.087
14522TIP3    H243524   5.794   7.229   0.095
14523TIP3   OH243525   1.083   1.291   5.109
14523TIP3    H143526   1.107   1.300   5.016
14523TIP3    H243527   1.059   1.199   5.119
14524TIP3   OH243528   0.251   6.729   6.420
14524TIP3    H143529   0.293   6.767   6.342
14524TIP3    H243530   0.195   6.660   6.385
14525TIP3   OH243531   1.000   7.434   1.945
14525TIP3    H143532   0.948   7.508   1.914
14525TIP3    H243533   0.939   7.380   1.995
14526TIP3   OH243534   4.904   2.145   6.207
14526TIP3    H143535   4.850   2.140   6.286
14526TIP3    H243536   4.941   2.058   6.198
14527TIP3   OH243537   3.978   6.005   1.664
14527TIP3    H143538   3.911   5.940   1.643
14527TIP3    H243539   4.051   5.984   1.606
14528TIP3   OH243540   5.636   6.402   1.680
14528TIP3    H143541   5.572   6.460   1.721
14528TIP3    H243542   5.687   6.460   1.623
14529TIP3   OH243543   3.852   6.036   5.103
14529TIP3    H143544   3.882   5.957   5.059
14529TIP3    H243545   3.925   6.098   5.095
14530TIP3   OH243546   5.652   2.831   1.517
14530TIP3    H143547   5.560   2.805   1.527
14530TIP3    H243548   5.651   2.894   1.444
14531TIP3   OH243549   2.469   6.024   0.592
14531TIP3    H143550   2.558   6.042   0.561
14531TIP3    H243551   2.455   5.932   0.571
14532TIP3   OH243552   7.693   1.666   0.276
14532TIP3    H143553   7.726   1.640   0.362
14532TIP3    H243554   7.605   1.699   0.293
14533TIP3   OH243555   1.756   7.384   0.855
14533TIP3    H143556   1.792   7.444   0.790
14533TIP3    H243557   1.706   7.320   0.805
14534TIP3   OH243558   4.067   3.047   3.264
14534TIP3    H143559   3.999   3.074   3.326
14534TIP3    H243560   4.122   3.125   3.254
14535TIP3   OH243561   3.203   7.337   1.221
14535TIP3    H143562   3.158   7.296   1.295
14535TIP3    H243563   3.198   7.431   1.239
14536TIP3   OH243564   1.419   3.212   3.583
14536TIP3    H143565   1.479   3.196   3.511
14536TIP3    H243566   1.474   3.242   3.655
14537TIP3   OH243567   5.639   7.312   3.021
14537TIP3    H143568   5.724   7.270   3.021
14537TIP3    H243569   5.578   7.245   2.989
14538TIP3   OH243570   0.314   3.034   2.056
14538TIP3    H143571   0.405   3.044   2.026
14538TIP3    H243572   0.321   2.986   2.138
14539TIP3   OH243573   5.548   0.675   1.400
14539TIP3    H143574   5.541   0.662   1.305
14539TIP3    H243575   5.640   0.658   1.420
14540TIP3   OH243576   6.310   0.129   1.299
14540TIP3    H143577   6.386   0.132   1.240
14540TIP3    H243578   6.349   0.125   1.386
14541TIP3   OH243579   0.646   5.567   1.283
14541TIP3    H143580   0.605   5.495   1.236
14541TIP3    H243581   0.577   5.633   1.292
14542TIP3   OH243582   6.913   7.261   1.160
14542TIP3    H143583   6.986   7.285   1.217
14542TIP3    H243584   6.907   7.333   1.097
14543TIP3   OH243585   6.250   4.489   0.168
14543TIP3    H143586   6.253   4.486   0.072
14543TIP3    H243587   6.197   4.414   0.193
14544TIP3   OH243588   4.831   6.908   0.515
14544TIP3    H143589   4.874   6.989   0.489
14544TIP3    H243590   4.801   6.924   0.605
14545TIP3   OH243591   0.452   6.225   5.808
14545TIP3    H143592   0.433   6.198   5.718
14545TIP3    H243593   0.434   6.147   5.861
14546TIP3   OH243594   2.165   4.503   3.423
14546TIP3    H143595   2.072   4.512   3.403
14546TIP3    H243596   2.175   4.539   3.511
14547TIP3   OH243597   3.912   3.985   3.992
14547TIP3    H143598   3.998   3.983   4.034
14547TIP3    H243599   3.850   3.976   4.064
14548TIP3   OH243600   5.721   3.607   4.875
14548TIP3    H143601   5.791   3.554   4.912
14548TIP3    H243602   5.698   3.562   4.793
14549TIP3   OH243603   2.339   6.267   3.710
14549TIP3    H143604   2.410   6.330   3.724
14549TIP3    H243605   2.380   6.196   3.660
14550TIP3   OH243606   4.793   2.467   3.043
14550TIP3    H143607   4.698   2.477   3.042
14550TIP3    H243608   4.811   2.404   2.972
14551TIP3   OH243609   1.992   2.663   2.694
14551TIP3    H143610   1.991   2.603   2.620
14551TIP3    H243611   1.910   2.712   2.687
14552TIP3   OH243612   3.148   6.180   5.676
14552TIP3    H143613   3.181   6.204   5.762
14552TIP3    H243614   3.103   6.096   5.690
14553TIP3   OH243615   7.982   1.241   6.178
14553TIP3    H143616   8.076   1.224   6.185
14553TIP3    H243617   7.975   1.336   6.169
14554TIP3   OH243618   0.364   1.435   0.366
14554TIP3    H143619   0.316   1.467   0.290
14554TIP3    H243620   0.384   1.344   0.346
14555TIP3   OH243621   5.090   5.633   4.571
14555TIP3    H143622   5.012   5.591   4.536
14555TIP3    H243623   5.077   5.631   4.666
14556TIP3   OH243624   7.490   1.167   2.283
14556TIP3    H143625   7.539   1.185   2.202
14556TIP3    H243626   7.432   1.242   2.293
14557TIP3   OH243627   0.924   3.662   6.088
14557TIP3    H143628   0.999   3.655   6.030
14557TIP3    H243629   0.865   3.592   6.060
14558TIP3   OH243630   6.420   6.938   5.684
14558TIP3    H143631   6.342   6.884   5.692
14558TIP3    H243632   6.491   6.875   5.671
14559TIP3   OH243633   6.610   1.492   0.850
14559TIP3    H143634   6.573   1.534   0.927
14559TIP3    H243635   6.703   1.483   0.870
14560TIP3   OH243636   3.524   6.888   3.030
14560TIP3    H143637   3.581   6.915   2.959
14560TIP3    H243638   3.468   6.964   3.046
14561TIP3   OH243639   3.568   5.990   0.139
14561TIP3    H143640   3.635   5.930   0.106
14561TIP3    H243641   3.493   5.974   0.081
14562TIP3   OH243642   0.355   4.568   0.542
14562TIP3    H143643   0.295   4.618   0.599
14562TIP3    H243644   0.394   4.504   0.601
14563TIP3   OH243645   0.168   6.393   1.592
14563TIP3    H143646   0.190   6.428   1.678
14563TIP3    H243647   0.224   6.442   1.531
14564TIP3   OH243648   4.654   6.695   4.750
14564TIP3    H143649   4.632   6.630   4.683
14564TIP3    H243650   4.747   6.713   4.737
14565TIP3   OH243651   7.892   2.549   2.688
14565TIP3    H143652   7.882   2.455   2.671
14565TIP3    H243653   7.837   2.565   2.765
14566TIP3   OH243654   5.878   2.314   3.690
14566TIP3    H143655   5.947   2.250   3.671
14566TIP3    H243656   5.874   2.369   3.611
14567TIP3   OH243657   3.551   5.880   3.903
14567TIP3    H143658   3.569   5.795   3.863
14567TIP3    H243659   3.632   5.902   3.950
14568TIP3   OH243660   2.549   2.825   2.275
14568TIP3    H143661   2.487   2.785   2.215
14568TIP3    H243662   2.625   2.847   2.219
14569TIP3   OH243663   1.151   5.335   6.561
14569TIP3    H143664   1.215   5.265   6.544
14569TIP3    H243665   1.182   5.408   6.507
14570TIP3   OH243666   5.412   2.422   1.845
14570TIP3    H143667   5.388   2.376   1.926
14570TIP3    H243668   5.459   2.357   1.793
14571TIP3   OH243669   5.277   2.730   2.348
14571TIP3    H143670   5.259   2.643   2.312
14571TIP3    H243671   5.220   2.789   2.298
14572TIP3   OH243672   5.065   4.143   1.390
14572TIP3    H143673   4.993   4.139   1.452
14572TIP3    H243674   5.097   4.233   1.395
14573TIP3   OH243675   1.696   6.037   0.971
14573TIP3    H143676   1.730   5.977   1.037
14573TIP3    H243677   1.672   5.980   0.898
14574TIP3   OH243678   7.080   4.677   1.037
14574TIP3    H143679   7.092   4.599   0.982
14574TIP3    H243680   7.169   4.710   1.051
14575TIP3   OH243681   6.858   2.965   2.426
14575TIP3    H143682   6.942   2.955   2.380
14575TIP3    H243683   6.868   3.047   2.475
14576TIP3   OH243684   2.340   2.918   3.905
14576TIP3    H143685   2.399   2.887   3.973
14576TIP3    H243686   2.396   2.964   3.843
14577TIP3   OH243687   2.623   6.178   2.139
14577TIP3    H143688   2.597   6.167   2.047
14577TIP3    H243689   2.580   6.260   2.166
14578TIP3   OH243690   2.700   7.598   0.687
14578TIP3    H143691   2.764   7.527   0.691
14578TIP3    H243692   2.699   7.634   0.776
14579TIP3   OH243693   4.911   0.090   4.066
14579TIP3    H143694   4.944   0.166   4.113
14579TIP3    H243695   4.953   0.015   4.108
14580TIP3   OH243696   1.567   3.190   0.307
14580TIP3    H143697   1.576   3.231   0.393
14580TIP3    H243698   1.655   3.159   0.285
14581TIP3   OH243699   4.089   6.117   4.865
14581TIP3    H143700   4.080   6.022   4.867
14581TIP3    H243701   4.006   6.148   4.828
14582TIP3   OH243702   0.228   7.560   5.875
14582TIP3    H143703   0.225   7.483   5.818
14582TIP3    H243704   0.291   7.537   5.944
14583TIP3   OH243705   5.393   5.823   2.939
14583TIP3    H143706   5.414   5.876   3.016
14583TIP3    H243707   5.386   5.886   2.867
14584TIP3   OH243708   4.711   5.772   2.519
14584TIP3    H143709   4.807   5.772   2.513
14584TIP3    H243710   4.683   5.711   2.450
14585TIP3   OH243711   5.601   6.276   0.698
14585TIP3    H143712   5.585   6.356   0.748
14585TIP3    H243713   5.549   6.286   0.618
14586TIP3   OH243714   6.494   3.418   1.517
14586TIP3    H143715   6.546   3.469   1.579
14586TIP3    H243716   6.555   3.396   1.446
14587TIP3   OH243717   5.751   6.918   1.466
14587TIP3    H143718   5.681   6.980   1.444
14587TIP3    H243719   5.798   6.905   1.384
14588TIP3   OH243720   8.102   5.128   3.605
14588TIP3    H143721   8.135   5.146   3.693
14588TIP3    H243722   8.111   5.210   3.557
14589TIP3   OH243723   5.635   6.107   6.401
14589TIP3    H143724   5.622   6.192   6.358
14589TIP3    H243725   5.724   6.082   6.378
14590TIP3   OH243726   7.867   0.108   5.373
14590TIP3    H143727   7.942   0.111   5.433
14590TIP3    H243728   7.906   0.119   5.286
14591TIP3   OH243729   3.182   5.598   1.501
14591TIP3    H143730   3.095   5.568   1.475
14591TIP3    H243731   3.220   5.524   1.549
14592TIP3   OH243732   3.356   0.770   0.785
14592TIP3    H143733   3.338   0.679   0.808
14592TIP3    H243734   3.315   0.782   0.699
14593TIP3   OH243735   4.041   2.313   0.419
14593TIP3    H143736   4.086   2.253   0.361
14593TIP3    H243737   3.952   2.278   0.428
14594TIP3   OH243738   8.353   3.705   0.236
14594TIP3    H143739   8.286   3.682   0.172
14594TIP3    H243740   8.305   3.710   0.319
14595TIP3   OH243741   6.939   6.543   4.371
14595TIP3    H143742   6.989   6.540   4.453
14595TIP3    H243743   6.942   6.635   4.345
14596TIP3   OH243744   4.063   4.176   5.037
14596TIP3    H143745   3.969   4.160   5.031
14596TIP3    H243746   4.071   4.266   5.069
14597TIP3   OH243747   6.230   5.878   4.703
14597TIP3    H143748   6.245   5.807   4.640
14597TIP3    H243749   6.283   5.951   4.670
14598TIP3   OH243750   2.080   5.370   6.701
14598TIP3    H143751   2.036   5.322   6.772
14598TIP3    H243752   2.173   5.364   6.723
14599TIP3   OH243753   3.675   4.355   1.098
14599TIP3    H143754   3.759   4.395   1.122
14599TIP3    H243755   3.684   4.336   1.004
14600TIP3   OH243756   6.812   3.242   1.517
14600TIP3    H143757   6.838   3.162   1.562
14600TIP3    H243758   6.834   3.226   1.425
14601TIP3   OH243759   5.432   1.646   6.446
14601TIP3    H143760   5.503   1.710   6.441
14601TIP3    H243761   5.455   1.589   6.519
14602TIP3   OH243762   2.884   5.046   0.171
14602TIP3    H143763   2.933   5.117   0.131
14602TIP3    H243764   2.945   4.972   0.172
14603TIP3   OH243765   7.708   0.810   4.273
14603TIP3    H143766   7.785   0.846   4.317
14603TIP3    H243767   7.717   0.716   4.282
14604TIP3   OH243768   4.787   7.192   6.207
14604TIP3    H143769   4.798   7.168   6.299
14604TIP3    H243770   4.703   7.154   6.182
14605TIP3   OH243771   2.636   3.869   4.720
14605TIP3    H143772   2.611   3.944   4.774
14605TIP3    H243773   2.560   3.811   4.723
14606TIP3   OH243774   0.884   4.434   2.494
14606TIP3    H143775   0.840   4.518   2.508
14606TIP3    H243776   0.950   4.430   2.564
14607TIP3   OH243777   5.490   6.433   6.565
14607TIP3    H143778   5.577   6.467   6.587
14607TIP3    H243779   5.457   6.495   6.499
14608TIP3   OH243780   7.883   5.685   1.176
14608TIP3    H143781   7.894   5.776   1.148
14608TIP3    H243782   7.848   5.691   1.264
14609TIP3   OH243783   0.334   5.983   2.761
14609TIP3    H143784   0.278   6.037   2.817
14609TIP3    H243785   0.385   5.931   2.822
14610TIP3   OH243786   7.320   3.742   3.815
14610TIP3    H143787   7.375   3.714   3.888
14610TIP3    H243788   7.235   3.702   3.832
14611TIP3   OH243789   1.458   0.106   2.499
14611TIP3    H143790   1.530   0.159   2.464
14611TIP3    H243791   1.502   0.040   2.554
14612TIP3   OH243792   0.427   6.881   4.667
14612TIP3    H143793   0.335   6.853   4.665
14612TIP3    H243794   0.426   6.962   4.718
14613TIP3   OH243795   8.217   6.130   1.735
14613TIP3    H143796   8.179   6.159   1.818
14613TIP3    H243797   8.188   6.195   1.671
14614TIP3   OH243798   2.729   6.105   2.628
14614TIP3    H143799   2.719   6.077   2.537
14614TIP3    H243800   2.647   6.149   2.649
14615TIP3   OH243801   5.980   4.930   4.848
14615TIP3    H143802   5.968   4.964   4.760
14615TIP3    H243803   6.049   4.865   4.840
14616TIP3   OH243804   5.643   5.070   3.542
14616TIP3    H143805   5.664   4.977   3.534
14616TIP3    H243806   5.554   5.072   3.577
14617TIP3   OH243807   2.088   2.592   0.246
14617TIP3    H143808   1.997   2.607   0.223
14617TIP3    H243809   2.137   2.616   0.167
14618TIP3   OH243810   3.886   3.584   5.684
14618TIP3    H143811   3.850   3.627   5.607
14618TIP3    H243812   3.934   3.653   5.730
14619TIP3   OH243813   4.396   6.235   1.758
14619TIP3    H143814   4.419   6.228   1.666
14619TIP3    H243815   4.366   6.325   1.769
14620TIP3   OH243816   6.295   3.301   3.150
14620TIP3    H143817   6.298   3.207   3.135
14620TIP3    H243818   6.233   3.334   3.084
14621TIP3   OH243819   3.359   0.821   3.825
14621TIP3    H143820   3.397   0.896   3.871
14621TIP3    H243821   3.400   0.744   3.866
14622TIP3   OH243822   1.221   0.053   3.916
14622TIP3    H143823   1.240  -0.002   3.839
14622TIP3    H243824   1.214   0.142   3.881
14623TIP3   OH243825   6.759   7.124   2.421
14623TIP3    H143826   6.718   7.064   2.360
14623TIP3    H243827   6.782   7.070   2.497
14624TIP3   OH243828   1.291   7.363   4.324
14624TIP3    H143829   1.304   7.359   4.229
14624TIP3    H243830   1.378   7.382   4.359
14625TIP3   OH243831   6.371   5.047   3.783
14625TIP3    H143832   6.322   5.067   3.863
14625TIP3    H243833   6.379   4.952   3.783
14626TIP3   OH243834   2.001   2.127   2.227
14626TIP3    H143835   2.015   2.039   2.261
14626TIP3    H243836   2.090   2.162   2.214
14627TIP3   OH243837   5.284   7.717   0.742
14627TIP3    H143838   5.372   7.713   0.779
14627TIP3    H243839   5.297   7.701   0.648
14628TIP3   OH243840   4.617   3.562   2.955
14628TIP3    H143841   4.702   3.604   2.973
14628TIP3    H243842   4.629   3.519   2.870
14629TIP3   OH243843   7.716   2.127   5.378
14629TIP3    H143844   7.716   2.173   5.462
14629TIP3    H243845   7.655   2.175   5.323
14630TIP3   OH243846   5.061   6.397   0.788
14630TIP3    H143847   5.135   6.341   0.809
14630TIP3    H243848   4.999   6.383   0.860
14631TIP3   OH243849   6.369   4.062   0.977
14631TIP3    H143850   6.402   4.001   0.910
14631TIP3    H243851   6.291   4.018   1.012
14632TIP3   OH243852   4.704   3.991   4.398
14632TIP3    H143853   4.776   3.983   4.460
14632TIP3    H243854   4.649   4.061   4.433
14633TIP3   OH243855   4.892   1.010   1.124
14633TIP3    H143856   4.956   1.021   1.054
14633TIP3    H243857   4.808   1.034   1.085
14634TIP3   OH243858   5.975   0.729   0.644
14634TIP3    H143859   5.911   0.757   0.579
14634TIP3    H243860   5.935   0.652   0.685
14635TIP3   OH243861   1.913   4.377   1.154
14635TIP3    H143862   1.984   4.408   1.098
14635TIP3    H243863   1.923   4.282   1.154
14636TIP3   OH243864   4.899   2.810   3.147
14636TIP3    H143865   4.829   2.790   3.209
14636TIP3    H243866   4.906   2.906   3.148
14637TIP3   OH243867   0.688   4.374   1.942
14637TIP3    H143868   0.659   4.453   1.988
14637TIP3    H243869   0.778   4.394   1.915
14638TIP3   OH243870   0.085   7.769   5.612
14638TIP3    H143871   0.070   7.677   5.635
14638TIP3    H243872   0.092   7.769   5.517
14639TIP3   OH243873   4.406   4.271   0.501
14639TIP3    H143874   4.496   4.237   0.504
14639TIP3    H243875   4.400   4.315   0.417
14640TIP3   OH243876   2.897   5.343   2.711
14640TIP3    H143877   2.871   5.252   2.726
14640TIP3    H243878   2.966   5.338   2.644
14641TIP3   OH243879   0.889   6.613   6.728
14641TIP3    H143880   0.892   6.518   6.721
14641TIP3    H243881   0.951   6.633   6.798
14642TIP3   OH243882   7.853   6.206   3.455
14642TIP3    H143883   7.852   6.302   3.448
14642TIP3    H243884   7.945   6.183   3.465
14643TIP3   OH243885   0.396   7.631   3.631
14643TIP3    H143886   0.301   7.627   3.643
14643TIP3    H243887   0.429   7.555   3.679
14644TIP3   OH243888   5.498   2.595   0.270
14644TIP3    H143889   5.550   2.616   0.193
14644TIP3    H243890   5.415   2.641   0.256
14645TIP3   OH243891   6.415   5.414   5.312
14645TIP3    H143892   6.434   5.334   5.362
14645TIP3    H243893   6.407   5.482   5.379
14646TIP3   OH243894   4.860   3.444   1.235
14646TIP3    H143895   4.943   3.489   1.248
14646TIP3    H243896   4.850   3.437   1.140
14647TIP3   OH243897   4.257   2.191   3.555
14647TIP3    H143898   4.312   2.198   3.633
14647TIP3    H243899   4.285   2.110   3.513
14648TIP3   OH243900   5.870  -0.053   1.401
14648TIP3    H143901   5.862   0.041   1.386
14648TIP3    H243902   5.782  -0.081   1.427
14649TIP3   OH243903   8.088   0.968   4.729
14649TIP3    H143904   8.030   0.975   4.805
14649TIP3    H243905   8.110   0.875   4.724
14650TIP3   OH243906   6.369   3.656   2.942
14650TIP3    H143907   6.398   3.610   3.020
14650TIP3    H243908   6.443   3.711   2.917
14651TIP3   OH243909   5.263   1.717   2.559
14651TIP3    H143910   5.341   1.762   2.525
14651TIP3    H243911   5.210   1.700   2.482
14652TIP3   OH243912   2.745   2.629   3.089
14652TIP3    H143913   2.726   2.536   3.100
14652TIP3    H243914   2.761   2.661   3.178
14653TIP3   OH243915   1.899   3.989   3.565
14653TIP3    H143916   1.919   3.974   3.657
14653TIP3    H243917   1.845   4.068   3.564
14654TIP3   OH243918   1.454   5.749   6.476
14654TIP3    H143919   1.464   5.814   6.407
14654TIP3    H243920   1.528   5.764   6.535
14655TIP3   OH243921   5.212   3.868   1.463
14655TIP3    H143922   5.167   3.949   1.439
14655TIP3    H243923   5.238   3.882   1.554
14656TIP3   OH243924   5.979   5.477   4.976
14656TIP3    H143925   6.028   5.544   5.023
14656TIP3    H243926   5.888   5.506   4.980
14657TIP3   OH243927   4.295   0.699   4.761
14657TIP3    H143928   4.366   0.639   4.738
14657TIP3    H243929   4.308   0.718   4.854
14658TIP3   OH243930   4.188   3.036   0.411
14658TIP3    H143931   4.156   2.982   0.483
14658TIP3    H243932   4.109   3.076   0.374
14659TIP3   OH243933   1.228   5.652   2.116
14659TIP3    H143934   1.161   5.664   2.183
14659TIP3    H243935   1.292   5.721   2.133
14660TIP3   OH243936   8.224   5.925   4.317
14660TIP3    H143937   8.217   5.860   4.387
14660TIP3    H243938   8.207   6.009   4.360
14661TIP3   OH243939   4.703   2.243   0.552
14661TIP3    H143940   4.658   2.211   0.474
14661TIP3    H243941   4.774   2.180   0.566
14662TIP3   OH243942   7.776   6.232   1.837
14662TIP3    H143943   7.842   6.215   1.770
14662TIP3    H243944   7.826   6.236   1.919
14663TIP3   OH243945   2.730   4.912   4.613
14663TIP3    H143946   2.725   4.938   4.705
14663TIP3    H243947   2.715   4.818   4.614
14664TIP3   OH243948   1.809   3.770   3.313
14664TIP3    H143949   1.821   3.697   3.373
14664TIP3    H243950   1.839   3.847   3.361
14665TIP3   OH243951   3.398   1.903   5.873
14665TIP3    H143952   3.478   1.869   5.913
14665TIP3    H243953   3.428   1.969   5.810
14666TIP3   OH243954   7.021   5.985   0.788
14666TIP3    H143955   6.963   5.947   0.853
14666TIP3    H243956   7.089   5.919   0.774
14667TIP3   OH243957   4.875   6.203   6.339
14667TIP3    H143958   4.841   6.292   6.337
14667TIP3    H243959   4.891   6.186   6.432
14668TIP3   OH243960   2.565   3.067   1.069
14668TIP3    H143961   2.635   3.018   1.027
14668TIP3    H243962   2.527   3.006   1.132
14669TIP3   OH243963   4.231   3.468   5.074
14669TIP3    H143964   4.251   3.520   5.152
14669TIP3    H243965   4.252   3.378   5.098
14670TIP3   OH243966   1.070   7.666   1.557
14670TIP3    H143967   1.058   7.698   1.646
14670TIP3    H243968   1.105   7.741   1.509
14671TIP3   OH243969   7.328   6.682   4.631
14671TIP3    H143970   7.390   6.654   4.564
14671TIP3    H243971   7.380   6.689   4.711
14672TIP3   OH243972   4.718   5.253   1.457
14672TIP3    H143973   4.690   5.295   1.539
14672TIP3    H243974   4.646   5.194   1.435
14673TIP3   OH243975   3.540   3.195   2.118
14673TIP3    H143976   3.520   3.106   2.148
14673TIP3    H243977   3.583   3.237   2.193
14674TIP3   OH243978   1.490   6.172   0.282
14674TIP3    H143979   1.523   6.168   0.371
14674TIP3    H243980   1.564   6.201   0.230
14675TIP3   OH243981   1.097   3.376   0.082
14675TIP3    H143982   1.124   3.345  -0.004
14675TIP3    H243983   1.005   3.352   0.089
14676TIP3   OH243984   3.115   3.908   4.492
14676TIP3    H143985   3.122   3.988   4.438
14676TIP3    H243986   3.027   3.875   4.474
14677TIP3   OH243987   0.192   5.728   3.116
14677TIP3    H143988   0.273   5.768   3.086
14677TIP3    H243989   0.204   5.718   3.211
14678TIP3   OH243990   2.086   1.482   2.177
14678TIP3    H143991   2.170   1.527   2.190
14678TIP3    H243992   2.058   1.455   2.264
14679TIP3   OH243993   3.654   6.128   5.787
14679TIP3    H143994   3.618   6.110   5.700
14679TIP3    H243995   3.616   6.061   5.843
14680TIP3   OH243996   7.297   1.454   0.753
14680TIP3    H143997   7.345   1.480   0.832
14680TIP3    H243998   7.253   1.534   0.724
14681TIP3   OH243999   4.825   3.953   3.387
14681TIP3    H144000   4.830   3.924   3.296
14681TIP3    H244001   4.853   3.876   3.438
14682TIP3   OH244002   4.262   5.867   2.818
14682TIP3    H144003   4.226   5.813   2.748
14682TIP3    H244004   4.234   5.957   2.796
14683TIP3   OH244005   7.456   7.623   3.825
14683TIP3    H144006   7.480   7.576   3.746
14683TIP3    H244007   7.381   7.574   3.860
14684TIP3   OH244008   6.765   5.002   4.205
14684TIP3    H144009   6.735   5.026   4.293
14684TIP3    H244010   6.718   4.921   4.185
14685TIP3   OH244011   3.041   4.160   3.071
14685TIP3    H144012   2.948   4.164   3.050
14685TIP3    H244013   3.084   4.207   2.999
14686TIP3   OH244014   2.423   2.710   1.092
14686TIP3    H144015   2.487   2.747   1.153
14686TIP3    H244016   2.423   2.616   1.111
14687TIP3   OH244017   2.353   6.087   4.995
14687TIP3    H144018   2.330   6.169   5.039
14687TIP3    H244019   2.290   6.023   5.029
14688TIP3   OH244020   4.632   5.650   4.116
14688TIP3    H144021   4.621   5.736   4.074
14688TIP3    H244022   4.549   5.634   4.160
14689TIP3   OH244023   0.343   1.765   6.091
14689TIP3    H144024   0.388   1.812   6.021
14689TIP3    H244025   0.392   1.683   6.100
14690TIP3   OH244026   4.334   1.669   2.491
14690TIP3    H144027   4.295   1.583   2.508
14690TIP3    H244028   4.389   1.685   2.568
14691TIP3   OH244029   2.926   5.554   1.383
14691TIP3    H144030   2.907   5.518   1.469
14691TIP3    H244031   2.847   5.538   1.332
14692TIP3   OH244032   4.815   5.478   4.251
14692TIP3    H144033   4.773   5.547   4.199
14692TIP3    H244034   4.810   5.400   4.196
14693TIP3   OH244035   3.907   2.929   6.224
14693TIP3    H144036   3.868   3.009   6.260
14693TIP3    H244037   3.914   2.946   6.130
14694TIP3   OH244038   5.341   2.369   3.948
14694TIP3    H144039   5.412   2.306   3.965
14694TIP3    H244040   5.356   2.439   4.012
14695TIP3   OH244041   5.107   7.484   0.104
14695TIP3    H144042   5.047   7.553   0.133
14695TIP3    H244043   5.192   7.527   0.100
14696TIP3   OH244044   8.184   0.223   3.327
14696TIP3    H144045   8.103   0.236   3.277
14696TIP3    H244046   8.252   0.216   3.261
14697TIP3   OH244047   5.848   3.947   1.987
14697TIP3    H144048   5.772   3.945   2.044
14697TIP3    H244049   5.822   3.898   1.909
14698TIP3   OH244050   5.148   2.434   0.494
14698TIP3    H144051   5.089   2.508   0.479
14698TIP3    H244052   5.184   2.413   0.408
14699TIP3   OH244053   4.114   7.433   2.330
14699TIP3    H144054   4.197   7.475   2.310
14699TIP3    H244055   4.049   7.502   2.321
14700TIP3   OH244056   6.901   2.596   6.242
14700TIP3    H144057   6.937   2.679   6.212
14700TIP3    H244058   6.828   2.620   6.299
14701TIP3   OH244059   5.345   0.707   3.757
14701TIP3    H144060   5.346   0.620   3.717
14701TIP3    H244061   5.389   0.763   3.693
14702TIP3   OH244062   0.543   7.620   0.615
14702TIP3    H144063   0.460   7.637   0.660
14702TIP3    H244064   0.608   7.616   0.684
14703TIP3   OH244065   4.865   0.766   3.325
14703TIP3    H144066   4.896   0.854   3.347
14703TIP3    H244067   4.826   0.775   3.238
14704TIP3   OH244068   2.991   2.674   3.732
14704TIP3    H144069   2.967   2.616   3.660
14704TIP3    H244070   2.926   2.656   3.800
14705TIP3   OH244071   6.260   2.708   4.033
14705TIP3    H144072   6.235   2.722   3.941
14705TIP3    H244073   6.176   2.695   4.078
14706TIP3   OH244074   7.731   7.481   1.860
14706TIP3    H144075   7.777   7.549   1.910
14706TIP3    H244076   7.777   7.400   1.883
14707TIP3   OH244077   6.182   6.159   5.377
14707TIP3    H144078   6.149   6.072   5.358
14707TIP3    H244079   6.159   6.211   5.300
14708TIP3   OH244080   7.033   2.443   1.618
14708TIP3    H144081   6.951   2.478   1.583
14708TIP3    H244082   7.019   2.440   1.713
14709TIP3   OH244083   2.289   6.609   2.787
14709TIP3    H144084   2.238   6.570   2.859
14709TIP3    H244085   2.339   6.536   2.751
14710TIP3   OH244086   0.256   0.324   6.426
14710TIP3    H144087   0.317   0.261   6.387
14710TIP3    H244088   0.269   0.404   6.375
14711TIP3   OH244089   4.471   5.332   3.318
14711TIP3    H144090   4.557   5.341   3.358
14711TIP3    H244091   4.462   5.410   3.263
14712TIP3   OH244092   5.106   0.422   3.556
14712TIP3    H144093   5.022   0.467   3.555
14712TIP3    H244094   5.158   0.467   3.622
14713TIP3   OH244095   0.858   4.419   2.880
14713TIP3    H144096   0.832   4.499   2.834
14713TIP3    H244097   0.819   4.428   2.967
14714TIP3   OH244098   5.428   5.723   6.520
14714TIP3    H144099   5.448   5.734   6.613
14714TIP3    H244100   5.512   5.735   6.476
14715TIP3   OH244101   4.485   5.575   4.834
14715TIP3    H144102   4.501   5.579   4.740
14715TIP3    H244103   4.407   5.520   4.843
14716TIP3   OH244104   0.556   2.432   1.904
14716TIP3    H144105   0.566   2.507   1.844
14716TIP3    H244106   0.580   2.467   1.990
14717TIP3   OH244107   1.416   5.315   5.214
14717TIP3    H144108   1.437   5.244   5.275
14717TIP3    H244109   1.500   5.357   5.196
14718TIP3   OH244110   1.171   3.652   5.958
14718TIP3    H144111   1.205   3.714   5.893
14718TIP3    H244112   1.220   3.572   5.941
14719TIP3   OH244113   2.881   4.004   4.868
14719TIP3    H144114   2.805   3.957   4.832
14719TIP3    H244115   2.946   4.002   4.798
14720TIP3   OH244116   5.022   6.084   5.216
14720TIP3    H144117   5.071   6.008   5.246
14720TIP3    H244118   4.934   6.072   5.253
14721TIP3   OH244119   6.679   5.946   1.329
14721TIP3    H144120   6.614   5.939   1.399
14721TIP3    H244121   6.650   5.884   1.262
14722TIP3   OH244122   3.912   2.630   4.338
14722TIP3    H144123   3.989   2.684   4.318
14722TIP3    H244124   3.849   2.651   4.269
14723TIP3   OH244125   6.803   3.260   1.224
14723TIP3    H144126   6.753   3.251   1.142
14723TIP3    H244127   6.785   3.348   1.254
14724TIP3   OH244128   1.223   1.931   0.221
14724TIP3    H144129   1.186   1.938   0.309
14724TIP3    H244130   1.262   1.843   0.219
14725TIP3   OH244131   7.340   7.357   0.243
14725TIP3    H144132   7.324   7.283   0.184
14725TIP3    H244133   7.342   7.317   0.331
14726TIP3   OH244134   2.948   1.191   5.655
14726TIP3    H144135   2.917   1.225   5.739
14726TIP3    H244136   3.038   1.162   5.673
14727TIP3   OH244137   4.598   0.705   4.525
14727TIP3    H144138   4.625   0.754   4.602
14727TIP3    H244139   4.664   0.635   4.517
14728TIP3   OH244140   0.226   3.170   5.673
14728TIP3    H144141   0.193   3.086   5.707
14728TIP3    H244142   0.318   3.171   5.700
14729TIP3   OH244143   3.950   4.074   3.467
14729TIP3    H144144   3.862   4.103   3.492
14729TIP3    H244145   3.958   4.099   3.375
14730TIP3   OH244146   0.229   0.434   3.303
14730TIP3    H144147   0.230   0.344   3.337
14730TIP3    H244148   0.320   0.454   3.286
14731TIP3   OH244149   3.615   4.323   5.634
14731TIP3    H144150   3.669   4.281   5.567
14731TIP3    H244151   3.582   4.251   5.687
14732TIP3   OH244152   2.833   1.240   4.394
14732TIP3    H144153   2.823   1.271   4.304
14732TIP3    H244154   2.904   1.292   4.430
14733TIP3   OH244155   3.599   1.196   1.655
14733TIP3    H144156   3.686   1.165   1.679
14733TIP3    H244157   3.571   1.249   1.729
14734TIP3   OH244158   5.155   2.746   1.064
14734TIP3    H144159   5.246   2.769   1.044
14734TIP3    H244160   5.124   2.818   1.118
14735TIP3   OH244161   0.038   5.349   5.168
14735TIP3    H144162   0.060   5.365   5.076
14735TIP3    H244163  -0.057   5.361   5.172
14736TIP3   OH244164   0.760   3.709   4.162
14736TIP3    H144165   0.717   3.732   4.245
14736TIP3    H244166   0.853   3.720   4.180
14737TIP3   OH244167   7.288   3.273   0.516
14737TIP3    H144168   7.249   3.258   0.602
14737TIP3    H244169   7.228   3.229   0.455
14738TIP3   OH244170   3.247   1.874   5.597
14738TIP3    H144171   3.240   1.797   5.653
14738TIP3    H244172   3.292   1.843   5.518
14739TIP3   OH244173   0.504   3.403   1.356
14739TIP3    H144174   0.425   3.371   1.399
14739TIP3    H244175   0.474   3.472   1.298
14740TIP3   OH244176   5.629   7.297   4.216
14740TIP3    H144177   5.602   7.345   4.295
14740TIP3    H244178   5.660   7.365   4.157
14741TIP3   OH244179   1.950   3.089   3.355
14741TIP3    H144180   2.002   3.068   3.278
14741TIP3    H244181   1.996   3.046   3.428
14742TIP3   OH244182   8.119   0.807   2.979
14742TIP3    H144183   8.069   0.826   2.900
14742TIP3    H244184   8.088   0.871   3.043
14743TIP3   OH244185   5.883   5.037   4.582
14743TIP3    H144186   5.815   5.066   4.522
14743TIP3    H244187   5.958   5.094   4.562
14744TIP3   OH244188   1.186   2.038   5.435
14744TIP3    H144189   1.148   2.060   5.350
14744TIP3    H244190   1.112   2.039   5.496
14745TIP3   OH244191   2.630   0.458   2.865
14745TIP3    H144192   2.567   0.399   2.823
14745TIP3    H244193   2.601   0.461   2.957
14746TIP3   OH244194   0.101   6.538   0.225
14746TIP3    H144195   0.193   6.542   0.199
14746TIP3    H244196   0.071   6.629   0.219
14747TIP3   OH244197   5.035   5.693   5.712
14747TIP3    H144198   5.113   5.638   5.698
14747TIP3    H244199   5.069   5.774   5.750
14748TIP3   OH244200   3.033   3.515   2.065
14748TIP3    H144201   3.016   3.450   2.134
14748TIP3    H244202   2.956   3.510   2.008
14749TIP3   OH244203   6.130   1.541   5.290
14749TIP3    H144204   6.096   1.541   5.379
14749TIP3    H244205   6.058   1.574   5.236
14750TIP3   OH244206   3.789   3.497   3.420
14750TIP3    H144207   3.719   3.561   3.432
14750TIP3    H244208   3.766   3.425   3.480
14751TIP3   OH244209   5.369   6.291   6.069
14751TIP3    H144210   5.290   6.295   6.123
14751TIP3    H244211   5.356   6.214   6.013
14752TIP3   OH244212   7.435   0.842   1.402
14752TIP3    H144213   7.420   0.809   1.314
14752TIP3    H244214   7.513   0.898   1.394
14753TIP3   OH244215   1.114   6.378   4.639
14753TIP3    H144216   1.154   6.395   4.554
14753TIP3    H244217   1.157   6.440   4.698
14754TIP3   OH244218   4.855   1.287   3.226
14754TIP3    H144219   4.832   1.200   3.194
14754TIP3    H244220   4.950   1.289   3.227
14755TIP3   OH244221   4.289   6.843   2.605
14755TIP3    H144222   4.350   6.896   2.555
14755TIP3    H244223   4.279   6.762   2.554
14756TIP3   OH244224   1.402   0.322   3.959
14756TIP3    H144225   1.389   0.348   3.868
14756TIP3    H244226   1.444   0.236   3.954
14757TIP3   OH244227   3.403   0.523   2.382
14757TIP3    H144228   3.423   0.574   2.461
14757TIP3    H244229   3.357   0.585   2.325
14758TIP3   OH244230   5.763   6.970   2.648
14758TIP3    H144231   5.762   7.066   2.639
14758TIP3    H244232   5.692   6.952   2.710
14759TIP3   OH244233   4.794   4.064   4.136
14759TIP3    H144234   4.830   4.153   4.145
14759TIP3    H244235   4.788   4.032   4.226
14760TIP3   OH244236   7.992   4.160   4.958
14760TIP3    H144237   7.904   4.185   4.928
14760TIP3    H244238   7.995   4.065   4.947
14761TIP3   OH244239   1.623   3.161   4.140
14761TIP3    H144240   1.648   3.252   4.157
14761TIP3    H244241   1.643   3.114   4.221
14762TIP3   OH244242   1.761   4.872   1.994
14762TIP3    H144243   1.784   4.838   2.080
14762TIP3    H244244   1.730   4.961   2.011
14763TIP3   OH244245   0.624   3.787   4.386
14763TIP3    H144246   0.556   3.849   4.412
14763TIP3    H244247   0.702   3.816   4.432
14764TIP3   OH244248   6.437   1.937   4.022
14764TIP3    H144249   6.480   1.864   4.066
14764TIP3    H244250   6.413   1.997   4.092
14765TIP3   OH244251   3.341   7.390   3.172
14765TIP3    H144252   3.410   7.455   3.188
14765TIP3    H244253   3.272   7.439   3.127
14766TIP3   OH244254   7.464   4.721   5.549
14766TIP3    H144255   7.466   4.677   5.464
14766TIP3    H244256   7.486   4.812   5.529
14767TIP3   OH244257   4.874   3.842   3.980
14767TIP3    H144258   4.849   3.756   4.014
14767TIP3    H244259   4.845   3.903   4.047
14768TIP3   OH244260   7.212   6.631   4.167
14768TIP3    H144261   7.155   6.606   4.094
14768TIP3    H244262   7.166   6.703   4.210
14769TIP3   OH244263   7.073   6.029   2.312
14769TIP3    H144264   7.147   6.003   2.257
14769TIP3    H244265   7.002   5.971   2.286
14770TIP3   OH244266   1.631   0.737   6.030
14770TIP3    H144267   1.606   0.747   5.938
14770TIP3    H244268   1.623   0.824   6.067
14771TIP3   OH244269   4.115   4.316   1.767
14771TIP3    H144270   4.057   4.240   1.758
14771TIP3    H244271   4.156   4.305   1.853
14772TIP3   OH244272   7.169   2.661   1.119
14772TIP3    H144273   7.223   2.630   1.047
14772TIP3    H244274   7.079   2.646   1.091
14773TIP3   OH244275   1.665   7.062   1.724
14773TIP3    H144276   1.581   7.104   1.705
14773TIP3    H244277   1.674   6.995   1.657
14774TIP3   OH244278   4.702   5.600   5.017
14774TIP3    H144279   4.759   5.535   4.975
14774TIP3    H244280   4.623   5.602   4.962
14775TIP3   OH244281   6.136   5.498   2.359
14775TIP3    H144282   6.186   5.461   2.287
14775TIP3    H244283   6.092   5.574   2.321
14776TIP3   OH244284   7.390   7.262   4.066
14776TIP3    H144285   7.294   7.262   4.061
14776TIP3    H244286   7.413   7.174   4.097
14777TIP3   OH244287   1.459   7.491   5.362
14777TIP3    H144288   1.399   7.532   5.424
14777TIP3    H244289   1.413   7.413   5.332
14778TIP3   OH244290   3.148   1.348   6.530
14778TIP3    H144291   3.166   1.289   6.457
14778TIP3    H244292   3.055   1.370   6.521
14779TIP3   OH244293   6.628   2.971   6.288
14779TIP3    H144294   6.636   3.032   6.361
14779TIP3    H244295   6.640   3.026   6.210
14780TIP3   OH244296   2.068   5.649   4.471
14780TIP3    H144297   2.144   5.690   4.512
14780TIP3    H244298   2.005   5.638   4.543
14781TIP3   OH244299   7.045   2.575   0.149
14781TIP3    H144300   7.009   2.649   0.101
14781TIP3    H244301   7.132   2.562   0.112
14782TIP3   OH244302   2.266   4.389   6.360
14782TIP3    H144303   2.178   4.352   6.371
14782TIP3    H244304   2.302   4.392   6.449
14783TIP3   OH244305   3.265   0.195   5.833
14783TIP3    H144306   3.236   0.109   5.802
14783TIP3    H244307   3.360   0.186   5.842
14784TIP3   OH244308   1.774   2.435   0.961
14784TIP3    H144309   1.713   2.377   0.917
14784TIP3    H244310   1.858   2.390   0.956
14785TIP3   OH244311   3.603   6.245   0.079
14785TIP3    H144312   3.614   6.278   0.169
14785TIP3    H244313   3.607   6.150   0.089
14786TIP3   OH244314   0.979   6.326   3.482
14786TIP3    H144315   0.898   6.277   3.470
14786TIP3    H244316   0.954   6.418   3.475
14787TIP3   OH244317   6.444   5.008   1.870
14787TIP3    H144318   6.525   5.014   1.921
14787TIP3    H244319   6.438   4.916   1.845
14788TIP3   OH244320   4.890   5.515   1.724
14788TIP3    H144321   4.945   5.455   1.673
14788TIP3    H244322   4.949   5.551   1.790
14789TIP3   OH244323   8.258   2.181   0.552
14789TIP3    H144324   8.249   2.240   0.627
14789TIP3    H244325   8.186   2.205   0.493
14790TIP3   OH244326   5.213   2.470   5.959
14790TIP3    H144327   5.173   2.487   6.044
14790TIP3    H244328   5.193   2.379   5.941
14791TIP3   OH244329   3.306   4.664   6.733
14791TIP3    H144330   3.278   4.662   6.642
14791TIP3    H244331   3.397   4.695   6.730
14792TIP3   OH244332   0.789   2.268   2.723
14792TIP3    H144333   0.736   2.207   2.775
14792TIP3    H244334   0.757   2.257   2.633
14793TIP3   OH244335   0.199   4.068   2.184
14793TIP3    H144336   0.215   4.147   2.132
14793TIP3    H244337   0.279   4.016   2.173
14794TIP3   OH244338   4.078   4.908   4.977
14794TIP3    H144339   4.171   4.904   5.000
14794TIP3    H244340   4.077   4.910   4.881
14795TIP3   OH244341   1.229   3.073   2.382
14795TIP3    H144342   1.211   3.159   2.420
14795TIP3    H244343   1.195   3.011   2.446
14796TIP3   OH244344   3.094   6.924   3.368
14796TIP3    H144345   3.027   6.932   3.301
14796TIP3    H244346   3.065   6.985   3.437
14797TIP3   OH244347   2.878   2.281   3.918
14797TIP3    H144348   2.827   2.201   3.904
14797TIP3    H244349   2.824   2.333   3.978
14798TIP3   OH244350   1.789   1.852   0.460
14798TIP3    H144351   1.757   1.782   0.404
14798TIP3    H244352   1.711   1.883   0.506
14799TIP3   OH244353   1.786   7.255   5.417
14799TIP3    H144354   1.694   7.230   5.418
14799TIP3    H244355   1.794   7.310   5.339
14800TIP3   OH244356   2.282   5.111   1.483
14800TIP3    H144357   2.352   5.173   1.463
14800TIP3    H244358   2.271   5.117   1.578
14801TIP3   OH244359   3.625   6.023   5.542
14801TIP3    H144360   3.691   6.062   5.484
14801TIP3    H244361   3.657   5.933   5.556
14802TIP3   OH244362   7.156   0.650   2.464
14802TIP3    H144363   7.250   0.637   2.476
14802TIP3    H244364   7.115   0.610   2.541
14803TIP3   OH244365   3.996   5.475   5.308
14803TIP3    H144366   4.077   5.440   5.347
14803TIP3    H244367   3.940   5.398   5.298
14804TIP3   OH244368   5.382   1.891   1.267
14804TIP3    H144369   5.382   1.798   1.243
14804TIP3    H244370   5.474   1.912   1.280
14805TIP3   OH244371   3.825   3.006   5.326
14805TIP3    H144372   3.819   3.097   5.356
14805TIP3    H244373   3.788   3.007   5.238
14806TIP3   OH244374   2.957   6.220   3.350
14806TIP3    H144375   2.946   6.146   3.291
14806TIP3    H244376   3.043   6.207   3.390
14807TIP3   OH244377   0.306   1.113   6.145
14807TIP3    H144378   0.308   1.031   6.095
14807TIP3    H244379   0.367   1.170   6.098
14808TIP3   OH244380   7.803   7.672   6.371
14808TIP3    H144381   7.815   7.580   6.395
14808TIP3    H244382   7.850   7.681   6.288
14809TIP3   OH244383   0.446   6.465   1.495
14809TIP3    H144384   0.407   6.389   1.452
14809TIP3    H244385   0.540   6.451   1.489
14810TIP3   OH244386   0.510   4.019   4.446
14810TIP3    H144387   0.529   4.055   4.360
14810TIP3    H244388   0.424   4.055   4.470
14811TIP3   OH244389   6.345   1.340   3.980
14811TIP3    H144390   6.356   1.249   3.951
14811TIP3    H244391   6.435   1.371   3.995
14812TIP3   OH244392   2.968   4.248   6.126
14812TIP3    H144393   2.883   4.247   6.169
14812TIP3    H244394   2.957   4.193   6.048
14813TIP3   OH244395   1.078   6.284   5.762
14813TIP3    H144396   1.071   6.332   5.680
14813TIP3    H244397   0.987   6.265   5.786
14814TIP3   OH244398   1.233   5.672   0.067
14814TIP3    H144399   1.159   5.672   0.128
14814TIP3    H244400   1.309   5.693   0.121
14815TIP3   OH244401   4.443   0.926   2.980
14815TIP3    H144402   4.365   0.965   3.021
14815TIP3    H244403   4.448   0.967   2.894
14816TIP3   OH244404   1.339   6.755   3.372
14816TIP3    H144405   1.261   6.793   3.411
14816TIP3    H244406   1.410   6.777   3.433
14817TIP3   OH244407   4.803   7.013   5.049
14817TIP3    H144408   4.877   7.070   5.070
14817TIP3    H244409   4.730   7.073   5.035
14818TIP3   OH244410   3.109   7.562   6.345
14818TIP3    H144411   3.134   7.641   6.298
14818TIP3    H244412   3.132   7.490   6.285
14819TIP3   OH244413   1.946   1.636   6.725
14819TIP3    H144414   2.040   1.643   6.709
14819TIP3    H244415   1.931   1.687   6.805
14820TIP3   OH244416   1.454   2.558   1.555
14820TIP3    H144417   1.479   2.639   1.511
14820TIP3    H244418   1.500   2.489   1.507
14821TIP3   OH244419   8.060   3.739   4.209
14821TIP3    H144420   8.153   3.720   4.199
14821TIP3    H244421   8.016   3.671   4.158
14822TIP3   OH244422   3.382   6.376   3.268
14822TIP3    H144423   3.342   6.463   3.263
14822TIP3    H244424   3.372   6.339   3.180
14823TIP3   OH244425   4.977   0.394   1.925
14823TIP3    H144426   5.047   0.419   1.865
14823TIP3    H244427   4.912   0.464   1.915
14824TIP3   OH244428   2.191   1.285   4.946
14824TIP3    H144429   2.178   1.248   4.858
14824TIP3    H244430   2.123   1.352   4.954
14825TIP3   OH244431   1.280   2.227   1.667
14825TIP3    H144432   1.374   2.218   1.655
14825TIP3    H244433   1.268   2.318   1.694
14826TIP3   OH244434   5.092   3.292   6.651
14826TIP3    H144435   5.139   3.330   6.576
14826TIP3    H244436   5.139   3.326   6.727
14827TIP3   OH244437   0.108   6.992   5.744
14827TIP3    H144438   0.175   6.938   5.701
14827TIP3    H244439   0.157   7.066   5.780
14828TIP3   OH244440   7.735   0.263   2.664
14828TIP3    H144441   7.712   0.213   2.585
14828TIP3    H244442   7.655   0.262   2.716
14829TIP3   OH244443   0.289   3.784   2.929
14829TIP3    H144444   0.278   3.879   2.919
14829TIP3    H244445   0.227   3.760   2.997
14830TIP3   OH244446   5.191   0.117   1.385
14830TIP3    H144447   5.272   0.139   1.430
14830TIP3    H244448   5.129   0.098   1.456
14831TIP3   OH244449   6.690   6.201   4.839
14831TIP3    H144450   6.754   6.227   4.773
14831TIP3    H244451   6.659   6.284   4.877
14832TIP3   OH244452   7.824   3.228   1.145
14832TIP3    H144453   7.812   3.135   1.127
14832TIP3    H244454   7.755   3.271   1.095
14833TIP3   OH244455   4.547   4.221   2.103
14833TIP3    H144456   4.493   4.284   2.150
14833TIP3    H244457   4.486   4.153   2.074
14834TIP3   OH244458   2.038   4.163   3.352
14834TIP3    H144459   2.087   4.100   3.405
14834TIP3    H244460   2.012   4.231   3.414
14835TIP3   OH244461   5.278   7.184   2.184
14835TIP3    H144462   5.337   7.240   2.133
14835TIP3    H244463   5.311   7.095   2.170
14836TIP3   OH244464   2.405   6.450   6.610
14836TIP3    H144465   2.437   6.365   6.640
14836TIP3    H244466   2.481   6.508   6.615
14837TIP3   OH244467   6.881   4.083   2.272
14837TIP3    H144468   6.845   3.995   2.262
14837TIP3    H244469   6.935   4.095   2.193
   8.30043   7.82571   6.77727   0.00000   0.00000  -2.76681   0.00000  -2.76681  -3.91286
